/*--------------------------------*- C++ -*----------------------------------*\
| =========                 |                                                 |
| \\      /  F ield         | OpenFOAM: The Open Source CFD Toolbox           |
|  \\    /   O peration     | Version:  2506                                  |
|   \\  /    A nd           | Website:  www.openfoam.com                      |
|    \\/     M anipulation  |                                                 |
\*---------------------------------------------------------------------------*/
FoamFile
{
    version     2.0;
    format      ascii;
    arch        "LSB;label=32;scalar=64";
    class       volScalarField;
    location    "0.029";
    object      T;
}
// * * * * * * * * * * * * * * * * * * * * * * * * * * * * * * * * * * * * * //

dimensions      [0 0 0 1 0 0 0];

internalField   nonuniform List<scalar> 
13761
(
245.46361
245.46287
245.46212
245.46162
245.46138
245.56266
245.46143
245.56264
245.46142
245.56268
245.46108
245.56285
245.46087
245.56308
245.46075
245.6071
245.56334
245.46037
245.60709
245.56354
245.46009
245.60705
245.56369
245.45995
245.60702
245.56377
245.46012
245.60702
245.56372
245.46027
245.60707
245.56354
245.46035
245.67997
245.60712
245.56338
245.46048
245.68022
245.60724
245.56331
245.46056
245.68046
245.60736
245.56331
245.46057
245.68068
245.60739
245.56346
245.46068
245.68089
245.6073
245.56376
245.46071
245.68107
245.60718
245.56409
245.46049
245.64547
245.68119
245.60702
245.56439
245.46015
245.64566
245.68128
245.60693
245.56465
245.45991
245.64578
245.68135
245.60691
245.56483
245.45971
245.64585
245.68146
245.60701
245.5649
245.45954
245.6459
245.68155
245.6066
245.56493
245.45939
245.66232
245.64592
245.68169
245.6062
245.56492
245.45928
245.66251
245.64592
245.68189
245.60592
245.56469
245.45908
245.66275
245.64596
245.68217
245.60624
245.56448
245.45893
245.66295
245.64598
245.68241
245.60667
245.56435
245.45897
245.66323
245.64604
245.68259
245.60686
245.56442
245.45944
245.66344
245.64611
245.68274
245.60694
245.56452
245.46004
245.61258
245.6637
245.64622
245.68287
245.60701
245.56444
245.46041
245.61265
245.66386
245.64634
245.68296
245.60707
245.56431
245.46051
245.61274
245.66408
245.64649
245.68306
245.60684
245.56442
245.46031
245.61284
245.66422
245.64666
245.6831
245.60615
245.56482
245.46013
245.61295
245.66444
245.64685
245.68307
245.6056
245.56527
245.46013
245.61402
245.61307
245.66459
245.64705
245.68326
245.60585
245.56556
245.46014
245.6137
245.61318
245.66485
245.6473
245.68357
245.6067
245.56579
245.46004
245.61338
245.61331
245.66505
245.64752
245.68391
245.60743
245.56597
245.45988
245.61305
245.61343
245.66533
245.6477
245.68421
245.60786
245.56538
245.45981
245.61272
245.61356
245.66552
245.64783
245.68444
245.6081
245.56461
245.45989
245.6124
245.61367
245.66578
245.64797
245.68461
245.60825
245.56411
245.45993
245.63788
245.61209
245.61381
245.66596
245.64812
245.68476
245.60835
245.56395
245.45969
245.63762
245.61183
245.61393
245.66621
245.64831
245.68489
245.60836
245.56401
245.63739
245.61156
245.61407
245.66639
245.64849
245.68502
245.60837
245.56428
245.63713
245.61133
245.61419
245.66663
245.64869
245.68515
245.60851
245.56475
245.63689
245.61107
245.61434
245.66682
245.64887
245.68529
245.60875
245.56531
245.71526
245.63665
245.61083
245.61446
245.66706
245.64905
245.68547
245.60891
245.56568
245.71533
245.63641
245.61055
245.61461
245.66725
245.64923
245.68566
245.60895
245.56572
245.7154
245.63617
245.61027
245.61473
245.66749
245.64941
245.68584
245.60894
245.56553
245.71547
245.63594
245.60993
245.61489
245.66768
245.64958
245.68602
245.60893
245.56516
245.71553
245.6357
245.60955
245.61501
245.66792
245.64976
245.68619
245.60893
245.71559
245.63547
245.60913
245.61519
245.66813
245.64993
245.68635
245.60888
245.68163
245.71565
245.63524
245.60874
245.61532
245.66839
245.65013
245.68647
245.60883
245.68182
245.71571
245.635
245.60833
245.6155
245.66861
245.65034
245.68661
245.60883
245.68201
245.71577
245.63477
245.60797
245.61565
245.66887
245.65057
245.68676
245.60884
245.68219
245.71584
245.63452
245.60759
245.61584
245.66908
245.65077
245.68697
245.60889
245.68239
245.71591
245.63427
245.60727
245.61599
245.66933
245.65095
245.68716
245.60897
245.63917
245.68258
245.71598
245.63401
245.60693
245.61618
245.66954
245.65109
245.68749
245.6089
245.63907
245.68278
245.71605
245.63376
245.60663
245.61633
245.66979
245.65119
245.68787
245.63892
245.68297
245.71611
245.63349
245.6063
245.61652
245.67
245.65131
245.68808
245.63883
245.68317
245.71617
245.63324
245.60599
245.61667
245.67025
245.6515
245.68798
245.6387
245.68336
245.71622
245.63297
245.60562
245.61685
245.67045
245.65165
245.68788
245.6685
245.6386
245.68356
245.71629
245.63272
245.60527
245.617
245.67069
245.65184
245.68794
245.66843
245.63848
245.68375
245.71636
245.63244
245.60487
245.61718
245.67089
245.65201
245.68809
245.66837
245.63839
245.68394
245.71642
245.63218
245.60452
245.61733
245.67114
245.65221
245.6884
245.6683
245.63826
245.68414
245.71649
245.63189
245.60415
245.61752
245.67136
245.65236
245.68441
245.66825
245.63817
245.68433
245.71655
245.63162
245.60384
245.61767
245.67163
245.65249
245.68468
245.66817
245.63806
245.68453
245.71661
245.63132
245.6035
245.61787
245.67188
245.65269
245.68498
245.66811
245.63797
245.68473
245.71667
245.63106
245.6032
245.61803
245.67217
245.65295
245.68526
245.66801
245.63785
245.68494
245.71673
245.63076
245.60286
245.61823
245.67242
245.6532
245.68557
245.66795
245.63775
245.68515
245.71678
245.63051
245.60255
245.6184
245.6727
245.65341
245.62724
245.68586
245.66783
245.63763
245.68536
245.71683
245.63021
245.60222
245.61859
245.67295
245.65362
245.6273
245.68616
245.66777
245.63754
245.68557
245.71687
245.62996
245.60191
245.61877
245.67324
245.65383
245.62734
245.68647
245.66765
245.63744
245.68579
245.7169
245.62967
245.60158
245.61896
245.67351
245.6274
245.68677
245.66758
245.63734
245.68599
245.71692
245.62942
245.60127
245.61914
245.6738
245.63075
245.62744
245.68708
245.66746
245.63723
245.6862
245.71693
245.62911
245.60094
245.61933
245.67407
245.63069
245.62751
245.68738
245.66739
245.63714
245.6864
245.71694
245.62882
245.60062
245.6195
245.67435
245.6307
245.62754
245.68768
245.66726
245.63703
245.6866
245.71696
245.62847
245.60029
245.61968
245.6746
245.63063
245.62764
245.68799
245.66715
245.63694
245.68681
245.717
245.62814
245.59996
245.61985
245.67486
245.63264
245.63065
245.62767
245.68829
245.66702
245.63685
245.68703
245.71706
245.62776
245.59962
245.62005
245.67508
245.63287
245.63057
245.62777
245.6886
245.66689
245.63677
245.68726
245.71715
245.62745
245.59929
245.62025
245.67533
245.6331
245.6306
245.62782
245.6889
245.66676
245.63668
245.68749
245.71721
245.62711
245.59895
245.62049
245.63334
245.63051
245.62792
245.68922
245.66663
245.6366
245.68773
245.71726
245.62683
245.59861
245.62072
245.59506
245.63356
245.63054
245.62798
245.68952
245.66649
245.63653
245.68797
245.71728
245.62649
245.59828
245.62096
245.59517
245.63383
245.63045
245.62808
245.68985
245.66636
245.63647
245.6882
245.7173
245.62619
245.59793
245.62118
245.59526
245.63404
245.63046
245.62814
245.69016
245.66621
245.63641
245.68844
245.71731
245.62584
245.59759
245.6214
245.59539
245.63432
245.63035
245.62823
245.69049
245.66607
245.63635
245.68868
245.71732
245.62553
245.59724
245.62162
245.59225
245.5955
245.63454
245.63036
245.62831
245.69081
245.66588
245.63629
245.68892
245.71733
245.62517
245.59691
245.62186
245.59231
245.59566
245.63483
245.63025
245.62841
245.69114
245.66572
245.63623
245.68918
245.71734
245.62486
245.59655
245.59249
245.59578
245.63506
245.63025
245.6285
245.69146
245.6655
245.63616
245.68943
245.71736
245.62449
245.59622
245.59255
245.59595
245.63536
245.63012
245.62862
245.69179
245.66532
245.6361
245.68969
245.71737
245.62417
245.59587
245.56758
245.59272
245.59607
245.6356
245.63011
245.62873
245.69211
245.6651
245.63605
245.68995
245.71736
245.62378
245.59555
245.56785
245.59277
245.59628
245.63589
245.62999
245.62886
245.69244
245.6649
245.636
245.69021
245.71736
245.62344
245.5952
245.56806
245.59294
245.59637
245.63614
245.62996
245.62898
245.69275
245.66468
245.63596
245.69047
245.71737
245.62305
245.59487
245.53838
245.56833
245.59299
245.59661
245.63641
245.62987
245.62912
245.69309
245.66448
245.63592
245.69074
245.71738
245.62273
245.59452
245.53858
245.56855
245.59313
245.59669
245.63666
245.62981
245.62924
245.69338
245.66426
245.63588
245.69101
245.7174
245.62235
245.53878
245.5688
245.59319
245.59694
245.63691
245.62974
245.62939
245.69373
245.66406
245.63584
245.69127
245.71739
245.62202
245.52486
245.53898
245.56903
245.5933
245.59701
245.63717
245.62966
245.62952
245.694
245.66384
245.63581
245.69155
245.71738
245.62162
245.52498
245.53918
245.56927
245.59335
245.59724
245.63739
245.6296
245.62966
245.69434
245.66363
245.63577
245.69182
245.71736
245.62129
245.52531
245.53937
245.56952
245.59345
245.59732
245.63765
245.62953
245.6298
245.69461
245.6634
245.63574
245.6921
245.71734
245.62089
245.49824
245.52547
245.5396
245.56976
245.5935
245.59753
245.63786
245.62944
245.62994
245.69493
245.6632
245.63571
245.69239
245.71733
245.62053
245.49852
245.52575
245.53977
245.57005
245.5936
245.59764
245.63812
245.62938
245.63009
245.6952
245.66297
245.63569
245.69267
245.71731
245.62012
245.49876
245.52594
245.53999
245.57028
245.59362
245.59783
245.63831
245.6293
245.63024
245.69551
245.66275
245.63566
245.69296
245.71728
245.48936
245.49902
245.52619
245.54019
245.5706
245.59375
245.59798
245.63858
245.62921
245.63039
245.69578
245.66253
245.63565
245.69325
245.71725
245.48937
245.49927
245.52639
245.5404
245.57083
245.59378
245.59816
245.63876
245.62913
245.63056
245.69607
245.66231
245.63563
245.69355
245.71722
245.48956
245.49953
245.52665
245.54062
245.5712
245.5939
245.59833
245.63905
245.62902
245.63071
245.69635
245.66208
245.63562
245.69384
245.71718
245.46505
245.48959
245.49976
245.52684
245.54083
245.57142
245.59397
245.5985
245.63923
245.62895
245.63089
245.69661
245.66187
245.63561
245.69413
245.71715
245.46533
245.48982
245.50002
245.52712
245.54108
245.57182
245.59406
245.59866
245.63952
245.62884
245.63105
245.69688
245.66165
245.6356
245.69443
245.7171
245.4384
245.46531
245.48987
245.50026
245.52729
245.54131
245.57203
245.59415
245.59885
245.63971
245.62877
245.63122
245.69714
245.66144
245.63558
245.69473
245.71706
245.43849
245.46558
245.49005
245.50052
245.52759
245.54157
245.57245
245.59423
245.59899
245.64
245.62867
245.63138
245.6974
245.66122
245.63556
245.69504
245.41848
245.43848
245.46558
245.49011
245.50077
245.52777
245.54183
245.57265
245.59434
245.5992
245.64019
245.62861
245.63154
245.69766
245.66101
245.63553
245.69535
245.41842
245.43862
245.46584
245.49024
245.50105
245.52805
245.5421
245.57309
245.59441
245.59935
245.64049
245.62851
245.63171
245.69791
245.66079
245.63549
245.69566
245.41829
245.43865
245.46589
245.4903
245.50128
245.52827
245.5424
245.5733
245.59453
245.59957
245.64067
245.62845
245.63186
245.69817
245.66056
245.63546
245.69597
245.39306
245.41826
245.43878
245.4661
245.49039
245.50161
245.52852
245.54264
245.57374
245.59459
245.59974
245.64098
245.62834
245.63205
245.69842
245.6603
245.63542
245.69629
245.3927
245.4181
245.43887
245.46614
245.49044
245.50185
245.52877
245.54298
245.57397
245.5947
245.59996
245.64115
245.62827
245.63221
245.69868
245.66003
245.6354
245.69661
245.37231
245.3925
245.41808
245.43905
245.46639
245.49052
245.50218
245.52902
245.54319
245.57441
245.59475
245.60013
245.64145
245.62814
245.63241
245.69893
245.65973
245.63538
245.69694
245.37191
245.39223
245.41787
245.43916
245.46645
245.49055
245.50245
245.52927
245.54356
245.57464
245.59484
245.60035
245.64164
245.62807
245.63259
245.69919
245.65942
245.63537
245.34623
245.37206
245.39201
245.41784
245.43944
245.46673
245.49065
245.50276
245.52954
245.54375
245.5751
245.59489
245.6005
245.64192
245.62794
245.6328
245.69942
245.6591
245.63537
245.31221
245.34585
245.37177
245.3918
245.41762
245.43955
245.46682
245.49066
245.50305
245.52977
245.54412
245.57533
245.59499
245.60071
245.64211
245.62785
245.63301
245.69968
245.65879
245.63537
245.31217
245.34592
245.37188
245.39163
245.41757
245.44001
245.46704
245.4908
245.50337
245.53005
245.54432
245.57581
245.59499
245.60086
245.64239
245.62773
245.63323
245.69991
245.6585
245.63537
245.2784
245.31242
245.34554
245.37172
245.39144
245.41738
245.44019
245.46718
245.49083
245.50362
245.53029
245.54466
245.57604
245.59515
245.60104
245.64257
245.62763
245.63347
245.70016
245.65822
245.63538
245.27834
245.31252
245.34574
245.37178
245.39134
245.41731
245.44068
245.46742
245.49097
245.50396
245.53056
245.5449
245.57652
245.59513
245.60122
245.64285
245.62751
245.63369
245.70038
245.65797
245.63537
245.23514
245.27892
245.3127
245.34552
245.37161
245.39122
245.4171
245.44102
245.46755
245.49101
245.50418
245.5308
245.5452
245.57676
245.5953
245.60137
245.64303
245.6274
245.63395
245.70061
245.65772
245.21025
245.23521
245.27869
245.31291
245.34578
245.3716
245.39119
245.41707
245.44148
245.46791
245.49114
245.50453
245.53105
245.54547
245.57722
245.59529
245.60158
245.64329
245.62726
245.63416
245.70082
245.65746
245.19315
245.20662
245.23638
245.27921
245.31293
245.34563
245.37141
245.39108
245.4168
245.44191
245.46806
245.4912
245.50474
245.5313
245.54575
245.57748
245.59545
245.60173
245.64349
245.62716
245.63444
245.70104
245.65719
245.19127
245.20395
245.23746
245.2789
245.31328
245.34595
245.37117
245.39112
245.41679
245.44238
245.46847
245.49132
245.5051
245.53152
245.54605
245.57794
245.59544
245.60195
245.64372
245.62702
245.63465
245.70124
245.65691
245.16549
245.18883
245.20146
245.23912
245.27917
245.31313
245.34584
245.37098
245.39094
245.41648
245.4428
245.46873
245.49139
245.50531
245.53176
245.54632
245.57819
245.5956
245.60211
245.64393
245.62693
245.63493
245.70147
245.65663
245.14521
245.16145
245.18692
245.19984
245.24028
245.27893
245.31351
245.34615
245.37051
245.39103
245.4165
245.44324
245.46924
245.49153
245.50571
245.53198
245.54664
245.57866
245.59559
245.60231
245.64414
245.62679
245.63514
245.70167
245.65635
245.12825
245.14252
245.15728
245.18448
245.19836
245.24147
245.27899
245.31324
245.34609
245.37023
245.39082
245.41618
245.44367
245.46963
245.49164
245.50595
245.53222
245.54687
245.57892
245.59576
245.60245
245.64434
245.6267
245.63543
245.7019
245.65607
245.11177
245.12119
245.13944
245.15416
245.18232
245.1974
245.24204
245.27878
245.31352
245.3464
245.36983
245.39089
245.41617
245.44402
245.47029
245.4918
245.50639
245.53245
245.54723
245.57939
245.59577
245.60268
245.64454
245.62656
245.63566
245.7021
245.10506
245.1078
245.11575
245.13664
245.15076
245.17965
245.19668
245.24278
245.2787
245.31326
245.34642
245.36952
245.39065
245.41588
245.44448
245.47072
245.492
245.50667
245.53268
245.54745
245.57966
245.59591
245.60279
245.64473
245.62648
245.63592
245.70232
245.07474
245.09933
245.10289
245.10997
245.13389
245.14835
245.17708
245.19623
245.24298
245.27859
245.31346
245.34675
245.36929
245.3907
245.41585
245.44478
245.47138
245.49215
245.50711
245.53296
245.54783
245.58013
245.59594
245.60304
245.64493
245.62634
245.63618
245.70252
245.02838
245.0701
245.07012
245.09361
245.09885
245.10528
245.13098
245.14545
245.17408
245.19621
245.24351
245.27836
245.31327
245.34681
245.36915
245.39042
245.41569
245.44519
245.47176
245.49245
245.50745
245.53318
245.54803
245.58043
245.59605
245.60315
245.6451
245.62625
245.63645
245.70273
244.9961
245.02083
245.06438
245.06597
245.08732
245.09358
245.10061
245.12853
245.14347
245.17135
245.19599
245.24361
245.2784
245.31353
245.34713
245.36906
245.39044
245.41566
245.44552
245.47233
245.49253
245.50788
245.53351
245.54843
245.58089
245.5961
245.60342
245.6453
245.62614
245.63672
245.70291
244.96183
245.00075
244.99409
245.01265
245.05534
245.06041
245.08177
245.08932
245.09645
245.12546
245.14095
245.16872
245.19702
245.24389
245.278
245.31341
245.34717
245.36903
245.39016
245.41561
245.44583
245.47265
245.49287
245.50823
245.53374
245.54863
245.58122
245.59622
245.60354
245.64547
245.62604
245.637
245.70309
244.91294
244.93212
244.95788
244.99815
244.99283
245.00725
245.04746
245.05395
245.07481
245.08407
245.09261
245.12316
245.13926
245.16651
245.19723
245.24408
245.2781
245.31381
245.34733
245.36904
245.39014
245.41563
245.4462
245.4731
245.49296
245.50867
245.53411
245.54905
245.58167
245.59627
245.60382
245.64564
245.62595
245.6373
244.86744
244.8872
244.91283
244.93117
244.9539
244.99394
244.99049
245.00102
245.03816
245.04737
245.06877
245.07955
245.08893
245.11999
245.13705
245.16482
245.19836
245.24409
245.27751
245.31382
245.34734
245.36911
245.38993
245.41569
245.44645
245.47331
245.49323
245.50901
245.53441
245.54925
245.58205
245.59641
245.60397
245.64582
245.62584
245.63759
244.81185
244.82697
244.84358
244.86662
244.88679
244.91091
244.92813
244.94862
244.9896
244.98982
244.99712
245.02955
245.03946
245.06112
245.07434
245.08577
245.11776
245.13538
245.16315
245.19845
245.24451
245.27753
245.31452
245.34738
245.3694
245.38983
245.41573
245.44685
245.47364
245.49337
245.50943
245.53479
245.54969
245.58246
245.59646
245.60424
245.64597
245.62578
245.63789
244.75449
244.76365
244.77949
244.81149
244.82856
244.84377
244.8671
244.88716
244.90952
244.92509
244.94303
244.98294
244.9868
244.99221
245.02139
245.0328
245.05433
245.06962
245.08224
245.11452
245.13337
245.16223
245.19912
245.24432
245.27662
245.31484
245.34731
245.3695
245.38974
245.41584
245.44709
245.47377
245.49353
245.50979
245.53515
245.5499
245.58286
245.59662
245.6044
245.64616
245.62567
245.63818
244.70896
244.71385
244.71447
244.73091
244.7514
244.75471
244.76339
244.77822
244.81138
244.83008
244.84286
244.86434
244.88484
244.9067
244.92126
244.93783
244.97779
244.98578
244.98813
245.01348
245.02509
245.04648
245.06462
245.0796
245.11215
245.1314
245.161
245.19906
245.2449
245.27644
245.31567
245.34725
245.36955
245.38969
245.41589
245.44751
245.47403
245.49371
245.51017
245.53551
245.55037
245.58324
245.59668
245.60467
245.64628
245.62561
245.63848
244.66891
244.66354
244.66711
244.68869
244.68355
244.67499
244.69086
244.70577
244.70612
244.71029
244.71151
244.72619
244.75082
244.75467
244.76322
244.77768
244.81041
244.83164
244.84254
244.86246
244.88266
244.9038
244.91732
244.93202
244.96984
244.98193
244.98368
245.00714
245.01913
245.03961
245.05974
245.0761
245.10895
245.12957
245.16081
245.19954
245.24453
245.2755
245.31626
245.34715
245.36949
245.38971
245.41598
245.44773
245.47412
245.49386
245.51058
245.53592
245.55059
245.58363
245.59684
245.60481
245.64647
245.6255
245.63878
247.96213
247.96754
247.97296
247.97835
247.98361
247.98843
247.99181
247.98952
247.95468
247.78792
247.46988
246.94115
246.23813
245.51103
244.97208
244.72623
244.65504
244.63701
244.62686
244.62209
244.62618
244.64328
244.65172
244.64686
244.63928
244.64212
244.64681
244.6411
244.63395
244.639
244.66192
244.66211
244.64578
244.6474
244.66632
244.6629
244.66359
244.68484
244.68107
244.67154
244.68739
244.70555
244.70588
244.7091
244.7103
244.72451
244.75175
244.75699
244.76426
244.77751
244.80909
244.83133
244.84017
244.85796
244.87879
244.90056
244.91401
244.92787
244.96382
244.97854
244.97897
245.00059
245.01213
245.03247
245.05512
245.07376
245.10639
245.12719
245.16008
245.19961
245.24513
245.27531
245.31713
245.34712
245.36938
245.38977
245.41605
245.44815
245.47435
245.49406
245.51093
245.53626
245.55109
245.584
245.5969
245.60509
245.64659
245.62544
247.89025
247.895
247.89982
247.90467
247.90955
247.91445
247.91939
247.92436
247.92929
247.9339
247.9373
247.93562
247.90606
247.75262
247.42129
246.8209
246.12296
245.45119
244.95909
244.73163
244.6629
244.64345
244.63132
244.62409
244.62617
244.6424
244.6524
244.64722
244.63801
244.63948
244.64473
244.6398
244.63106
244.63601
244.65739
244.658
244.64298
244.64374
244.66356
244.66301
244.66102
244.68014
244.68061
244.66856
244.68205
244.70318
244.70282
244.7067
244.7084
244.72074
244.75144
244.75846
244.76553
244.77674
244.80642
244.83135
244.83758
244.85334
244.87483
244.89724
244.90998
244.92217
244.95534
244.97325
244.97508
244.99586
245.00661
245.02616
245.05004
245.07021
245.1036
245.12543
245.16076
245.19998
245.24463
245.27469
245.31776
245.34701
245.36928
245.38976
245.41606
245.44838
245.47445
245.49423
245.51136
245.53669
245.55132
245.58437
245.59704
245.60522
245.64678
245.62533
247.86073
247.86621
247.87189
247.87772
247.88367
247.88968
247.89575
247.90186
247.90802
247.91425
247.92055
247.92684
247.93276
247.93719
247.93527
247.89964
247.72436
247.32909
246.76203
246.09198
245.3975
244.91117
244.7067
244.64853
244.63033
244.61832
244.61174
244.6163
244.63341
244.64399
244.63775
244.62756
244.6296
244.63686
244.6345
244.62619
244.63106
244.65092
244.65429
244.64091
244.6393
244.65886
244.6614
244.6581
244.67638
244.67921
244.66629
244.67839
244.70311
244.70416
244.70714
244.70949
244.72011
244.75214
244.76072
244.76612
244.77657
244.80224
244.82897
244.83329
244.84762
244.87067
244.89473
244.90752
244.91812
244.94788
244.96708
244.97047
244.99028
245.00027
245.02038
245.04605
245.06774
245.101
245.12283
245.16083
245.20029
245.24514
245.27481
245.31834
245.34703
245.36915
245.38999
245.41629
245.44881
245.47466
245.49445
245.51173
245.53702
245.55185
245.58474
245.59711
245.6055
245.64689
245.62526
247.85296
247.85849
247.8643
247.87037
247.87667
247.88317
247.88982
247.89656
247.90335
247.91017
247.91702
247.92391
247.93085
247.93785
247.94479
247.95124
247.95582
247.95275
247.90924
247.71642
247.33619
246.79101
246.10376
245.38545
244.89379
244.68436
244.6287
244.61681
244.61014
244.60671
244.61139
244.62787
244.63841
244.63498
244.62466
244.62553
244.63355
244.63242
244.62384
244.62663
244.64598
244.65079
244.63837
244.63542
244.65444
244.66196
244.65694
244.67061
244.67897
244.66496
244.67434
244.7011
244.70226
244.70507
244.70791
244.71769
244.74923
244.76167
244.76586
244.77439
244.79767
244.82574
244.82884
244.84217
244.86639
244.89093
244.90296
244.91213
244.93927
244.96079
244.96718
244.9862
244.99502
245.01495
245.04126
245.06418
245.09868
245.12119
245.16218
245.2005
245.2445
245.27452
245.31885
245.34687
245.36911
245.39004
245.41629
245.44909
245.47483
245.49458
245.51217
245.53747
245.55208
245.58511
245.59723
245.60564
245.64708
245.62517
247.82244
247.82593
247.82963
247.83356
247.83772
247.84209
247.84668
247.85147
247.85644
247.86154
247.86675
247.87201
247.87727
247.88249
247.88765
247.89273
247.89774
247.90267
247.90751
247.91216
247.91631
247.91892
247.91579
247.88075
247.70609
247.3612
246.79405
246.06563
245.3725
244.89296
244.69065
244.63859
244.62882
244.6231
244.61806
244.61893
244.63095
244.64022
244.63694
244.62516
244.62568
244.63301
244.63156
244.62208
244.62336
244.64165
244.64774
244.63663
244.6322
244.64991
244.66134
244.65465
244.66628
244.67741
244.66404
244.67208
244.70171
244.70438
244.70629
244.70955
244.71705
244.74751
244.76266
244.76498
244.7718
244.79187
244.82135
244.82401
244.83735
244.86312
244.88848
244.89964
244.90675
244.93072
244.95323
244.96229
244.98092
244.98958
245.01051
245.03816
245.06137
245.09609
245.11872
245.1623
245.201
245.24482
245.27494
245.31923
245.34686
245.36899
245.39052
245.41667
245.44953
245.47506
245.4948
245.51256
245.53778
245.55262
245.58546
245.59729
245.60593
245.6472
245.62509
247.77008
247.77123
247.77253
247.774
247.77566
247.7775
247.77955
247.78182
247.78431
247.78704
247.79001
247.79324
247.79673
247.80047
247.80447
247.8087
247.81314
247.81776
247.82252
247.82737
247.83227
247.83721
247.84215
247.84711
247.8521
247.85708
247.86196
247.86638
247.86934
247.86677
247.83409
247.66726
247.29098
246.66795
245.96662
245.32133
244.88501
244.69608
244.64554
244.63349
244.62595
244.61968
244.61999
244.63113
244.64083
244.63493
244.62096
244.62034
244.62897
244.62816
244.61887
244.61937
244.63629
244.64416
244.63438
244.62925
244.64511
244.66021
244.65367
244.66177
244.67731
244.66387
244.66845
244.69743
244.70191
244.7036
244.7078
244.71437
244.74243
244.76113
244.76243
244.76804
244.78601
244.81617
244.81912
244.8324
244.85843
244.8832
244.89401
244.90063
244.92297
244.94663
244.95854
244.97693
244.98485
245.00566
245.03418
245.05801
245.09432
245.11739
245.16266
245.20111
245.24396
245.27499
245.31973
245.34663
245.36906
245.39075
245.41681
245.44986
245.47534
245.49482
245.51299
245.53824
245.55286
245.58586
245.59739
245.60608
245.64738
247.73179
247.732
247.7322
247.73245
247.7327
247.73297
247.73324
247.7335
247.73377
247.73405
247.73435
247.73469
247.73508
247.73552
247.73603
247.73663
247.73731
247.73809
247.73899
247.74
247.74115
247.74244
247.74388
247.74548
247.74725
247.74921
247.75135
247.75371
247.75628
247.75908
247.76213
247.76544
247.76902
247.77288
247.77703
247.78147
247.78621
247.79124
247.79653
247.80206
247.8078
247.81369
247.81969
247.82577
247.83188
247.83802
247.8442
247.85043
247.85669
247.86288
247.86862
247.87261
247.86958
247.83004
247.63567
247.21192
246.6255
245.94445
245.27194
244.84026
244.67132
244.62822
244.61581
244.60933
244.6053
244.60667
244.61623
244.62873
244.62488
244.61209
244.60971
244.62094
244.62329
244.615
244.61442
244.62926
244.64019
244.63193
244.62552
244.63957
244.6597
244.65302
244.6583
244.67522
244.6631
244.66564
244.69675
244.70349
244.70426
244.70887
244.71288
244.73792
244.7588
244.75957
244.76468
244.78022
244.81105
244.8153
244.82868
244.85473
244.87875
244.88868
244.89427
244.91495
244.93845
244.95277
244.9722
244.98069
245.00231
245.03186
245.05493
245.09189
245.11551
245.16237
245.20179
245.24395
245.2758
245.32003
245.34651
245.36902
245.39138
245.41723
245.45034
245.47567
245.49506
245.51341
245.53856
245.55337
245.58619
245.59744
245.60635
245.64751
247.72934
247.72914
247.72875
247.72819
247.72754
247.72684
247.72621
247.72571
247.72541
247.72532
247.72544
247.72575
247.72624
247.72691
247.72773
247.7287
247.72982
247.73109
247.73251
247.73407
247.73579
247.73766
247.73968
247.74188
247.74424
247.74678
247.7495
247.7524
247.75549
247.75878
247.76228
247.76602
247.76999
247.77422
247.77872
247.7835
247.78856
247.79389
247.7995
247.80537
247.81145
247.81771
247.8241
247.83058
247.83708
247.8436
247.85011
247.85662
247.86315
247.86968
247.87606
247.88185
247.88562
247.88165
247.83707
247.63004
247.22815
246.65065
245.95193
245.26057
244.8285
244.65644
244.6154
244.60831
244.60484
244.60089
244.60067
244.60766
244.62028
244.62003
244.60869
244.60616
244.61655
244.62089
244.61239
244.61016
244.62459
244.63769
244.62962
244.62306
244.63548
244.65685
244.65204
244.65366
244.67195
244.66254
244.66152
244.69038
244.70074
244.69997
244.70538
244.70887
244.73076
244.75551
244.75509
244.76054
244.7749
244.80441
244.81048
244.82331
244.84836
244.87177
244.88255
244.88888
244.90859
244.93132
244.94793
244.96846
244.9763
244.99793
245.02913
245.05225
245.09045
245.11473
245.16211
245.20184
245.24259
245.27637
245.3205
245.34624
245.36934
245.39175
245.4176
245.45069
245.476
245.49504
245.51384
245.53903
245.5536
245.58661
245.59751
245.6065
245.64768
247.70979
247.70981
247.70988
247.71
247.71021
247.71053
247.71098
247.71154
247.71222
247.71298
247.71381
247.71472
247.7157
247.71674
247.71784
247.71902
247.72026
247.72158
247.72298
247.72446
247.72602
247.72767
247.72941
247.73125
247.73319
247.73524
247.7374
247.73969
247.74211
247.74467
247.74738
247.75025
247.75329
247.75651
247.75991
247.76351
247.7673
247.77128
247.77544
247.77976
247.78422
247.78877
247.79339
247.79801
247.80262
247.8072
247.81173
247.81622
247.82067
247.82504
247.82922
247.83285
247.83489
247.83118
247.79634
247.6157
247.24151
246.63076
245.89427
245.24331
244.82741
244.66331
244.62584
244.61957
244.61462
244.60752
244.60526
244.61075
244.62274
244.62142
244.60854
244.6046
244.61361
244.61925
244.61017
244.60688
244.61992
244.63384
244.62787
244.62021
244.63043
244.65403
244.64976
244.65009
244.66769
244.66059
244.65816
244.68759
244.70116
244.69902
244.70383
244.70642
244.7253
244.75168
244.75255
244.75696
244.7704
244.7989
244.80683
244.81906
244.84262
244.86486
244.8759
244.88255
244.90139
244.92249
244.9414
244.96458
244.97315
244.99517
245.02741
245.04931
245.08816
245.11367
245.16198
245.20276
245.24221
245.2774
245.32071
245.34598
245.36949
245.39237
245.41809
245.45117
245.47637
245.49526
245.51428
245.53937
245.5541
245.58691
245.59757
245.60676
245.6478
247.69077
247.69069
247.69053
247.69029
247.68997
247.68958
247.68916
247.68875
247.68837
247.68805
247.68779
247.68761
247.68749
247.68744
247.68746
247.68754
247.6877
247.68794
247.68825
247.68865
247.68914
247.68972
247.6904
247.6912
247.69213
247.6932
247.69443
247.69582
247.6974
247.69917
247.70115
247.70334
247.70578
247.70846
247.7114
247.71461
247.71811
247.72189
247.72594
247.73027
247.73483
247.73961
247.74455
247.74962
247.75476
247.75991
247.76505
247.77018
247.7753
247.78039
247.78532
247.78975
247.79256
247.78928
247.75346
247.56521
247.13661
246.50489
245.80972
245.18955
244.80568
244.66336
244.62721
244.6188
244.61151
244.60248
244.59948
244.60473
244.61777
244.61863
244.60527
244.59795
244.6069
244.61473
244.6075
244.60141
244.61249
244.62911
244.62379
244.61518
244.62498
244.64944
244.64841
244.64571
244.663
244.65955
244.65364
244.67971
244.69714
244.69306
244.69923
244.7015
244.71842
244.74605
244.74763
244.75275
244.76441
244.79091
244.80095
244.81219
244.83501
244.85727
244.87022
244.87779
244.89567
244.91506
244.93581
244.96073
244.96896
244.99128
245.02591
245.04742
245.087
245.11342
245.16134
245.20283
245.241
245.27872
245.32104
245.34573
245.36985
245.39275
245.41857
245.45146
245.47667
245.49524
245.51473
245.53983
245.55433
245.58734
245.5976
245.60693
245.64797
247.66196
247.6619
247.66179
247.66161
247.66138
247.66111
247.66083
247.66058
247.66041
247.66031
247.66032
247.66041
247.66061
247.66091
247.66131
247.66181
247.66242
247.66315
247.66399
247.66496
247.66605
247.66728
247.66866
247.67019
247.67188
247.67375
247.67579
247.67803
247.68048
247.68314