/*--------------------------------*- C++ -*----------------------------------*\
| =========                 |                                                 |
| \\      /  F ield         | OpenFOAM: The Open Source CFD Toolbox           |
|  \\    /   O peration     | Version:  2506                                  |
|   \\  /    A nd           | Website:  www.openfoam.com                      |
|    \\/     M anipulation  |                                                 |
\*---------------------------------------------------------------------------*/
FoamFile
{
    version     2.0;
    format      ascii;
    arch        "LSB;label=32;scalar=64";
    class       volScalarField;
    location    "0.0305";
    object      rho;
}
// * * * * * * * * * * * * * * * * * * * * * * * * * * * * * * * * * * * * * //

dimensions      [1 -3 0 0 0 0 0];

internalField   nonuniform List<scalar> 
13761
(
0.57305255
0.57305222
0.57305114
0.57304867
0.57304409
0.57303694
0.57302732
0.57301568
0.57300242
0.57298783
0.57297204
0.57295514
0.57293713
0.57264316
0.57264283
0.5726418
0.57263945
0.5726351
0.57262831
0.57261916
0.57260803
0.5725953
0.57258119
0.57256581
0.5725492
0.57253137
0.57251228
0.57249189
0.57247012
0.57244687
0.57242204
0.57239553
0.57236723
0.57233701
0.57230476
0.57227037
0.57223373
0.57219476
0.57215341
0.57225228
0.57225197
0.57225099
0.57224875
0.57224458
0.57223804
0.57222918
0.57221835
0.57220586
0.57219193
0.57217663
0.57215999
0.57214199
0.57212261
0.57210177
0.57207939
0.57205538
0.57202962
0.57200202
0.57197246
0.57194081
0.57190697
0.57187084
0.57183231
0.57179132
0.57174784
0.57170189
0.57165354
0.57160298
0.57155051
0.57149659
0.57144189
0.57189136
0.57189106
0.57189011
0.57188792
0.57188385
0.57187744
0.5718687
0.57185795
0.57184548
0.57183147
0.57181597
0.57179902
0.57178057
0.57176059
0.571739
0.57171572
0.57169064
0.57166367
0.57163468
0.57160358
0.57157024
0.57153457
0.57149646
0.57145584
0.57141266
0.5713669
0.57131862
0.57126793
0.57121504
0.57116032
0.57110427
0.57104764
0.57099146
0.57093715
0.57088659
0.57084233
0.69137539
0.69137538
0.69137542
0.69137558
0.691376
0.69137684
0.69137831
0.69138062
0.69138394
0.69138834
0.6913938
0.6914003
0.69140779
0.69141622
0.69142559
0.69143588
0.6914471
0.69145926
0.69147238
0.69148649
0.69150163
0.69151784
0.69153517
0.69155369
0.69157348
0.69159463
0.69161726
0.69164151
0.69166752
0.6916955
0.69172565
0.69175823
0.6917935
0.6918318
0.69187352
0.69191914
0.69196917
0.69202389
0.69208131
0.6921296
0.69215079
0.69215472
0.69215528
0.69215565
0.69215617
0.69215688
0.69215777
0.69215884
0.69216007
0.69216144
0.69216294
0.69216455
0.69121014
0.69121012
0.69121014
0.69121027
0.69121064
0.69121143
0.69121285
0.69121511
0.69121837
0.69122271
0.69122813
0.6912346
0.69124207
0.69125051
0.69125991
0.69127025
0.69128157
0.69129385
0.69130714
0.69132146
0.69133684
0.69135333
0.69137098
0.69138986
0.69141003
0.69143159
0.69145465
0.69147933
0.69150579
0.69153422
0.69156482
0.69159783
0.69163355
0.6916723
0.69171449
0.69176061
0.69181126
0.69186686
0.69192615
0.69197903
0.69200518
0.69201079
0.69201187
0.69201264
0.69201358
0.69201473
0.6920161
0.69201767
0.69201942
0.69202136
0.69202345
0.69202568
0.69202802
0.69203041
0.69203283
0.69203519
0.69203743
0.69203947
0.69204119
0.69204247
0.69204315
0.69204306
0.69104462
0.69104461
0.69104464
0.69104479
0.69104518
0.69104599
0.69104741
0.69104967
0.69105292
0.69105724
0.69106263
0.69106906
0.6910765
0.69108492
0.69109431
0.69110468
0.69111604
0.6911284
0.69114181
0.69115628
0.69117186
0.69118859
0.69120652
0.69122571
0.69124624
0.69126819
0.69129166
0.69131677
0.69134368
0.69137256
0.69140362
0.69143709
0.69147326
0.69151246
0.69155511
0.69160172
0.69165293
0.69170931
0.69177021
0.69182736
0.69185902
0.69186671
0.69186835
0.6918695
0.69187083
0.69187239
0.6918742
0.69187623
0.69187848
0.69188093
0.69188357
0.69188638
0.69188931
0.69189233
0.69189539
0.69189844
0.69190139
0.69190417
0.69190666
0.69190873
0.69191025
0.69191104
0.69191088
0.69190953
0.69190671
0.69190207
0.69189523
0.6908794
0.6908794
0.69087945
0.69087961
0.69088003
0.69088086
0.69088231
0.69088458
0.69088783
0.69089212
0.69089746
0.69090384
0.69091122
0.69091959
0.69092894
0.69093929
0.69095065
0.69096305
0.69097653
0.69099111
0.69100683
0.69102376
0.69104193
0.69106141
0.69108226
0.69110457
0.69112845
0.691154
0.69118136
0.69121072
0.69124225
0.69127621
0.69131287
0.69135256
0.6913957
0.69144283
0.69149459
0.69155171
0.69161402
0.69167511
0.69171286
0.69172317
0.69172547
0.69172699
0.69172868
0.69173062
0.69173282
0.69173527
0.69173795
0.69174085
0.69174396
0.69174725
0.6917507
0.69175426
0.69175788
0.6917615
0.69176507
0.69176848
0.69177164
0.69177442
0.69177668
0.69177825
0.69177893
0.69177846
0.69177659
0.69177297
0.69176722
0.69175889
0.69174746
0.69173232
0.69171276
0.69072027
0.69072027
0.69072031
0.69072048
0.69072088
0.69072169
0.69072309
0.6907253
0.69072846
0.69073264
0.69073785
0.69074409
0.69075132
0.69075955
0.69076877
0.69077901
0.69079028
0.69080262
0.69081607
0.69083066
0.69084644
0.69086346
0.69088177
0.69090143
0.69092251
0.69094509
0.69096927
0.69099515
0.69102287
0.69105259
0.6910845
0.69111883
0.69115584
0.69119588
0.69123936
0.69128682
0.69133893
0.69139651
0.69145984
0.69152425
0.69156837
0.69158184
0.69158474
0.69158648
0.69158838
0.69159055
0.691593
0.69159572
0.6915987
0.69160191
0.69160536
0.691609
0.69161281
0.69161676
0.69162079
0.69162485
0.69162888
0.69163279
0.69163647
0.69163983
0.69164271
0.69164494
0.69164634
0.69164666
0.69164564
0.69164296
0.69163823
0.69163102
0.69162082
0.69160702
0.69158895
0.69156582
0.69153671
0.69150059
0.69055776
0.69055777
0.69055782
0.69055799
0.69055838
0.69055916
0.69056051
0.69056261
0.69056563
0.69056963
0.69057464
0.69058065
0.69058766
0.69059567
0.69060469
0.69061474
0.69062587
0.69063811
0.6906515
0.69066608
0.69068192
0.69069905
0.69071753
0.69073744
0.69075883
0.69078178
0.69080639
0.69083276
0.69086101
0.69089131
0.69092384
0.69095881
0.69099649
0.6910372
0.69108135
0.69112948
0.69118228
0.69124063
0.69130516
0.69137284
0.69142412
0.69144197
0.69144593
0.69144805
0.69145024
0.69145266
0.69145534
0.69145826
0.69146142
0.6914648
0.69146841
0.69147222
0.69147621
0.69148035
0.69148459
0.69148889
0.69149319
0.69149741
0.69150145
0.69150521
0.69150855
0.69151131
0.6915133
0.6915143
0.69151403
0.69151218
0.69150839
0.69150222
0.69149318
0.69148068
0.69146404
0.69144251
0.69141517
0.69138102
0.69133892
0.69128758
0.69122555
0.69042377
0.69042378
0.69042383
0.69042399
0.69042436
0.69042509
0.69042635
0.69042832
0.69043115
0.69043491
0.69043962
0.69044528
0.69045191
0.6904595
0.69046809
0.69047771
0.69048839
0.69050019
0.69051316
0.69052734
0.69054278
0.69055956
0.69057772
0.69059733
0.69061845
0.69064116
0.69066555
0.69069171
0.69071977
0.69074988
0.6907822
0.69081694
0.69085437
0.69089478
0.6909386
0.69098635
0.69103873
0.6910967
0.69116116
0.69123046
0.69128772
0.69130991
0.69131427
0.69131596
0.69131767
0.69131966
0.69132193
0.6913245
0.69132735
0.69133047
0.69133384
0.69133746
0.69134131
0.69134534
0.69134953
0.69135382
0.69135816
0.69136248
0.69136669
0.69137068
0.69137432
0.69137745
0.6913799
0.69138144
0.69138181
0.6913807
0.69137775
0.69137255
0.6913646
0.69135333
0.69133808
0.69131809
0.69129248
0.69126027
0.69122033
0.69117138
0.69111202
0.69104069
0.69095567
0.69029114
0.69029113
0.69029114
0.69029125
0.69029156
0.69029221
0.69029338
0.69029525
0.69029795
0.69030155
0.69030607
0.6903115
0.69031786
0.69032514
0.69033337
0.69034261
0.69035289
0.69036427
0.69037681
0.69039057
0.69040561
0.69042201
0.69043982
0.69045911
0.69047995
0.69050243
0.69052662
0.69055263
0.69058057
0.69061057
0.69064281
0.69067747
0.6907148
0.6907551
0.69079877
0.69084634
0.69089851
0.69095626
0.69102068
0.69109118
0.69115391
0.69118125
0.69118628
0.69118744
0.6911885
0.69118984
0.69119149
0.69119344
0.69119572
0.6911983
0.69120118
0.69120436
0.69120781
0.69121151
0.69121543
0.69121951
0.69122371
0.69122795
0.69123216
0.69123622
0.69124002
0.69124339
0.69124618
0.69124814
0.69124904
0.69124857
0.69124638
0.69124206
0.69123513
0.69122502
0.69121109
0.69119259
0.69116867
0.69113835
0.69110052
0.69105393
0.6909972
0.69092878
0.69084698
0.69074997
0.69063582
0.690147
0.690147
0.69014705
0.6901472
0.69014756
0.69014829
0.69014954
0.6901515
0.69015428
0.69015795
0.69016251
0.69016794
0.69017425
0.69018144
0.69018955
0.69019861
0.69020867
0.69021981
0.69023208
0.69024556
0.69026032
0.69027644
0.690294
0.69031307
0.69033373
0.69035608
0.6903802
0.69040619
0.69043416
0.69046426
0.69049663
0.69053146
0.69056899
0.69060951
0.69065341
0.69070119
0.69075356
0.69081151
0.69087627
0.69094803
0.69101602
0.69104971
0.69105628
0.69105738
0.69105817
0.69105919
0.6910605
0.6910621
0.691064
0.6910662
0.69106871
0.69107152
0.69107461
0.69107798
0.6910816
0.69108543
0.69108942
0.69109352
0.69109764
0.6911017
0.69110556
0.69110909
0.69111211
0.69111442
0.69111576
0.69111585
0.69111433
0.69111082
0.69110483
0.69109581
0.69108314
0.69106607
0.69104377
0.69101528
0.69097952
0.69093524
0.69088109
0.69081554
0.69073691
0.69064342
0.69053311
0.69040394
0.69000052
0.69000051
0.69000053
0.69000065
0.69000098
0.69000166
0.69000287
0.69000479
0.69000755
0.6900112
0.69001573
0.69002114
0.69002741
0.69003454
0.69004257
0.69005151
0.69006144
0.6900724
0.69008448
0.69009773
0.69011226
0.69012813
0.69014544
0.69016428
0.69018474
0.69020692
0.69023091
0.69025682
0.69028477
0.69031489
0.69034735
0.69038231
0.69042002
0.69046075
0.69050487
0.69055288
0.69060549
0.69066368
0.69072878
0.69080157
0.69087414
0.69091493
0.6909237
0.69092495
0.69092563
0.69092652
0.69092768
0.69092912
0.69093085
0.69093288
0.69093519
0.6909378
0.6909407
0.69094387
0.69094729
0.69095095
0.6909548
0.69095878
0.69096283
0.69096686
0.69097077
0.69097441
0.69097763
0.69098022
0.69098195
0.69098252
0.69098162
0.69097885
0.69097373
0.69096575
0.69095427
0.69093857
0.69091784
0.69089113
0.69085737
0.69081536
0.69076373
0.690701
0.69062551
0.69053547
0.69042897
0.69030396
0.69015834
0.68998997
0.68985012
0.68985013
0.68985018
0.68985034
0.68985072
0.68985146
0.68985275
0.68985475
0.68985758
0.68986129
0.68986588
0.68987133
0.68987762
0.68988475
0.68989275
0.68990166
0.68991151
0.68992238
0.68993432
0.68994743
0.68996178
0.68997746
0.68999457
0.6900132
0.69003347
0.69005547
0.69007931
0.69010511
0.690133
0.69016312
0.69019563
0.69023071
0.69026858
0.69030951
0.69035388
0.69040216
0.69045505
0.69051354
0.690579
0.69065266
0.69072911
0.69077751
0.6907892
0.69079076
0.69079139
0.6907922
0.69079327
0.69079463
0.69079627
0.6907982
0.69080042
0.69080293
0.69080573
0.6908088
0.69081214
0.69081571
0.69081949
0.69082342
0.69082745
0.6908315
0.69083546
0.69083922
0.69084263
0.69084548
0.69084755
0.69084858
0.69084825
0.69084616
0.69084187
0.69083486
0.69082452
0.69081014
0.69079092
0.69076594
0.69073413
0.69069432
0.69064518
0.69058521
0.69051281
0.69042618
0.69032343
0.69020254
0.6900614
0.68989786
0.6897098
0.68969908
0.68969908
0.6896991
0.68969921
0.68969954
0.68970023
0.68970145
0.6897034
0.68970618
0.68970984
0.68971439
0.6897198
0.68972605
0.68973315
0.6897411
0.68974995
0.68975974
0.68977052
0.68978236
0.68979535
0.68980956
0.68982508
0.68984202
0.68986048
0.68988056
0.68990239
0.68992608
0.68995175
0.68997955
0.69000963
0.69004214
0.69007728
0.69011527
0.69015638
0.69020098
0.69024953
0.69030271
0.69036151
0.69042734
0.69050174
0.69058141
0.69063768
0.69065311
0.69065517
0.6906558
0.69065657
0.6906576
0.6906589
0.69066049
0.69066237
0.69066454
0.690667
0.69066975
0.69067278
0.69067608
0.69067962
0.69068338
0.69068731
0.69069137
0.69069547
0.69069953
0.69070342
0.69070701
0.69071013
0.69071254
0.690714
0.6907142
0.69071276
0.69070925
0.69070317
0.69069392
0.69068081
0.69066305
0.69063974
0.69060984
0.69057218
0.69052546
0.69046822
0.69039884
0.69031558
0.69021654
0.69009972
0.68996301
0.68980427
0.68962136
0.68941219
0.68954523
0.68954524
0.68954529
0.68954544
0.68954583
0.68954657
0.68954787
0.68954988
0.68955272
0.68955643
0.68956102
0.68956645
0.68957272
0.68957982
0.68958776
0.68959658
0.68960633
0.68961706
0.68962883
0.68964173
0.68965583
0.68967123
0.68968803
0.68970633
0.68972626
0.68974793
0.68977147
0.68979701
0.6898247
0.6898547
0.68988719
0.68992235
0.68996043
0.69000168
0.69004646
0.69009526
0.69014873
0.69020784
0.69027403
0.69034906
0.69043134
0.69049547
0.69051557
0.69051835
0.69051902
0.69051977
0.69052078
0.69052207
0.69052363
0.69052549
0.69052764
0.69053008
0.69053282
0.69053584
0.69053913
0.69054269
0.69054646
0.69055043
0.69055454
0.69055873
0.6905629
0.69056695
0.69057075
0.69057413
0.69057688
0.69057876
0.69057947
0.69057866
0.6905759
0.69057071
0.6905625
0.69055062
0.69053427
0.69051258
0.69048453
0.69044898
0.69040463
0.69035005
0.69028366
0.69020371
0.69010833
0.68999553
0.68986321
0.68970923
0.68953143
0.68932772
0.68909611
0.68883482
0.68939144
0.68939143
0.68939145
0.68939156
0.68939188
0.68939256
0.68939378
0.68939572
0.68939849
0.68940214
0.68940666
0.68941204
0.68941825
0.6894253
0.68943319
0.68944196
0.68945165
0.68946231
0.68947401
0.68948682
0.68950083
0.68951612
0.6895328
0.68955097
0.68957076
0.68959228
0.68961567
0.68964108
0.68966866
0.68969857
0.689731
0.68976616
0.68980427
0.68984561
0.68989056
0.68993956
0.6899933
0.69005271
0.69011925
0.69019482
0.69027918
0.69035089
0.69037665
0.69038042
0.69038117
0.69038192
0.69038293
0.69038421
0.69038578
0.69038763
0.69038979
0.69039224
0.69039498
0.69039802
0.69040134
0.69040493
0.69040875
0.69041278
0.69041697
0.69042126
0.69042557
0.69042979
0.69043381
0.69043746
0.69044055
0.69044284
0.69044406
0.69044385
0.69044182
0.69043749
0.6904303
0.69041959
0.69040461
0.69038449
0.69035825
0.69032474
0.69028272
0.69023075
0.69016728
0.69009059
0.68999882
0.68988999
0.68976202
0.68961276
0.68944004
0.68924175
0.68901589
0.68876062
0.68847443
0.68923512
0.68923513
0.68923518
0.68923534
0.68923572
0.68923646
0.68923775
0.68923976
0.68924259
0.68924628
0.68925084
0.68925623
0.68926245
0.68926948
0.68927736
0.6892861
0.68929575
0.68930636
0.689318
0.68933074
0.68934467
0.68935987
0.68937644
0.6893945
0.68941416
0.68943555
0.68945881
0.68948409
0.68951154
0.68954136
0.68957371
0.68960883
0.68964695
0.68968836
0.68973342
0.68978261
0.68983657
0.68989626
0.68996312
0.69003916
0.69012518
0.69020394
0.69023636
0.69024149
0.69024237
0.69024313
0.69024414
0.69024542
0.690247
0.69024887
0.69025104
0.69025352
0.69025629
0.69025937
0.69026273
0.69026637
0.69027026
0.69027437
0.69027866
0.69028308
0.69028754
0.69029195
0.6902962
0.69030012
0.69030355
0.69030626
0.69030797
0.69030836
0.69030703
0.69030353
0.69029732
0.69028775
0.6902741
0.69025552
0.69023102
0.69019952
0.69015977
0.69011036
0.69004977
0.68997628
0.68988807
0.68978316
0.68965948
0.68951489
0.68934721
0.68915432
0.68893417
0.68868491
0.68840496
0.68809307
0.68907868
0.68907868
0.68907871
0.68907885
0.6890792
0.68907992
0.68908119
0.68908316
0.68908597
0.68908964
0.68909416
0.68909952
0.68910571
0.68911271
0.68912054
0.68912924
0.68913884
0.6891494
0.68916098
0.68917365
0.6891875
0.68920261
0.68921908
0.68923704
0.68925658
0.68927785
0.68930099
0.68932614
0.68935348
0.68938318
0.68941545
0.68945052
0.68948862
0.68953006
0.6895752
0.68962452
0.68967868
0.68973862
0.68980577
0.68988222
0.68996954
0.69005465
0.6900947
0.69010164
0.69010271
0.69010349
0.6901045
0.6901058
0.6901074
0.69010929
0.69011149
0.69011399
0.69011681
0.69011993
0.69012335
0.69012705
0.69013103
0.69013524
0.69013964
0.69014419
0.69014882
0.69015343
0.69015791
0.69016213
0.6901659
0.69016902
0.69017122
0.69017218
0.69017155
0.69016886
0.6901636
0.69015514
0.69014278
0.69012568
0.6901029
0.69007335
0.69003581
0.68998892
0.68993114
0.6898608
0.68977609
0.68967505
0.68955561
0.68941564
0.68925297
0.68906543
0.68885098
0.68860771
0.68833399
0.68802852
0.68769043
0.68892031
0.68892033
0.68892039
0.68892057
0.68892098
0.68892176
0.6889231
0.68892514
0.68892801
0.68893173
0.68893629
0.68894168
0.68894787
0.68895487
0.68896269
0.68897136
0.68898093
0.68899145
0.68900298
0.6890156
0.68902937
0.68904441
0.6890608
0.68907866
0.6890981
0.68911926
0.68914227
0.68916731
0.68919453
0.68922412
0.6892563
0.68929129
0.68932935
0.68937079
0.68941598
0.68946541
0.68951973
0.68957989
0.6896473
0.68972409
0.68981245
0.68990308
0.68995163
0.68996096
0.68996228
0.68996308
0.68996411
0.68996543
0.68996704
0.68996896
0.68997119
0.68997373
0.68997659
0.68997977
0.68998325
0.68998703
0.68999109
0.68999541
0.68999994
0.69000464
0.69000944
0.69001426
0.69001899
0.69002349
0.69002761
0.69003113
0.69003382
0.69003536
0.69003539
0.6900335
0.69002916
0.69002179
0.69001068
0.68999503
0.68997391
0.68994627
0.6899109
0.68986646
0.68981144
0.6897442
0.68966293
0.6895657
0.68945046
0.68931506
0.68915734
0.68897513
0.68876633
0.68852904
0.68826154
0.68796249
0.68763094
0.68876325
0.68876324
0.68876324
0.68876334
0.68876365
0.68876431
0.6887655
0.68876741
0.68877015
0.68877374
0.68877819
0.68878347
0.68878957
0.68879648
0.68880422
0.68881282
0.68882232
0.68883276
0.68884422
0.68885676
0.68887046
0.68888541
0.68890171
0.68891947
0.6889388
0.68895985
0.68898276
0.68900767
0.68903478
0.68906426
0.68909634
0.68913125
0.68916925
0.68921067
0.68925588
0.68930538
0.68935982
0.68942015
0.68948779
0.68956489
0.68965406
0.68974933
0.68980706
0.68981948
0.68982116
0.689822
0.68982304
0.68982438
0.68982601
0.68982796
0.68983022
0.6898328
0.68983571
0.68983894
0.68984249
0.68984636
0.68985051
0.68985494
0.6898596
0.68986445
0.68986943
0.68987446
0.68987944
0.68988424
0.6898887
0.68989263
0.68989579
0.68989789
0.68989859
0.68989747
0.68989404
0.68988771
0.68987783
0.68986359
0.68984409
0.68981831
0.68978506
0.68974302
0.68969071
0.68962651
0.68954863
0.68945516
0.68934405
0.68921317
0.68906036
0.68888342
0.68868026
0.6884489
0.68818762
0.687895
0.68757
0.68721212
0.68860426
0.68860426
0.68860428
0.68860439
0.68860472
0.68860539
0.6886066
0.68860852
0.68861124
0.68861481
0.68861922
0.68862446
0.6886305
0.68863735
0.68864503
0.68865356
0.68866298
0.68867335
0.68868473
0.68869719
0.6887108
0.68872567
0.68874187
0.68875953
0.68877877
0.68879971
0.6888225
0.6888473
0.68887429
0.68890366
0.68893563
0.68897045
0.68900838
0.68904976
0.68909496
0.6891445
0.68919903
0.68925951
0.68932733
0.68940468
0.68949447
0.68959353
0.68966088
0.68967724
0.68967942
0.6896803
0.68968135
0.68968271
0.68968436
0.68968634
0.68968864
0.68969126
0.68969422
0.68969751
0.68970114
0.68970508
0.68970933
0.68971387
0.68971867
0.68972367
0.68972884
0.68973408
0.68973931
0.6897444
0.6897492
0.68975354
0.68975717
0.68975983
0.68976117
0.6897608
0.68975825
0.68975296
0.68974426
0.68973139
0.68971348
0.68968951
0.68965833
0.68961864
0.68956899
0.68950777
0.68943322
0.68934345
0.68923641
0.68911001
0.68896205
0.68879034
0.68859277
0.68836733
0.68811225
0.68782604
0.68750762
0.68715638
0.68677225
0.68844398
0.68844399
0.68844402
0.68844417
0.68844453
0.68844526
0.68844652
0.68844849
0.68845126
0.68845486
0.6884593
0.68846454
0.68847057
0.68847741
0.68848505
0.68849354
0.68850292
0.68851323
0.68852455
0.68853693
0.68855047
0.68856525
0.68858136
0.68859893
0.68861806
0.6886389
0.68866158
0.68868626
0.68871313
0.68874239
0.68877425
0.68880896
0.68884681
0.68888813
0.68893331
0.68898286
0.68903745
0.68909802
0.689166
0.68924356
0.6893338
0.68943587
0.68951297
0.68953425
0.6895371
0.68953804
0.68953912
0.68954049
0.68954217
0.68954417
0.68954651
0.68954917
0.68955218
0.68955554
0.68955923
0.68956326
0.68956761
0.68957226
0.68957719
0.68958235
0.6895877
0.68959315
0.68959863
0.68960401
0.68960916
0.68961389
0.68961798
0.68962118
0.68962316
0.68962353
0.68962184
0.68961754
0.68961001
0.68959848
0.68958212
0.68955992
0.68953076
0.68949336
0.68944631
0.68938802
0.68931674
0.68923061
0.6891276
0.6890056
0.68886244
0.68869592
0.6885039
0.68828435
0.68803544
0.68775564
0.6874438
0.68709922
0.68672175
0.68631186
0.68828395
0.68828396
0.68828399
0.68828412
0.68828447
0.68828517
0.68828641
0.68828834
0.68829107
0.68829464
0.68829902
0.68830421
0.6883102
0.68831697
0.68832456
0.68833299
0.6883423
0.68835254
0.68836378
0.68837609
0.68838954
0.68840423
0.68842026
0.68843773
0.68845676
0.68847748
0.68850005
0.68852462
0.68855137
0.68858051
0.68861226
0.68864686
0.68868462
0.68872586
0.68877099
0.68882052
0.68887514
0.68893579
0.68900387
0.68908158
0.68917216
0.68927653
0.68936321
0.68939052
0.68939428
0.68939531
0.6893964
0.68939779
0.68939949
0.68940152
0.68940389
0.6894066
0.68940966
0.68941307
0.68941683
0.68942094
0.68942539
0.68943016
0.68943522
0.68944054
0.68944606
0.68945173
0.68945745
0.68946312
0.6894686
0.68947372
0.68947827
0.689482
0.68948459
0.68948569
0.68948484
0.68948152
0.68947511
0.68946489
0.68945003
0.68942955
0.68940237
0.68936722
0.68932272
0.68926729
0.68919923
0.68911667
0.68901762
0.68889998
0.68876157
0.68860019
0.68841368
0.68819998
0.68795722
0.68768382
0.68737855
0.68704065
0.68666988
0.68626659
0.68583179
0.68812267
0.68812268
0.68812273
0.68812288
0.68812326
0.688124
0.68812527
0.68812725
0.68813001
0.6881336
0.688138
0.68814318
0.68814915
0.6881559
0.68816346
0.68817184
0.68818109
0.68819128
0.68820246
0.68821469
0.68822807
0.68824267
0.68825861
0.68827598
0.68829491
0.68831553
0.68833798
0.68836243
0.68838907
0.68841808
0.68844971
0.6884842
0.68852185
0.688563
0.68860807
0.68865756
0.68871217
0.68877286
0.68884102
0.68891883
0.68900963
0.68911574
0.68921152
0.68924603
0.68925101
0.68925215
0.68925326
0.68925466
0.68925639
0.68925845
0.68926085
0.6892636
0.68926671
0.68927017
0.68927401
0.6892782
0.68928274
0.68928762
0.68929281
0.68929828
0.68930398
0.68930985
0.68931581
0.68932176
0.68932756
0.68933306
0.68933806
0.68934231
0.68934551
0.6893473
0.68934727
0.6893449
0.68933959
0.68933065
0.68931725
0.68929847
0.68927321
0.68924026
0.68919825
0.68914563
0.68908073
0.68900169
0.68890654
0.68879319
0.68865947
0.68850317
0.68832212
0.68811424
0.68787761
0.68761059
0.68731189
0.68698068
0.68661663
0.68622
0.6857917
0.68796187
0.68796188
0.68796191
0.68796205
0.68796239
0.6879631
0.68796433
0.68796625
0.68796896
0.68797249
0.68797683
0.68798195
0.68798786
0.68799454
0.68800202
0.68801033
0.68801952
0.68802962
0.68804072
0.68805287
0.68806616
0.68808067
0.68809651
0.68811378
0.6881326
0.68815311
0.68817545
0.68819978
0.68822629
0.68825519
0.68828669
0.68832106
0.6883586
0.68839964
0.68844462
0.68849406
0.68854864
0.68860933
0.68867752
0.68875538
0.68884631
0.68895368
0.68905781
0.68910074
0.68910735
0.68910864
0.68910977
0.68911118
0.68911293
0.68911501
0.68911744
0.68912023
0.68912338
0.68912691
0.6891308
0.68913507
0.6891397
0.68914469
0.68915
0.68915562
0.68916149
0.68916756
0.68917375
0.68917997
0.6891861
0.68919197
0.6891974
0.68920215
0.68920594
0.68920842
0.68920918
0.68920774
0.6892035
0.6891958
0.68918383
0.68916669
0.68914331
0.68911251
0.68907294
0.68902308
0.68896127
0.68888569
0.68879438
0.68868526
0.68855617
0.68840491
0.68822927
0.68802716
0.68779662
0.68753596
0.68724383
0.68691932
0.68656201
0.68617208
0.68575034
0.68529823
0.68779986
0.68779987
0.68779992
0.68780007
0.68780045
0.68780119
0.68780246
0.68780441
0.68780715
0.6878107
0.68781503
0.68782015
0.68782603
0.68783268
0.68784012
0.68784838
0.6878575
0.68786755
0.68787857
0.68789064
0.68790384
0.68791826
0.68793401
0.68795117
0.68796989
0.68799029
0.68801251
0.68803672
0.68806311
0.68809187
0.68812324
0.68815749
0.6881949
0.68823583
0.68828071
0.68833007
0.68838459
0.68844525
0.68851344
0.68859131
0.68868229
0.68879055
0.68890207
0.68895459
0.68896334
0.68896484
0.68896598
0.68896741
0.68896917
0.68897128
0.68897374
0.68897656
0.68897975
0.68898333
0.68898729
0.68899162
0.68899634
0.68900143
0.68900686
0.68901261
0.68901865
0.68902491
0.68903133
0.68903781
0.68904424
0.68905047
0.68905632
0.68906156
0.68906592
0.68906907
0.68907061
0.68907006
0.68906687
0.68906037
0.6890498
0.68903426
0.68901272
0.68898402
0.68894683
0.68889967
0.68884089
0.68876871
0.68868117
0.68857623
0.68845171
0.68830542
0.68813514
0.68793876
0.68771428
0.68745996
0.68717439
0.68685658
0.68650603
0.68612284
0.6857077
0.68526199
0.68478769
0.68763853
0.68763854
0.68763858
0.68763871
0.68763906
0.68763976
0.68764098
0.68764288
0.68764556
0.68764904
0.68765331
0.68765835
0.68766416
0.68767073
0.68767809
0.68768627
0.68769531
0.68770527
0.6877162
0.68772818
0.68774129
0.68775561
0.68777125
0.68778831
0.68780691
0.68782719
0.68784929
0.68787337
0.68789963
0.68792826
0.68795949
0.6879936
0.68803088
0.68807169
0.68811645
0.6881657
0.68822015
0.68828075
0.68834889
0.68842672
0.68851769
0.68862653
0.68874436
0.68880751
0.68881904
0.68882082
0.68882199
0.68882343
0.6888252
0.68882732
0.6888298
0.68883265
0.68883588
0.6888395
0.68884351
0.68884792
0.68885271
0.68885789
0.68886343
0.68886931
0.6888755
0.68888195
0.68888858
0.68889531
0.68890204
0.68890861
0.68891486
0.68892058
0.68892549
0.68892929
0.68893158
0.68893191
0.68892973
0.68892441
0.68891519
0.68890122
0.68888147
0.68885482
0.68881996
0.68877544
0.68871964
0.68865079
0.68856697
0.68846613
0.68834612
0.68820474
0.68803978
0.68784907
0.68763061
0.68738261
0.68710359
0.68679248
0.68644871
0.68607227
0.68566379
0.68522453
0.68475639
0.68747607
0.68747609
0.68747613
0.68747629
0.68747666
0.6874774
0.68747866
0.68748059
0.68748329
0.68748678
0.68749105
0.68749608
0.68750186
0.68750839
0.6875157
0.68752382
0.6875328
0.68754268
0.68755353
0.68756543
0.68757844
0.68759266
0.68760819
0.68762514
0.68764363
0.68766379
0.68768577
0.68770972
0.68773584
0.68776434
0.68779543
0.6878294
0.68786654
0.68790721
0.68795184
0.68800098
0.68805532
0.68811584
0.68818391
0.68826167
0.68835256
0.68846174
0.68858474
0.6886594
0.6886745
0.68867666
0.68867785
0.6886793
0.68868108
0.68868321
0.68868571
0.68868858
0.68869184
0.68869549
0.68869955
0.68870401
0.68870887
0.68871413
0.68871977
0.68872577
0.6887321
0.68873871
0.68874555
0.68875252
0.68875952
0.68876643
0.68877307
0.68877925
0.68878469
0.68878911
0.68879213
0.68879331
0.68879212
0.68878794
0.68878005
0.68876759
0.6887496
0.68872495
0.68869236
0.68865043
0.68859754
0.68853197
0.68845179
0.688355
0.68823944
0.68810291
0.6879432
0.68775813
0.68754565
0.68730393
0.68703143
0.68672702
0.68639004
0.68602039
0.68561861
0.68518585
0.68472394
0.68423531
0.68731465
0.68731466
0.6873147
0.68731483
0.68731518
0.68731587
0.68731708
0.68731895
0.68732159
0.68732501
0.6873292
0.68733414
0.68733984
0.68734629
0.68735351
0.68736154
0.68737042
0.68738021
0.68739096
0.68740275
0.68741566
0.68742977
0.68744518
0.68746201
0.68748037
0.6875004
0.68752224
0.68754606
0.68757203
0.68760038
0.68763132
0.68766514
0.68770212
0.68774264
0.68778712
0.68783612
0.68789033
0.68795072
0.68801868
0.68809633
0.6881871
0.68829639
0.68842345
0.68851017
0.68852979
0.68853245
0.68853368
0.68853512
0.68853689
0.68853903
0.68854153
0.68854441
0.68854768
0.68855136
0.68855545
0.68855995
0.68856486
0.68857019
0.68857592
0.68858203
0.68858849
0.68859526
0.68860228
0.68860947
0.68861675
0.68862397
0.68863098
0.6886376
0.68864356
0.68864859
0.68865231
0.68865431
0.68865408
0.68865102
0.68864441
0.68863343
0.68861714
0.68859444
0.68856409
0.68852468
0.68847465
0.68841228
0.6883357
0.68824288
0.6881317
0.68799996
0.68784544
0.68766595
0.68745941
0.68722394
0.68695795
0.68666023
0.68633004
0.68596721
0.68557216
0.68514596
0.68469035
0.68420765
0.6837008
0.68715305
0.68715306
0.68715311
0.68715327
0.68715365
0.68715438
0.68715563
0.68715754
0.6871602
0.68716363
0.68716782
0.68717275
0.68717841
0.68718481
0.68719198
0.68719994
0.68720874
0.68721844
0.6872291
0.68724078
0.68725357
0.68726756
0.68728285
0.68729954
0.68731776
0.68733764
0.68735933
0.68738298
0.68740879
0.68743696
0.68746773
0.68750136
0.68753816
0.68757848
0.68762278
0.68767159
0.68772562
0.68778584
0.68785363
0.68793109
0.68802164
0.68813085
0.6882609
0.68835986
0.68838505
0.68838836
0.6883896
0.688391
0.68839274
0.68839485
0.68839733
0.68840019
0.68840346
0.68840715
0.68841125
0.68841577
0.68842073
0.68842611
0.68843191
0.68843812
0.68844469
0.6884516
0.6884588
0.68846621
0.68847373
0.68848126
0.68848863
0.68849567
0.68850213
0.68850774
0.68851215
0.68851495
0.68851565
0.68851366
0.6885083
0.68849877
0.68848414
0.68846335
0.68843517
0.68839823
0.688351
0.68829177
0.68821871
0.6881298
0.68802294
0.68789593
0.68774654
0.68757257
0.68737192
0.68714266
0.68688315
0.68659211
0.68626873
0.68591273
0.68552445
0.68510486
0.68465559
0.68417892
0.68367767
0.68699139
0.6869914
0.68699144
0.68699159
0.68699194
0.68699263
0.68699384
0.68699571
0.68699832
0.68700169
0.68700581
0.68701068
0.68701627
0.6870226
0.68702969
0.68703756
0.68704628
0.68705588
0.68706643
0.68707801
0.68709069
0.68710456
0.68711972
0.68713629
0.68715437
0.68717411
0.68719565
0.68721915
0.6872448
0.68727281
0.68730341
0.68733687
0.68737349
0.68741365
0.68745777
0.68750641
0.68756028
0.68762034
0.68768796
0.68776525
0.68785557
0.68796458
0.68809676
0.68820782
0.68823986
0.68824409
0.68824537
0.68824675
0.68824847
0.68825055
0.68825302
0.68825588
0.68825914
0.68826282
0.68826694
0.68827148
0.68827647
0.68828191
0.68828777
0.68829406
0.68830074
0.68830779
0.68831515
0.68832275
0.68833052
0.68833833
0.68834605
0.68835349
0.68836043
0.6883666
0.68837168
0.68837525
0.68837685
0.68837591
0.68837177
0.68836365
0.68835063
0.68833169
0.68830564
0.68827111
0.68822662
0.68817048
0.68810086
0.6880158
0.68791319
0.68779084
0.68764652
0.68747802
0.68728321
0.68706012
0.68680706
0.68652269
0.6862061
0.68585695
0.68547547
0.68506254
0.68461968
0.68414909
0.68365353
0.68313627
0.68682847
0.68682849
0.68682855
0.68682872
0.6868291
0.68682984
0.6868311
0.68683301
0.68683565
0.68683905
0.68684318
0.68684804
0.68685361
0.68685991
0.68686695
0.68687477
0.68688342
0.68689294
0.68690341
0.68691489
0.68692747
0.68694122
0.68695627
0.6869727
0.68699065
0.68701024
0.68703163
0.68705497
0.68708046
0.6871083
0.68713873
0.68717201
0.68720845
0.68724842
0.68729236
0.68734081
0.6873945
0.68745437
0.68752181
0.68759889
0.68768895
0.68779765
0.68793122
0.68805386
0.68809411
0.68809955
0.68810092
0.68810229
0.688104
0.68810608
0.68810854
0.68811139
0.68811466
0.68811835
0.68812248
0.68812706
0.68813208
0.68813756
0.68814349