/*--------------------------------*- C++ -*----------------------------------*\
| =========                 |                                                 |
| \\      /  F ield         | OpenFOAM: The Open Source CFD Toolbox           |
|  \\    /   O peration     | Version:  2506                                  |
|   \\  /    A nd           | Website:  www.openfoam.com                      |
|    \\/     M anipulation  |                                                 |
\*---------------------------------------------------------------------------*/
FoamFile
{
    version     2.0;
    format      ascii;
    arch        "LSB;label=32;scalar=64";
    class       volScalarField;
    location    "0.0045";
    object      Co;
}
// * * * * * * * * * * * * * * * * * * * * * * * * * * * * * * * * * * * * * //

dimensions      [0 0 0 0 0 0 0];

internalField   nonuniform List<scalar> 
13763
(
0.22539802
0.22316077
0.22026325
0.21660908
0.21209817
0.20665064
0.20022949
0.19287948
0.18471054
0.17588753
0.16658855
0.15697789
0.14720972
0.1374457
0.12786162
0.11862794
0.10987354
0.10166451
0.094023611
0.086961825
0.080475602
0.074534146
0.069093892
0.064115954
0.05956597
0.05540965
0.051612715
0.04814231
0.044967919
0.042061772
0.039399225
0.036959218
0.03472379
0.032676228
0.030801139
0.029086844
0.027524106
0.026101261
0.024805036
0.023621053
0.022529038
0.021507081
0.020539384
0.019617232
0.01873621
0.017893784
0.017088106
0.016317567
0.21353992
0.21147286
0.20877673
0.20535978
0.20112668
0.19600128
0.18994811
0.18300932
0.17528908
0.1669438
0.15814254
0.14904143
0.13978702
0.13053306
0.12144674
0.1126903
0.10438658
0.09659874
0.089348629
0.082646884
0.076490408
0.070850231
0.065685177
0.060958465
0.056637589
0.052690102
0.049083548
0.045786806
0.042770962
0.040009697
0.037479655
0.035160872
0.033036322
0.031090162
0.02930781
0.027678207
0.026192604
0.024839922
0.023607529
0.022481767
0.021443382
0.02047155
0.019551248
0.018674193
0.017836191
0.017034842
0.016268397
0.01553533
0.014834219
0.014163707
0.20221649
0.20031248
0.19780921
0.19461933
0.19065207
0.18583481
0.1801335
0.17358784
0.16629647
0.15840772
0.15008204
0.14146772
0.13270406
0.12393724
0.11532626
0.10702554
0.099152116
0.091766368
0.084889306
0.078531237
0.072689495
0.067336858
0.062434441
0.05794747
0.053845217
0.050096995
0.046672089
0.043541035
0.040676448
0.038053397
0.035649754
0.033446605
0.031427814
0.029578371
0.027884466
0.026335635
0.024923594
0.023637823
0.022466303
0.02139606
0.020408816
0.01948478
0.018609669
0.01777561
0.016978624
0.016216436
0.015487391
0.014790045
0.014123051
0.013485124
0.012875037
0.19151519
0.18976145
0.18743693
0.18445848
0.18073963
0.17621111
0.17084025
0.16466444
0.15777707
0.15031884
0.14244202
0.13428749
0.12598765
0.11768149
0.10952022
0.10165079
0.094184767
0.087179822
0.08065615
0.074623724
0.069080269
0.064000206
0.059346801
0.055087177
0.051192281
0.047633085
0.044380521
0.041406688
0.038685652
0.03619379
0.033910137
0.031816771
0.0298984
0.028140802
0.026530898
0.025058783
0.023716618
0.02249441
0.02138072
0.020363225
0.019424573
0.018545955
0.01771379
0.016920596
0.016162596
0.015437636
0.014744147
0.014080763
0.01344621
0.012839271
0.012258782
0.011703626
0.011172733
0.18134644
0.1797339
0.17757782
0.17479899
0.17131507
0.16705998
0.16200235
0.15617736
0.14967345
0.14262402
0.13517358
0.12745593
0.11959691
0.11172865
0.10399494
0.096535648
0.089457066
0.082814317
0.076626797
0.07090416
0.065644493
0.06082377
0.056407305
0.05236402
0.048666451
0.045287147
0.042198605
0.039374414
0.036790011
0.034423021
0.032253586
0.030264725
0.02844195
0.026771787
0.025241852
0.023842775
0.022567137
0.021405445
0.020346816
0.019379543
0.018487157
0.017651784
0.016860511
0.016106229
0.015385354
0.014695843
0.014036214
0.013405173
0.012801514
0.012224085
0.011671784
0.011143553
0.010638379
0.010155289
0.0096933504
0.17166549
0.17018657
0.16819017
0.16560083
0.1623401
0.15834493
0.15358522
0.14809404
0.14195508
0.1352948
0.1282503
0.12094864
0.1135094
0.10605817
0.098731688
0.09166302
0.084953471
0.078655721
0.072788402
0.06736086
0.062371524
0.057797848
0.053607096
0.0497699
0.046260311
0.043052381
0.040120095
0.037438458
0.034984219
0.032736189
0.030675565
0.028786262
0.027054558
0.025467691
0.02401394
0.022684444
0.021472183
0.020368142
0.019361966
0.018442538
0.017594228
0.016800052
0.016047735
0.015330522
0.014645013
0.013989273
0.013361899
0.012761668
0.012187439
0.011638122
0.011112673
0.010610091
0.010129415
0.0096697245
0.0092301359
0.0088098016
0.0084079088
0.16249728
0.16114241
0.15929491
0.15688292
0.15383171
0.15008111
0.1456022
0.14042607
0.1346319
0.12833958
0.12167918
0.11477134
0.10772969
0.10067363
0.093733132
0.08703483
0.080675262
0.074704766
0.069141246
0.063993732
0.059260965
0.054921795
0.050945327
0.047303812
0.043972731
0.040927559
0.038143688
0.035597469
0.033266889
0.031131885
0.029174652
0.027379958
0.025734803
0.024227103
0.022845765
0.021582409
0.020430394
0.019381161
0.018424853
0.017550914
0.016744511
0.015989509
0.015274236
0.014592276
0.013940401
0.013316781
0.012720087
0.012149164
0.011602931
0.011080357
0.010580455
0.010102275
0.0096449092
0.0092074842
0.0087891627
0.0083891417
0.0080066504
0.0076409496
0.0072913303
0.0069571122
0.15379437
0.15255549
0.15084776
0.14860271
0.14574913
0.14222961
0.13801636
0.13313858
0.12767118
0.1217278
0.11543181
0.10889775
0.10223359
0.095552802
0.088978961
0.082632543
0.076605547
0.070946077
0.065671322
0.06079001
0.056301173
0.052184979
0.048412277
0.044956853
0.041795547
0.038905181
0.036262485
0.033845085
0.031632145
0.029604673
0.027745812
0.026041137
0.024478337
0.023045971
0.021733542
0.020533129
0.019438451
0.018441379
0.017532533
0.016701889
0.015935374
0.015217657
0.014537646
0.013889243
0.013269387
0.012676345
0.012108859
0.011565838
0.01104626
0.010549149
0.01007357
0.0096186254
0.0091834546
0.0087672307
0.0083691604
0.0079884825
0.0076244666
0.0072764118
0.0069436456
0.0066255228
0.0063214244
0.0060307567
0.14554442
0.14441342
0.14283628
0.14074777
0.13808003
0.13477826
0.13081575
0.12621991
0.12106162
0.11544856
0.10949773
0.1033179
0.097011632
0.090686766
0.084460782
0.078448295
0.072736969
0.067372776
0.062372216
0.057743716
0.053486569
0.04958219
0.046003081
0.042724478
0.039724506
0.036981266
0.034472754
0.032177803
0.030076698
0.02815146
0.02638613
0.024767051
0.023282565
0.021921842
0.020674949
0.019534403
0.01849426
0.017546804
0.016683106
0.015893647
0.015165079
0.014482835
0.013836373
0.013219899
0.01263051
0.012066565
0.011526875
0.011010408
0.010516198
0.010043321
0.0095908934
0.0091580656
0.008744022
0.0083479799
0.0079691879
0.0076069245
0.0072604975
0.0069292425
0.0066125218
0.0063097234
0.0060202601
0.0057435686
0.13772573
0.13669497
0.13523978
0.13329798
0.13080491
0.12770824
0.12398231
0.11965283
0.11478684
0.10948638
0.10386241
0.098018185
0.092051153
0.08606378
0.080167737
0.074472066
0.069060303
0.063976374
0.059236116
0.054847656
0.05081053
0.047107323
0.043712101
0.040601476
0.037754788
0.035151345
0.032770345
0.030591769
0.028596959
0.026768898
0.02509248
0.023554777
0.022144749
0.020852145
0.019667571
0.018583952
0.017595672
0.016695402
0.015874642
0.015124356
0.01443188
0.013783379
0.013168831
0.012582731
0.012022327
0.011486066
0.010972823
0.010481623
0.010011551
0.0095617365
0.0091313412
0.0087195615
0.0083256255
0.0079487918
0.0075883488
0.007243613
0.0069139284
0.006598665
0.0062972183
0.006009008
0.0057334771
0.005470091
0.13028515
0.12934895
0.12800906
0.12620624
0.12387885
0.12097692
0.11747579
0.11339954
0.10881155
0.10380849
0.098495565
0.092970762
0.087326648
0.081660579
0.076078686
0.07068469
0.065558191
0.060741162
0.056248804
0.052088961
0.04826139
0.044749793
0.041529724
0.038579101
0.035878421
0.033408142
0.031148609
0.029080889
0.027187335
0.025451845
0.023860127
0.022399945
0.021060848
0.019833137
0.01870793
0.017678544
0.016739671
0.015884352
0.015104499
0.014391531
0.013733439
0.013117083
0.012532937
0.011975775
0.011442984
0.010933095
0.010445047
0.0099779173
0.0095308422
0.0091029973
0.0086935907
0.0083018622
0.0079270812
0.007568546
0.0072255827
0.0068975439
0.0065838082
0.0062837786
0.005996882
0.0057225683
0.0054603091
0.0052095976
0.12322716
0.12237901
0.12114702
0.1194747
0.1173033
0.1145851
0.11129636
0.10745965
0.10313488
0.098413585
0.093395517
0.088173653
0.082835917
0.077474787
0.07219112
0.067083578
0.062228001
0.057664499
0.053407659
0.049465041
0.045836608
0.042507117
0.03945353
0.036655003
0.03409313
0.03174946
0.029605421
0.027643116
0.025845855
0.024198405
0.022687246
0.0213008
0.020029174
0.018863195
0.017794464
0.016816674
0.015924807
0.015112257
0.014371324
0.013693864
0.013068491
0.012482723
0.01192751
0.011397885
0.010891374
0.010406585
0.0099425172
0.0094982979
0.0090731119
0.0086661797
0.0082767527
0.0079041118
0.0075475659
0.0072064508
0.0068801286
0.0065679863
0.0062694351
0.0059839094
0.0057108662
0.0054497838
0.0052001614
0.0049615181
0.11654581
0.11577899
0.11464726
0.11309678
0.11107152
0.10852593
0.10543714
0.1018263
0.097749999
0.093294951
0.088555707
0.083620494
0.078572811
0.073500508
0.068499423
0.063663394
0.05906468
0.054741607
0.050708166
0.046971638
0.043532171
0.040375513
0.037479955
0.034825825
0.03239575
0.030172311
0.028137962
0.026275787
0.024570001
0.023006196
0.021571581
0.020255202
0.019047698
0.017940389
0.01692534
0.015996594
0.015149412
0.014377522
0.013673593
0.013029894
0.01243563
0.01187895
0.01135125
0.010847815
0.010366299
0.0099053863
0.0094641293
0.0090417054
0.0086373443
0.0082503093
0.0078798928
0.0075254147
0.0071862212
0.0068616839
0.0065511989
0.0062541857
0.0059700867
0.0056983661
0.0054385092
0.0051900216
0.0049524283
0.0047252735
0.11020844
0.10951724
0.10847922
0.10704305
0.10515532
0.10277249
0.099872566
0.096475318
0.092634227
0.088431395
0.083956433
0.07929305
0.074520535
0.069722335
0.064989501
0.060411275
0.056056506
0.051961812
0.04814061
0.044599905
0.041340012
0.038347615
0.035602267
0.033085403
0.030780629
0.028671507
0.026741461
0.024974505
0.023355715
0.021871463
0.020509655
0.019259926
0.018113419
0.017061927
0.016097949
0.015215867
0.014411202
0.013677999
0.013009281
0.012397709
0.011833049
0.01130405
0.010802535
0.010324026
0.0098663005
0.009428113
0.0090085694
0.0086068929
0.0082223561
0.0078542629
0.0075019447
0.0071647585
0.006842086
0.0065333325
0.0062379266
0.0059553187
0.0056849808
0.0054264054
0.0051791049
0.0049426105
0.0047164723
0.0045002577
0.10419717
0.10357624
0.10262579
0.10129688
0.099538552
0.09730921
0.094587688
0.091392455
0.087774026
0.083810126
0.079585672
0.075180078
0.070668627
0.06613056
0.06165238
0.057318953
0.053195867
0.049318112
0.045698547
0.042343911
0.039254671
0.036418393
0.033815825
0.031429449
0.029243804
0.027243374
0.025412509
0.023736103
0.02220005
0.020791463
0.019498905
0.018312576
0.017224095
0.016225702
0.015310314
0.014472628
0.013708416
0.013012026
0.012376811
0.01179581
0.011259322
0.010756665
0.01028007
0.009825285
0.009390202
0.0089736449
0.0085747692
0.008192842
0.0078271764
0.0074771151
0.0071420263
0.0068213023
0.0065143584
0.0062206323
0.0059395831
0.0056706909
0.0054134556
0.0051673966
0.004932052
0.0047069777
0.0044917471
0.0042859503
0.098494513
0.097938932
0.097070357
0.095842107
0.09420558
0.092121032
0.089568068
0.086563935
0.083156334
0.079418828
0.075431872
0.071270788
0.067007045
0.062715891
0.058479489
0.054378533
0.050475505
0.046803837
0.043375856
0.040198036
0.037270979
0.03458309
0.032116245
0.029853922
0.027781539
0.025884459
0.024147905
0.022557611
0.021100244
0.019763622
0.018536934
0.017410912
0.01637763
0.015429752
0.01456059
0.013765143
0.01303942
0.012378055
0.01177472
0.011222808
0.010713129
0.010235539
0.0097826584
0.0093504505
0.0089369171
0.0085409468
0.0081617428
0.0077986134
0.0074509103
0.0071180132
0.0067993252
0.0064942721
0.0062023012
0.0059228807
0.0056554992
0.0053996645
0.0051549034
0.0049207607
0.004696799
0.0044825977
0.0042777523
0.0040818744
0.093083449
0.09258862
0.091796593
0.090662837
0.089140989
0.087193059
0.084799399
0.081976091
0.078768162
0.075245225
0.071483487
0.067554377
0.063525733
0.059468996
0.055462196
0.051582052
0.047888088
0.044412243
0.041166329
0.038156564
0.035383675
0.032836855
0.030499052
0.028354686
0.026390008
0.024591215
0.022944361
0.021435973
0.020053453
0.01878529
0.017621267
0.01655262
0.015571856
0.014672043
0.013846866
0.013091613
0.012402516
0.011774482
0.011201485
0.010677257
0.010193091
0.0097393592
0.0093090503
0.0088983315
0.0085053102
0.0081289363
0.007768458
0.0074232231
0.00709262
0.0067760631
0.0064729891
0.0061828554
0.0059051398
0.0056393396
0.0053849711
0.0051415688
0.0049086848
0.0046858884
0.0044727653
0.0042689169
0.0040739604
0.0038875274
0.087954197
0.087515544
0.086794784
0.085749432
0.084335254
0.082515933
0.080272533
0.077620035
0.074600927
0.071281069
0.067732633
0.06402335
0.060217601
0.056383198
0.052594242
0.048923662
0.045428156
0.04213824
0.039065227
0.036215085
0.03358865
0.03117586
0.028960674
0.026928406
0.025066097
0.02336073
0.021799148
0.020368631
0.019057278
0.017854213
0.016749781
0.015735701
0.014804888
0.013950793
0.013167457
0.012450439
0.011796185
0.011199862
0.010655729
0.010157842
0.0096979517
0.0092669219
0.0088580919
0.0084678234
0.0080943237
0.0077366007
0.0073939456
0.0070657434
0.0067514176
0.0064504155
0.0061622054
0.005886275
0.005622131
0.0053692983
0.0051273195
0.0048957544
0.0046741793
0.0044621866
0.0042593839
0.004065394
0.0038798541
0.0037024152
0.083103995
0.082716735
0.082061766
0.081098553
0.079784882
0.078086026
0.075983733
0.073491955
0.070650781
0.067522516
0.064175501
0.060673957
0.057078982
0.053454944
0.049872197
0.046400068
0.043092559
0.039978822
0.03706969
0.03437088
0.031883323
0.029597653
0.027498787
0.02557288
0.023807715
0.022191022
0.020710386
0.019353799
0.018110022
0.016968777
0.015920944
0.014958696
0.014075336
0.013264676
0.012521096
0.011840412
0.011219272
0.010653086
0.010136389
0.0096635381
0.0092267252
0.0088172779
0.0084288694
0.0080580461
0.0077031103
0.0073631249
0.0070374216
0.0067254209
0.006426579
0.0061403747
0.0058663062
0.0056038897
0.0053526594
0.0051121663
0.004881978
0.0046616784
0.0044508664
0.0042491565
0.0040561772
0.0038715714
0.0036949954
0.0035261186
0.078507316
0.07816748
0.077573691
0.076687259
0.075467897
0.073882394
0.071913154
0.069573148
0.066900191
0.063953213
0.060796923
0.057492199
0.054097016
0.050672462
0.047285326
0.044001499
0.040872418
0.037925929
0.035172399
0.032617302
0.03026165
0.028096736
0.02610838
0.024283533
0.022610684
0.021078265
0.019674567
0.018388256
0.01720872
0.016126251
0.015132233
0.014219272
0.013381037
0.012611686
0.011905917
0.011259791
0.010670148
0.010132629
0.0096420293
0.0091929969
0.0087781384
0.0083892244
0.0080202457
0.0076679246
0.0073306532
0.0070075468
0.0066979757
0.0064013937
0.0061172883
0.0058451681
0.0055845596
0.0053350063
0.0050960682
0.0048673212
0.0046483568
0.0044387814
0.0042382159
0.0040462953
0.0038626683
0.0036869968
0.0035189551
0.0033582302
0.074146562
0.073850622
0.073313871
0.072499382
0.071368701
0.069890054
0.068046469
0.065849996
0.06333629
0.060561072
0.057585593
0.054467553
0.051261954
0.048026758
0.044825359
0.041720374
0.038760789
0.035973204
0.033367538
0.030949027
0.028718754
0.026668635
0.024785346
0.023056592
0.021471527
0.020019254
0.018688731
0.017469264
0.016350836
0.015324279
0.014381459
0.013515389
0.012720089
0.011990043
0.011320254
0.010707014
0.010147343
0.0096371057
0.0091713432
0.0087449793
0.008351016
0.0079816455
0.0076311606
0.007296451
0.0069759943
0.0066689557
0.0063747418
0.0060928382
0.0058227624
0.0055640509
0.0053162573
0.0050789509
0.0048517164
0.0046341534
0.0044258758
0.0042265117
0.0040357027
0.0038531036
0.003678382
0.0035112178
0.003351303
0.0031983408
0.070021358
0.069765504
0.069281379
0.068533732
0.067485846
0.066107326
0.064381801
0.062320449
0.059956881
0.05734378
0.054539117
0.051597575
0.048571327
0.045515367
0.042489857
0.039554296
0.036755334
0.034118378
0.031652911
0.029363937
0.0272526
0.025311395
0.023527809
0.021890258
0.020388526
0.019012344
0.017751304
0.016595318
0.015534931
0.014561486
0.013667305
0.012845789
0.012091287
0.011398594
0.010763001
0.010181018
0.0096498375
0.0091655347
0.0087233846
0.0083185728
0.0079444768
0.0075936899
0.007260792
0.0069428317
0.0066383679
0.006346613
0.006067008
0.005799069
0.005542341
0.0052963877
0.005060788
0.0048351359
0.0046190392
0.0044121199
0.0042140135
0.0040243686
0.0038428463
0.0036691203
0.0035028761
0.0033438107
0.0031916326
0.0030460609
0.066114552
0.065895425
0.065460006
0.064774631
0.063804238
0.062519746
0.060905353
0.058971418
0.056749622
0.05428976
0.051646691
0.048872231
0.046015863
0.043129753
0.040270988
0.037496097
0.034849499
0.032355461
0.03002305
0.027857038
0.025858618
0.024020834
0.022331937
0.020781015
0.019358445
0.018054558
0.016859542
0.015763884
0.014758659
0.013835698
0.012987754
0.012208595
0.011492883
0.010835707
0.010232631
0.0096803738
0.0091762896
0.0087166528
0.0082969614
0.0079126499
0.0075574528
0.0072243444
0.0069081781
0.0066061535
0.006316907
0.0060396952
0.0057739923
0.0055193426
0.0052753181
0.0050415075
0.0048175142
0.004602955
0.0043974603
0.0042006733
0.0040122496
0.0038318574
0.0036591765
0.0034938982
0.0033357252
0.003184371
0.0030395594
0.0029010248
0.062413899
0.062228431
0.061838102
0.061210762
0.060312929
0.059116766
0.057607022
0.055793285
0.0537054
0.051390428
0.048900268
0.046284009
0.043588582
0.040863458
0.038162798
0.035540298
0.033038254
0.030679841
0.02847372
0.026424441
0.024533238
0.022793669
0.021194707
0.019726076
0.018378716
0.017143521
0.016011246
0.01497292
0.014020127
0.013145154
0.012341165
0.011602275
0.010923446
0.010300042
0.0097278884
0.0092038996
0.008725585
0.0082894077
0.0078910777
0.007526266
0.0071890461
0.0068727552
0.0065725063
0.006285643
0.0060108749
0.0057475013
0.005495027
0.0052530236
0.0050210884
0.0047988341
0.0045858869
0.0043818859
0.0041864823
0.0039993396
0.0038201328
0.0036485483
0.0034842837
0.0033270474
0.0031765582
0.0030325451
0.0028947468
0.0027629118
0.058914851
0.058759912
0.058411016
0.057837452
0.057007239
0.055893726
0.054482191
0.052781496
0.050819755
0.048641439
0.046295642
0.043828867
0.041285614
0.038712798
0.036161791
0.033683597
0.031318483
0.029088582
0.027002164
0.025063557
0.023274025
0.021627611
0.020113968
0.018723419
0.017447433
0.016277438
0.015204723
0.014220833
0.013317827
0.012488429
0.011726189
0.011025553
0.010381763
0.0097904488
0.0092476782
0.0087505539
0.0082967304
0.0078828504
0.0075048252
0.0071585499
0.0068384206
0.0065381186
0.0062530045
0.0059805583
0.0057195593
0.0054693468
0.0052294553
0.0049994817
0.0047790472
0.0045677873
0.00436535
0.0041713952
0.0039855941
0.0038076292
0.0036371938
0.0034739919
0.0033177379
0.0031681562
0.0030249809
0.0028879558
0.0027568338
0.0026313769
0.05560086
0.055473769
0.05516313
0.054639602
0.053872629
0.052836696
0.051517588
0.049923481
0.048080851
0.046031708
0.043822484
0.041497224
0.039098117
0.036669645
0.034260524
0.031919191
0.029683981
0.027576027
0.025603222
0.02376968
0.022076686
0.020518738
0.019086131
0.017769756
0.016561582
0.01545354
0.014437427
0.013505273
0.012649591
0.011863518
0.011140969
0.010476705
0.0098662333
0.0093054337
0.0087906075
0.0083190336
0.0078885045
0.0074958334
0.0071371227
0.0068084811
0.0065046106
0.0062195206
0.0059488064
0.0056900783
0.0054421817
0.0052044938
0.0049765771
0.0047580528
0.0045485645
0.0043477695
0.0041553363
0.0039709447
0.0037942847
0.0036250569
0.0034629722
0.003307751
0.0031591238
0.0030168301
0.0028806187
0.0027502474
0.0026254825
0.0025060988
0.052467302
0.052365382
0.052089838
0.051612635
0.050904572
0.049941214
0.048708832
0.047214964
0.045484533
0.043557224
0.041476944
0.039285402
0.037022595
0.034730689
0.032455877
0.030244149
0.028131997
0.026139599
0.024274485
0.022540556
0.020939111
0.019465074
0.018109346
0.016863352
0.015719534
0.014670298
0.013707919
0.012824888
0.012014145
0.011269219
0.010584371
0.0099546587
0.0093758412
0.0088440358
0.0083557638
0.0079084714
0.0075000813
0.0071275686
0.0067872173
0.0064753384
0.0061869248
0.0059162974
0.0056592752
0.0054135918
0.0051781555
0.0049523796
0.0047358529
0.0045282194
0.0043291443
0.0041383053
0.0039553904
0.003780098
0.0036121362
0.0034512228
0.0032970849
0.003149459
0.0030080905
0.0028727334
0.0027431505
0.0026191128
0.0025003993
0.0023867969
0.049502671
0.049423498
0.04918017
0.048745888
0.048092745
0.047197338
0.046046402
0.044646874
0.043022211
0.041209893
0.039251432
0.037186323
0.035052475
0.032889853
0.030742248
0.02865332
0.026657803
0.024774962
0.023011975
0.021372535
0.01985795
0.018463541
0.017180781
0.016001599
0.014918884
0.013925489
0.013014143
0.012177771
0.011409719
0.010703886
0.010054862
0.0094579839
0.0089092507
0.0084050041
0.0079419741
0.007517765
0.007130423
0.0067770762
0.0064541817
0.0061582427
0.0058845282
0.0056276552
0.0053836554
0.0051503801
0.0049267968
0.0047123532
0.0045066629
0.0043093918
0.0041202253
0.0039388602
0.0037650034
0.0035983707
0.0034386874
0.0032856875
0.0031391139
0.0029987178
0.002864259
0.0027355054
0.0026122328
0.0024942248
0.0023812726
0.0022731746
0.046698296
0.046639619
0.046425811
0.046031258
0.045429284
0.044597463
0.043522982
0.042212213
0.040687229
0.038983418
0.037140023
0.035194433
0.033182578
0.031142328
0.029115187
0.027142595
0.025257611
0.023478625
0.021812478
0.020262659
0.018830475
0.01751162
0.016298109
0.015182347
0.01415764
0.013217267
0.012354383
0.011562328
0.010834829
0.010166135
0.0095511475
0.0089854702
0.0084653274
0.0079872736
0.0075482366
0.0071459704
0.0067786378
0.0064435124
0.0061372157
0.0058564332
0.0055966963
0.0053529035
0.0051212889
0.0048998152
0.0046875067
0.0044838435
0.0042884626
0.0041010505
0.0039213119
0.0037489619
0.0035837247
0.0034253333
0.0032735288
0.0031280607
0.0029886867
0.0028551723
0.0027272908
0.0026048232
0.0024875578
0.0023752901
0.0022678228
0.0021649653
0.044046532
0.044006225
0.043819396
0.043461551
0.042907183
0.042134806
0.041132038
0.039904719
0.038473615
0.036872139
0.035137376
0.03330472
0.03140822
0.029483753
0.027570648
0.025708233
0.023927965
0.022247399
0.02067305
0.019208209
0.017854176
0.016606994
0.015459186
0.014403606
0.013433958
0.012543919
0.011727048
0.010977075
0.010288089
0.0096546713
0.0090720179
0.0085359835
0.0080430066
0.0075898432
0.0071736085
0.0067921979
0.0064438846
0.0061260802
0.0058355623
0.0055691895
0.0053227424
0.0050913872
0.0048715502
0.0046613003
0.0044597154
0.0042663063
0.0040807325
0.0039026998
0.003731931
0.0035681586
0.0034111234
0.0032605742
0.0031162675
0.0029779675
0.0028454458
0.0027184813
0.0025968604
0.0024803763
0.0023688292
0.0022620261
0.0021597803
0.002061912
0.041540037
0.041516106
0.041353853
0.041029857
0.040519723
0.039802857
0.038867292
0.037718375
0.036375637
0.034870617
0.033238359
0.031512366
0.029724897
0.027909937
0.026104745
0.024346636
0.02266554
0.021078215
0.019590861
0.018206574
0.01692664
0.015747429
0.014661945
0.013663465
0.012746063
0.011903796
0.011130603
0.010420582
0.0097681661
0.0091682495
0.0086163069
0.0081084306
0.007641262
0.007211748
0.0068171808
0.0064555899
0.0061253524
0.0058240108
0.0055484913
0.0052958168
0.0050620041
0.004842474
0.0046338357
0.004434259
0.0042428726
0.0040592165
0.0038829711
0.0037138608
0.0035516255
0.003396014
0.0032467829
0.0031036961
0.0029665244
0.002835046
0.0027090457
0.0025883154
0.0024726534
0.0023618648
0.002255761
0.0021541597
0.0020568849
0.0019637663
0.039171071
0.039161674
0.039021769
0.038728954
0.038259894
0.037594845
0.036722242
0.035646966
0.034387386
0.032973269
0.031437725
0.029812459
0.028128032
0.026416633
0.02471355
0.023054181
0.021467002
0.019968004
0.018563086
0.017255154
0.016045474
0.014930721
0.013904352
0.012960041
0.012092215
0.011295285
0.010563552
0.0098914596
0.0092737668
0.0087056635
0.0081828885
0.0077017589
0.0072591079
0.0068520629
0.0064780842
0.0061353276
0.0058222684
0.0055365734
0.0052753097
0.0050356565
0.0048138548
0.0046055671
0.0044075767
0.004218149
0.0040364614
0.0038620812
0.0036947088
0.0035340858
0.0033799685
0.0032321213
0.0030903154
0.0029543291
0.002823947
0.0026989602
0.0025791662
0.002464369
0.0023543786
0.0022490111
0.0021480887
0.0020514392
0.0019588963
0.0018702993
0.036934742
0.036938096
0.036818379
0.036554157
0.036123107
0.035506296
0.034692543
0.033686298
0.032504835
0.031176245
0.029731809
0.02820153
0.02661436
0.025000778
0.0233942
0.021828199
0.020329862
0.018914453
0.017587575
0.01635195
0.015208819
0.014155139
0.013184793
0.012291831
0.01147101
0.010717075
0.010024667
0.009388557
0.008803811
0.0082658987
0.007770808
0.0073150689
0.0068956956
0.0065099862
0.0061555597
0.0058306913
0.0055339491
0.0052631174
0.0050153974
0.004788116
0.0045777272
0.0043801233
0.0041922527
0.0040124721
0.0038400044
0.003674443
0.0035155074
0.0033629554
0.0032165587
0.0030760961
0.0029413532
0.0028121214
0.0026881985
0.002569388
0.0024554994
0.0023463479
0.0022417546
0.0021415463
0.002045555
0.0019536185
0.0018655796
0.0017812867
0.034821759
0.034836287
0.034734827
0.034496869
0.034101049
0.033529209
0.032770537
0.031829085
0.030721091
0.029473063
0.028114547
0.026673934
0.025178646
0.023657541
0.022142252
0.020664613
0.01925039
0.017914144
0.016661202
0.015494101
0.014414053
0.013418279
0.012501063
0.011656809
0.010880582
0.010167446
0.0095123602
0.0089104061
0.0083569391
0.0078476938
0.0073788939
0.0069472701
0.0065500082
0.0061845681
0.0058487188
0.0055408481
0.0052596118
0.0050029055
0.0047680579
0.0045525363
0.0043529968
0.0041655497
0.0039873007
0.0038166931
0.0036529933
0.0034958193
0.0033449083
0.0032000337
0.0030609816
0.0029275447
0.0027995218
0.0026767172
0.0025589408
0.0024460079
0.0023377393
0.0022339611
0.0021345049
0.0020392072
0.0019479099
0.0018604598
0.0017767087
0.0016965133
0.032825137
0.032849397
0.032764417
0.032550563
0.032187384
0.031657466
0.030950351
0.030069714
0.029030821
0.027858683
0.026581202
0.025225238
0.023816765
0.022383097
0.020954171
0.019560166
0.018225584
0.016964322
0.015781432
0.014679277
0.013659033
0.012718167
0.011851341
0.011053291
0.010319378
0.0096449596
0.009025298
0.0084557684
0.0079319994
0.0074499762
0.0070061454
0.0065974276
0.0062211709
0.0058749884
0.0055567909
0.0052650728
0.0049985723
0.004755291
0.0045326788
0.004328336
0.0041391104
0.0039613198
0.0037922194
0.0036303346
0.0034749732
0.0033257765
0.0031824985
0.0030449272
0.0029128623
0.0027861098
0.0026644809
0.0025477921
0.0024358647
0.0023285254
0.0022256055
0.0021269416
0.0020323748
0.0019417515
0.0018549224
0.0017717431
0.0016920739
0.0016157793
0.030940844
0.030973443
0.030903218
0.030711373
0.030378328
0.029887372
0.029228391
0.028404715
0.02743069
0.026329914
0.025128735
0.023852567
0.022526004
0.021174897
0.019827573
0.018512633
0.017253374
0.016063055
0.01494647
0.013905806
0.012942202
0.012053352
0.011234274
0.010480018
0.009786218
0.0091485122
0.0085624475
0.0080236752
0.0075280823
0.0070718906
0.0066517571
0.0062647821
0.005908467
0.0055805692
0.0052791342
0.0050027565
0.0047502521
0.0045197229
0.0043087342
0.0041150123
0.0039355867
0.0037669724
0.0036065665
0.0034529727
0.0033055379
0.0031639254
0.003027905
0.0028972786
0.0027718588
0.0026514639
0.002535917
0.0024250459
0.0023186832
0.0022166657
0.0021188351
0.0020250376
0.0019351238
0.0018489489
0.0017663723
0.001687258
0.001611474
0.0015388926
0.029161848
0.029201531
0.029144495
0.028972743
0.028667523
0.028212793
0.027598775
0.026828472
0.025915371
0.024881732
0.023752433
0.022551515
0.021302269
0.020029154
0.018758964
0.017518798
0.016330804
0.015207632
0.014153826
0.013171405
0.012261463
0.011421906
0.010648089
0.0099353531
0.0092795927
0.0086767091
0.0081225175
0.0076129296
0.0071440765
0.0067124035
0.0063147667
0.0059484357
0.005611057
0.0053005249
0.0050150117
0.0047532066
0.004513999
0.0042955857
0.0040956416
0.0039120129
0.0037419012
0.0035820087
0.0034298676
0.0032841559
0.0031442577
0.0030098569
0.0028807386
0.0027567175
0.0026376184
0.0025232712
0.0024135104
0.0023081746
0.0022071064
0.002110153
0.0020171655
0.0019279993
0.0018425139
0.001760573
0.0016820442
0.0016067992
0.0015347137
0.0014656671
0.027483612
0.027529199
0.027483873
0.027330393
0.027050796
0.026629684
0.026057596
0.025337236
0.024481283
0.023510734
0.022449079
0.021319058
0.020142726
0.018943224
0.017745886
0.016576382
0.015455765
0.014396101
0.013401696
0.012474403
0.011615269
0.010822398
0.010091455
0.0094180624
0.0087983555
0.0082284829
0.0077045127
0.0072226025
0.0067791134
0.0063707017
0.0059944116
0.0056476726
0.0053282679
0.0050342214
0.0047638252
0.0045158578
0.0042892774
0.0040823709
0.0038929174
0.0037188766
0.0035576135
0.0034060078
0.0032617204
0.0031234997
0.0029907649
0.0028632198
0.0027406634
0.0026229228
0.0025098342
0.0024012387
0.0022969811
0.0021969103
0.0021008788
0.0020087431
0.0019203634
0.0018356039
0.0017543324
0.0016764206
0.0016017439
0.0015301815
0.0014616162
0.0013959342
0.025900657
0.025951066
0.025916079
0.025779179
0.025523151
0.025133211
0.024600205
0.02392656
0.023124195
0.022212917
0.021214903
0.020151663
0.019044082
0.017914047
0.016785507
0.015682771
0.014625847
0.013626243
0.012688036
0.01181292
0.011001888
0.010253227
0.0095628966
0.0089267809
0.0083412422
0.0078026617
0.0073073452
0.0068516821
0.0064322508
0.0060459065
0.0056898709
0.0053617245
0.0050593797
0.0047809827
0.0045249391
0.004290111
0.0040755216
0.0038795431
0.0037000538
0.0035351209
0.0033822642
0.003238532
0.0031017074
0.0029706058
0.0028446799
0.0027236518
0.002607334
0.0024955651
0.0023881922
0.0022850666
0.0021860433
0.0020909806
0.0019997405
0.0019121882
0.0018281927
0.0017476261
0.0016703645
0.001596287
0.0015252764
0.0014572189
0.0013920041
0.0013295247
0.024408334
0.024462563
0.024436638
0.024314728
0.024080333
0.023719252
0.023222627
0.022592633
0.021840473
0.020984835
0.020046654
0.019046278
0.018003483
0.016938968
0.015875366
0.014835687
0.013838944
0.012896114
0.012011053
0.011185299
0.010419789
0.0097129782
0.0090611042
0.0084602951
0.0079071271
0.0073981993
0.0069300417