/*--------------------------------*- C++ -*----------------------------------*\
| =========                 |                                                 |
| \\      /  F ield         | OpenFOAM: The Open Source CFD Toolbox           |
|  \\    /   O peration     | Version:  2506                                  |
|   \\  /    A nd           | Website:  www.openfoam.com                      |
|    \\/     M anipulation  |                                                 |
\*---------------------------------------------------------------------------*/
FoamFile
{
    version     2.0;
    format      ascii;
    arch        "LSB;label=32;scalar=64";
    class       volScalarField;
    location    "0.0045";
    object      nut;
}
// * * * * * * * * * * * * * * * * * * * * * * * * * * * * * * * * * * * * * //

dimensions      [0 2 -1 0 0 0 0];

internalField   nonuniform List<scalar> 
13763
(
3.6392425e-06
3.635906e-06
3.633203e-06
3.6312797e-06
3.6301463e-06
3.6297089e-06
3.6298381e-06
3.6303303e-06
3.6310499e-06
3.6318817e-06
3.6327573e-06
3.6336571e-06
3.6345507e-06
3.6354514e-06
3.6364067e-06
3.6373911e-06
3.6383946e-06
3.6395065e-06
3.6409536e-06
3.6428766e-06
3.6451772e-06
3.6474675e-06
3.6492977e-06
3.6504859e-06
3.6511054e-06
3.6513646e-06
3.6514413e-06
3.6514305e-06
3.6513971e-06
3.651341e-06
3.6512578e-06
3.6511486e-06
3.6510412e-06
3.6509815e-06
3.6509985e-06
3.6511096e-06
3.6512566e-06
3.6513821e-06
3.6514609e-06
3.651501e-06
3.6515193e-06
3.6515277e-06
3.6515326e-06
3.6515364e-06
3.65154e-06
3.6515437e-06
3.6515477e-06
3.6515518e-06
3.6393169e-06
3.6359736e-06
3.6332665e-06
3.6313398e-06
3.6302036e-06
3.6297637e-06
3.6298903e-06
3.6303798e-06
3.6310967e-06
3.6319258e-06
3.6327987e-06
3.6336957e-06
3.6345868e-06
3.635485e-06
3.6364377e-06
3.6374197e-06
3.6384208e-06
3.6395308e-06
3.640976e-06
3.6428976e-06
3.6451971e-06
3.6474864e-06
3.6493155e-06
3.6505023e-06
3.6511205e-06
3.6513784e-06
3.6514538e-06
3.6514419e-06
3.6514073e-06
3.6513503e-06
3.6512661e-06
3.651156e-06
3.6510479e-06
3.6509874e-06
3.6510037e-06
3.651114e-06
3.6512605e-06
3.6513854e-06
3.6514637e-06
3.6515034e-06
3.6515211e-06
3.6515291e-06
3.6515335e-06
3.6515368e-06
3.6515399e-06
3.6515431e-06
3.6515465e-06
3.6515448e-06
3.651551e-06
3.6515485e-06
3.6393368e-06
3.6359869e-06
3.6332759e-06
3.6313462e-06
3.6302076e-06
3.629766e-06
3.629891e-06
3.6303794e-06
3.6310952e-06
3.6319234e-06
3.6327957e-06
3.6336921e-06
3.6345827e-06
3.6354806e-06
3.6364331e-06
3.6374149e-06
3.638416e-06
3.639526e-06
3.6409713e-06
3.6428933e-06
3.6451934e-06
3.6474834e-06
3.649313e-06
3.6504998e-06
3.6511178e-06
3.6513756e-06
3.6514508e-06
3.6514387e-06
3.6514039e-06
3.6513466e-06
3.6512623e-06
3.6511521e-06
3.6510437e-06
3.6509831e-06
3.6509992e-06
3.6511092e-06
3.6512555e-06
3.6513803e-06
3.6514585e-06
3.651498e-06
3.6515155e-06
3.6515233e-06
3.6515275e-06
3.6515307e-06
3.6515336e-06
3.6515365e-06
3.6515396e-06
3.6515379e-06
3.6515434e-06
3.6515407e-06
3.6515536e-06
3.6393566e-06
3.6359998e-06
3.6332849e-06
3.631352e-06
3.6302111e-06
3.6297678e-06
3.6298914e-06
3.6303787e-06
3.6310934e-06
3.6319207e-06
3.6327925e-06
3.6336884e-06
3.6345786e-06
3.6354764e-06
3.6364285e-06
3.6374103e-06
3.6384113e-06
3.6395214e-06
3.6409668e-06
3.6428892e-06
3.6451899e-06
3.6474806e-06
3.6493106e-06
3.6504974e-06
3.6511153e-06
3.6513728e-06
3.6514478e-06
3.6514355e-06
3.6514003e-06
3.6513429e-06
3.6512584e-06
3.6511479e-06
3.6510394e-06
3.6509785e-06
3.6509943e-06
3.651104e-06
3.6512501e-06
3.6513747e-06
3.6514528e-06
3.6514922e-06
3.6515096e-06
3.6515172e-06
3.6515212e-06
3.6515241e-06
3.6515268e-06
3.6515295e-06
3.6515323e-06
3.6515306e-06
3.6515358e-06
3.6515328e-06
3.6515446e-06
3.6515523e-06
3.6515495e-06
3.6393771e-06
3.6360132e-06
3.6332941e-06
3.6313579e-06
3.6302147e-06
3.6297697e-06
3.6298917e-06
3.6303779e-06
3.6310915e-06
3.6319181e-06
3.6327893e-06
3.6336847e-06
3.6345746e-06
3.6354721e-06
3.636424e-06
3.6374057e-06
3.6384066e-06
3.6395167e-06
3.6409622e-06
3.642885e-06
3.6451864e-06
3.6474777e-06
3.6493082e-06
3.6504949e-06
3.6511126e-06
3.6513699e-06
3.6514447e-06
3.6514321e-06
3.6513965e-06
3.6513389e-06
3.6512541e-06
3.6511434e-06
3.6510346e-06
3.6509735e-06
3.650989e-06
3.6510983e-06
3.6512442e-06
3.6513687e-06
3.6514466e-06
3.6514859e-06
3.6515031e-06
3.6515105e-06
3.6515143e-06
3.651517e-06
3.6515194e-06
3.6515219e-06
3.6515245e-06
3.6515228e-06
3.6515277e-06
3.6515244e-06
3.6515355e-06
3.6515425e-06
3.6515394e-06
3.6515501e-06
3.6515472e-06
3.6393986e-06
3.6360272e-06
3.6333037e-06
3.6313641e-06
3.6302184e-06
3.6297716e-06
3.6298921e-06
3.6303771e-06
3.6310897e-06
3.6319154e-06
3.6327861e-06
3.6336809e-06
3.6345705e-06
3.6354677e-06
3.6364194e-06
3.6374009e-06
3.6384018e-06
3.6395119e-06
3.6409575e-06
3.6428807e-06
3.6451827e-06
3.6474747e-06
3.6493056e-06
3.6504922e-06
3.6511098e-06
3.6513668e-06
3.6514413e-06
3.6514285e-06
3.6513924e-06
3.6513345e-06
3.6512494e-06
3.6511385e-06
3.6510295e-06
3.6509681e-06
3.6509832e-06
3.651092e-06
3.6512377e-06
3.6513621e-06
3.6514399e-06
3.651479e-06
3.651496e-06
3.6515032e-06
3.6515068e-06
3.6515092e-06
3.6515114e-06
3.6515137e-06
3.6515159e-06
3.6515143e-06
3.6515189e-06
3.6515153e-06
3.6515257e-06
3.6515324e-06
3.651529e-06
3.6515389e-06
3.6515356e-06
3.6515477e-06
3.6515448e-06
3.6394213e-06
3.6360421e-06
3.6333139e-06
3.6313707e-06
3.6302224e-06
3.6297737e-06
3.6298926e-06
3.6303764e-06
3.6310878e-06
3.6319126e-06
3.6327827e-06
3.633677e-06
3.6345662e-06
3.6354632e-06
3.6364145e-06
3.6373959e-06
3.6383966e-06
3.6395068e-06
3.6409524e-06
3.6428761e-06
3.6451788e-06
3.6474715e-06
3.6493028e-06
3.6504894e-06
3.6511068e-06
3.6513635e-06
3.6514376e-06
3.6514244e-06
3.6513879e-06
3.6513297e-06
3.6512444e-06
3.6511331e-06
3.6510238e-06
3.6509621e-06
3.6509768e-06
3.6510852e-06
3.6512306e-06
3.6513549e-06
3.6514325e-06
3.6514714e-06
3.6514882e-06
3.6514952e-06
3.6514985e-06
3.6515007e-06
3.6515026e-06
3.6515046e-06
3.6515066e-06
3.651505e-06
3.6515093e-06
3.6515053e-06
3.651515e-06
3.6515215e-06
3.6515176e-06
3.6515271e-06
3.6515235e-06
3.6515348e-06
3.6515315e-06
3.6515452e-06
3.6515421e-06
3.6515413e-06
3.6394455e-06
3.6360579e-06
3.6333248e-06
3.6313778e-06
3.6302267e-06
3.629776e-06
3.6298932e-06
3.6303756e-06
3.6310858e-06
3.6319098e-06
3.6327792e-06
3.6336729e-06
3.6345616e-06
3.6354584e-06
3.6364093e-06
3.6373906e-06
3.6383912e-06
3.6395014e-06
3.6409471e-06
3.6428712e-06
3.6451746e-06
3.647468e-06
3.6492998e-06
3.6504863e-06
3.6511034e-06
3.6513598e-06
3.6514336e-06
3.65142e-06
3.651383e-06
3.6513244e-06
3.6512388e-06
3.6511272e-06
3.6510175e-06
3.6509555e-06
3.6509697e-06
3.6510776e-06
3.6512229e-06
3.6513469e-06
3.6514243e-06
3.651463e-06
3.6514796e-06
3.6514863e-06
3.6514893e-06
3.6514912e-06
3.6514929e-06
3.6514945e-06
3.6514962e-06
3.6514946e-06
3.6514987e-06
3.6514942e-06
3.6515031e-06
3.6515095e-06
3.6515051e-06
3.6515142e-06
3.6515102e-06
3.6515211e-06
3.6515173e-06
3.6515303e-06
3.6515268e-06
3.6515252e-06
3.6515415e-06
3.6515385e-06
3.639471e-06
3.6360747e-06
3.6333363e-06
3.6313853e-06
3.6302312e-06
3.6297785e-06
3.6298938e-06
3.6303748e-06
3.6310837e-06
3.6319067e-06
3.6327755e-06
3.6336686e-06
3.6345568e-06
3.6354533e-06
3.6364039e-06
3.637385e-06
3.6383855e-06
3.6394957e-06
3.6409414e-06
3.642866e-06
3.6451702e-06
3.6474644e-06
3.6492966e-06
3.650483e-06
3.6510998e-06
3.6513558e-06
3.6514292e-06
3.6514151e-06
3.6513776e-06
3.6513186e-06
3.6512326e-06
3.6511207e-06
3.6510106e-06
3.6509482e-06
3.650962e-06
3.6510694e-06
3.6512144e-06
3.6513383e-06
3.6514154e-06
3.6514538e-06
3.6514701e-06
3.6514765e-06
3.6514793e-06
3.6514809e-06
3.6514822e-06
3.6514835e-06
3.6514848e-06
3.6514833e-06
3.651487e-06
3.6514821e-06
3.6514902e-06
3.6514963e-06
3.6514915e-06
3.6515001e-06
3.6514956e-06
3.651506e-06
3.6515018e-06
3.6515143e-06
3.6515104e-06
3.651508e-06
3.6515236e-06
3.65152e-06
3.6394982e-06
3.6360925e-06
3.6333485e-06
3.6313932e-06
3.6302361e-06
3.6297811e-06
3.6298944e-06
3.630374e-06
3.6310815e-06
3.6319035e-06
3.6327716e-06
3.6336639e-06
3.6345517e-06
3.6354479e-06
3.6363981e-06
3.637379e-06
3.6383795e-06
3.6394897e-06
3.6409354e-06
3.6428605e-06
3.6451655e-06
3.6474604e-06
3.6492931e-06
3.6504793e-06
3.6510958e-06
3.6513514e-06
3.6514244e-06
3.6514098e-06
3.6513717e-06
3.6513123e-06
3.6512259e-06
3.6511136e-06
3.6510032e-06
3.6509403e-06
3.6509539e-06
3.6510608e-06
3.6512055e-06
3.6513291e-06
3.651406e-06
3.6514441e-06
3.6514601e-06
3.6514662e-06
3.6514686e-06
3.6514699e-06
3.6514708e-06
3.6514718e-06
3.6514727e-06
3.6514713e-06
3.6514746e-06
3.6514695e-06
3.6514766e-06
3.6514822e-06
3.6514771e-06
3.6514851e-06
3.6514803e-06
3.65149e-06
3.6514854e-06
3.6514972e-06
3.6514928e-06
3.6514898e-06
3.6515045e-06
3.6515004e-06
3.6395269e-06
3.6361115e-06
3.6333615e-06
3.6314017e-06
3.6302412e-06
3.6297839e-06
3.6298951e-06
3.6303731e-06
3.6310792e-06
3.6319001e-06
3.6327674e-06
3.6336591e-06
3.6345463e-06
3.6354421e-06
3.636392e-06
3.6373728e-06
3.6383731e-06
3.6394832e-06
3.6409291e-06
3.6428547e-06
3.6451604e-06
3.6474561e-06
3.6492892e-06
3.6504752e-06
3.6510914e-06
3.6513466e-06
3.6514191e-06
3.6514039e-06
3.6513652e-06
3.6513055e-06
3.6512187e-06
3.6511061e-06
3.6509952e-06
3.650932e-06
3.6509455e-06
3.651052e-06
3.6511964e-06
3.6513198e-06
3.6513965e-06
3.6514344e-06
3.6514501e-06
3.6514559e-06
3.651458e-06
3.6514589e-06
3.6514596e-06
3.6514602e-06
3.6514609e-06
3.6514596e-06
3.6514623e-06
3.6514576e-06
3.6514635e-06
3.6514683e-06
3.6514636e-06
3.6514704e-06
3.6514659e-06
3.6514742e-06
3.6514698e-06
3.65148e-06
3.6514756e-06
3.6514726e-06
3.6514853e-06
3.6514811e-06
3.6395573e-06
3.6361315e-06
3.6333752e-06
3.6314106e-06
3.6302466e-06
3.6297868e-06
3.6298959e-06
3.6303722e-06
3.6310767e-06
3.6318964e-06
3.6327631e-06
3.6336539e-06
3.6345406e-06
3.6354361e-06
3.6363856e-06
3.6373661e-06
3.6383663e-06
3.6394764e-06
3.6409223e-06
3.6428484e-06
3.6451549e-06
3.6474515e-06
3.649285e-06
3.6504708e-06
3.6510866e-06
3.6513412e-06
3.6514132e-06
3.6513976e-06
3.6513584e-06
3.6512982e-06
3.6512112e-06
3.6510982e-06
3.6509871e-06
3.6509235e-06
3.6509373e-06
3.6510437e-06
3.651188e-06
3.6513112e-06
3.6513878e-06
3.6514254e-06
3.6514409e-06
3.6514465e-06
3.6514484e-06
3.6514492e-06
3.6514497e-06
3.6514502e-06
3.6514507e-06
3.6514496e-06
3.6514518e-06
3.651448e-06
3.6514529e-06
3.6514566e-06
3.6514528e-06
3.6514582e-06
3.6514547e-06
3.651461e-06
3.6514575e-06
3.6514653e-06
3.6514617e-06
3.6514596e-06
3.6514689e-06
3.6514653e-06
3.6395895e-06
3.6361529e-06
3.6333898e-06
3.6314201e-06
3.6302524e-06
3.6297899e-06
3.6298966e-06
3.6303712e-06
3.6310741e-06
3.6318926e-06
3.6327584e-06
3.6336484e-06
3.6345346e-06
3.6354297e-06
3.6363787e-06
3.6373591e-06
3.6383591e-06
3.6394692e-06
3.6409151e-06
3.6428417e-06
3.6451491e-06
3.6474465e-06
3.6492803e-06
3.6504658e-06
3.6510812e-06
3.6513353e-06
3.6514068e-06
3.6513909e-06
3.6513512e-06
3.6512909e-06
3.6512037e-06
3.6510906e-06
3.6509792e-06
3.6509155e-06
3.6509302e-06
3.6510365e-06
3.6511809e-06
3.6513041e-06
3.6513807e-06
3.6514183e-06
3.6514337e-06
3.6514393e-06
3.6514413e-06
3.6514421e-06
3.6514426e-06
3.6514432e-06
3.6514439e-06
3.6514431e-06
3.6514447e-06
3.6514426e-06
3.6514466e-06
3.6514491e-06
3.651447e-06
3.6514507e-06
3.6514489e-06
3.651453e-06
3.6514512e-06
3.651456e-06
3.6514539e-06
3.6514536e-06
3.6514587e-06
3.6514566e-06
3.6396237e-06
3.6361755e-06
3.6334053e-06
3.6314301e-06
3.6302585e-06
3.6297932e-06
3.6298975e-06
3.6303702e-06
3.6310713e-06
3.6318886e-06
3.6327535e-06
3.6336426e-06
3.6345282e-06
3.6354229e-06
3.6363715e-06
3.6373517e-06
3.6383515e-06
3.6394615e-06
3.6409074e-06
3.6428345e-06
3.6451427e-06
3.6474409e-06
3.6492751e-06
3.6504604e-06
3.6510754e-06
3.651329e-06
3.6514001e-06
3.6513841e-06
3.6513442e-06
3.6512839e-06
3.6511967e-06
3.6510836e-06
3.6509723e-06
3.6509087e-06
3.6509248e-06
3.6510315e-06
3.6511761e-06
3.6512995e-06
3.6513763e-06
3.651414e-06
3.6514297e-06
3.6514355e-06
3.6514377e-06
3.6514388e-06
3.6514397e-06
3.6514406e-06
3.6514416e-06
3.6514413e-06
3.6514425e-06
3.6514425e-06
3.651446e-06
3.6514473e-06
3.6514473e-06
3.6514495e-06
3.6514497e-06
3.6514518e-06
3.6514517e-06
3.6514538e-06
3.6514534e-06
3.6514548e-06
3.6514564e-06
3.6514557e-06
3.6396599e-06
3.6361995e-06
3.6334216e-06
3.6314408e-06
3.630265e-06
3.6297967e-06
3.6298984e-06
3.6303691e-06
3.6310684e-06
3.6318843e-06
3.6327483e-06
3.6336365e-06
3.6345214e-06
3.6354157e-06
3.6363639e-06
3.6373438e-06
3.6383434e-06
3.6394533e-06
3.6408991e-06
3.6428268e-06
3.6451358e-06
3.6474349e-06
3.6492695e-06
3.6504545e-06
3.6510691e-06
3.6513223e-06
3.6513931e-06
3.6513775e-06
3.6513378e-06
3.6512777e-06
3.6511908e-06
3.6510781e-06
3.6509671e-06
3.6509038e-06
3.6509218e-06
3.6510292e-06
3.6511743e-06
3.6512982e-06
3.6513753e-06
3.6514135e-06
3.6514296e-06
3.6514359e-06
3.6514385e-06
3.6514401e-06
3.6514415e-06
3.6514429e-06
3.6514444e-06
3.6514447e-06
3.6514457e-06
3.6514475e-06
3.6514508e-06
3.6514514e-06
3.651453e-06
3.6514543e-06
3.6514558e-06
3.6514565e-06
3.6514576e-06
3.6514579e-06
3.6514584e-06
3.6514604e-06
3.6514601e-06
3.6514599e-06
3.6396982e-06
3.636225e-06
3.633439e-06
3.631452e-06
3.6302719e-06
3.6298004e-06
3.6298993e-06
3.6303679e-06
3.6310653e-06
3.6318798e-06
3.6327427e-06
3.63363e-06
3.6345142e-06
3.6354081e-06
3.6363558e-06
3.6373354e-06
3.6383347e-06
3.6394444e-06
3.6408902e-06
3.6428184e-06
3.6451283e-06
3.6474283e-06
3.6492633e-06
3.6504482e-06
3.6510626e-06
3.6513156e-06
3.6513863e-06
3.6513716e-06
3.6513325e-06
3.651273e-06
3.6511868e-06
3.6510747e-06
3.6509643e-06
3.6509016e-06
3.6509218e-06
3.6510302e-06
3.6511759e-06
3.6513005e-06
3.6513782e-06
3.651417e-06
3.6514336e-06
3.6514405e-06
3.6514437e-06
3.6514459e-06
3.6514478e-06
3.6514497e-06
3.6514517e-06
3.6514522e-06
3.6514531e-06
3.6514561e-06
3.6514595e-06
3.6514596e-06
3.6514619e-06
3.6514625e-06
3.6514642e-06
3.6514642e-06
3.6514651e-06
3.6514646e-06
3.6514647e-06
3.6514654e-06
3.6514648e-06
3.6514634e-06
3.6397389e-06
3.636252e-06
3.6334574e-06
3.631464e-06
3.6302791e-06
3.6298043e-06
3.6299003e-06
3.6303666e-06
3.631062e-06
3.631875e-06
3.6327369e-06
3.6336231e-06
3.6345066e-06
3.6354e-06
3.6363472e-06
3.6373265e-06
3.6383255e-06
3.639435e-06
3.6408807e-06
3.6428094e-06
3.6451201e-06
3.647421e-06
3.6492567e-06
3.6504418e-06
3.6510562e-06
3.6513092e-06
3.6513801e-06
3.651367e-06
3.6513289e-06
3.6512704e-06
3.6511851e-06
3.6510739e-06
3.6509643e-06
3.6509024e-06
3.650925e-06
3.6510344e-06
3.651181e-06
3.6513062e-06
3.6513846e-06
3.651424e-06
3.6514413e-06
3.6514487e-06
3.6514525e-06
3.6514551e-06
3.6514574e-06
3.6514596e-06
3.6514617e-06
3.651462e-06
3.6514628e-06
3.6514657e-06
3.6514691e-06
3.6514689e-06
3.6514704e-06
3.6514706e-06
3.651471e-06
3.6514707e-06
3.6514697e-06
3.6514691e-06
3.6514671e-06
3.6514648e-06
3.6514647e-06
3.6514607e-06
3.639782e-06
3.6362808e-06
3.6334768e-06
3.6314766e-06
3.6302869e-06
3.6298084e-06
3.6299013e-06
3.6303653e-06
3.6310586e-06
3.6318699e-06
3.6327307e-06
3.6336159e-06
3.6344985e-06
3.6353915e-06
3.6363381e-06
3.637317e-06
3.6383157e-06
3.6394248e-06
3.6408704e-06
3.6427996e-06
3.6451113e-06
3.6474133e-06
3.6492499e-06
3.6504354e-06
3.6510502e-06
3.6513037e-06
3.6513752e-06
3.6513643e-06
3.6513276e-06
3.6512703e-06
3.6511861e-06
3.651076e-06
3.6509674e-06
3.6509064e-06
3.6509311e-06
3.6510416e-06
3.6511889e-06
3.6513148e-06
3.6513938e-06
3.6514337e-06
3.6514514e-06
3.6514592e-06
3.6514632e-06
3.6514659e-06
3.6514682e-06
3.6514702e-06
3.6514719e-06
3.6514715e-06
3.6514718e-06
3.6514734e-06
3.6514763e-06
3.6514758e-06
3.6514751e-06
3.6514747e-06
3.6514723e-06
3.6514716e-06
3.6514676e-06
3.651467e-06
3.6514617e-06
3.6514555e-06
3.6514562e-06
3.6514489e-06
3.6398277e-06
3.6363113e-06
3.6334975e-06
3.6314901e-06
3.630295e-06
3.6298128e-06
3.6299024e-06
3.6303639e-06
3.6310549e-06
3.6318646e-06
3.6327241e-06
3.6336081e-06
3.63449e-06
3.6353824e-06
3.6363284e-06
3.6373068e-06
3.6383051e-06
3.6394138e-06
3.6408592e-06
3.642789e-06
3.6451018e-06
3.6474051e-06
3.6492432e-06
3.6504296e-06
3.6510452e-06
3.6512995e-06
3.6513721e-06
3.6513639e-06
3.6513288e-06
3.6512729e-06
3.65119e-06
3.6510809e-06
3.6509733e-06
3.6509133e-06
3.6509395e-06
3.6510508e-06
3.6511988e-06
3.6513252e-06
3.6514045e-06
3.6514446e-06
3.6514624e-06
3.6514701e-06
3.6514738e-06
3.6514762e-06
3.6514778e-06
3.651479e-06
3.6514798e-06
3.651478e-06
3.6514775e-06
3.6514764e-06
3.6514784e-06
3.6514771e-06
3.6514731e-06
3.6514718e-06
3.6514658e-06
3.6514644e-06
3.6514567e-06
3.651456e-06
3.6514473e-06
3.6514377e-06
3.6514388e-06
3.6514293e-06
3.6398761e-06
3.6363437e-06
3.6335194e-06
3.6315043e-06
3.6303037e-06
3.6298174e-06
3.6299035e-06
3.6303624e-06
3.631051e-06
3.6318589e-06
3.6327172e-06
3.6335999e-06
3.6344809e-06
3.6353727e-06
3.636318e-06
3.6372959e-06
3.6382937e-06
3.639402e-06
3.6408473e-06
3.6427777e-06
3.6450919e-06
3.6473968e-06
3.649237e-06
3.6504249e-06
3.6510418e-06
3.6512974e-06
3.6513714e-06
3.651366e-06
3.6513327e-06
3.6512782e-06
3.6511964e-06
3.6510883e-06
3.6509816e-06
3.6509223e-06
3.6509494e-06
3.6510612e-06
3.6512094e-06
3.6513359e-06
3.6514152e-06
3.6514551e-06
3.6514725e-06
3.6514795e-06
3.6514825e-06
3.6514838e-06
3.6514843e-06
3.651484e-06
3.6514831e-06
3.6514793e-06
3.6514774e-06
3.6514729e-06
3.6514732e-06
3.6514709e-06
3.6514631e-06
3.6514605e-06
3.6514508e-06
3.6514486e-06
3.6514378e-06
3.6514368e-06
3.6514259e-06
3.6514147e-06
3.6514162e-06
3.6514067e-06
3.6399275e-06
3.6363781e-06
3.6335426e-06
3.6315193e-06
3.6303128e-06
3.6298223e-06
3.6299048e-06
3.6303608e-06
3.6310469e-06
3.6318529e-06
3.6327098e-06
3.6335912e-06
3.6344712e-06
3.6353624e-06
3.6363069e-06
3.6372842e-06
3.6382814e-06
3.6393892e-06
3.6408345e-06
3.6427659e-06
3.6450817e-06
3.6473887e-06
3.6492318e-06
3.6504218e-06
3.6510404e-06
3.6512977e-06
3.6513733e-06
3.6513706e-06
3.6513391e-06
3.6512858e-06
3.6512049e-06
3.6510975e-06
3.6509914e-06
3.6509326e-06
3.6509596e-06
3.6510713e-06
3.6512193e-06
3.6513455e-06
3.6514243e-06
3.6514634e-06
3.6514799e-06
3.6514858e-06
3.6514873e-06
3.651487e-06
3.6514857e-06
3.6514834e-06
3.6514803e-06
3.651474e-06
3.6514704e-06
3.651462e-06
3.6514603e-06
3.6514566e-06
3.6514453e-06
3.6514414e-06
3.651429e-06
3.6514261e-06
3.6514139e-06
3.651413e-06
3.6514022e-06
3.6513925e-06
3.6513947e-06
3.6513883e-06
3.6399819e-06
3.6364146e-06
3.6335673e-06
3.6315353e-06
3.6303225e-06
3.6298274e-06
3.629906e-06
3.6303591e-06
3.6310426e-06
3.6318465e-06
3.6327019e-06
3.6335819e-06
3.634461e-06
3.6353514e-06
3.636295e-06
3.6372716e-06
3.6382682e-06
3.6393756e-06
3.640821e-06
3.6427537e-06
3.6450717e-06
3.6473814e-06
3.6492282e-06
3.6504209e-06
3.6510415e-06
3.6513006e-06
3.6513779e-06
3.6513775e-06
3.6513473e-06
3.6512949e-06
3.6512146e-06
3.6511076e-06
3.6510016e-06
3.6509428e-06
3.650969e-06
3.65108e-06
3.6512273e-06
3.6513527e-06
3.6514304e-06
3.6514683e-06
3.6514832e-06
3.6514874e-06
3.651487e-06
3.6514846e-06
3.6514809e-06
3.6514762e-06
3.6514704e-06
3.6514616e-06
3.6514559e-06
3.651444e-06
3.6514403e-06
3.6514354e-06
3.6514218e-06
3.6514171e-06
3.651404e-06
3.6514014e-06
3.6513905e-06
3.6513904e-06
3.6513828e-06
3.6513779e-06
3.6513815e-06
3.6513807e-06
3.6400397e-06
3.6364534e-06
3.6335934e-06
3.6315522e-06
3.6303328e-06
3.6298329e-06
3.6299074e-06
3.6303572e-06
3.6310379e-06
3.6318397e-06
3.6326935e-06
3.633572e-06
3.63445e-06
3.6353395e-06
3.6362821e-06
3.637258e-06
3.6382539e-06
3.6393611e-06
3.6408071e-06
3.6427415e-06
3.6450624e-06
3.6473754e-06
3.6492266e-06
3.6504223e-06
3.6510452e-06
3.6513061e-06
3.6513848e-06
3.6513861e-06
3.6513568e-06
3.6513049e-06
3.6512247e-06
3.6511176e-06
3.6510112e-06
3.6509519e-06
3.6509765e-06
3.6510861e-06
3.6512322e-06
3.6513562e-06
3.6514324e-06
3.6514685e-06
3.6514814e-06
3.6514834e-06
3.6514807e-06
3.6514758e-06
3.6514695e-06
3.6514621e-06
3.6514537e-06
3.6514425e-06
3.6514351e-06
3.6514207e-06
3.6514156e-06
3.6514102e-06
3.6513965e-06
3.6513922e-06
3.6513813e-06
3.6513801e-06
3.6513735e-06
3.6513755e-06
3.6513737e-06
3.651376e-06
3.6513815e-06
3.6513873e-06
3.640101e-06
3.6364947e-06
3.6336211e-06
3.6315701e-06
3.6303436e-06
3.6298386e-06
3.6299088e-06
3.6303553e-06
3.631033e-06
3.6318324e-06
3.6326845e-06
3.6335615e-06
3.6344383e-06
3.6353268e-06
3.6362682e-06
3.6372433e-06
3.6382387e-06
3.639346e-06
3.640793e-06
3.64273e-06
3.6450543e-06
3.6473713e-06
3.6492274e-06
3.6504263e-06
3.6510513e-06
3.6513137e-06
3.6513936e-06
3.6513957e-06
3.6513667e-06
3.6513147e-06
3.6512342e-06
3.6511263e-06
3.6510191e-06
3.6509587e-06
3.6509809e-06
3.6510886e-06
3.651233e-06
3.6513553e-06
3.6514294e-06
3.6514634e-06
3.6514739e-06
3.6514734e-06
3.6514681e-06
3.6514606e-06
3.6514517e-06
3.6514418e-06
3.6514313e-06
3.6514184e-06
3.65141e-06
3.651395e-06
3.6513899e-06
3.6513853e-06
3.6513743e-06
3.6513722e-06
3.6513664e-06
3.6513682e-06
3.6513683e-06
3.6513732e-06
3.6513785e-06
3.6513885e-06
3.6513959e-06
3.6514074e-06
3.640166e-06
3.6365385e-06
3.6336505e-06
3.6315891e-06
3.6303551e-06
3.6298447e-06
3.6299103e-06
3.6303532e-06
3.6310278e-06
3.6318247e-06
3.632675e-06
3.6335502e-06
3.6344257e-06
3.635313e-06
3.6362532e-06
3.6372276e-06
3.6382226e-06
3.6393306e-06
3.6407794e-06
3.6427195e-06
3.645048e-06
3.6473695e-06
3.6492306e-06
3.6504325e-06
3.6510593e-06
3.6513228e-06
3.6514034e-06
3.6514056e-06
3.6513761e-06
3.6513235e-06
3.651242e-06
3.6511329e-06
3.6510243e-06
3.6509622e-06
3.6509816e-06
3.6510869e-06
3.6512291e-06
3.6513492e-06
3.6514211e-06
3.6514526e-06
3.6514606e-06
3.6514575e-06
3.6514497e-06
3.6514397e-06
3.6514287e-06
3.651417e-06
3.6514053e-06
3.6513923e-06
3.6513842e-06
3.6513712e-06
3.651368e-06
3.651366e-06
3.6513606e-06
3.6513623e-06
3.6513638e-06
3.6513696e-06
3.6513772e-06
3.6513853e-06
3.6513969e-06
3.6514126e-06
3.6514215e-06
3.6514358e-06
3.6402349e-06
3.6365851e-06
3.6336816e-06
3.6316092e-06
3.6303672e-06
3.629851e-06
3.6299118e-06
3.630351e-06
3.6310222e-06
3.6318164e-06
3.6326647e-06
3.6335381e-06
3.6344121e-06
3.6352981e-06
3.6362372e-06
3.6372109e-06
3.6382059e-06
3.6393153e-06
3.6407666e-06
3.6427106e-06
3.6450438e-06
3.6473701e-06
3.649236e-06
3.6504406e-06
3.6510687e-06
3.6513328e-06
3.6514135e-06
3.6514148e-06
3.6513842e-06
3.6513303e-06
3.6512473e-06
3.6511364e-06
3.6510258e-06
3.6509617e-06
3.6509778e-06
3.6510803e-06
3.6512202e-06
3.6513378e-06
3.6514072e-06
3.6514362e-06
3.6514417e-06
3.6514363e-06
3.6514263e-06
3.6514146e-06
3.6514024e-06
3.6513904e-06
3.6513791e-06
3.651368e-06
3.6513623e-06
3.6513543e-06
3.6513552e-06
3.6513573e-06
3.6513595e-06
3.6513661e-06
3.6513753e-06
3.6513851e-06
3.6513988e-06
3.6514094e-06
3.6514248e-06
3.6514428e-06
3.6514519e-06
3.6514659e-06
3.6403081e-06
3.6366347e-06
3.6337147e-06
3.6316304e-06
3.63038e-06
3.6298577e-06
3.6299134e-06
3.6303486e-06
3.6310162e-06
3.6318076e-06
3.6326536e-06
3.633525e-06
3.6343975e-06
3.6352821e-06
3.6362201e-06
3.6371935e-06
3.638189e-06
3.6393007e-06
3.6407554e-06
3.6427037e-06
3.6450419e-06
3.647373e-06
3.6492432e-06
3.6504498e-06
3.6510787e-06
3.6513428e-06
3.651423e-06
3.6514225e-06
3.6513901e-06
3.6513343e-06
3.6512493e-06
3.6511361e-06
3.6510232e-06
3.6509566e-06
3.6509693e-06
3.6510688e-06
3.651206e-06
3.6513212e-06
3.6513882e-06
3.6514149e-06
3.6514183e-06
3.6514112e-06
3.6514e-06
3.6513879e-06
3.6513762e-06
3.6513658e-06
3.6513573e-06
3.6513504e-06
3.6513491e-06
3.6513485e-06
3.6513551e-06
3.6513622e-06
3.6513723e-06
3.6513835e-06
3.6513989e-06
3.6514115e-06
3.6514285e-06
3.65144e-06
3.6514559e-06
3.6514727e-06
3.651481e-06
3.6514923e-06
3.6403858e-06
3.6366873e-06
3.6337498e-06
3.6316529e-06
3.6303935e-06
3.6298648e-06
3.629915e-06
3.6303459e-06
3.6310097e-06
3.631798e-06
3.6326417e-06
3.6335109e-06
3.6343817e-06
3.635265e-06
3.6362021e-06
3.6371758e-06
3.6381723e-06
3.6392873e-06
3.6407459e-06
3.642699e-06
3.6450422e-06
3.6473779e-06
3.6492514e-06
3.6504594e-06
3.6510884e-06
3.6513518e-06
3.6514309e-06
3.6514279e-06
3.651393e-06
3.6513349e-06
3.6512473e-06
3.6511315e-06
3.6510159e-06
3.6509467e-06
3.650956e-06
3.6510523e-06
3.651187e-06
3.6512999e-06
3.6513648e-06
3.6513898e-06
3.6513921e-06
3.6513844e-06
3.6513738e-06
3.6513632e-06
3.6513542e-06
3.6513478e-06
3.6513445e-06
3.6513438e-06
3.6513484e-06
3.6513563e-06
3.6513688e-06
3.6513807e-06
3.651397e-06
3.6514114e-06
3.6514298e-06
3.6514431e-06
3.65146e-06
3.6514707e-06
3.6514842e-06
3.6514975e-06
3.6515043e-06
3.6515121e-06
3.6404683e-06
3.6367433e-06
3.633787e-06
3.6316768e-06
3.6304078e-06
3.6298722e-06
3.6299167e-06
3.630343e-06
3.6310027e-06
3.6317877e-06
3.6326288e-06
3.6334956e-06
3.6343646e-06
3.6352469e-06
3.6361837e-06
3.6371582e-06
3.6381566e-06
3.6392755e-06
3.6407385e-06
3.6426963e-06
3.6450443e-06
3.647384e-06
3.64926e-06
3.6504685e-06
3.6510969e-06
3.6513591e-06
3.6514363e-06
3.6514303e-06
3.6513923e-06
3.6513314e-06
3.6512409e-06
3.6511223e-06
3.6510038e-06
3.6509318e-06
3.6509379e-06
3.6510314e-06
3.6511637e-06
3.6512749e-06
3.6513387e-06
3.6513631e-06
3.6513657e-06
3.6513595e-06
3.6513515e-06
3.6513448e-06
3.651341e-06
3.6513407e-06
3.6513442e-06
3.6513508e-06
3.6513616e-06
3.651377e-06
3.6513944e-06
3.6514093e-06
3.6514286e-06
3.6514438e-06
3.6514617e-06
3.6514738e-06
3.6514878e-06
3.6514965e-06
3.6515062e-06
3.6515155e-06
3.6515208e-06
3.6515257e-06
3.6405559e-06
3.6368029e-06
3.6338265e-06
3.631702e-06
3.6304228e-06
3.6298799e-06
3.6299183e-06
3.6303398e-06
3.6309951e-06
3.6317766e-06
3.6326148e-06
3.6334792e-06
3.6343465e-06
3.635228e-06
3.6361652e-06
3.6371413e-06
3.6381423e-06
3.6392657e-06
3.640733e-06
3.6426953e-06
3.6450476e-06
3.6473906e-06
3.6492681e-06
3.6504763e-06
3.6511034e-06
3.6513637e-06
3.6514385e-06
3.651429e-06
3.6513876e-06
3.6513235e-06
3.65123e-06
3.6511083e-06
3.6509869e-06
3.6509123e-06
3.6509157e-06
3.6510068e-06
3.6511377e-06
3.6512483e-06
3.6513122e-06
3.6513379e-06
3.651343e-06
3.6513405e-06
3.6513375e-06
3.6513369e-06
3.65134e-06
3.6513471e-06
3.6513579e-06
3.651371e-06
3.6513867e-06
3.6514071e-06
3.6514267e-06
3.6514423e-06
3.651461e-06
3.6514747e-06
3.6514893e-06
3.6514991e-06
3.6515088e-06
3.6515153e-06
3.6515214e-06
3.6515272e-06
3.6515318e-06
3.6515349e-06
3.640649e-06
3.6368663e-06
3.6338683e-06
3.6317286e-06
3.6304386e-06
3.629888e-06
3.6299199e-06
3.6303362e-06
3.6309868e-06
3.6317645e-06
3.6325997e-06
3.6334615e-06
3.6343273e-06
3.6352089e-06
3.6361473e-06
3.6371258e-06
3.6381298e-06
3.6392577e-06
3.6407291e-06
3.6426954e-06
3.6450512e-06
3.6473968e-06
3.6492748e-06
3.6504819e-06
3.6511072e-06
3.6513649e-06
3.6514369e-06
3.6514236e-06
3.6513785e-06
3.651311e-06
3.6512144e-06
3.6510898e-06
3.6509657e-06
3.6508888e-06
3.6508905e-06
3.6509803e-06
3.6511111e-06
3.6512227e-06
3.651289e-06
3.6513182e-06
3.6513281e-06
3.6513317e-06
3.6513355e-06
3.6513424e-06
3.651353e-06
3.651367e-06
3.6513837e-06
3.6514012e-06
3.6514192e-06
3.6514407e-06
3.6514597e-06
3.6514739e-06
3.6514891e-06
3.6514999e-06
3.65151e-06
3.651517e-06
3.6515229e-06
3.6515277e-06
3.6515311e-06
3.6515352e-06
3.6515396e-06
3.6515419e-06
3.6407479e-06
3.6369336e-06
3.6339128e-06
3.6317567e-06
3.6304553e-06
3.6298964e-06
3.6299215e-06
3.6303321e-06
3.6309777e-06
3.6317513e-06
3.6325834e-06
3.6334429e-06
3.6343076e-06
3.6351901e-06
3.6361306e-06
3.637112e-06
3.6381194e-06
3.6392514e-06
3.6407262e-06
3.6426957e-06
3.6450543e-06
3.6474017e-06
3.6492792e-06
3.6504846e-06
3.6511074e-06
3.6513622e-06
3.651431e-06
3.6514138e-06
3.6513649e-06
3.651294e-06
3.6511944e-06
3.6510672e-06
3.6509409e-06
3.6508626e-06
3.650864e-06
3.6509544e-06
3.6510871e-06
3.6512021e-06
3.651273e-06
3.6513081e-06
3.6513248e-06
3.6513359e-06
3.6513474e-06
3.6513615e-06
3.6513784e-06
3.6513972e-06
3.6514171e-06
3.6514357e-06
3.6514531e-06
3.6514722e-06
3.6514884e-06
3.6514995e-06
3.65151e-06
3.6515175e-06
3.6515235e-06
3.6515284e-06
3.6515317e-06
3.6515357e-06
3.6515381e-06
3.6515416e-06
3.651546e-06
3.6515478e-06
3.6408529e-06
3.6370053e-06
3.6339599e-06
3.6317865e-06
3.6304727e-06
3.6299051e-06
3.6299229e-06
3.6303275e-06
3.6309678e-06
3.631737e-06
3.632566e-06
3.6334235e-06
3.6342877e-06
3.6351722e-06
3.6361155e-06
3.6371001e-06
3.6381107e-06
3.6392461e-06
3.6407235e-06
3.6426955e-06
3.6450559e-06
3.6474043e-06
3.6492806e-06
3.6504837e-06
3.6511036e-06
3.6513552e-06
3.6514206e-06
3.6513996e-06
3.6513469e-06
3.6512729e-06
3.6511707e-06
3.6510415e-06
3.6509142e-06
3.6508357e-06
3.6508391e-06
3.6509325e-06
3.6510696e-06
3.6511903e-06
3.651268e-06
3.6513106e-06
3.6513352e-06
3.6513537e-06
3.6513719e-06
3.6513914e-06
3.6514118e-06
3.6514324e-06
3.651452e-06
3.6514686e-06
3.6514831e-06
3.6514974e-06
3.6515097e-06
3.6515175e-06
3.6515236e-06
3.6515286e-06
3.6515318e-06
3.6515356e-06
3.6515379e-06
3.6515419e-06
3.6515442e-06
3.6515475e-06
3.6515514e-06
3.6515517e-06
3.6409645e-06
3.6370816e-06
3.6340099e-06
3.6318178e-06
3.630491e-06
3.629914e-06
3.6299241e-06
3.6303223e-06
3.6309569e-06
3.6317217e-06
3.6325478e-06
3.6334038e-06
3.6342685e-06
3.6351558e-06
3.6361023e-06
3.6370901e-06
3.6381034e-06
3.6392411e-06
3.6407203e-06
3.6426938e-06
3.6450553e-06
3.6474037e-06
3.6492784e-06
3.6504786e-06
3.6510954e-06
3.6513436e-06
3.6514055e-06
3.6513811e-06
3.651325e-06
3.6512485e-06
3.6511446e-06
3.6510147e-06
3.6508879e-06
3.6508114e-06
3.6508195e-06
3.6509187e-06
3.6510626e-06
3.6511908e-06
3.6512765e-06
3.6513269e-06
3.6513585e-06
3.6513829e-06
3.6514052e-06
3.6514269e-06
3.6514475e-06
3.6514664e-06
3.651483e-06
3.6514956e-06
3.6515059e-06
3.651515e-06
3.6515235e-06
3.6515286e-06
3.6515317e-06
3.6515353e-06
3.6515374e-06
3.6515412e-06
3.6515436e-06
3.6515478e-06
3.65155e-06
3.6515522e-06
3.6515541e-06
3.6515508e-06
3.6410832e-06
3.6371628e-06
3.6340629e-06
3.6318509e-06
3.6305102e-06
3.6299232e-06
3.6299251e-06
3.6303164e-06
3.630945e-06
3.6317054e-06
3.6325292e-06
3.6333847e-06
3.6342505e-06
3.6351412e-06
3.6360911e-06
3.6370815e-06
3.6380967e-06
3.6392357e-06
3.6407155e-06
3.6426897e-06
3.6450514e-06
3.6473992e-06
3.6492719e-06
3.6504691e-06
3.6510825e-06
3.6513273e-06
3.651386e-06
3.6513587e-06
3.6513001e-06
3.6512221e-06
3.6511181e-06
3.6509895e-06
3.6508655e-06
3.6507935e-06
3.650809e-06
3.6509163e-06
3.6510686e-06
3.6512051e-06
3.6512983e-06
3.6513551e-06
3.6513914e-06
3.6514185e-06
3.6514415e-06
3.6514619e-06
3.6514797e-06
3.6514947e-06