/*--------------------------------*- C++ -*----------------------------------*\
| =========                 |                                                 |
| \\      /  F ield         | OpenFOAM: The Open Source CFD Toolbox           |
|  \\    /   O peration     | Version:  2506                                  |
|   \\  /    A nd           | Website:  www.openfoam.com                      |
|    \\/     M anipulation  |                                                 |
\*---------------------------------------------------------------------------*/
FoamFile
{
    version     2.0;
    format      ascii;
    arch        "LSB;label=32;scalar=64";
    class       volScalarField;
    location    "2.25";
    object      p;
}
// * * * * * * * * * * * * * * * * * * * * * * * * * * * * * * * * * * * * * //

dimensions      [1 -1 -2 0 0 0 0];

internalField   nonuniform List<scalar> 
1375
(
47039.702
47038.993
47039.15
47039.492
47039.028
47039.042
47039.099
47039.371
47039.182
47038.46
47038.984
47039.073
47039.323
47039.418
47038.137
47038.469
47038.946
47039.08
47039.304
47039.625
47037.493
47038.235
47038.472
47038.933
47039.108
47039.319
47039.749
47036.821
47037.611
47038.324
47038.476
47038.952
47039.136
47039.368
47039.784
47035.956
47036.869
47037.698
47038.379
47038.484
47039.005
47039.164
47039.438
47039.77
47034.82
47036.034
47036.95
47037.765
47038.425
47038.477
47039.024
47039.193
47039.517
47039.738
47034.046
47034.948
47036.1
47037.029
47037.826
47038.472
47038.458
47039.01
47039.214
47039.577
47039.703
47033.404
47034.244
47035.08
47036.177
47037.105
47037.88
47038.51
47038.437
47039.005
47039.236
47039.629
47039.678
47032.169
47033.64
47034.433
47035.204
47036.261
47037.203
47037.938
47038.523
47038.424
47039.016
47039.245
47039.695
47039.661
47032.436
47033.873
47034.62
47035.316
47036.333
47037.291
47037.995
47038.529
47038.414
47039.043
47039.238
47039.75
47039.635
47030.6
47032.71
47034.101
47034.798
47035.421
47036.404
47037.387
47038.069
47038.527
47038.402
47039.076
47039.233
47039.776
47039.584
47029.658
47030.904
47032.99
47034.335
47034.964
47035.52
47036.475
47037.503
47038.181
47038.532
47038.406
47039.094
47039.237
47039.8
47039.513
47028.773
47030.159
47031.239
47033.288
47034.582
47035.128
47035.621
47036.547
47037.614
47038.245
47038.569
47038.405
47039.107
47039.243
47039.844
47039.439
47028.26
47028.677
47029.365
47030.679
47031.6
47033.602
47034.841
47035.301
47035.732
47036.626
47037.703
47038.251
47038.617
47038.392
47039.124
47039.248
47039.893
47039.366
47028.104
47029.352
47029.489
47030.005
47031.203
47031.99
47033.927
47035.106
47035.489
47035.854
47036.706
47037.762
47038.169
47038.683
47038.372
47039.145
47039.244
47039.93
47039.3
47027.95
47029.578
47030.425
47030.363
47030.71
47031.749
47032.409
47034.261
47035.373
47035.696
47035.986
47036.791
47037.845
47038.086
47038.712
47038.351
47039.174
47039.227
47039.962
47039.246
47026.44
47028.139
47029.994
47031.135
47031.54
47031.305
47031.47
47032.316
47032.845
47034.604
47035.645
47035.921
47036.13
47036.887
47037.913
47038.02
47038.745
47038.334
47039.212
47039.201
47040.001
47039.208
47050.216
47051.107
47052.523
47053.956
47055.215
47056.763
47058.432
47060.311
47062.723
47065.309
47068.388
47071.887
47075.371
47078.796
47082.785
47087.587
47094.558
47103.447
47114.857
47131.411
47147.696
47159.925
47168.401
47050.207
47051.08
47052.462
47053.9
47055.17
47056.699
47058.333
47060.193
47062.582
47065.13
47068.18
47071.61
47075.001
47078.404
47082.404
47087.404
47093.744
47102.653
47113.917
47127.985
47146.011
47159.367
47167.895
47050.196
47051.057
47052.43
47053.862
47055.141
47056.679
47058.278
47060.13
47062.487
47065.048
47068.099
47071.487
47074.761
47078.128
47082.363
47087.559
47093.73
47102.189
47112.542
47127.116
47144.207
47159.437
47169.058
47050.172
47051.016
47052.402
47053.825
47055.089
47056.629
47058.187
47060.003
47062.357
47064.86
47067.883
47071.215
47074.376
47077.5
47081.752
47086.62
47092.736
47101.729
47109.651
47125.759
47141.832
47157.93
47167.054
47050.152
47050.97
47052.362
47053.817
47055.009
47056.559
47058.125
47059.858
47062.265
47064.661
47067.705
47070.991
47074.055
47077.148
47081.427
47086.283
47092.218
47100.546
47108.54
47122.756
47139.008
47154.751
47162.026
47050.117
47050.903
47052.309
47053.789
47054.934
47056.459
47058.017
47059.714
47062.113
47064.443
47067.462
47070.657
47073.605
47076.539
47080.761
47085.684
47091.811
47098.985
47107.122
47119.883
47135.84
47150.7
47156.88
47050.062
47050.791
47052.309
47053.708
47054.882
47056.342
47057.856
47059.597
47061.917
47064.259
47067.183
47070.314
47073.194
47076.003
47080.11
47085
47091.113
47097.609
47105.232
47116.43
47132.443
47146.33
47151.876
47050.017
47050.722
47052.267
47053.601
47054.802
47056.21
47057.684
47059.462
47061.705
47064.008
47066.844
47069.904
47072.727
47075.421
47079.366
47084.156
47090.14
47096.248
47103.332
47113.059
47128.959
47142.233
47147.341
47049.961
47050.716
47052.132
47053.51
47054.711
47056.065
47057.501
47059.304
47061.49
47063.71
47066.441
47069.432
47072.213
47074.797
47078.525
47083.136
47088.85
47094.701
47101.355
47109.514
47124.398
47136.796
47139.319
47140.093
47049.878
47050.653
47052.031
47053.413
47054.601
47055.91
47057.302
47059.119
47061.259
47063.381
47065.959
47068.892
47071.646
47074.136
47077.637
47081.959
47087.227
47093.108
47099.384
47106.172
47119.091
47131.368
47134.369
47136.979
47049.802
47050.555
47051.918
47053.305
47054.486
47055.736
47057.081
47058.903
47061.014
47063.018
47065.394
47068.267
47070.991
47073.411
47076.732
47080.689
47085.322
47091.307
47097.301
47102.831
47113.109
47124.882
47132.152
47130.537
47050.434
47051.768
47053.198
47054.362
47055.538
47056.837
47058.646
47060.744
47062.627
47064.764
47067.55
47070.231
47072.601
47075.82
47079.344
47083.145
47089.048
47095.158
47099.805
47107.291
47116.749
47121.934
47127.279
47050.298
47051.582
47053.088
47054.216
47055.315
47056.568
47058.34
47060.424
47062.206
47064.098
47066.745
47069.327
47071.626
47074.842
47078.046
47080.819
47086.1
47092.742
47097.058
47102.075
47110.611
47114.726
47121.069
47050.154
47051.376
47052.95
47054.049
47055.068
47056.27
47057.987
47060.032
47061.734
47063.405
47065.872
47068.306
47070.469
47073.666
47076.908
47078.685
47082.582
47089.942
47094.245
47096.924
47105.471
47109.427
47111.353
47050.007
47051.148
47052.76
47053.854
47054.793
47055.942
47057.588
47059.563
47061.22
47062.668
47064.928
47067.225
47069.106
47072.042
47075.775
47077.231
47078.981
47086.581
47091.236
47092.8
47097.705
47102.286
47102.709
47049.856
47050.897
47052.507
47053.614
47054.491
47055.585
47057.137
47059.001
47060.662
47061.869
47063.819
47066.086
47067.738
47070.106
47074.14
47076.487
47076.869
47080.797
47087.142
47089.165
47089.721
47095.3
47096.361
47094.492
47049.706
47050.642
47052.192
47053.318
47054.155
47055.205
47056.631
47058.3
47059.98
47061.146
47062.492
47064.805
47066.742
47068.171
47071.484
47075.321
47076.317
47076.058
47080.571
47084.128
47084.565
47087.101
47088.413
47085.76
47049.548
47050.401
47051.823
47052.96
47053.754
47054.809
47056.089
47057.462
47059.049
47060.57
47061.312
47063.057
47065.674
47066.611
47068.366
47072.139
47074.071
47075.229
47075.47
47078.193
47078.331
47078.061
47079.673
47080.962
47049.362
47050.153
47051.42
47052.546
47053.3
47054.379
47055.505
47056.563
47057.952
47059.757
47060.711
47061.348
47063.515
47065.38
47065.832
47068.057
47070.256
47071.692
47072.489
47072.331
47073.4
47070.764
47072.092
47073.797
47071.385
47049.155
47049.863
47050.974
47052.105
47052.829
47053.819
47054.87
47055.792
47056.751
47058.334
47059.957
47060.464
47061.269
47063.423
47063.938
47064.637
47066.236
47066.809
47067.677
47067.804
47069.235
47066.073
47065.993
47067.019
47063.84
47048.931
47049.546
47050.473
47051.641
47052.446
47053.086
47054.018
47055.015
47055.691
47056.744
47058.606
47059.381
47059.799
47061.117
47061.66
47061.805
47062.407
47063.193
47062.901
47063.97
47063.88
47061.586
47062.235
47059.096
47055.126
47048.676
47049.235
47049.874
47051.019
47052.048
47052.445
47052.982
47054.332
47055.147
47055.341
47056.845
47058.343
47058.274
47058.671
47059.037
47059.368
47059.15
47059.61
47059.415
47060.621
47057.527
47056.677
47058.158
47053.062
47050.572
47050.045
47048.421
47048.858
47049.539
47050.312
47051.151
47051.957
47052.168
47053.172
47054.582
47054.716
47054.843
47056.045
47057.051
47056.329
47056.757
47057.139
47056.75
47055.793
47055.62
47056.084
47053.395
47053.464
47053.52
47049.052
47046.828
47044.253
47048.115
47048.241
47049.123
47049.881
47050.479
47051.116
47051.703
47051.981
47053.148
47054.132
47054.059
47053.881
47054.431
47054.646
47054.79
47054.905
47054.015
47052.463
47052.418
47052.378
47049.758
47049.368
47049.124
47045.378
47043.692
47040.053
47047.896
47047.721
47048.071
47049.435
47050.034
47049.961
47051.172
47051.579
47051.594
47052.493
47053.09
47052.802
47052.358
47052.48
47052.623
47053.05
47051.564
47049.88
47050.016
47048.264
47047.142
47047.293
47044.276
47041.945
47040.938
47037.013
47033.235
47047.55
47047.38
47048.249
47049.375
47049.427
47049.984
47050.681
47050.667
47050.936
47051.412
47051.446
47051.041
47050.949
47051.247
47050.353
47049.135
47048.733
47048.191
47046.059
47045.589
47043.751
47040.224
47039.537
47038.257
47035.286
47033.147
47047.158
47047.245
47047.226
47048.305
47048.842
47048.841
47049.268
47049.658
47049.857
47049.906
47049.972
47049.938
47050.145
47049.359
47047.459
47047.316
47047.742
47046.654
47045.208
47044.063
47041.188
47038.821
47037.594
47035.696
47033.49
47031.648
47029.368
47046.671
47046.921
47046.888
47046.941
47047.724
47048.243
47047.923
47048.333
47048.514
47048.39
47048.421
47048.585
47048.466
47047.371
47046.865
47047.268
47046.627
47044.974
47043.993
47043.126
47041.06
47039.186
47037.63
47035.494
47033.345
47031.208
47028.831
47045.955
47046.196
47046.168
47046.043
47046.65
47047.213
47047.154
47047.192
47046.977
47046.886
47046.902
47047.132
47046.651
47046.305
47046.48
47046.633
47045.488
47043.798
47042.455
47041.608
47040.122
47038.716
47037.516
47035.911
47034.25
47032.339
47030.26
47045.348
47045.256
47045.284
47045.455
47045.659
47045.873
47045.932
47046.012
47046.301
47046.169
47045.978
47045.373
47044.625
47044.65
47044.596
47044.328
47044.181
47043.239
47042.026
47041.276
47039.849
47038.466
47037.375
47035.898
47034.517
47033.05
47031.549
47045.065
47044.76
47044.813
47044.843
47044.693
47044.427
47044.555
47045.072
47045.032
47044.681
47044.61
47043.972
47043.83
47043.761
47043.333
47042.742
47042.27
47041.402
47040.727
47040.231
47039.27
47038.494
47037.559
47036.378
47035.239
47033.891
47032.572
47044.541
47044.391
47044.049
47043.885
47043.565
47043.575
47043.774
47043.199
47043.088
47043.376
47043.285
47043.147
47042.663
47041.989
47041.289
47040.458
47039.581
47039.132
47038.589
47037.963
47037.317
47036.389
47035.493
47034.545
47033.59
47032.641
47043.853
47043.787
47043.424
47043.217
47042.989
47042.862
47042.664
47042.123
47042.187
47041.942
47041.772
47041.824
47041.466
47040.778
47040.303
47039.585
47038.84
47038.206
47037.382
47036.652
47035.858
47035.075
47034.338
47033.604
47032.888
47032.139
47043.2
47043.185
47042.941
47042.868
47042.613
47042.39
47041.801
47041.521
47041.186
47040.7
47040.862
47040.514
47039.977
47039.872
47039.417
47038.771
47038.394
47037.807
47037.209
47036.612
47035.876
47035.2
47034.479
47033.755
47033.006
47032.249
47042.729
47042.592
47042.537
47042.463
47042.083
47041.627
47041.381
47040.898
47040.612
47040.219
47039.5
47039.038
47038.672
47038.085
47037.725
47037.351
47036.862
47036.563
47036.117
47035.644
47035.128
47034.562
47034.008
47033.435
47032.888
47042.391
47042.205
47042.089
47041.837
47041.639
47041.674
47041.353
47040.894
47040.797
47040.383
47039.8
47039.417
47038.912
47038.301
47037.894
47037.444
47037.025
47036.628
47036.123
47035.656
47035.146
47034.644
47034.17
47033.71
47033.287
47041.786
47041.791
47041.694
47041.583
47041.554
47041.203
47040.814
47040.656
47040.533
47040.112
47039.754
47039.507
47039.128
47038.856
47038.659
47038.362
47038.089
47037.73
47037.301
47036.898
47036.458
47036.067
47035.686
47035.31
47034.963
47041.166
47041.09
47041.102
47040.976
47040.766
47040.574
47040.434
47040.157
47039.855
47039.605
47039.332
47039.061
47038.863
47038.622
47038.381
47038.138
47037.817
47037.541
47037.249
47036.958
47036.691
47036.418
47036.167
47035.909
47040.596
47040.426
47040.312
47040.214
47039.964
47039.736
47039.715
47039.582
47039.417
47039.232
47038.968
47038.755
47038.584
47038.348
47038.12
47037.906
47037.686
47037.5
47037.306
47037.093
47036.875
47036.641
47036.399
47036.159
47040.369
47040.244
47039.979
47039.759
47039.709
47039.526
47039.254
47039.101
47038.885
47038.663
47038.565
47038.401
47038.233
47038.053
47037.822
47037.613
47037.418
47037.215
47037.021
47036.823
47036.628
47036.448
47036.283
47040.128
47040.025
47039.898
47039.693
47039.428
47039.334
47039.223
47039.018
47038.89
47038.743
47038.555
47038.409
47038.29
47038.165
47038.022
47037.853
47037.685
47037.521
47037.364
47037.222
47037.095
47036.987
47040.435
47040.151
47040.012
47039.883
47039.691
47039.565
47039.441
47039.324
47039.24
47039.154
47039.048
47038.956
47038.882
47038.806
47038.714
47038.608
47038.506
47038.414
47038.334
47038.232
47038.106
47037.996
47040.058
47040.043
47039.819
47039.608
47039.485
47039.363
47039.297
47039.229
47039.123
47039.032
47038.947
47038.862
47038.771
47038.639
47038.505
47038.384
47038.274
47038.161
47038.047
47037.965
47037.953
47040.149
47040.088
47039.997
47039.87
47039.791
47039.706
47039.563
47039.428
47039.306
47039.183
47039.108
47039.065
47039.047
47039
47038.936
47038.896
47038.863
47038.831
47038.805
47038.776
47039.682
47039.647
47039.668
47039.622
47039.495
47039.407
47039.396
47039.289
47039.151
47039.05
47038.942
47038.828
47038.736
47038.657
47038.578
47038.504
47038.431
47038.366
47038.33
47039.836
47039.84
47039.847
47039.859
47039.837
47039.768
47039.705
47039.656
47039.625
47039.584
47039.52
47039.448
47039.389
47039.34
47039.306
47039.287
47039.257
47039.242
47039.248
47039.288
47039.337
47039.363
47039.372
47039.371
47039.375
47039.362
47039.325
47039.284
47039.246
47039.212
47039.189
47039.169
47039.173
47039.794
47039.818
47039.857
47039.904
47039.942
47039.966
47039.996
47040.013
47040.025
47040.048
47040.086
47040.068
47040.051
47040.041
47038.91
47038.928
47038.96
47039.001
47039.047
47039.093
47039.133
47039.16
47039.175
47039.179
47039.181
47039.186
)
;

boundaryField
{
    Side
    {
        type            empty;
    }
    Inlet
    {
        type            totalPressure;
        rho             rho;
        psi             none;
        gamma           1;
        p0              uniform 50000;
        value           nonuniform List<scalar> 
32
(
47040.354
47040.302
47040.263
47040.234
47040.201
47040.172
47040.161
47040.169
47040.193
47040.224
47040.258
47040.294
47040.328
47040.357
47040.382
47040.403
47040.419
47040.432
47040.444
47040.456
47040.627
47040.601
47040.582
47040.569
47040.56
47040.551
47040.542
47040.531
47040.519
47040.502
47040.485
47040.469
)
;
    }
    Airfoil
    {
        type            zeroGradient;
    }
    Outlet
    {
        type            fixedValue;
        value           nonuniform List<scalar> 0();
    }
    procBoundary2to1
    {
        type            processor;
        value           nonuniform List<scalar> 
75
(
47039.868
47039.053
47039.228
47039.228
47039.12
47039.12
47038.453
47038.453
47038.026
47038.026
47037.352
47037.352
47036.788
47036.788
47035.867
47035.867
47034.709
47034.709
47033.838
47033.838
47033.174
47033.174
47031.909
47031.909
47030.041
47030.312
47030.312
47029.164
47029.164
47028.18
47028.18
47027.139
47027.87
47027.87
47026.613
47026.613
47026.135
47026.135
47024.019
47025.85
47025.85
47026.842
47026.842
47176.868
47171.731
47164.823
47158.518
47156.454
47155.066
47150.052
47143.316
47143.316
47161.424
47153.778
47142.744
47138.112
47127.388
47116.73
47106.252
47106.252
47098.75
47087.526
47076.944
47076.944
47069.665
47061.595
47055.727
47055.727
47044.069
47036.882
47034.002
47034.002
47030.219
47030.231
47030.231
)
;
    }
    procBoundary2to3
    {
        type            processor;
        value           nonuniform List<scalar> 
65
(
47049.59
47049.589
47049.581
47049.541
47049.502
47049.455
47049.403
47049.35
47049.276
47049.194
47049.724
47049.724
47049.641
47049.549
47049.447
47049.335
47049.212
47049.075
47048.915
47048.725
47048.492
47048.208
47047.908
47047.59
47047.201
47047.441
47047.441
47046.772
47046.258
47045.701
47045.486
47044.984
47044.423
47044.423
47043.81
47043.289
47042.897
47042.897
47042.602
47041.883
47041.081
47041.081
47040.754
47040.551
47040.551
47040.254
47040.254
47040.58
47040.076
47040.076
47040.199
47040.199
47039.694
47039.694
47039.787
47039.812
47039.812
47039.256
47039.256
47039.78
47039.782
47039.782
47038.913
47038.905
47038.905
)
;
    }
    procBoundary2to9
    {
        type            processor;
        value           nonuniform List<scalar> 
23
(
47050.217
47051.113
47052.534
47053.971
47055.214
47056.751
47058.451
47060.353
47062.787
47065.308
47068.399
47071.892
47075.473
47078.855
47082.617
47087.471
47094.802
47104.06
47115.503
47129.864
47146.175
47158.477
47169.053
)
;
    }
    procBoundary2to10
    {
        type            processor;
        value           uniform 47049.613;
    }
}


// ************************************************************************* //
