/*--------------------------------*- C++ -*----------------------------------*\
| =========                 |                                                 |
| \\      /  F ield         | OpenFOAM: The Open Source CFD Toolbox           |
|  \\    /   O peration     | Version:  2506                                  |
|   \\  /    A nd           | Website:  www.openfoam.com                      |
|    \\/     M anipulation  |                                                 |
\*---------------------------------------------------------------------------*/
FoamFile
{
    version     2.0;
    format      ascii;
    arch        "LSB;label=32;scalar=64";
    class       volVectorField;
    location    "2.25";
    object      U;
}
// * * * * * * * * * * * * * * * * * * * * * * * * * * * * * * * * * * * * * //

dimensions      [0 1 -1 0 0 0 0];

internalField   nonuniform List<vector> 
1375
(
(94.364663 0.0054956984 -5.6863903e-17)
(94.396013 0.068147237 6.0320564e-21)
(94.36493 0.05935973 0)
(94.365903 0.0042732189 3.5162545e-22)
(94.393486 0.07781846 -5.146021e-17)
(94.364887 0.026216617 -7.984567e-17)
(94.3634 0.05995781 0)
(94.36714 0.0021093192 6.1302057e-17)
(94.391437 0.089187669 -6.4674489e-21)
(94.37156 0.035557067 0)
(94.36467 0.026574416 8.147696e-17)
(94.361002 0.059068001 3.5497755e-20)
(94.368554 0.0011075984 6.3779862e-17)
(94.39075 0.09289105 -5.5455744e-17)
(94.375716 0.01249152 -1.3825718e-24)
(94.373301 0.034769488 9.7459732e-17)
(94.365014 0.025470082 -8.4689498e-17)
(94.358438 0.060743936 0)
(94.369623 0.0013486181 -1.3292837e-16)
(94.390953 0.093328862 1.1426571e-16)
(94.392228 0.033460989 1.2995972e-16)
(94.375425 0.01001348 -1.1009229e-19)
(94.375285 0.037628873 9.7734309e-20)
(94.366166 0.025751738 0)
(94.356869 0.062699684 0)
(94.370251 0.0021508808 6.9445236e-17)
(94.391754 0.092090189 1.4618408e-20)
(94.404055 0.035079411 -7.4866396e-17)
(94.389982 0.034886062 -6.7178264e-17)
(94.375517 0.0073642025 -1.1341872e-19)
(94.37526 0.042225291 -1.0208597e-16)
(94.367616 0.019623929 9.2451231e-17)
(94.355925 0.062897263 -7.991243e-20)
(94.37035 0.0051306964 0)
(94.392977 0.087681779 0)
(94.418938 0.042261732 0)
(94.402764 0.037120415 7.6858893e-17)
(94.388543 0.034719426 1.3472846e-19)
(94.375831 0.0072873408 0)
(94.375282 0.045117758 0)
(94.368715 0.01394062 -1.9206258e-16)
(94.355512 0.062846329 -8.3559082e-17)
(94.370104 0.0063134438 -1.7877698e-20)
(94.394494 0.080883313 1.3036282e-16)
(94.435623 0.046594481 7.529758e-19)
(94.417918 0.043101646 -6.9004171e-19)
(94.401202 0.039003786 3.0866329e-19)
(94.387276 0.034201335 0)
(94.375666 0.011892552 1.2329799e-16)
(94.375586 0.047192301 1.1008389e-16)
(94.369119 0.01407701 9.777537e-17)
(94.355532 0.062880955 8.527409e-17)
(94.369758 0.0069205428 1.5356204e-16)
(94.396162 0.073498425 -1.3571414e-16)
(94.444991 0.048528185 4.4211496e-19)
(94.435424 0.047601293 -3.8511893e-19)
(94.416819 0.046591048 9.0490194e-17)
(94.399683 0.040605806 0)
(94.3858 0.033551546 1.4414354e-16)
(94.375479 0.013697534 -1.2681926e-16)
(94.375838 0.049339536 1.488694e-22)
(94.368955 0.01417421 0)
(94.355703 0.063056476 -4.3653044e-20)
(94.369363 0.007106667 -1.591334e-16)
(94.397851 0.065163042 -1.4132815e-16)
(94.4571 0.055884256 6.3635604e-17)
(94.443464 0.053831457 -1.1475357e-16)
(94.434412 0.049602603 1.0176218e-16)
(94.415657 0.050172017 -9.2196058e-17)
(94.398205 0.040342371 0)
(94.384155 0.032552375 -1.4775055e-16)
(94.375677 0.016991073 -5.1146543e-19)
(94.375769 0.049988784 2.254615e-19)
(94.368846 0.014505216 -1.0294851e-19)
(94.355861 0.062989991 -9.3211043e-17)
(94.368721 0.0070296202 -1.6473813e-16)
(94.399302 0.057705606 1.4777123e-16)
(94.468677 0.074053206 -7.0460648e-17)
(94.452371 0.065594273 -5.0089325e-19)
(94.441434 0.057485669 1.1554444e-16)
(94.432612 0.054370399 -1.0349145e-16)
(94.414349 0.0526597 -9.3180005e-17)
(94.396571 0.040446558 8.3747197e-17)
(94.382776 0.034422768 2.9623089e-19)
(94.375772 0.022720951 -5.3631559e-19)
(94.375558 0.051397229 -1.1930007e-16)
(94.368772 0.015186448 1.0779692e-16)
(94.356029 0.062990845 9.6151766e-17)
(94.367713 0.0069800388 1.7114818e-16)
(94.399927 0.054616414 0)
(94.463098 0.081419534 -5.56257e-19)
(94.447695 0.074697285 -1.2850684e-16)
(94.438636 0.062664488 0)
(94.4302 0.060176755 1.049012e-16)
(94.412852 0.053982491 9.4809166e-17)
(94.39474 0.040952956 -8.5874553e-17)
(94.381761 0.036890606 1.5444024e-16)
(94.375797 0.026291425 1.3819241e-16)
(94.375137 0.050348214 1.2323348e-16)
(94.368667 0.015581246 -1.1032105e-16)
(94.356302 0.06285249 1.9807812e-16)
(94.366596 0.0071456427 -8.6882228e-20)
(94.399972 0.054266615 0)
(94.480692 0.099681862 -1.2279675e-18)
(94.457748 0.090207544 1.116437e-18)
(94.443292 0.081215353 1.2976117e-16)
(94.435224 0.069112943 0)
(94.427238 0.066772267 -1.0577376e-16)
(94.411128 0.054509096 9.5731358e-17)
(94.392867 0.04179839 0)
(94.380714 0.041243562 3.0708629e-19)
(94.375737 0.028842384 -2.7627577e-16)
(94.374622 0.053825873 -1.2715232e-16)
(94.368462 0.016075643 1.1071496e-19)
(94.356706 0.062971968 -2.0481154e-16)
(94.365572 0.0076881352 0)
(94.399871 0.054119911 0)
(94.498585 0.12506832 1.3397511e-18)
(94.474877 0.1049059 1.5672552e-16)
(94.452707 0.097908273 0)
(94.439058 0.086282972 0)
(94.431653 0.075837131 0)
(94.423827 0.072633905 0)
(94.409103 0.055024551 -9.719868e-17)
(94.391072 0.045129625 3.4531978e-19)
(94.379669 0.043833671 -1.6056551e-16)
(94.375278 0.032719618 -1.0480272e-22)
(94.374011 0.052633006 -2.5095042e-19)
(94.368045 0.016570056 2.2812622e-19)
(94.357233 0.062861858 0)
(94.364557 0.0080451687 -4.661758e-20)
(94.399673 0.055000724 1.6923422e-16)
(94.513017 0.17844977 0)
(94.489432 0.13454788 0)
(94.46925 0.11222461 -7.6644834e-17)
(94.447906 0.10373192 -1.1120485e-18)
(94.434878 0.091818777 0)
(94.428285 0.082999215 0)
(94.420189 0.077591955 0)
(94.406746 0.056373515 -3.8308033e-19)
(94.389332 0.047429295 1.7922979e-16)
(94.378821 0.04621883 -3.181142e-19)
(94.374513 0.035462551 2.9313807e-16)
(94.374111 0.051070298 2.5578021e-19)
(94.367414 0.017480879 0)
(94.357864 0.062788846 0)
(94.36356 0.0086874786 0)
(94.399386 0.055994822 -6.1564173e-23)
(94.557153 0.24707051 5.5949481e-17)
(94.526925 0.21947862 -3.1163972e-18)
(94.501342 0.16821409 1.4312734e-18)
(94.479694 0.14049615 -8.3978579e-17)
(94.46357 0.12025998 0)
(94.443122 0.10934586 -7.0585682e-17)
(94.430717 0.095301683 -1.0100871e-18)
(94.425185 0.087576838 1.1931189e-16)
(94.416565 0.080999391 0)
(94.404114 0.057666363 9.8624363e-17)
(94.387648 0.050998058 -1.8043456e-16)
(94.378081 0.04953129 0)
(94.373548 0.038014366 -1.4925584e-16)
(94.374302 0.052524311 -1.3328909e-16)
(94.366722 0.018360314 1.2369536e-16)
(94.358512 0.062958903 -2.2504739e-16)
(94.362694 0.0085342961 2.0459272e-16)
(94.398998 0.0578982 4.4694415e-20)
(94.559462 0.31187836 1.1671603e-16)
(94.540129 0.25535716 -1.6508766e-18)
(94.513998 0.22461287 -1.5207803e-18)
(94.489839 0.18164686 -8.8256444e-17)
(94.470073 0.15224551 -9.3587452e-22)
(94.457355 0.12402785 -7.6824783e-17)
(94.438314 0.11243469 1.4042309e-16)
(94.426543 0.10314686 0)
(94.422138 0.092561934 -1.1746752e-16)
(94.413079 0.082639231 -1.07857e-16)
(94.401301 0.061227717 -1.9673714e-16)
(94.386052 0.052065347 -1.8185675e-16)
(94.377397 0.050480721 0)
(94.372381 0.039297106 -2.9569004e-19)
(94.37406 0.053460517 2.7103019e-16)
(94.366117 0.019046854 -1.2646568e-16)
(94.359144 0.063163903 2.3092719e-16)
(94.361936 0.0088827295 -2.1133516e-16)
(94.398491 0.060002755 -3.8133827e-16)
(94.561152 0.37176779 6.0045068e-17)
(94.537899 0.32209812 1.769945e-21)
(94.522651 0.26775226 -5.4389752e-17)
(94.500257 0.22982737 9.73765e-17)
(94.478251 0.18516193 1.7446654e-16)
(94.460691 0.1607391 8.0499417e-17)
(94.449935 0.13568934 7.3980768e-17)
(94.433401 0.11807384 -1.3667287e-16)
(94.422311 0.10409136 0)
(94.418894 0.094714958 0)
(94.409666 0.084580154 1.0606347e-16)
(94.398396 0.063374384 7.6824506e-19)
(94.384409 0.054645925 1.8096238e-16)
(94.376754 0.054442951 0)
(94.371142 0.040371746 0)
(94.373389 0.05440973 -1.3928091e-16)
(94.365477 0.019251926 0)
(94.359798 0.062130617 0)
(94.361274 0.0086559061 5.3225422e-20)
(94.397864 0.062966642 3.960842e-16)
(94.552658 0.50145952 3.2933819e-17)
(94.544131 0.44857956 -6.1042869e-17)
(94.535266 0.36577031 -3.5264054e-18)
(94.515769 0.32575752 -1.0127363e-16)
(94.50476 0.26718439 -5.1388724e-17)
(94.485777 0.22836806 -1.7610955e-16)
(94.466975 0.18737131 -8.2915233e-17)
(94.451635 0.16727572 0)
(94.441412 0.13920797 -7.0853906e-17)
(94.42823 0.12012186 1.3119359e-16)
(94.417912 0.11508929 9.4958769e-19)
(94.415308 0.10028779 1.1140599e-16)
(94.406207 0.084922014 -8.1236824e-19)
(94.395496 0.06755412 9.7028501e-17)
(94.38271 0.055148149 -1.7736603e-16)
(94.375997 0.057382479 -1.651306e-16)
(94.369711 0.040539669 -5.940511e-19)
(94.372592 0.055863122 5.5388345e-19)
(94.364573 0.019499891 -1.2974023e-16)
(94.360351 0.063588362 -2.4231652e-16)
(94.360706 0.0086396912 2.2414638e-16)
(94.397176 0.065810346 -1.8008022e-22)
(89.530941 0.0063511735 -1.2531021e-18)
(89.328412 -0.0003604072 1.3160427e-18)
(89.118092 0.011287172 0)
(88.894305 0.03153583 0)
(88.666352 0.053180128 -1.523436e-18)
(88.44024 0.068418969 1.6001831e-18)
(88.211898 0.06601979 0)
(87.959381 0.048620787 0)
(87.653404 0.029437752 -1.852879e-18)
(87.308101 0.028684189 1.943944e-18)
(86.977155 0.04573677 -2.041601e-18)
(86.681827 0.09184199 2.1467746e-18)
(86.388594 0.13803134 2.2576059e-18)
(86.009785 0.11397028 -2.3684009e-18)
(85.494199 0.034287647 2.4816229e-18)
(84.970363 -0.014270225 -2.604179e-18)
(84.554773 0.022210485 2.7412501e-18)
(84.175467 0.14596504 -2.88558e-18)
(83.688785 0.31664143 3.0299779e-18)
(82.947816 0.28088636 -3.1687696e-18)
(82.103683 0.14987345 0)
(81.486928 0.15889197 0)
(81.076665 0.25182807 0)
(90.616011 0.016876796 0)
(90.527234 0.01228438 0)
(90.448078 0.021672976 0)
(90.372396 0.041276981 -1.3419276e-18)
(90.315695 0.059467011 1.4087538e-18)
(90.281613 0.071042422 2.9677046e-18)
(90.256568 0.071778294 1.3138322e-22)
(90.212251 0.061456625 -6.5573359e-18)
(90.112846 0.044313731 6.8443337e-18)
(90.014364 0.02866803 -3.5658385e-18)
(89.980805 0.029420623 0)
(89.987161 0.068196601 0)
(90.011144 0.11302639 0)
(89.986598 0.11365188 0)
(89.815943 0.036970309 0)
(89.705233 -0.043845518 0)
(89.72478 -0.06548464 0)
(89.855813 0.045126684 0)
(89.884205 0.16529333 -5.5355282e-18)
(89.716951 0.24159834 5.8281623e-18)
(89.530987 0.094380976 0)
(89.502337 0.0076237681 6.387111e-18)
(89.629823 0.07899608 -1.3423562e-17)
(92.10214 0.024950617 2.1454467e-18)
(92.118874 0.011921149 -2.2634936e-18)
(92.148354 0.022994154 0)
(92.175157 0.04084677 0)
(92.215487 0.058068001 0)
(92.287802 0.070548801 0)
(92.380067 0.068488055 0)
(92.445438 0.061084372 0)
(92.466869 0.052754687 -3.1779103e-18)
(92.471222 0.041407605 3.3683988e-18)
(92.48817 0.035091936 0)
(92.551245 0.073375229 0)
(92.61831 0.1279842 0)
(92.644602 0.13602215 0)
(92.626846 0.080653332 0)
(92.567256 -0.0017173448 4.4560163e-18)
(92.549106 -0.034067004 -4.7368158e-18)
(92.521952 0.060405904 -4.9671268e-18)
(92.385431 0.283328 5.1634998e-18)
(92.246321 0.33819255 0)
(92.147477 0.20940823 -5.7033782e-18)
(92.084342 0.09597377 6.0348081e-18)
(91.983982 0.15555368 0)
(93.23784 0.016831591 0)
(93.280355 0.0082448846 -2.0927472e-18)
(93.319204 0.015553524 -3.9683902e-23)
(93.350746 0.035099169 2.3116744e-18)
(93.386271 0.048544904 0)
(93.440013 0.053898209 0)
(93.511203 0.055196454 0)
(93.564291 0.051165863 0)
(93.579787 0.044717994 0)
(93.567033 0.029447018 0)
(93.526588 0.021403004 0)
(93.51168 0.047982072 0)
(93.510804 0.098501536 0)
(93.51355 0.12677376 0)
(93.502654 0.074319595 0)
(93.439683 -0.013870641 0)
(93.321675 -0.045928714 0)
(93.146692 0.040798854 -4.5488625e-18)
(92.974622 0.22805709 4.7626277e-18)
(92.856658 0.33374565 0)
(92.77441 0.27021308 0)
(92.665835 0.22041467 0)
(92.426555 0.20440397 0)
(93.819481 0.015070547 0)
(93.843602 0.0026963083 0)
(93.857776 0.013938465 0)
(93.862847 0.029631113 0)
(93.868166 0.042430173 0)
(93.884026 0.052791096 -2.3592297e-18)
(93.918239 0.049328414 2.4582904e-18)
(93.945098 0.049114042 0)
(93.948884 0.048974092 0)
(93.89784 0.043218884 -2.8608144e-18)
(93.818233 0.038054203 5.9838081e-18)
(93.765789 0.062841913 -6.267183e-18)
(93.73332 0.11288117 3.2868161e-18)
(93.720854 0.1325834 -3.4879344e-18)
(93.713462 0.10196861 3.6898314e-18)
(93.65723 0.046430807 0)
(93.490864 0.010703066 0)
(93.270534 0.068922839 4.1996274e-18)
(93.086667 0.25545749 -4.3965179e-18)
(92.980635 0.33900389 0)
(92.918145 0.3034181 0)
(92.788679 0.37244501 0)
(92.472488 0.29453757 5.3549025e-18)
(94.064445 0.01097968 -3.8720861e-23)
(94.07061 0.0031771758 3.5907624e-18)
(94.069569 0.011168451 -1.8933464e-18)
(94.052627 0.032859354 -1.9678334e-18)
(94.040913 0.043880322 2.0543012e-18)
(94.04012 0.046301275 0)
(94.052783 0.045950301 0)
(94.065616 0.046496595 0)
(94.061127 0.051589209 0)
(93.988235 0.052296797 0)
(93.905116 0.044456367 0)
(93.845939 0.062896951 0)
(93.802419 0.11138106 0)
(93.780595 0.13692605 0)
(93.769676 0.10966093 0)
(93.717816 0.060133044 7.1322998e-18)
(93.542906 0.04535386 -1.4869899e-17)
(93.315251 0.11287671 -1.5123796e-21)
(93.137449 0.28543431 -1.7537717e-21)
(93.042531 0.36875307 8.6021006e-18)
(92.994647 0.34603352 -9.1288101e-18)
(92.86898 0.47627468 -2.1525533e-21)
(92.523993 0.50372188 -1.9740659e-21)
(94.161746 0.015425654 -1.5846036e-18)
(94.160543 -0.00055690809 0)
(94.145735 0.01359692 0)
(94.120979 0.033496772 0)
(94.100454 0.043533482 3.8149001e-18)
(94.093517 0.04742808 -4.0253277e-18)
(94.096372 0.044711713 0)
(94.10294 0.046102702 0)
(94.090146 0.058841106 0)
(94.012841 0.067351588 0)
(93.938098 0.060844629 0)
(93.884099 0.072304135 0)
(93.839134 0.11378278 0)
(93.808103 0.14087508 0)
(93.787526 0.11839694 6.3066439e-18)
(93.727665 0.096653236 -6.5967376e-18)
(93.554708 0.098864063 0)
(93.341558 0.13311344 7.1859053e-18)
(93.181933 0.2881141 -7.5192938e-18)
(93.09879 0.3625049 0)
(93.057696 0.3459198 0)
(92.927896 0.53392064 8.7966953e-18)
(92.585679 0.55092164 -9.1209928e-18)
(94.197153 0.011896386 7.1052948e-23)
(94.189503 0.0044592632 -6.191803e-18)
(94.170849 0.014410958 6.4828642e-18)
(94.144592 0.036146256 -3.3925051e-18)
(94.120983 0.04572247 3.5447091e-18)
(94.108659 0.046784184 -3.7022042e-18)
(94.107052 0.04403063 0)
(94.109447 0.045322557 0)
(94.089779 0.067850678 0)
(94.019172 0.080567607 0)
(93.954209 0.072988743 0)
(93.90733 0.080028775 0)
(93.863795 0.12163237 0)
(93.821757 0.15246221 5.5249818e-18)
(93.785427 0.13245675 5.7191439e-22)
(93.714411 0.12947459 -6.1016848e-18)
(93.553409 0.15517902 0)
(93.363329 0.18028269 0)
(93.221586 0.31942402 -6.9638853e-18)
(93.14559 0.39163834 7.3767051e-18)
(93.10825 0.37770253 0)
(92.985857 0.62919364 0)
(92.658306 0.68747124 8.4312862e-18)
(94.20491 0.015007992 0)
(94.194548 0.0039869148 2.8679597e-18)
(94.174466 0.016982395 -6.0080655e-18)
(94.150134 0.039742023 6.2967263e-18)
(94.128301 0.047857089 9.0573612e-23)
(94.111765 0.048509986 -3.4573972e-18)
(94.103731 0.044185087 0)
(94.099145 0.046090133 -3.8531065e-18)
(94.078157 0.07646823 -2.1214047e-22)
(94.019973 0.092285059 4.2061762e-18)
(93.961045 0.083055739 0)
(93.91873 0.088922493 0)
(93.876749 0.12492989 -4.8730197e-18)
(93.823698 0.1669371 5.1165215e-18)
(93.769516 0.14969204 -5.3841995e-18)
(93.689801 0.1595639 5.643131e-18)
(93.550334 0.19915339 -5.8988348e-18)
(93.394417 0.2083341 1.2340518e-17)
(93.270461 0.32986881 1.1591023e-21)
(93.18997 0.40750605 -6.8276848e-18)
(93.143135 0.40357402 -7.2340795e-18)
(93.028074 0.65226714 7.5327582e-18)
(92.734178 0.7402894 0)
(92.538817 0.69727989 -8.2671023e-18)
(94.201562 0.016617047 0)
(94.188902 0.0069157112 0)
(94.167727 0.019187937 2.7840804e-18)
(94.146415 0.04254728 -5.8434942e-18)
(94.128205 0.050528796 3.0654814e-18)
(94.109349 0.050731657 0)
(94.094193 0.046867356 3.3793038e-18)
(94.083215 0.049118006 -3.5613212e-18)
(94.065124 0.080505011 -3.7347422e-18)
(94.018243 0.10391634 3.902258e-18)
(93.961395 0.095020553 0)
(93.918816 0.098714886 0)
(93.876339 0.13291167 0)
(93.815696 0.18578803 -4.7382955e-18)
(93.749993 0.17414251 -4.3498296e-22)
(93.671978 0.19134879 1.0444501e-17)
(93.561142 0.2418006 -5.4689115e-18)
(93.438535 0.24021668 0)
(93.320839 0.34908035 -5.9938523e-18)
(93.221023 0.43785325 -8.6238431e-22)
(93.163506 0.44675751 6.6821016e-18)
(93.085877 0.70755096 0)
(92.826667 0.89062346 7.2328643e-18)
(92.630581 0.75855964 -7.6352814e-18)
(94.193649 0.018872224 0)
(94.178717 0.0095421599 0)
(94.156346 0.021719248 0)
(94.137495 0.044876016 0)
(94.123181 0.053094019 0)
(94.104011 0.053789145 0)
(94.082617 0.050229066 0)
(94.06706 0.052253849 0)
(94.052146 0.085176605 -6.9306673e-18)
(94.014755 0.11329235 7.2441003e-18)
(93.957057 0.10764087 0)
(93.910422 0.10985831 -7.9781594e-18)
(93.866525 0.13985758 -5.8667087e-22)
(93.804101 0.20395398 1.7548289e-17)
(93.736966 0.19456151 7.6229446e-22)
(93.670016 0.21222092 9.9617924e-22)
(93.586714 0.27369507 1.1764103e-21)
(93.487346 0.26954175 -1.0642151e-17)
(93.364784 0.36701567 0)
(93.236888 0.46250542 0)
(93.174532 0.46630855 0)
(93.155431 0.66291009 -1.3032822e-17)
(92.952181 0.99741027 1.3421967e-17)
(92.725588 0.80309158 0)
(94.167545 0.012838566 0)
(94.143864 0.024358589 0)
(94.126239 0.046943801 -5.0293057e-18)
(94.115044 0.055431789 5.2907001e-18)
(94.097615 0.057691784 0)
(94.07168 0.054932664 -5.7970492e-18)
(94.052371 0.055834197 1.220885e-17)
(94.038992 0.088881307 -1.2860057e-17)
(94.008306 0.12261002 6.7235528e-18)
(93.948486 0.12275369 0)
(93.898132 0.12531615 0)
(93.857476 0.14955713 0)
(93.802204 0.22562659 0)
(93.739297 0.2226376 0)
(93.679427 0.23595048 0)
(93.610021 0.30646122 0)
(93.52649 0.311042 0)
(93.412056 0.3990819 0)
(93.277834 0.5153166 0)
(93.211833 0.54107345 -1.1360737e-17)
(93.20914 0.71179022 1.2120329e-17)
(93.070394 0.9496337 0)
(92.836785 0.99039478 0)
(94.157632 0.016772928 -4.2392131e-18)
(94.132832 0.027136882 0)
(94.115206 0.048976041 -4.6635584e-18)
(94.105867 0.057524352 -1.0525658e-22)
(94.091722 0.061857095 1.0289981e-17)
(94.063267 0.060762249 -1.075399e-17)
(94.039714 0.060113007 5.6556608e-18)
(94.025345 0.092661041 0)
(93.998787 0.13047233 0)
(93.938989 0.138142 6.5122908e-18)
(93.888886 0.13995726 -6.8431417e-18)
(93.856706 0.15242922 7.2049854e-18)
(93.814015 0.23666477 -7.5517597e-18)
(93.753069 0.24316241 0)
(93.687214 0.24565838 0)
(93.618553 0.3223344 0)
(93.555659 0.34974114 0)
(93.478311 0.42635305 9.5691646e-18)
(93.357413 0.53103804 1.3681467e-21)
(93.279324 0.5596839 -1.053002e-17)
(93.26065 0.70079047 0)
(93.15259 1.0016056 0)
(92.965725 1.0179899 0)
(94.150142 0.021371409 0)
(94.124949 0.030178735 4.1156941e-18)
(94.106715 0.051135646 -4.3232846e-18)
(94.098181 0.059394739 0)
(94.087868 0.065981519 0)
(94.05888 0.067632071 0)
(94.030032 0.065536968 0)
(94.012987 0.097578737 0)
(93.99064 0.13702377 0)
(93.936076 0.15326449 0)
(93.886171 0.15660566 0)
(93.856802 0.15824257 0)
(93.821463 0.2500063 0)
(93.767553 0.28061172 0)
(93.704177 0.27697139 0)
(93.635498 0.34719914 0)
(93.590575 0.37467908 0)
(93.566059 0.43880245 0)
(93.461681 0.56718031 0)
(93.330816 0.59253459 0)
(93.283903 0.65635841 0)
(93.245751 1.0785878 0)
(93.107316 1.1217568 0)
(94.145535 0.026306332 0)
(94.121307 0.033386483 0)
(94.102752 0.053390682 0)
(94.094355 0.061148835 0)
(94.087384 0.070247773 0)
(94.060276 0.076169127 4.6353586e-18)
(94.025748 0.072838519 -4.8552438e-18)
(94.004904 0.10383833 -1.0234548e-17)
(93.986064 0.14189842 2.1488695e-17)
(93.9408 0.16668052 -2.2421854e-17)
(93.892179 0.17435306 1.1757143e-17)
(93.862831 0.16289037 0)
(93.830005 0.25065677 0)
(93.785554 0.30059713 0)
(93.739198 0.28730348 1.4259038e-17)
(93.671949 0.35376859 -1.481355e-17)
(93.616782 0.39733938 -1.5610184e-17)
(93.606112 0.42632639 1.6639631e-17)
(93.57778 0.587142 0)
(93.410765 0.71765977 0)
(93.320963 0.68480069 0)
(93.310528 0.82400614 2.0112312e-17)
(93.271779 1.2914005 -2.0612623e-17)
(94.144139 0.031141794 -3.3927404e-18)
(94.122777 0.037070521 -7.0956538e-18)
(94.105271 0.055638687 -1.1213096e-22)
(94.096917 0.062469074 1.568629e-17)
(94.09251 0.073627015 2.0531112e-22)
(94.069629 0.085363016 -8.6142977e-18)
(94.027903 0.078280434 0)
(94.000843 0.1103364 0)
(93.983832 0.14655178 0)
(93.951744 0.17808981 0)
(93.910945 0.194472 0)
(93.884789 0.17371066 0)
(93.850192 0.25642516 0)
(93.797356 0.32850649 1.2558882e-17)
(93.764107 0.31920849 -1.3245479e-17)
(93.732799 0.36804352 -1.3850294e-17)
(93.666873 0.43167453 -8.2455331e-22)
(93.632301 0.45716776 1.52325e-17)
(93.626903 0.56692947 -1.6129238e-17)
(93.523554 0.73540308 -1.8763545e-21)
(93.423113 0.81096301 3.4223694e-17)
(93.404937 0.91653562 -3.5675412e-17)
(93.420648 1.0430716 3.7592347e-17)
(93.370938 1.2300405 -1.9673902e-17)
(94.14732 0.035567922 -6.3014231e-18)
(94.130374 0.040430374 -1.2113036e-22)
(94.114775 0.057281955 6.9033366e-18)
(94.105222 0.063762678 0)
(94.100522 0.076199425 0)
(94.083684 0.096756673 -8.0077679e-18)
(94.03766 0.09224998 1.6695817e-17)
(94.003434 0.12257091 -1.754004e-17)
(93.987731 0.14851228 1.8488227e-17)
(93.967134 0.17832604 4.0140043e-22)
(93.92944 0.20301359 -1.0098623e-17)
(93.905328 0.18268157 0)
(93.886264 0.25571024 0)
(93.832554 0.3536856 1.157245e-17)
(93.795409 0.33039488 2.9851309e-22)
(93.788456 0.33570184 -1.2962745e-17)
(93.744146 0.44145852 1.3403912e-17)
(93.67099 0.49447901 -1.4017095e-17)
(93.648035 0.56247675 1.4859821e-17)
(93.618393 0.75487739 -1.5436166e-17)
(93.555102 0.77590113 -1.5866596e-17)
(93.538445 0.87259335 3.3020055e-17)
(93.539391 1.0802217 1.334698e-22)
(93.528026 1.2505984 -1.8164156e-17)
(94.156453 0.039652697 -5.853723e-18)
(94.143573 0.043354994 1.2265789e-17)
(94.129357 0.059747404 1.0077233e-22)
(94.117065 0.066412289 -6.7419924e-18)
(94.109548 0.081127705 0)
(94.098636 0.10613634 0)
(94.059595 0.09790207 0)
(94.021203 0.12927943 0)
(94.005438 0.15528642 0)
(93.99237 0.18658244 0)
(93.950636 0.21871669 0)
(93.924255 0.20736479 9.8424239e-18)
(93.922233 0.25080961 -1.0449102e-17)
(93.898661 0.35051879 0)
(93.835748 0.37586655 0)
(93.813396 0.35432614 -1.1929583e-17)
(93.800021 0.4252088 1.2509133e-17)
(93.743364 0.5301807 1.2915975e-17)
(93.709467 0.5497798 -1.3651154e-17)
(93.700912 0.6814808 0)
(93.677281 0.86037909 0)
(93.662981 0.84210506 -1.5604744e-17)
(93.670096 0.97814907 1.6570945e-17)
(93.690672 1.2288188 0)
(94.169935 0.042566365 5.4393629e-18)
(94.158522 0.0452966 0)
(94.144332 0.061089359 0)
(94.130236 0.066071592 0)
(94.120929 0.081710999 0)
(94.115173 0.11431028 0)
(94.08995 0.11645673 -7.2129684e-18)
(94.046264 0.14454697 7.514442e-18)
(94.02546 0.16178602 -7.931784e-18)
(94.019252 0.17256274 1.6742167e-17)
(93.995931 0.23537359 -8.6993984e-18)
(93.955921 0.21458693 9.0260435e-18)
(93.940977 0.23616729 -9.5762179e-18)
(93.939238 0.33685084 0)
(93.904017 0.42827559 -1.0474632e-17)
(93.85898 0.37851625 1.0960466e-17)
(93.842718 0.40420816 1.1588097e-17)
(93.824093 0.54703967 -1.2048262e-17)
(93.789079 0.62405269 1.2410475e-17)
(93.78114 0.67309968 -3.9180499e-23)
(93.799604 0.77424192 4.1520258e-22)
(93.794343 0.83766377 1.2068466e-22)
(93.774824 0.90964436 -1.4981724e-17)
(93.807584 1.1936644 0)
(93.832204 1.1976424 0)
(94.183993 0.04736355 0)
(94.172485 0.049601763 0)
(94.157862 0.067789045 0)
(94.143823 0.071413324 1.1596804e-17)
(94.133271 0.085776926 -1.2194532e-17)
(94.128352 0.11348228 0)
(94.117437 0.12113598 0)
(94.075871 0.155228 1.3956854e-17)
(94.047476 0.17825051 2.5386668e-22)
(94.041165 0.19155844 -1.5457191e-17)
(94.039603 0.2139649 0)
(93.994187 0.2512692 -1.6751259e-17)
(93.965361 0.27155655 -1.0949123e-22)
(93.965524 0.32786767 -4.1811863e-22)
(93.966444 0.37019095 -9.7224188e-22)
(93.913735 0.42187629 -4.2096821e-22)
(93.891815 0.42648076 2.1361464e-17)
(93.891679 0.49098673 2.2374665e-17)
(93.892588 0.56918049 5.6417615e-22)
(93.883834 0.6730256 -2.3925557e-17)
(93.883598 0.76762253 2.5307728e-17)
(93.875844 0.82278635 -2.0155898e-22)
(93.870979 0.92082226 -1.1640551e-21)
(93.92622 1.1171654 -5.7596324e-17)
(93.939778 1.1410668 2.9909136e-17)
(94.195889 0.050054747 0)
(94.185431 0.05027852 -9.8404098e-18)
(94.172564 0.069281358 2.062104e-17)
(94.160475 0.070665109 -1.0804434e-17)
(94.147546 0.084936294 1.1313526e-17)
(94.136198 0.12096167 1.9585756e-22)
(94.126985 0.1310325 -1.2487797e-17)
(94.100971 0.16827983 0)
(94.072078 0.17987162 -1.3487552e-17)
(94.064601 0.19610245 2.8148686e-17)
(94.066498 0.21593188 3.3623193e-22)
(94.040622 0.24295914 4.0305179e-22)
(94.004068 0.27000789 -1.6287189e-17)
(93.992728 0.30474221 0)
(93.98942 0.38924301 1.8184726e-17)
(93.978063 0.47893763 -1.8912057e-17)
(93.964897 0.41666411 0)
(93.95447 0.49622453 0)
(93.950332 0.53213684 2.1528823e-17)
(93.95836 0.68851087 -2.2597467e-17)
(93.973539 0.73341696 0)
(93.974953 0.78948701 0)
(93.979432 0.86387649 0)
(94.003131 0.9296718 0)
(94.001721 1.0218649 0)
(94.204617 0.054332693 8.7332036e-18)
(94.195693 0.056106494 -1.8289862e-17)
(94.184631 0.076334144 9.5856089e-18)
(94.174812 0.077411915 -1.0061807e-17)
(94.161916 0.082063654 1.0520579e-17)
(94.142673 0.12117318 0)
(94.130264 0.13040495 1.155984e-17)
(94.122324 0.17082853 -1.2130913e-17)
(94.106789 0.20245433 0)
(94.092101 0.1940282 -1.3272598e-17)
(94.0846 0.21723479 1.4000011e-17)
(94.07192 0.26470968 0)
(94.038862 0.29135925 0)
(94.023478 0.32627839 0)
(94.0265 0.36855393 0)
(94.03026 0.3982496 0)
(94.023935 0.42143473 0)
(94.01763 0.48524495 0)
(94.008873 0.52413882 2.0016466e-17)
(94.018145 0.60882627 -2.1037307e-17)
(94.056355 0.68955119 0)
(94.062216 0.74583877 0)
(94.061857 0.8407165 0)
(94.078689 0.96895512 0)
(94.099512 0.66806823 -2.6765855e-17)
(94.192871 1.3234638 5.5088451e-17)
(94.212034 0.055988441 0)
(94.205808 0.051406517 8.5130373e-18)
(94.196025 0.078276361 -8.9124293e-18)
(94.185352 0.082975478 0)
(94.173125 0.088587098 -9.7820177e-18)
(94.155375 0.13887251 -1.7672868e-22)
(94.141026 0.14573547 1.0605728e-17)
(94.137091 0.159846 0)
(94.137384 0.17593726 -1.1696039e-17)
(94.123381 0.21312983 2.4622083e-17)
(94.102297 0.23228416 -2.5772767e-17)
(94.092775 0.24459378 2.7094074e-17)
(94.079519 0.28973864 1.7430224e-22)
(94.065226 0.31606315 -1.4616557e-17)
(94.062421 0.3506472 0)
(94.061501 0.44336644 -1.5999943e-17)
(94.066298 0.42844017 9.2824956e-23)
(94.068321 0.45484129 1.7372039e-17)
(94.064051 0.50607314 0)
(94.084863 0.63471281 0)
(94.104592 0.58124875 0)
(94.114419 0.71178592 0)
(94.15637 0.79523875 0)
(94.178705 0.80482872 0)
(94.182633 0.7539563 2.4779508e-17)
(94.279283 1.0194256 -2.5387933e-17)
(94.217367 0.057698421 7.5510019e-18)
(94.212813 0.058363332 -7.9264905e-18)
(94.204991 0.085605009 0)
(94.193102 0.08855345 0)
(94.181378 0.08645242 0)
(94.172148 0.12116095 9.5232794e-18)
(94.164651 0.14311793 -9.9840344e-18)
(94.153367 0.18397918 2.0809773e-17)
(94.141426 0.19136942 -2.1754622e-17)
(94.136844 0.19215486 2.2930262e-17)
(94.133187 0.25738393 -2.4081301e-17)
(94.125757 0.26645925 -2.5187409e-17)
(94.115146 0.270144 2.6203142e-17)
(94.097939 0.33216496 2.7082312e-17)
(94.091954 0.33595271 -5.6829951e-17)
(94.106294 0.40232372 2.972086e-17)
(94.116201 0.41558101 0)
(94.115722 0.4382176 3.2939818e-17)
(94.116319 0.48742522 -3.4671102e-17)
(94.146352 0.56053555 0)
(94.155061 0.56984494 -3.8142802e-17)
(94.16545 0.65674283 3.9549031e-17)
(94.222794 0.71449608 0)
(94.236957 0.69929585 0)
(94.238934 0.70809318 0)
(94.329333 0.9531065 -4.6927617e-17)
(94.222716 0.059627091 -7.0146586e-18)
(94.219191 0.053589663 1.4751753e-17)
(94.214593 0.081587963 -3.0898951e-17)
(94.204442 0.092634163 -1.0849972e-22)
(94.192349 0.097847083 3.3738351e-17)
(94.178915 0.13564913 -1.7582696e-17)
(94.171494 0.13432124 0)
(94.169604 0.16343699 0)
(94.163017 0.20724035 0)
(94.157031 0.20077985 0)
(94.155633 0.2100612 0)
(94.150362 0.27563152 0)
(94.14379 0.26731723 0)
(94.137965 0.33968736 -2.5243361e-17)
(94.132061 0.32674197 5.2888857e-17)
(94.142254 0.38509834 -2.7705724e-17)
(94.156737 0.39594829 -2.9167103e-17)
(94.157704 0.416462 3.1017051e-17)
(94.167804 0.49149051 3.1851973e-17)
(94.197535 0.51149169 -3.3177744e-17)
(94.20178 0.50535806 3.5387933e-17)
(94.20927 0.61204776 -3.6692934e-17)
(94.257556 0.62696963 0)
(94.277184 0.60062643 0)
(94.298639 0.75290147 0)
(94.369685 0.74665326 -4.3503055e-17)
(94.43651 0.78618127 4.5508582e-17)
(94.22377 0.061413106 -1.349862e-22)
(94.222154 0.083663367 1.4397324e-17)
(94.212829 0.097046889 0)
(94.20332 0.088428045 0)
(94.19508 0.13664164 -1.6401741e-17)
(94.184029 0.15719413 1.7019597e-17)
(94.180932 0.16273852 0)
(94.182511 0.17829383 0)
(94.176978 0.22135736 0)
(94.171897 0.22837711 0)
(94.175652 0.25926973 0)
(94.179276 0.28392995 0)
(94.176714 0.30352304 -2.3506078e-17)
(94.170971 0.31568329 4.8895442e-17)
(94.182573 0.36536408 -2.5556266e-17)
(94.192036 0.36633923 0)
(94.191136 0.38108286 0)
(94.213322 0.46375314 0)
(94.240751 0.46637221 0)
(94.243915 0.47471724 0)
(94.246187 0.52089198 0)
(94.286998 0.6095589 3.524421e-17)
(94.313806 0.52314736 -3.7111238e-17)
(94.345711 0.62188072 -3.8693726e-17)
(94.40387 0.67666906 8.0339114e-17)
(94.456907 0.6612361 -2.5507423e-21)
(94.230807 0.064780661 -2.5189707e-17)
(94.231102 0.07572798 1.3268803e-17)
(94.221408 0.10014327 0)
(94.209336 0.10956146 0)
(94.206763 0.11690664 0)
(94.206592 0.1402539 1.6080802e-17)
(94.200364 0.17617422 -3.3239444e-17)
(94.197243 0.18074921 1.729664e-17)
(94.1966 0.20291318 -1.8034058e-17)
(94.196495 0.21763795 1.897468e-17)
(94.201465 0.24336813 0)
(94.204804 0.25897165 0)
(94.202048 0.29293226 -2.1747794e-17)
(94.208838 0.357205 2.2873629e-17)
(94.218747 0.33102741 -2.3825477e-17)
(94.222707 0.36181726 2.5254766e-17)
(94.225857 0.38302788 0)
(94.252997 0.40219559 -2.6911965e-17)
(94.265039 0.41378764 2.7867493e-17)
(94.264639 0.44655384 0)
(94.289067 0.49937801 -3.1171504e-17)
(94.327726 0.49680751 6.4207832e-22)
(94.344214 0.50272632 3.4392976e-17)
(94.373329 0.57798744 -3.5745201e-17)
(94.427511 0.5445995 2.2663794e-21)
(94.475857 0.59459683 3.8753339e-17)
(94.518226 0.55437067 0)
(94.235057 0.069273103 0)
(94.234853 0.080003993 1.2270177e-17)