/*--------------------------------*- C++ -*----------------------------------*\
| =========                 |                                                 |
| \\      /  F ield         | OpenFOAM: The Open Source CFD Toolbox           |
|  \\    /   O peration     | Version:  2506                                  |
|   \\  /    A nd           | Website:  www.openfoam.com                      |
|    \\/     M anipulation  |                                                 |
\*---------------------------------------------------------------------------*/
FoamFile
{
    version     2.0;
    format      ascii;
    arch        "LSB;label=32;scalar=64";
    class       volScalarField;
    location    "0.0045";
    object      omega;
}
// * * * * * * * * * * * * * * * * * * * * * * * * * * * * * * * * * * * * * //

dimensions      [0 0 -1 0 0 0 0];

internalField   nonuniform List<scalar> 
13761
(
16646.139
16646.126
16646.126
16646.126
16646.126
16646.126
16646.127
16646.145
16646.133
16646.414
16651.731
16646.137
16646.126
16646.126
16646.126
16646.126
16646.126
16646.127
16646.145
16646.134
16646.414
16651.723
16646.132
16646.126
16646.126
16646.126
16646.126
16646.126
16646.127
16646.145
16646.134
16646.414
16651.719
16646.146
16646.126
16646.126
16646.126
16646.126
16646.126
16646.126
16646.127
16646.145
16646.134
16646.414
16651.716
16646.141
16646.126
16646.126
16646.126
16646.126
16646.126
16646.126
16646.127
16646.145
16646.133
16646.414
16651.714
16646.135
16646.126
16646.126
16646.126
16646.126
16646.126
16646.126
16646.127
16646.145
16646.133
16646.414
16651.714
16646.152
16646.126
16646.126
16646.126
16646.126
16646.126
16646.126
16646.126
16646.127
16646.145
16646.133
16646.414
16651.716
16646.146
16646.126
16646.126
16646.126
16646.126
16646.126
16646.126
16646.126
16646.127
16646.145
16646.133
16646.414
16651.724
16646.137
16646.126
16646.126
16646.126
16646.126
16646.126
16646.126
16646.126
16646.127
16646.145
16646.133
16646.415
16651.741
16646.166
16646.126
16646.126
16646.126
16646.126
16646.126
16646.126
16646.126
16646.126
16646.127
16646.145
16646.133
16646.416
16651.776
16646.159
16646.126
16646.126
16646.126
16646.126
16646.126
16646.126
16646.126
16646.126
16646.127
16646.145
16646.133
16646.42
16651.837
16646.151
16646.126
16646.126
16646.126
16646.126
16646.126
16646.126
16646.126
16646.126
16646.127
16646.145
16646.133
16646.427
16651.936
16646.14
16646.126
16646.126
16646.126
16646.126
16646.126
16646.126
16646.126
16646.126
16646.127
16646.145
16646.134
16646.441
16652.079
16646.167
16646.126
16646.126
16646.126
16646.126
16646.126
16646.126
16646.126
16646.126
16646.126
16646.127
16646.145
16646.135
16646.469
16652.265
16646.157
16646.126
16646.126
16646.126
16646.126
16646.126
16646.126
16646.126
16646.126
16646.126
16646.127
16646.145
16646.137
16646.517
16652.489
16646.143
16646.126
16646.126
16646.126
16646.126
16646.126
16646.126
16646.126
16646.126
16646.126
16646.127
16646.145
16646.142
16646.596
16652.735
16646.176
16646.126
16646.126
16646.126
16646.126
16646.126
16646.126
16646.126
16646.126
16646.126
16646.126
16646.127
16646.145
16646.153
16646.713
16653.004
16646.163
16646.126
16646.126
16646.126
16646.126
16646.126
16646.126
16646.126
16646.126
16646.126
16646.126
16646.127
16646.146
16646.173
16646.872
16653.32
16646.147
16646.126
16646.126
16646.126
16646.126
16646.126
16646.126
16646.126
16646.126
16646.126
16646.127
16646.127
16646.146
16646.21
16647.071
16653.737
16646.184
16646.126
16646.126
16646.126
16646.126
16646.126
16646.126
16646.126
16646.126
16646.126
16646.126
16646.127
16646.127
16646.148
16646.271
16647.296
16654.323
16646.169
16646.126
16646.126
16646.126
16646.126
16646.126
16646.126
16646.126
16646.126
16646.126
16646.126
16646.127
16646.127
16646.152
16646.365
16647.538
16655.114
16646.15
16646.126
16646.126
16646.126
16646.126
16646.126
16646.126
16646.126
16646.126
16646.126
16646.126
16646.127
16646.127
16646.16
16646.498
16647.8
16646.176
16646.126
16646.126
16646.126
16646.126
16646.126
16646.126
16646.126
16646.126
16646.126
16646.126
16646.126
16646.127
16646.127
16646.175
16646.671
16648.112
16646.154
16646.126
16646.126
16646.126
16646.126
16646.126
16646.126
16646.126
16646.126
16646.126
16646.126
16646.126
16646.127
16646.127
16646.202
16646.875
16648.531
16646.205
16646.127
16646.126
16646.126
16646.126
16646.126
16646.126
16646.126
16646.126
16646.126
16646.126
16646.126
16646.126
16646.127
16646.129
16646.248
16647.098
16649.112
16646.184
16646.126
16646.126
16646.126
16646.126
16646.126
16646.126
16646.126
16646.126
16646.126
16646.126
16646.126
16646.126
16646.127
16646.131
16646.322
16647.332
16649.886
16646.158
16646.126
16646.126
16646.126
16646.126
16646.126
16646.126
16646.126
16646.126
16646.126
16646.126
16646.126
16646.126
16646.127
16646.136
16646.431
16647.587
16646.214
16646.127
16646.126
16646.126
16646.126
16646.126
16646.126
16646.126
16646.126
16646.126
16646.126
16646.126
16646.126
16646.126
16646.127
16646.147
16646.577
16647.897
16646.19
16646.126
16646.126
16646.126
16646.126
16646.126
16646.126
16646.126
16646.126
16646.126
16646.126
16646.126
16646.126
16646.126
16646.128
16646.167
16646.758
16648.316
16646.161
16646.126
16646.126
16646.126
16646.126
16646.126
16646.126
16646.126
16646.126
16646.126
16646.126
16646.126
16646.126
16646.126
16646.13
16646.202
16646.965
16648.894
16646.184
16646.124
16646.126
16646.126
16646.126
16646.126
16646.126
16646.126
16646.126
16646.126
16646.126
16646.126
16646.126
16646.126
16646.126
16646.133
16646.258
16647.183
16649.647
16646.15
16646.124
16646.126
16646.126
16646.126
16646.126
16646.126
16646.126
16646.126
16646.126
16646.126
16646.126
16646.126
16646.126
16646.126
16646.141
16646.344
16647.41
16646.106
16646.108
16646.124
16646.126
16646.126
16646.126
16646.126
16646.126
16646.126
16646.126
16646.126
16646.126
16646.126
16646.126
16646.126
16646.126
16646.155
16646.466
16647.658
16646.067
16646.108
16646.124
16646.126
16646.126
16646.126
16646.126
16646.126
16646.126
16646.126
16646.126
16646.126
16646.126
16646.126
16646.126
16646.127
16646.181
16646.623
16647.968
16645.745
16646.02
16646.108
16646.124
16646.126
16646.126
16646.126
16646.126
16646.126
16646.126
16646.126
16646.126
16646.126
16646.126
16646.126
16646.126
16646.128
16646.223
16646.81
16648.389
16645.709
16646.019
16646.108
16646.123
16646.126
16646.126
16646.126
16646.126
16646.126
16646.126
16646.126
16646.126
16646.126
16646.126
16646.126
16646.126
16646.13
16646.29
16647.016
16648.961
16645.665
16646.018
16646.107
16646.123
16646.126
16646.126
16646.126
16646.126
16646.126
16646.126
16646.126
16646.126
16646.126
16646.126
16646.126
16646.126
16646.136
16646.388
16647.228
16649.697
16644.231
16645.611
16646.018
16646.107
16646.123
16646.126
16646.126
16646.126
16646.126
16646.126
16646.126
16646.126
16646.126
16646.126
16646.126
16646.126
16646.127
16646.145
16646.521
16647.448
16644.18
16645.61
16646.018
16646.107
16646.123
16646.126
16646.126
16646.126
16646.126
16646.126
16646.126
16646.126
16646.126
16646.126
16646.126
16646.126
16646.127
16646.164
16646.687
16647.692
16640.222
16644.118
16645.608
16646.017
16646.107
16646.123
16646.126
16646.126
16646.126
16646.126
16646.126
16646.126
16646.126
16646.126
16646.126
16646.126
16646.126
16646.129
16646.195
16646.877
16648.002
16640.165
16644.114
16645.607
16646.017
16646.107
16646.123
16646.126
16646.126
16646.126
16646.126
16646.126
16646.126
16646.126
16646.126
16646.126
16646.126
16646.126
16646.132
16646.245
16647.08
16648.425
16631.982
16640.098
16644.11
16645.606
16646.017
16646.107
16646.123
16646.126
16646.126
16646.126
16646.126
16646.126
16646.126
16646.126
16646.126
16646.126
16646.126
16646.126
16646.139
16646.322
16647.286
16648.992
16618.779
16631.918
16640.091
16644.107
16645.605
16646.017
16646.107
16646.123
16646.126
16646.126
16646.126
16646.126
16646.126
16646.126
16646.126
16646.126
16646.126
16646.126
16646.126
16646.152
16646.431
16647.499
16649.711
16618.738
16631.913
16640.086
16644.104
16645.604
16646.016
16646.107
16646.123
16646.126
16646.126
16646.126
16646.126
16646.126
16646.126
16646.126
16646.126
16646.126
16646.126
16646.127
16646.174
16646.573
16647.74
16602.611
16618.689
16631.908
16640.081
16644.101
16645.603
16646.016
16646.107
16646.123
16646.126
16646.126
16646.126
16646.126
16646.126
16646.126
16646.126
16646.126
16646.126
16646.126
16646.128
16646.212
16646.745
16648.052
16602.602
16618.696
16631.905
16640.076
16644.098
16645.602
16646.016
16646.107
16646.123
16646.126
16646.126
16646.126
16646.126
16646.126
16646.126
16646.126
16646.126
16646.126
16646.126
16646.13
16646.271
16646.936
16648.476
16590.752
16602.589
16618.704
16631.903
16640.072
16644.096
16645.602
16646.016
16646.107
16646.123
16646.126
16646.126
16646.126
16646.126
16646.126
16646.126
16646.126
16646.126
16646.126
16646.126
16646.134
16646.357
16647.135
16649.04
16595.878
16590.787
16602.622
16618.714
16631.901
16640.068
16644.093
16645.601
16646.016
16646.107
16646.123
16646.126
16646.126
16646.126
16646.126
16646.126
16646.126
16646.126
16646.126
16646.126
16646.126
16646.143
16646.475
16647.335
16649.743
16595.89
16590.844
16602.657
16618.725
16631.899
16640.064
16644.091
16645.6
16646.016
16646.107
16646.123
16646.126
16646.126
16646.126
16646.126
16646.126
16646.126
16646.126
16646.126
16646.126
16646.127
16646.158
16646.625
16647.542
16630.62
16595.912
16590.909
16602.696
16618.738
16631.899
16640.061
16644.089
16645.599
16646.015
16646.107
16646.123
16646.126
16646.126
16646.126
16646.126
16646.126
16646.126
16646.126
16646.126
16646.126
16646.129
16646.185
16646.801
16647.783
16691.616
16630.437
16595.962
16590.98
16602.737
16618.752
16631.899
16640.058
16644.087
16645.599
16646.015
16646.107
16646.123
16646.126
16646.126
16646.126
16646.126
16646.126
16646.126
16646.126
16646.126
16646.126
16646.131
16646.229
16646.992
16648.096
16738.532
16690.99
16630.293
16596.022
16591.057
16602.781
16618.767
16631.9
16640.055
16644.085
16645.598
16646.015
16646.107
16646.123
16646.126
16646.126
16646.126
16646.126
16646.126
16646.126
16646.126
16646.126
16646.126
16646.137
16646.295
16647.186
16648.522
16716.519
16737.732
16690.422
16630.158
16596.092
16591.139
16602.828
16618.783
16631.902
16640.053
16644.083
16645.598
16646.015
16646.107
16646.123
16646.126
16646.126
16646.126
16646.126
16646.126
16646.126
16646.126
16646.126
16646.126
16646.148
16646.39
16647.379
16649.08
16663.473
16716.651
16736.957
16689.84
16630.034
16596.173
16591.228
16602.878
16618.801
16631.905
16640.051
16644.082
16645.597
16646.015
16646.107
16646.123
16646.126
16646.126
16646.126
16646.126
16646.126
16646.126
16646.126
16646.126
16646.127
16646.166
16646.517
16647.582
16649.769
16656.915
16664.208
16716.824
16736.103
16689.247
16629.919
16596.264
16591.322
16602.931
16618.821
16631.908
16640.05
16644.081
16645.597
16646.015
16646.107
16646.123
16646.126
16646.126
16646.126
16646.126
16646.126
16646.126
16646.126
16646.126
16646.127
16646.198
16646.673
16647.822
16669.502
16657.003
16665.082
16716.928
16735.177
16688.642
16629.815
16596.365
16591.422
16602.987
16618.842
16631.913
16640.049
16644.079
16645.597
16646.015
16646.107
16646.123
16646.126
16646.126
16646.126
16646.126
16646.126
16646.126
16646.126
16646.126
16646.129
16646.248
16646.851
16648.139
16659.168
16668.693
16657.281
16665.999
16716.96
16734.183
16688.025
16629.721
16596.475
16591.528
16603.046
16618.865
16631.918
16640.049
16644.079
16645.596
16646.015
16646.107
16646.123
16646.126
16646.126
16646.126
16646.126
16646.126
16646.126
16646.126
16646.126
16646.133
16646.322
16647.04
16648.566
16657.598
16658.928
16668.011
16657.646
16666.954
16716.914
16733.125
16687.397
16629.636
16596.595
16591.64
16603.108
16618.889
16631.925
16640.049
16644.078
16645.596
16646.015
16646.107
16646.123
16646.126
16646.126
16646.126
16646.126
16646.126
16646.126
16646.126
16646.126
16646.14
16646.425
16647.23
16649.12
16651.909
16657.851
16657.877
16658.786
16667.338
16658.102
16667.944
16716.784
16732.008
16686.757
16629.561
16596.724
16591.758
16603.173
16618.915
16631.932
16640.05
16644.077
16645.596
16646.015
16646.107
16646.123
16646.126
16646.126
16646.126
16646.126
16646.126
16646.126
16646.126
16646.127
16646.152
16646.558
16647.418
16649.797
16653.997
16651.493
16657.797
16658.307
16658.614
16666.676
16658.652
16668.965
16716.566
16730.836
16686.105
16629.496
16596.862
16591.881
16603.241
16618.943
16631.94
16640.051
16644.077
16645.596
16646.015
16646.107
16646.123
16646.126
16646.126
16646.126
16646.126
16646.126
16646.126
16646.126
16646.128
16646.174
16646.719
16647.618
16651.928
16652.369
16653.951
16651.217
16657.772
16658.746
16658.408
16666.032
16659.299
16670.012
16716.256
16729.613
16685.443
16629.439
16597.008
16592.009
16603.312
16618.972
16631.949
16640.052
16644.077
16645.596
16646.015
16646.107
16646.123
16646.126
16646.126
16646.126
16646.126
16646.126
16646.126
16646.126
16646.13
16646.21
16646.898
16647.858
16674.175
16664.709
16658.579
16651.622
16652.322
16654.063
16650.936
16657.773
16659.193
16658.165
16665.411
16660.043
16671.08
16715.85
16728.339
16684.77
16629.391
16597.164
16592.144
16603.386
16619.003
16631.959
16640.054
16644.077
16645.595
16646.015
16646.107
16646.123
16646.126
16646.126
16646.126
16646.126
16646.126
16646.126
16646.126
16646.135
16646.265
16647.084
16648.177
16679.615
16680.761
16673.858
16664.61
16658.57
16651.49
16652.291
16654.172
16650.65
16657.801
16659.644
16657.884
16664.819
16660.885
16672.164
16715.348
16727.02
16684.087
16629.351
16597.327
16592.284
16603.463
16619.036
16631.97
16640.057
16644.077
16645.595
16646.015
16646.107
16646.123
16646.126
16646.126
16646.126
16646.126
16646.126
16646.126
16646.127
16646.143
16646.346
16647.268
16648.605
16612.855
16637.277
16654.641
16669.543
16679.258
16680.652
16673.732
16664.529
16658.566
16651.358
16652.271
16654.276
16650.359
16657.857
16660.097
16657.563
16664.263
16661.826
16673.258
16714.748
16725.655
16683.395
16629.318
16597.499
16592.43
16603.544
16619.071
16631.982
16640.06
16644.077
16645.596
16646.015
16646.107
16646.123
16646.126
16646.126
16646.126
16646.126
16646.126
16646.126
16646.127
16646.158
16646.456
16647.451
16649.154
16385.465
16455.591
16505.752
16545.318
16579.662
16612.416
16637.091
16654.471
16669.352
16679.114
16680.553
16673.603
16664.46
16658.56
16651.227
16652.263
16654.372
16650.067
16657.943
16660.547
16657.202
16663.748
16662.864
16674.356
16714.052
16724.247
16682.695
16629.292
16597.679
16592.581
16603.627
16619.108
16631.996
16640.063
16644.078
16645.596
16646.015
16646.107
16646.123
16646.126
16646.126
16646.126
16646.126
16646.126
16646.126
16646.129
16646.183
16646.595
16647.649
16649.819
16233.202
16057.606
15925.124
15972.367
16085.596
16135.445
16185.063
16283.963
16385.11
16455.401
16505.519
16545.072
16579.426
16612.224
16636.928
16654.306
16669.168
16678.977
16680.454
16673.473
16664.403
16658.551
16651.098
16652.268
16654.46
16649.776
16658.06
16660.991
16656.8
16663.281
16663.999
16675.452
16713.262
16722.797
16681.986
16629.272
16597.867
16592.738
16603.714
16619.147
16632.01
16640.067
16644.078
16645.596
16646.015
16646.107
16646.123
16646.126
16646.126
16646.126
16646.126
16646.126
16646.126
16646.131
16646.223
16646.759
16647.891
16400.288
16353.446
16321.105
16300.213
16299.719
16316.534
16352.524
16439.122
16520.975
16491.673
16444.323
16505.299
16557.861
16429.479
16167.199
15965.517
15918.097
15989.056
16097.762
16244.231
16423.326
16562.711
16618.888
16609.096
16560.369
16454.627
16406.827
16501.839
16582.132
16508.061
16383.08
16315.335
16232.947
16057.71
15925.047
15972.303
16085.734
16135.595
16185.031
16283.851
16384.988
16455.231
16505.31
16544.864
16579.227
16612.052
16636.775
16654.142
16668.989
16678.848
16680.355
16673.341
16664.359
16658.537
16650.971
16652.287
16654.537
16649.489
16658.209
16661.423
16656.358
16662.869
16665.229
16676.539
16712.382
16721.307
16681.271
16629.259
16598.062
16592.9
16603.804
16619.188
16632.025
16640.072
16644.079
16645.596
16646.015
16646.107
16646.123
16646.126
16646.126
16646.126
16646.126
16646.126
16646.127
16646.137
16646.285
16646.939
16648.214
16592.375
16398.761
16352.923
16320.699
16299.842
16299.402
16316.231
16352.093
16438.625
16520.699
16491.383
16443.725
16504.76
16557.714
16429.493
16167.1
15965.338
15917.93
15989.03
16097.711
16243.979
16423.008
16562.399
16618.447
16608.614
16559.999
16454.248
16406.203
16501.202
16581.79
16507.74
16382.669
16315.05
16232.97
16057.872
15925.019
15972.262
16085.884
16135.761
16185.013
16283.75
16384.877
16455.08
16505.132
16544.693
16579.056
16611.895
16636.626
16653.977
16668.819
16678.727
16680.253
16673.209
16664.328
16658.516
16650.848
16652.319
16654.601
16649.208
16658.392
16661.841
16655.875
16662.519
16666.55
16677.609
16711.414
16719.778
16680.549
16629.251
16598.264
16593.067
16603.898
16619.23
16632.041
16640.077
16644.08
16645.596
16646.015
16646.107
16646.123
16646.126
16646.126
16646.126
16646.126
16646.126
16646.128
16646.146
16646.372
16647.122
16648.644
28784.026
18247.17
16585.233
16397.627
16352.47
16320.343
16299.514
16299.121
16315.962
16351.693
16438.144
16520.434
16491.136
16443.184
16504.246
16557.582
16429.559
16167.09
15965.243
15917.815
15989.032
16097.679
16243.742
16422.696
16562.101
16618.033
16608.172
16559.672
16453.926
16405.626
16500.586
16581.47
16507.462
16382.307
16314.806
16233.03
16058.079
15925.028
15972.235
16086.036
16135.939
16185.007
16283.66
16384.785
16454.959
16504.99
16544.557
16578.909
16611.747
16636.479
16653.813
16668.66
16678.612
16680.146
16673.08
16664.309
16658.487
16650.729
16652.365
16654.65
16648.937
16658.608
16662.238
16655.353
16662.237
16667.96
16678.656
16710.364
16718.211
16679.821
16629.248
16598.474
16593.24
16603.994
16619.275
16632.059
16640.082
16644.082
16645.596
16646.015
16646.107
16646.123
16646.126
16646.126
16646.126
16646.126
16646.126
16646.129
16646.164
16646.488
16647.303
16649.19
44392.434
49843.397
28688.523
18208.647
16579.252
16396.669
16352.093
16320.048
16299.237
16298.881
16315.73
16351.326
16437.674
16520.175
16490.939
16442.705
16503.755
16557.459
16429.688
16167.188
15965.247
15917.757
15989.056
16097.66
16243.511
16422.383
16561.809
16617.638
16607.766
16559.382
16453.657
16405.095
16499.98
16581.16
16507.218
16381.99
16314.595
16233.125
16058.327
15925.071
15972.219
16086.193
16136.133
16185.021
16283.589
16384.721
16454.872
16504.883
16544.446
16578.778
16611.604
16636.332
16653.652
16668.513
16678.503
16680.034
16672.957
16664.303
16658.449
16650.616
16652.424
16654.682
16648.679
16658.859
16662.61
16654.794
16662.033
16669.452
16679.669
16709.237
16716.609
16679.087
16629.249
16598.689
16593.417
16604.094
16619.321
16632.077
16640.088
16644.083
16645.597
16646.015
16646.107
16646.123
16646.126
16646.126
16646.126
16646.126
16646.126
16646.133
16646.192
16646.632
16647.483
16649.845
22101.084
24122.529
29725.7
44907.38
50088.323
28607.665
18178.652
16574.64
16395.905
16351.793
16319.816
16299.013
16298.68
16315.527
16350.983
16437.2
16519.909
16490.79
16442.29
16503.274
16557.341
16429.891
16167.414
15965.358
15917.754
15989.095
16097.647
16243.277
16422.057
16561.512
16617.257
16607.387
16559.124
16453.439
16404.604
16499.379
16580.853
16507.004
16381.714
16314.414
16233.251
16058.617
15925.148
15972.217
16086.358
16136.349
16185.062
16283.547
16384.691
16454.822
16504.805
16544.353
16578.659
16611.463
16636.185
16653.498
16668.375
16678.398
16679.915
16672.842
16664.307
16658.402
16650.508
16652.498
16654.694
16648.438
16659.144
16662.951
16654.201
16661.915
16671.021
16680.64
16708.036
16714.973
16678.349
16629.255
16598.912
16593.6
16604.198
16619.37
16632.097
16640.094
16644.085
16645.597
16646.015
16646.107
16646.123
16646.126
16646.126
16646.126
16646.126
16646.126
16646.139
16646.237
16646.799
16647.679
22929.736
22090.598
21596.774
21547.218
22198.695
24273.212
29995.737
45393.657
50307.314
28542.394
18157.209
16571.337
16395.295
16351.543
16319.627
16298.824
16298.504
16315.342
16350.65
16436.716
16519.635
16490.681
16441.92
16502.797
16557.226
16430.153
16167.739
15965.548
15917.79
15989.146
16097.639
16243.04
16421.725
16561.213
16616.886
16607.028
16558.888
16453.258
16404.145
16498.782
16580.549
16506.816
16381.474
16314.259
16233.405
16058.946
15925.26
15972.239
16086.544
16136.598
16185.142
16283.541
16384.696
16454.803
16504.747
16544.271
16578.548
16611.321
16636.039
16653.353
16668.247
16678.295
16679.792
16672.738
16664.321
16658.345
16650.409
16652.585
16654.687
16648.216
16659.463
16663.258
16653.577
16661.889
16672.661
16681.561
16706.766
16713.306
16677.605
16629.265
16599.14
16593.788
16604.305
16619.421
16632.117
16640.101
16644.086
16645.598
16646.015
16646.107
16646.123
16646.126
16646.126
16646.126
16646.126
16646.127
16646.15
16646.304
16646.978
16647.923
29303.319
27290.862
25569.26
24134.77
22990.857
22153.332
21663.74
21624.513
22299.094
24424.567
30262.557
45864.861
50507.227
28476.236
18136.654
16568.165
16394.69
16351.29
16319.437
16298.641
16298.343
16315.178
16350.344
16436.273
16519.404
16490.587
16441.555
16502.346
16557.138
16430.417
16168.047
15965.728
15917.84
15989.227
16097.666
16242.837
16421.429
16560.944
16616.538
16606.684
16558.662
16453.095
16403.704
16498.205
16580.264
16506.648
16381.256
16314.127
16233.585
16059.303
15925.403
15972.299
16086.771
16136.891
16185.265
16283.575
16384.736
16454.81
16504.705
16544.2
16578.443
16611.179
16635.899
16653.22
16668.127
16678.194
16679.668
16672.646
16664.343
16658.277
16650.32
16652.684
16654.657
16648.017
16659.814
16663.525
16652.928
16661.961
16674.367
16682.422
16705.43
16711.611
16676.857
16629.278
16599.375
16593.98
16604.415
16619.474
16632.139
16640.109
16644.088
16645.598
16646.015
16646.107
16646.123
16646.126
16646.126
16646.126
16646.126
16646.128
16646.17
16646.397
16647.158
16648.247
63995.509
58163.704
52982.746
48363.253
44234.225
40539.448
37235.158
34287.372
31669.934
29363.594
27354.716
25634.745
24200.616
23056.694
22220.052
21734.157
21704.699
22401.473
24576.013
30525.022
46318.744
50690.215
28410.345
18116.685
16565.096
16394.103
16351.044
16319.254
16298.469
16298.198
16315.03
16350.052
16435.856
16519.204
16490.502
16441.187
16501.913
16557.08
16430.69
16168.344
15965.9
15917.898
15989.33
16097.717
16242.661
16421.162
16560.7
16616.21
16606.355
16558.453
16452.953
16403.284
16497.653
16580.007
16506.508
16381.065
16314.024
16233.8
16059.699
15925.589
15972.405
16087.043
16137.228
16185.431
16283.643
16384.802
16454.834
16504.674
16544.134
16578.338
16611.041
16635.77
16653.097
16668.012
16678.093
16679.543
16672.567
16664.372
16658.199
16650.243
16652.794
16654.605
16647.846
16660.196
16663.748
16652.259
16662.138
16676.131
16683.216
16704.031
16709.89
16676.105
16629.294
16599.615
16594.177
16604.529
16619.529
16632.162
16640.117
16644.091
16645.599
16646.015
16646.107
16646.123
16646.126
16646.126
16646.126
16646.126
16646.13
16646.202
16646.519
16647.334
16648.677
2.7713503e+08
46344448
14757578
6537066.1
3528076.7
2185044.3
1500825.1
1109684.5
859712.66
685097.12
556134.78
457870.91
381559.24
321420.34
273404.14
234603.49
202897.45
176723.12
154919.27
136601.66
121086.66
107848.36
96475.447
86640.461
78083.532
70595.152
64006.159
58179.879
53005.395
48393.368
44272.367
40585.64
37288.876
34347.597
31735.272
29432.441
27425.453
25705.967
24271.392
23126.856
22290.596
21807.883
21787.473
22505.14
24726.019
30779.564
46747.537
50856.096
28349.128
18098.363
16562.251
16393.549
16350.812
16319.084
16298.31
16298.068
16314.896
16349.771
16435.462
16519.035
16490.432
16440.821
16501.497
16557.056
16430.989
16168.648
15966.072
15917.966
15989.454
16097.792
16242.509
16420.924
16560.483
16615.908
16606.051
16558.27
16452.841
16402.891
16497.132
16579.786
16506.406
16380.91
16313.961
16234.06
16060.142
15925.824
15972.556
16087.357
16137.604
16185.629
16283.737
16384.885
16454.871
16504.65
16544.071
16578.233
16610.909
16635.653
16652.982
16667.901
16677.992
16679.422
16672.502
16664.405
16658.111
16650.182
16652.913
16654.529
16647.707
16660.604
16663.923
16651.578
16662.422
16677.946
16683.937
16702.571
16708.147
16675.348
16629.312
16599.86
16594.38
16604.646
16619.586
16632.186
16640.125
16644.093
16645.599
16646.015
16646.107
16646.123
16646.126
16646.126
16646.126
16646.127
16646.134
16646.252
16646.668
16647.511
16649.218
2.7735135e+08
46380581
14769411
6542993
3532217.3
2188617.8
1504073.9
1112520
862058.68
686979.62
557634.61
459070.14
382523.83
322198.7
274032.19
235108.46
203300.69
177041.96
155168.16
136793
121231.2
107955.59
96553.776
86697.342
78125.576
70628.137
64035.036
58208.754
53037.491
48431.014
44316.993
40637.811
37348.359
34413.497
31806.204
29506.747
27501.44
25782.162
24346.802
23201.263
22364.93
21884.817
21872.574
22609.556
24873.493
31023.781
47146.441
51005.498
28294.925
18082.1
16559.682
16393.044
16350.605
16318.936
16298.174
16297.963
16314.785
16349.508
16435.091
16518.902
16490.391
16440.47
16501.104
16557.073
16431.328
16168.979
15966.264
15918.055
15989.604
16097.894
16242.387
16420.718
16560.299
16615.642
16605.784
16558.127
16452.771
16402.535
16496.646
16579.611
16506.352
16380.8
16313.943
16234.371
16060.635
15926.108
15972.747
16087.704
16138.009
16185.851
16283.846
16384.977
16454.915
16504.63
16544.009
16578.129
16610.791
16635.548
16652.87
16667.792
16677.891
16679.306
16672.452
16664.44
16658.014
16650.139
16653.039
16654.431
16647.604
16661.036
16664.047
16650.892
16662.819
16679.805
16684.579
16701.052
16706.385
16674.587
16629.333
16600.109
16594.586
16604.766
16619.645
16632.211
16640.134
16644.096
16645.6
16646.016
16646.107
16646.123
16646.126
16646.126
16646.126
16646.127
16646.141
16646.324
16646.837
16647.707
16649.863
2.7756085e+08
46415289
14780787
6548785
3536345.7
2192209.6
1507339.8
1115365.3
864408.46
688861.25
559128.21
460259.09
383474.23
322959.52
274640.17
235591.36
203680.59
177336.86
155393.21
136961.24
121353.99
108042.94
96614.501
86739.223
78155.424
70651.814
64057.473
58233.925
53068.402
48469.686
44364.495
40694.303
37413.198
34485.392
31883.418
29587.322
27583.451
25863.966
24427.301
23280.171
22443.114
21964.822
21959.658
22714.104
25017.346
31255.444
47511.035
51139.203
28249.918
18068.244
16557.436
16392.609
16350.443
16318.827
16298.075
16297.893
16314.708
16349.275
16434.752
16518.809
16490.391
16440.154
16500.745
16557.137
16431.723
16169.362
15966.498
15918.179
15989.789
16098.028
16242.298
16420.546
16560.154
16615.417
16605.566
16558.033
16452.753
16402.225
16496.199
16579.482
16506.349
16380.738
16313.972
16234.729
16061.176
15926.436
15972.966
16088.074
16138.434
16186.09
16283.965
16385.074
16454.962
16504.613
16543.947
16578.031
16610.688
16635.453
16652.759
16667.685
16677.792
16679.195
16672.419
16664.474
16657.909
16650.118
16653.169
16654.31
16647.54
16661.488
16664.116
16650.212
16663.332
16681.697
16685.139
16699.475
16704.608
16673.823
16629.357
16600.364
16594.797
16604.89
16619.707
16632.238
16640.143
16644.099
16645.601
16646.016
16646.107
16646.123
16646.126
16646.126
16646.126
16646.128
16646.154
16646.423
16647.015
16647.952
2.7777287e+08
46451000
14792540
6554678.8
3540510.1
2195823
1510618.3
1118213.5
866749.98
690726.4
560600.58
461422.19
384395.18
323688.61
275215.01
236040.59
204027.06
177599.39
155587.68
137101.31
121451.53
108108.34
96656.858
86766.465
78174.377
70668.238
64076.075
58258.354
53101.246
48512.505
44417.851
40757.845
37485.798
34565.321
31968.562
29675.432
27672.388
25951.958
24513.181
23363.627
22524.985
22047.556
22048.218
22818.103
25156.631
31472.912
47838.089
51258.261
28215.866
18057.07
16555.555
16392.263
16350.342
16318.773
16298.028
16297.871
16314.675
16349.084
16434.451
16518.758
16490.445
16439.891
16500.429
16557.248
16432.183
16169.821
15966.798
15918.352
15990.013
16098.2
16242.245
16420.407
16560.047
16615.237
16605.398
16557.991
16452.791
16401.967
16495.786
16579.391
16506.394
16380.722
16314.042
16235.129
16061.757
15926.799
15973.202
16088.454
16138.871
16186.338
16284.089
16385.172
16455.011
16504.598
16543.891
16577.944
16610.601
16635.362
16652.647
16667.578
16677.697
16679.092
16672.402
16664.504
16657.799
16650.122
16653.3
16654.167
16647.519
16661.956
16664.129
16649.546
16663.963
16683.612
16685.613
16697.844
16702.817
16673.054
16629.382
16600.623
16595.013
16605.017
16619.77
16632.265
16640.153
16644.102
16645.601
16646.016
16646.107
16646.123
16646.126
16646.126
16646.126
16646.131
16646.176
16646.55
16647.193
16648.279
2.7797221e+08
46484659
14803690
6560388.7
3544622.4
2199416.1
1513882.1
1121041.4
869063.28
692557.33
562034.24
462543.68
385272.7
324373.75
275746.17
236447.54
204333.55
177824.94
155748.85
137212.23
121524.36
108153.65
96683.818
86782.898
78186.878
70682.224
64095.808
58286.953
53140.726
48563.818
44480.952
40831.812
37568.984
34655.553
32063.378
29772.325
27769.06
26046.563
24604.545
23451.468
22610.162
22132.459
22137.543
22920.722
25290.405
31674.926
48125.399
51363.902
28194.801
18049.107
16554.115
16392.024
16350.316
16318.787
16298.042
16297.902
16314.693
16348.941
16434.186
16518.742
16490.56
16439.698
16500.156
16557.395
16432.714
16170.376
15967.184
15918.584
15990.277
16098.403
16242.221
16420.291
16559.969
16615.093
16605.277
16557.994
16452.882
16401.759
16495.4
16579.324
16506.477
16380.749
16314.146
16235.563
16062.374
15927.192
15973.447
16088.839
16139.317
16186.593
16284.213
16385.267
16455.059
16504.586
16543.844
16577.871
16610.525
16635.273
16652.534
16667.473
16677.606
16678.998
16672.402
16664.527
16657.686
16650.152
16653.429
16654.005
16647.544
16662.436
16664.081
16648.906
16664.714
16685.539
16685.998
16696.159
16701.017
16672.283
16629.408
16600.885
16595.233
16605.148
16619.836
16632.293
16640.164
16644.105
16645.602
16646.016
16646.107
16646.123
16646.126
16646.126
16646.127
16646.135
16646.212
16646.702
16647.365
16648.71
2.7818046e+08
46519797
14815275
6566230.4
3548766.5
2202998
1517106.8
1123812.1
871309.82
694317.03
563395.91
463595.47
386084.57
324997.99