/*--------------------------------*- C++ -*----------------------------------*\
| =========                 |                                                 |
| \\      /  F ield         | OpenFOAM: The Open Source CFD Toolbox           |
|  \\    /   O peration     | Version:  2506                                  |
|   \\  /    A nd           | Website:  www.openfoam.com                      |
|    \\/     M anipulation  |                                                 |
\*---------------------------------------------------------------------------*/
FoamFile
{
    version     2.0;
    format      ascii;
    arch        "LSB;label=32;scalar=64";
    class       volScalarField;
    location    "0.008";
    object      k;
}
// * * * * * * * * * * * * * * * * * * * * * * * * * * * * * * * * * * * * * //

dimensions      [0 2 -2 0 0 0 0];

internalField   nonuniform List<scalar> 
13761
(
31.56251
31.653175
31.688351
31.661319
31.566107
31.39696
31.147707
30.811334
30.379712
29.843121
29.189392
28.402706
27.462003
26.339161
24.997275
23.38934
21.457378
19.131582
16.32663
12.932393
8.8004492
3.4500402
0.52406867
0.14612713
0.024424327
0.012876598
0.07572336
0.30845427
0.89412378
2.0704085
4.0249191
6.7091438
9.7860329
12.848778
15.642904
18.082673
20.17532
21.96318
23.494727
24.813543
25.955687
26.949713
27.817636
28.576641
29.240231
29.818564
30.319363
30.748511
31.110253
31.407557
31.642285
31.815419
31.925628
31.971263
31.949694
31.857161
31.688851
31.438994
31.10073
30.665985
30.125039
29.465682
28.671993
27.722757
26.589623
25.235314
23.612278
21.661792
19.313114
16.479912
13.051238
8.8777568
3.4782217
0.52780291
0.024804568
0.013108832
0.077149163
0.31425218
0.91075014
2.107862
4.0937584
6.8142294
9.9237538
13.01139
15.823419
18.276355
20.379258
22.175625
23.714614
25.040198
26.188667
27.18871
28.062422
28.82703
29.496043
30.079613
30.585428
31.019309
31.385417
31.686585
31.924438
32.099467
32.211097
32.257656
32.236426
32.143575
31.974239
31.722617
31.381824
30.943744
30.398582
29.734013
28.933995
27.977143
26.834793
25.469198
23.832198
21.864313
19.49368
16.632959
13.170577
8.9559154
0.025052633
0.013306141
0.078432673
0.31947005
0.92564407
2.1412185
4.1547238
6.9069226
10.045055
13.154896
15.98361
18.449684
20.563639
22.369826
23.917833
25.251843
26.408259
27.415816
28.296629
29.067921
29.743188
30.332554
30.843669
31.282318
31.652619
31.957378
32.198199
32.375571
32.488923
32.536604
32.515921
32.423081
32.253261
32.000668
31.658408
31.218321
30.670503
30.002427
29.197786
28.23492
27.08468
25.708837
24.058737
22.073897
19.680832
16.791916
0.025369757
0.013519561
0.079779208
0.32494233
0.94129367
2.1763414
4.2190153
7.0047219
10.173025
13.306145
16.152096
18.631358
20.756007
22.571336
24.127454
25.468827
26.632003
27.645787
28.53232
29.308829
29.988808
30.582368
31.097155
31.538955
31.911906
32.21885
32.461461
32.640299
32.754849
32.803527
32.783704
32.691644
32.522535
32.270534
31.928628
31.488569
30.940197
30.270741
29.463677
28.496473
27.338858
25.953357
24.291292
0.025638105
0.013701089
0.080939579
0.32964964
0.95471172
2.2063275
4.2737052
7.087717
10.28167
13.435077
16.296779
18.788888
20.924657
22.749996
24.315284
25.665119
26.836099
27.857066
28.750172
29.532668
30.218074
30.816529
31.335712
31.781451
32.157934
32.468086
32.713778
32.895616
33.013022
33.064502
33.04753
32.958448
32.792457
32.54368
32.204894
31.766894
31.218559
30.548571
29.741557
0.026021474
0.01392412
0.082296929
0.33516116
0.97048276
2.2417229
4.3384047
7.1858542
10.409643
13.585841
16.464166
18.968759
21.114454
22.948103
24.52062
25.876881
27.053656
28.079885
28.977791
29.764683
30.454146
31.056405
31.579247
32.028645
32.408923
32.722964
32.971716
33.15489
33.273672
33.327076
33.312635
33.226663
33.064428
32.820565
32.48955
0.026298863
0.014119007
0.083533715
0.34018451
0.98482658
2.2738278
4.3969216
7.2744271
10.525067
13.722014
16.615932
19.132802
21.288792
23.131501
24.712214
26.075989
27.25968
28.292296
29.19611
29.98851
30.683203
31.290646
31.819099
32.275525
32.666329
32.998176
0.073740537
0.04134432
0.24833098
1.0093423
2.8874384
6.4497013
11.722794
17.883554
23.88322
29.131497
33.507799
37.104916
40.064127
42.515943
44.565065
46.291026
47.753198
48.995271
50.048987
50.937651
51.678293
52.282612
52.758762
53.111973
53.344909
53.458335
53.451435
53.322125
53.067227
52.682777
52.164344
51.507392
50.707732
49.761823
48.666794
47.421282
46.023795
44.470299
42.75581
40.870115
38.795699
36.505825
33.963305
31.120504
27.921579
24.305478
20.206724
15.54996
10.239195
0.073670372
0.041363786
0.24856279
1.0102565
2.8898268
6.4543303
11.729731
17.892127
23.892968
29.142708
33.521219
37.12134
40.084157
42.539937
44.593152
46.32316
47.789192
49.034849
50.091803
50.983301
51.726346
52.332635
52.809796
53.162905
53.394711
53.505998
53.495954
53.3625
53.102489
52.712024
52.186785
51.522411
50.714971
49.761313
48.659005
47.406104
46.001011
44.441105
42.721058
40.830628
38.752315
36.45938
33.914633
31.070455
27.871034
24.255365
20.157955
15.503179
10.194545
3.7296525
0.45949462
0.11846523
0.071657864
0.064636976
0.063826694
0.06344431
0.063092828
0.062970607
0.063315794
0.064220899
0.065043127
0.06507226
0.064947128
0.06534092
0.0650591
0.064168053
0.064122052
0.064671148
0.064402878
0.063261455
0.062818307
0.063227442
0.063886522
0.06426002
0.064376759
0.064390407
0.064374587
0.064353011
0.064331742
0.064315661
0.064300302
0.064274434
0.064278921
0.064227294
0.064221074
0.06425633
0.064108532
0.064120791
0.06428352
0.064055238
0.073622221
0.041398919
0.24888994
1.0115579
2.8933079
6.4612881
11.740543
17.905952
23.908931
29.160732
33.54183
37.145196
40.111783
42.571628
44.628979
46.362997
47.832763
49.081756
50.141547
51.035298
51.779933
52.387068
52.864544
53.217356
53.448007
53.557192
53.544064
53.406539
53.1415
52.74511
52.213143
51.541365
50.72599
49.763991
48.653099
47.392001
45.979284
44.412505
42.686449
40.790961
38.708589
36.412598
33.865756
31.020392
27.820678
24.205614
20.109625
15.456761
10.149764
3.6989381
0.45474496
0.11839391
0.071670914
0.064656083
0.063843126
0.063461622
0.063114615
0.062993361
0.063335865
0.06423535
0.065053099
0.065082294
0.064957374
0.065349085
0.065068916
0.064183604
0.064137569
0.06468279
0.064416753
0.06328344
0.062844178
0.06324894
0.06390351
0.064275292
0.064391597
0.064405458
0.064389868
0.064368541
0.064347417
0.064331393
0.064316106
0.064290424
0.0642946
0.064243348
0.064237081
0.064272024
0.064125105
0.06413744
0.064299145
0.064071945
0.063833845
0.064151207
0.064350757
0.063994614
0.063650086
0.063925553
0.064549505
0.065109451
0.065443083
0.073568318
0.041428467
0.2491777
1.0127004
2.8963494
6.46733
11.749853
17.917765
23.922532
29.176171
33.559684
37.166139
40.136336
42.600079
44.661395
46.399263
47.87262
49.124834
50.187385
51.083364
51.829632
52.437741
52.91544
53.267606
53.496792
53.603685
53.587437
53.445964
53.176175
52.774271
52.236086
51.557459
50.734681
49.764797
48.646138
47.37738
45.957375
44.38387
42.651825
40.751233
38.664747
36.365678
33.816774
30.970299
27.770382
24.155986
20.061413
15.410331
10.104513
3.6663077
0.44938015
0.11822257
0.07166599
0.064670752
0.063859542
0.063478886
0.06313599
0.063015777
0.063355277
0.064249451
0.065062901
0.065092582
0.064967865
0.065357596
0.065079094
0.064199195
0.064153059
0.064694608
0.064430671
0.06330473
0.062869065
0.063269954
0.063920299
0.064290369
0.064406252
0.064420251
0.064404918
0.064383819
0.064362796
0.064346799
0.064331572
0.064306088
0.064309955
0.064259081
0.064252813
0.064287538
0.064141471
0.064153974
0.064314812
0.06408873
0.063853358
0.064168439
0.064367296
0.064013109
0.063671072
0.063945006
0.064564716
0.065120784
0.06545108
0.065542586
0.065555724
0.065676914
0.065720073
0.065874219
0.073513998
0.041457866
0.24945885
1.0138118
2.89929
6.4731192
11.758655
17.928747
23.934967
29.190122
33.575744
37.184997
40.158519
42.625873
44.690856
46.432259
47.908872
49.163945
50.228867
51.126656
51.874118
52.482752
52.96028
53.311498
53.538961
53.643362
53.623852
53.478371
53.203862
52.796586
52.252451
51.567388
50.737781
49.761018
48.635374
47.359727
45.933106
44.353444
42.615872
40.710532
38.620197
36.318266
33.767496
30.919984
27.719899
24.106147
20.012891
15.363445
10.0585
3.6323283
0.44369465
0.11799842
0.071664915
0.064688892
0.063876869
0.063497299
0.06315595
0.063036911
0.06337315
0.06426436
0.06507346
0.065103815
0.064979332
0.065366913
0.065090215
0.064216085
0.064169804
0.064707677
0.064445908
0.063327381
0.062894957
0.063292356
0.063938481
0.064306819
0.064422213
0.064436267
0.064421263
0.064400444
0.064379601
0.064363536
0.064348348
0.064323127
0.064326693
0.064276243
0.064270033
0.064304562
0.064159397
0.064172154
0.064332092
0.064107172
0.063872733
0.064185594
0.064383757
0.064031327
0.06369188
0.063964443
0.064579648
0.065131555
0.065458636
0.065550588
0.065564193
0.065686404
0.065728949
0.065878246
0.066117513
0.065964659
0.066060494
0.073465825
0.041488222
0.24974044
1.0149239
2.9022284
6.4788836
11.767369
17.939521
23.947028
29.203498
33.591008
37.202823
40.179422
42.650125
44.718502
46.463155
47.942725
49.200347
50.267318
51.166582
51.914889
52.523697
53.000709
53.350709
53.576224
53.67794
53.65502
53.505423
53.226138
52.813471
52.263368
51.571739
50.735506
49.752267
48.620199
47.338282
45.905682
44.320485
42.577966
40.668394
38.574646
36.270177
33.717617
30.869321
27.669069
24.055822
19.963731
15.315791
10.011587
3.5974903
0.43779263
0.1177477
0.071663465
0.06470812
0.063894711
0.063515733
0.063171339
0.063053818
0.063387317
0.064279016
0.065083569
0.065114589
0.064990485
0.065375805
0.065100803
0.064233089
0.064186848
0.064720811
0.064461069
0.06335076
0.062921714
0.063315661
0.063957177
0.064323602
0.064438618
0.064452837
0.064437956
0.064417417
0.064397093
0.064380889
0.064365702
0.064340874
0.064344142
0.064294186
0.064288055
0.064322306
0.064178151
0.064191177
0.064349979
0.064126248
0.063893564
0.064204043
0.064401299
0.064050623
0.063714051
0.063985271
0.06459509
0.065142262
0.065466641
0.065557897
0.065571551
0.065695085
0.065736548
0.065881481
0.066112641
0.065956512
0.066050705
0.06635916
0.066040267
0.065827811
0.073430562
0.041522315
0.25003758
1.016097
2.9053334
6.4849688
11.776524
17.950729
23.959359
29.216864
33.605913
37.219896
40.199147
42.67276
44.744076
46.49151
47.973548
49.23321
50.301698
51.20189
51.95048
52.558891
53.034803
53.382924
53.605801
53.704162
53.677215
53.522971
53.238481
52.820088
52.263894
51.566421
50.724393
49.735348
48.59761
47.310293
45.872674
44.282934
42.536438
40.623547
38.52701
36.220128
33.666034
30.817135
27.617189
24.004293
19.913007
15.266156
9.962179
3.5600881
0.43144771
0.1174526
0.071644403
0.064720814
0.063910132
0.063532591
0.063182635
0.063065866
0.063397832
0.064292413
0.06509275
0.065124288
0.065000536
0.065383872
0.065110313
0.064248726
0.064202736
0.064733013
0.064475098
0.063373479
0.062948262
0.063338363
0.06397493
0.064339383
0.064454113
0.064468521
0.064453918
0.064433508
0.064413781
0.064397686
0.064382505
0.064358052
0.064361178
0.064311693
0.064305672
0.064339547
0.0641964
0.064209652
0.064367098
0.064144502
0.06391475
0.064222633
0.064418649
0.06406983
0.063736363
0.064006147
0.064609983
0.065152502
0.065475357
0.065565517
0.065578865
0.065704006
0.065744212
0.065884773
0.066107005
0.065946235
0.066038175
0.06634649
0.066028515
0.065816763
0.066162618
0.066556418
0.066307839
0.073417061
0.041561625
0.25035733
1.0173616
2.9086994
6.4916038
11.786542
17.962976
23.972703
29.231033
33.62127
37.23697
40.218359
42.694331
44.768024
46.51768
48.001647
49.262828
50.332335
51.232968
51.98136
52.588886
53.063175
53.409014
53.628785
53.723334
53.691907
53.532507
53.242193
52.817684
52.255385
51.551652
50.703354
49.708174
48.564613
47.271956
45.8296
44.235786
42.485889
40.570082
38.471107
36.162611
33.607626
30.758483
27.559076
23.948048
19.858975
15.214042
9.9106063
3.5213186
0.42489243
0.11710369
0.071617986
0.064737813
0.063924844
0.06354753
0.063192592
0.063076105
0.063407223
0.064304962
0.065101357
0.065133182
0.065009702
0.065391592
0.065118983
0.06426257
0.064217205
0.064744365
0.064487592
0.063393983
0.062973144
0.063359437
0.063991295
0.064353705
0.064468143
0.064482813
0.064468486
0.064448337
0.064428905
0.064413216
0.064398068
0.064373951
0.064377078
0.064327951
0.064322124
0.064355575
0.064213304
0.064226735
0.064382809
0.064161212
0.063934757
0.064240142
0.064434829
0.064087822
0.06375748
0.064025819
0.064624188
0.06516276
0.065484955
0.065573952
0.065586598
0.06571296
0.065751404
0.065885757
0.066100928
0.065935388
0.066025077
0.066329797
0.066013123
0.065802694
0.066150281
0.066542328
0.06629641
0.065546012
0.064836108
0.073383599
0.041591825
0.2506308
1.0184456
2.9115821
6.4972942
11.79517
17.9736
23.984398
29.243588
33.634984
37.252255
40.23551
42.713448
44.78902
46.540309
48.025536
49.287506
50.357252
51.257517
52.004892
52.610726
53.082649
53.425478
53.641685
53.732012
53.695945
53.531675
53.236522
52.806951
52.239299
51.529986
50.675972
49.675057
48.525899
47.227976
45.780889
44.183057
42.429913
40.511547
38.410954
36.101679
33.546571
30.69788
27.49964
23.890829
19.804274
15.161715
9.8592178
3.4834168
0.4186286
0.11675607
0.071574254
0.064740253
0.063936842
0.063561495
0.063204157
0.063087356
0.06341761
0.064316667
0.065109759
0.06514179
0.065018377
0.065399289
0.065127507
0.06427535
0.064230602
0.064755211
0.06449945
0.063412635
0.062995827
0.063378794
0.064006387
0.064367054
0.064481141
0.064496163
0.064482003
0.064462268
0.064442968
0.064427717
0.064412659
0.064388861
0.06439201
0.064343163
0.064337527
0.064370531
0.064228888
0.064242428
0.0643972
0.064176506
0.063952851
0.064256261
0.064449897
0.064104684
0.063777249
0.06404427
0.064638109
0.065173293
0.06549476
0.065583139
0.065594532
0.065720739
0.065756427
0.065884862
0.066092681
0.06592311
0.066010956
0.066312401
0.065997374
0.065788884
0.066134377
0.066523857
0.06628149
0.065538563
0.064831598
0.064502259
0.064381422
0.073301174
0.04160357
0.25081311
1.0191638
2.9134414
6.5008487
11.800396
17.979898
23.991368
29.251439
33.64426
37.263475
40.248982
42.72923
44.80695
46.56005
48.046627
49.309391
50.379315
51.279101
52.025324
52.629334
53.098784
53.438532
53.651152
53.737469
53.696957
53.527936
53.227685
52.792779
52.219629
51.504732
50.645138
49.638767
48.484414
47.181712
45.730416
44.129101
42.373022
40.452683
38.351038
36.041493
33.486772
30.63906
27.442403
23.835368
19.751135
15.110919
9.8093662
3.4477285
0.41290261
0.11637065
0.071539752
0.064760144
0.063951084
0.063575553
0.063218529
0.063101365
0.0634303
0.064327701
0.065117919
0.065150116
0.06502662
0.065406647
0.065135839
0.064287629
0.064243374
0.064765618
0.06451094
0.063430307
0.063016728
0.063396988
0.064020693
0.064379778
0.064493541
0.064508852
0.064494878
0.06447555
0.064456459
0.064441548
0.064426707
0.064403218
0.064406453
0.064357925
0.064352462
0.064385057
0.064243874
0.064257423
0.064410785
0.064190753
0.063969347
0.064271273
0.064464195
0.064120929
0.063796341
0.064062055
0.06465193
0.065183687
0.065503668
0.065591921
0.065601566
0.065726241
0.065757399
0.065880922
0.066081812
0.065909477
0.065995834
0.066294435
0.065981596
0.065775467
0.066118627
0.066505185
0.066266282
0.065529318
0.064826706
0.064499246
0.0643787
0.06429187
0.073208666
0.041608052
0.25094952
1.0196973
2.9147878
6.5033351
11.803896
17.983931
23.995756
29.256565
33.650814
37.272068
40.259997
42.742787
44.822936
46.578163
48.066419
49.330312
50.400733
51.300332
52.045653
52.64804
53.115157
53.45189
53.660856
53.74295
53.69755
53.523129
53.217062
52.776161
52.19696
51.476091
50.610756
49.599024
48.43983
47.132934
45.678165
44.073801
42.315539
40.39389
38.291722
35.982342
33.428389
30.581973
27.387038
23.781992
19.700041
15.062082
9.7613887
3.4139357
0.40761812
0.11605836
0.071495418
0.064758813
0.063962636
0.06358975
0.063235225
0.063118199
0.063445553
0.064338601
0.065125736
0.065158034
0.065034518
0.065413424
0.065143778
0.06429981
0.064255939
0.064775605
0.0645221
0.063447781
0.0630365
0.063414699
0.064034648
0.06439204
0.064505465
0.064520997
0.064507202
0.064488274
0.064469436
0.064454841
0.064440251
0.064417087
0.064420485
0.064372332
0.064367063
0.064399384
0.064258658
0.064272199
0.064424152
0.064204544
0.063985076
0.064285583
0.064477807
0.064136606
0.063815138
0.064079429
0.064665448
0.065193369
0.065511046
0.065599087
0.065606844
0.065728449
0.0657562
0.065873761
0.066069057
0.065895069
0.065980057
0.066276046
0.065965967
0.065762429
0.066103181
0.066486523
0.066250952
0.065520161
0.064822423
0.064496544
0.064376406
0.064289314
0.064270782
0.064312858
0.073097814
0.041600962
0.25101278
1.0199327
2.9152916
6.50402
11.804391
17.983872
23.995266
29.256334
33.651678
37.274765
40.264992
42.750257
44.832796
46.590093
48.079978
49.344952
50.415829
51.315204
52.059589
52.660308
53.125023
53.458633
53.663761
53.74133
53.691017
53.511229
53.199502
52.752786
52.16777
51.441259
50.570637
49.554167
48.390896
47.080484
45.622668
44.016167
42.256674
40.334575
38.232618
35.92401
33.3713
30.526514
27.333484
23.730509
19.650766
15.014878
9.7146727
3.3810551
0.40261273
0.11571973
0.071468092
0.06478092
0.063977555
0.063604294
0.063252979
0.063136688
0.063462154
0.064349513
0.065133275
0.065165637
0.065042124
0.065419677
0.065151385
0.064311864
0.064268354
0.064785193
0.064532992
0.063465342
0.063055039
0.063432245
0.064048505
0.064404047
0.064517092
0.064532786
0.064519178
0.064500574
0.064481987
0.064467683
0.064453284
0.064430465
0.064433994
0.06438623
0.064381214
0.064413314
0.064273147
0.064286784
0.064437333
0.064218143
0.064000571
0.064299595
0.064490861
0.064151541
0.06383331
0.06409604
0.06467825
0.065202004
0.065516808
0.065604296
0.065609982
0.065728358
0.065751789
0.065864351
0.06605526
0.065880291
0.065963937
0.066257417
0.065950678
0.065749775
0.066087975
0.066467891
0.066235543
0.065510915
0.064818259
0.064494546
0.064374853
0.064287366
0.06426821
0.064310449
0.064358624
0.072977061
0.041583094
0.25100182
1.0198668
2.914952
6.5029133
11.801908
17.97975
23.989915
29.250654
33.646695
37.271307
40.263567
42.751039
44.835682
46.594851
48.086199
49.352122
50.423332
51.322375
52.065748
52.664756
53.127086
53.457634
53.659124
53.732629
53.677697
53.492873
53.17587
52.723773
52.133436
51.40184
50.526492
49.505659
48.338447
47.02483
45.564784
43.956983
42.196986
40.275055
38.173833
35.866437
33.315327
30.472422
27.281397
23.680551
19.603025
14.96918
9.6693988
3.3494783
0.39783979
0.11546477
0.071439542
0.064780327
0.063988664
0.063618569
0.063270714
0.063155347
0.063479008
0.064360564
0.065140557
0.065172852
0.065049437
0.065425504
0.065158419
0.064323614
0.064280622
0.064794415
0.064543442
0.063482809
0.063071367
0.063449555
0.064062304
0.06441586
0.064528432
0.064544283
0.064530873
0.064512478
0.064494158
0.064480064
0.064465832
0.064443318
0.064446887
0.064399514
0.064394771
0.064426639
0.064287123
0.06430098
0.064450187
0.0642315
0.064015837
0.064313266
0.064503299
0.064165717
0.063850555
0.064111437
0.064689798
0.065209356
0.065521137
0.065607189
0.065610923
0.065726448
0.06574427
0.065853348
0.066040926
0.065865352
0.065947631
0.066238658
0.065935785
0.065737453
0.066072987
0.066449404
0.066220158
0.065501571
0.064814078
0.064492676
0.064373433
0.064286237
0.064266312
0.064308701
0.064356264
0.064362729
0.072841875
0.041555147
0.25092283
1.0195248
2.9138439
6.5001775
11.796713
17.971928
23.980104
29.239963
33.636262
37.262027
40.255994
42.74541
44.831987
46.592841
48.085496
49.352227
50.423711
51.32247
52.064928
52.662391
53.122551
53.450386
53.648658
53.718448
53.659446
53.470249
53.148642
52.691847
52.096829
51.360648
50.480944
49.456215
48.285768
46.969642
45.507839
43.898977
42.138557
40.216785
38.116254
35.810021
33.260472
30.419421
27.230368
23.631628
19.556305
14.9245
9.6251385
3.3187762
0.39318134
0.11513484
0.071407483
0.064799468
0.064003071
0.063632598
0.063287763
0.063173479
0.063495552
0.064371486
0.065147445
0.065179601
0.065056296
0.06543092
0.065164912
0.064334744
0.064292409
0.064803207
0.064553354
0.06349981
0.063085191
0.063466324
0.064075823
0.064427333
0.064539382
0.06455532
0.064542111
0.064523861
0.064505781
0.064491818
0.064477727
0.064455437
0.064459007
0.064412015
0.064407551
0.064439169
0.064300398
0.064314573
0.064462596
0.064244507
0.064030683
0.064326584
0.064514863
0.064179011
0.063866645
0.064125586
0.064699773
0.065214979
0.065524126
0.065607696
0.065610236
0.065721679
0.065734624
0.065841135
0.066026276
0.065850384
0.06593128
0.066219899
0.065921213
0.065725399
0.066058181
0.066431127
0.066204847
0.06549221
0.064809882
0.064490783
0.064372013
0.064285258
0.064265208
0.064307718
0.064354523
0.064360319
0.064349074
0.064329446
0.072703405
0.041518683
0.25078091
1.0189282
2.9120256
6.4959491
11.789058
17.960752
23.966242
29.22468
33.620783
37.247289
40.242578
42.733565
44.821701
46.583913
48.077576
49.344883
50.416443
51.314725
52.056177
52.652125
53.110293
53.435695
53.631131
53.697725
53.635236
53.442336
53.116881
52.656172
52.057279
51.317395
50.43429
49.406573
48.233624
46.9155
45.452207
43.842368
42.081488
40.159774
38.059801
35.754593
33.206478
30.367181
27.18004
23.583378
19.510262
14.880534
9.5816939
3.2888242
0.38863859
0.1148695
0.071382782
0.064800743
0.064012954
0.063645604
0.063303883
0.063190657
0.063511372
0.06438209
0.065153803
0.065185761
0.065062666
0.065435849
0.065170675
0.064345195
0.064303642
0.064811407
0.064562418
0.063515894
0.063097361
0.06348229
0.064088751
0.06443813
0.064549651
0.064565635
0.06455257
0.064534445
0.064516542
0.064502662
0.064488688
0.064466491
0.064470132
0.064423452
0.064419297
0.064450674
0.064312701
0.064327327
0.064474295
0.064257045
0.064044907
0.064339443
0.064525517
0.064191258
0.06388139
0.064138358
0.064708352
0.065218889
0.065524826
0.065606833
0.065607067
0.065714537
0.065723515
0.06582809
0.066011443
0.065835431
0.065915073
0.066201305
0.065906877
0.065713561
0.066043532
0.066413095
0.066189625
0.065482875
0.064805681
0.06448887
0.064370612
0.064284256
0.064264252
0.064306871
0.064353467
0.064358546
0.064346641
0.064327009
0.064314559
0.072560865
0.041474128
0.25057862
1.0180884
2.909531
6.4902946
11.779039
17.946333
23.948446
29.204906
33.600334
37.227147
40.22335
42.715524
44.80485
46.568059
48.062388
49.329948
50.4013
51.298901
52.039208
52.633573
53.089757
53.412818
53.605614
53.669338
53.603828
53.407828
53.079261
52.615489
52.013649
51.271009
50.385397
49.355452
48.180581
46.860875
45.396378
43.785753
42.024537
40.102954
38.003575
35.699395
33.152696
30.315131
27.129926
23.535203
19.464242
14.836608
9.5383364
3.2588346
0.38408053
0.11454029
0.071343856
0.064815033
0.064025424
0.063657767
0.063318744
0.063206704
0.063526454
0.064392052
0.065159337
0.065191124
0.065068335
0.065440017
0.065175467
0.06435474
0.064314037
0.064818744
0.06457046
0.063530782
0.063109649
0.063497319
0.064100629
0.06444793
0.064558873
0.064574919
0.064561925
0.064543937
0.064526156
0.064512357
0.064498453
0.064476349
0.064480011
0.064433641
0.064429784
0.064460953
0.064323767
0.064338991
0.064484962
0.064268778
0.064058393
0.064351335
0.064535394
0.064202328
0.063894851
0.064149543
0.064715464
0.065220664
0.065524075
0.065603534
0.065600953
0.065705678
0.065711431
0.065814564
0.065996458
0.065820561
0.06589926
0.066183046
0.065892706
0.065701887
0.066029031
0.066395359
0.066174529
0.065473594
0.064801495
0.064486937
0.064369245
0.064283211
0.064263315
0.064306032
0.064352528
0.064357449
0.064344841
0.064325194
0.064312083
0.064310551
0.072419449
0.041423851
0.25032879
1.0170554
2.9065022
6.4835174
11.767154
17.92936
23.927535
29.181549
33.575872
37.202578
40.199288
42.692243
44.782364
46.546192
48.04084
49.308339
50.379214
51.275908
52.014891
52.607541
53.061663
53.382368
53.57258
53.633571
53.565264
53.366485
53.03523
52.568914
51.964718
51.219935
50.332411
49.300802
48.124532
46.80372
45.338447
43.727412
41.966184
40.044999
37.94642
35.643419
33.098238
30.262482
27.079351
23.48644
19.417594
14.79204
9.4943446
3.2284336
0.37947206
0.11425522
0.071312904
0.064814495
0.064033084
0.063668229
0.063332112
0.063221276
0.063540244
0.064400877
0.065163695
0.065195546
0.065073082
0.065443207
0.065179338
0.064363095
0.064323351
0.064825023
0.064577309
0.063544295
0.063122944
0.063511476
0.064111243
0.064456541
0.064566858
0.06458297
0.064569994
0.064552154
0.064534463
0.064520747
0.064506859
0.064484895
0.064488483
0.064442462
0.064438857
0.064469893
0.064333497
0.064349335
0.064494432
0.064279338
0.06407091
0.064362019
0.064544375
0.064212136
0.063906956
0.064158979
0.064720917
0.0652206
0.065521152
0.065597406
0.065592608
0.065695486
0.065698877
0.06580082
0.065981301
0.065805877
0.065884016
0.066165202
0.065878651
0.065690328
0.066014694
0.066377981
0.066159663
0.06546437
0.064797371
0.064484975
0.064367914
0.064282122
0.0642624
0.064305205
0.064351587
0.064356457
0.064343705
0.064324054
0.064310271
0.064308004
0.064318409
0.072283048
0.041371356
0.25005707
1.0159357
2.9032377
6.4762541
11.754474
17.911292
23.905262
29.156586
33.549565
37.175924
40.172902
42.666405
44.757086
46.521294
48.016013
49.283196
50.353329
51.248851
51.986247
52.576936
53.028773
53.346935
53.53442
53.592583
53.52143
53.31987
52.985978
52.517234
51.910868
51.164202
50.275094
49.242201
48.064944
46.743442
45.277784
43.666686
41.905729
39.98516
37.887539
35.585828
33.042242
30.208361
27.027374
23.436786
19.369923
14.746422
9.4494013
3.1974509
0.37475068
0.11387324
0.071261048
0.064825347
0.064042075
0.063677181
0.063343647
0.063233984
0.063552476
0.064408245
0.065166418
0.065198206
0.065076347
0.06544474
0.065181006
0.064369904
0.064331286
0.06483007
0.064582729
0.063556176
0.063137046
0.063524559
0.064120491
0.064463819
0.064573471
0.064589676
0.06457671
0.06455901
0.0645414
0.064527758
0.064513855
0.064492023
0.064495498
0.064449806
0.064446435
0.06447733
0.064341775
0.064358251
0.064502564
0.064288486
0.064082115
0.064371323
0.064552022
0.064220419
0.063917214
0.064166329
0.064724394
0.065218992
0.065515806
0.065589169
0.065582599
0.065684256
0.065686222
0.065787018
0.065965993
0.065791552
0.06586947
0.066147835
0.065864668
0.065678882
0.06600058
0.06636102
0.066145161
0.065455168
0.064793363
0.064482994
0.06436662
0.064281009
0.064261528
0.064304409
0.064350637
0.064355463
0.064342674
0.064323025
0.064309127
0.064306131
0.064315877
0.064325807
0.072163938
0.04132264
0.2497945
1.0148533
2.9000856
6.4692323
11.74217
17.893647
23.883332
29.131762
33.523093
37.148734
40.145578
42.639216
44.730053
46.494254
47.988682
49.255219
50.324317
51.218413
51.954015
52.54258
52.992014
53.307554
53.492262
53.547562
53.47353
53.269151
52.93257
52.461341
51.85276
51.104213
50.213609
49.179629
48.001691
46.679876
45.214229
43.603428
41.843033
39.923279
37.826721
35.526314
32.984272
30.152187
26.973297
23.385319
19.320392
14.698928
9.4023835
3.1650651
0.36989252
0.11352402
0.071203052
0.064817429
0.064046178
0.06368398
0.063353253
0.063244706
0.063562637
0.064413911
0.065167269
0.065198643
0.065077581
0.065444611
0.065180607
0.064375074
0.064337489
0.064833491
0.064586491
0.063566136
0.063150636
0.063536042
0.064128008
0.064469402
0.064578445
0.064594745
0.064581776
0.064564183
0.064546644
0.064533054
0.064519133
0.064497423
0.064500786
0.064455383
0.064452272
0.064482979
0.064348275
0.0643654
0.064508909
0.064295768
0.064091446
0.06437887
0.064557878
0.064226754
0.063925068
0.06417127
0.06472501
0.065215049
0.065508605
0.06557956
0.06557133
0.065672263
0.065673503
0.065773258
0.065950556
0.065777674
0.065855621
0.066130936
0.065850799
0.065667601
0.06598676
0.066344545
0.066131081
0.06544602
0.06478949
0.064481067
0.06436538
0.064279919
0.06426074
0.064303659
0.064349684
0.064354475
0.064341632
0.064321991
0.064308091
0.064304921
0.064313995
0.064323334
0.06432575
0.072059219
0.04127693
0.24954176
1.0138098
2.8970475
6.462454
11.730241
17.876427
23.861731
29.10702
33.49633
37.120783
40.116954
42.61015
44.700547
46.464147
47.957702
49.223036
50.290578
51.182773
51.916159
52.502238
52.948976
53.261679
53.443481
53.495876
53.419
53.211889
52.872729
52.399106
51.788355
51.037907
50.145723
49.110538
47.93181
46.609639
45.144049
43.533678
41.774031
39.85529
37.759963
35.460969
32.920504
30.090176
26.91332
23.328004
19.26764
14.649544
9.3540725
3.1324976
0.36510857
0.11308483
0.071137802
0.064823548
0.064050509
0.063688479
0.063360513
0.063253276
0.06357088
0.0644177
0.065166251
0.065197804
0.065077142
0.065442981
0.065178991
0.064377651
0.064341718
0.06483463
0.064587226
0.063573634
0.063162471
0.063545584
0.064133548
0.064473067
0.064581431
0.064597828
0.064584949
0.064567528
0.064550141
0.064536601
0.064522657
0.064501006
0.064504283
0.064459071
0.064456188
0.06448675
0.064352715
0.064370383
0.064513256
0.064300704
0.064098377
0.064384315
0.064561336
0.064231066
0.063930507
0.064173994
0.06472416
0.065209227
0.065500124
0.065569008
0.065559268
0.065659698
0.065660609
0.065759591
0.065935078
0.065764162
0.065842307
0.066114465
0.065837069
0.065656488
0.065973296
0.066328592
0.066117402
0.065437064
0.064785731
0.064479296
0.064364251
0.06427892
0.064260051
0.064302958
0.064348753
0.064353522
0.064340593
0.064320962
0.064307051
0.064303821
0.064312745
0.064321499
0.064323313
0.064322212
0.071931265
0.04122533
0.24926612
1.0126806
2.8937965
6.4553167
11.717926
17.859018
23.840301
29.082826
33.470401
37.093816
40.089326
42.581959
44.671682
46.434349
47.926625
49.19029
50.255774
51.145553
51.876219
52.459347
52.902994
53.21256
53.391283
53.440748
53.361172
53.15164
52.81036
52.33492
51.722636
50.970905
50.077652
49.041592
47.8622
46.539633
45.073977
43.463907
41.704927
39.787192
37.693173
35.395748
32.857094
30.028842
26.854473
23.272594
19.215695
14.601168
9.3072881
3.1014325
0.3606598
0.11272801
0.071068651
0.064809067
0.064049851
0.063691304
0.063365846
0.063259718
0.063576651
0.064419084
0.065163189
0.065194952
0.06507453
0.065439127
0.06517592
0.064377752
0.064343536
0.064834214
0.06458665
0.063579081
0.063172162
0.063552925
0.064137012
0.064474133
0.064581845
0.064598219
0.064585405
0.064568083
0.064550859
0.064537393
0.064523535