/*--------------------------------*- C++ -*----------------------------------*\
| =========                 |                                                 |
| \\      /  F ield         | OpenFOAM: The Open Source CFD Toolbox           |
|  \\    /   O peration     | Version:  2506                                  |
|   \\  /    A nd           | Website:  www.openfoam.com                      |
|    \\/     M anipulation  |                                                 |
\*---------------------------------------------------------------------------*/
FoamFile
{
    version     2.0;
    format      ascii;
    arch        "LSB;label=32;scalar=64";
    class       volScalarField;
    location    "0.008";
    object      Ma;
}
// * * * * * * * * * * * * * * * * * * * * * * * * * * * * * * * * * * * * * //

dimensions      [0 0 0 0 0 0 0];

internalField   nonuniform List<scalar> 
13761
(
0.11942527
0.12171333
0.12396132
0.12616557
0.12832183
0.13042564
0.13247306
0.1344607
0.13638857
0.13826014
0.14008288
0.1418685
0.14363317
0.1453977
0.14718776
0.14903436
0.15097504
0.15305785
0.15535057
0.15796992
0.1611882
0.16611256
0.1781335
0.213161
0.0025646304
0.0079208357
0.013745137
0.020073755
0.026917414
0.034221056
0.041776034
0.049210386
0.056145722
0.06237644
0.067891889
0.072781735
0.077157663
0.081122801
0.08476249
0.08814387
0.091319207
0.094328881
0.097203553
0.099967662
0.10264157
0.10524092
0.10777777
0.11026178
0.11269977
0.1150964
0.1174543
0.11977406
0.12205467
0.12429348
0.1264865
0.12862898
0.13071596
0.13274339
0.13470988
0.13661629
0.13846667
0.14026882
0.14203467
0.14378055
0.14552752
0.14730165
0.14913471
0.15106594
0.15314498
0.15544314
0.15808717
0.16138365
0.16659123
0.17949352
0.0025773564
0.0079615242
0.013817588
0.020181897
0.027064672
0.034408742
0.042000809
0.049463764
0.056417594
0.062658976
0.068180298
0.073073314
0.07745077
0.081416277
0.085055381
0.088435269
0.091608181
0.094614443
0.097484645
0.10024314
0.10291019
0.10550135
0.10802861
0.11050155
0.11292697
0.11530957
0.11765208
0.11995527
0.12221836
0.12443908
0.12661395
0.12873882
0.13080938
0.13282215
0.13477547
0.13667001
0.13850963
0.14030199
0.14205892
0.14379671
0.1455364
0.14730414
0.14913191
0.1510591
0.15313646
0.15543741
0.15809294
0.16141925
0.0025901064
0.0079998841
0.013882762
0.020274991
0.027186279
0.034557734
0.042172478
0.04964966
0.056608664
0.062848834
0.068365603
0.073252699
0.077623815
0.081583007
0.085215973
0.08858993
0.091757125
0.094757854
0.097622691
0.10037599
0.103038
0.10562433
0.10814697
0.11061557
0.11303698
0.11541596
0.11775528
0.12005577
0.12231666
0.12453569
0.12670936
0.12883348
0.1309037
0.13291648
0.13487014
0.13676533
0.13860588
0.14039942
0.1421577
0.14389692
0.145638
0.14740694
0.14923548
0.15116282
0.15323949
0.15553853
0.002612605
0.0080669829
0.013995791
0.020435097
0.027393997
0.034811544
0.042466575
0.049973727
0.056951463
0.063201912
0.068723976
0.073613703
0.077986062
0.081945764
0.085578827
0.088952646
0.092119559
0.095119902
0.097984273
0.10073703
0.10339846
0.10598415
0.10850613
0.11097408
0.11339487
0.1157733
0.11811225
0.12041259
0.12267367
0.12489336
0.12706825
0.12919429
0.13126719
0.13328347
0.13524145
0.13714173
0.13898806
0.14078822
0.1425546
0.14430276
0.1460529
0.14783004
0.1496646
0.0026321505
0.008126997
0.014099194
0.020584766
0.027592185
0.035058506
0.042758411
0.05030175
0.057305397
0.063573395
0.069107538
0.074006067
0.07838536
0.08235094
0.085989289
0.089368096
0.092539882
0.095545112
0.098414461
0.10117236
0.10383915
0.10643048
0.10895845
0.11143279
0.11386047
0.11624641
0.11859366
0.12090339
0.12317533
0.12540721
0.12759551
0.12973594
0.13182392
0.13385561
0.13582891
0.13774397
0.13960401
0.14141561
0.14318879
0.0026488848
0.0081801964
0.014193427
0.020724708
0.027781925
0.035299883
0.043048431
0.050631978
0.057665487
0.063954975
0.069505091
0.074416189
0.078805907
0.08278047
0.086426769
0.089812712
0.092990961
0.096002075
0.098876764
0.10163948
0.10431056
0.10690565
0.10943676
0.11191356
0.11434285
0.1167293
0.11907553
0.12138198
0.12364738
0.12586936
0.12804436
0.13016817
0.13223645
0.13424569
0.13619421
0.0026564192
0.0082053595
0.014239724
0.020795869
0.027881394
0.035429446
0.043206111
0.050811592
0.057859537
0.064157719
0.069713128
0.074627656
0.079019771
0.082996074
0.086643637
0.090030409
0.09320903
0.09622001
0.099093978
0.10185528
0.10452414
0.10711606
0.10964292
0.11211421
0.11453658
0.11691453
0.0044575224
0.013751163
0.023837223
0.034758668
0.046453222
0.058605968
0.0705461
0.081541788
0.091220507
0.099596185
0.10686526
0.11324842
0.11893228
0.12406486
0.12876062
0.13310691
0.13717082
0.14100394
0.14464545
0.14812684
0.15147461
0.15470961
0.15784851
0.16090535
0.16389111
0.1668147
0.16968308
0.17250133
0.17527307
0.17800037
0.18068388
0.1833231
0.18591652
0.18846234
0.19095929
0.19340685
0.19580624
0.19816138
0.20047978
0.20277337
0.20505941
0.20736113
0.20970855
0.21213953
0.21470117
0.21745339
0.2204793
0.22391865
0.22810045
0.0044557564
0.013745727
0.023827824
0.034744979
0.046434785
0.058582026
0.070515536
0.081503473
0.091173767
0.099540874
0.10680158
0.11317676
0.1188531
0.12397863
0.12866781
0.13300795
0.13706609
0.1408938
0.14453022
0.14800679
0.15134998
0.15458062
0.15771534
0.16076823
0.16375031
0.16667048
0.16953576
0.17235123
0.17512053
0.17784575
0.18052755
0.18316541
0.18575782
0.18830294
0.19079941
0.19324668
0.19564593
0.19800107
0.20031955
0.20261329
0.20489953
0.20720151
0.20954924
0.21198055
0.21454244
0.21729471
0.22032013
0.22375795
0.22793685
0.2342518
0.2487838
0.28271275
0.3060377
0.3152686
0.31793514
0.31888779
0.31997428
0.3213662
0.32286001
0.32412039
0.32500459
0.32551971
0.32552891
0.32462022
0.32298952
0.32199107
0.32146473
0.32054629
0.32015954
0.32110867
0.32255724
0.3233935
0.32368016
0.3235287
0.32348351
0.32333146
0.3235251
0.32332826
0.32326657
0.3229954
0.32304061
0.32272399
0.32272332
0.32236638
0.32234857
0.32191957
0.32187493
0.32146427
0.32145549
0.32097399
0.0044537017
0.013739264
0.023816462
0.034728183
0.046411862
0.058551931
0.070476842
0.081454853
0.091114549
0.099471043
0.10672151
0.113087
0.11875425
0.12387128
0.12855252
0.1328852
0.13693635
0.14075745
0.14438762
0.14785828
0.15119587
0.15442119
0.15755088
0.16059903
0.16357664
0.16649266
0.16935411
0.1721661
0.17493232
0.17765488
0.18033444
0.1829705
0.18556154
0.1881057
0.1906016
0.19304863
0.1954479
0.19780326
0.20012211
0.2024163
0.20470301
0.20700544
0.20935352
0.21178502
0.21434678
0.21709831
0.22012179
0.22355538
0.227726
0.23402494
0.24852384
0.28245509
0.30599128
0.3153018
0.31793257
0.31885096
0.31988693
0.32124769
0.32273837
0.32401302
0.32490404
0.32542333
0.3255133
0.32469088
0.32305277
0.32199953
0.32148534
0.32058631
0.32011697
0.32092519
0.32239682
0.32328784
0.3236178
0.32347202
0.32342388
0.32325178
0.32345063
0.32325095
0.3232044
0.32292745
0.32298694
0.32268517
0.3227033
0.32235441
0.32235366
0.32193598
0.32190242
0.32148395
0.32147391
0.32101074
0.32098714
0.32042487
0.320351
0.31974662
0.31963104
0.31897506
0.31879991
0.31808823
0.31781431
0.004450496
0.013729429
0.023799487
0.034703488
0.046378741
0.058509401
0.070423662
0.081389996
0.091037632
0.099382279
0.10662144
0.11297626
0.11863352
0.1237412
0.12841365
0.13273806
0.13678135
0.14059498
0.14421803
0.14768185
0.15101287
0.15423188
0.15735552
0.16039787
0.16336995
0.16628072
0.16913722
0.17194461
0.17470656
0.17742523
0.1801013
0.1827343
0.1853227
0.18786466
0.19035879
0.19280445
0.19520271
0.19755739
0.19987582
0.20216984
0.20445659
0.20675925
0.20910778
0.21153995
0.21410268
0.21685552
0.21988075
0.22331689
0.22749246
0.23380688
0.2483712
0.28239038
0.30593877
0.31536071
0.31804826
0.31896157
0.31995045
0.32127629
0.32276859
0.32406118
0.32496839
0.32549883
0.32566458
0.32493334
0.32328168
0.32216842
0.3216589
0.32078198
0.3202196
0.32089301
0.32238072
0.32331606
0.32369624
0.3235616
0.32351851
0.32333544
0.32354073
0.32334919
0.32331527
0.3230268
0.32308582
0.32277388
0.32279085
0.32243198
0.32243292
0.32200572
0.32196588
0.32153403
0.32151997
0.32106345
0.32104084
0.32047602
0.32038372
0.31975918
0.31962685
0.31896299
0.31878395
0.3180846
0.31783006
0.31713052
0.31679624
0.31607207
0.31567013
0.31491678
0.0044477475
0.013721105
0.023785253
0.034682932
0.0463513
0.058474184
0.070379416
0.081335576
0.090972471
0.099306388
0.10653516
0.11288009
0.11852799
0.12362685
0.12829096
0.13260747
0.13664325
0.1404497
0.14406586
0.14752306
0.15084771
0.15406057
0.15717829
0.16021493
0.16318153
0.16608707
0.1689386
0.17174129
0.17449885
0.17721346
0.17988581
0.18251546
0.18510089
0.18764027
0.19013221
0.19257606
0.19497287
0.19732644
0.1996441
0.20193767
0.2042243
0.20652722
0.20887641
0.21130976
0.21387435
0.21663004
0.2196597
0.22310316
0.22729318
0.23364775
0.24837463
0.2825039
0.30597072
0.31540293
0.31804731
0.31891414
0.31986473
0.32116371
0.3226477
0.32394878
0.32486367
0.32539957
0.32562165
0.3249822
0.32333721
0.32216806
0.32165497
0.32081308
0.32017087
0.32073406
0.32222974
0.32320427
0.32363754
0.32351273
0.32347552
0.32327852
0.32348528
0.32329485
0.32326894
0.32297255
0.32303262
0.32273023
0.32276137
0.32241105
0.32242057
0.32201221
0.32198935
0.32156198
0.32154489
0.32109784
0.32108555
0.32054147
0.32046346
0.3198609
0.31974415
0.31910034
0.3189338
0.31824269
0.31797974
0.31725646
0.31689135
0.3161452
0.3157319
0.31497633
0.31445143
0.3136673
0.31308632
0.004445472
0.013714208
0.023773447
0.034665848
0.046328392
0.058444544
0.070341734
0.08128861
0.090915539
0.09923938
0.10645831
0.11279382
0.11843278
0.12352317
0.12817927
0.13248815
0.13651666
0.14031615
0.14392563
0.14737641
0.15069485
0.15390173
0.15701366
0.16004472
0.16300596
0.16590635
0.16875297
0.171551
0.17430417
0.17701468
0.17968325
0.18230946
0.18489182
0.18742847
0.18991805
0.19235988
0.19475504
0.19710732
0.19942406
0.20171707
0.20400356
0.20630677
0.20865681
0.21109171
0.21365885
0.21641857
0.21945465
0.22290893
0.2271202
0.23353156
0.24846639
0.28267803
0.30602973
0.31547096
0.31814166
0.31899971
0.31991189
0.32118419
0.32266506
0.32398363
0.32491395
0.32545981
0.32572735
0.32518171
0.32354602
0.32231924
0.32180619
0.32100205
0.32028762
0.32073971
0.32222399
0.32323585
0.32371931
0.32360336
0.32356879
0.32336054
0.32356177
0.32337503
0.32335995
0.32306
0.323126
0.32282843
0.32285753
0.32250051
0.32250665
0.32209874
0.32206998
0.32162658
0.3215967
0.32114823
0.32113062
0.32059676
0.32051435
0.31990162
0.31976645
0.31910739
0.31892465
0.31823274
0.31797525
0.31728184
0.31695333
0.31624105
0.31584747
0.31510276
0.31457746
0.31378661
0.31319679
0.31243169
0.31178776
0.31085786
0.0044444335
0.013711044
0.023767987
0.034657846
0.046317386
0.058429595
0.070321367
0.081261297
0.090880279
0.099195778
0.10640639
0.11273379
0.11836499
0.12344796
0.12809699
0.13239914
0.13642122
0.14021454
0.14381809
0.14726315
0.1505761
0.15377768
0.15688451
0.15991066
0.1628672
0.16576311
0.16860547
0.17139948
0.17414888
0.17685589
0.17952126
0.18214454
0.18472426
0.18725857
0.18974608
0.19218617
0.19457989
0.19693105
0.19924699
0.20153957
0.20382602
0.20612968
0.20848079
0.2109176
0.21348778
0.21625228
0.21929606
0.22276346
0.22700029
0.23347701
0.24860102
0.28290069
0.30622219
0.31555793
0.31812392
0.31892003
0.31978065
0.32103436
0.32251169
0.32384554
0.32478938
0.32534449
0.32564264
0.3251722
0.32359048
0.32231295
0.32178988
0.32102554
0.32026009
0.32060396
0.32207089
0.32311165
0.32364268
0.32354031
0.32351416
0.32330392
0.32350059
0.32332759
0.32332254
0.32302105
0.32308347
0.32279012
0.32282262
0.32247515
0.32248301
0.32209077
0.32207685
0.32164952
0.32162419
0.32118421
0.32117192
0.320662
0.32058664
0.31998853
0.31986185
0.3192226
0.31905328
0.31838009
0.31812769
0.31742321
0.31706403
0.31632512
0.31591214
0.3151599
0.31462988
0.31384237
0.31326076
0.31250679
0.31187608
0.31095218
0.31050603
0.30972957
0.30931653
0.004444476
0.013711077
0.023767876
0.034657382
0.046316124
0.058426533
0.07031485
0.081249572
0.090862148
0.099170693
0.10637424
0.1126947
0.11831917
0.12339571
0.12803858
0.13233483
0.13635124
0.14013911
0.1437374
0.14717741
0.15048547
0.15368235
0.15678466
0.15980649
0.1627589
0.1656509
0.16848959
0.17128017
0.17402641
0.17673053
0.17939328
0.18201421
0.18459184
0.18712432
0.18961025
0.19204899
0.1944416
0.19679185
0.19910711
0.20139923
0.20368549
0.20598928
0.2083409
0.21077872
0.21335062
0.21611786
0.21916609
0.22264139
0.22689527
0.23342252
0.24874034
0.28314549
0.3064001
0.31564902
0.31820094
0.3189728
0.31979088
0.32102919
0.32250816
0.32385995
0.32482106
0.32538525
0.32570504
0.32529823
0.32377386
0.3224497
0.32191681
0.32119697
0.32039619
0.32063847
0.32206488
0.32314208
0.32372236
0.3236375
0.32361487
0.32339841
0.32358209
0.32341209
0.32340683
0.32310242
0.32316269
0.32287868
0.32291177
0.32256527
0.32256889
0.32218293
0.32216359
0.32172943
0.3216893
0.32123946
0.3212121
0.32070996
0.32063408
0.32003908
0.3199026
0.31925272
0.31906381
0.31837948
0.31811495
0.31742414
0.31709532
0.31639435
0.31600786
0.31527528
0.31475305
0.31396427
0.31337268
0.31261104
0.31197947
0.31105429
0.31060569
0.30981321
0.30938592
0.30907246
0.30790661
0.0044444675
0.01371092
0.023767402
0.034656348
0.046314101
0.058422646
0.070307666
0.081237596
0.090844398
0.099146781
0.10634416
0.11265866
0.11827745
0.12334863
0.12798645
0.13227793
0.13628983
0.14007341
0.14366762
0.14710372
0.15040805
0.15360136
0.15670026
0.15971885
0.1626682
0.16555731
0.16839332
0.17118142
0.1739254
0.17662746
0.17928837
0.18190771
0.18448399
0.18701537
0.18950044
0.19193854
0.19433071
0.19668071
0.19899588
0.20128807
0.20357456
0.20587876
0.20823098
0.21066963
0.21324262
0.21601128
0.21906136
0.22253953
0.22679993
0.23335028
0.24877015
0.28332277
0.30650575
0.31569374
0.31817208
0.31889403
0.31966394
0.32088751
0.32235854
0.32372197
0.32470081
0.32527249
0.32560921
0.32525854
0.32381793
0.32244769
0.32189784
0.32122087
0.32039301
0.32053827
0.32192166
0.32302318
0.32364082
0.32357009
0.32354956
0.32333599
0.32350669
0.32334903
0.32335677
0.32306058
0.3231241
0.32285074
0.3228828
0.32254378
0.32254649
0.32216865
0.32215507
0.32174211
0.32171046
0.32127124
0.32124394
0.32076751
0.32070305
0.32012402
0.3199893
0.31935142
0.31916896
0.31850449
0.31825472
0.31757221
0.31721975
0.31649207
0.3160805
0.31533429
0.31480015
0.31401024
0.31342378
0.31267713
0.31206068
0.31114659
0.31070356
0.3098972
0.30945166
0.3091603
0.30800768
0.30786422
0.30696717
0.0044428085
0.013705618
0.023757963
0.034642231
0.046294675
0.058397076
0.070274933
0.081196809
0.09079516
0.099089199
0.10627865
0.11258578
0.11819781
0.12326282
0.12789501
0.13218138
0.13618861
0.13996794
0.14355825
0.14699079
0.15029186
0.15348218
0.15657836
0.15959449
0.1625416
0.16542872
0.16826294
0.17104949
0.17379212
0.17649306
0.17915308
0.18177175
0.18434757
0.18687871
0.18936374
0.19180199
0.19419447
0.19654491
0.19886064
0.20115349
0.2034407
0.20574564
0.2080986
0.21053793
0.21311142
0.21588018
0.21892961
0.22240578
0.22666249
0.23320883
0.24863701
0.28326289
0.3065105
0.31576915
0.31828976
0.3189924
0.31971332
0.32090913
0.32237625
0.32375889
0.3247607
0.32533992
0.32568926
0.32539333
0.32401883
0.32261679
0.32204541
0.32140786
0.32056018
0.32061785
0.32193586
0.3230644
0.32371684
0.3236673
0.32365053
0.32343705
0.32359393
0.32344816
0.32345488
0.32315456
0.32320492
0.32293003
0.32295729
0.32262414
0.32262354
0.32225251
0.32223526
0.32182685
0.32178335
0.32133505
0.32129018
0.32081576
0.32074325
0.32016974
0.32002979
0.31939148
0.31919713
0.31852378
0.3182515
0.31756118
0.31722374
0.31653199
0.31615034
0.31543052
0.31491452
0.31413353
0.31353999
0.31278731
0.31216632
0.31125106
0.3108077
0.30998465
0.30951632
0.30924334
0.30810322
0.30797449
0.30708502
0.30543876
0.0044398009
0.013696186
0.023741413
0.034617822
0.046261613
0.058354511
0.070222036
0.081133055
0.090720538
0.099004137
0.10618382
0.11248195
0.11808575
0.12314325
0.12776863
0.13204877
0.13605033
0.13982447
0.14341004
0.14683823
0.15013532
0.15332201
0.15641487
0.15942795
0.16237232
0.16525693
0.16808891
0.17087346
0.17361435
0.17631379
0.17897254
0.18159018
0.18416522
0.1866958
0.1891805
0.19161861
0.19401113
0.19636175
0.19867779
0.20097105
0.20325876
0.20556427
0.20791786
0.21035783
0.21293194
0.21570117
0.21875072
0.22222641
0.22648244
0.23303213
0.24849366
0.28314935
0.30650686
0.31583426
0.31832402
0.31897761
0.31964916
0.32081143
0.32226835
0.32366472
0.324683
0.32526756
0.32562688
0.3253896
0.32408276
0.32263647
0.3220365
0.32143371
0.32056761
0.32055317
0.32181251
0.32295509
0.32364306
0.32361055
0.32359617
0.32338568
0.32352756
0.32338248
0.32339214
0.32309952
0.32315361
0.32289929
0.32293382
0.32261134
0.32261084
0.32224648
0.32222324
0.32183007
0.32179471
0.32136075
0.32131252
0.32085533
0.32079476
0.32024645
0.32011281
0.3194853
0.31928899
0.3186259
0.31836612
0.31770173
0.31735635
0.31664222
0.31623431
0.3154983
0.31496366
0.31417486
0.31358166
0.31284499
0.31223969
0.3113388
0.31090585
0.31007192
0.30957948
0.30932249
0.30819315
0.30808212
0.30720283
0.30556007
0.30572706
0.30465711
0.0044360199
0.013684484
0.023721075
0.034588067
0.046221638
0.058303567
0.070159541
0.081058774
0.090634673
0.098907229
0.10607659
0.11236519
0.11796026
0.12300978
0.12762784
0.13190129
0.13589671
0.1396652
0.14324558
0.14666901
0.14996172
0.15314438
0.15623357
0.15924332
0.16218466
0.16506657
0.16789615
0.17067858
0.17341763
0.17611549
0.17877291
0.18138944
0.18396356
0.18649341
0.18897753
0.1914152
0.19380744
0.19615794
0.198474
0.20076742
0.20305545
0.20536147
0.20771578
0.21015676
0.21273221
0.21550326
0.21855532
0.22203484
0.22629865
0.23287219
0.24842995
0.28315994
0.30651592
0.3158991
0.31843945
0.31909246
0.31975411
0.32086162
0.32230372
0.32371449
0.32475305
0.32534517
0.32571519
0.32552815
0.32427689
0.32281976
0.32219953
0.32163046
0.32075866
0.32067154
0.32185342
0.32301969
0.32373035
0.32371321
0.32369732
0.3234845
0.32360982
0.32347652
0.32349386
0.32320348
0.32324916
0.32298925
0.32300786
0.32268627
0.32267953
0.32231717
0.32228932
0.32190922
0.32186841
0.32143151
0.32136654
0.32090872
0.32083689
0.32029163
0.32014757
0.31952054
0.31931795
0.31865813
0.31838154
0.31769729
0.31734588
0.31665831
0.31627722
0.31557081
0.31506289
0.31429519
0.31370368
0.31296363
0.3123497
0.31144519
0.311012
0.31016299
0.30964308
0.30939888
0.3082783
0.30818766
0.30732111
0.30567954
0.30583213
0.30476783
0.30249142
0.0044320983
0.013672357
0.023699996
0.03455723
0.046180234
0.058250903
0.070095222
0.080982762
0.090547268
0.098808989
0.10596822
0.11224743
0.11783387
0.12287547
0.12748629
0.13175308
0.13574239
0.13950525
0.14308044
0.14649908
0.14978739
0.15296602
0.15605151
0.1590579
0.1619962
0.1648754
0.16770257
0.1704829
0.17322014
0.17591649
0.17857266
0.18118818
0.18376151
0.18629074
0.18877439
0.19121172
0.19360369
0.19595401
0.19826998
0.20056341
0.20285161
0.205158
0.20751299
0.20995503
0.21253214
0.2153057
0.21836166
0.22184773
0.22612499
0.23273755
0.248452
0.28326824
0.30659121
0.31600064
0.31848977
0.31908421
0.3197216
0.32077779
0.32220537
0.32362203
0.32467548
0.32526952
0.32564938
0.32552335
0.3243276
0.32283541
0.32218595
0.3216415
0.32075618
0.32061428
0.32174515
0.32291103
0.32364908
0.32365139
0.32364294
0.32343851
0.32355656
0.32342676
0.32344072
0.3231508
0.32318915
0.32294344
0.32297228
0.32266954
0.3226667
0.32231763
0.32228501
0.32191072
0.32186964
0.32144999
0.32138412
0.32093599
0.32086666
0.32034742
0.3202177
0.31960894
0.31940582
0.31874881
0.31847041
0.31781578
0.31747591
0.31677701
0.31637259
0.31565189
0.31512271
0.31433934
0.31374121
0.31301225
0.31241332
0.31152466
0.31110529
0.3102502
0.30970456
0.30947248
0.30835898
0.30829098
0.30744098
0.30579681
0.30593818
0.30488082
0.30263828
0.30304599
0.0044282581
0.013660444
0.02367924
0.034526815
0.046139382
0.058199021
0.070032112
0.080908588
0.09046242
0.098714031
0.10586381
0.11213428
0.11771268
0.12274693
0.12735102
0.13161166
0.13559532
0.13935301
0.14292345
0.14633773
0.14962203
0.152797
0.15587916
0.15888254
0.16181815
0.16469495
0.16752002
0.17029855
0.17303426
0.17572933
0.17838448
0.18099922
0.18357197
0.18610081
0.18858425
0.19102151
0.19341355
0.19576407
0.19808036
0.20037427
0.20266314
0.20497046
0.20732675
0.20977065
0.21235039
0.21512777
0.21818948
0.22168485
0.22598018
0.23264119
0.24852844
0.28340956
0.30662477
0.31603698
0.31857982
0.31918572
0.31980995
0.32083397
0.32224284
0.3236657
0.32473176
0.32532939
0.32571615
0.32563112
0.32446802
0.32298565
0.32232152
0.32180416
0.32093117
0.32073171
0.32180166
0.32297756
0.32374045
0.32375788
0.32375206
0.32354162
0.32364118
0.32351006
0.32352774
0.32324345
0.32328134
0.32304277
0.32305979
0.32275325
0.32273891
0.32238881
0.32234478
0.32197797
0.32193722
0.32152394
0.32144412
0.32099259
0.32091153
0.32039678
0.32025334
0.3196417
0.31942815
0.31877761
0.31849608
0.31782843
0.31746763
0.31678156
0.31639588
0.31570123
0.3152015
0.31444879
0.31386478
0.31313713
0.31252805
0.31163238
0.31121039
0.310342
0.30976664
0.30954456
0.3084364
0.30839281
0.30756249
0.30591135
0.30604596
0.30499501
0.30278257
0.30310449
0.30223755
0.2996043
0.004424596
0.013649028
0.023659271
0.034497439
0.046099797
0.058148705
0.069971018
0.080837036
0.090380881
0.098623071
0.10576405
0.11202639
0.11759733
0.12262475
0.1272226
0.13147755
0.135456
0.13920892
0.14277499
0.14618527
0.14946592
0.15263754
0.15571666
0.15871729
0.16165043
0.16452505
0.16734821
0.1701251
0.17285945
0.17555344
0.17820776
0.1808219
0.18339427
0.18592293
0.18840633
0.19084368
0.19323592
0.19558674
0.19790343
0.2001979
0.20248751
0.20479585
0.20715353
0.20959936
0.21218184
0.21496317
0.21803081
0.22153581
0.22584982
0.23256085
0.24862916
0.28357126
0.30675839
0.31615142
0.3186216
0.31916914
0.31975559
0.32075684
0.32214619
0.32356652
0.3246386
0.32523865
0.32563299
0.32561306
0.32449881
0.32299511
0.32230866
0.32181419
0.3209348
0.32068234
0.32170844
0.32288111
0.32366125
0.323694
0.32369073
0.32348567
0.32358128
0.3234602
0.32348356
0.32320259
0.32323309
0.32299699
0.32301165
0.32272155
0.32271224
0.32237794
0.32233524
0.32197894
0.32193217
0.3215346
0.32145544
0.32101363
0.32092863
0.32043408
0.32030439
0.31971603
0.31950922
0.31886687
0.31857403
0.31792108
0.31758
0.31690058
0.31649882
0.31579515
0.31527659
0.31450343
0.31390297
0.31317568
0.31257976
0.3117001
0.31129512
0.31042629
0.30982558
0.30961485
0.30851067
0.30849257
0.30768533
0.30602337
0.30615511
0.30510966
0.3029238
0.30315938
0.30232998
0.29970965
0.29930058
0.0044210434
0.013637959
0.023639917
0.034468976
0.046061462
0.058100096
0.06991228
0.080768667
0.090303459
0.098537159
0.10567023
0.11192527
0.11748951
0.12251083
0.12710313
0.13135303
0.1353269
0.13907563
0.14263789
0.14604469
0.14932217
0.15249091
0.15556743
0.1585657
0.16149675
0.16436951
0.16719106
0.16996658
0.1726998
0.17539288
0.1780465
0.18066017
0.18323225
0.18576079
0.18824421
0.19068171
0.19307419
0.19542534
0.19774248
0.20003752
0.20232788
0.20463724
0.20699632
0.20944408
0.21202932
0.21481471
0.21788857
0.2214039
0.2257383
0.2325033
0.24874126
0.28374333
0.30686878
0.31622017
0.3187234
0.31928121
0.31983748
0.32083057
0.32220014
0.32362237
0.32470045
0.32530043
0.32569185
0.32569074
0.32459525
0.32311936
0.3224204
0.32194197
0.32108067
0.32077882
0.32176551
0.32293449
0.32373836
0.32378972
0.32379795
0.32359357
0.32367702
0.32355278
0.32356982
0.32328685
0.32331025
0.32308461
0.32309879
0.32281252
0.32279251
0.32246262
0.32240899
0.3220469
0.32199245
0.32160463
0.32151828
0.32107359
0.32097382
0.32048292
0.3203424
0.31975351
0.31953158
0.31888909
0.31859589
0.31794789
0.31758508
0.31690536
0.31651329
0.31582922
0.31533302
0.31459262
0.31401738
0.31330086
0.31269883
0.31181062
0.3114007
0.31052006
0.30988764
0.30968551
0.30858221
0.30859104
0.30780885
0.30613261
0.30626532
0.30522306
0.3030593
0.30321173
0.30242478
0.29981187
0.29940521
0.2993548
0.0044177414
0.013627616
0.023621755
0.034442164
0.046025265
0.058054171
0.069856907
0.080704508
0.090231168
0.098457305
0.10558338
0.11183198
0.11739037
0.1224064
0.12699394
0.13123956
0.13520959
0.13895487
0.14251404
0.14591807
0.14919307
0.1523596
0.15543415
0.15843072
0.16136028
0.16423179
0.16705232
0.16982704
0.17255967
0.17525237
0.17790582
0.18051949
0.18309175
0.18562061
0.18810449
0.19054255
0.1929357
0.19528761
0.19760559
0.19990155
0.20219296
0.20450351
0.20686399
0.2093135
0.21190095
0.21468932
0.21776744
0.22128953
0.22563753
0.23244205
0.24883763
0.28389782
0.3070134
0.31630538
0.31873673
0.3192435
0.3197633
0.32074676
0.3221042
0.32351815
0.32459663
0.32519709
0.32559458
0.32564762
0.32460973
0.32311452
0.32239512
0.32193758
0.32107847
0.32073441
0.32168006
0.32284509
0.32366394
0.32373065
0.32374131
0.32353541
0.32361166
0.32349097
0.32351529
0.32324348
0.32326769
0.3230509
0.32305765
0.32277862
0.32275588
0.32243664
0.32238152
0.32203525
0.32197991
0.32160829
0.32152333
0.32108986
0.3209851
0.32050924
0.3203766
0.31981087
0.31959985
0.3189755
0.31867704
0.31802689
0.3176727
0.31701333
0.31661562
0.31593042
0.31542032
0.31466177
0.31406217
0.31333242
0.3127398
0.31186661
0.31147789
0.31060321
0.30994608
0.30975481
0.30865044
0.30868713
0.30793221
0.30623938
0.30637514
0.30533417
0.30318859
0.30326486
0.30252116
0.29991062
0.29950947
0.29946349
0.29586946
0.0044144022
0.013617091
0.023603188
0.034414633
0.045987945
0.05800668
0.069799569
0.08063808
0.090156406
0.098374873
0.10549389
0.11173605
0.11728861
0.12229938
0.12688222
0.13112363
0.1350899
0.13883184
0.14238802
0.14578939
0.14906202
0.15222647
0.15529919
0.15829416
0.16122236
0.16409272
0.16691231
0.16968629
0.17241838
0.17511073
0.177764
0.18037765
0.18295005
0.18547919
0.18796348
0.19040207
0.19279584
0.19514845
0.1974672
0.19976401
0.20205634
0.2043679
0.20672952
0.20918031
0.21176925
0.21455937
0.21763966
0.22116479
0.22551884
0.23234255
0.24880966
0.28399282
0.30706381
0.31636513
0.31885111
0.31937145
0.31986607
0.32083308
0.32217858
0.32358726
0.32466931
0.32526781
0.32565814
0.32570572
0.3246946
0.32323703
0.32251123
0.32206544
0.32122796
0.32084139
0.32174347
0.32290306
0.32373589
0.32382184
0.32383701
0.32363606
0.32370301
0.32358686
0.32360751
0.32333253
0.3233456
0.32312956
0.3231312
0.32285969
0.32283319
0.32252282
0.32246496
0.32211796
0.32204444
0.32167468
0.3215839
0.32115069
0.32103048
0.32055611
0.32041493
0.31985292
0.31962794
0.31899864
0.31869223
0.31805519
0.3176944
0.31702655
0.31662916
0.31595796
0.31545919
0.31472596
0.31415537
0.31345031
0.31286268
0.3119847
0.31158918
0.31070388
0.31001124
0.30982546
0.30871545
0.30878077
0.30805579
0.30634329
0.30648319
0.30544215
0.30331034
0.30332163
0.30261789
0.30000584
0.29961336
0.29957182
0.29598894
0.29123185
0.0044110093
0.013606385
0.023584286
0.034386587
0.04594989
0.057958196
0.069740971
0.080570165
0.090080029
0.098290784
0.10540277
0.11163853
0.11718529
0.12219086
0.12676902
0.13100625
0.13496876
0.13870733
0.14226049
0.14565914
0.14892934
0.1520916
0.15516238
0.15815562
0.16108229
0.16395134
0.16676981
0.16954286
0.17227421
0.17496599
0.17761887
0.1802323
0.18280462
0.18533381
0.18781827
0.19025712
0.19265126
0.19500432
0.19732362
0.19962106
0.20191412
0.20422654
0.20658917
0.20904114
0.21163147
0.21442322
0.21750554
0.22103361
0.22539394
0.23223923
0.24881423
0.28408923
0.30714906
0.31645828
0.31890008
0.3193755
0.31983425
0.3207706
0.32210999
0.32351454
0.32459781
0.32519579
0.32558823
0.32567744
0.32472924
0.32324199
0.32248818
0.32205263
0.32121445
0.32079715
0.32165835
0.32280833
0.32365455
0.32375889
0.32378078
0.32358237
0.32364292
0.32352951
0.32355006
0.32328375
0.32329471
0.32309228
0.32309513
0.32283366
0.32279976
0.32249836
0.32243413
0.32209335
0.32201916
0.32166577
0.32157993
0.32116162
0.32103894
0.32057545
0.32043665
0.31989504
0.3196811
0.31907584
0.31877542
0.3181363
0.31776553
0.31711623
0.31672228
0.31605675
0.31554954
0.31480744
0.3142135
0.31348444
0.31289932
0.31203196
0.31166001
0.3107873
0.31006921
0.30989295
0.30877653
0.30887033
0.30817946
0.30644447
0.30658812
0.30554625
0.303426
0.303386
0.30271356
0.30009763
0.29971713
0.29967952
0.2961078
0.29134274
0.29002181
0.0044077073
0.013596012
0.023566023
0.034359561
0.04591331
0.05791168
0.069684842
0.080505238
0.090007158
0.09821072
0.10531617
0.11154601
0.11708741
0.12208815
0.12666195
0.13089524
0.13485418
0.1385895
0.14213968
0.1455356
0.14880327
0.15196319
0.15503181
0.15802305
0.16094788
0.16381523
0.16663216
0.16940381
0.1721339
0.17482458
0.1774765
0.18008909
0.1826607
0.1851893
0.18767328
0.19011176
0.19250561
0.19485848
0.19717768
0.19947515
0.20176838
0.20408114
0.20644433
0.20889717
0.21148875
0.2142823
0.21736721
0.22089955
0.22526988
0.23214911
0.24887227
0.28420047
0.30718364
0.3164976
0.31900343
0.31950644
0.31995173
0.32086741
0.32219252
0.32359379
0.32467977
0.32527569
0.32565688
0.32573013
0.32481478
0.32336599
0.32260855
0.32218375
0.32137173
0.32092967
0.32173484
0.32288071
0.32373463
0.32385669
0.32387828
0.32368149
0.32372937
0.32361722
0.32363425
0.32337022
0.32337324
0.32317423
0.32316628
0.32290459
0.32286578
0.32256941
0.32250241
0.32217389
0.32208909
0.32173524
0.32164001
0.32122318
0.32108526
0.32062034
0.32047261
0.31993948
0.31971663
0.31910574
0.31879098
0.31815753
0.31779255
0.31714117
0.31673973
0.31608191
0.31557951
0.31485223
0.31428035
0.31358755
0.3130238
0.31216003
0.3117797
0.31089633
0.31013736
0.30996271
0.3088354
0.30895547
0.30830392
0.30654249
0.30668923
0.30564657
0.30353603
0.30346018
0.30280664
0.30018636
0.29982077
0.2997865
0.29622645
0.29145438
0.29009971
0.29252993
0.0044034854
0.01358301
0.023543515
0.034326812
0.045869742
0.057857211
0.06962018
0.08043159
0.089925711
0.098122468
0.10522194
0.11144653
0.11698334
0.12198006
0.12655037
0.13078061
0.13473689
0.13846987
0.14201798
0.14541206
0.14867807
0.15183647
0.15490366
0.15789357
0.16081713
0.16368327
0.16649902
0.16926954
0.17199855
0.1746882
0.17733914
0.17995082
0.1825216
0.18504944
0.18753273
0.18997059
0.19236391
0.19471635
0.19703525
0.19933255
0.2016258
0.20393883
0.20630261
0.20875645
0.21134962
0.21414557
0.21723415
0.22077265
0.22515606
0.23207423
0.24894069
0.28431446