/*--------------------------------*- C++ -*----------------------------------*\
| =========                 |                                                 |
| \\      /  F ield         | OpenFOAM: The Open Source CFD Toolbox           |
|  \\    /   O peration     | Version:  2506                                  |
|   \\  /    A nd           | Website:  www.openfoam.com                      |
|    \\/     M anipulation  |                                                 |
\*---------------------------------------------------------------------------*/
FoamFile
{
    version     2.0;
    format      ascii;
    arch        "LSB;label=32;scalar=64";
    class       volScalarField;
    location    "0.008";
    object      p;
}
// * * * * * * * * * * * * * * * * * * * * * * * * * * * * * * * * * * * * * //

dimensions      [1 -1 -2 0 0 0 0];

internalField   nonuniform List<scalar> 
13761
(
47001.256
47001.246
47001.236
47001.225
47001.213
47001.201
47001.187
47001.173
47001.158
47001.143
47001.126
47001.109
47001.091
47001.071
47001.051
47001.03
47001.007
47000.982
47000.954
47000.922
47000.885
47000.843
47000.795
47000.742
46993.048
46993.045
46993.043
46993.041
46993.038
46993.035
46993.032
46993.029
46993.026
46993.023
46993.019
46993.016
46993.012
46993.008
46993.004
46992.999
46992.995
46992.99
46992.985
46992.979
46992.973
46992.967
46992.961
46992.954
46992.947
46992.939
46992.931
46992.923
46992.913
46992.904
46992.894
46992.883
46992.872
46992.86
46992.847
46992.834
46992.82
46992.805
46992.79
46992.774
46992.757
46992.739
46992.721
46992.701
46992.679
46992.655
46992.627
46992.595
46992.557
46992.515
46985.081
46985.078
46985.076
46985.073
46985.071
46985.068
46985.065
46985.062
46985.059
46985.056
46985.052
46985.049
46985.045
46985.041
46985.037
46985.033
46985.028
46985.024
46985.019
46985.013
46985.008
46985.002
46984.996
46984.99
46984.983
46984.976
46984.969
46984.961
46984.953
46984.944
46984.935
46984.926
46984.915
46984.905
46984.894
46984.882
46984.87
46984.857
46984.843
46984.829
46984.815
46984.8
46984.785
46984.768
46984.75
46984.729
46984.706
46984.678
46977.209
46977.206
46977.204
46977.202
46977.199
46977.196
46977.194
46977.191
46977.187
46977.184
46977.181
46977.177
46977.174
46977.17
46977.166
46977.162
46977.157
46977.153
46977.148
46977.143
46977.138
46977.133
46977.127
46977.121
46977.115
46977.108
46977.101
46977.094
46977.087
46977.079
46977.07
46977.061
46977.052
46977.042
46977.032
46977.021
46977.01
46976.999
46976.986
46976.974
46976.961
46976.948
46976.934
46976.919
46976.903
46976.886
46969.796
46969.794
46969.792
46969.79
46969.787
46969.785
46969.782
46969.779
46969.776
46969.773
46969.77
46969.767
46969.763
46969.76
46969.756
46969.752
46969.747
46969.743
46969.738
46969.733
46969.728
46969.722
46969.716
46969.71
46969.704
46969.697
46969.69
46969.682
46969.674
46969.665
46969.656
46969.646
46969.636
46969.626
46969.614
46969.602
46969.59
46969.577
46969.563
46969.549
46969.534
46969.518
46969.502
46962.377
46962.375
46962.373
46962.371
46962.368
46962.366
46962.363
46962.36
46962.357
46962.354
46962.351
46962.347
46962.343
46962.339
46962.335
46962.331
46962.327
46962.322
46962.317
46962.312
46962.306
46962.301
46962.295
46962.288
46962.281
46962.274
46962.267
46962.258
46962.25
46962.241
46962.231
46962.221
46962.21
46962.199
46962.187
46962.174
46962.16
46962.146
46962.131
46955.118
46955.116
46955.114
46955.111
46955.109
46955.107
46955.104
46955.101
46955.099
46955.096
46955.092
46955.089
46955.086
46955.082
46955.079
46955.075
46955.07
46955.066
46955.061
46955.057
46955.051
46955.046
46955.04
46955.034
46955.028
46955.021
46955.014
46955.007
46954.999
46954.99
46954.981
46954.972
46954.962
46954.951
46954.94
46947.877
46947.875
46947.873
46947.871
46947.869
46947.866
46947.863
46947.861
46947.858
46947.855
46947.852
46947.848
46947.845
46947.841
46947.838
46947.834
46947.83
46947.825
46947.821
46947.816
46947.811
46947.806
46947.801
46947.796
46947.79
46947.784
46290.834
46290.833
46290.832
46290.83
46290.829
46290.828
46290.827
46290.825
46290.824
46290.823
46290.822
46290.821
46290.82
46290.819
46290.818
46290.818
46290.817
46290.817
46290.817
46290.817
46290.817
46290.818
46290.819
46290.821
46290.822
46290.825
46290.828
46290.831
46290.836
46290.841
46290.847
46290.854
46290.862
46290.872
46290.883
46290.895
46290.91
46290.927
46290.946
46290.968
46290.993
46291.022
46291.054
46291.09
46291.131
46291.177
46291.227
46291.282
46291.342
46298.502
46298.5
46298.499
46298.498
46298.497
46298.495
46298.494
46298.493
46298.492
46298.49
46298.489
46298.488
46298.487
46298.486
46298.485
46298.485
46298.484
46298.484
46298.484
46298.484
46298.484
46298.484
46298.485
46298.487
46298.488
46298.49
46298.493
46298.496
46298.5
46298.505
46298.511
46298.517
46298.525
46298.534
46298.544
46298.557
46298.57
46298.586
46298.605
46298.626
46298.65
46298.677
46298.708
46298.743
46298.783
46298.827
46298.875
46298.928
46298.987
46299.05
46299.12
46299.197
46299.284
46299.383
46299.502
46299.66
46299.906
46300.227
46300.597
46301.001
46301.442
46301.924
46302.445
46303.013
46303.632
46304.306
46305.044
46305.847
46306.723
46307.676
46308.714
46309.844
46311.073
46312.422
46313.88
46315.489
46317.219
46319.133
46321.191
46323.478
46325.957
46328.754
46331.615
46334.931
46338.465
46342.477
46346.683
46351.648
46356.515
46362.501
46306.2
46306.199
46306.198
46306.197
46306.195
46306.194
46306.193
46306.191
46306.19
46306.189
46306.188
46306.187
46306.186
46306.185
46306.184
46306.183
46306.183
46306.182
46306.182
46306.182
46306.182
46306.183
46306.183
46306.185
46306.186
46306.188
46306.19
46306.193
46306.197
46306.201
46306.207
46306.213
46306.22
46306.228
46306.238
46306.249
46306.262
46306.277
46306.295
46306.315
46306.337
46306.363
46306.393
46306.426
46306.464
46306.506
46306.552
46306.603
46306.659
46306.719
46306.786
46306.86
46306.943
46307.037
46307.154
46307.305
46307.541
46307.863
46308.218
46308.613
46309.043
46309.512
46310.021
46310.576
46311.18
46311.838
46312.554
46313.333
46314.182
46315.107
46316.114
46317.217
46318.417
46319.739
46321.175
46322.755
46324.457
46326.332
46328.345
46330.571
46332.996
46335.679
46338.569
46341.779
46345.158
46349.069
46353.386
46358.046
46362.759
46368.549
46374.327
46381.385
46388.564
46396.981
46405.638
46415.458
46425.663
46436.811
46448.444
46313.915
46313.914
46313.913
46313.912
46313.911
46313.909
46313.908
46313.907
46313.905
46313.904
46313.903
46313.902
46313.901
46313.9
46313.899
46313.898
46313.898
46313.897
46313.897
46313.897
46313.897
46313.897
46313.898
46313.898
46313.9
46313.901
46313.904
46313.906
46313.91
46313.914
46313.918
46313.924
46313.931
46313.939
46313.948
46313.959
46313.971
46313.985
46314.002
46314.021
46314.042
46314.067
46314.095
46314.127
46314.163
46314.203
46314.247
46314.295
46314.348
46314.405
46314.467
46314.537
46314.614
46314.706
46314.813
46314.96
46315.202
46315.503
46315.868
46316.255
46316.681
46317.141
46317.643
46318.188
46318.782
46319.426
46320.129
46320.891
46321.723
46322.629
46323.616
46324.696
46325.869
46327.156
46328.551
46330.085
46331.737
46333.563
46335.534
46337.694
46340.051
46342.659
46345.508
46348.566
46351.976
46355.734
46359.902
46364.415
46369.043
46374.712
46380.341
46387.186
46394.168
46402.384
46410.876
46420.522
46430.583
46441.579
46453.063
46465.382
46478.243
46491.881
46505.928
46520.351
46321.553
46321.552
46321.551
46321.55
46321.549
46321.547
46321.546
46321.545
46321.543
46321.542
46321.541
46321.54
46321.539
46321.538
46321.537
46321.536
46321.535
46321.535
46321.534
46321.534
46321.534
46321.534
46321.534
46321.535
46321.536
46321.537
46321.539
46321.542
46321.545
46321.548
46321.553
46321.558
46321.564
46321.571
46321.58
46321.59
46321.601
46321.614
46321.63
46321.647
46321.668
46321.691
46321.718
46321.748
46321.781
46321.819
46321.861
46321.907
46321.956
46322.01
46322.07
46322.136
46322.213
46322.275
46322.439
46322.5
46322.665
46323.04
46323.359
46323.772
46324.187
46324.654
46325.153
46325.696
46326.286
46326.927
46327.625
46328.383
46329.208
46330.105
46331.076
46332.137
46333.286
46334.546
46335.911
46337.414
46339.045
46340.842
46342.789
46344.916
46347.245
46349.759
46352.578
46355.562
46358.832
46362.444
46366.488
46370.972
46375.452
46380.956
46386.408
46393.055
46399.86
46407.857
46416.167
46425.609
46435.513
46446.353
46457.708
46469.869
46482.567
46496.032
46509.974
46524.367
46539.09
46554.633
46571.809
46329.226
46329.225
46329.224
46329.223
46329.221
46329.22
46329.219
46329.218
46329.216
46329.215
46329.214
46329.212
46329.211
46329.21
46329.209
46329.208
46329.208
46329.207
46329.206
46329.206
46329.206
46329.206
46329.206
46329.206
46329.207
46329.208
46329.21
46329.212
46329.214
46329.218
46329.222
46329.226
46329.232
46329.238
46329.246
46329.255
46329.266
46329.278
46329.293
46329.309
46329.328
46329.35
46329.375
46329.404
46329.436
46329.472
46329.512
46329.556
46329.604
46329.657
46329.715
46329.779
46329.852
46329.936
46330.026
46330.21
46330.502
46330.759
46331.103
46331.475
46331.88
46332.324
46332.805
46333.332
46333.906
46334.528
46335.208
46335.947
46336.751
46337.627
46338.577
46339.614
46340.737
46341.966
46343.302
46344.768
46346.361
46348.113
46350.022
46352.094
46354.363
46356.808
46359.537
46362.464
46365.669
46369.235
46373.138
46377.47
46381.885
46387.205
46392.597
46399.042
46405.668
46413.44
46421.56
46430.789
46440.515
46451.185
46462.405
46474.422
46486.98
46500.291
46514.127
46528.498
46543.262
46558.823
46575.982
46595.053
46614.759
46634.147
46336.826
46336.825
46336.824
46336.823
46336.822
46336.82
46336.819
46336.818
46336.816
46336.815
46336.814
46336.813
46336.812
46336.81
46336.809
46336.808
46336.808
46336.807
46336.806
46336.806
46336.806
46336.805
46336.806
46336.806
46336.807
46336.808
46336.809
46336.811
46336.813
46336.816
46336.82
46336.824
46336.83
46336.836
46336.843
46336.852
46336.862
46336.874
46336.888
46336.904
46336.923
46336.944
46336.968
46336.996
46337.028
46337.063
46337.102
46337.146
46337.194
46337.246
46337.304
46337.368
46337.441
46337.526
46337.628
46337.767
46338.004
46338.283
46338.63
46338.997
46339.398
46339.838
46340.308
46340.826
46341.386
46341.999
46342.666
46343.392
46344.182
46345.043
46345.977
46346.998
46348.102
46349.31
46350.619
46352.055
46353.621
46355.333
46357.21
46359.217
46361.452
46363.859
46366.534
46369.399
46372.525
46375.965
46379.846
46384.113
46388.426
46393.579
46398.833
46405.097
46411.586
46419.148
46427.079
46436.082
46445.613
46456.091
46467.164
46479.045
46491.485
46504.663
46518.405
46532.748
46547.557
46563.133
46580.239
46599.146
46618.514
46637.268
46652.056
46662.239
46680.419
46344.244
46344.242
46344.241
46344.24
46344.239
46344.238
46344.237
46344.235
46344.234
46344.233
46344.232
46344.231
46344.23
46344.229
46344.228
46344.227
46344.227
46344.226
46344.226
46344.226
46344.226
46344.226
46344.226
46344.227
46344.228
46344.23
46344.232
46344.235
46344.238
46344.241
46344.246
46344.251
46344.258
46344.265
46344.274
46344.284
46344.296
46344.31
46344.325
46344.343
46344.364
46344.388
46344.415
46344.446
46344.48
46344.519
46344.562
46344.609
46344.661
46344.718
46344.78
46344.849
46344.927
46345.018
46345.121
46345.271
46345.488
46345.772
46346.112
46346.475
46346.878
46347.306
46347.78
46348.29
46348.847
46349.451
46350.108
46350.825
46351.604
46352.455
46353.376
46354.381
46355.468
46356.653
46357.941
46359.343
46360.877
46362.54
46364.378
46366.341
46368.529
46370.85
46373.487
46376.291
46379.374
46382.76
46386.538
46390.667
46394.938
46399.959
46405.133
46411.235
46417.59
46424.961
46432.729
46441.522
46450.863
46461.137
46472.04
46483.764
46496.084
46509.147
46522.808
46537.121
46551.963
46567.544
46584.563
46603.242
46622.202
46640.316
46654.365
46664.295
46682.507
46698.8
46712.705
46351.381
46351.38
46351.379
46351.377
46351.376
46351.375
46351.374
46351.373
46351.372
46351.37
46351.369
46351.368
46351.368
46351.367
46351.366
46351.366
46351.365
46351.365
46351.365
46351.365
46351.366
46351.366
46351.368
46351.369
46351.371
46351.373
46351.376
46351.379
46351.383
46351.388
46351.394
46351.401
46351.408
46351.417
46351.428
46351.44
46351.454
46351.47
46351.488
46351.509
46351.532
46351.559
46351.59
46351.624
46351.663
46351.705
46351.753
46351.805
46351.861
46351.923
46351.991
46352.066
46352.15
46352.243
46352.365
46352.504
46352.749
46353.059
46353.393
46353.777
46354.169
46354.614
46355.082
46355.599
46356.158
46356.765
46357.424
46358.139
46358.914
46359.756
46360.668
46361.663
46362.739
46363.914
46365.188
46366.571
46368.083
46369.711
46371.52
46373.442
46375.599
46377.88
46380.481
46383.205
46386.228
46389.541
46393.228
46397.295
46401.528
46406.409
46411.496
46417.426
46423.675
46430.878
46438.497
46447.094
46456.253
46466.325
46477.048
46488.601
46500.785
46513.732
46527.323
46541.61
46556.476
46572.046
46588.937
46607.339
46625.841
46643.298
46656.61
46666.358
46684.63
46701.001
46714.769
46733.441
46722.726
46358.736
46358.734
46358.733
46358.732
46358.731
46358.73
46358.729
46358.728
46358.726
46358.725
46358.724
46358.723
46358.722
46358.722
46358.721
46358.72
46358.72
46358.72
46358.72
46358.72
46358.721
46358.721
46358.722
46358.724
46358.726
46358.728
46358.731
46358.734
46358.739
46358.743
46358.749
46358.756
46358.764
46358.773
46358.783
46358.795
46358.809
46358.825
46358.843
46358.864
46358.888
46358.915
46358.945
46358.979
46359.018
46359.06
46359.108
46359.159
46359.215
46359.277
46359.344
46359.418
46359.5
46359.596
46359.706
46359.862
46360.098
46360.403
46360.755
46361.128
46361.542
46361.979
46362.456
46362.969
46363.524
46364.126
46364.777
46365.484
46366.251
46367.086
46367.989
46368.975
46370.043
46371.203
46372.462
46373.819
46375.311
46376.909
46378.69
46380.582
46382.697
46384.927
46387.475
46390.151
46393.11
46396.349
46399.955
46403.969
46408.093
46412.851
46417.868
46423.668
46429.809
46436.853
46444.346
46452.774
46461.781
46471.666
46482.217
46493.587
46505.614
46518.427
46531.943
46546.2
46561.079
46576.626
46593.357
46611.435
46629.446
46646.245
46658.82
46668.461
46686.812
46703.214
46716.831
46734.974
46724.733
46759.974
46366.205
46366.204
46366.203
46366.202
46366.201
46366.2
46366.198
46366.197
46366.196
46366.195
46366.194
46366.193
46366.192
46366.191
46366.19
46366.19
46366.189
46366.189
46366.189
46366.189
46366.189
46366.19
46366.191
46366.192
46366.193
46366.196
46366.198
46366.201
46366.205
46366.21
46366.215
46366.221
46366.228
46366.237
46366.247
46366.258
46366.271
46366.286
46366.304
46366.323
46366.346
46366.371
46366.4
46366.433
46366.47
46366.51
46366.555
46366.605
46366.658
46366.716
46366.78
46366.851
46366.929
46367.015
46367.133
46367.268
46367.501
46367.804
46368.134
46368.519
46368.916
46369.363
46369.836
46370.353
46370.91
46371.513
46372.165
46372.871
46373.632
46374.459
46375.351
46376.322
46377.372
46378.515
46379.76
46381.105
46382.581
46384.145
46385.886
46387.734
46389.818
46392.004
46394.494
46397.134
46400.029
46403.217
46406.724
46410.635
46414.761
46419.39
46424.328
46429.982
46436.022
46442.916
46450.284
46458.547
46467.409
46477.126
46487.518
46498.715
46510.582
46523.24
46536.658
46550.877
46565.761
46581.272
46597.82
46615.541
46633.04
46649.177
46661.022
46670.622
46689.061
46705.441
46718.881
46736.485
46726.668
46761.917
46758.833
46748.56
46373.816
46373.815
46373.813
46373.812
46373.811
46373.81
46373.809
46373.807
46373.806
46373.805
46373.804
46373.803
46373.802
46373.801
46373.8
46373.799
46373.799
46373.798
46373.798
46373.798
46373.798
46373.798
46373.799
46373.8
46373.801
46373.803
46373.805
46373.808
46373.812
46373.816
46373.821
46373.826
46373.833
46373.841
46373.85
46373.86
46373.873
46373.887
46373.903
46373.921
46373.942
46373.966
46373.994
46374.025
46374.059
46374.098
46374.14
46374.187
46374.237
46374.292
46374.352
46374.417
46374.491
46374.577
46374.676
46374.82
46375.044
46375.332
46375.672
46376.033
46376.433
46376.863
46377.331
46377.837
46378.385
46378.98
46379.623
46380.321
46381.075
46381.893
46382.777
46383.738
46384.775
46385.901
46387.127
46388.454
46389.918
46391.476
46393.206
46395.035
46397.071
46399.24
46401.676
46404.255
46407.081
46410.19
46413.631
46417.41
46421.465
46425.989
46430.835
46436.367
46442.298
46449.031
46456.275
46464.383
46473.119
46482.688
46492.947
46503.989
46515.7
46528.188
46541.472
46555.624
46570.503
46585.974
46602.32
46619.659
46636.642
46652.099
46663.234
46672.844
46691.365
46707.667
46720.916
46737.978
46728.543
46763.867
46759.647
46749.317
46838.571
46381.577
46381.576
46381.575
46381.574
46381.572
46381.571
46381.57
46381.568
46381.567
46381.566
46381.565
46381.564
46381.562
46381.561
46381.561
46381.56
46381.559
46381.558
46381.558
46381.558
46381.558
46381.558
46381.558
46381.559
46381.56
46381.562
46381.564
46381.566
46381.569
46381.573
46381.577
46381.582
46381.589
46381.596
46381.604
46381.614
46381.625
46381.638
46381.653
46381.671
46381.691
46381.714
46381.739
46381.769
46381.802
46381.838
46381.879
46381.923
46381.971
46382.022
46382.079
46382.142
46382.212
46382.289
46382.396
46382.524
46382.742
46383.032
46383.349
46383.715
46384.101
46384.53
46384.99
46385.492
46386.035
46386.623
46387.258
46387.948
46388.692
46389.5
46390.371
46391.317
46392.341
46393.449
46394.652
46395.951
46397.379
46398.909
46400.609
46402.417
46404.427
46406.53
46408.926
46411.466
46414.242
46417.297
46420.637
46424.37
46428.347
46432.741
46437.528
46442.885
46448.696
46455.267
46462.375
46470.313
46478.908
46488.328
46498.461
46509.371
46520.952
46533.279
46546.4
46560.439
46575.285
46590.717
46606.857
46623.789
46640.247
46655.012
46665.453
46675.116
46693.703
46709.877
46722.931
46739.47
46730.385
46765.839
46760.516
46750.044
46841.144
46760.44
46389.457
46389.456
46389.455
46389.453
46389.452
46389.451
46389.449
46389.448
46389.447
46389.445
46389.444
46389.443
46389.442
46389.441
46389.44
46389.439
46389.438
46389.437
46389.437
46389.436
46389.436
46389.436
46389.436
46389.437
46389.438
46389.439
46389.44
46389.443
46389.445
46389.448
46389.452
46389.457
46389.462
46389.469
46389.476
46389.485
46389.496
46389.508
46389.522
46389.538
46389.557
46389.578
46389.603
46389.63
46389.661
46389.696
46389.734
46389.776
46389.821
46389.869
46389.923
46389.981
46390.047
46390.125
46390.216
46390.351
46390.563
46390.835
46391.161
46391.501
46391.881
46392.289
46392.733
46393.219
46393.744
46394.317
46394.939
46395.615
46396.347
46397.145
46398.008
46398.946
46399.961
46401.063
46402.263
46403.559
46404.978
46406.489
46408.154
46409.924
46411.896
46414.007
46416.349
46418.848
46421.568
46424.556
46427.84
46431.494
46435.355
46439.637
46444.3
46449.531
46455.222
46461.613
46468.573
46476.33
46484.778
46494.046
46504.058
46514.846
46526.312
46538.498
46551.451
46565.334
46580.103
46595.478
46611.417
46627.924
46643.843
46657.892
46667.67
46677.414
46696.05
46712.051
46724.917
46740.982
46732.228
46767.853
46761.448
46750.702
46843.775
46762.09
46706.498
46911.335
46397.485
46397.484
46397.483
46397.481
46397.48
46397.479
46397.477
46397.476
46397.475
46397.473
46397.472
46397.471
46397.47
46397.468
46397.467
46397.466
46397.465
46397.464
46397.464
46397.463
46397.463
46397.462
46397.462
46397.462
46397.463
46397.464
46397.465
46397.467
46397.469
46397.471
46397.475
46397.479
46397.483
46397.489
46397.496
46397.504
46397.513
46397.524
46397.537
46397.552
46397.569
46397.589
46397.612
46397.637
46397.666
46397.698
46397.734
46397.773
46397.815
46397.86
46397.91
46397.965
46398.028
46398.094
46398.198
46398.313
46398.522
46398.808
46399.11
46399.463
46399.834
46400.24
46400.678
46401.154
46401.669
46402.23
46402.839
46403.503
46404.222
46405.006
46405.854
46406.777
46407.774
46408.856
46410.028
46411.292
46412.679
46414.172
46415.823
46417.592
46419.531
46421.577
46423.885
46426.332
46429.017
46431.956
46435.162
46438.724
46442.545
46446.697
46451.281
46456.351
46461.915
46468.129
46474.934
46482.492
46490.765
46499.852
46509.719
46520.383
46531.752
46543.822
46556.618
46570.319
46584.954
46600.24
46615.974
46632.042
46647.407
46660.721
46669.878
46679.733
46698.393
46714.175
46726.868
46742.524
46734.103
46769.922
46762.457
46751.241
46846.474
46763.883
46705.114
46911.051
46959.511
46405.681
46405.679
46405.678
46405.677
46405.676
46405.674
46405.673
46405.671
46405.67
46405.669
46405.667
46405.666
46405.665
46405.663
46405.662
46405.661
46405.66
46405.659
46405.658
46405.657
46405.656
46405.656
46405.656
46405.655
46405.656
46405.656
46405.657
46405.658
46405.66
46405.662
46405.665
46405.668
46405.672
46405.677
46405.683
46405.69
46405.699
46405.709
46405.72
46405.734
46405.75
46405.768
46405.789
46405.813
46405.84
46405.87
46405.903
46405.94
46405.979
46406.022
46406.069
46406.122
46406.181
46406.25
46406.338
46406.46
46406.665
46406.925
46407.226
46407.558
46407.919
46408.313
46408.738
46409.201
46409.703
46410.247
46410.838
46411.481
46412.178
46412.939
46413.766
46414.671
46415.654
46416.727
46417.892
46419.154
46420.527
46421.992
46423.599
46425.315
46427.227
46429.272
46431.544
46433.968
46436.606
46439.488
46442.655
46446.141
46449.885
46453.926
46458.419
46463.336
46468.786
46474.809
46481.449
46488.795
46496.876
46505.761
46515.459
46525.982
46537.25
46549.221
46561.888
46575.404
46589.85
46604.985
46620.501
46636.123
46650.906
46663.487
46672.08
46682.065
46700.726
46716.252
46728.784
46744.104
46736.029
46772.049
46763.553
46751.652
46849.223
46765.841
46703.719
46910.621
46964.998
46600.68
46413.996
46413.995
46413.994
46413.992
46413.991
46413.99
46413.988
46413.987
46413.985
46413.984
46413.982
46413.981
46413.98
46413.978
46413.977
46413.976
46413.974
46413.973
46413.972
46413.971
46413.97
46413.969
46413.969
46413.968
46413.968
46413.968
46413.969
46413.97
46413.971
46413.972
46413.975
46413.977
46413.981
46413.985
46413.99
46413.996
46414.004
46414.013
46414.023
46414.035
46414.05
46414.066
46414.086
46414.108
46414.133
46414.161
46414.192
46414.226
46414.263
46414.304
46414.348
46414.398
46414.454
46414.517
46414.604
46414.713
46414.916
46415.167
46415.462
46415.79
46416.136
46416.523
46416.935
46417.391
46417.881
46418.419
46419
46419.636
46420.324
46421.075
46421.887
46422.772
46423.728
46424.77
46425.9
46427.128
46428.473
46429.928
46431.529
46433.244
46435.12
46437.12
46439.348
46441.72
46444.326
46447.156
46450.258
46453.655
46457.346
46461.281
46465.698
46470.473
46475.806
46481.654
46488.139
46495.277
46503.154
46511.808
46521.299
46531.641
46542.787
46554.663
46567.22
46580.566
46594.793
46609.705
46624.964
46640.144
46654.33
46666.185
46674.289
46684.428
46703.059
46718.296
46730.675
46745.729
46738.004
46774.232
46764.744
46751.983
46851.982
46767.995
46702.292
46910.042
46970.385
46607.566
46413.645
46422.483
46422.481
46422.48
46422.479
46422.478
46422.476
46422.475
46422.473
46422.472
46422.47
46422.469
46422.467
46422.466
46422.464
46422.463
46422.462
46422.46
46422.459
46422.458
46422.457
46422.456
46422.455
46422.454
46422.453
46422.453
46422.453
46422.453
46422.453
46422.454
46422.455
46422.457
46422.459
46422.462
46422.466
46422.471
46422.476
46422.483
46422.491
46422.501
46422.512
46422.526
46422.542
46422.56
46422.581
46422.605
46422.632
46422.662
46422.695
46422.731
46422.77
46422.814
46422.862
46422.917
46422.984
46423.062
46423.182
46423.377
46423.615
46423.911
46424.215
46424.561
46424.929
46425.332
46425.77
46426.246
46426.765
46427.327
46427.941
46428.608
46429.336
46430.126
46430.99
46431.927
46432.95
46434.062
46435.273
46436.592
46438.011
46439.567
46441.236
46443.087
46445.06
46447.259
46449.595
46452.158
46454.929
46457.993
46461.321
46464.959
46468.784
46473.129
46477.756
46482.989
46488.658
46494.984
46501.91
46509.582
46517.998
46527.263
46537.396
46548.382
46560.137
46572.589
46585.781
46599.773
46614.404
46629.353
46644.084
46657.671
46668.827
46676.516
46686.846
46705.412
46720.328
46732.56
46747.4
46740.008
46776.455
46766.039
46752.281
46854.703
46770.367
46700.813
46909.283
46975.661
46614.48
46416.306
46625.751
46430.964
46430.963
46430.962
46430.961
46430.959
46430.958
46430.956
46430.955
46430.953
46430.952
46430.95
46430.949
46430.947
46430.946
46430.945
46430.943
46430.942
46430.94
46430.939
46430.938
46430.937
46430.936
46430.935
46430.934
46430.933
46430.933
46430.933
46430.933
46430.934
46430.935
46430.936
46430.938
46430.941
46430.944
46430.948
46430.953
46430.959
46430.967
46430.976
46430.987
46431
46431.014
46431.032
46431.052
46431.074
46431.1
46431.129
46431.16
46431.194
46431.232
46431.273
46431.319
46431.372
46431.431
46431.514
46431.625
46431.801
46432.043
46432.322
46432.63
46432.966
46433.336
46433.735
46434.173
46434.648
46435.166
46435.727
46436.338
46436.999
46437.72
46438.498
46439.349
46440.268
46441.272
46442.361
46443.544
46444.838
46446.237
46447.775
46449.425
46451.238
46453.181
46455.328
46457.616
46460.136
46462.844
46465.836
46469.077
46472.646
46476.377
46480.651
46485.142
46490.268
46495.772
46501.961
46508.697
46516.175
46524.356
46533.376
46543.254
46554.026
46565.621
46577.953
46591
46604.764
46619.077
46633.67
46647.946
46660.935
46671.433
46678.787
46689.328
46707.801
46722.372
46734.456
46749.108
46742.012
46778.687
46767.451
46752.577
46857.341
46772.961
46699.29
46908.347
46980.821
46621.416
46419.085
46623.11
46998.188
46439.456
46439.455
46439.453
46439.452
46439.451
46439.449
46439.448
46439.447
46439.445
46439.444
46439.442
46439.441
46439.439
46439.438
46439.437
46439.435
46439.434
46439.433
46439.432
46439.431
46439.43
46439.429
46439.429
46439.428
46439.428
46439.428
46439.429
46439.429
46439.43
46439.432
46439.434
46439.437
46439.441
46439.445
46439.45
46439.456
46439.464
46439.473
46439.484
46439.496
46439.511
46439.528
46439.547
46439.569
46439.595
46439.623
46439.654
46439.689
46439.726
46439.767
46439.812
46439.862
46439.917
46439.989
46440.062
46440.185
46440.383
46440.626
46440.917
46441.218
46441.56
46441.917
46442.312
46442.74
46443.205
46443.711
46444.261
46444.861
46445.512
46446.221
46446.989
46447.826
46448.73
46449.714
46450.782
46451.945
46453.212
46454.58
46456.084
46457.7
46459.478
46461.376
46463.488
46465.72
46468.197
46470.843
46473.798
46476.954
46480.483
46484.095
46488.31
46492.65
46497.68
46503.02
46509.064
46515.606
46522.894
46530.844
46539.623
46549.238
46559.755
46571.131
46583.302
46596.198
46609.745
46623.728
46637.926
46651.739
46664.14
46674.019
46681.124
46691.89
46710.233
46724.436
46736.376
46750.836
46743.988
46780.887
46768.98
46752.88
46859.872
46775.767
46697.759
46907.237
46985.861
46628.369
46421.978
46620.594
46992.91
47207.937
46447.957
46447.956
46447.955
46447.954
46447.952
46447.951
46447.949
46447.948
46447.947
46447.945
46447.944
46447.942
46447.941
46447.94
46447.939
46447.937
46447.936
46447.935
46447.935
46447.934
46447.933
46447.933
46447.933
46447.933
46447.933
46447.934
46447.935
46447.936
46447.938
46447.94
46447.943
46447.947
46447.951
46447.957
46447.963
46447.971
46447.98
46447.991
46448.003
46448.017
46448.034
46448.053
46448.075
46448.1
46448.128
46448.16
46448.194
46448.232
46448.273
46448.317
46448.365
46448.42
46448.482
46448.537
46448.656
46448.74
46448.903
46449.19
46449.472
46449.798
46450.14
46450.516
46450.919
46451.356
46451.825
46452.335
46452.886
46453.483
46454.129
46454.832
46455.591
46456.419
46457.313
46458.286
46459.339
46460.481
46461.723
46463.062
46464.531
46466.113
46467.852
46469.719
46471.778
46473.97
46476.391
46478.968
46481.845
46484.922
46488.374
46491.881
46496.036
46500.232
46505.161
46510.333
46516.248
46522.616
46529.726
46537.461
46546
46555.331
46565.552
46576.656
46588.614
46601.331
46614.668
46628.347
46642.139
46655.472
46667.293
46676.613
46683.54
46694.529
46712.714
46726.53
46738.321
46752.577
46745.933
46783.03
46770.605
46753.157
46862.298
46778.759
46696.273
46906
46990.78
46635.333
46424.98
46618.206
46987.703
47203.525
46456.721
46456.72
46456.719
46456.717
46456.716
46456.715
46456.713
46456.712
46456.71
46456.709
46456.707
46456.706
46456.704
46456.703
46456.702
46456.701
46456.7
46456.699
46456.698
46456.697
46456.696
46456.696
46456.695
46456.695
46456.695
46456.696
46456.697
46456.698
46456.699
46456.701
46456.704
46456.708
46456.712
46456.717
46456.723
46456.73
46456.738
46456.748
46456.76
46456.773
46456.789
46456.807
46456.828
46456.852
46456.878
46456.908
46456.941
46456.977
46457.015
46457.057
46457.102
46457.153
46457.211
46457.277
46457.353
46457.492
46457.719
46457.963
46458.246
46458.562
46458.903
46459.271
46459.67
46460.096
46460.562
46461.064
46461.608
46462.199
46462.837
46463.529
46464.277
46465.091
46465.97
46466.923
46467.955
46469.077
46470.298
46471.613
46473.057
46474.606
46476.302
46478.119
46480.134
46482.262
46484.638
46487.149
46489.984
46492.965
46496.373
46499.755
46503.865
46507.906
46512.738
46517.758
46523.532
46529.715
46536.642
46544.155
46552.456
46561.516
46571.44
46582.235
46593.919
46606.416
46619.534
46632.917
46646.313
46659.167
46670.421
46679.227
46686.046
46697.24
46715.234
46728.65
46740.292
46754.333
46747.867
46785.121
46772.296
46753.371
46864.642
46781.897
46694.854
46904.698
46995.566
46642.303
46428.083
46615.95
46982.573
47199.107
47180.054
46465.717
46465.715
46465.714
46465.713
46465.711
46465.71
46465.708
46465.707
46465.705
46465.704
46465.702
46465.701
46465.699
46465.698
46465.696
46465.695
46465.694
46465.693
46465.692
46465.691
46465.69
46465.689
46465.689
46465.688
46465.688
46465.688
46465.689
46465.689
46465.691
46465.692
46465.694
46465.697
46465.701
46465.705
46465.71
46465.716
46465.724
46465.733
46465.743
46465.755
46465.769
46465.786
46465.805
46465.827
46465.851
46465.879
46465.909
46465.942
46465.978
46466.016
46466.058
46466.105
46466.158
46466.216
46466.311
46466.388
46466.563
46466.824
46467.105
46467.43
46467.762
46468.136
46468.526
46468.955
46469.415
46469.913
46470.451
46471.032
46471.66
46472.341
46473.077
46473.877
46474.74
46475.678
46476.692
46477.791
46478.983
46480.265
46481.666
46483.176
46484.835
46486.614
46488.577
46490.666
46492.984
46495.423
46498.179
46501.082
46504.412
46507.686
46511.723
46515.63
46520.367
46525.224
46530.866