/*--------------------------------*- C++ -*----------------------------------*\
| =========                 |                                                 |
| \\      /  F ield         | OpenFOAM: The Open Source CFD Toolbox           |
|  \\    /   O peration     | Version:  2506                                  |
|   \\  /    A nd           | Website:  www.openfoam.com                      |
|    \\/     M anipulation  |                                                 |
\*---------------------------------------------------------------------------*/
FoamFile
{
    version     2.0;
    format      ascii;
    arch        "LSB;label=32;scalar=64";
    class       volScalarField;
    location    "0.0205";
    object      T;
}
// * * * * * * * * * * * * * * * * * * * * * * * * * * * * * * * * * * * * * //

dimensions      [0 0 0 1 0 0 0];

internalField   nonuniform List<scalar> 
13761
(
244.11867
244.05473
243.98613
243.91295
243.83547
243.75411
243.66951
243.58249
243.49414
243.40579
243.31907
243.23593
243.15878
243.0905
243.03473
242.99591
242.97886
242.98779
243.02958
243.10562
243.21258
243.34641
243.51343
243.74904
244.27643
244.27959
244.28548
244.29409
244.30429
244.31575
244.32693
244.33707
244.34433
244.34803
244.34723
244.3421
244.33262
244.31926
244.30225
244.28194
244.25846
244.23197
244.20249
244.17002
244.13448
244.09575
244.05371
244.00819
243.95907
243.90624
243.84963
243.78923
243.72514
243.65755
243.58678
243.51329
243.43772
243.36083
243.28358
243.20706
243.13254
243.06145
242.99536
242.93607
242.88558
242.84614
242.82025
242.81045
242.81955
242.85045
242.90484
242.98473
243.09944
243.27232
244.2879
244.28733
244.28571
244.28275
244.27801
244.271
244.26133
244.24863
244.23293
244.21443
244.19363
244.1709
244.14661
244.12091
244.09392
244.0656
244.03592
244.00473
243.9719
243.93727
243.90065
243.86183
243.82065
243.77695
243.73058
243.68146
243.62954
243.57486
243.51752
243.45774
243.39583
243.33223
243.26748
243.20227
243.13738
243.07369
243.01218
242.95388
242.89993
242.85153
242.80998
242.77677
242.75356
242.74221
242.74469
242.76284
242.79911
242.85629
244.56792
244.56305
244.55316
244.53746
244.51637
244.48931
244.45695
244.41945
244.37846
244.33525
244.29161
244.24832
244.20608
244.16491
244.1248
244.08546
244.04666
244.00807
243.96945
243.9305
243.89096
243.85058
243.80912
243.76637
243.72218
243.67639
243.62892
243.57973
243.52886
243.47641
243.42259
243.36768
243.31208
243.25629
243.20087
243.14646
243.09374
243.04344
242.99633
242.95319
242.91484
242.88217
242.85616
242.83804
242.82928
242.83143
244.13334
244.13483
244.13739
244.14091
244.1446
244.14806
244.1503
244.15078
244.14867
244.14383
244.1362
244.1261
244.11381
244.09965
244.08384
244.06654
244.04784
244.02777
244.00634
243.9835
243.95918
243.93331
243.90581
243.87657
243.84554
243.81266
243.77791
243.7413
243.70288
243.66276
243.62112
243.57818
243.53423
243.48962
243.44472
243.39998
243.35588
243.31291
243.27157
243.23239
243.19589
243.16257
243.13292
244.80622
244.80335
244.79732
244.78758
244.77421
244.75672
244.73532
244.71
244.68169
244.65129
244.62005
244.58864
244.55766
244.52724
244.49749
244.4683
244.43958
244.41116
244.38289
244.35463
244.32621
244.29749
244.26833
244.23862
244.20825
244.17716
244.14528
244.1126
244.07911
244.04486
244.00992
243.97442
243.93851
243.90238
243.86626
243.8304
243.79505
243.76043
243.72666
244.74882
244.74739
244.74464
244.74038
244.73503
244.72845
244.72106
244.7129
244.70447
244.69591
244.68748
244.67914
244.67088
244.66255
244.65408
244.64535
244.63626
244.62673
244.61671
244.60611
244.59489
244.58298
244.57035
244.55696
244.54278
244.5278
244.51202
244.49548
244.47818
244.46017
244.44153
244.42234
244.40271
244.38275
244.36257
244.9707
244.97228
244.9751
244.97918
244.9838
244.98871
244.99297
244.99614
244.99733
244.99638
244.99308
244.9878
244.98078
244.97244
244.96312
244.95314
244.9427
244.93195
244.92098
244.90988
244.89868
244.88741
244.87608
244.86473
244.85334
244.84195
247.30327
247.30337
247.30359
247.30397
247.30455
247.30535
247.3064
247.30769
247.30917
247.31078
247.3125
247.31429
247.31613
247.31803
247.31996
247.32194
247.32395
247.32601
247.32811
247.33026
247.33246
247.33473
247.33706
247.33947
247.34196
247.34453
247.34721
247.34999
247.35288
247.35588
247.359
247.36225
247.36562
247.36912
247.37274
247.37649
247.38036
247.38435
247.38846
247.39268
247.39702
247.40147
247.40604
247.41071
247.41548
247.4203
247.42506
247.42948
247.43284
247.29936
247.29961
247.30014
247.301
247.30221
247.30381
247.30577
247.30804
247.31051
247.31308
247.31568
247.31828
247.32086
247.32342
247.32597
247.32851
247.33106
247.33361
247.33617
247.33876
247.34138
247.34404
247.34675
247.34953
247.35238
247.3553
247.35832
247.36143
247.36463
247.36794
247.37136
247.37488
247.37851
247.38223
247.38606
247.38998
247.39398
247.39806
247.4022
247.40641
247.41068
247.41501
247.41938
247.4238
247.42825
247.43268
247.43702
247.44105
247.44419
247.44438
247.43036
247.32408
247.00195
246.52707
245.98128
245.48329
245.15417
245.01796
244.97799
244.96676
244.96203
244.9585
244.95564
244.95424
244.95408
244.95967
244.97619
245.002
245.02626
245.04082
245.0487
245.05235
245.05491
245.05545
245.05911
245.0699
245.08445
245.09481
245.09947
245.10233
245.10588
245.10418
245.09525
245.08822
245.0898
245.09183
245.08125
245.0669
245.06706
245.07934
247.29927
247.29935
247.29956
247.29996
247.30063
247.30166
247.3031
247.30495
247.30717
247.30964
247.31231
247.31511
247.31801
247.32097
247.324
247.32707
247.33019
247.33336
247.33658
247.33986
247.34322
247.34666
247.35018
247.35381
247.35753
247.36137
247.36534
247.36943
247.37366
247.37804
247.38256
247.38723
247.39205
247.39701
247.40212
247.40735
247.41272
247.41819
247.42377
247.42945
247.4352
247.44102
247.4469
247.45282
247.45872
247.46451
247.47002
247.47482
247.4779
247.47587
247.45142
247.31502
247.028
246.60017
246.05022
245.51468
245.15524
245.0055
244.96134
244.95058
244.94692
244.94438
244.94194
244.94032
244.93907
244.94143
244.95422
244.97828
245.00538
245.02597
245.03938
245.04797
245.05253
245.05526
245.05675
245.06068
245.07042
245.0808
245.08705
245.09324
245.10028
245.10181
245.09548
245.08723
245.08507
245.08412
245.07423
245.06145
245.06198
245.07484
245.08622
245.10715
245.11861
245.1133
245.11707
245.135
245.14489
245.1395
245.15559
247.27844
247.27861
247.27898
247.27959
247.28049
247.28172
247.28332
247.28525
247.28747
247.28988
247.29244
247.29511
247.29787
247.3007
247.30359
247.30656
247.3096
247.31271
247.3159
247.31916
247.3225
247.32594
247.32948
247.33313
247.3369
247.34081
247.34487
247.34908
247.35346
247.35802
247.36275
247.36768
247.37279
247.37809
247.38357
247.38924
247.39509
247.4011
247.40728
247.41362
247.4201
247.42672
247.43346
247.44031
247.44721
247.45406
247.46063
247.46641
247.4701
247.46724
247.43508
247.25412
246.96165
246.56568
246.04598
245.5213
245.16018
245.00829
244.9631
244.95155
244.9473
244.94407
244.94057
244.93733
244.93426
244.93236
244.93616
244.94968
244.97401
245.00315
245.02563
245.04025
245.04758
245.05126
245.05235
245.05449
245.06029
245.06825
245.07618
245.08434
245.09299
245.09879
245.09509
245.08763
245.08322
245.07921
245.0698
245.05824
245.05949
245.07384
245.08507
245.10182
245.11064
245.10637
245.11166
245.12934
245.13857
245.13435
245.15017
245.18665
245.19832
245.21472
245.26438
245.29491
247.27472
247.27482
247.27504
247.27541
247.27598
247.27677
247.2778
247.27907
247.28054
247.28215
247.28387
247.28567
247.28754
247.28947
247.29145
247.29349
247.29558
247.29773
247.29994
247.30222
247.30457
247.30701
247.30954
247.31216
247.3149
247.31776
247.32075
247.32388
247.32716
247.3306
247.33421
247.33799
247.34195
247.3461
247.35043
247.35495
247.35966
247.36456
247.36964
247.37491
247.38037
247.38602
247.39186
247.39788
247.40405
247.4103
247.41646
247.42208
247.42598
247.424
247.39421
247.21844
246.88695
246.49414
246.01611
245.5191
245.18965
245.03307
244.98229
244.96717
244.9603
244.95458
244.94892
244.94401
244.93988
244.93643
244.93691
244.94327
244.95844
244.98499
245.01485
245.03609
245.04764
245.0511
245.04864
245.04794
245.05221
245.05852
245.06706
245.07539
245.0855
245.09558
245.09565
245.08939
245.08216
245.07463
245.06505
245.05344
245.05687
245.07297
245.08351
245.09494
245.10125
245.09957
245.10993
245.12722
245.13396
245.13014
245.14488
245.17806
245.18706
245.20329
245.25556
245.28405
245.30182
245.35528
245.38191
247.27566
247.27576
247.27599
247.27639
247.27698
247.2778
247.27888
247.2802
247.2817
247.28335
247.28508
247.28688
247.28873
247.29062
247.29255
247.29451
247.29651
247.29855
247.30064
247.30278
247.30497
247.30723
247.30956
247.31196
247.31445
247.31703
247.3197
247.32249
247.32538
247.32839
247.33152
247.33478
247.33817
247.34168
247.34532
247.34909
247.35298
247.35699
247.36111
247.36536
247.36972
247.3742
247.3788
247.38352
247.38836
247.39327
247.39818
247.40285
247.40664
247.40709
247.38941
247.25031
246.90705
246.48714
246.00901
245.5338
245.20159
245.03611
244.98328
244.96774
244.96081
244.9551
244.94956
244.94484
244.94122
244.93856
244.93897
244.94451
244.95806
244.98008
245.00746
245.03182
245.0472
245.05197
245.04877
245.04452
245.045
245.05122
245.05822
245.06576
245.07751
245.09112
245.09642
245.09194
245.08143
245.07111
245.06126
245.05184
245.05738
245.07388
245.08254
245.08893
245.09272
245.09508
245.11045
245.12623
245.12935
245.12516
245.14016
245.17036
245.17725
245.19206
245.24587
245.27296
245.293
245.34667
245.36986
245.40822
245.45163
245.46318
247.27426
247.27441
247.27474
247.27529
247.27613
247.27728
247.27877
247.28057
247.28262
247.28483
247.28716
247.28954
247.29198
247.29444
247.29693
247.29945
247.30199
247.30456
247.30717
247.30981
247.31249
247.31522
247.318
247.32084
247.32376
247.32675
247.32984
247.33302
247.3363
247.33968
247.34318
247.34679
247.3505
247.35433
247.35826
247.3623
247.36643
247.37066
247.37497
247.37937
247.38385
247.38842
247.39307
247.39781
247.40264
247.40754
247.41246
247.41724
247.42148
247.42366
247.41456
247.3267
247.04114
246.59344
246.07152
245.56949
245.19914
245.02841
244.97528
244.96076
244.955
244.95041
244.94597
244.94204
244.93899
244.93638
244.93686
244.94288
244.95653
244.97703
245.0015
245.02539
245.0425
245.04996
245.04821
245.04321
245.0395
245.04268
245.04962
245.05814
245.0712
245.08649
245.09625
245.09392
245.08125
245.06875
245.05821
245.05191
245.05827
245.07389
245.08082
245.08331
245.08444
245.0909
245.11044
245.12469
245.12427
245.11892
245.1355
245.16356
245.16824
245.18153
245.23534
245.26146
245.28531
245.33763
245.35839
245.4007
245.44045
245.46011
245.4553
245.44376
245.46781
247.26315
247.26336
247.26383
247.26461
247.26577
247.26736
247.26941
247.27185
247.27461
247.27756
247.28062
247.28374
247.28689
247.29006
247.29325
247.29644
247.29965
247.30288
247.30615
247.30946
247.31282
247.31626
247.31979
247.32342
247.32715
247.331
247.33497
247.33908
247.34333
247.34773
247.35227
247.35698
247.36183
247.36684
247.37199
247.37728
247.38271
247.38826
247.39394
247.39972
247.4056
247.41159
247.41768
247.42385
247.4301
247.43638
247.44256
247.44837
247.45311
247.45421
247.43765
247.32235
247.06769
246.6767
246.15163
245.60533
245.20763
245.01627
244.95414
244.9396
244.93578
244.9338
244.93199
244.93026
244.92902
244.92761
244.92933
244.93647
244.94976
244.96826
244.99133
245.01558
245.03395
245.04293
245.04301
245.03874
245.03519
245.03616
245.04121
245.05006
245.0629
245.08095
245.09441
245.09301
245.08026
245.06505
245.0563
245.05313
245.05958
245.07371
245.07952
245.07953
245.07831
245.08799
245.11043
245.12317
245.11877
245.11274
245.13214
245.15833
245.15965
245.17244
245.2246
245.24969
245.27871
245.32833
245.34776
245.39349
245.42791
245.45534
245.45549
245.44548
245.46312
245.49056
245.46515
247.24298
247.24317
247.24359
247.2443
247.24533
247.24675
247.24859
247.2508
247.25333
247.25606
247.25894
247.26192
247.26498
247.26809
247.27126
247.27448
247.27775
247.28109
247.28449
247.28797
247.29152
247.29516
247.2989
247.30274
247.30671
247.31081
247.31505
247.31945
247.32402
247.32877
247.3337
247.33881
247.34412
247.34963
247.35532
247.36119
247.36725
247.37348
247.37987
247.38643
247.39313
247.39998
247.40697
247.41408
247.42128
247.42849
247.43552
247.44194
247.44662
247.44557
247.41835
247.25912
246.99848
246.63862
246.14351
245.6146
245.21086
245.01648
244.95152
244.93556
244.93123
244.92938
244.92743
244.92516
244.92307
244.9219
244.92469
244.93263
244.94496
244.96143
244.98185
245.00551
245.02599
245.03667
245.03669
245.03214
245.02934
245.02972
245.03382
245.04161
245.05551
245.07589
245.09175
245.09216
245.07939
245.06337
245.05655
245.05603
245.06124
245.07295
245.0778
245.07561
245.07209
245.08368
245.10856
245.12002
245.11351
245.10858
245.13013
245.15362
245.1509
245.16525
245.21416
245.23774
245.27256
245.3187
245.33817
245.38619
245.41579
245.44966
245.45481
245.44774
245.45944
245.48815
245.4648
245.47133
245.55532
247.23387
247.23397
247.2342
247.23458
247.23515
247.23594
247.23698
247.23826
247.23974
247.24138
247.24312
247.24496
247.24688
247.24886
247.2509
247.253
247.25517
247.25741
247.25972
247.26211
247.26458
247.26715
247.26982
247.27261
247.27553
247.27858
247.28178
247.28515
247.28868
247.2924
247.29631
247.30042
247.30474
247.30927
247.31402
247.31899
247.32418
247.32959
247.33521
247.34106
247.34713
247.35341
247.35991
247.36661
247.37349
247.38045
247.38728
247.3935
247.39775
247.39533
247.36202
247.18998
246.89356
246.54624
246.10242
245.60175
245.21234
245.02784
244.96464
244.9473
244.94155
244.9378
244.93441
244.93096
244.92811
244.92707
244.92969
244.93557
244.94633
244.96164
244.97928
244.99949
245.01842
245.02995
245.03155
245.02686
245.02146
245.02117
245.02584
245.03476
245.04925
245.06931
245.08695
245.09015
245.07805
245.06208
245.056
245.05656
245.06135
245.0708
245.07504
245.07126
245.06632
245.0782
245.10601
245.11791
245.11102
245.10904
245.13089
245.14925
245.14274
245.16085
245.20444
245.22528
245.26627
245.30854
245.32909
245.37873
245.40546
245.44329
245.45285
245.45015
245.45623
245.48505
245.46368
245.47005
245.55211
245.58084
247.23505
247.23514
247.23532
247.23564
247.23613
247.23681
247.2377
247.2388
247.24007
247.24147
247.24296
247.24451
247.24611
247.24775
247.24943
247.25114
247.2529
247.25469
247.25654
247.25842
247.26037
247.26237
247.26445
247.2666
247.26883
247.27115
247.27358
247.27611
247.27876
247.28153
247.28443
247.28746
247.29064
247.29396
247.29742
247.30103
247.30479
247.3087
247.31276
247.31697
247.32134
247.32587
247.33057
247.33545
247.34051
247.34571
247.35099
247.35613
247.36048
247.36159
247.34417
247.19938
246.88885
246.50914
246.0706
245.59882
245.24765
245.05215
244.98123
244.96065
244.95363
244.9495
244.9462
244.94312
244.94051
244.94032
244.9429
244.94561
244.95182
244.96365
244.9786
244.99525
245.01048
245.02033
245.02333
245.02098
245.01554
245.01303
245.01811
245.02877
245.04468
245.0642
245.08279
245.0882
245.07736
245.06149
245.05535
245.05744
245.06267
245.06974
245.07214
245.06686
245.06013
245.07405
245.10243
245.11546
245.1095
245.11058
245.13284
245.1445
245.13476
245.15866
245.1955
245.21269
245.25947
245.29726
245.3203
245.37082
245.39665
245.43657
245.44919
245.45211
245.45445
245.48277
245.46329
245.46957
245.5491
245.57778
245.58811
245.54999
247.23474
247.23486
247.23512
247.23557
247.23625
247.23719
247.2384
247.23988
247.24157
247.24339
247.24529
247.24725
247.24923
247.25123
247.25325
247.25528
247.25732
247.25938
247.26147
247.26359
247.26574
247.26794
247.27018
247.27249
247.27485
247.27729
247.27981
247.28242
247.28512
247.28791
247.29081
247.29381
247.29692
247.30014
247.30347
247.3069
247.31045
247.31409
247.31785
247.32171
247.32568
247.32977
247.33399
247.33836
247.34287
247.34755
247.35236
247.35724
247.36194
247.36548
247.36101
247.28541
247.00911
246.57999
246.10058
245.62545
245.25275
245.04569
244.97595
244.95681
244.95089
244.9478
244.94555
244.94368
244.94293
244.94447
244.94706
244.94998
244.9567
244.96699
244.97883
244.99164
245.00212
245.00876
245.01212
245.01247
245.00968
245.00728
245.01204
245.02412
245.04067
245.05991
245.0787
245.08587
245.0762
245.06017
245.05345
245.05691
245.06305
245.06757
245.06786
245.06055
245.0532
245.07232
245.10018
245.1134
245.10907
245.11337
245.13567
245.14
245.12893
245.15899
245.18757
245.20006
245.25188
245.28478
245.31135
245.36174
245.3889
245.42998
245.4443
245.45376
245.4532
245.4797
245.4622
245.46889
245.5462
245.57467
245.58515
245.54801
245.60566
247.22815
247.22833
247.22875
247.22944
247.23048
247.2319
247.23372
247.23592
247.23839
247.24105
247.24381
247.24664
247.24951
247.25241
247.25535
247.25831
247.2613
247.26431
247.26737
247.27047
247.27361
247.27681
247.28008
247.28342
247.28684
247.29035
247.29396
247.29768
247.3015
247.30543
247.30947
247.31363
247.31789
247.32225
247.32669
247.33121
247.33581
247.34047
247.34518
247.34996
247.35479
247.35968
247.36464
247.36968
247.37482
247.38008
247.38548
247.39101
247.3966
247.40177
247.39881
247.32522
247.12939
246.76477
246.24783
245.68678
245.25124
245.02421
244.95657
244.93961
244.93668
244.93618
244.93647
244.93745
244.93903
244.94238
244.94559
244.94865
244.95579
244.96628
244.97768
244.9874
244.99436
244.99862
245.00144
245.00097
244.99912
245.00125
245.0074
245.01938
245.03627
245.05495
245.07339
245.08179
245.07417
245.05828
245.05126
245.05731
245.06422
245.06748
245.06394
245.05394
245.04931
245.07233
245.09883
245.11057
245.10756
245.11526
245.13709
245.13516
245.12349
245.15985
245.18023
245.18827
245.24404
245.27129
245.30164
245.35112
245.38117
245.42373
245.44001
245.45496
245.45295
245.47742
245.46173
245.46918
245.54345
245.57092
245.58201
245.54582
245.60498
245.53775
247.208
247.20823
247.20876
247.20963
247.21092
247.21268
247.21494
247.21766
247.22072
247.22402
247.22745
247.23096
247.23452
247.2381
247.2417
247.24531
247.24895
247.25261
247.25631
247.26005
247.26385
247.26772
247.27167
247.27571
247.27986
247.28413
247.28852
247.29306
247.29774
247.30258
247.30758
247.31274
247.31806
247.32357
247.32927
247.33514
247.34118
247.34739
247.35376
247.36028
247.36694
247.37375
247.3807
247.38779
247.39499
247.40225
247.40942
247.41616
247.42151
247.42194
247.40105
247.27869
247.08029
246.76237
246.283
245.7304
245.27106
245.02581
244.93763
244.91708
244.91519
244.91696
244.92001
244.92385
244.92809
244.9328
244.93639
244.94067
244.94835
244.95869
244.96998
244.97892
244.98488
244.98959
244.99174
244.99281
244.99323
244.99565
245.00298
245.01611
245.03223
245.04967
245.06699
245.07576
245.07039
245.05537
245.04974
245.05845
245.06626
245.06742
245.05896
245.04551
245.0464
245.07259
245.09764
245.10695
245.10509
245.11682
245.13743
245.13123
245.12301
245.16116
245.17362
245.1791
245.23647
245.25736
245.29124
245.33854
245.37316
245.41786
245.43685
245.4551
245.45277
245.47451
245.46091
245.46935
245.54037
245.56709
245.57916
245.54346
245.60347
245.53497
245.53959
245.70715
247.18894
247.18906
247.18932
247.18975
247.19039
247.19129
247.19246
247.19391
247.19559
247.19745
247.19946
247.20157
247.20378
247.20607
247.20844
247.21089
247.21341
247.21602
247.21872
247.22151
247.2244
247.22741
247.23054
247.23381
247.23722
247.24081
247.24457
247.24852
247.25268
247.25706
247.26168
247.26653
247.27163
247.27698
247.28258
247.28842
247.29451
247.30085
247.30742
247.31422
247.32126
247.32852
247.33599
247.34365
247.35145
247.35928
247.36688
247.37369
247.3782
247.37524
247.33864
247.16243
246.929
246.66782
246.24471
245.72407
245.26848
245.02183
244.9318
244.91419
244.9137
244.91645
244.91999
244.92404
244.92815
244.93181
244.93434
244.93863
244.94557
244.95466
244.96411
244.97151
244.97541
244.97937
244.98269
244.98649
244.98935
244.99106
244.99875
245.01233
245.02707
245.04408
245.05835
245.06703
245.06405
245.05105
245.04773
245.05903
245.06843
245.0669
245.05251
245.03721
245.04553
245.07419
245.09696
245.10199
245.10089
245.11725
245.13651
245.12618
245.12339
245.16227
245.16701
245.17248
245.22926
245.24428
245.28057
245.32348
245.36448
245.41172
245.43445
245.45467
245.45312
245.47254
245.46082
245.46996
245.53739
245.56279
245.57572
245.54057
245.6016
245.5323
245.53543
245.71104
245.62961
247.18813
247.18818
247.18829
247.18848
247.18876
247.18917
247.18971
247.19038
247.19117
247.19206
247.19302
247.19406
247.19514
247.19628
247.19748
247.19872
247.20001
247.20136
247.20276
247.20422
247.20574
247.20734
247.20901
247.21076
247.21261
247.21455
247.21661
247.21878
247.22108
247.22352
247.2261
247.22883
247.23173
247.23479
247.23803
247.24146
247.24508
247.24891
247.25295
247.25721
247.26169
247.2664
247.27135
247.27653
247.28193
247.28747
247.29299
247.29806
247.30151
247.29912
247.2694
247.10174
246.80349
246.50584
246.15076
245.6906
245.26214
245.03301
244.95281
244.93564
244.93384
244.93561
244.93821
244.94061
244.94226
244.94254
244.9433
244.94744
244.95194
244.95711
244.96319
244.96779
244.97032
244.97188
244.97444
244.97817
244.98272
244.98794
244.99583
245.00865
245.02499
245.0392
245.05006
245.05829
245.05755
245.04783
245.04698
245.06065
245.07149
245.06608
245.04587
245.03015
245.04373
245.07544
245.09514
245.09564
245.09568
245.11715
245.13552
245.1227
245.12484
245.16278
245.16078
245.1691
245.22279
245.23334
245.27056
245.30677
245.35465
245.40507
245.43251
245.45339
245.45313
245.47028
245.46058
245.47028
245.53391
245.55835
245.57283
245.53763
245.59876
245.5292
245.53112
245.71403
245.63007
245.69636
247.19446
247.19451
247.19464
247.19485
247.19518
247.19564
247.19626
247.19702
247.19791
247.19888
247.19992
247.20101
247.20213
247.20327
247.20445
247.20564
247.20687
247.20812
247.2094
247.21071
247.21206
247.21346
247.2149
247.21641
247.21797
247.2196
247.2213
247.22309
247.22496
247.22693
247.229
247.23118
247.23347
247.23587
247.23839
247.24103
247.24377
247.24661
247.24955
247.25259
247.25574
247.259
247.26238
247.2659
247.26955
247.27335
247.27727
247.2812
247.28479
247.28647
247.27312
247.14342
246.82627
246.46681
246.0853
245.64816
245.26525
245.05855
244.97645
244.95602
244.95062
244.94972
244.94958
244.95001
244.95087
244.95099
244.95161
244.95332
244.95582
244.95891
244.96261
244.96544
244.96768
244.96864
244.96928
244.97141
244.97601
244.98358
244.99346
245.00602
245.02113
245.03267
245.04162
245.04908
245.0502
245.04408
245.04539
245.0598
245.07045
245.06246
245.03817
245.02323
245.04234
245.07666
245.09281
245.08922
245.09086
245.11708
245.1344
245.12017
245.12628
245.16181
245.15388
245.16716
245.2167
245.22482
245.26238
245.28983
245.34326
245.39718
245.43036
245.45125
245.45348
245.46907
245.46093
245.47086
245.53052
245.55368
245.56903
245.53413
245.59597
245.52675
245.52755
245.71696
245.63
245.69388
245.59229
247.19584
247.19596
247.19623
247.19669
247.19738
247.19834
247.19959
247.2011
247.20283
247.20471
247.20667
247.20867
247.21071
247.21275
247.2148
247.21684
247.21888
247.22093
247.22298
247.22504
247.22712
247.22923
247.23136
247.23353
247.23573
247.23798
247.24028
247.24262
247.24502
247.24748
247.24999
247.25255
247.25516
247.25782
247.26053
247.26328
247.26607
247.26891
247.2718
247.27473
247.27771
247.28075
247.28387
247.28708
247.2904
247.29389
247.29758
247.30156
247.30599
247.31132
247.31847
247.27165
247.02131
246.58542
246.12737
245.66653
245.2804
245.05225
244.96979
244.95028
244.94622
244.94668
244.94805
244.94976
244.95184
244.953
244.95379
244.95387
244.95514
244.95781
244.96135
244.96453
244.96622
244.96662
244.96708
244.96762
244.97123
244.97864
244.9894
245.00324
245.0166
245.0264
245.03327
245.03939
245.04273
245.04033
245.04364
245.05871
245.06873
245.0586
245.03301
245.01917
245.04145
245.07587
245.08868
245.08203
245.08624
245.117
245.13295
245.11946
245.12842
245.15938
245.14769
245.16746
245.21059
245.21873
245.25615
245.27448
245.33038
245.38764
245.42825
245.44983
245.4535
245.46761
245.46099
245.47108
245.52706
245.54892
245.56596
245.53131
245.59239
245.52392
245.52411
245.71866
245.62965
245.69157
245.59286
245.58956
247.18744
247.18763
247.18806
247.18877
247.18984
247.1913
247.19318
247.19544
247.19799
247.20073
247.20357
247.20647
247.2094
247.21236
247.21534
247.21834
247.22138
247.22446
247.22757
247.23072
247.23392
247.23717
247.24049
247.24389
247.24736
247.25093
247.25458
247.25834
247.26221
247.26618
247.27027
247.27446
247.27876
247.28317
247.28767
247.29227
247.29694
247.3017
247.30652
247.31141
247.31636
247.32138
247.32647
247.33163
247.33689
247.34228
247.34782
247.35354
247.35943
247.36486
247.35962
247.29258
247.1431
246.82573
246.33175
245.77497
245.30773
245.02387
244.93275
244.91352
244.91574
244.92119
244.92761
244.93392
244.94012
244.94567
244.94977
244.95125
244.95199
244.9541
244.95827
244.96247
244.9641
244.96272
244.96148
244.9612
244.96559
244.97389
244.98641
245.00114
245.0131
245.02121
245.02601
245.02998
245.03457
245.03572
245.04149
245.05663
245.06495
245.05295
245.02796
245.01587
245.04124
245.0738
245.0836
245.07491
245.08427
245.11719
245.13101
245.11915
245.13115
245.15533
245.14103
245.16796
245.20406
245.21419
245.25116
245.26206
245.31651
245.37627
245.42564
245.44856
245.45349
245.46659
245.46142
245.47164
245.52351
245.54398
245.56246
245.52826
245.58907
245.52205
245.52145
245.72026
245.62886
245.68934
245.59382
245.58795
245.80106
247.16565
247.16585
247.16631
247.16706
247.16818
247.1697
247.17167
247.17404
247.17672
247.17962
247.18266
247.18578
247.18897
247.19219
247.19545
247.19873
247.20205
247.20539
247.20879
247.21223
247.21574
247.21933
247.22301
247.22678
247.23068
247.2347
247.23886
247.24318
247.24766
247.25231
247.25713
247.26213
247.26732
247.27268
247.27822
247.28393
247.2898
247.29582
247.30199
247.30829
247.31472
247.32128
247.32799
247.33487
247.3419
247.34903
247.3561
247.36277
247.36803
247.36817
247.34544
247.21644
247.06361
246.81235
246.37647
245.83615
245.33454
245.02224
244.90226
244.87959
244.88369
244.8936
244.90427
244.91382
244.92267
244.93061
244.93679
244.93992
244.94088
244.94332
244.94965
244.95438
244.957
244.95688
244.95348
244.95213
244.95677
244.96815
244.98329
244.99889
245.0105
245.01623
245.01832
245.01969
245.02494
245.02996
245.03858
245.05349
245.06
245.04801
245.02461
245.01551
245.04236
245.07109
245.07753
245.06694
245.08235
245.11639
245.12789
245.1186
245.13502
245.15052
245.13528
245.16905
245.19668
245.21045
245.24697
245.25265
245.30331
245.36347
245.42216
245.44755
245.4529
245.46523
245.4617
245.47204
245.52035
245.53918
245.55996
245.52605
245.58515
245.51981
245.51957
245.72077
245.62752
245.68719
245.59479
245.58627
245.80007
245.61325
247.15257
247.15266
247.15287
247.15322
247.15374
247.15447
247.15543
247.15662
247.158
247.15952
247.16116
247.16288
247.16467
247.16652
247.16843
247.17039
247.17241
247.17449
247.17664
247.17885
247.18114
247.18352
247.18599
247.18857
247.19127
247.1941
247.19707
247.20019
247.20348
247.20695
247.21061
247.21447
247.21855
247.22284
247.22736
247.2321
247.23709
247.24231
247.24776
247.25346
247.2594
247.26557
247.27197
247.27856
247.2853
247.2921
247.29873
247.30468
247.30857
247.30556
247.27142
247.1066
246.89157
246.68327
246.3286
245.82138
245.32464
245.02709
244.90864
244.88652
244.88957
244.89923
244.90951
244.91841
244.92625
244.93257
244.93677
244.93798
244.93713
244.93598
244.93628
244.94217
244.94739
244.94944
244.94713
244.94519
244.94801
244.96039
244.97943
244.99677
245.00813
245.01253
245.01159
245.01087
245.01624
245.02425
245.0361
245.05052
245.05546
245.04321
245.02168
245.01557
245.04236
245.06757
245.06984
245.05879
245.08096
245.11497
245.12378
245.11739
245.13878
245.14589
245.13151
245.16989
245.18824
245.20708
245.24248
245.24572
245.29199
245.3497
245.41713
245.44623
245.4519
245.46399
245.46241
245.47297
245.51672
245.53434
245.55828
245.52392
245.58124
245.51867
245.51804
245.72137
245.62554
245.68504
245.59614
245.5847
245.79915
245.61378
247.15325
247.15332
247.15347
247.15374
247.15413
247.15469
247.15543
247.15633
247.15738
247.15853
247.15975
247.16103
247.16235
247.16371
247.16509
247.16651
247.16796
247.16944
247.17095
247.17251
247.17411
247.17576
247.17747
247.17923
247.18107
247.18298
247.18498
247.18706
247.18924
247.19152
247.1939
247.1964
247.19901
247.20174
247.20459
247.20756
247.21066
247.21387
247.21721
247.22066
247.22424
247.22794
247.23176
247.2357
247.23973
247.24382
247.24785
247.25154
247.25417
247.25301
247.23304
247.1003
246.83552
246.55608
246.23171
245.78379
245.341
245.05959
244.93782
244.91138
244.91022
244.91637
244.92363
244.9302
244.93613
244.94124
244.94409
244.94355
244.9403
244.93736
244.9344
244.93565
244.94028
244.94146
244.94103
244.93902
244.94103
244.95297
244.97391
244.99339
245.00573
245.00811
245.00385
245.00116
245.00581
245.01762
245.03331
245.04729
245.0509
245.03864
245.02059
245.01726
245.04247
245.06397
245.0613
245.05097
245.07973
245.11223
245.11725
245.11515
245.14204
245.14178
245.12965
245.17065
245.17923
245.20419
245.23716
245.24087
245.28283
245.3361
245.41043
245.44447
245.4503
245.46275
245.46289
245.47348
245.51363
245.52994
245.55756
245.52228
245.57679
245.51734
245.51749
245.72125
245.62288
245.68288
245.59744
245.58309
245.79804
245.6141
245.65766
247.15706
247.15714
247.15733
247.15766
247.15816
247.15886
247.15979
247.16092
247.16222
247.16364
247.16514
247.1667
247.16828
247.16989
247.17153
247.17318
247.17486
247.17656
247.17828
247.18003
247.18182
247.18365
247.18552
247.18745
247.18943
247.19147
247.19358
247.19576
247.19802
247.20035
247.20277
247.20527
247.20786
247.21052
247.21327
247.21609
247.21899
247.22196
247.22499
247.22808
247.23124
247.23446
247.23773
247.24106
247.24443
247.24783
247.25118
247.25434
247.25688
247.25725
247.24615
247.15157
246.89156
246.57398
246.22084
245.78499
245.3556
245.05404
244.93327
244.90701
244.90624
244.91253
244.92036
244.92769
244.93455
244.94097
244.94648
244.94884
244.94751
244.9439
244.93823
244.93591
244.93688
244.93639
244.93452
244.93105
244.93402
244.94802
244.96859
244.98932
245.00225
245.00354
244.99756
244.9923
244.99624
245.01179
245.03096
245.04461
245.04673
245.03445
245.01976
245.01798
245.04189
245.05881