/*--------------------------------*- C++ -*----------------------------------*\
| =========                 |                                                 |
| \\      /  F ield         | OpenFOAM: The Open Source CFD Toolbox           |
|  \\    /   O peration     | Version:  2506                                  |
|   \\  /    A nd           | Website:  www.openfoam.com                      |
|    \\/     M anipulation  |                                                 |
\*---------------------------------------------------------------------------*/
FoamFile
{
    version     2.0;
    format      ascii;
    arch        "LSB;label=32;scalar=64";
    class       volScalarField;
    location    "1.7";
    object      p;
}
// * * * * * * * * * * * * * * * * * * * * * * * * * * * * * * * * * * * * * //

dimensions      [1 -1 -2 0 0 0 0];

internalField   nonuniform List<scalar> 
1376
(
47023.942
47024.084
47024.245
47024.4
47022.731
47023.011
47023.179
47023.373
47023.561
47023.745
47023.928
47024.113
47024.298
47024.481
47024.668
47021.796
47022.091
47022.282
47022.504
47022.723
47022.936
47023.144
47023.35
47023.557
47023.768
47023.983
47024.2
47024.412
47024.618
47024.811
47024.984
47020.866
47021.151
47021.333
47021.562
47021.793
47022.021
47022.245
47022.467
47022.696
47022.936
47023.184
47023.432
47023.673
47023.907
47024.134
47024.358
47024.586
47024.812
47025.029
47025.232
47019.931
47020.168
47020.313
47020.516
47020.729
47020.949
47021.172
47021.404
47021.656
47021.933
47022.226
47022.522
47022.814
47023.095
47023.366
47023.637
47023.911
47024.187
47024.455
47024.712
47024.966
47025.223
47025.475
47025.719
47025.974
47019.078
47019.272
47019.374
47019.533
47019.703
47019.889
47020.092
47020.32
47020.583
47020.885
47021.217
47021.565
47021.917
47022.251
47022.562
47022.857
47023.144
47023.426
47023.705
47023.986
47024.27
47024.548
47024.799
47025.024
47025.252
47025.516
47025.839
47026.195
47026.52
47018.252
47018.465
47018.559
47018.701
47018.847
47019.008
47019.194
47019.413
47019.676
47019.982
47020.325
47020.696
47021.079
47021.444
47021.776
47022.075
47022.351
47022.616
47022.883
47023.158
47023.439
47023.714
47023.979
47024.24
47024.506
47024.785
47025.078
47025.387
47025.718
47026.082
47026.458
47026.798
47027.088
47017.318
47017.578
47017.688
47017.834
47017.975
47018.13
47018.31
47018.527
47018.788
47019.086
47019.416
47019.779
47020.164
47020.55
47020.915
47021.244
47021.54
47021.819
47022.101
47022.392
47022.684
47022.967
47023.245
47023.523
47023.797
47024.048
47024.281
47024.546
47024.871
47025.253
47025.68
47026.079
47026.43
47026.786
47027.18
47027.347
47016.297
47016.599
47016.739
47016.897
47017.037
47017.19
47017.369
47017.584
47017.839
47018.116
47018.412
47018.734
47019.079
47019.445
47019.814
47020.165
47020.487
47020.786
47021.081
47021.384
47021.692
47022.004
47022.333
47022.688
47023.072
47023.455
47023.777
47023.981
47024.059
47024.115
47024.375
47024.908
47025.52
47026.112
47026.727
47026.995
47027.147
47027.507
47027.817
47015.225
47015.594
47015.792
47015.997
47016.171
47016.344
47016.539
47016.752
47016.993
47017.236
47017.467
47017.706
47017.966
47018.26
47018.588
47018.931
47019.266
47019.581
47019.881
47020.183
47020.493
47020.818
47021.168
47021.546
47021.942
47022.34
47022.735
47023.121
47023.472
47023.776
47024.025
47024.169
47024.285
47024.63
47025.273
47026.059
47026.697
47027.156
47027.591
47027.981
47028.438
47029.09
47013.983
47014.4
47014.642
47014.909
47015.153
47015.383
47015.619
47015.87
47016.127
47016.371
47016.599
47016.818
47017.046
47017.298
47017.577
47017.868
47018.157
47018.437
47018.708
47018.975
47019.245
47019.533
47019.856
47020.218
47020.616
47021.078
47021.626
47022.168
47022.601
47022.959
47023.314
47023.724
47024.176
47024.576
47024.893
47025.141
47025.399
47025.771
47026.466
47027.243
47028.013
47028.769
47029.599
47030.047
47030.677
47012.614
47013.016
47013.265
47013.566
47013.858
47014.137
47014.402
47014.668
47014.926
47015.176
47015.423
47015.66
47015.896
47016.137
47016.39
47016.661
47016.962
47017.303
47017.672
47018.038
47018.375
47018.69
47019.002
47019.314
47019.623
47019.945
47020.284
47020.616
47021.014
47021.665
47022.508
47023.255
47023.748
47024.015
47024.42
47024.932
47025.439
47025.917
47026.257
47026.424
47026.875
47027.775
47028.951
47029.919
47030.968
47031.858
47031.384
47011.367
47011.735
47011.969
47012.269
47012.567
47012.858
47013.129
47013.381
47013.62
47013.85
47014.081
47014.31
47014.531
47014.749
47014.975
47015.239
47015.566
47015.964
47016.405
47016.84
47017.237
47017.606
47017.976
47018.358
47018.738
47019.118
47019.52
47019.96
47020.406
47020.759
47020.985
47021.407
47022.26
47023.217
47023.903
47024.617
47025.503
47025.907
47026.185
47026.599
47027.041
47027.631
47028.165
47028.93
47030.272
47032.058
47031.712
47034.816
47029.722
47010.214
47010.573
47010.781
47011.057
47011.339
47011.629
47011.92
47012.204
47012.463
47012.695
47012.909
47013.106
47013.292
47013.472
47013.668
47013.91
47014.209
47014.562
47014.955
47015.372
47015.803
47016.242
47016.689
47017.152
47017.625
47018.08
47018.539
47019.063
47019.647
47020.256
47020.851
47021.344
47021.718
47022.033
47022.325
47022.784
47023.758
47024.977
47025.948
47026.676
47027.277
47027.718
47028.488
47029.442
47030.061
47031.06
47030.971
47035.183
47029.708
47008.871
47009.235
47009.411
47009.641
47009.875
47010.135
47010.432
47010.765
47011.093
47011.382
47011.629
47011.844
47012.045
47012.245
47012.466
47012.725
47013.024
47013.354
47013.706
47014.088
47014.502
47014.936
47015.363
47015.775
47016.182
47016.598
47017.086
47017.749
47018.556
47019.348
47020.027
47020.547
47020.963
47021.48
47022.179
47022.839
47023.294
47023.727
47024.306
47025.445
47026.683
47027.452
47028.356
47029.483
47030.205
47031.349
47030.692
47034.717
47029.098
47007.32
47007.686
47007.848
47008.042
47008.214
47008.414
47008.672
47009
47009.366
47009.717
47010.022
47010.282
47010.516
47010.741
47010.983
47011.261
47011.588
47011.955
47012.349
47012.777
47013.252
47013.773
47014.31
47014.816
47015.263
47015.656
47016.015
47016.389
47016.812
47017.312
47018.022
47018.934
47019.792
47020.55
47021.414
47022.212
47022.842
47023.836
47024.764
47025.189
47025.575
47026.29
47026.942
47027.876
47029.323
47031.198
47030.085
47035.163
47028.461
47005.749
47006.127
47006.309
47006.515
47006.675
47006.838
47007.049
47007.341
47007.702
47008.086
47008.444
47008.745
47008.985
47009.192
47009.41
47009.675
47010.002
47010.386
47010.806
47011.259
47011.755
47012.302
47012.881
47013.454
47013.999
47014.529
47015.065
47015.621
47016.23
47016.883
47017.5
47017.957
47018.185
47018.537
47019.402
47020.413
47021.655
47022.896
47023.936
47024.642
47025.095
47026.007
47026.902
47027.317
47027.95
47029.397
47028.948
47035.093
47027.885
47004.18
47004.552
47004.739
47004.971
47005.162
47005.334
47005.524
47005.785
47006.122
47006.508
47006.902
47007.247
47007.511
47007.717
47007.918
47008.158
47008.445
47008.767
47009.117
47009.495
47009.905
47010.366
47010.884
47011.456
47012.087
47012.775
47013.495
47014.231
47015.019
47015.888
47016.772
47017.622
47018.418
47018.979
47019.25
47019.52
47019.756
47020.119
47021.394
47022.844
47024.243
47025.473
47026.646
47027.066
47027.506
47028.933
47027.674
47034.152
47026.971
47002.539
47002.847
47002.987
47003.197
47003.379
47003.54
47003.698
47003.899
47004.16
47004.481
47004.849
47005.216
47005.539
47005.817
47006.083
47006.366
47006.669
47006.975
47007.282
47007.615
47007.986
47008.405
47008.895
47009.481
47010.161
47010.888
47011.61
47012.346
47013.165
47014.066
47014.956
47015.832
47016.83
47017.887
47018.735
47019.378
47019.905
47020.385
47020.796
47021.481
47022.132
47023.157
47024.708
47026.076
47027.255
47029.465
47027.001
47034.141
47025.71
47000.931
47001.173
47001.271
47001.451
47001.609
47001.754
47001.891
47002.039
47002.208
47002.419
47002.696
47003.031
47003.387
47003.741
47004.081
47004.411
47004.743
47005.079
47005.42
47005.786
47006.203
47006.682
47007.242
47007.906
47008.656
47009.433
47010.197
47010.971
47011.79
47012.596
47013.314
47014.034
47014.95
47016.042
47017.053
47017.865
47018.611
47019.483
47020.361
47021.315
47022.305
47023.216
47023.85
47024.508
47025.889
47027.969
47025.84
47034.404
47024.639
46999.404
46999.62
46999.692
46999.858
47000.017
47000.177
47000.33
47000.48
47000.604
47000.722
47000.889
47001.137
47001.466
47001.843
47002.227
47002.601
47002.978
47003.378
47003.805
47004.246
47004.714
47005.237
47005.836
47006.523
47007.282
47008.073
47008.866
47009.653
47010.433
47011.186
47011.891
47012.596
47013.358
47014.134
47014.897
47015.74
47016.804
47018.048
47019.232
47020.383
47021.569
47022.484
47023.338
47024.482
47025.397
47027.558
47025.256
47033.94
47023.217
46997.666
46997.836
46997.843
46997.948
46998.067
46998.219
46998.388
46998.559
46998.687
46998.779
46998.898
46999.096
46999.405
46999.803
47000.235
47000.674
47001.121
47001.593
47002.091
47002.591
47003.075
47003.565
47004.088
47004.655
47005.284
47005.978
47006.721
47007.486
47008.251
47009.024
47009.821
47010.648
47011.52
47012.404
47013.251
47014.106
47015.011
47015.873
47016.782
47018.157
47019.839
47021.326
47022.501
47023.979
47024.595
47027.738
47024.229
47034.144
47021.524
46995.537
46995.672
46995.627
46995.66
46995.709
46995.814
46995.976
46996.177
46996.347
46996.489
46996.651
46996.881
46997.222
46997.66
46998.144
46998.624
46999.096
46999.56
47000.01
47000.445
47000.867
47001.279
47001.687
47002.107
47002.589
47003.183
47003.879
47004.644
47005.455
47006.3
47007.167
47008.047
47008.99
47010.071
47011.219
47012.306
47013.35
47014.439
47015.506
47016.505
47017.614
47018.736
47020.238
47021.321
47022.505
47026.81
47023.358
47034.752
47020.366
46993.203
46993.38
46993.368
46993.412
46993.441
46993.524
46993.686
46993.93
46994.198
46994.462
46994.746
46995.078
46995.473
46995.917
46996.363
46996.762
46997.097
46997.387
46997.654
46997.927
46998.245
46998.608
46998.987
46999.381
46999.852
47000.474
47001.242
47002.084
47002.955
47003.853
47004.771
47005.706
47006.709
47007.898
47009.243
47010.507
47011.589
47012.704
47013.956
47015.192
47016.593
47017.992
47019.065
47020.358
47021.395
47024.099
47020.686
47033.408
47018.238
46990.83
46991.091
46991.158
46991.267
46991.331
46991.412
46991.576
46991.859
46992.218
46992.614
46993.03
46993.437
46993.815
46994.151
46994.428
46994.645
46994.806
46994.944
46995.113
46995.37
46995.753
46996.243
46996.773
46997.311
46997.896
46998.583
46999.385
47000.25
47001.123
47001.989
47002.861
47003.763
47004.707
47005.695
47006.723
47007.769
47008.88
47010.293
47012.167
47014.008
47015.459
47016.704
47017.864
47019.552
47020.177
47024.419
47018.96
47032.781
47015.704
46988.313
46988.611
46988.735
46988.892
46988.998
46989.088
46989.226
46989.505
46989.882
46990.327
46990.774
46991.133
46991.398
46991.561
46991.655
46991.741
46991.868
46992.062
46992.358
46992.786
46993.338
46993.965
46994.588
46995.176
46995.779
46996.446
46997.199
46998.027
46998.893
46999.773
47000.686
47001.706
47002.851
47004.015
47005.144
47006.282
47007.348
47008.083
47008.563
47009.479
47011.175
47013.419
47015.626
47017.972
47019.092
47024.101
47017.44
47033.666
47013.145
46985.686
46985.969
46986.119
46986.315
46986.464
46986.608
46986.769
46987.014
46987.358
46987.735
46988.07
46988.311
46988.447
46988.516
46988.591
46988.733
46988.98
46989.326
46989.748
46990.245
46990.791
46991.337
46991.862
46992.374
46992.926
46993.557
46994.278
46995.095
46995.964
46996.848
46997.787
46998.841
47000.018
47001.238
47002.456
47003.75
47005.171
47006.631
47007.954
47009.019
47009.878
47010.809
47012.025
47013.575
47015.427
47021.646
47015.225
47033.809
47010.706
46983.173
46983.43
46983.588
46983.836
46984.068
46984.3
46984.554
46984.815
46985.074
46985.302
46985.466
46985.581
46985.668
46985.787
46985.978
46986.231
46986.526
46986.86
46987.242
46987.678
46988.145
46988.598
46989.026
46989.472
46989.969
46990.544
46991.196
46991.928
46992.742
46993.57
46994.414
46995.373
46996.449
46997.59
46998.806
47000.164
47001.678
47003.302
47005.02
47006.787
47008.563
47010.264
47011.773
47013.246
47013.789
47019.106
47011.223
47032.696
47006.355
46980.861
46981.058
46981.179
46981.428
46981.704
46981.972
46982.235
46982.482
46982.61
46982.633
46982.627
46982.638
46982.739
46982.967
46983.292
46983.654
46983.99
46984.283
46984.586
46984.954
46985.394
46985.861
46986.316
46986.77
46987.245
46987.768
46988.362
46989.008
46989.689
46990.41
46991.132
46991.899
46992.782
46993.747
46994.813
46996.056
46997.465
46998.965
47000.574
47002.371
47004.368
47006.492
47008.772
47011.459
47011.693
47019.161
47008.163
47033.04
47002.073
46978.636
46978.736
46978.758
46978.905
46979.101
46979.301
46979.455
46979.549
46979.523
46979.395
46979.287
46979.295
46979.471
46979.814
46980.245
46980.683
46981.09
46981.421
46981.691
46981.988
46982.387
46982.885
46983.4
46983.883
46984.364
46984.863
46985.396
46986
46986.638
46987.295
46987.989
46988.702
46989.464
46990.309
46991.253
46992.339
46993.557
46994.865
46996.232
46997.676
46999.302
47001.167
47003.315
47006.455
47006.829
47016.265
47003.558
47033.305
46996.504
46976.327
46976.37
46976.308
46976.339
46976.408
46976.489
46976.521
46976.473
46976.335
46976.18
46976.13
46976.244
46976.518
46976.913
46977.36
46977.804
46978.219
46978.567
46978.824
46979.086
46979.436
46979.871
46980.333
46980.757
46981.152
46981.55
46981.944
46982.345
46982.839
46983.411
46984.026
46984.691
46985.387
46986.137
46986.976
46987.946
46989.052
46990.282
46991.646
46993.1
46994.599
46996.066
46997.782
47000.752
46999.946
47010.902
46995.848
47030.749
46990.622
46973.979
46974.028
46973.946
46973.954
46973.951
46973.958
46973.92
46973.815
46973.685
46973.647
46973.68
46973.824
46974.146
46974.507
46974.821
46975.096
46975.355
46975.579
46975.806
46976.013
46976.341
46976.671
46976.884
46977.169
46977.449
46977.694
46977.929
46978.153
46978.409
46978.765
46979.205
46979.708
46980.252
46980.835
46981.496
46982.27
46983.192
46984.297
46985.652
46987.24
46988.789
46990.154
46991.948
46995.756
46993.098
47008.13
46987.592
47030.942
46977.224
46971.692
46971.75
46971.66
46971.695
46971.651
46971.629
46971.576
46971.501
46971.448
46971.44
46971.486
46971.621
46971.841
46972.007
46972.082
46972.152
46972.229
46972.35
46972.557
46972.776
46972.906
46972.98
46973.062
46973.155
46973.252
46973.357
46973.487
46973.588
46973.652
46973.807
46974.033
46974.299
46974.644
46975.003
46975.39
46975.844
46976.402
46977.13
46978.063
46979.26
46980.668
46982.022
46983.377
46988.203
46983.906
47002.972
46976.562
47031.138
46968.572
)
;

boundaryField
{
    Side
    {
        type            empty;
    }
    Inlet
    {
        type            totalPressure;
        rho             rho;
        psi             none;
        gamma           1;
        p0              uniform 50000;
        value           nonuniform List<scalar> 
21
(
47034.465
47034.294
47034.1
47033.943
47033.721
47033.407
47033.107
47032.713
47032.203
47031.759
47031.24
47030.493
47029.7
47028.855
47027.689
47026.263
47024.72
47022.742
47019.641
47015.473
47017.059
)
;
    }
    Airfoil
    {
        type            zeroGradient;
    }
    Outlet
    {
        type            fixedValue;
        value           uniform 46970;
    }
    procBoundary13to6
    {
        type            processor;
        value           nonuniform List<scalar> 
34
(
47023.686
47023.686
47022.719
47021.778
47020.86
47019.977
47019.137
47018.267
47017.288
47016.225
47015.087
47013.832
47012.52
47011.289
47010.12
47008.791
47007.24
47005.656
47004.105
47002.551
47000.994
46999.464
46997.774
46995.675
46993.275
46990.815
46988.268
46985.667
46983.167
46980.866
46978.684
46976.384
46974.011
46971.695
)
;
    }
    procBoundary13to12
    {
        type            processor;
        value           nonuniform List<scalar> 
60
(
47024.83
47024.959
47025.102
47025.237
47024.549
47024.549
47024.694
47024.84
47024.985
47025.128
47025.278
47024.855
47024.855
47025.038
47025.218
47025.381
47025.511
47025.138
47025.138
47025.277
47025.401
47025.511
47025.422
47025.422
47025.604
47025.784
47025.961
47026.137
47026.265
47026.265
47026.549
47026.683
47026.655
47026.746
47026.746
47026.852
47026.985
47027.318
47027.253
47027.253
47027.254
47027.244
47027.409
47027.409
47027.554
47027.978
47028.287
47028.287
47028.78
47029.158
47029.839
47029.839
47030.297
47030.588
47031.556
47031.556
47031.322
47034.153
47034.153
47030.054
)
;
    }
}


// ************************************************************************* //
