/*--------------------------------*- C++ -*----------------------------------*\
| =========                 |                                                 |
| \\      /  F ield         | OpenFOAM: The Open Source CFD Toolbox           |
|  \\    /   O peration     | Version:  2506                                  |
|   \\  /    A nd           | Website:  www.openfoam.com                      |
|    \\/     M anipulation  |                                                 |
\*---------------------------------------------------------------------------*/
FoamFile
{
    version     2.0;
    format      ascii;
    arch        "LSB;label=32;scalar=64";
    class       volScalarField;
    location    "0.9";
    object      nut;
}
// * * * * * * * * * * * * * * * * * * * * * * * * * * * * * * * * * * * * * //

dimensions      [0 2 -1 0 0 0 0];

internalField   nonuniform List<scalar> 
1376
(
0.19772926
0.19622047
0.19520296
0.19447472
0.19392172
0.19348812
0.19313674
0.19284534
0.1926025
0.19239942
0.19222832
0.19208102
0.19195524
0.19184916
0.19175486
0.19167203
0.1915998
0.19153605
0.19147846
0.19142553
0.1913823
0.19134641
0.19131384
0.19128481
0.19127138
0.19126567
0.19127339
0.1912941
0.19133731
0.19142215
0.19153425
0.19172274
0.17675337
0.14743064
0.10557648
0.092954992
0.089097618
0.064764419
0.058194398
0.044652303
0.0082722789
0.020813511
0.0088865009
0.0099940227
0.0057991793
0.0073349341
0.010584766
0.0067650685
0.00072463633
0.19770048
0.19627173
0.19529783
0.19457859
0.19402672
0.1935911
0.19323601
0.19294133
0.19269307
0.19248476
0.19230846
0.19215691
0.19202624
0.19191505
0.19181685
0.1917298
0.19165424
0.19158735
0.19152667
0.19147083
0.19142512
0.19138632
0.19135043
0.19131924
0.19130305
0.19129566
0.19130032
0.19131716
0.1913589
0.19142783
0.19153668
0.1917061
0.19194128
0.15560956
0.12682369
0.10146722
0.07247982
0.062774121
0.049324144
0.038725176
0.026698474
0.013864406
0.0092998778
0.013854065
0.013153611
0.0045833611
0.012613174
0.0039743697
0.00071946091
0.19780369
0.19642785
0.19545146
0.19472733
0.19416783
0.19372315
0.19336104
0.19305833
0.19280291
0.19258672
0.19240309
0.19224551
0.19210844
0.19199045
0.19188755
0.19179565
0.1917152
0.19164359
0.19158011
0.19152053
0.19147087
0.19142921
0.1913917
0.19135703
0.19133606
0.19132655
0.19132783
0.19134017
0.19137418
0.19142877
0.19153957
0.191679
0.17780943
0.15290504
0.12224754
0.097893387
0.085692727
0.066255495
0.053333884
0.047472669
0.017368412
0.015953126
0.023435587
0.016087301
0.013063171
0.0048569587
0.0070520163
0.0018625676
0.00076449315
0.19786523
0.196549
0.1955932
0.19487152
0.19430839
0.19385707
0.19348842
0.1931794
0.19291687
0.19269297
0.19250189
0.19233782
0.19219489
0.19206996
0.1919614
0.19186448
0.19177917
0.19170231
0.19163544
0.19157233
0.19151894
0.19147396
0.19143418
0.19139613
0.19136987
0.19135848
0.19135597
0.19136364
0.1913896
0.19143719
0.19154727
0.19166971
0.19188511
0.15167737
0.12839939
0.10006209
0.081679202
0.067004099
0.053079595
0.037429888
0.050865677
0.020150504
0.013685123
0.013294321
0.0058344412
0.0074542884
0.0035041335
0.0055517655
0.0007391329
0.19793997
0.19668217
0.19574151
0.19502233
0.19445638
0.19399892
0.19362345
0.19330736
0.19303779
0.19280607
0.19260714
0.19243608
0.19228677
0.19215498
0.19203972
0.19193756
0.19184696
0.1917646
0.19169332
0.19162734
0.19156995
0.191521
0.1914782
0.19143871
0.19140724
0.19139192
0.19138607
0.19138879
0.19140791
0.19144941
0.19154221
0.19166281
0.19034585
0.16135177
0.12664349
0.10821192
0.078377351
0.06567676
0.053038267
0.045468482
0.024533395
0.021948354
0.026294856
0.015831055
0.014953082
0.0065240989
0.0070519234
0.0032792958
0.00079192544
0.19800719
0.19680426
0.19588814
0.19517568
0.19460801
0.19414543
0.19376348
0.19344061
0.19316418
0.19292494
0.19271819
0.19253972
0.19238319
0.1922448
0.19212318
0.19201489
0.19191902
0.19183178
0.1917554
0.19168586
0.19162371
0.19156999
0.19152434
0.1914834
0.19144849
0.19142743
0.19141648
0.19141557
0.1914307
0.19146822
0.19153483
0.19166557
0.19183197
0.16047509
0.13027197
0.1028065
0.089651282
0.067577401
0.053525382
0.041324313
0.04101936
0.022884084
0.016521693
0.014369496
0.0079840716
0.0076428623
0.0040854318
0.0035342775
0.0008033469
0.19806336
0.19692064
0.19603475
0.1953304
0.19476306
0.19429703
0.19390872
0.19357907
0.1932958
0.19304908
0.19283431
0.19264808
0.1924846
0.19233899
0.19221086
0.19209661
0.19199462
0.1919021
0.19182
0.19174745
0.1916805
0.19162147
0.19157272
0.19152927
0.19149049
0.19146322
0.19144992
0.19144715
0.19145667
0.19148366
0.19153611
0.19167185
0.19180606
0.16304102
0.13513505
0.10742965
0.085740192
0.067157731
0.054988201
0.044405765
0.030929116
0.027180849
0.022710835
0.01441933
0.01307359
0.0064765329
0.0059122758
0.0028752762
0.00083087791
0.19811424
0.19703597
0.19617855
0.19548376
0.19491939
0.19445138
0.19405784
0.19372146
0.19343125
0.19317734
0.19295477
0.19276082
0.19258999
0.19243732
0.19230211
0.19218145
0.19207253
0.1919751
0.1918877
0.19181099
0.19173987
0.1916767
0.19162259
0.19157609
0.19153436
0.19150245
0.19148465
0.19147742
0.19148134
0.191502
0.19155031
0.19166402
0.19178697
0.17022038
0.13440039
0.10972532
0.086687954
0.071441192
0.054627092
0.041562742
0.03465969
0.023807026
0.018723313
0.014335464
0.0096756334
0.0088981492
0.0044276791
0.0029748739
0.00089724832
0.19816954
0.19714702
0.19631729
0.19563608
0.19507629
0.19460704
0.19420909
0.19386662
0.19356934
0.19330834
0.19307832
0.19287646
0.19269839
0.19253906
0.19239595
0.19226877
0.19215422
0.19205122
0.19195855
0.19187613
0.19180107
0.19173419
0.19167573
0.19162503
0.19158001
0.19154348
0.19152026
0.19150895
0.19150866
0.19152174
0.19157359
0.19163725
0.19178721
0.17117314
0.13819886
0.11323221
0.089155866
0.070476907
0.055970225
0.045377896
0.035361066
0.026911291
0.02030504
0.016127451
0.010186461
0.0068778822
0.0055178253
0.002582708
0.00088425152
0.19822451
0.1972549
0.19645322
0.1957862
0.19523073
0.19476157
0.19436027
0.19401255
0.193708
0.19344016
0.19320311
0.19299355
0.19280781
0.19264199
0.19249183
0.19235774
0.19223705
0.19212821
0.19203038
0.19194247
0.19186322
0.19179137
0.19172818
0.19167427
0.19162691
0.19158655
0.19155809
0.19154214
0.19153667
0.19154414
0.19158889
0.19162199
0.19180412
0.17534067
0.1429394
0.11066435
0.093240696
0.07258588
0.056558554
0.043837045
0.034387043
0.02679289
0.020325986
0.013777397
0.010666104
0.0077251499
0.0045517423
0.0027848913
0.00092200246
0.19827958
0.19736025
0.19658213
0.1959316
0.19538243
0.19491383
0.19450967
0.19415629
0.19384523
0.19357079
0.19332679
0.19310987
0.19291667
0.19274425
0.19258765
0.19244681
0.19232013
0.19220579
0.19210295
0.19200967
0.19192561
0.19184944
0.19178163
0.19172321
0.19167225
0.19162838
0.19159513
0.19157511
0.19156672
0.19157059
0.19160519
0.19162122
0.19181668
0.17957331
0.14324493
0.11823545
0.090188784
0.073502043
0.059092043
0.044147916
0.033877799
0.026803545
0.019535152
0.014452692
0.010977595
0.007039903
0.0051065636
0.0025329026
0.00088149346
0.19833673
0.19745649
0.19670408
0.19607121
0.19552989
0.19506272
0.19465537
0.1942963
0.193979
0.1936979
0.19344765
0.19322374
0.19302353
0.19284441
0.19268193
0.19253462
0.19240221
0.19228193
0.19217362
0.19207569
0.1919871
0.19190661
0.19183468
0.19177211
0.19171783
0.19167076
0.19163328
0.19160846
0.19159549
0.19159569
0.1916192
0.19163898
0.1918155
0.18457515
0.14625905
0.11811747
0.09547685
0.074773613
0.058077093
0.047547468
0.035783843
0.027445863
0.019469815
0.015865989
0.01018044
0.0074559437
0.0041689071
0.0028236404
0.00094017388
0.19839114
0.19754648
0.19681815
0.19620003
0.19566799
0.19520333
0.19479347
0.19442944
0.19410646
0.19381946
0.19356326
0.19333288
0.19312623
0.1929406
0.19277248
0.19261912
0.19248127
0.19235552
0.19224206
0.19213935
0.19204619
0.19196157
0.19188577
0.19181904
0.19176142
0.19171151
0.19167035
0.19164098
0.19162419
0.19162141
0.19163311
0.19167817
0.19177218
0.18642465
0.15159904
0.11861216
0.096391207
0.075999618
0.059773974
0.045628578
0.035783608
0.026188421
0.022131281
0.013835016
0.011137381
0.0071024589
0.0044003777
0.0026825768
0.00091587477
0.19844866
0.19763475
0.19692502
0.19632017
0.19579501
0.1953319
0.19492128
0.19455335
0.19422522
0.19393282
0.19367107
0.19343487
0.19322224
0.1930307
0.19285733
0.19269839
0.19255521
0.19242439
0.1923059
0.1921987
0.19210141
0.19201298
0.19193345
0.19186254
0.19180113
0.19174834
0.19170401
0.19167032
0.19164953
0.19164396
0.19165007
0.19169833
0.19174459
0.19194555
0.15108192
0.12328163
0.09662436
0.076636014
0.060841391
0.046993535
0.036054134
0.027549878
0.019178827
0.015916977
0.0097646022
0.0069268775
0.0048452406
0.0024368633
0.00092250275
0.19850407
0.1977137
0.19702088
0.19642765
0.19590841
0.19544706
0.19503551
0.19466472
0.19433233
0.19403518
0.19376868
0.1935274
0.19330939
0.19311245
0.19293415
0.19277021
0.19262201
0.1924869
0.19236408
0.19225275
0.19215163
0.1920597
0.19197689
0.19190246
0.19183762
0.1917824
0.19173577
0.19169838
0.19167361
0.19166534
0.19166701
0.1917157
0.19172765
0.19195013
0.15450324
0.12211827
0.098480307
0.078042345
0.060151448
0.047418008
0.036222834
0.027797648
0.02075745
0.014183113
0.011171118
0.0069560355
0.0040081937
0.0026791268
0.00093464874
0.19855783
0.19778674
0.19710633
0.19652092
0.19600621
0.19554622
0.19513294
0.19475977
0.19442446
0.1941236
0.19385315
0.19360776
0.19338512
0.19318338
0.19300063
0.19283234
0.19267967
0.19254085
0.19241431
0.19229934
0.19219481
0.19209979
0.19201413
0.19193662
0.1918685
0.19181075
0.19176229
0.19172204
0.19169338
0.19168222
0.19167994
0.19172763
0.19171147
0.19195181
0.15594785
0.12438937
0.098832816
0.07832084
0.061960209
0.047737627
0.036545717
0.027237371
0.02055394
0.015172543
0.010188803
0.0070696893
0.0043953916
0.0025815377
0.00089205119
0.19860427
0.19784845
0.19717669
0.19659719
0.19608558
0.1956259
0.19521172
0.19483721
0.19449931
0.19419513
0.19392121
0.19367235
0.19344606
0.19324041
0.1930539
0.19288228
0.19272608
0.19258429
0.19245486
0.19233695
0.19222962
0.19213221
0.1920443
0.19196426
0.19189343
0.19183345
0.19178342
0.19174104
0.1917089
0.19169479
0.19168939
0.19173523
0.19169829
0.19195272
0.15998386
0.12686972
0.10123922
0.080499898
0.063029179
0.048875017
0.037603932
0.028440578
0.020848761
0.015100262
0.010503345
0.0070460698
0.004272181
0.0024858812
0.00091712271
0.19864005
0.1978952
0.19722989
0.19665369
0.19614314
0.19568355
0.19526858
0.1948946
0.19455498
0.19424842
0.19397178
0.19372022
0.19349125
0.19328277
0.19309336
0.19291917
0.19276023
0.19261593
0.1924841
0.192364
0.19225461
0.19215551
0.19206607
0.19198421
0.19191142
0.19184985
0.19179887
0.19175548
0.19172147
0.19170589
0.19169946
0.19174427
0.19169739
0.19196008
0.16416595
0.12971756
0.10314564
0.081899687
0.064488453
0.050064102
0.038185804
0.028796331
0.021362743
0.015402401
0.010880948
0.0071390894
0.0044541186
0.0027122433
0.00094767609
0.19866285
0.19792414
0.19726285
0.19668811
0.19617806
0.19571892
0.19530403
0.19492825
0.19458733
0.19427993
0.19400232
0.19374954
0.19351896
0.19330875
0.19311762
0.19294172
0.192781
0.19263516
0.19250186
0.19238044
0.19226972
0.19216956
0.19207934
0.19199653
0.19192279
0.19186084
0.19181021
0.19176737
0.19173404
0.19172006
0.19171612
0.19176287
0.19172089
0.19198595
0.16184501
0.12735844
0.1008001
0.079994348
0.063017943
0.04891564
0.03738152
0.028111794
0.020756343
0.015010763
0.010417827
0.0069556838
0.0042412768
0.0025096344
0.00090413107
0.19867054
0.19793308
0.19727211
0.19669727
0.19618775
0.19572905
0.19531439
0.19493886
0.19459744
0.19428896
0.19401051
0.19375738
0.19352649
0.19331582
0.19312414
0.19294764
0.19278649
0.1926405
0.19250705
0.19238551
0.19227463
0.19217447
0.19208436
0.19112521
0.19117179
0.19122418
0.19128851
0.19136414
0.19145813
0.19157232
0.19171464
0.19189521
0.19212948
0.19243165
0.19282795
0.19335619
0.1941209
0.19530556
0.19119303
0.19114396
0.19108087
0.19102784
0.19101973
0.19100185
0.19100812
0.19101676
0.19102473
0.1910449
0.19107204
0.19109896
0.19113551
0.19117843
0.19122947
0.19128606
0.19135531
0.19143608
0.19153579
0.19165666
0.19180661
0.1919964
0.19224038
0.19255287
0.19295963
0.19350117
0.19428773
0.19549815
0.050462146
0.064360656
0.058028473
0.1184911
0.10984308
0.14882647
0.16175835
0.19179161
0.19155486
0.19134991
0.19121886
0.19113126
0.19107468
0.191045
0.19102872
0.19103069
0.19103436
0.19104874
0.19106466
0.19108837
0.1911187
0.19114991
0.19118945
0.19123443
0.19128911
0.1913501
0.19142465
0.19151055
0.19161631
0.19174456
0.19190283
0.1921023
0.19235667
0.19267974
0.19309752
0.19365347
0.19446334
0.19570047
0.014553575
0.010254972
0.017929009
0.014327055
0.029800013
0.034402401
0.039544872
0.059203885
0.050631594
0.048179194
0.0783623
0.078654341
0.08970877
0.13660748
0.15180951
0.19143921
0.19172817
0.19152994
0.19134939
0.19123065
0.19115644
0.19110352
0.19107156
0.19106216
0.19105441
0.19106761
0.19108696
0.19110502
0.19113274
0.1911667
0.19120194
0.19124501
0.19129294
0.19135054
0.19141629
0.19149629
0.19158767
0.19170014
0.19183637
0.1920037
0.19221311
0.19247819
0.19281227
0.19324208
0.19381398
0.19464855
0.19591423
0.00078362664
0.016959925
0.01276578
0.015727966
0.01330293
0.02476283
0.018549386
0.026343329
0.041044592
0.0529437
0.07214757
0.061168439
0.066522025
0.11771691
0.11678578
0.13533808
0.17321879
0.19198785
0.19169274
0.19146928
0.19131784
0.19123092
0.19116828
0.19112965
0.19109787
0.19108883
0.1910915
0.19110621
0.1911275
0.1911466
0.19117819
0.19121575
0.19125352
0.19130059
0.19135279
0.19141397
0.19148505
0.19157028
0.19166854
0.19178833
0.19193254
0.19210912
0.19232898
0.19260528
0.19295073
0.19339406
0.19398331
0.19484254
0.19613874
0.00073877925
0.014467395
0.014847821
0.016314704
0.023542695
0.02032319
0.024664421
0.017432101
0.030368503
0.024542254
0.040333481
0.044652279
0.077961876
0.064950709
0.10515645
0.1260259
0.15419184
0.18846303
0.19168525
0.19147942
0.19131935
0.19124666
0.19117515
0.19114029
0.19112406
0.19111557
0.19112555
0.19114549
0.19116417
0.19119084
0.19122487
0.19126578
0.19130637
0.19135713
0.19141461
0.19148047
0.19155721
0.19164724
0.19175292
0.19188031
0.19203303
0.1922193
0.19245031
0.19273798
0.19309571
0.19355385
0.19416237
0.19504599
0.19637349
0.00073311596
0.012965815
0.011723859
0.015071846
0.035987043
0.0064166008
0.026852523
0.013663619
0.024675716
0.042551318
0.050857677
0.060030135
0.059470244
0.091356442
0.10091688
0.15368096
0.17738153
0.19188668
0.1916312
0.19145732
0.19132351
0.19125701
0.19119716
0.19116624
0.19115075
0.19114866
0.19115904
0.1911815
0.19120463
0.1912356
0.19127235
0.19131612
0.1913621
0.19141623
0.19147848
0.1915502
0.19163233
0.19172823
0.19184095
0.19197643
0.19213824
0.19233479
0.19257736
0.19287663
0.19324752
0.19372181
0.19435103
0.19525977
0.1966188
0.00073750682
0.010304722
0.01060482
0.015293693
0.0093942332
0.0059834274
0.013099492
0.013528071
0.020039102
0.03629879
0.042194974
0.069618528
0.084974813
0.096672633
0.13498622
0.12758767
0.16108838
0.1918337
0.19160609
0.19144108
0.19131645
0.19125737
0.19121139
0.19118879
0.19118068
0.19117966
0.19119625
0.19121993
0.19124701
0.19128093
0.19132306
0.19137031
0.19141986
0.19147804
0.1915436
0.19162204
0.19170969
0.19181209
0.19193332
0.19207699
0.19224826
0.19245609
0.19271018
0.19302158
0.19340686
0.19389871
0.19455024
0.19548489
0.19688154
0.00073524055
0.0076319261
0.0096046731
0.0075222949
0.0075173869
0.0095437959
0.012634754
0.0081190681
0.026852474
0.037932179
0.061935862
0.058345155
0.076149365
0.092379236
0.095782019
0.14858691
0.18339359
0.19181441
0.19158009
0.19143761
0.19132726
0.19126677
0.19123028
0.19121301
0.19121044
0.19121496
0.19123489
0.19126221
0.19129092
0.19132804
0.19137316
0.19142495
0.19147897
0.19154186
0.19161167
0.19169491
0.19178921
0.19189922
0.19202873
0.19218143
0.19236337
0.19258291
0.19284896
0.19317328
0.19357432
0.1940857
0.19476138
0.19572473
0.19716524
0.00074199452
0.0047351631
0.010152888
0.0043970789
0.0080403307
0.0051043636
0.0050945085
0.005340707
0.017439593
0.026333535
0.036523449
0.057868253
0.078705537
0.092113314
0.1460671
0.14428692
0.17928609
0.19176528
0.1915514
0.19142518
0.19133112
0.19127862
0.19125092
0.19123962
0.1912407
0.19124964
0.19127445
0.19130371
0.19133623
0.1913763
0.1914246
0.19147921
0.19153891
0.19160657
0.19168305
0.19177133
0.19187138
0.1919895
0.19212864
0.19229042
0.19248325
0.1927149
0.19299371
0.19333129
0.19374925
0.19428189
0.19498463
0.19597763
0.19745937
)
;

boundaryField
{
    Side
    {
        type            empty;
    }
    Inlet
    {
        type            calculated;
        value           nonuniform List<scalar> 
30
(
0.19878772
0.1987633
0.19873541
0.1987232
0.19872263
0.19873209
0.19874504
0.19876116
0.19876296
0.19875875
0.19877196
0.1987891
0.19881723
0.19884755
0.19888457
0.19892209
0.19895709
0.19898551
0.19900395
0.19901035
0.19937285
0.19934974
0.19932768
0.1993158
0.19931402
0.19934095
0.19935259
0.19924888
0.19906657
0.19883375
)
;
    }
    Airfoil
    {
        type            nutkWallFunction;
        blending        stepwise;
        value           nonuniform List<scalar> 
25
(
0.00085808506
0.00084855619
0.00084090006
0.00083637426
0.00083279329
0.00083188992
0.00083246346
0.00083468924
0.00083806134
0.00084257323
0.00084786587
0.00085378778
0.00085999789
0.00086619902
0.00087209512
0.00087750244
0.00088216255
0.00088586921
0.00088842884
0.00089993566
0.00089008766
0.00088128097
0.00087445318
0.00086985207
0.00086726495
)
;
    }
    Outlet
    {
        type            calculated;
        value           nonuniform List<scalar> 0();
    }
    procBoundary7to0
    {
        type            processor;
        value           nonuniform List<scalar> 
50
(
0.19200163
0.19192801
0.19186661
0.19181686
0.19177477
0.19174261
0.19173034
0.19172775
0.19177625
0.19174262
0.19200844
0.15807558
0.12434209
0.098251485
0.077916933
0.061385288
0.047680417
0.036373966
0.027331998
0.020180219
0.014529369
0.010098496
0.0066580522
0.0040288549
0.0023463785
0.00088589666
0.19866297
0.19792399
0.19726191
0.19668628
0.19617661
0.19571846
0.19530505
0.19493011
0.19458908
0.19428055
0.19400235
0.19374968
0.19351928
0.19330892
0.19311742
0.19294113
0.19278032
0.19263478
0.19250166
0.19238036
0.19226971
0.19216983
0.19200163
0.19207991
)
;
    }
    procBoundary7to8
    {
        type            processor;
        value           nonuniform List<scalar> 
53
(
0.19107354
0.19111609
0.19116492
0.191224
0.19129501
0.19138333
0.19149136
0.19162634
0.19179857
0.19202361
0.19231594
0.19270217
0.19321789
0.19396192
0.19511976
0.1912398
0.19113874
0.19106873
0.19102457
0.19099604
0.19096926
0.19097175
0.19097922
0.19098724
0.19100236
0.1910278
0.19105534
0.19108661
0.19108661
0.063397258
0.0787618
0.11145748
0.09259001
0.16414206
0.15990638
0.1921669
0.19181396
0.19152768
0.19135549
0.19135549
0.014877971
0.016300967
0.026123064
0.020980055
0.072981193
0.018305172
0.033216354
0.020692911
0.038732269
0.038732269
0.00080888417
0.019142206
0.019142206
)
;
    }
}


// ************************************************************************* //
