/*--------------------------------*- C++ -*----------------------------------*\
| =========                 |                                                 |
| \\      /  F ield         | OpenFOAM: The Open Source CFD Toolbox           |
|  \\    /   O peration     | Version:  2506                                  |
|   \\  /    A nd           | Website:  www.openfoam.com                      |
|    \\/     M anipulation  |                                                 |
\*---------------------------------------------------------------------------*/
FoamFile
{
    version     2.0;
    format      ascii;
    arch        "LSB;label=32;scalar=64";
    class       volVectorField;
    location    "0.00014";
    object      U;
}
// * * * * * * * * * * * * * * * * * * * * * * * * * * * * * * * * * * * * * //

dimensions      [0 1 -1 0 0 0 0];

internalField   nonuniform List<vector> 
13761
(
(91.03 24.39 -6.1554531e-24)
(91.03 24.39 5.3213876e-24)
(91.03 24.39 -9.1905295e-24)
(91.03 24.39 -8.1145039e-21)
(91.03 24.39 -7.0032309e-21)
(91.03 24.39 -1.2041512e-20)
(91.03 24.39 0)
(91.03 24.39 6.1537317e-34)
(91.03 24.39 0)
(91.030004 24.389994 6.4105452e-24)
(91.035152 24.371389 -5.4973498e-24)
(91.03 24.39 5.9846264e-24)
(91.03 24.39 0)
(91.03 24.39 9.21045e-21)
(91.03 24.39 1.5939578e-20)
(91.03 24.39 -6.726965e-24)
(91.03 24.39 1.1900317e-20)
(91.03 24.39 0)
(91.03 24.39 1.9991347e-34)
(91.03 24.39 7.4308963e-24)
(91.029999 24.39 -1.3088863e-20)
(91.034578 24.371459 -5.4921534e-24)
(91.03 24.39 -6.0408545e-21)
(91.03 24.39 -5.1213194e-24)
(91.03 24.39 4.4444971e-24)
(91.03 24.39 -1.5778639e-20)
(91.03 24.39 6.829751e-21)
(91.03 24.39 0)
(91.03 24.39 -4.9813414e-24)
(91.03 24.39 -8.8065122e-21)
(91.03 24.39 7.5945864e-21)
(91.029999 24.39 2.612769e-20)
(91.034945 24.371478 5.4894088e-24)
(91.03 24.39 -6.8371044e-21)
(91.03 24.39 5.9579331e-21)
(91.03 24.39 5.0678605e-24)
(91.03 24.39 -4.4039351e-24)
(91.03 24.39 -7.6439391e-24)
(91.03 24.39 6.625467e-24)
(91.03 24.39 -5.7356912e-24)
(91.03 24.39 1.0756076e-38)
(91.03 24.39 -4.2838962e-24)
(91.03 24.39 -7.5552624e-21)
(91.03 24.39 -1.3056571e-20)
(91.034954 24.371461 0)
(91.03 24.39 6.7583398e-21)
(91.03 24.39 0)
(91.03 24.39 -1.0279353e-20)
(91.03 24.39 -1.310642e-23)
(91.03 24.39 7.7811973e-21)
(91.03 24.39 0)
(91.03 24.39 5.7082701e-24)
(91.03 24.39 -1.0123699e-20)
(91.03 24.39 8.7482244e-21)
(91.03 24.39 0)
(91.03 24.39 -6.3649607e-24)
(91.034953 24.371528 5.48556e-24)
(91.03 24.39 -1.338315e-20)
(91.03 24.39 -1.1700698e-20)
(91.03 24.39 2.0404608e-20)
(91.03 24.39 4.3373643e-24)
(91.03 24.39 -7.7329605e-21)
(91.03 24.39 -6.7096467e-21)
(91.03 24.39 0)
(91.03 24.39 3.1241164e-36)
(91.03 24.39 -1.7450959e-20)
(91.03 24.39 7.541542e-21)
(91.03 24.39 0)
(91.034962 24.371534 0)
(91.03 24.39 7.5729688e-21)
(91.03 24.39 4.5678976e-32)
(91.03 24.39 1.1589937e-20)
(91.03 24.39 -1.0117926e-20)
(91.03 24.39 8.6174023e-24)
(91.03 24.39 7.6738649e-21)
(91.03 24.39 6.6773034e-21)
(91.03 24.39 5.6609061e-24)
(91.03 24.39 1.0051969e-20)
(91.03 24.39 1.7405069e-20)
(91.03 24.39 3.1735244e-33)
(91.03 24.39 0)
(91.034955 24.371522 0)
(91.03 24.39 0)
(91.03 24.39 6.5730063e-21)
(91.03 24.39 -1.150979e-20)
(91.03 24.39 4.908217e-24)
(91.03 24.39 8.5645341e-24)
(91.03 24.39 8.0909001e-39)
(91.03 24.39 -6.4915526e-24)
(91.03 24.39 0)
(91.03 24.39 -1.002233e-20)
(91.03 24.39 -8.685298e-21)
(91.03 24.39 -7.510226e-21)
(91.03 24.39 1.2998642e-20)
(91.03495 24.371536 -1.1231151e-20)
(91.03 24.39 7.4312012e-21)
(91.03 24.39 -6.3660909e-24)
(91.03 24.39 1.1424665e-20)
(91.03 24.39 4.8760046e-24)
(91.03 24.39 -4.2576329e-24)
(91.03 24.39 -7.6100482e-21)
(91.03 24.39 1.2928314e-23)
(91.03 24.39 -5.6203171e-24)
(91.03 24.39 9.9896151e-21)
(91.03 24.39 4.2320002e-24)
(91.03 24.39 0)
(91.03 24.39 -2.5969926e-20)
(91.034955 24.371514 2.2441112e-20)
(91.03 24.39 1.6752371e-20)
(91.03 24.39 -7.3639269e-21)
(91.03 24.39 0)
(91.03 24.39 -1.133953e-20)
(91.03 24.39 0)
(91.03 24.39 -8.468983e-24)
(91.03 24.39 7.5669066e-21)
(91.03 24.39 1.3192248e-20)
(91.03 24.39 -1.1478091e-20)
(91.03 24.39 -9.9634312e-21)
(91.03 24.39 8.6415703e-21)
(91.03 24.39 -7.7143392e-32)
(91.03 24.39 1.2984513e-20)
(91.034947 24.371512 -1.1221058e-20)
(91.03 24.39 -8.3037379e-21)
(91.03 24.39 -7.3076722e-21)
(91.03 24.39 -6.4205931e-21)
(91.03 24.39 5.5002261e-24)
(91.03 24.39 -4.8172202e-24)
(91.03 24.39 -8.6273534e-21)
(91.03 24.39 0)
(91.03 24.39 -1.3135862e-20)
(91.03 24.39 2.2867457e-20)
(91.03 24.39 9.9482479e-21)
(91.03 24.39 8.4313645e-24)
(91.03 24.39 7.7105414e-32)
(91.03 24.39 2.3768536e-31)
(91.034944 24.371492 -5.4779965e-24)
(91.03 24.39 0)
(91.03 24.39 7.2511402e-21)
(91.03 24.39 6.3755367e-21)
(91.03 24.39 1.1193377e-20)
(91.03 24.39 4.7901667e-24)
(91.03 24.39 8.5889637e-21)
(91.03 24.39 7.4935139e-21)
(91.03 24.39 0)
(91.03 24.39 -1.1402256e-20)
(91.03 24.39 -9.9147676e-21)
(91.03 24.39 -4.2080895e-24)
(91.03 24.39 -7.3023732e-24)
(91.03 24.39 6.3280072e-24)
(91.034946 24.371553 0)
(91.03 24.39 0)
(91.03 24.39 -7.1976862e-21)
(91.03 24.39 -6.3328841e-21)
(91.03 24.39 0)
(91.03 24.39 4.7645119e-24)
(91.03 24.39 -8.5484754e-21)
(91.03 24.39 -7.2951467e-24)
(91.03 24.39 -9.865384e-40)
(91.03 24.39 5.5515594e-24)
(91.03 24.39 9.9018106e-21)
(91.03 24.39 -4.2008229e-24)
(91.03 24.39 -1.4937605e-20)
(91.03 24.39 0)
(91.034957 24.371554 0)
(91.03 24.39 -8.9596522e-24)
(91.03 24.39 8.108353e-21)
(91.03 24.39 1.4293944e-20)
(91.03 24.39 6.286251e-21)
(91.03 24.39 5.4013084e-24)
(91.03 24.39 0)
(91.03 24.39 8.4973517e-21)
(91.03 24.39 -7.4337728e-21)
(91.03 24.39 6.3474495e-24)
(91.03 24.39 -1.1343887e-20)
(91.03 24.39 9.8753446e-21)
(91.03 24.39 -8.5890744e-21)
(91.03 24.39 -3.4623348e-33)
(91.03 24.39 -1.2943013e-20)
(91.034953 24.371529 -1.1213549e-20)
(91.03 24.39 4.4439597e-24)
(91.03 24.39 -3.9279997e-24)
(91.03 24.39 -1.4193881e-20)
(91.03 24.39 6.2537177e-21)
(91.03 24.39 -1.1000629e-20)
(91.03 24.39 0)
(91.03 24.39 0)
(91.03 24.39 0)
(91.03 24.39 0)
(91.03 24.39 1.1308351e-20)
(91.03 24.39 -1.9709086e-20)
(91.03 24.39 0)
(91.03 24.39 1.4904402e-20)
(91.03 24.39 2.5870354e-20)
(91.034943 24.371526 1.1211955e-20)
(91.03 24.39 0)
(91.03 24.39 3.9000795e-24)
(91.03 24.39 7.049039e-21)
(91.03 24.39 -1.2427353e-20)
(91.03 24.39 2.1878428e-20)
(91.03 24.39 0)
(91.03 24.39 8.2356407e-24)
(91.03 24.39 -7.212972e-24)
(91.03 24.39 1.2918029e-20)
(91.03 24.39 0)
(91.03 24.39 9.8392814e-21)
(91.03 24.39 8.5581155e-21)
(91.03 24.39 0)
(91.03 24.39 -2.5861494e-20)
(91.03494 24.371505 -1.1204957e-20)
(91.03 24.39 -4.9380511e-24)
(91.03 24.39 -8.9599297e-21)
(91.03 24.39 -7.9288372e-21)
(91.03 24.39 -3.4219725e-24)
(91.03 24.39 6.1812251e-21)
(91.03 24.39 -1.0890958e-20)
(91.03 24.39 9.34528e-24)
(91.03 24.39 -1.2303483e-23)
(91.03 24.39 -7.360214e-21)
(91.03 24.39 -1.2873266e-20)
(91.03 24.39 5.4939615e-24)
(91.03 24.39 -4.7925373e-24)
(91.03 24.39 -8.549593e-21)
(91.03 24.39 1.4873697e-20)
(91.03 24.39 1.2914087e-20)
(91.034941 24.371568 1.1214508e-20)
(91.03 24.39 2.0065685e-20)
(91.03 24.39 8.9045136e-21)
(91.03 24.39 -3.8478055e-24)
(91.03 24.39 -6.9623786e-21)
(91.03 24.39 6.0030101e-24)
(91.03 24.39 -1.0577606e-23)
(91.03 24.39 4.6518837e-24)
(91.03 24.39 8.3581274e-21)
(91.03 24.39 7.3423804e-21)
(91.03 24.39 1.2842288e-20)
(91.03 24.39 -1.1230271e-20)
(91.03 24.39 9.5667558e-24)
(91.03 24.39 4.1686045e-24)
(91.03 24.39 -1.4873606e-20)
(91.03 24.39 1.2610746e-23)
(91.03495 24.371571 -5.4725161e-24)
(91.03 24.39 -9.9656435e-21)
(91.03 24.39 4.3157946e-24)
(91.03 24.39 -7.8300124e-21)
(91.03 24.39 6.9216329e-21)
(91.03 24.39 0)
(91.03 24.39 1.0779319e-20)
(91.03 24.39 0)
(91.03 24.39 -6.0681199e-35)
(91.03 24.39 -7.311088e-21)
(91.03 24.39 -1.2812597e-20)
(91.03 24.39 1.120431e-20)
(91.03 24.39 0)
(91.03 24.39 0)
(91.03 24.39 1.4852164e-20)
(91.03 24.39 1.2900341e-20)
(91.034944 24.371556 0)
(91.03 24.39 -5.43017e-24)
(91.03 24.39 4.8288561e-24)
(91.03 24.39 0)
(91.03 24.39 1.5563633e-20)
(91.03 24.39 0)
(91.03 24.39 0)
(91.03 24.39 -1.0734513e-20)
(91.03 24.39 -9.437531e-21)
(91.03 24.39 -8.3081092e-21)
(91.03 24.39 7.2878386e-21)
(91.03 24.39 -1.2771767e-20)
(91.03 24.39 -5.4559306e-24)
(91.03 24.39 -9.7560046e-21)
(91.03 24.39 0)
(91.03 24.39 -1.4831254e-20)
(91.03 24.39 -1.2893909e-20)
(91.03494 24.371569 -5.4713518e-24)
(91.03 24.39 5.519355e-21)
(91.03 24.39 -4.7954443e-24)
(91.03 24.39 8.518921e-24)
(91.03 24.39 -3.777098e-24)
(91.03 24.39 0)
(91.03 24.39 0)
(91.03 24.39 0)
(91.03 24.39 9.4087129e-21)
(91.03 24.39 0)
(91.03 24.39 0)
(91.03 24.39 1.2738198e-20)
(91.03 24.39 5.444065e-24)
(91.03 24.39 1.9478261e-20)
(91.03 24.39 4.1517751e-24)
(91.03 24.39 0)
(91.03 24.39 -6.2958546e-24)
(91.034947 24.371544 5.4708466e-24)
(91.03 24.39 8.0270906e-24)
(91.03 24.39 -4.7632786e-24)
(91.03 24.39 0)
(91.03 24.39 -1.5381614e-20)
(91.03 24.39 6.8184409e-21)
(91.03 24.39 -5.8819896e-24)
(91.03 24.39 1.0639251e-20)
(91.03 24.39 -4.5761334e-24)
(91.03 24.39 0)
(91.03 24.39 7.0737593e-24)
(91.03 24.39 -6.2039171e-24)
(91.03 24.39 0)
(91.03 24.39 -9.7274454e-21)
(91.03 24.39 -8.2930131e-24)
(91.03 24.39 -1.4798043e-20)
(91.03 24.39 1.2887793e-20)
(91.03 24.39 1.2205165e-20)
(91.03 24.39 -5.4391206e-21)
(91.03 24.39 -9.4645286e-24)
(91.03 24.39 8.6205491e-21)
(91.03 24.39 7.6438967e-21)
(91.03 24.39 -6.7799746e-21)
(91.03 24.39 1.1995511e-20)
(91.03 24.39 -1.0594088e-20)
(91.03 24.39 4.5587335e-24)
(91.03 24.39 0)
(91.03 24.39 0)
(91.03 24.39 0)
(91.03 24.39 5.4213337e-24)
(91.03 24.39 -9.7114832e-21)
(91.03 24.39 8.4773874e-21)
(91.03 24.39 -7.8529991e-33)
(91.03 24.39 -2.5763825e-20)
(91.03 24.39 -6.0514814e-21)
(91.03 24.39 2.6391952e-24)
(91.03 24.39 -4.702375e-24)
(91.03 24.39 -1.7131287e-20)
(91.03 24.39 0)
(91.03 24.39 0)
(91.03 24.39 -1.1934834e-20)
(91.03 24.39 5.148986e-24)
(91.03 24.39 1.4774838e-38)
(91.03 24.39 -3.9997351e-24)
(91.03 24.39 7.0330983e-24)
(91.03 24.39 -6.1736149e-24)
(91.03 24.39 5.4104846e-24)
(91.03 24.39 9.691192e-21)
(91.03 24.39 -1.6934316e-20)
(91.03 24.39 1.4780823e-20)
(91.03 24.39 1.2876234e-20)
(91.03 24.39 6.7279279e-21)
(91.03 24.39 0)
(91.03 24.39 5.3748963e-21)
(91.03 24.39 1.0490135e-36)
(91.03 24.39 -4.1585252e-24)
(91.03 24.39 0)
(91.03 24.39 0)
(91.03 24.39 0)
(91.03 24.39 0)
(91.03 24.39 -4.5254928e-24)
(91.03 24.39 3.9870018e-24)
(91.03 24.39 0)
(91.03 24.39 -6.1590623e-24)
(91.03 24.39 5.399943e-24)
(91.03 24.39 4.7269632e-24)
(91.03 24.39 8.4655329e-21)
(91.03 24.39 -7.2114964e-24)
(91.03 24.39 0)
(91.03 24.39 1.5109394e-34)
(91.03 24.39 5.971721e-21)
(91.03 24.39 -5.3354781e-21)
(91.03 24.39 0)
(91.03 24.39 8.4651709e-21)
(91.03 24.39 3.6751021e-24)
(91.03 24.39 -6.6779103e-21)
(91.03 24.39 0)
(91.03 24.39 -1.0461379e-20)
(91.03 24.39 -9.2356664e-21)
(91.03 24.39 0)
(91.03 24.39 6.994706e-24)
(91.03 24.39 -6.1449031e-24)
(91.03 24.39 -5.389653e-24)
(91.03 24.39 4.7198041e-24)
(91.03 24.39 0)
(91.03 24.39 7.20591e-24)
(91.03 24.39 -6.2819346e-24)
(91.03 24.39 0)
(91.03 24.39 -5.9383857e-21)
(91.03 24.39 2.5891518e-24)
(91.03 24.39 -4.6187158e-24)
(91.03 24.39 4.1130432e-24)
(91.03 24.39 -7.4889892e-21)
(91.03 24.39 1.2974019e-34)
(91.03 24.39 5.7521373e-24)
(91.03 24.39 1.041643e-20)
(91.03 24.39 1.8408305e-20)
(91.03 24.39 8.1154764e-21)
(91.03 24.39 -6.9763592e-24)
(91.03 24.39 -1.2550459e-20)
(91.03 24.39 0)
(91.03 24.39 9.6471581e-21)
(91.03 24.39 4.1222484e-24)
(91.03 24.39 7.2004661e-24)
(91.03 24.39 7.3486141e-21)
(91.03 24.39 0)
(91.03 24.39 -5.8977399e-21)
(91.03 24.39 5.2759293e-21)
(91.03 24.39 9.396759e-21)
(91.03 24.39 -8.3752322e-21)
(91.03 24.39 7.4525912e-21)
(91.03 24.39 6.6173497e-21)
(91.03 24.39 0)
(91.03 24.39 -1.0382884e-20)
(91.03 24.39 -9.1735335e-21)
(91.03 24.39 -8.0995547e-21)
(91.03 24.39 6.9585837e-24)
(91.03 24.39 1.2529199e-20)
(91.03 24.39 1.0997672e-20)
(91.03 24.39 8.0770619e-34)
(91.03 24.39 0)
(91.03 24.39 0)
(91.03 24.39 -7.3017276e-21)
(91.03 24.39 0)
(91.03 24.39 5.8612633e-21)
(91.03 24.39 -5.2348859e-21)
(91.03 24.39 -9.1352182e-24)
(91.03 24.39 4.0705689e-24)
(91.03 24.39 -3.6216889e-24)
(91.03 24.39 -6.5852408e-21)
(91.03 24.39 0)
(91.03 24.39 1.0340301e-20)
(91.03 24.39 4.4647588e-24)
(91.03 24.39 8.0684928e-21)
(91.03 24.39 0)
(91.03 24.39 1.2502641e-20)
(91.03 24.39 -1.0978275e-20)
(91.03 24.39 -9.6244313e-21)
(91.03 24.39 -8.2269601e-24)
(91.03 24.39 -1.4718215e-20)
(91.03 24.39 0)
(91.03 24.39 0)
(91.03 24.39 0)
(91.03 24.39 0)
(91.03 24.39 1.4413513e-35)
(91.03 24.39 1.6589919e-20)
(91.03 24.39 3.6049398e-24)
(91.03 24.39 1.3117613e-20)
(91.03 24.39 0)
(91.03 24.39 0)
(91.03 24.39 0)
(91.03 24.39 -8.0538444e-21)
(91.03 24.39 1.38488e-23)
(91.03 24.39 -1.2482878e-20)
(91.03 24.39 0)
(91.03 24.39 9.6112462e-21)
(91.03 24.39 1.6831497e-20)
(91.03 24.39 -7.1851246e-24)
(91.03 24.39 0)
(91.03 24.39 0)
(91.03 24.39 0)
(91.03 24.39 -2.8280451e-24)
(91.03 24.39 2.5299974e-24)
(91.03 24.39 -9.2562852e-21)
(91.03 24.39 -8.2546815e-21)
(91.03 24.39 -3.5887171e-24)
(91.03 24.39 -6.5299643e-21)
(91.03 24.39 5.6619265e-24)
(91.03 24.39 -7.7706614e-40)
(91.03 24.39 -4.4369405e-24)
(91.03 24.39 0)
(91.03 24.39 6.907923e-24)
(91.03 24.39 -1.2159677e-23)
(91.03 24.39 5.3423057e-24)
(91.03 24.39 -9.5984085e-21)
(91.03 24.39 -1.6822815e-20)
(91.03 24.39 1.4712302e-20)
(91.03 24.39 -8.4020617e-35)
(91.03 24.39 -7.1566339e-21)
(91.03 24.39 3.1373194e-24)
(91.03 24.39 -2.8118791e-24)
(91.03 24.39 0)
(91.03 24.39 -9.2092766e-21)
(91.03 24.39 -4.0115123e-24)
(91.03 24.39 3.5729579e-24)
(91.03 24.39 0)
(91.03 24.39 0)
(91.03 24.39 -1.0238891e-20)
(91.03 24.39 4.4235335e-24)
(91.03 24.39 -8.0064199e-21)
(91.03 24.39 1.4114483e-20)
(91.03 24.39 0)
(91.03 24.39 0)
(91.03 24.39 4.6805689e-24)
(91.03 24.39 1.6793997e-20)
(91.03 24.39 -8.7876254e-21)
(91.03 24.39 0)
(91.03 24.39 1.4231726e-20)
(91.03 24.39 -6.2377222e-24)
(91.03 24.39 2.796167e-24)
(91.03 24.39 0)
(91.03 24.39 1.7318144e-34)
(91.03 24.39 3.9929887e-24)
(91.03 24.39 -7.1151749e-24)
(91.03 24.39 6.4840417e-21)
(91.03 24.39 -5.6204552e-24)
(91.03 24.39 9.9659844e-24)
(91.03 24.39 -4.4104929e-24)
(91.03 24.39 7.9816795e-21)
(91.03 24.39 -1.4075583e-20)
(91.03 24.39 -6.056006e-24)
(91.03 24.39 5.324963e-24)
(91.03 24.39 -4.6745913e-24)
(91.03 24.39 -1.678192e-20)
(91.03 24.39 4.3627986e-21)
(91.03 24.39 5.9334073e-35)
(91.03 24.39 -7.0661331e-21)
(91.03 24.39 -3.1009589e-24)
(91.03 24.39 0)
(91.03 24.39 0)
(91.03 24.39 9.1149842e-21)
(91.03 24.39 -4.9875416e-38)
(91.03 24.39 3.542633e-24)
(91.03 24.39 -1.936749e-20)
(91.03 24.39 0)
(91.03 24.39 2.0344743e-20)
(91.03 24.39 0)
(91.03 24.39 -7.9613578e-21)
(91.03 24.39 1.4051243e-20)
(91.03 24.39 0)
(91.03 24.39 -1.0888336e-20)
(91.03 24.39 0)
(91.03 24.39 -1.6766214e-20)
(91.03 24.39 -4.8080286e-21)
(91.03 24.39 2.1177111e-24)
(91.03 24.39 -1.9077586e-24)
(91.03 24.39 -3.4325811e-24)
(91.03 24.39 -6.3091609e-21)
(91.03 24.39 -5.6679832e-21)
(91.03 24.39 -4.9555139e-24)
(91.03 24.39 4.4319021e-24)
(91.03 24.39 8.1088152e-21)
(91.03 24.39 3.9733391e-37)
(91.03 24.39 3.1403799e-24)
(91.03 24.39 -1.1430409e-20)
(91.03 24.39 -1.0145535e-20)
(91.03 24.39 8.9813539e-21)
(91.03 24.39 1.5883119e-20)
(91.03 24.39 -1.4013965e-20)
(91.03 24.39 1.2356347e-20)
(91.03 24.39 1.0861077e-20)
(91.03 24.39 -9.5406466e-21)
(91.03 24.39 1.6746907e-20)
(91.03 24.39 4.7775728e-21)
(91.03 24.39 0)
(91.03 24.39 -1.8963755e-24)
(91.03 24.39 -6.9881117e-21)
(91.03 24.39 6.2810121e-21)
(91.03 24.39 1.1272007e-20)
(91.03 24.39 1.0099441e-20)
(91.03 24.39 -9.0305398e-21)
(91.03 24.39 -8.0741307e-21)
(91.03 24.39 0)
(91.03 24.39 -6.2576285e-24)
(91.03 24.39 5.5624582e-24)
(91.03 24.39 4.9363346e-24)
(91.03 24.39 -8.9567942e-21)
(91.03 24.39 -7.9261548e-21)
(91.03 24.39 -6.8316251e-24)
(91.03 24.39 -1.2328115e-20)
(91.03 24.39 -1.0855448e-20)
(91.03 24.39 9.5386113e-21)
(91.03 24.39 8.1718846e-24)
(91.03 24.39 4.7469387e-21)
(91.03 24.39 -4.2840057e-21)
(91.03 24.39 1.8853491e-24)
(91.03 24.39 1.3900106e-20)
(91.03 24.39 0)
(91.03 24.39 -5.6076196e-21)
(91.03 24.39 1.5103042e-34)
(91.03 24.39 8.9945281e-21)
(91.03 24.39 8.0403403e-21)
(91.03 24.39 -3.5004382e-24)
(91.03 24.39 1.2769578e-20)
(91.03 24.39 1.1354415e-20)
(91.03 24.39 0)
(91.03 24.39 4.3617404e-24)
(91.03 24.39 -7.9073039e-21)
(91.03 24.39 0)
(91.03 24.39 0)
(91.03 24.39 -5.2927645e-24)
(91.03 24.39 9.3042136e-24)
(91.03 24.39 1.6709143e-20)
(91.03 24.39 5.2199258e-21)
(91.03 24.39 -4.7178057e-21)
(91.03 24.39 4.2586687e-21)
(91.03 24.39 -7.6804419e-21)
(91.03 24.39 -6.914867e-21)
(91.03 24.39 6.0696977e-24)
(91.03 24.39 -5.5827813e-21)
(91.03 24.39 -1.0009504e-20)
(91.03 24.39 8.9595873e-21)
(91.03 24.39 -1.6007103e-20)
(91.03 24.39 7.141636e-21)
(91.03 24.39 0)
(91.03 24.39 -5.5263105e-24)
(91.03 24.39 4.9072462e-24)
(91.03 24.39 8.9050768e-21)
(91.03 24.39 -3.8501203e-24)
(91.03 24.39 6.8036709e-24)
(91.03 24.39 -6.0015354e-24)
(91.03 24.39 2.1653557e-20)
(91.03 24.39 0)
(91.03 24.39 -1.5831144e-25)
(91.03 24.39 1.1449065e-24)
(91.03 24.39 1.0337148e-24)
(91.03 24.39 1.5270298e-20)
(91.03 24.39 -3.3576787e-24)
(91.03 24.39 -6.1779099e-21)
(91.03 24.39 -2.7115684e-24)
(91.03 24.39 9.9591967e-21)
(91.03 24.39 3.2046032e-34)
(91.03 24.39 1.5943106e-20)
(91.03 24.39 -7.1185531e-21)
(91.03 24.39 3.0959747e-24)
(91.03 24.39 0)
(91.03 24.39 0)
(91.03 24.39 -8.8865698e-21)
(91.03 24.39 7.8671621e-21)
(91.03 24.39 6.7901973e-24)
(91.03 24.39 -1.1982734e-23)
(91.03 24.39 5.2778246e-24)
(91.03 24.39 0)
(91.03 24.39 -5.696225e-21)
(91.03 24.39 -5.1558428e-21)
(91.03 24.39 0)
(91.03 24.39 4.2102496e-21)
(91.03 24.39 -7.5947809e-21)
(91.03 24.39 0)
(91.03 24.39 6.1504257e-21)
(91.03 24.39 5.5299307e-21)
(91.03 24.39 -2.7338974e-34)
(91.03 24.39 -8.8753761e-21)
(91.03 24.39 -1.5884535e-20)
(91.03 24.39 0)
(91.03 24.39 6.1711406e-24)
(91.03 24.39 -1.1258512e-20)
(91.03 24.39 -2.5805219e-36)
(91.03 24.39 8.8685804e-21)
(91.03 24.39 1.5699403e-20)
(91.03 24.39 -6.7770683e-24)
(91.03 24.39 -1.2250026e-20)
(91.03 24.39 1.2540653e-33)
(91.03 24.39 9.5002954e-21)
(91.03 24.39 -5.6611096e-21)
(91.03 24.39 0)
(91.03 24.39 0)
(91.03 24.39 -4.187074e-21)
(91.03 24.39 -7.5545591e-21)
(91.03 24.39 0)
(91.03 24.39 -6.1267057e-21)
(91.03 24.39 2.6864473e-24)
(91.03 24.39 5.1993858e-35)
(91.03 24.39 8.839178e-21)
(91.03 24.39 7.9138161e-21)
(91.03 24.39 0)
(91.03 24.39 0)
(91.03 24.39 1.1213544e-20)
(91.03 24.39 9.9658938e-21)
(91.03 24.39 -8.8380966e-21)
(91.03 24.39 -1.5669011e-20)
(91.03 24.39 6.7641829e-24)
(91.03 24.39 1.2230246e-20)
(91.03 24.39 -5.2635164e-24)
(91.03 24.39 -9.4855704e-21)
(91.03 24.39 1.5154387e-24)
(91.03 24.39 5.6273798e-21)
(91.03 24.39 -5.0960928e-21)
(91.03 24.39 0)
(91.03 24.39 4.1645375e-21)
(91.03 24.39 7.5136554e-21)
(91.03 24.39 1.6534637e-24)
(91.03 24.39 1.2084719e-34)
(91.03 24.39 5.4771956e-21)
(91.03 24.39 -9.8300455e-21)
(91.03 24.39 -8.8038397e-21)
(91.03 24.39 -3.8478497e-24)
(91.03 24.39 0)
(91.03 24.39 0)
(91.03 24.39 -1.1180446e-20)
(91.03 24.39 -9.934373e-21)
(91.03 24.39 8.8210579e-21)
(91.03 24.39 -1.5635539e-20)
(91.03 24.39 0)
(91.03 24.39 1.2210768e-20)
(91.03 24.39 -1.0760248e-20)
(91.03 24.39 -9.475621e-21)
(91.03 24.39 3.3988153e-21)
(91.03 24.39 -6.1685618e-21)
(91.03 24.39 -1.7073558e-24)
(91.03 24.39 3.0928652e-25)
(91.03 24.39 0)
(91.03 24.39 -4.1427067e-21)
(91.03 24.39 0)
(91.03 24.39 -3.2909468e-24)
(91.03 24.39 6.0725834e-21)
(91.03 24.39 -5.4558543e-21)
(91.03 24.39 -4.7799159e-24)
(91.03 24.39 -4.2737572e-37)
(91.03 24.39 4.6916203e-38)
(91.03 24.39 3.9691243e-37)
(91.03 24.39 -1.2507687e-20)
(91.03 24.39 1.1142794e-20)
(91.03 24.39 -9.9131542e-21)
(91.03 24.39 -8.8046027e-21)
(91.03 24.39 3.8083449e-24)
(91.03 24.39 -6.7392851e-24)
(91.03 24.39 -1.2185855e-20)
(91.03 24.39 0)
(91.03 24.39 1.8931779e-20)
(91.03 24.39 3.299309e-24)
(91.03 24.39 1.8249701e-31)
(91.03 24.39 -5.5626747e-21)
(91.03 24.39 -6.1518435e-25)
(91.03 24.39 2.7833116e-25)
(91.03 24.39 -8.2430924e-21)
(91.03 24.39 -7.4426787e-21)
(91.03 24.39 4.9131686e-24)
(91.03 24.39 -6.0423782e-21)
(91.03 24.39 5.4298803e-21)
(91.03 24.39 4.7606105e-24)
(91.03 24.39 -4.2677501e-24)
(91.03 24.39 3.8201076e-24)
(91.03 24.39 6.9886812e-21)
(91.03 24.39 1.247842e-20)
(91.03 24.39 -1.1116852e-20)
(91.03 24.39 -3.6469439e-33)
(91.03 24.39 8.7801426e-21)
(91.03 24.39 3.1134463e-20)
(91.03 24.39 -6.7272871e-24)
(91.03 24.39 -1.2167474e-20)
(91.03 24.39 0)
(91.03 24.39 -1.99986e-34)
(91.03 24.39 3.2800634e-24)
(91.03 24.39 6.7708197e-32)
(91.03 24.39 -6.3931207e-34)
(91.03 24.39 5.0126164e-21)
(91.03 24.39 0)
(91.03 24.39 8.2019145e-21)
(91.03 24.39 7.4033659e-21)
(91.03 24.39 4.8905904e-24)
(91.03 24.39 1.2022932e-20)
(91.03 24.39 -1.0814451e-20)
(91.03 24.39 0)
(91.03 24.39 -8.7120873e-21)
(91.03 24.39 3.8068169e-24)
(91.03 24.39 -6.9693985e-21)
(91.03 24.39 -1.2440898e-20)
(91.03 24.39 1.1086242e-20)
(91.03 24.39 -7.0052083e-33)
(91.03 24.39 -1.1005618e-33)
(91.03 24.39 -1.553629e-20)
(91.03 24.39 6.7155941e-24)
(91.03 24.39 1.2149445e-20)
(91.03 24.39 1.071971e-20)
(91.03 24.39 -3.6704701e-21)
(91.03 24.39 0)
(91.03 24.39 1.4808246e-24)
(91.03 24.39 -1.3433662e-24)
(91.03 24.39 0)
(91.03 24.39 4.5136467e-21)
(91.03 24.39 0)
(91.03 24.39 0)
(91.03 24.39 6.647284e-21)
(91.03 24.39 -5.9871404e-21)
(91.03 24.39 1.0770332e-20)
(91.03 24.39 4.7235291e-24)
(91.03 24.39 8.6762034e-21)
(91.03 24.39 -3.7938052e-24)
(91.03 24.39 0)
(91.03 24.39 9.9919344e-35)
(91.03 24.39 0)
(91.03 24.39 9.8340584e-21)
(91.03 24.39 -8.7325726e-21)
(91.03 24.39 -1.5509746e-20)
(91.03 24.39 1.3730209e-20)
(91.03 24.39 0)
(91.03 24.39 -1.0712114e-20)
(91.03 24.39 4.0186364e-21)
(91.03 24.39 3.6495362e-21)
(91.03 24.39 1.6216075e-24)
(91.03 24.39 6.0310676e-21)
(91.03 24.39 5.473462e-21)
(91.03 24.39 4.9608866e-21)
(91.03 24.39 -8.9832107e-21)
(91.03 24.39 -4.957872e-25)
(91.03 24.39 -7.3357643e-21)
(91.03 24.39 -6.618072e-21)
(91.03 24.39 -5.9620137e-21)
(91.03 24.39 -1.0727338e-20)
(91.03 24.39 0)
(91.03 24.39 4.2213231e-24)
(91.03 24.39 -7.7437165e-21)
(91.03 24.39 6.9222653e-21)
(91.03 24.39 1.2362757e-20)
(91.03 24.39 -1.102185e-20)
(91.03 24.39 -4.7925919e-24)
(91.03 24.39 4.2589006e-24)
(91.03 24.39 1.5468747e-20)
(91.03 24.39 -2.7414632e-20)
(91.03 24.39 1.213231e-20)
(91.03 24.39 -1.0448688e-23)
(91.03 24.39 4.3826928e-21)
(91.03 24.39 -3.9918193e-21)
(91.03 24.39 0)
(91.03 24.39 3.30135e-21)
(91.03 24.39 -5.9990885e-21)
(91.03 24.39 6.6470367e-25)
(91.03 24.39 -9.8726768e-21)
(91.03 24.39 4.7740569e-25)
(91.03 24.39 -4.9347508e-25)
(91.03 24.39 7.3055376e-21)
(91.03 24.39 6.5880111e-21)
(91.03 24.39 5.9404318e-21)
(91.03 24.39 -5.2174958e-24)
(91.03 24.39 2.3441128e-24)
(91.03 24.39 0)
(91.03 24.39 7.7183982e-21)
(91.03 24.39 -2.2674664e-34)
(91.03 24.39 -1.2333856e-20)
(91.03 24.39 -5.3704655e-24)
(91.03 24.39 4.7813141e-24)
(91.03 24.39 0)
(91.03 24.39 0)
(91.03 24.39 1.3684923e-20)
(91.03 24.39 -1.7643056e-33)
(91.03 24.39 0)
(91.03 24.39 0)
(91.03 24.39 0)
(91.03 24.39 -3.6129257e-21)
(91.03 24.39 2.3410559e-34)
(91.03 24.39 1.1937415e-20)
(91.03 24.39 1.9840494e-24)
(91.03 24.39 -5.2465652e-25)
(91.03 24.39 4.4484143e-21)
(91.03 24.39 9.8244655e-25)
(91.03 24.39 -8.8765841e-25)
(91.03 24.39 -6.5618914e-21)
(91.03 24.39 0)
(91.03 24.39 1.5966868e-20)
(91.03 24.39 9.5666983e-21)
(91.03 24.39 0)
(91.03 24.39 7.6936791e-21)
(91.03 24.39 -6.8839441e-21)
(91.03 24.39 1.2299797e-20)
(91.03 24.39 1.0970836e-20)
(91.03 24.39 -4.7703063e-24)
(91.03 24.39 4.2410826e-24)
(91.03 24.39 1.5426362e-20)
(91.03 24.39 -6.671427e-24)
(91.03 24.39 -2.4174021e-20)
(91.03 24.39 0)
(91.03 24.39 0)
(91.03 24.39 0)
(91.03 24.39 3.5936686e-21)
(91.03 24.39 5.0678368e-34)
(91.03 24.39 -5.9406121e-21)
(91.03 24.39 1.3161775e-24)
(91.03 24.39 4.8884892e-21)
(91.03 24.39 4.4278941e-21)
(91.03 24.39 -8.0112854e-21)
(91.03 24.39 -8.8385225e-25)
(91.03 24.39 -6.534913e-21)
(91.03 24.39 -2.8761679e-24)
(91.03 24.39 -1.0599533e-20)
(91.03 24.39 -1.9067825e-20)
(91.03 24.39 0)
(91.03 24.39 -1.5339081e-20)
(91.03 24.39 0)
(91.03 24.39 -5.9895473e-24)
(91.03 24.39 1.0687075e-23)
(91.03 24.39 9.7428192e-21)
(91.03 24.39 0)
(91.03 24.39 -1.5391152e-20)
(91.03 24.39 0)
(91.03 24.39 1.2076726e-20)
(91.03 24.39 0)
(91.03 24.39 0)
(91.03 24.39 -4.3057414e-21)
(91.03 24.39 -3.8348473e-24)
(91.03 24.39 -3.4911359e-24)
(91.03 24.39 -3.2500467e-21)
(91.03 24.39 2.1925154e-37)
(91.03 24.39 1.9647343e-24)
(91.03 24.39 -5.8466067e-25)
(91.03 24.39 -4.407295e-21)
(91.03 24.39 7.9777264e-21)
(91.03 24.39 -8.8013479e-25)
(91.03 24.39 4.3655806e-34)
(91.03 24.39 -2.8650824e-24)
(91.03 24.39 2.5795397e-24)
(91.03 24.39 -4.6384818e-24)
(91.03 24.39 8.5330369e-21)
(91.03 24.39 3.7333939e-24)
(91.03 24.39 2.5159101e-37)
(91.03 24.39 2.98683e-24)
(91.03 24.39 -5.3305131e-24)
(91.03 24.39 -1.9451984e-20)
(91.03 24.39 8.650888e-21)
(91.03 24.39 -7.5019393e-24)
(91.03 24.39 6.6506992e-24)
(91.03 24.39 1.205505e-20)
(91.03 24.39 -2.8203832e-21)
(91.03 24.39 0)
(91.03 24.39 0)
(91.03 24.39 4.2828522e-21)
(91.03 24.39 -3.9064455e-21)
(91.03 24.39 3.4733393e-24)
(91.03 24.39 0)
(91.03 24.39 -5.8810434e-21)
(91.03 24.39 0)
(91.03 24.39 -4.8433177e-21)
(91.03 24.39 4.3883186e-21)
(91.03 24.39 7.9431669e-21)
(91.03 24.39 -7.1786613e-21)
(91.03 24.39 6.4796805e-21)
(91.03 24.39 4.2814324e-24)
(91.03 24.39 -2.5702888e-24)
(91.03 24.39 -4.6227162e-24)
(91.03 24.39 -8.49744e-21)
(91.03 24.39 7.622999e-21)
(91.03 24.39 3.332522e-24)
(91.03 24.39 2.9790793e-24)
(91.03 24.39 -5.3177878e-24)
(91.03 24.39 1.9409826e-20)
(91.03 24.39 -8.6298152e-21)
(91.03 24.39 -1.5341078e-20)
(91.03 24.39 1.3600113e-20)
(91.03 24.39 -1.203957e-20)
(91.03 24.39 1.1989623e-23)
(91.03 24.39 0)
(91.03 24.39 2.5518463e-21)
(91.03 24.39 4.5667374e-24)
(91.03 24.39 4.1649163e-24)
(91.03 24.39 3.8866855e-21)
(91.03 24.39 0)
(91.03 24.39 0)
(91.03 24.39 1.1706617e-20)
(91.03 24.39 -6.4883511e-25)
(91.03 24.39 4.8223497e-21)
(91.03 24.39 5.3337575e-25)
(91.03 24.39 4.8279654e-25)
(91.03 24.39 7.1508067e-21)
(91.03 24.39 -6.4595364e-21)
(91.03 24.39 1.4219076e-24)
(91.03 24.39 1.0491124e-20)
(91.03 24.39 7.6008059e-35)
(91.03 24.39 -4.1381801e-24)
(91.03 24.39 3.7112541e-24)
(91.03 24.39 -3.3234402e-24)
(91.03 24.39 8.9146339e-24)
(91.03 24.39 1.0854949e-20)
(91.03 24.39 -9.6796248e-21)
(91.03 24.39 0)
(91.03 24.39 1.5311496e-20)
(91.03 24.39 -1.3573512e-20)
(91.03 24.39 1.2024448e-20)
(91.03 24.39 3.3381871e-21)
(91.03 24.39 -1.1924928e-23)
(91.03 24.39 1.0898899e-23)
(91.03 24.39 -2.5484529e-21)
(91.03 24.39 0)
(91.03 24.39 -4.1439227e-24)
(91.03 24.39 1.0199192e-35)
(91.03 24.39 3.4394257e-24)
(91.03 24.39 0)
(91.03 24.39 -5.8249022e-21)
(91.03 24.39 5.2901385e-21)
(91.03 24.39 0)
(91.03 24.39 -4.3510076e-21)
(91.03 24.39 -1.5756026e-20)
(91.03 24.39 0)
(91.03 24.39 6.4337227e-21)
(91.03 24.39 0)
(91.03 24.39 2.5525543e-24)
(91.03 24.39 9.4031008e-21)
(91.03 24.39 8.4531495e-21)
(91.03 24.39 7.5751457e-21)
(91.03 24.39 6.791515e-21)
(91.03 24.39 2.964186e-24)
(91.03 24.39 -2.1687128e-20)
(91.03 24.39 0)
(91.03 24.39 0)
(91.03 24.39 1.528632e-20)
(91.03 24.39 6.621358e-24)
(91.03 24.39 -2.4025166e-20)
(91.03 24.39 -1.8284283e-21)
(91.03 24.39 -3.3203442e-21)
(91.03 24.39 -3.0485449e-21)
(91.03 24.39 -2.7647751e-21)
(91.03 24.39 2.5255022e-21)
(91.03 24.39 9.0407317e-24)
(91.03 24.39 4.1234763e-24)
(91.03 24.39 -3.8487079e-21)
(91.03 24.39 -3.4231105e-24)
(91.03 24.39 -3.192884e-21)
(91.03 24.39 2.8320588e-24)
(91.03 24.39 -5.2675788e-21)
(91.03 24.39 -5.8354004e-25)
(91.03 24.39 -5.2893988e-25)
(91.03 24.39 1.5693809e-20)
(91.03 24.39 1.7325114e-24)
(91.03 24.39 -1.56496e-24)
(91.03 24.39 0)
(91.03 24.39 -1.0417733e-20)
(91.03 24.39 -6.866912e-24)
(91.03 24.39 -8.4196625e-21)
(91.03 24.39 -7.5612692e-21)
(91.03 24.39 6.7704187e-21)
(91.03 24.39 8.8709708e-24)
(91.03 24.39 1.0816766e-20)
(91.03 24.39 -4.7093732e-24)
(91.03 24.39 0)
(91.03 24.39 -3.052322e-20)
(91.03 24.39 -1.3541437e-20)
(91.03 24.39 1.9710064e-21)
(91.03 24.39 0)
(91.03 24.39 3.2901063e-21)
(91.03 24.39 -3.0092544e-21)
(91.03 24.39 5.5230657e-21)
(91.03 24.39 -2.5325719e-21)
(91.03 24.39 -3.1648206e-35)
(91.03 24.39 4.1035331e-24)
(91.03 24.39 3.8380037e-21)
(91.03 24.39 -6.8145543e-24)
(91.03 24.39 3.1009178e-24)
(91.03 24.39 1.4097877e-24)
(91.03 24.39 -1.2806662e-24)
(91.03 24.39 4.7604495e-21)
(91.03 24.39 0)
(91.03 24.39 -7.8160636e-21)
(91.03 24.39 -7.0714873e-21)
(91.03 24.39 6.3901176e-21)
(91.03 24.39 -1.4069676e-24)
(91.03 24.39 -2.5356964e-24)
(91.03 24.39 9.3488428e-21)
(91.03 24.39 -8.3991026e-21)
(91.03 24.39 -7.5367922e-21)
(91.03 24.39 -1.350609e-20)
(91.03 24.39 -5.8998889e-24)
(91.03 24.39 5.2700853e-24)
(91.03 24.39 0)
(91.03 24.39 8.5747476e-21)
(91.03 24.39 -3.7200772e-24)
(91.03 24.39 1.352279e-20)
(91.03 24.389999 2.1235619e-21)
(91.03 24.39 -1.9453952e-21)
(91.03 24.39 0)
(91.03 24.39 0)
(91.03 24.39 2.9941109e-21)
(91.03 24.39 1.0733737e-23)
(91.03 24.39 2.5005814e-21)
(91.03 24.39 8.9530013e-24)
(91.03 24.39 4.0841444e-24)
(91.03 24.39 -3.7234403e-24)
(91.03 24.39 -3.3918408e-24)
(91.03 24.39 3.1674607e-21)
(91.03 24.39 -4.2111461e-24)
(91.03 24.39 1.2752993e-24)
(91.03 24.39 -4.7410262e-21)
(91.03 24.39 -4.2980566e-21)
(91.03 24.39 -4.7523929e-25)
(91.03 24.39 1.4089323e-20)
(91.03 24.39 -1.2728999e-20)
(91.03 24.39 -1.4022278e-24)
(91.03 24.39 -1.0350363e-20)
(91.03 24.39 -9.3248754e-21)
(91.03 24.39 4.089317e-24)
(91.03 24.39 7.5164911e-21)
(91.03 24.39 0)
(91.03 24.39 -1.2054857e-20)
(91.03 24.39 -1.0769989e-20)
(91.03 24.39 9.6069079e-21)
(91.03 24.39 -8.555511e-21)
(91.03 24.39 1.522121e-20)
(91.03 24.39 -6.5939921e-24)
(91.03 24.389999 0)
(91.03 24.389999 0)
(91.03 24.39 -1.9506899e-21)
(91.03 24.39 0)
(91.03 24.39 0)
(91.03 24.39 -2.9793449e-21)
(91.03 24.39 2.4441074e-33)
(91.03 24.39 -2.5178934e-21)
(91.03 24.39 8.9109037e-24)
(91.03 24.39 0)
(91.03 24.39 0)
(91.03 24.39 0)
(91.03 24.39 0)
(91.03 24.39 -5.72532e-21)
(91.03 24.39 -5.2021572e-21)
(91.03 24.39 0)
(91.03 24.39 4.2814317e-21)
(91.03 24.39 4.7346556e-25)
(91.03 24.39 -7.0185257e-21)
(91.03 24.39 6.3425429e-21)
(91.03 24.39 2.7952231e-24)
(91.03 24.39 -2.5196154e-24)
(91.03 24.39 -4.5362334e-24)
(91.03 24.39 8.3554706e-21)
(91.03 24.39 0)
(91.03 24.39 0)
(91.03 24.39 1.2027423e-20)