/*--------------------------------*- C++ -*----------------------------------*\
| =========                 |                                                 |
| \\      /  F ield         | OpenFOAM: The Open Source CFD Toolbox           |
|  \\    /   O peration     | Version:  2506                                  |
|   \\  /    A nd           | Website:  www.openfoam.com                      |
|    \\/     M anipulation  |                                                 |
\*---------------------------------------------------------------------------*/
FoamFile
{
    version     2.0;
    format      ascii;
    arch        "LSB;label=32;scalar=64";
    class       volScalarField;
    location    "1.85";
    object      alphat;
}
// * * * * * * * * * * * * * * * * * * * * * * * * * * * * * * * * * * * * * //

dimensions      [1 -1 -1 0 0 0 0];

internalField   nonuniform List<scalar> 
1376
(
0.0020177194
0.0074734065
0.014053293
0.016933005
0.038178805
0.032069558
0.039845783
0.052315154
0.058814871
0.068270279
0.077486598
0.085506337
0.088810874
0.10563878
0.11063061
0.1282677
0.1291292
0.12935019
0.129087
0.12861323
0.12809374
0.12762905
0.12729834
0.12706553
0.12688757
0.12674694
0.12664923
0.0018112645
0.010267652
0.016285641
0.029490207
0.030406322
0.052186489
0.056422004
0.060283579
0.068072086
0.077138161
0.086026036
0.10045415
0.11731714
0.12502357
0.12705092
0.088708751
0.12908898
0.12922832
0.12896563
0.12848707
0.1280119
0.12758415
0.12726806
0.12704535
0.12687758
0.12674709
0.12665876
0.12660332
0.12656113
0.0017483125
0.010313526
0.018818634
0.028385745
0.045392162
0.035963047
0.042623578
0.048595539
0.049887292
0.058249613
0.064833272
0.070961352
0.088984458
0.080683895
0.10701035
0.1283503
0.1290832
0.1291698
0.1288417
0.12840265
0.12796854
0.1275601
0.12726041
0.12703526
0.12687253
0.12675168
0.12666785
0.12661806
0.12657965
0.12655543
0.001660005
0.010210724
0.019071344
0.032766197
0.031331034
0.06054958
0.060307088
0.070005873
0.073407602
0.080441478
0.087172108
0.097669111
0.10112923
0.12519394
0.12710709
0.11068342
0.12904397
0.12911037
0.12874643
0.12831768
0.12791741
0.12753648
0.12724665
0.12702246
0.12686798
0.12675536
0.12667459
0.12663011
0.12659689
0.12657403
0.1265614
0.0015910746
0.010305213
0.02045031
0.034352427
0.048896936
0.05078451
0.045773701
0.056622376
0.054804747
0.061831513
0.064231614
0.078198073
0.077215909
0.077689911
0.10446134
0.12828516
0.12898619
0.12901277
0.12864992
0.12823604
0.12784971
0.12749985
0.12723347
0.12701106
0.12686643
0.12675942
0.1266828
0.12664315
0.12661421
0.12659248
0.12657965
0.12656897
0.12656484
0.0015361628
0.010174379
0.020507922
0.034413743
0.036887169
0.056880983
0.049824282
0.067529812
0.066832195
0.075697573
0.081073084
0.10181659
0.10430556
0.12392374
0.11829838
0.1265069
0.12891792
0.12892285
0.12856541
0.12816994
0.12779081
0.12746456
0.12721276
0.12700449
0.12686792
0.12676461
0.1266948
0.12665797
0.12663147
0.12661017
0.12659755
0.12658902
0.12658622
0.12658675
0.0014809434
0.01022479
0.021354917
0.034874877
0.049448394
0.062046496
0.053889661
0.067146961
0.060648945
0.067424629
0.061732449
0.075635109
0.077795341
0.092940632
0.10104963
0.12821022
0.12885385
0.12883524
0.12848663
0.12812367
0.12773962
0.12743307
0.12719143
0.1269985
0.12686955
0.12677187
0.12670932
0.12667369
0.12664857
0.12662766
0.12661526
0.12660968
0.12660792
0.12660955
0.12661284
0.0014275999
0.01005894
0.021492832
0.034865313
0.044613472
0.06174482
0.056726372
0.070539224
0.065666417
0.075654389
0.066207204
0.074477586
0.093765788
0.12535012
0.11100792
0.11621323
0.12879619
0.1287439
0.12841709
0.12807997
0.12769654
0.12740038
0.12717287
0.12699492
0.12687102
0.12678084
0.12672456
0.12668988
0.12666503
0.12664502
0.12663299
0.12663078
0.12662996
0.12663258
0.12663616
0.12664426
0.0013629213
0.010124144
0.022540703
0.035462579
0.039380282
0.062592538
0.046523987
0.078899628
0.057522742
0.089930671
0.080068137
0.076535154
0.06670436
0.088308343
0.11723559
0.12813572
0.12871275
0.12866716
0.128352
0.12802616
0.12765796
0.12737207
0.12716242
0.12698887
0.12686864
0.1267883
0.12673729
0.12670433
0.12667981
0.12666201
0.12665134
0.12665202
0.1266517
0.12665567
0.1266596
0.12666806
0.0013430145
0.010026967
0.018070861
0.035636974
0.033344268
0.063326145
0.04685855
0.081383242
0.056397055
0.10107845
0.099847201
0.1012232
0.076910656
0.085105384
0.095139209
0.1280784
0.12862566
0.12859356
0.12829458
0.12797505
0.12762246
0.12734984
0.1271551
0.12698024
0.12686532
0.12679283
0.12674717
0.12671841
0.12669429
0.12667913
0.12667051
0.12667349
0.12667288
0.12667863
0.12668337
0.12669208
0.12670406
0.001269539
0.010143012
0.023389574
0.036189551
0.051689754
0.064052276
0.047059951
0.069384288
0.047585453
0.062980386
0.060355355
0.11605698
0.086925775
0.081874312
0.080378637
0.11675565
0.12856574
0.12850958
0.12822841
0.12793434
0.12758154
0.12733201
0.12714615
0.12697043
0.12686463
0.12679734
0.1267558
0.12673128
0.12670881
0.12669737
0.12668986
0.12669491
0.12669385
0.12670145
0.12670743
0.12671654
0.12672904
0.1267467
0.0012536655
0.010039087
0.023431683
0.035986598
0.040449745
0.058294564
0.041027849
0.06260016
0.054569354
0.05354323
0.046954619
0.075171764
0.078920285
0.12495225
0.09492552
0.098529031
0.12733632
0.12841494
0.12815281
0.1279023
0.12754575
0.12731539
0.12713093
0.12696229
0.12686777
0.12680412
0.1267654
0.1267442
0.12672316
0.12671693
0.12670937
0.12671565
0.12671494
0.12672443
0.1267315
0.12674147
0.12675446
0.12677303
0.12679988
0.0012079392
0.0099000548
0.023838192
0.035572252
0.033760603
0.052936579
0.04148453
0.059030826
0.054181121
0.081524089
0.053756574
0.055925493
0.059622332
0.076835275
0.10451192
0.10901249
0.11013762
0.12835933
0.1280845
0.12785507
0.12751025
0.12729576
0.12711255
0.12695851
0.12687498
0.12681441
0.12677713
0.12675856
0.12673683
0.12673532
0.12672962
0.12673548
0.12673588
0.12674737
0.12675559
0.12676671
0.12678028
0.1267998
0.12682816
0.12686416
0.0011435451
0.0097259909
0.023732038
0.034551549
0.050322214
0.06301166
0.045286909
0.051117219
0.040823733
0.065828619
0.065449372
0.082472399
0.060211134
0.072448921
0.08101019
0.12783898
0.12022867
0.12830509
0.12804802
0.12779248
0.12746424
0.12726529
0.12709658
0.12695607
0.12688316
0.12682651
0.12678838
0.12677408
0.12675151
0.12675053
0.12674992
0.12675558
0.12675688
0.12676959
0.12678009
0.1267922
0.12680643
0.12682707
0.1268569
0.12689444
0.12694168
0.0011044185
0.009964436
0.024436053
0.033592333
0.030811326
0.061718539
0.040271526
0.073884271
0.039385189
0.049330364
0.04944186
0.071129652
0.087148919
0.090181836
0.081174599
0.10133279
0.12820215
0.12819632
0.12800922
0.12774058
0.12743009
0.12722373
0.12708534
0.12695202
0.12688949
0.12683978
0.12680033
0.12678867
0.12676887
0.12676433
0.12676851
0.12677642
0.12677883
0.12679112
0.12680453
0.12681812
0.1268331
0.12685499
0.12688619
0.12692544
0.12697435
0.12703547
0.0010815175
0.0098380692
0.015276625
0.029570519
0.031812866
0.041994983
0.042125536
0.054986983
0.056964677
0.061425725
0.044384148
0.059621161
0.057160617
0.097220754
0.10216369
0.095771757
0.12815455
0.12810924
0.12794561
0.12769327
0.12743297
0.12718982
0.12707772
0.12694702
0.12689401
0.12685161
0.1268145
0.12680091
0.12678719
0.12678091
0.12678591
0.12679598
0.12680217
0.12681294
0.12682854
0.12684444
0.12686055
0.12688382
0.12691614
0.12695733
0.12700783
0.12707093
0.12715448
0.00099816924
0.0098858996
0.025004026
0.032137074
0.046928772
0.049972111
0.034355447
0.039990563
0.041827659
0.070111791
0.060957019
0.07191909
0.069602663
0.057683812
0.10624395
0.1055138
0.10557646
0.12806538
0.12789906
0.12763959
0.12743582
0.12718291
0.1270794
0.12694528
0.12690257
0.12686108
0.12683102
0.12681284
0.12680449
0.12680011
0.12680543
0.12681414
0.12682509
0.12683636
0.12685282
0.12687076
0.12688886
0.1269136
0.12694695
0.12699002
0.12704209
0.1271075
0.1271933
0.1273064
0.00096130227
0.010126604
0.020843848
0.031808212
0.03058471
0.054801173
0.04312942
0.049360516
0.040920424
0.037919551
0.066504708
0.057108677
0.075173053
0.080489496
0.076146433
0.10730857
0.11135398
0.12464365
0.12788152
0.12761548
0.12740808
0.12718169
0.12708948
0.12695098
0.12692157
0.12687202
0.126848
0.12682652
0.12682106
0.12681879
0.12682772
0.1268336
0.12684695
0.12686087
0.12687799
0.12689741
0.12691768
0.12694404
0.12697869
0.12702332
0.12707732
0.12714514
0.12723343
0.12734948
0.12750097
0.00093865003
0.010102505
0.020943989
0.031627708
0.027371318
0.053849928
0.036046267
0.079174293
0.048932222
0.055803063
0.049254283
0.064201436
0.059029331
0.093136308
0.068741653
0.1040216
0.12793363
0.12796346
0.12785269
0.12760574
0.12737344
0.12716655
0.12709159
0.12696007
0.12694874
0.12688625
0.12686584
0.12684224
0.12683928
0.12683644
0.12684994
0.12685619
0.12686939
0.12688558
0.12690413
0.12692467
0.12694683
0.12697511
0.12701116
0.12705759
0.12711393
0.12718398
0.12727503
0.12739411
0.12754865
0.12775617
0.00089209233
0.010021768
0.022349128
0.03175575
0.026651736
0.046345683
0.034043525
0.044748751
0.034096247
0.10240427
0.041167294
0.066921962
0.06671182
0.074166116
0.091950393
0.097492306
0.10957669
0.12789481
0.12779339
0.12755649
0.12734358
0.12714582
0.12707876
0.126968
0.12697876
0.12689974
0.12688387
0.12685933
0.1268594
0.12685558
0.1268708
0.12688084
0.12689347
0.12691114
0.12693084
0.12695251
0.1269765
0.12700675
0.1270446
0.12709286
0.12715162
0.12722427
0.12731816
0.12744036
0.12759813
0.12781007
0.12809758
0.00083145982
0.010754683
0.021488986
0.032444956
0.030474706
0.040020209
0.032969829
0.05599542
0.031632647
0.040874726
0.04829247
0.053079593
0.063725125
0.068870098
0.097908007
0.089976772
0.11545288
0.1265809
0.12774477
0.12748362
0.12729875
0.12712256
0.12705588
0.12697004
0.12701037
0.12691125
0.12689996
0.12687653
0.12687885
0.12687734
0.12689211
0.12690586
0.12691924
0.12693789
0.12695842
0.12698092
0.12700653
0.12703918
0.1270791
0.12712933
0.12719057
0.12726597
0.12736276
0.12748827
0.12764967
0.12786616
0.12815861
0.12858582
0.12920525
0.00081536419
0.010988751
0.022673914
0.03438548
0.027432211
0.034049114
0.026926812
0.048447056
0.04149404
0.029394072
0.051910395
0.064974883
0.068503861
0.070949866
0.085405303
0.10585594
0.12780092
0.12777638
0.12772055
0.12746547
0.12727273
0.12710122
0.12703591
0.12695514
0.1270283
0.12692202
0.12691247
0.12689332
0.1268966
0.12689964
0.12691566
0.12693139
0.1269452
0.12696543
0.12698713
0.12700997
0.12703717
0.12707254
0.12711518
0.12716724
0.12723046
0.12730874
0.12740879
0.12753811
0.12770331
0.12792447
0.12822228
0.1286566
0.12929336
0.00076731615
0.011559123
0.018307933
0.030602595
0.023291865
0.041128336
0.027347791
0.023197005
0.038523603
0.041095844
0.048552593
0.047704105
0.073977706
0.086933806
0.091562419
0.10039391
0.095959349
0.11186431
0.12770245
0.1274742
0.12728926
0.12710277
0.12703218
0.12695094
0.12703253
0.12693001
0.12692094
0.12691062
0.12691531
0.12692164
0.12694003
0.12695725
0.12697178
0.12699313
0.1270165
0.1270401
0.12706927
0.12710626
0.12715182
0.1272062
0.12727193
0.12735293
0.12745673
0.12759008
0.12775905
0.12798511
0.12828866
0.12873067
0.12938526
0.00073752307
0.011602441
0.014672752
0.030266085
0.019843316
0.035676875
0.022364548
0.035117251
0.035568881
0.051189448
0.052906241
0.036957877
0.042305785
0.042590674
0.067282785
0.069022067
0.085946368
0.11277869
0.12767398
0.12744067
0.12730169
0.12712232
0.12705482
0.12697658
0.12702721
0.12694787
0.12693225
0.12692918
0.12693731
0.12694451
0.12696236
0.12698312
0.12699942
0.12702089
0.12704632
0.12707142
0.12710229
0.12714131
0.12718988
0.12724621
0.12731487
0.12739935
0.12750653
0.12764345
0.12781732
0.12804831
0.12835782
0.12880839
0.12948091
0.00070395032
0.011893392
0.016711319
0.037345216
0.020195
0.020124637
0.023847846
0.027945495
0.033250472
0.03331323
0.03781291
0.048356421
0.064927802
0.055833636
0.068458464
0.10452704
0.12772178
0.12769624
0.12760862
0.12739637
0.12728583
0.12712855
0.12705968
0.12700189
0.12702691
0.1269691
0.12694747
0.12694931
0.1269567
0.12696584
0.12698463
0.12700699
0.12702611
0.1270496
0.12707747
0.12710369
0.12713652
0.12717782
0.12722884
0.12728805
0.12735937
0.12744737
0.1275579
0.12769916
0.12787818
0.12811448
0.12843025
0.12889013
0.12958056
0.00066794695
0.011968886
0.018216246
0.027565423
0.018586306
0.030102819
0.032102795
0.023701192
0.033051294
0.034575025
0.070901345
0.052055919
0.12052008
0.12535156
0.10435027
0.10358268
0.099829992
0.10466897
0.11555629
0.12737359
0.12720423
0.12709747
0.12705453
0.12702301
0.12705028
0.12697479
0.12697108
0.12696923
0.12697732
0.12699052
0.12700742
0.12703058
0.12705236
0.12707959
0.12710962
0.12713676
0.1271716
0.12721507
0.12726934
0.12733208
0.12740577
0.12749712
0.12761162
0.12775732
0.12794114
0.12818378
0.12850608
0.12897591
0.12968473
0.00063854852
0.012479528
0.014901226
0.020627768
0.020307235
0.020922478
0.030653439
0.043467098
0.041585835
0.030590164
0.036621045
0.035609381
0.043582351
0.038716183
0.05624708
0.058777098
0.074604557
0.090427079
0.12756378
0.12731656
0.12720939
0.12708215
0.12706549
0.12702202
0.1270816
0.12698591
0.12698907
0.12699101
0.1269995
0.12701595
0.1270343
0.12705731
0.12707896
0.12711055
0.12714065
0.12717066
0.12720844
0.12725483
0.12731158
0.12737673
0.12745359
0.12754868
0.12766781
0.127818
0.12800729
0.12825576
0.12858542
0.12906605
0.1297938
0.00062200554
0.012551966
0.010451408
0.024446414
0.021183273
0.017081529
0.026452433
0.029089588
0.039365584
0.03144349
0.037620007
0.034717413
0.044141486
0.046989805
0.059896017
0.097605314
0.11500271
0.12767809
0.12749153
0.12730438
0.11961267
0.12709679
0.12704995
0.12700097
0.12705033
0.12701575
0.12699848
0.12700958
0.12702324
0.12704015
0.12706064
0.12708594
0.12710827
0.12714002
0.12717233
0.12720656
0.12724726
0.12729554
0.12735497
0.127423
0.1275031
0.12760314
0.12772633
0.12788122
0.12807634
0.12833057
0.12866865
0.12916081
0.12990796
0.00059594068
0.012557679
0.012174283
0.013086832
0.014930894
0.018947362
0.018908789
0.020113796
0.033732229
0.038927235
0.078325505
0.095280793
0.066567978
0.07707556
0.099681875
0.1027365
0.11666403
0.1276469
0.12546747
0.12732158
0.12714604
0.12709284
0.12705226
0.12702242
0.12701944
0.12701569
0.12702003
0.12702937
0.12705041
0.12706696
0.12708887
0.12711544
0.12713961
0.127173
0.12720566
0.12724274
0.12728612
0.12733689
0.1273999
0.12747165
0.12755523
0.12765963
0.12778671
0.12794707
0.12814819
0.12840949
0.12875586
0.12926005
0.13002694
0.00056023361
0.012588861
0.015747884
0.012899676
0.015830747
0.022318522
0.019834508
0.015513491
0.040009648
0.038853818
0.037940254
0.045532215
0.04943658
0.042218754
0.059649121
0.064506531
0.080606625
0.09829285
0.12746289
0.12728838
0.12716666
0.12709617
0.12708751
0.12705943
0.12706165
0.12703676
0.12704648
0.12706009
0.12707924
0.12709799
0.12712072
0.12714825
0.12717281
0.12720787
0.00054416086
0.013010778
0.013631395
0.022395919
0.028000931
0.01348624
0.027403526
0.023136363
0.021427407
0.014457799
0.027365766
0.027839814
0.035495514
0.050581276
0.055514767
0.08752496
0.11196404
0.12765298
0.12742998
0.12726751
0.12717645
0.00054710201
0.012933278
0.0095115636
0.010974709
0.014653653
0.010651207
0.020100279
0.011060125
0.021380383
0.016718045
0.022321025
0.00052238699
0.01055204
0.010090897
0.0098840484
0.009688546
0.0096984264
0.0098855155
0.010001427
0.010282427
0.010518163
0.010643865
0.010827317
0.011302526
0.011575509
0.011906447
0.012205312
0.012441239
0.01499103
0.014785919
0.014555758
0.014761068
0.014609814
0.014517287
0.021756325
0.025678297
0.025465999
0.026103075
0.026120874
0.025890442
0.025271439
0.038495088
0.038472871
0.039279584
0.039975527
0.040188782
0.029723764
0.051844192
0.051955313
0.05284515
0.053888839
0.05443726
0.037035432
0.064469353
0.064774484
0.065950758
0.067383667
0.06813959
0.044393204
0.074945307
0.075619593
0.077382609
0.079510961
0.080756354
0.054231502
0.084143929
0.085224104
0.087485035
0.090019816
0.06374641
0.094908844
0.096077079
0.098103303
0.10023457
0.079389366
0.10644624
0.10729145
0.10840328
0.10947863
0.093207008
0.11572169
0.11602812
0.1163552
0.11665208
0.11164613
0.12136754
0.12142113
0.12146699
0.12146283
0.12133209
0.1248454
0.12482284
0.1248099
0.12479581
0.12699541
0.12708768
0.12711691
0.12707717
0.1284099
0.12843635
0.12843572
0.12839502
0.12922779
0.12920913
0.12916603
0.12914081
0.12943043
0.12941437
0.12938205
0.12938113
0.12914288
0.1291232
0.12910696
0.12864569
0.12860836
0.12857908
0.12810933
0.12807628
0.12805206
0.12764336
0.12764684
0.12730692
0.12731073
0.12705725
0.12705128
0.12687801
0.12673653
)
;

boundaryField
{
    Side
    {
        type            empty;
    }
    Inlet
    {
        type            calculated;
        value           nonuniform List<scalar> 9(0.1326427 0.13264278 0.13264239 0.13264161 0.13264083 0.13263988 0.13263838 0.13263683 0.13263499);
    }
    Airfoil
    {
        type            compressible::alphatWallFunction;
        value           nonuniform List<scalar> 
33
(
0.0011387323
0.0011287047
0.0011267356
0.0011103316
0.001098223
0.0010877033
0.0010745148
0.0010638547
0.0010482253
0.0010388309
0.0010241803
0.0010143605
0.0010011909
0.00098718828
0.00096619913
0.0009532813
0.00093342449
0.00091768245
0.00090192451
0.00088961062
0.00087037261
0.0008542858
0.00083490946
0.00081859633
0.00080183094
0.00078612658
0.00077088273
0.00075645419
0.00074178967
0.00072939573
0.00071844423
0.00070835091
0.00069805956
)
;
    }
    Outlet
    {
        type            calculated;
        value           nonuniform List<scalar> 0();
    }
    procBoundary8to1
    {
        type            processor;
        value           nonuniform List<scalar> 8(0.0020045822 0.010521827 0.010279543 0.010189203 0.010189203 0.011487943 0.011046456 0.010586958);
    }
    procBoundary8to7
    {
        type            processor;
        value           nonuniform List<scalar> 
53
(
0.1272403
0.12727882
0.12732631
0.12738054
0.12744709
0.12752203
0.12760944
0.12771778
0.12785021
0.12801605
0.12822296
0.12849214
0.1288472
0.12936395
0.13015069
0.12711197
0.12708725
0.12706624
0.12707114
0.12705607
0.12706372
0.12708251
0.12710541
0.1271277
0.12715008
0.12718048
0.12720603
0.1272403
0.127241
0.042498629
0.044545493
0.062560472
0.094334862
0.091380055
0.11186766
0.12760941
0.12742326
0.12728761
0.12711197
0.12716567
0.0072366926
0.0084244823
0.011704759
0.02332405
0.023774229
0.019263158
0.012994692
0.024076695
0.042498629
0.039277742
0.00049332207
0.0072366926
0.013655067
)
;
    }
    procBoundary8to9
    {
        type            processor;
        value           nonuniform List<scalar> 
75
(
0.12658884
0.1266339
0.12658884
0.12654253
0.12653566
0.12653566
0.12654293
0.12654293
0.12654927
0.12654927
0.12654304
0.12656389
0.12656389
0.12658957
0.12658957
0.12662064
0.12662064
0.126655
0.12667946
0.12667946
0.1267207
0.1267207
0.12677201
0.12677201
0.1268344
0.1268344
0.12690989
0.12690989
0.12700114
0.12700114
0.12711686
0.12711686
0.12726484
0.12726484
0.127455
0.127455
0.12770437
0.12770437
0.12803905
0.12803905
0.12851803
0.12851803
0.12912088
0.010751132
0.012700375
0.014511081
0.025765789
0.040372757
0.054760547
0.068462062
0.081259185
0.091705489
0.091705489
0.10163989
0.11013241
0.11676979
0.12136245
0.124721
0.1270077
0.1270077
0.12834521
0.12913231
0.12932344
0.12910811
0.12910811
0.12859774
0.12806938
0.1276243
0.1276243
0.12729213
0.12703498
0.12686558
0.12686558
0.12672482
0.1266339
)
;
    }
}


// ************************************************************************* //
