/*--------------------------------*- C++ -*----------------------------------*\
| =========                 |                                                 |
| \\      /  F ield         | OpenFOAM: The Open Source CFD Toolbox           |
|  \\    /   O peration     | Version:  2506                                  |
|   \\  /    A nd           | Website:  www.openfoam.com                      |
|    \\/     M anipulation  |                                                 |
\*---------------------------------------------------------------------------*/
FoamFile
{
    version     2.0;
    format      ascii;
    arch        "LSB;label=32;scalar=64";
    class       volScalarField;
    location    "0.55";
    object      Cp;
}
// * * * * * * * * * * * * * * * * * * * * * * * * * * * * * * * * * * * * * //

dimensions      [0 0 0 0 0 0 0];

internalField   nonuniform List<scalar> 
1376
(
0.04969264
0.032138219
0.032246635
0.031486495
0.029665059
0.028468979
0.02818305
0.027676488
0.026955864
0.025858998
0.024794154
0.02387982
0.022921644
0.02179905
0.020777294
0.020159045
0.018718491
0.018066953
0.017224382
0.016297982
0.014477481
0.01315017
0.012047006
0.01068788
0.0094887682
0.0078787857
0.0070534393
0.005421704
0.0034941935
0.002798482
0.0024381784
0.0020576408
0.0021556683
0.0016774636
0.0010645656
0.0011908784
0.00060942392
-4.7607746e-05
-0.0013334822
-0.0019849433
-0.0052316381
-0.012889121
-0.031045436
-0.03656107
-0.071086128
-0.07344207
-0.14242123
-0.090389262
-0.24927021
0.050447525
0.029644331
0.031613467
0.031151716
0.02949116
0.028271195
0.028007629
0.027629282
0.026935457
0.025978407
0.024916377
0.024091404
0.023294144
0.02221479
0.021334328
0.020465613
0.019308066
0.018822322
0.017935481
0.017055452
0.015581253
0.014148872
0.013248959
0.012016764
0.011212652
0.0097744571
0.0090907495
0.008125552
0.0065264859
0.0057444405
0.0057123443
0.0060461802
0.0069939486
0.0080755372
0.0081135977
0.0089375091
0.0098450258
0.011331985
0.011792638
0.011312079
0.01508581
0.019193923
0.0094856072
-0.010912446
-0.0080466549
-0.035312781
-0.061580246
-0.022452328
-0.27495662
0.05188471
0.027052596
0.030028297
0.030407004
0.029347498
0.028126815
0.027758047
0.027508855
0.026888543
0.026114308
0.025123796
0.024346652
0.023611752
0.022676311
0.021756646
0.020913169
0.019991011
0.019422463
0.018524919
0.017761196
0.016555287
0.015124124
0.014425141
0.013549569
0.013081275
0.011665063
0.011192767
0.010657695
0.0096617436
0.0087516755
0.008926643
0.0099737915
0.011617223
0.013528507
0.015158691
0.016967422
0.018045053
0.020611903
0.023555581
0.025008731
0.03009763
0.03609218
0.035701756
0.015140264
0.01348804
0.016587388
0.011999784
0.043988041
-0.21359461
0.052507537
0.024998011
0.028529892
0.029887185
0.029158018
0.027991194
0.02738754
0.027233871
0.026770269
0.02614766
0.025326705
0.024504761
0.023850213
0.02300818
0.022057415
0.02133567
0.020433393
0.019845277
0.019266656
0.018539052
0.017721207
0.01639485
0.015840409
0.015256753
0.014863512
0.01383907
0.013442093
0.013074883
0.012753363
0.012162807
0.012488441
0.0137959
0.015849212
0.018699596
0.021449916
0.024602699
0.026794896
0.030164089
0.035678165
0.038910356
0.045612539
0.053317653
0.057391377
0.053055533
0.067594909
0.075514802
0.07666157
0.085007639
-0.13284733
0.053724646
0.024334559
0.027263568
0.029065179
0.028840205
0.027773229
0.027013577
0.026818359
0.026611982
0.026141398
0.025503939
0.024612058
0.024085157
0.023329899
0.022476881
0.021834307
0.020981772
0.020374754
0.020185798
0.019486808
0.019076852
0.017867806
0.017296045
0.016758043
0.016546814
0.016334247
0.015677135
0.015501119
0.015899708
0.015911513
0.01606723
0.017518667
0.020119706
0.023692768
0.027605866
0.032127391
0.035598544
0.039632639
0.046263972
0.051925778
0.059135848
0.068325631
0.080016805
0.087547231
0.098543196
0.1222814
0.14294654
0.13788952
-0.055455338
0.05579619
0.024786468
0.025729281
0.028124821
0.028569332
0.027675405
0.02693339
0.026536516
0.026451406
0.026096495
0.02565312
0.02481197
0.02426099
0.023666075
0.022949709
0.022403976
0.021669457
0.021165322
0.021011728
0.020560855
0.020274338
0.019348121
0.018631981
0.018245775
0.018283561
0.018573676
0.018170877
0.018217297
0.018958864
0.019605908
0.019889314
0.021475633
0.024435855
0.028384669
0.033202125
0.038880152
0.044096546
0.048613755
0.056133592
0.065290987
0.073303336
0.085502526
0.098083271
0.11411015
0.1374284
0.16466038
0.1828327
0.18689503
0.052186236
0.057356466
0.025151154
0.023603642
0.02716425
0.028399478
0.027708865
0.02686024
0.026643885
0.026401454
0.02605841
0.025691857
0.025093686
0.024453462
0.024013335
0.023395514
0.022993335
0.022459345
0.02185273
0.021666663
0.021655715
0.021439365
0.020792375
0.020114889
0.020092838
0.020098679
0.020821874
0.021044204
0.0210314
0.022025652
0.023325997
0.024040041
0.025705586
0.028863275
0.033215453
0.038475273
0.045034611
0.052220449
0.057930274
0.066444132
0.077057243
0.087325332
0.10028161
0.11683816
0.13992562
0.16436347
0.19607567
0.23319503
0.23909576
0.14872146
0.059088017
0.026378614
0.021675608
0.026517023
0.028323861
0.027777584
0.027014751
0.026840459
0.02649911
0.026198167
0.025804983
0.025428302
0.024771729
0.024277894
0.023880009
0.023633559
0.023201155
0.022576549
0.022427999
0.022739891
0.022699385
0.02231912
0.021921667
0.021946679
0.021942446
0.023073735
0.023946359
0.024011512
0.025095256
0.026908939
0.028271262
0.030131011
0.033442098
0.038003657
0.043650003
0.050819579
0.05940356
0.066984643
0.075608258
0.087788692
0.10062482
0.11467756
0.13365653
0.1582579
0.18995229
0.22730773
0.27018656
0.28755189
0.24868552
0.062586014
0.027240867
0.02029337
0.026302546
0.028395276
0.027969002
0.027462802
0.027176726
0.026836709
0.026519111
0.026120364
0.02577753
0.025229067
0.024702993
0.024472009
0.024293179
0.023875304
0.023401033
0.023345615
0.023703304
0.023874298
0.023734262
0.023611383
0.023755135
0.023937065
0.025174298
0.026667396
0.027118422
0.028175164
0.030293545
0.032380401
0.034606153
0.038152907
0.042961576
0.048893915
0.05617973
0.065790872
0.075361272
0.084620486
0.098050905
0.1133008
0.12916461
0.15017547
0.17759064
0.2120015
0.25484304
0.30389318
0.34119522
0.34599421
0.066456245
0.02702139
0.018830606
0.025547485
0.028529844
0.028277722
0.027830324
0.02748467
0.027225911
0.026847995
0.026585716
0.026208692
0.025845036
0.025338542
0.025120999
0.024966203
0.024612083
0.024270196
0.024294577
0.024610424
0.025061138
0.025148113
0.025266033
0.025604449
0.026034746
0.02717274
0.029158041
0.030291184
0.031318603
0.033560536
0.036288237
0.039026724
0.042900429
0.047986984
0.054262032
0.061762091
0.071715177
0.082970718
0.093713776
0.10741502
0.12436132
0.14237727
0.1639737
0.19294091
0.23254849
0.28114371
0.33723259
0.38972306
0.43032177
0.069062378
0.027899468
0.018265005
0.02504273
0.028335788
0.028293941
0.028010261
0.027720465
0.027463272
0.027228227
0.027132055
0.026797858
0.026530292
0.026073019
0.025797834
0.025731098
0.025477402
0.025183237
0.025276378
0.025620736
0.026296982
0.02669991
0.026893445
0.027462322
0.028113012
0.029143891
0.031413032
0.033345699
0.034542787
0.03677819
0.039901923
0.043204742
0.047496718
0.052947642
0.059624283
0.067429385
0.077224015
0.089676624
0.10185521
0.11608098
0.13441963
0.15452877
0.17802511
0.21057389
0.25189937
0.30409115
0.36623133
0.43682717
0.51030856
0.073595165
0.029745299
0.017742264
0.02468974
0.028075664
0.028846615
0.028579435
0.0281112
0.027799959
0.027622515
0.027528862
0.027397983
0.02717851
0.026843863
0.026443096
0.026478802
0.026385998
0.026201313
0.026316019
0.02670504
0.027455309
0.028110212
0.02841717
0.029240308
0.030137662
0.031186913
0.033524829
0.036135005
0.037757497
0.039919517
0.043174334
0.047018849
0.051815447
0.057704059
0.064793064
0.073104596
0.082861416
0.095753538
0.10944309
0.1244395
0.14330712
0.16543434
0.19102424
0.22400167
0.26768699
0.32464823
0.39680834
0.47980989
0.57903675
0.07819908
0.030864955
0.017466572
0.024435491
0.028170062
0.029484271
0.029091372
0.028576422
0.02829206
0.028125616
0.027987723
0.027938305
0.027784009
0.027552906
0.0271412
0.027167032
0.027258511
0.02722437
0.027333205
0.027741118
0.02850617
0.029406203
0.029930321
0.030913586
0.032055798
0.033229702
0.035501683
0.038565596
0.040807399
0.04300791
0.046254411
0.050484384
0.055805613
0.062151877
0.0696268
0.078479906
0.08847109
0.10128459
0.11622932
0.13211601
0.15154145
0.17495834
0.20195343
0.23713049
0.28428768
0.34374581
0.42038381
0.51808292
0.64153002
0.08255913
0.032195333
0.01722963
0.024136522
0.028303855
0.029637914
0.029242382
0.028876348
0.028761318
0.028690318
0.028545845
0.028508771
0.02840355
0.028195061
0.027886358
0.027873689
0.028044036
0.028145795
0.028341315
0.028839016
0.029598597
0.03062779
0.031333661
0.032395471
0.033764243
0.035120414
0.037290418
0.040609326
0.043547429
0.04601744
0.049227921
0.05360195
0.05936561
0.066200295
0.074034846
0.08333558
0.093885513
0.10660969
0.12210688
0.13902675
0.15885635
0.18325499
0.21239651
0.24883441
0.29741322
0.36030461
0.44256086
0.55535481
0.69442036
0.086845935
0.033874788
0.017545121
0.024160597
0.028983365
0.029965151
0.02943634
0.029012925
0.028888963
0.028987475
0.029017917
0.029047254
0.028998635
0.028835459
0.02860954
0.028618473
0.028820382
0.028970011
0.029247784
0.029851802
0.030630949
0.031728247
0.032570974
0.033683024
0.035236046
0.036831549
0.038949838
0.0423493
0.04587197
0.048783412
0.052019156
0.056370915
0.062424019
0.069759245
0.077945859
0.08757534
0.098814833
0.11168511
0.12732257
0.14498564
0.16539909
0.19061347
0.22130766
0.25934623
0.30911229
0.37560676
0.46352471
0.58166119
0.74007716
0.090561428
0.035335453
0.017640945
0.023895219
0.029525628
0.030632647
0.029916602
0.029473391
0.029345787
0.029367311
0.029371543
0.029374559
0.029405026
0.029346172
0.029220853
0.029317355
0.029566339
0.029713738
0.030028529
0.030702089
0.031532082
0.032702922
0.033661171
0.034810239
0.036495736
0.038346789
0.040491723
0.043868673
0.047790078
0.05119379
0.05453331
0.058806259
0.065002289
0.072799009
0.081353461
0.091165981
0.10304816
0.11634937
0.13194168
0.14999854
0.17087497
0.19675844
0.22895784
0.26876859
0.31975828
0.38792565
0.48026218
0.60695317
0.77924527
0.093425021
0.036591236
0.017618275
0.024147178
0.029848092
0.030986511
0.030146636
0.029744902
0.029626931
0.029574411
0.029553748
0.029491287
0.029556009
0.029634331
0.029635096
0.029816635
0.030121786
0.030267854
0.030630162
0.031359718
0.03224095
0.033471627
0.034531447
0.035692881
0.037439683
0.039519147
0.041774111
0.045112055
0.049271418
0.053126887
0.056619923
0.060817057
0.067065812
0.075253868
0.084154144
0.094066853
0.106405
0.1202371
0.13575882
0.15391206
0.1751272
0.20159759
0.23497308
0.27621274
0.32866852
0.39788791
0.49341383
0.62644436
0.80839856
0.095625252
0.037798356
0.017986231
0.024104423
0.029221231
0.031041707
0.030457362
0.029701311
0.029434523
0.029447604
0.029546972
0.029576043
0.029701249
0.029814177
0.029856446
0.030121933
0.030504808
0.030650497
0.03103418
0.031802112
0.032741432
0.034005874
0.035129331
0.036297417
0.038035328
0.040241343
0.042614296
0.045899908
0.050153047
0.054396676
0.058063221
0.062178237
0.068428127
0.076924266
0.086118877
0.096091778
0.10863794
0.12288408
0.1383051
0.15627097
0.17762206
0.20443323
0.23866217
0.28118775
0.33446988
0.40499848
0.50233111
0.63918804
0.82813993
0.09693476
0.038540847
0.018017021
0.023679078
0.029043899
0.031041592
0.030768715
0.029922927
0.029506114
0.029448994
0.029548496
0.029539609
0.029673306
0.029814011
0.029921156
0.030275802
0.030724783
0.030878122
0.031267969
0.032038216
0.033006801
0.034280267
0.035420069
0.03660324
0.038320816
0.040561647
0.043001533
0.046196281
0.050405043
0.054931475
0.05873129
0.062738243
0.068976578
0.077696913
0.087099822
0.097130044
0.10967873
0.12403065
0.13930741
0.15698139
0.17832256
0.20527637
0.23997661
0.28329175
0.337194
0.40798576
0.50620267
0.64534175
0.83805226
0.097404391
0.038780489
0.0182092
0.023642908
0.028991949
0.030976352
0.030535942
0.029806372
0.029465358
0.029469216
0.02953589
0.029436332
0.029532187
0.029724522
0.029893104
0.030270339
0.030726025
0.030882312
0.031287697
0.032069435
0.033051511
0.034313644
0.035461991
0.018232906
0.019402738
0.020671869
0.022031928
0.023400405
0.024321858
0.025346887
0.026251732
0.02669752
0.0273164
0.027370637
0.028311588
0.027947162
0.028661164
0.028853466
-0.015957347
-0.012047723
-0.0080142359
-0.0045147989
-0.0021372533
0.0015980277
0.0042145706
0.00604217
0.0081990091
0.010915429
0.013490461
0.015362849
0.016801255
0.018225896
0.019736534
0.021072315
0.02229284
0.023480365
0.024461932
0.02559899
0.026395188
0.026912272
0.027564704
0.027653083
0.028658766
0.028516615
0.029075691
0.028955587
-0.08106321
-0.068262828
-0.058770897
-0.051777165
-0.044736536
-0.038855135
-0.032765386
-0.026671079
-0.021438823
-0.01755628
-0.014348023
-0.010061667
-0.0063634454
-0.0035326863
-0.00099054107
0.0024585331
0.0048905979
0.0068119066
0.008967147
0.011757769
0.014076589
0.015707917
0.016751458
0.018393606
0.020215181
0.021364677
0.022472355
0.023579065
0.024620228
0.025750178
0.026561417
0.027220647
0.027928448
0.028092216
0.028850775
0.029024012
0.029242498
0.030596717
-0.34216198
-0.20593372
-0.23634867
-0.15865523
-0.15585869
-0.13454957
-0.11272662
-0.090019212
-0.080267784
-0.068335229
-0.060645337
-0.053494104
-0.044840913
-0.038223951
-0.032976519
-0.027984436
-0.023707109
-0.018810086
-0.01490127
-0.011947035
-0.0083274813
-0.0050893048
-0.0027271493
0.00010678116
0.0035386393
0.0055744639
0.0074775177
0.0097596055
0.012330797
0.014220117
0.015816205
0.017284351
0.018798506
0.020323108
0.021343337
0.022581523
0.023840573
0.024791862
0.025858725
0.026794218
0.027525547
0.028075735
0.028378928
0.029039834
0.029246277
0.028237464
0.031477519
-0.42986579
-0.27408914
-0.33470916
-0.19110268
-0.22498978
-0.15515339
-0.1438369
-0.11479311
-0.086454428
-0.071685876
-0.06481291
-0.061280552
-0.053422703
-0.044760085
-0.037929173
-0.032831209
-0.028057561
-0.024501743
-0.020094094
-0.015209385
-0.012313033
-0.0098858777
-0.0065869585
-0.0033885475
-0.00099788971
0.0020051155
0.0046011397
0.0063606046
0.0084741348
0.010621212
0.012922614
0.014658939
0.016231521
0.017728346
0.019168084
0.020431038
0.021406432
0.022896821
0.023999736
0.024820916
0.025999335
0.027001836
0.027715007
0.028298256
0.028675216
0.02967651
0.029874956
0.029851667
0.031467869
-0.42174652
-0.27305455
-0.32560957
-0.18344232
-0.22304802
-0.13516761
-0.11930941
-0.098400022
-0.072918479
-0.064113028
-0.056959817
-0.04986953
-0.042653085
-0.037092226
-0.031507467
-0.027155543
-0.024001367
-0.020140207
-0.015982432
-0.012287883
-0.010026707
-0.0077761816
-0.0044580662
-0.0015669716
0.00066790428
0.0036811862
0.0057209042
0.0075461848
0.0096158403
0.011599353
0.013745278
0.015551353
0.016766828
0.017788613
0.019428693
0.020628486
0.02168222
0.023211194
0.0240995
0.024921383
0.026077067
0.027138846
0.027908992
0.028555143
0.029040259
0.030322955
0.030546318
0.031570635
0.032328678
-0.42420626
-0.27618676
-0.31268259
-0.15864368
-0.1731929
-0.10460261
-0.10518047
-0.083634061
-0.068462555
-0.05341068
-0.045327764
-0.039104693
-0.034056389
-0.029425423
-0.024403761
-0.021370777
-0.018659732
-0.015661154
-0.012148184
-0.008993904
-0.0073038996
-0.0051801375
-0.0021634643
0.00023306898
0.0023120003
0.0050290913
0.0067261057
0.0085731659
0.010485464
0.012595335
0.014607654
0.016202074
0.016991011
0.018073774
0.019767251
0.021079088
0.022039955
0.023250771
0.024305282
0.025127287
0.02624159
0.027252063
0.028088609
0.028691469
0.029215101
0.030667582
0.031320591
0.032452212
0.031830526
-0.43516799
-0.25306271
-0.28610575
-0.13794506
-0.11115006
-0.077638575
-0.070448863
-0.059286436
-0.043479906
-0.038894987
-0.033680727
-0.030150623
-0.025730318
-0.02105886
-0.01799384
-0.016248509
-0.013512968
-0.010991396
-0.0080433977
-0.0058427129
-0.0046148527
-0.0025633257
0.00036780875
0.0022990743
0.0042698515
0.0064135297
0.0077682948
0.009624391
0.011308677
0.01347251
0.015244612
0.016553945
0.017193342
0.018657131
0.020065043
0.021177061
0.0222695
0.02340421
0.024452626
0.025403014
0.026520506
0.027458388
0.028223431
0.028702452
0.029343357
0.031060473
0.032082749
0.034988761
0.032162497
-0.42114543
-0.21798604
-0.24216249
-0.12494209
-0.080525384
-0.05330717
-0.039617406
-0.046301074
-0.031620653
-0.027675631
-0.024503639
-0.018945309
-0.015458345
-0.01374252
-0.011937218
-0.010326785
-0.0079951185
-0.0062872358
-0.0043410043
-0.0028847184
-0.0020314578
7.6194309e-05
0.0027419124
0.0042940692
0.0061652906
0.0077752591
0.0091432501
0.010846315
0.012232271
0.014351777
0.015795897
0.017188935
0.017858129
0.019095356
0.020318908
0.021141987
0.022462078
0.02370888
0.024652604
0.025625571
0.02671725
0.027611698
0.028308597
0.028783098
0.02956787
0.031258684
0.032938126
0.035543225
0.03674581
-0.34611855
-0.14312724
-0.17502521
-0.10293398
-0.10750307
-0.046294289
-0.043277305
-0.034854133
-0.02164579
-0.015036793
-0.013164306
-0.010196867
-0.0078075055
-0.0063739707
-0.0054407308
-0.0043326269
-0.0026505799
-0.0019343865
-0.00082923326
-4.7732444e-05
0.0006554281
0.0027331868
0.0049326137
0.0060951037
0.0078747623
0.0092299938
0.010631925
0.012028862
0.013309753
0.015375977
0.016487667
0.017593884
0.018449703
0.019727306
0.020459902
0.021459235
0.022751513
0.023905973
0.024750353
0.025777684
0.026876592
0.02768752
0.028300286
0.028689627
0.02971145
0.031556851
0.03308005
0.035839048
0.045725186
)
;

boundaryField
{
    Side
    {
        type            empty;
    }
    Inlet
    {
        type            calculated;
        value           nonuniform List<scalar> 
30
(
0.027462599
0.027724608
0.027658569
0.027467443
0.027182504
0.02723786
0.027261629
0.027148212
0.027039857
0.026921206
0.026689329
0.026417469
0.026077104
0.025642433
0.025149611
0.024640712
0.02416391
0.023774731
0.023519183
0.023430215
0.021367876
0.021566139
0.021843805
0.022139899
0.02225398
0.02225762
0.021928869
0.021749883
-0.038704358
0.026602882
)
;
    }
    Airfoil
    {
        type            calculated;
        value           nonuniform List<scalar> 
25
(
-0.24927021
-0.27495662
-0.21359461
-0.13284733
-0.055455338
0.052186236
0.14872146
0.24868552
0.34599421
0.43032177
0.51030856
0.57903675
0.64153002
0.69442036
0.74007716
0.77924527
0.80839856
0.82813993
0.83805226
-0.42986579
-0.42174652
-0.42420626
-0.43516799
-0.42114543
-0.34611855
)
;
    }
    Outlet
    {
        type            calculated;
        value           nonuniform List<scalar> 0();
    }
    procBoundary7to0
    {
        type            processor;
        value           nonuniform List<scalar> 
50
(
0.036653594
0.038350625
0.040623102
0.043113692
0.04619551
0.050287341
0.054993739
0.058844025
0.062758439
0.069037475
0.077909038
0.087453801
0.097582701
0.10996966
0.12414317
0.13928621
0.15680765
0.17818897
0.2052058
0.24006685
0.28377958
0.33795324
0.40867481
0.50675101
0.646378
0.84028736
0.096969681
0.038459494
0.018214398
0.02363579
0.02908874
0.031010493
0.030421748
0.029654782
0.029340661
0.029364568
0.029426356
0.029357777
0.029457665
0.029651671
0.02979358
0.030129676
0.030555868
0.03068719
0.031099577
0.031898252
0.032890603
0.034134304
0.036653594
0.035301653
)
;
    }
    procBoundary7to8
    {
        type            processor;
        value           nonuniform List<scalar> 
53
(
0.018022312
0.019347795
0.02051444
0.021823047
0.023222385
0.024129237
0.025076325
0.026034994
0.02650189
0.027156911
0.027242081
0.027808845
0.027552078
0.027826838
0.027621724
-0.017506924
-0.013034171
-0.0095734347
-0.0059091579
-0.0033699473
0.00041199707
0.0038818809
0.0053648794
0.007583944
0.010203406
0.012826654
0.014983985
0.016744603
0.016744603
-0.09116151
-0.079724902
-0.065203498
-0.056440551
-0.051059461
-0.042977944
-0.03686048
-0.03105147
-0.024291517
-0.019166929
-0.019166929
-0.34909107
-0.23238977
-0.25107304
-0.1772137
-0.18987767
-0.15124781
-0.10698731
-0.10107425
-0.091411151
-0.091411151
-0.4290969
-0.29066834
-0.29066834
)
;
    }
}


// ************************************************************************* //
