/*--------------------------------*- C++ -*----------------------------------*\
| =========                 |                                                 |
| \\      /  F ield         | OpenFOAM: The Open Source CFD Toolbox           |
|  \\    /   O peration     | Version:  2506                                  |
|   \\  /    A nd           | Website:  www.openfoam.com                      |
|    \\/     M anipulation  |                                                 |
\*---------------------------------------------------------------------------*/
FoamFile
{
    version     2.0;
    format      ascii;
    arch        "LSB;label=32;scalar=64";
    class       volScalarField;
    location    "0.0165";
    object      rho;
}
// * * * * * * * * * * * * * * * * * * * * * * * * * * * * * * * * * * * * * //

dimensions      [1 -3 0 0 0 0 0];

internalField   nonuniform List<scalar> 
13761
(
0.66384018
0.66384227
0.6638445
0.66384524
0.6638448
0.66384512
0.66384382
0.66383968
0.66730055
0.66383783
0.66730181
0.66383762
0.66730168
0.66384104
0.6672998
0.66384809
0.66729857
0.66385239
0.66729821
0.66385365
0.66729827
0.66385447
0.66729883
0.66385501
0.66497082
0.66729927
0.66385555
0.66497126
0.66729908
0.66385723
0.6649721
0.66729944
0.66385824
0.66496842
0.66730121
0.66385845
0.66496395
0.66730263
0.66385834
0.66496212
0.66730276
0.66385837
0.66496379
0.66730232
0.66385771
0.66641778
0.66496659
0.66730202
0.66385631
0.66641668
0.66496821
0.66730119
0.66385184
0.666416
0.66496888
0.66730037
0.66384245
0.66641555
0.66496921
0.66729991
0.66383583
0.66641469
0.66496989
0.66730018
0.66383398
0.66641379
0.66496736
0.66730124
0.66383602
0.66641353
0.6649645
0.66730151
0.66641355
0.66496354
0.6673011
0.66563771
0.66641344
0.66496479
0.66730032
0.66563642
0.66641292
0.66496632
0.66730064
0.66563617
0.66641183
0.66496705
0.66730202
0.66563685
0.6664108
0.66496726
0.66730298
0.66563788
0.66641068
0.66496688
0.66730234
0.66563893
0.66641091
0.66496813
0.66729705
0.66563973
0.66641105
0.66497144
0.66729031
0.66564048
0.66641108
0.66497533
0.66576482
0.66564138
0.66641099
0.66497839
0.66576532
0.66564197
0.66641121
0.66498021
0.66576598
0.66564201
0.66641163
0.6649811
0.66576668
0.66564184
0.66641196
0.66498149
0.66576739
0.66564179
0.66641222
0.66498182
0.66576811
0.66564203
0.6664124
0.66498201
0.66576884
0.66564214
0.66641252
0.66498176
0.66550885
0.66576955
0.66564208
0.66641264
0.66498119
0.66550934
0.66577027
0.6656416
0.66641275
0.66550982
0.66577099
0.66564098
0.66641282
0.66551028
0.66577172
0.66564018
0.66641237
0.66551072
0.66577246
0.66563842
0.66641226
0.66551114
0.66577308
0.66563688
0.6664114
0.66551156
0.66577342
0.66563655
0.66641006
0.66540052
0.66551197
0.66577355
0.66563738
0.66640942
0.66540098
0.6655124
0.66577362
0.66563843
0.66640936
0.6654014
0.66551283
0.66577377
0.66563921
0.66640932
0.6654018
0.66551328
0.66577405
0.66564006
0.66540218
0.66551375
0.66577443
0.66564117
0.66540256
0.66551423
0.66577503
0.66564201
0.66540296
0.66551474
0.66577586
0.66564113
0.66537038
0.66540336
0.66551525
0.66577679
0.66563961
0.66537068
0.66540376
0.66551577
0.6657775
0.66563894
0.66537105
0.66540415
0.66551628
0.66577787
0.66563958
0.66537144
0.66540454
0.66551676
0.66577805
0.66564057
0.66537181
0.66540494
0.66551722
0.66577814
0.66537217
0.66540533
0.66551766
0.66577817
0.66537251
0.66540572
0.66551809
0.66577818
0.66554893
0.66537285
0.66540611
0.66551851
0.66577826
0.66554974
0.66537319
0.6654065
0.66551892
0.66577845
0.66555052
0.66537352
0.66540688
0.66551935
0.66577877
0.66555129
0.66537384
0.66540727
0.66551979
0.66577936
0.66555204
0.66537415
0.66540766
0.66552026
0.66578018
0.66555277
0.66537446
0.66540805
0.66552077
0.66578107
0.66555348
0.66537476
0.66540843
0.66552129
0.66593007
0.66555418
0.66537505
0.66540882
0.66552181
0.66593274
0.66555486
0.66537534
0.6654092
0.66552232
0.66593538
0.66555552
0.66537562
0.66540959
0.66552282
0.66593799
0.66555616
0.6653759
0.66540997
0.6655233
0.66594057
0.66555679
0.66537616
0.66541035
0.66552377
0.66594313
0.6655574
0.66537642
0.66541073
0.66552425
0.66621803
0.66594565
0.66555799
0.66537668
0.66541111
0.66552474
0.6662259
0.66594814
0.66555856
0.66537693
0.66541149
0.66552523
0.66623375
0.66595061
0.66555912
0.66537717
0.66541187
0.66624158
0.66595304
0.66555966
0.6653774
0.66541224
0.66624939
0.66595544
0.66556018
0.66537763
0.66541262
0.66625718
0.66595781
0.66556068
0.66537785
0.66541299
0.66626494
0.66596015
0.66556116
0.66537807
0.66541336
0.66556148
0.66627268
0.66596246
0.66556163
0.66537828
0.66541374
0.66557362
0.66628039
0.66596474
0.66556208
0.66537848
0.66541411
0.66558587
0.66628808
0.66596699
0.66556251
0.66537868
0.66541448
0.66559818
0.66629574
0.6659692
0.66556293
0.66537887
0.66561057
0.66630336
0.66597138
0.66556332
0.66537906
0.66562304
0.66631096
0.66597353
0.6655637
0.66537924
0.66397124
0.66563558
0.66631853
0.66597564
0.66556406
0.66537941
0.66397996
0.6656482
0.66632606
0.66597772
0.66556441
0.66537958
0.66398889
0.6656609
0.66633355
0.66597977
0.66556473
0.66537974
0.66399795
0.66567366
0.66634102
0.66598178
0.66556504
0.66537989
0.66400717
0.6656865
0.66634844
0.66598376
0.66556533
0.66538004
0.66401652
0.66569942
0.66635583
0.6659857
0.6655656
0.66272677
0.66402602
0.6657124
0.66636318
0.66598761
0.66556585
0.6627217
0.66403566
0.66572545
0.66637048
0.66598948
0.66556609
0.66271676
0.66404543
0.66573858
0.66637775
0.66599132
0.66556631
0.66271197
0.66405535
0.66575177
0.66638497
0.66599312
0.66556651
0.66270733
0.66406541
0.66576504
0.66639214
0.66599489
0.6655667
0.66337627
0.66270283
0.66407562
0.66577838
0.66639926
0.66599662
0.66556686
0.66335718
0.66269849
0.66408597
0.66579178
0.66640634
0.66599832
0.66556701
0.66333795
0.66269429
0.66409648
0.66580526
0.66641336
0.66599998
0.66331866
0.66269026
0.66410713
0.6658188
0.66642034
0.66600161
0.6632993
0.6626864
0.66411794
0.66583242
0.66642726
0.6660032
0.66327994
0.66268272
0.6641289
0.66584609
0.66643413
0.66600475
0.66561078
0.66326064
0.66267921
0.66414002
0.66585983
0.66644095
0.66600626
0.66559528
0.66324146
0.66267588
0.66415129
0.66587363
0.66644772
0.66600774
0.66557929
0.66322244
0.66267272
0.66416271
0.66588749
0.66645444
0.66600917
0.66556298
0.66320357
0.66266971
0.66417429
0.6659014
0.6664611
0.66601057
0.6655464
0.66318482
0.66266687
0.66418602
0.66591537
0.66646771
0.66581002
0.6655296
0.66316616
0.66266419
0.66419792
0.66592939
0.66647427
0.66582394
0.66551254
0.66314753
0.66266168
0.66420997
0.66594346
0.66648077
0.6658378
0.66549517
0.66312891
0.66265934
0.66422217
0.66595759
0.66648722
0.66585147
0.66547745
0.66311028
0.66265719
0.66423453
0.66597176
0.66649361
0.66586501
0.6654594
0.66309165
0.66265521
0.66424705
0.66598598
0.66649994
0.66376096
0.66587841
0.66544105
0.66307305
0.66265342
0.66425972
0.66600024
0.66650622
0.66377153
0.66589169
0.66542244
0.6630545
0.66265181
0.66427255
0.66601455
0.66378251
0.6659048
0.66540358
0.66303602
0.66265037
0.66428552
0.6660289
0.66379375
0.66591773
0.66538446
0.66301762
0.66264912
0.66429865
0.6660433
0.66372895
0.66380518
0.66593048
0.6653651
0.66299928
0.66264805
0.66431193
0.66605773
0.66371591
0.66381678
0.66594304
0.66534553
0.662981
0.66264716
0.66432535
0.66607221
0.66370308
0.66382857
0.66595546
0.66532577
0.66296276
0.66264646
0.66433893
0.66608672
0.6636906
0.66384053
0.66596773
0.66530583
0.66294457
0.66264594
0.66435265
0.66610126
0.66367844
0.66385262
0.66597989
0.66528572
0.66292644
0.66264561
0.66436652
0.66611585
0.66531251
0.66366663
0.66386484
0.66599194
0.66526544
0.66290836
0.66264547
0.66438053
0.66530568
0.66365515
0.66387722
0.66600389
0.66524497
0.66289034
0.66264552
0.66439469
0.66529871
0.66364401
0.66388979
0.66601574
0.66522425
0.66287238
0.66264576
0.664409
0.66529151
0.6636332
0.66390256
0.66602748
0.66520323
0.66285449
0.66264621
0.66442345
0.66446494
0.66528406
0.6636227
0.66391545
0.66603908
0.66518185
0.66283668
0.66264685
0.66443804
0.66447636
0.6652762
0.66361249
0.66392842
0.66605052
0.66516008
0.66281894
0.66264769
0.66445278
0.6644878
0.66526787
0.66360256
0.6639414
0.66606174
0.66513793
0.6628013
0.66264872
0.66446766
0.66449916
0.66525893
0.66359291
0.66395441
0.66607268
0.66511547
0.66278374
0.66264995
0.66379247
0.66451058
0.66524938
0.66358358
0.6639675
0.66608329
0.66509277
0.66276627
0.66265137
0.66379099
0.66452193
0.66523919
0.66357455
0.66398072
0.66609349
0.66506996
0.66274888
0.66265298
0.66379002
0.66453337
0.6652284
0.66356583
0.66399407
0.66610323
0.66504712
0.66273157
0.66265477
0.66378943
0.66454473
0.66521707
0.66355738
0.66400752
0.66611245
0.66502425
0.66271435
0.66265676
0.6646971
0.6637895
0.66455616
0.66520528
0.66354922
0.66402101
0.66612112
0.66500128
0.66269724
0.66265895
0.66469059
0.66378989
0.66456747
0.66519311
0.66354132
0.66403455
0.66612922
0.66497811
0.66268025
0.66266134
0.6646841
0.66379101
0.66457877
0.66518064
0.66353372
0.6640482
0.66613685
0.66495463
0.66266339
0.6646768
0.66379252
0.66458997
0.66516792
0.66352645
0.66406205
0.66614413
0.66493086
0.66264666
0.66429499
0.66466931
0.66379465
0.66460118
0.66515498
0.66351954
0.6640762
0.66615124
0.66490685
0.66263005
0.66430185
0.6646609
0.6637971
0.66461234
0.66514178
0.66351301
0.66409074
0.66615833
0.66488267
0.66261358
0.66430884
0.66465293
0.66380038
0.66462354
0.66512827
0.66350686
0.66410574
0.66616547
0.66485833
0.66259723
0.66431565
0.66464447
0.66380371
0.66463469
0.66511434
0.66350108
0.66412121
0.66617255
0.66483385
0.66258102
0.66379459
0.66432257
0.66463649
0.66380763
0.66464586
0.66509993
0.66349565
0.66413705
0.66617938
0.66480924
0.66256495
0.66380126
0.66432902
0.66462795
0.66381142
0.66465702
0.66508499
0.66349055
0.66415311
0.66618578
0.66478454
0.66380834
0.66433554
0.66461975
0.66381546
0.66466825
0.66506951
0.66348575
0.66416928
0.66619167
0.66475976
0.66403532
0.66381554
0.6643414
0.66461106
0.6638194
0.6646796
0.66505357
0.66348119
0.6641855
0.66619705
0.66473489
0.66403491
0.66382309
0.66434732
0.6646027
0.6638236
0.66469119
0.66503724
0.6634768
0.66420184
0.66620197
0.66470991
0.66403514
0.66383064
0.66435259
0.66459404
0.66382788
0.66470304
0.66502061
0.6634725
0.66421837
0.66620655
0.66468478
0.66366176
0.66403533
0.66383872
0.66435795
0.66458558
0.66383248
0.66471516
0.66500373
0.66346823
0.66423516
0.66621084
0.66465947
0.66367401
0.66403594
0.66384654
0.66436279
0.66457678
0.66383724
0.66472746
0.66498659
0.663464
0.66425216
0.66621489
0.66368448
0.6640366
0.66385499
0.66436766
0.66456803
0.66384228
0.66473985
0.66496915
0.66345985
0.66426932
0.66621864
0.66332043
0.66369564
0.6640374
0.66386305
0.66437206
0.66455893
0.66384751
0.66475226
0.66495137
0.66345586
0.66428657
0.66622205
0.66332748
0.66370522
0.66403842
0.66387175
0.66437644
0.66454976
0.66385302
0.66476468
0.66493324
0.66345212
0.6643039
0.66622508
0.66333591
0.6637154
0.66403928
0.66387982
0.66438034
0.66454028
0.66385878
0.66477717
0.66491478
0.66344868
0.66432135
0.66622775
0.66320479
0.66334345
0.66372444
0.66404065
0.6638885
0.66438418
0.66453068
0.66386483
0.6647898
0.66489604
0.66344556
0.66433894
0.66623007
0.66320874
0.66335249
0.66373395
0.6640416
0.66389656
0.66438766
0.66452076
0.66387111
0.66480266
0.66487707
0.66344272
0.66435671
0.66623207
0.66294253
0.66321346
0.66336048
0.6637428
0.66404322
0.66390505
0.66439109
0.66451064
0.66387757
0.66481576
0.66485791
0.66344009
0.66437465
0.66294873
0.66321827
0.66336998
0.66375185
0.66404413
0.66391298
0.66439427
0.66450019
0.66388408
0.66482904
0.66483861
0.66343765
0.66439274
0.66295658
0.66322337
0.66337837
0.66376069
0.66404575
0.66392127
0.66439769
0.6644895
0.66389056
0.66484241
0.66481923
0.66343537
0.66441101
0.66284104
0.66296326
0.66322888
0.6633883
0.66376949
0.66404656
0.66392914
0.6644011
0.66447854
0.66389694
0.66485579
0.6647998
0.66343322
0.66442946
0.66284266
0.66297143
0.66323442
0.66339723
0.66377856
0.66404815
0.66393734
0.66440493
0.66446743
0.66390319
0.6648691
0.66478037
0.66343118
0.66444809
0.66268082
0.66284414
0.66297858
0.66324088
0.66340759
0.66378732
0.66404895
0.66394531
0.66440897
0.66445618
0.66390931
0.66488233
0.66476098
0.66342924
0.66446692
0.66267741
0.66284706
0.66298693
0.66324724
0.66341701
0.66379667
0.6640506
0.66395355
0.66441338
0.66444491
0.66391528
0.66489546
0.66474166
0.66342741
0.66267512
0.66284946
0.66299446
0.66325493
0.6634275
0.66380535
0.66405152
0.66396163
0.66441793
0.66443368
0.66392111
0.66490849
0.66472241
0.66342572
0.66258221
0.66267321
0.66285335
0.66300262
0.66326229
0.6634372
0.66381481
0.66405325
0.66396987
0.66442269
0.66442257
0.66392679
0.66492138
0.66470326
0.66342418
0.6625754
0.66267173
0.66285633
0.66301028
0.66327114
0.66344763
0.66382329
0.66405431
0.66397797
0.66442748
0.66441167
0.6639323
0.66493408
0.66468421
0.66342281
0.66249533
0.66256882
0.66267079
0.66286095
0.66301832
0.66327923
0.66345774
0.66383265
0.66405604
0.66398617
0.66443237
0.66440103
0.66393764
0.66494653
0.66466529
0.66342158
0.66249119
0.66256261
0.66266993
0.66286452
0.66302664
0.66328866
0.66346822
0.66384074
0.66405712
0.66399429
0.66443728
0.6643907
0.66394284
0.66495867
0.66464651
0.66342047
0.6622864
0.66248862
0.66255631
0.66267039
0.66286986
0.66303525
0.66329703
0.66347893
0.66384974
0.66405867
0.66400248
0.66444226
0.66438066
0.66394793
0.66497042
0.66462789
0.6622851
0.66248377
0.66255055
0.66267041
0.66287417
0.66304453
0.66330672
0.66348963
0.66385738
0.66405962
0.66401057
0.66444723
0.66437089
0.66395298
0.66498175
0.6646094
0.66205146
0.66228447
0.66247975
0.66254434
0.66267216
0.6628802
0.66305361
0.66331551
0.66350112
0.66386595
0.6640609
0.66401867
0.66445223
0.66436139
0.66395803
0.66499262
0.66459107
0.66181
0.66205715
0.66228256
0.66247373
0.66253893
0.66267264
0.66288519
0.66306329
0.6633256
0.66351215
0.66387322
0.66406174
0.66402663
0.66445718
0.66435212
0.66396311
0.66500299
0.6645729
0.66182357
0.66206017
0.66228227
0.66246775
0.66253359
0.66267528
0.66289154
0.66307207
0.66333501
0.66352432
0.66388138
0.6640629
0.66403451
0.66446211
0.66434305
0.66396827
0.66501282
0.66455488
0.66153802
0.66183644
0.66206545
0.66227966
0.66246052
0.66252929
0.66267626
0.66289693
0.66308199
0.66334539
0.66353555
0.66388837
0.66406377
0.6640422
0.66446698
0.66433417
0.66397351
0.66502209
0.664537
0.66124597
0.66155395
0.66184924
0.66206773
0.66227906
0.66245268
0.66252585
0.66267993
0.66290337
0.66309107
0.66335535
0.6635481
0.6638962
0.66406494
0.66404981
0.66447182
0.66432556
0.66397882
0.66503086
0.66126047
0.66156851
0.66186306
0.66207191
0.66227563
0.66244484
0.66252301
0.66268194
0.66290936
0.6631022
0.66336577
0.66355936
0.663903
0.66406594
0.66405733
0.66447665
0.66431733
0.66398423
0.66503916
0.66095526
0.66127339
0.66158544
0.66187479
0.66207394
0.66227394
0.66243639
0.6625217
0.6626866
0.66291583
0.66311244
0.66337618
0.66357204
0.66391044
0.66406717
0.66406485
0.66448151
0.66430954
0.66398977
0.66504704
0.66060456
0.66097355
0.66129079
0.66160119
0.66188932
0.66207671
0.66226954
0.662429
0.66252015
0.66268977
0.66292227
0.66312486
0.66338651
0.66358325
0.66391687
0.66406826
0.66407233
0.66448641
0.66430219
0.66399547
0.66505452
0.66030256
0.66063841
0.66099078
0.66130692
0.66161913
0.66190022
0.66207926
0.6622663
0.66242139
0.6625207
0.66269517
0.66292854
0.66313604
0.66339718
0.66359591
0.66392384
0.66406949
0.66407979
0.66449134
0.66429529
0.6640013
0.6650616
0.6603236
0.66067114
0.6610094
0.66132571
0.66163647
0.66191418
0.66208153
0.66226156
0.66241516
0.66251992
0.6626996
0.66293515
0.66314876
0.6634074
0.66360717
0.66392997
0.66407054
0.66408716
0.66449626
0.66428884
0.66400721
0.65993652
0.66034307
0.66070156
0.66102535
0.66134251
0.66165526
0.66192312
0.66208558
0.66225744
0.66240915
0.66252173
0.66270547
0.66294103
0.6631607
0.6634184
0.66361987
0.66393648
0.66407163
0.66409446
0.66450113
0.6642828
0.66401317
0.65964588
0.65996315
0.66036141
0.66072817
0.66104578
0.66136044
0.66167422
0.66193484
0.66208824
0.6622532
0.66240388
0.66252163
0.66271136
0.66294774
0.66317349
0.66342882
0.66363124
0.66394227
0.66407258
0.66410164
0.66450596
0.66427711
0.66401915
0.65930331
0.65967917
0.6599979
0.66037809
0.66075061
0.66106408
0.66137716
0.66169351
0.66194265
0.662094
0.66224913
0.66239909
0.66252445
0.66271791
0.66295374
0.66318579
0.66344045
0.66364392
0.66394836
0.6640736
0.66410872
0.66451069
0.66427174
0.66402513
0.65860809
0.65886874
0.6593069
0.65970474
0.66003289
0.66039354
0.66077253
0.66108786
0.66139342
0.66171381
0.66195199
0.66209756
0.66224599
0.66239372
0.66252529
0.66272541
0.66296109
0.66319834
0.66345136
0.66365543
0.66395389
0.66407453
0.66411568
0.66451532
0.66426667
0.66403112
0.65829608
0.6586466
0.65889736
0.65931411
0.65972698
0.66006747
0.66041119
0.66078957
0.66110814
0.66140956
0.66173288
0.6619594
0.66210466
0.66224279
0.6623895
0.66252895
0.66273259
0.66296812
0.66321072
0.66346357
0.66366814
0.66395963
0.6640755
0.66412251
0.66451979
0.66426191
0.66403717
0.65798553
0.65831876
0.65868211
0.65892738
0.65932671
0.65974606
0.66009779
0.66043213
0.6608068
0.66113328
0.66142466
0.66175304
0.66196659
0.66210905
0.66224079
0.66238396
0.66253108
0.66274142
0.66297661
0.66322307
0.66347478
0.66367985
0.66396489
0.66407637
0.6641292
0.66452408
0.66425749
0.65739319
0.65773612
0.65800675
0.65834211
0.6587208
0.65896505
0.65934494
0.659765
0.66012405
0.66045338
0.66080889
0.66115544
0.66144188
0.6617692
0.66197448
0.6621169
0.66223863
0.66238061
0.66253552
0.66274901
0.66298442
0.66323568
0.66348707
0.66369255
0.66397036
0.66407723
0.66413571
0.66452817
0.66425339
0.6571313
0.65740558
0.65774911
0.65802531
0.65836109
0.65875387
0.65900568
0.65936481
0.65977521
0.66014739
0.66048058
0.66081456
0.6611797
0.6614586
0.66178524
0.66198052
0.6621221
0.66223765
0.66237556
0.6625393
0.66275862
0.66299359
0.66324811
0.66349825
0.6637043
0.6639755
0.66407805
0.66414198
0.66453202
0.66424962
0.65659745
0.65690305
0.65714617
0.65742138
0.65776637
0.65804661
0.65838064
0.65878582
0.65905032
0.65939075
0.6597831
0.66016837
0.66050736
0.66081719
0.66120184
0.6614778
0.66179608
0.66198937
0.66213017
0.66223682
0.66237354
0.66254449
0.66276612
0.66300201
0.66326097
0.66351046
0.66371688
0.66398079
0.66407892
0.66414797
0.66453559
0.66424618
0.65597816
0.65615269
0.65633026
0.65660056
0.65690902
0.657161
0.65743709
0.65778261
0.65806627
0.6583978
0.65881211
0.65909468
0.65941981
0.65979353
0.66018809
0.66054255
0.66083013
0.66122348
0.66149659
0.66180652
0.6619951
0.66213606
0.66223677
0.66237005
0.66254965
0.66277608
0.66301211
0.66327336
0.66352184
0.66372862
0.66398574
0.66407982
0.66415367
0.66453886
0.66424306
0.65541137
0.65555006
0.65573981
0.65597949
0.65616184
0.65633878
0.65660587
0.6569167
0.65717721
0.65745566
0.65780432
0.65808984
0.65841668
0.6588362
0.65913678
0.65945591
0.659811
0.66019462
0.6605731
0.66084596
0.66124144
0.66151744
0.66181479
0.66200504
0.6621441
0.6622373
0.66237003
0.66255498
0.66278318
0.66302142
0.66328615
0.66353436
0.66374111
0.6639908
0.66408085
0.66415914
0.6645418
0.65486737
0.65503737
0.65523298
0.65540532
0.65554695
0.65573779
0.65598253
0.65617306
0.65635083
0.65661401
0.6569244
0.65719286
0.65747251
0.65782388
0.65811338
0.65843488
0.65885743
0.6591742
0.65949463
0.6598343
0.6601997
0.66060503
0.66086856
0.66125215
0.66153748
0.66182205
0.66201115
0.66215084
0.66223808
0.66236878
0.66256105
0.66279283
0.66303215
0.66329831
0.66354615
0.66375287
0.66399566
0.664082
0.66416441
0.66454445
0.65423036
0.65431079
0.65441176
0.65453665
0.65464902
0.65473881
0.65485319
0.65502397
0.6552201
0.65539929
0.65554718
0.65573618
0.65598534
0.65618562
0.65636344
0.65662584
0.65693562
0.65721026
0.6574926
0.65784701
0.65814067
0.6584552
0.65887801
0.65920727
0.65953418
0.65985848
0.66020038
0.66063117
0.6608918
0.66126371
0.66155841
0.66182915
0.66202165
0.66215898
0.66224002
0.66237081
0.66256609
0.66279928
0.6630428
0.66331089
0.66355905
0.66376522
0.66400067
0.6640832
0.66416951
0.66454681
0.65360248
0.65365654
0.65369757
0.65372936
0.65377722
0.65385182
0.65393938
0.65402909
0.65411995
0.65420633
0.65429023
0.65439231
0.6545197
0.65463647
0.65472888
0.6548424
0.65501256
0.65521277
0.6553951
0.65554614
0.65573711
0.65598941
0.65619891
0.6563788
0.6566366
0.65694748
0.65722688
0.65751045
0.6578674
0.65816868
0.65847607
0.65889804
0.65923616
0.65957225
0.65989062
0.66021091
0.66065742
0.66091821
0.66127196
0.66157809
0.66183408
0.66202815
0.66216639
0.66224179
0.66237177
0.66257268
0.66280816
0.66305475
0.66332292
0.66357114
0.66377686
0.66400556
0.66408443
0.66417441
0.66454887
0.64869501
0.64869419
0.6486924
0.64868945
0.64868516
0.64867952
0.64867275
0.64866525
0.64865735
0.64864924
0.64864099
0.64863262
0.64862412
0.64861547
0.64860665
0.64859762
0.64858837
0.64857885
0.64856905
0.64855896
0.64854855
0.6485378
0.64852671
0.64851526
0.64850346
0.64849129
0.64847875
0.64846584
0.64845256
0.64843894
0.64842499
0.64841076
0.6483963
0.64838167
0.64836697
0.64835227
0.64833767
0.64832338
0.64830964
0.64829679
0.6482852
0.64827533
0.64826769
0.64826286
0.64826146
0.64826423
0.64827212
0.64828649
0.64830952
0.64834436
0.64839691
0.6484785
0.64861427
0.64888581
0.64966232
0.6518445
0.65295176
0.65319659
0.65323604
0.65325005
0.6532676
0.65329235
0.65332085
0.65335427
0.65338805
0.65341609
0.65343389
0.6534463
0.65346897
0.65351214
0.65356935
0.65362517
0.65366819
0.65370205
0.65374958
0.65382543
0.65391351
0.65400339
0.65409405
0.65418225
0.65426845
0.65437285
0.65450247
0.65462421
0.65471921
0.65483285
0.65500288
0.65520234
0.65539154
0.65554823
0.65573785
0.65599524
0.6562132
0.65639736
0.65665343
0.65696127
0.65724669
0.65753149
0.65788929
0.65819812
0.658499
0.65891388
0.65926236
0.65960576
0.65992302
0.66022537
0.66068036
0.6609452
0.66128472
0.66159704
0.6618417
0.6620385
0.66217452
0.66224507
0.66237545
0.66257751
0.6628146
0.66306704
0.66333548
0.66358411
0.66378881
0.66401061
0.66408582
0.66417911
0.66455059
0.64861434
0.64861376
0.64861246
0.64861022
0.64860685
0.64860228
0.64859664
0.64859025
0.64858341
0.64857627
0.64856893
0.6485614
0.6485537
0.64854581
0.64853771
0.6485294
0.64852084
0.64851202
0.64850293
0.64849355
0.64848386
0.64847385
0.64846349
0.64845278
0.6484417
0.64843025
0.64841843
0.64840625
0.64839372
0.64838087
0.64836774
0.64835436
0.6483408
0.64832717
0.64831357
0.6483002
0.64828724
0.64827493
0.64826353
0.64825337
0.64824483
0.64823833
0.64823435
0.64823338
0.64823596
0.64824269
0.64825455
0.64827284
0.64829957
0.64833805
0.64839419
0.64847915
0.64861755
0.64888908
0.6496607
0.65188681
0.65296789
0.65316265
0.65319155
0.6532045
0.65322146
0.65324266
0.65327171
0.65330861
0.65334281
0.65337072
0.6533897
0.65340395
0.65342795
0.65347273
0.65353188
0.65359154
0.65363755
0.65367427
0.65372187
0.6537987
0.65388904
0.65397879
0.65406997
0.6541601
0.65424873
0.65435494
0.65448825
0.65461393
0.65471269
0.65482597
0.65499532
0.65519768
0.65538819
0.65554988
0.65574093
0.65599906
0.65622726
0.65641426
0.65667032
0.65697599
0.65726451
0.6575509
0.65790989
0.65822723
0.65852328
0.65892849
0.65928749
0.65963735
0.65996812
0.66024852
0.66069926
0.66097293
0.66129539
0.66161371
0.66184623
0.66204563
0.66218235
0.66224777
0.66237826
0.66258469
0.66282326
0.66308001
0.66334757
0.66359614
0.66379994
0.66401562
0.66408742
0.66418362
0.64855795
0.64855723
0.64855564
0.64855301
0.64854918
0.64854412
0.64853807
0.64853135
0.64852429
0.64851703
0.64850965
0.64850216
0.64849456
0.64848681
0.64847891
0.64847082
0.64846252
0.64845398
0.64844517
0.64843609
0.6484267
0.648417
0.64840698
0.64839662
0.64838594
0.64837492
0.64836359
0.64835193
0.64833998
0.64832776
0.64831531
0.64830268
0.64828996
0.64827725
0.64826466
0.64825233
0.64824044
0.64822919
0.64821887
0.6482098
0.64820236
0.64819699
0.64819421
0.64819459
0.64819876
0.64820748
0.64822167
0.64824269
0.6482727
0.64831535
0.64837712
0.6484704
0.64862274
0.64892504
0.64979335
0.65198428
0.65293782
0.65310904
0.6531405
0.65315542
0.65317113
0.6531981
0.65323465
0.65327135
0.65330501
0.65333369
0.65335379
0.65336985
0.65339449
0.65343953
0.65350012
0.65356162
0.6536116
0.6536488
0.65369778
0.65377338
0.65386521
0.65395539
0.65404675
0.65413833
0.65422976
0.65433774
0.6544728
0.65460333
0.65470574
0.65482034
0.6549882
0.65519105
0.65538797
0.65555346
0.65574577
0.65600659
0.65624299
0.65643515
0.65668964
0.65699454
0.65728496
0.65757282
0.65793147
0.65825591
0.65854896
0.65894405
0.65931053
0.65966478
0.66000988
0.66027371
0.66070809
0.66100225
0.66131108
0.66162879
0.66185546
0.6620554
0.66219054
0.66225221
0.66238313
0.66259003
0.66283043
0.66309333
0.66336001
0.66360882
0.66381116
0.66402071
0.66408924
0.66418792
0.6484915
0.64849071
0.64848898
0.64848611
0.64848195
0.64847649
0.64846997
0.64846276
0.64845519
0.64844744
0.64843958
0.64843163
0.64842357
0.64841539
0.64840707
0.6483986
0.64838993
0.64838107
0.64837198
0.64836267
0.64835311
0.6483433
0.64833323
0.64832291
0.64831233
0.64830151
0.64829044
0.64827915
0.64826764
0.64825596
0.64824412
0.64823215
0.6482201
0.64820804
0.6481961
0.64818442
0.64817319
0.64816265
0.64815309
0.64814485
0.64813834
0.64813399
0.64813234
0.64813399
0.64813966
0.64815018
0.64816644
0.6481898
0.64822242
0.64826802
0.64833319
0.64843042
0.64858744
0.64889606
0.64977594
0.6519504
0.65291231
0.65310313
0.6531349
0.6531503
0.65316932
0.65319212
0.6532179
0.65324955
0.65328215
0.65330835
0.65332657
0.6533414
0.65336559
0.65340913
0.65347004
0.65353328
0.65358544
0.65362505
0.6536737
0.65375108
0.6538442
0.65393585
0.65402592
0.65411884
0.65421165
0.65432134
0.65445957
0.65459598
0.65470277
0.65481719
0.65498544
0.65518836
0.6553854
0.65555707
0.65574909
0.65601156
0.65625725
0.65645532
0.65671005
0.65701223
0.65730371
0.65759374
0.65795356
0.65828426
0.6585757
0.6589631
0.6593315
0.65969299
0.66005623
0.66030261
0.66071365
0.66102976
0.66132528
0.66164084
0.66186077
0.66206314
0.66219854
0.66225598
0.66238723
0.66259837
0.66283934
0.66310674
0.66337185
0.6636206
0.66382165
0.6640257
0.66409117
0.66419205
0.64841482
0.64841426
0.648413
0.64841087
0.64840767
0.64840335
0.64839807
0.64839211
0.64838575
0.64837914
0.64837235
0.64836541
0.64835831
0.64835105
0.64834362
0.648336
0.64832818
0.64832015
0.64831189
0.64830341
0.64829467
0.64828569
0.64827644
0.64826693
0.64825715
0.64824711
0.64823681
0.6482263
0.64821559
0.64820474
0.6481938
0.64818288
0.64817207
0.64816148
0.64815124
0.64814153
0.64813256
0.64812456
0.64811781
0.64811266
0.64810946
0.64810858
0.64811047
0.64811572
0.64812497
0.64813899
0.64815876
0.64818571
0.6482221
0.64827175
0.64834128
0.64844328
0.6486055
0.64892044
0.64981739
0.65201862
0.65292064
0.65306499
0.65308979
0.65310345
0.65312043
0.65314133
0.65316974
0.65320517
0.65323864
0.65326616
0.65328566
0.65330263
0.65332857
0.65337393
0.65343636
0.65350332
0.65355921
0.65360155
0.65365066
0.65372784
0.65382211
0.65391458
0.65400512
0.65409888
0.65419435
0.65430592
0.65444658
0.65458688
0.65469915
0.65481517
0.65498144
0.65518627
0.65538726
0.65556262
0.65575681
0.65601957
0.65627329
0.65647704
0.65673366
0.65703426
0.65732465
0.65761589
0.65797615
0.65831236
0.65860271
0.6589834
0.65934404
0.65971552
0.66009424
0.66033342
0.66072126
0.66105896
0.66134422
0.66165165
0.66187165
0.66207204
0.66220679
0.66226166
0.6623927
0.6626049
0.6628478
0.66312026
0.66338408
0.66363277
0.66383222
0.66403071
0.66409312
0.66419604
0.64836201
0.6483613
0.64835973
0.64835714
0.64835338
0.64834844
0.64834255
0.64833606
0.64832926
0.64832231
0.64831528
0.64830816
0.64830098
0.64829369
0.64828629
0.64827876
0.64827106
0.64826317
0.64825509
0.64824679
0.64823827
0.64822951
0.64822052
0.64821129
0.64820183
0.64819214
0.64818226
0.6481722
0.64816201
0.64815175
0.64814148
0.64813125
0.64812116
0.64811132
0.64810185
0.64809292
0.64808473
0.64807753
0.64807162
0.64806733
0.64806509
0.64806535
0.64806866
0.64807554
0.64808665
0.64810274
0.64812484
0.64815447
0.64819407
0.64824771
0.64832265
0.64843263
0.64860827
0.64895226
0.64993807
0.65208151
0.65288109
0.65301433
0.65304467
0.65306325
0.65308187
0.65311
0.6531435
0.65317647
0.65320952
0.65323771
0.65325762
0.65327477
0.65330107
0.65334624
0.65340944
0.65347724
0.65353701
0.65358055
0.65363075
0.65370816
0.65380431
0.65389847
0.65398859
0.65408263
0.65417979
0.6542923
0.654435
0.65458059
0.65469742
0.65481459
0.6549813
0.65518528
0.65538764
0.65556723
0.65576121
0.65602522
0.65628784
0.65649812
0.65675555
0.65705647
0.65734502
0.65763802
0.65799956
0.65834091
0.65863049
0.65900604
0.65935938
0.65973615
0.66013077
0.66036771
0.66073145
0.66108468
0.66136199
0.66165924
0.66187762
0.66208042
0.66221463
0.66226693
0.66239797
0.66261429
0.6628577
0.66313337
0.66339598
0.6636439
0.66384231
0.66403565
0.66409514
0.66419993
0.64829499
0.64829425
0.64829262
0.64828993
0.64828603
0.64828092
0.64827484
0.64826818
0.64826122
0.64825412
0.64824696
0.64823973
0.64823244
0.64822506
0.64821758
0.64820998
0.64820224
0.64819435
0.64818629
0.64817806
0.64816965
0.64816106
0.64815229
0.64814335
0.64813425
0.648125
0.64811563
0.64810615
0.64809659
0.64808696
0.64807732
0.64806775
0.64805835
0.64804922
0.64804051
0.64803241
0.64802513
0.64801891
0.64801406
0.64801094
0.64800999
0.64801176
0.6480168
0.64802565
0.64803892
0.64805734
0.64808193
0.64811421
0.64815662
0.64821329
0.64829146
0.64840483
0.64858379
0.6489303
0.64991892
0.65204796
0.65286774
0.65301432
0.65304195
0.65305799
0.65307715
0.65309784
0.65312226
0.65315372
0.65318554
0.65321228
0.65323153
0.65324815
0.65327407
0.65331882
0.65338226
0.65345171
0.65351392
0.65356115
0.65361093
0.65368947
0.65378575
0.65388145
0.65397103
0.65406501
0.65416418
0.65427844
0.65442309
0.65457367
0.65469694
0.65481576
0.65498144
0.65518716
0.65539201
0.65557518
0.65577082
0.65603383
0.65630313
0.65652126
0.6567795
0.65708187
0.65736774
0.65766007
0.65802266
0.65836997
0.6586585
0.65902845
0.65937455
0.65974368
0.66016129
0.66040651
0.66074666
0.66111336
0.66138323
0.66166771
0.66188891
0.66208859
0.66222289
0.66227414
0.66240431
0.66262193
0.6628677
0.66314672
0.66340838
0.66365537
0.66385262
0.66404066
0.66409733
0.64822846
0.64822795
0.64822681
0.64822487
0.64822196
0.64821801
0.64821318
0.64820774
0.64820194