/*--------------------------------*- C++ -*----------------------------------*\
| =========                 |                                                 |
| \\      /  F ield         | OpenFOAM: The Open Source CFD Toolbox           |
|  \\    /   O peration     | Version:  2506                                  |
|   \\  /    A nd           | Website:  www.openfoam.com                      |
|    \\/     M anipulation  |                                                 |
\*---------------------------------------------------------------------------*/
FoamFile
{
    version     2.0;
    format      ascii;
    arch        "LSB;label=32;scalar=64";
    class       volVectorField;
    location    "0.0165";
    object      U;
}
// * * * * * * * * * * * * * * * * * * * * * * * * * * * * * * * * * * * * * //

dimensions      [0 1 -1 0 0 0 0];

internalField   nonuniform List<vector> 
13761
(
(93.053847 15.595205 4.2467526e-18)
(93.053844 15.595417 0)
(93.053922 15.595499 4.2482854e-18)
(93.053935 15.595612 -4.2475033e-18)
(93.053822 15.595707 -1.0396199e-21)
(93.053855 15.595834 0)
(93.054517 15.595995 0)
(93.056467 15.596282 0)
(92.74542 16.555969 0)
(93.058024 15.596503 -4.2454952e-18)
(92.746604 16.556106 0)
(93.058524 15.59667 4.2470153e-18)
(92.747235 16.556197 -4.8274583e-18)
(93.057585 15.596743 -4.2505641e-18)
(92.747391 16.556227 4.8299944e-18)
(93.056063 15.596713 4.2498163e-18)
(92.747327 16.556276 4.8315714e-18)
(93.054811 15.596743 0)
(92.746945 16.556333 -4.8313349e-18)
(93.054035 15.59677 4.2515407e-18)
(92.746733 16.556374 1.1773319e-21)
(93.053438 15.596863 -4.2518737e-18)
(92.746497 16.556433 4.8305992e-18)
(93.052884 15.596909 -4.2494052e-18)
(93.025502 15.653417 -2.7336528e-18)
(92.746349 16.556499 -4.8315778e-18)
(93.05249 15.596968 -1.2005793e-25)
(93.025476 15.653461 0)
(92.74521 16.556475 -1.1771799e-21)
(93.052541 15.597055 4.2528582e-18)
(93.025798 15.653577 0)
(92.74231 16.556291 0)
(93.052999 15.597201 0)
(93.026294 15.6537 2.7324885e-18)
(92.739826 16.556165 -4.8299933e-18)
(93.05314 15.597279 -4.2536642e-18)
(93.026173 15.653826 -2.7343908e-18)
(92.738691 16.556161 1.1624864e-21)
(93.053308 15.597345 8.5070341e-18)
(93.025313 15.653842 -2.7326274e-18)
(92.738365 16.556197 -3.92519e-24)
(93.053989 15.597415 -4.2542185e-18)
(93.024896 15.653862 2.7322954e-18)
(92.738409 16.556301 4.8260354e-18)
(93.054485 15.59752 -4.2524119e-18)
(92.83499 16.316102 -3.0894224e-18)
(93.024868 15.65402 0)
(92.738578 16.556374 0)
(93.054731 15.597581 4.2519702e-18)
(92.835067 16.316039 3.0929425e-18)
(93.024995 15.654122 2.7331311e-18)
(92.738409 16.556441 -1.1770255e-21)
(93.054374 15.597585 1.0408742e-21)
(92.835068 16.315971 1.5071778e-21)
(93.025336 15.654268 -2.7341932e-18)
(92.738007 16.556492 4.8270493e-18)
(93.053758 15.597573 0)
(92.834691 16.315872 3.0887338e-18)
(93.026296 15.654472 0)
(92.737721 16.556534 -4.8270519e-18)
(93.053654 15.597577 0)
(92.833306 16.31565 -3.0909181e-18)
(93.02712 15.654658 -2.7319243e-18)
(92.737825 16.556662 0)
(93.053903 15.597662 4.2557874e-18)
(92.831718 16.315441 3.0847352e-18)
(93.027453 15.654791 2.7334601e-18)
(92.73807 16.556764 0)
(93.054068 15.597702 4.25725e-18)
(92.830988 16.315305 -3.0859662e-18)
(93.027722 15.65488 -2.7319086e-18)
(92.738172 16.556855 -4.8245427e-18)
(92.831549 16.31529 3.0896211e-18)
(93.028322 15.655003 2.728126e-18)
(92.738143 16.556956 4.8246143e-18)
(92.958238 15.85148 -3.4804416e-18)
(92.833033 16.31534 -3.0853652e-18)
(93.028805 15.65516 -1.3346283e-21)
(92.738053 16.557039 -4.8223533e-18)
(92.958613 15.851537 3.479644e-18)
(92.834298 16.315377 3.0857458e-18)
(93.028361 15.655282 2.7300345e-18)
(92.737945 16.557092 4.8236314e-18)
(92.958927 15.851601 -3.4805845e-18)
(92.83472 16.315364 -3.0831073e-18)
(93.027081 15.655191 -2.7311988e-18)
(92.737917 16.557134 -4.827552e-18)
(92.959253 15.851648 3.4772992e-18)
(92.834728 16.315295 -1.5050076e-21)
(93.026058 15.65521 1.335486e-21)
(92.738136 16.557184 4.8326736e-18)
(92.959573 15.851712 -3.4757551e-18)
(92.834859 16.315254 -3.0874789e-18)
(93.025532 15.655316 0)
(92.738485 16.557266 4.8316358e-18)
(92.959941 15.851763 3.476796e-18)
(92.835114 16.315224 3.0871266e-18)
(93.025313 15.655393 -2.6709146e-21)
(92.738918 16.55737 1.1647998e-21)
(92.960308 15.851825 0)
(92.835216 16.315195 -1.5044917e-21)
(93.025115 15.65547 2.7320809e-18)
(92.739142 16.557443 4.8276237e-18)
(92.960693 15.851874 0)
(92.835269 16.315143 -3.0823423e-18)
(93.02507 15.655567 -5.4626621e-18)
(92.870023 16.214283 0)
(92.961093 15.851935 3.4750201e-18)
(92.835303 16.315113 6.1626085e-18)
(93.025298 15.655711 1.3364462e-21)
(92.870039 16.214141 0)
(92.961548 15.851985 -6.9489731e-18)
(92.834993 16.315042 -3.0844228e-18)
(93.025885 15.655869 5.4597465e-18)
(92.870521 16.214066 0)
(92.961999 15.852053 3.4739827e-18)
(92.8344 16.314929 3.0856974e-18)
(93.026695 15.656054 -1.3418215e-21)
(92.871075 16.213988 1.8467708e-25)
(92.962463 15.852123 -8.4836022e-22)
(92.833003 16.314739 -3.0839441e-18)
(93.027611 15.656249 -2.730473e-18)
(92.871439 16.2139 9.5359978e-22)
(92.962941 15.852221 8.4928348e-22)
(92.831512 16.314546 -3.0052332e-21)
(93.028699 15.656448 -5.4575503e-18)
(92.871603 16.213782 3.9066544e-18)
(92.963435 15.852314 -3.4701007e-18)
(92.830748 16.314436 3.0779276e-18)
(93.029547 15.656595 5.4557378e-18)
(92.871578 16.213642 -3.9063054e-18)
(92.963866 15.85242 3.4722556e-18)
(92.831216 16.314383 -3.0849054e-18)
(93.029912 15.656739 1.3341047e-21)
(92.888439 16.113234 8.7690928e-18)
(92.871463 16.213493 0)
(92.964257 15.852504 -3.471902e-18)
(92.833032 16.314518 0)
(93.029628 15.656797 -1.3342765e-21)
(92.88868 16.113291 6.9402251e-24)
(92.871279 16.213339 0)
(92.964607 15.852574 3.4715813e-18)
(92.835309 16.31473 0)
(92.888935 16.113352 6.7879827e-24)
(92.871105 16.213179 0)
(92.964949 15.852621 0)
(92.837117 16.314832 1.5027145e-21)
(92.889194 16.113412 6.804697e-24)
(92.870852 16.213011 3.9041341e-18)
(92.965262 15.852666 -3.4710359e-18)
(92.837977 16.314883 3.0790087e-18)
(92.889451 16.113477 6.8935999e-24)
(92.870168 16.212796 -3.902676e-18)
(92.965556 15.852692 3.4707978e-18)
(92.838175 16.314879 -3.080237e-18)
(92.889701 16.113545 -1.0622056e-21)
(92.86951 16.212608 0)
(92.965865 15.852724 1.6963014e-21)
(92.838062 16.314774 -1.5023709e-21)
(92.889935 16.113617 -4.3812179e-18)
(92.869304 16.212428 9.5145211e-22)
(92.96626 15.852756 -1.6962126e-21)
(92.838013 16.314735 -3.0786663e-18)
(92.880471 16.203234 -2.454001e-18)
(92.890157 16.113684 4.3795944e-18)
(92.869706 16.212321 0)
(92.966695 15.852802 0)
(92.838109 16.314708 6.1603271e-18)
(92.8803 16.203761 2.4548051e-18)
(92.89038 16.113748 -8.7581536e-18)
(92.870174 16.212225 -3.9004135e-18)
(92.96714 15.852844 8.485344e-22)
(92.838147 16.314673 3.0785036e-18)
(92.880128 16.204284 1.1971472e-21)
(92.890606 16.113809 8.7572197e-18)
(92.87045 16.21211 3.9001464e-18)
(92.967568 15.852896 8.4751374e-22)
(92.837946 16.314614 -9.2400909e-18)
(92.879955 16.204804 0)
(92.890831 16.113868 -4.3792547e-18)
(92.870483 16.211959 -3.8998509e-18)
(92.967972 15.852942 -8.4749513e-22)
(92.87978 16.205321 1.1977556e-21)
(92.891056 16.113928 -1.0686328e-21)
(92.870253 16.211783 3.901556e-18)
(92.968333 15.852989 0)
(92.879604 16.205835 -1.1967375e-21)
(92.891292 16.113991 0)
(92.869352 16.211531 -3.9014358e-18)
(92.968678 15.853021 3.4698911e-18)
(92.879428 16.206345 2.3941628e-21)
(92.891545 16.114066 -2.1377112e-21)
(92.868052 16.211243 3.898683e-18)
(92.969035 15.853045 -3.4699024e-18)
(92.967198 16.057389 -2.7409521e-18)
(92.879249 16.206851 -2.4520022e-18)
(92.891801 16.11415 4.3770608e-18)
(92.867315 16.21102 -9.5122816e-22)
(92.969469 15.853061 3.4707927e-18)
(92.966677 16.059251 -2.6770693e-21)
(92.87907 16.207354 4.9048773e-18)
(92.892036 16.114233 -4.3768911e-18)
(92.86763 16.210875 -3.9012045e-18)
(92.969963 15.853091 -3.4700088e-18)
(92.966149 16.06111 2.7418591e-18)
(92.878889 16.207854 -2.4517085e-18)
(92.892245 16.114306 1.0683848e-21)
(92.868817 16.210851 3.9012147e-18)
(92.970458 15.853121 -3.4684047e-18)
(92.965616 16.062965 2.5753628e-23)
(92.878706 16.208349 1.1972436e-21)
(92.892437 16.114366 6.9999088e-25)
(92.870144 16.210837 3.9002742e-18)
(92.970893 15.853158 3.4702128e-18)
(92.965078 16.064816 -2.7428625e-18)
(92.878522 16.208842 0)
(92.892629 16.114418 1.0690588e-21)
(92.871031 16.210773 -3.9021767e-18)
(92.964537 16.066664 0)
(92.878336 16.209331 -1.1971855e-21)
(92.892827 16.114466 1.068367e-21)
(92.87147 16.210658 9.5212273e-22)
(92.963994 16.068509 2.6764173e-21)
(92.878151 16.209816 -1.1963179e-21)
(92.893036 16.114512 0)
(92.871641 16.21051 -3.9015179e-18)
(93.188725 15.72993 1.4956149e-21)
(92.96345 16.07035 -1.3371392e-21)
(92.877966 16.210298 0)
(92.893251 16.114559 0)
(92.871623 16.21034 9.4585544e-22)
(93.187482 15.734371 7.4560176e-22)
(92.962903 16.072186 -2.7413535e-18)
(92.877781 16.210776 -2.4515408e-18)
(92.893472 16.114607 4.3769969e-18)
(92.871531 16.21016 3.9028202e-18)
(93.186226 15.738809 -1.495594e-21)
(92.962352 16.074019 5.4841277e-18)
(92.877596 16.211251 2.4504148e-18)
(92.893698 16.114655 -4.3761275e-18)
(92.871454 16.209979 9.5231673e-22)
(93.18496 15.743243 -7.4563669e-22)
(92.961801 16.075848 -5.4843217e-18)
(92.87741 16.211721 2.4541291e-18)
(92.893929 16.114705 4.3763934e-18)
(92.871426 16.209802 0)
(93.183685 15.747672 0)
(92.961251 16.077673 2.7402691e-18)
(92.877223 16.212188 -2.4494726e-18)
(92.894161 16.114754 -4.3798921e-18)
(92.871444 16.209628 -1.7103735e-25)
(93.1824 15.752098 0)
(92.9607 16.079494 0)
(92.877034 16.21265 -2.4508458e-18)
(92.894389 16.114802 -2.1381225e-21)
(92.871484 16.209453 3.9049579e-18)
(93.181106 15.756518 0)
(92.960142 16.08131 2.7406543e-18)
(92.876843 16.213108 2.4534239e-18)
(92.894614 16.11485 4.3774159e-18)
(93.646192 15.042691 0)
(93.1798 15.760933 -3.0609031e-18)
(92.959575 16.08312 -5.4830824e-18)
(92.876651 16.213562 2.4524576e-18)
(92.894835 16.114896 -4.3799692e-18)
(93.644276 15.05061 8.3406663e-22)
(93.178483 15.765342 -8.0652001e-22)
(92.959 16.084926 2.7438004e-18)
(92.876459 16.214012 -2.4538897e-18)
(92.895056 16.114942 -4.3804411e-18)
(93.642329 15.05854 0)
(93.177154 15.769745 3.0614501e-18)
(92.958418 16.086726 0)
(92.876266 16.214458 0)
(92.895278 16.114987 8.7597413e-18)
(93.640351 15.06648 3.4111194e-18)
(93.175812 15.774141 -7.4608596e-22)
(92.957833 16.088521 0)
(92.876073 16.2149 -4.9077401e-18)
(92.895502 16.115032 -4.3793401e-18)
(93.638341 15.07443 -6.8221952e-18)
(93.174458 15.77853 -2.2427801e-21)
(92.957249 16.090312 -2.7407891e-18)
(92.87588 16.215337 -1.2163532e-21)
(92.895726 16.115077 0)
(93.636301 15.082388 -1.1029067e-22)
(93.173092 15.782912 -7.46303e-22)
(92.956666 16.092097 -1.3656641e-21)
(92.875685 16.21577 4.9090615e-18)
(92.895949 16.115122 -4.3816216e-18)
(94.322334 14.051402 -7.5908578e-18)
(93.634232 15.090355 3.4133574e-18)
(93.171714 15.787286 -7.4642756e-22)
(92.956078 16.093877 2.7456027e-18)
(92.87549 16.216198 -1.1977462e-21)
(92.896173 16.115166 8.7634987e-18)
(94.321651 14.061292 -1.0598813e-21)
(93.632135 15.09833 8.3108147e-22)
(93.170321 15.791652 -3.0652609e-18)
(92.955478 16.09565 2.6797803e-21)
(92.875292 16.216621 -1.1979532e-21)
(92.896397 16.11521 -1.3149046e-17)
(94.320899 14.071233 7.5938729e-18)
(93.630016 15.106313 -8.3124959e-22)
(93.168916 15.796011 3.0657945e-18)
(92.954873 16.097418 2.7439396e-18)
(92.875094 16.21704 0)
(94.320072 14.081222 -3.7981766e-18)
(93.627871 15.114303 1.6665164e-21)
(93.167498 15.800361 -2.2447554e-21)
(92.954266 16.099179 -2.7444585e-18)
(92.874896 16.217455 0)
(94.319173 14.091259 -3.7982815e-18)
(93.625706 15.122301 0)
(93.166071 15.804703 0)
(92.953654 16.100934 0)
(92.874697 16.217864 -1.1994291e-21)
(94.318198 14.101342 3.8000338e-18)
(93.62352 15.130304 -3.4171485e-18)
(93.164629 15.809036 3.0663744e-18)
(92.953037 16.102684 0)
(92.874497 16.218269 0)
(94.317152 14.111473 -3.7993261e-18)
(93.621314 15.138314 3.4154135e-18)
(93.163177 15.81336 -3.0663164e-18)
(92.952422 16.104427 -2.7489865e-18)
(92.874296 16.218669 1.1991751e-21)
(94.959405 13.177174 2.1122595e-18)
(94.316031 14.121647 3.8011912e-18)
(93.619085 15.146328 3.418123e-18)
(93.161715 15.817676 0)
(92.951804 16.106165 2.7482885e-18)
(92.874093 16.219064 0)
(94.963356 13.183459 -2.1128822e-18)
(94.314841 14.131868 -9.3058655e-22)
(93.616837 15.154347 -6.837245e-18)
(93.160244 15.821982 0)
(92.95118 16.107896 0)
(92.873888 16.219454 0)
(94.967218 13.189845 1.0336451e-21)
(94.313578 14.142129 3.8017894e-18)
(93.614566 15.162368 3.4208341e-18)
(93.158762 15.826279 0)
(92.950555 16.10962 0)
(92.873682 16.219838 -4.9179654e-18)
(94.970992 13.196337 -1.034004e-21)
(94.312242 14.152434 -3.8038215e-18)
(93.612276 15.170392 3.4211835e-18)
(93.157272 15.830566 3.0705069e-18)
(92.94993 16.111338 0)
(94.974674 13.202931 -1.0325435e-21)
(94.31083 14.162777 0)
(93.609962 15.178417 -6.8444776e-18)
(93.155772 15.834843 -6.1413337e-18)
(92.949299 16.113049 -1.3421691e-21)
(94.978274 13.209631 0)
(94.309338 14.17316 0)
(93.607625 15.186444 3.423354e-18)
(93.15426 15.839109 3.0723767e-18)
(92.948661 16.114753 0)
(95.083992 13.200371 -1.152585e-21)
(94.981788 13.216434 -1.0351978e-21)
(94.307758 14.18358 9.2776011e-22)
(93.605261 15.194469 8.3747958e-22)
(93.152737 15.843365 -3.0757357e-18)
(92.948019 16.116449 1.3430179e-21)
(95.095431 13.195132 -2.3006035e-21)
(94.98522 13.223344 1.0336537e-21)
(94.306105 14.19404 0)
(93.602872 15.202495 -8.3778933e-22)
(93.151204 15.847611 3.0752589e-18)
(92.947377 16.118139 1.3452965e-21)
(95.106812 13.190031 0)
(94.988557 13.230357 0)
(94.304377 14.204537 9.3293389e-22)
(93.600456 15.210519 -8.3452429e-22)
(93.149662 15.851846 -3.0756917e-18)
(92.946736 16.119822 -1.3457512e-21)
(95.118139 13.185068 -1.1539494e-21)
(94.991801 13.237474 0)
(94.302583 14.215073 0)
(93.598015 15.218541 0)
(93.148111 15.85607 3.0752865e-18)
(92.946093 16.121498 1.3444124e-21)
(95.129405 13.180246 2.3549679e-18)
(94.994938 13.244692 -2.0719642e-21)
(94.30072 14.225646 9.292584e-22)
(93.595545 15.226559 8.3878444e-22)
(93.146547 15.860282 -7.5013568e-22)
(92.945443 16.123167 0)
(95.140608 13.175566 -2.3550621e-18)
(94.997976 13.252013 -1.0375481e-21)
(94.298794 14.236256 -4.4921851e-24)
(93.593048 15.234575 -3.4307786e-18)
(93.144974 15.864482 3.0792759e-18)
(94.32362 14.748514 1.2737228e-21)
(95.151738 13.171028 -1.1554811e-21)
(95.000911 13.259435 -2.1223096e-18)
(94.296799 14.2469 9.3008766e-22)
(93.590522 15.242584 3.433011e-18)
(93.143391 15.868671 5.986638e-23)
(94.342717 14.729971 0)
(95.162795 13.166634 2.356158e-18)
(95.003753 13.266961 2.1233436e-18)
(94.294741 14.257579 0)
(93.58797 15.25059 0)
(93.141801 15.872847 -3.0817867e-18)
(94.361858 14.711484 0)
(95.173774 13.162385 -1.1459627e-22)
(95.0065 13.274587 0)
(94.292614 14.268291 0)
(93.585388 15.258588 8.4026324e-22)
(93.1402 15.87701 -3.0839373e-18)
(94.381034 14.693055 -1.2758868e-21)
(95.184687 13.158284 -2.3587852e-18)
(95.00916 13.282317 2.123515e-18)
(94.290423 14.279036 3.8264797e-18)
(93.582779 15.266581 -8.371218e-22)
(93.13859 15.881161 3.0845016e-18)
(94.400246 14.674688 2.6238098e-18)
(95.195534 13.154331 -2.3611469e-18)
(95.011726 13.290146 -2.1246442e-18)
(94.288162 14.289811 -7.7496514e-22)
(93.580138 15.274565 -8.4106743e-22)
(93.136969 15.885298 7.5210239e-22)
(93.026092 16.911372 -2.9190958e-18)
(94.419493 14.656385 -2.6256665e-18)
(95.206323 13.150532 2.3637799e-18)
(95.014204 13.298079 -2.1279542e-18)
(94.285838 14.300618 -3.8285295e-18)
(93.577467 15.28254 8.4148913e-22)
(93.135339 15.889421 -3.0881839e-18)
(93.03997 16.897492 -7.0880577e-22)
(94.438769 14.638145 6.4564792e-22)
(95.217045 13.146882 0)
(95.016583 13.306111 2.1281383e-18)
(94.283446 14.311454 0)
(93.574763 15.290507 8.4192841e-22)
(93.1337 15.89353 3.0881367e-18)
(93.054036 16.883349 2.9212426e-18)
(94.458068 14.619966 6.460635e-22)
(95.227699 13.143384 0)
(95.018866 13.314245 0)
(94.280994 14.322322 -3.8321238e-18)
(93.572032 15.298465 -1.6812478e-21)
(93.068323 16.868945 -5.8482063e-18)
(94.477399 14.601858 0)
(95.238278 13.140038 -2.3669241e-18)
(95.02104 13.322475 -2.130776e-18)
(94.278476 14.333218 3.8351682e-18)
(93.569272 15.306414 3.4478143e-18)
(93.082805 16.854279 5.8523175e-18)
(94.49676 14.583819 0)
(95.248789 13.136847 4.7358874e-18)
(95.023112 13.330806 4.2652579e-18)
(94.2759 14.344145 -9.3914519e-22)
(93.566487 15.314353 -3.4471215e-18)
(93.097489 16.839357 -2.9284184e-18)
(94.516157 14.565859 0)
(95.259229 13.133811 -1.0410879e-22)
(95.025074 13.339232 -1.0073566e-21)
(94.27326 14.355097 9.3509281e-22)
(93.563672 15.32228 8.4379189e-22)
(92.810772 17.188175 -7.8835703e-22)
(93.112355 16.824176 -2.9309819e-18)
(94.535579 14.547974 6.4783074e-22)
(95.269605 13.130934 -2.3717766e-18)
(95.026933 13.347758 -2.1348845e-18)
(94.270568 14.366079 9.4031156e-22)
(93.560833 15.330197 -1.6850891e-21)
(92.804009 17.198668 -3.2472479e-18)
(93.127413 16.808743 1.0232833e-21)
(94.555018 14.530171 -6.482988e-22)
(95.279909 13.128214 -1.1592149e-21)
(95.028682 13.356378 2.0884164e-21)
(94.26782 14.377086 -1.8771759e-21)
(93.557965 15.338101 1.6861022e-21)
(92.797457 17.208946 3.2490292e-18)
(93.142649 16.793059 2.9350538e-18)
(94.574461 14.512448 -2.6402182e-18)
(95.290143 13.125654 0)
(95.030331 13.365097 -2.1388925e-18)
(94.265023 14.38812 9.368661e-22)
(93.555073 15.345994 0)
(92.791127 17.218992 0)
(93.158079 16.777131 -2.9363369e-18)
(94.593907 14.494809 2.6418562e-18)
(95.300295 13.123252 2.3767646e-18)
(95.031869 13.37391 2.1393136e-18)
(94.262172 14.399177 -9.4215691e-22)
(93.552153 15.353873 8.42368e-22)
(92.785012 17.228809 -7.9362327e-22)
(93.173699 16.76096 5.8791535e-18)
(94.613354 14.477258 -2.6422821e-18)
(95.310368 13.121012 -2.3786385e-18)
(95.033303 13.382819 -2.0927771e-21)
(94.259273 14.410259 3.853606e-18)
(94.063864 15.612068 1.7969084e-18)
(92.779144 17.238384 0)
(93.189525 16.744555 -2.9421539e-18)
(94.6328 14.459797 2.6465949e-18)
(95.320353 13.11893 0)
(95.034623 13.391819 0)
(94.256318 14.421363 -3.8542445e-18)
(94.055631 15.633499 -1.7979062e-18)
(92.773546 17.247722 0)
(93.205551 16.727915 -2.9443032e-18)
(94.652245 14.442431 -1.288893e-21)
(95.33026 13.117012 1.1675152e-21)
(95.035837 13.400914 -4.2881612e-18)
(94.253314 14.432489 3.8581042e-18)
(94.047043 15.655006 1.8013122e-18)
(92.768254 17.256823 3.2638807e-18)
(93.221781 16.71105 5.894787e-18)
(94.671678 14.425159 -1.9413499e-21)
(95.340081 13.115255 1.1684093e-21)
(95.036935 13.410099 4.2913989e-18)
(94.250254 14.443634 -3.860776e-18)
(94.038183 15.67664 0)
(92.763289 17.265692 -3.2677032e-18)
(93.238191 16.693954 -5.8993192e-18)
(94.691078 14.407978 -1.2911502e-21)
(95.34982 13.113661 1.1693232e-21)
(95.037927 13.419379 0)
(94.247149 14.454802 0)
(94.029088 15.698354 0)
(92.75867 17.27432 7.9708384e-22)
(93.2548 16.676644 3.3464839e-22)
(94.710447 14.390895 -1.9447686e-21)
(95.35947 13.112228 1.1702553e-21)
(95.038803 13.428747 0)
(94.243988 14.465988 3.8667909e-18)
(94.663322 14.883666 -9.748235e-22)
(94.019815 15.720186 1.7660788e-21)
(92.754392 17.282707 -3.2751387e-18)
(93.271589 16.659112 3.4379681e-22)
(94.729776 14.373907 0)
(95.369035 13.11096 0)
(95.039572 13.438208 0)
(94.240782 14.477194 -3.8696213e-18)
(94.670569 14.88881 -9.7645765e-22)
(94.010308 15.742088 0)
(92.750459 17.290846 3.2783726e-18)
(93.288579 16.64138 2.957289e-18)
(94.749069 14.357022 0)
(95.378505 13.109853 0)
(95.040224 13.447754 -4.3054721e-18)
(94.67761 14.894276 0)
(94.000556 15.764074 -1.8101125e-18)
(92.746856 17.298732 3.2818876e-18)
(93.305753 16.623437 -1.4430795e-21)
(94.768324 14.34024 6.5420795e-22)
(95.387888 13.108911 1.1698319e-21)
(95.040769 13.457393 4.3079667e-18)
(94.684465 14.899873 -2.0000827e-18)
(93.990469 15.78611 3.6240994e-18)
(92.743585 17.306358 -3.2836543e-18)
(93.323132 16.605305 -7.2524328e-22)
(94.787546 14.323567 0)
(95.397177 13.108132 0)
(95.041194 13.467115 -1.0555511e-21)
(94.39473 15.543788 -5.3961495e-22)
(94.691207 14.905782 2.002409e-18)
(93.980089 15.808205 -1.8149113e-18)
(92.740631 17.313716 1.6001114e-21)
(93.340699 16.586975 2.9655789e-18)
(94.806732 14.307005 -1.2984554e-21)
(95.406383 13.107521 1.17519e-21)
(95.04151 13.476926 0)
(94.403169 15.54619 -2.2137645e-18)
(94.697771 14.911867 0)
(93.969434 15.830354 1.8153896e-18)
(92.737997 17.320801 8.0006432e-22)
(93.358479 16.568468 -2.9689301e-18)
(94.825881 14.290556 6.4369581e-22)
(95.415498 13.107073 -1.1762321e-21)
(95.041703 13.48682 0)
(94.411664 15.548865 2.2171057e-18)
(94.704208 14.918235 2.0061095e-18)
(93.958653 15.852577 -3.6357653e-18)
(92.73565 17.327603 3.2961079e-18)
(93.376457 16.549775 -7.2760397e-22)
(94.844987 14.274224 -1.3010679e-21)
(95.42453 13.106794 3.011384e-24)
(95.041785 13.496801 4.3264865e-18)
(94.420686 15.551227 -1.0819125e-21)
(94.710387 14.924793 -2.0075753e-18)
(93.947797 15.874876 -1.6337063e-22)
(92.733575 17.334118 -3.3005491e-18)
(93.394657 16.530917 2.9761441e-18)
(94.864047 14.25801 -2.675082e-18)
(95.433464 13.106678 0)
(95.041743 13.506861 -4.328226e-18)
(94.429815 15.553742 1.0832962e-21)
(94.716354 14.931602 -9.8436691e-22)
(93.936917 15.897257 1.8226108e-18)
(92.731718 17.340333 0)
(93.413064 16.511885 -2.9796544e-18)
(94.883059 14.241919 5.3565158e-18)
(95.442309 13.106732 -1.1766193e-21)
(95.041587 13.517007 -3.5854889e-24)
(94.723768 15.412989 0)
(94.439317 15.55603 0)
(94.721989 14.938595 0)
(93.925911 15.919699 -1.8259374e-18)
(92.730078 17.346248 1.6090279e-21)
(93.431703 16.492697 -2.1776735e-21)
(94.902026 14.225953 1.0197746e-21)
(95.451051 13.106948 2.4102026e-18)
(94.72099 15.429376 -2.4569748e-18)
(94.448877 15.558355 -2.2267547e-18)
(94.727373 14.945821 -2.0180988e-18)
(93.914705 15.942195 -1.0689796e-21)
(92.728644 17.351858 8.0482559e-22)
(93.450549 16.47334 -2.985086e-18)
(94.920939 14.210113 -2.6836784e-18)
(95.459696 13.107333 -2.4115524e-18)
(94.719198 15.445294 2.4585308e-18)
(94.458665 15.560491 2.2331222e-18)
(94.732422 14.953236 2.0187756e-18)
(93.903173 15.964717 1.828629e-18)
(92.72746 17.357166 -3.313817e-18)
(93.469627 16.453833 5.9772585e-18)
(94.939802 14.1944 -2.6862587e-18)
(95.46823 13.107879 0)
(94.716183 15.461301 6.0009274e-22)
(94.468506 15.562597 0)
(94.737209 14.960893 -9.8958615e-22)
(93.891293 15.987258 8.9249196e-22)
(92.726521 17.362164 6.6373639e-18)
(93.488913 16.434167 -2.9922288e-18)
(94.958617 14.178821 2.6894751e-18)
(95.476664 13.108595 -2.4176875e-18)
(95.521378 14.540196 -6.6283728e-22)
(94.713819 15.477048 -2.4669407e-18)
(94.478553 15.564558 0)
(94.741683 14.968764 2.0251517e-18)
(93.879029 16.009802 0)
(92.72584 17.366853 -3.322001e-18)
(93.508422 16.414359 -7.3361506e-22)
(94.977381 14.163377 0)
(95.484987 13.109472 2.4191428e-18)
(95.524506 14.558635 0)
(94.710571 15.492713 4.9410414e-18)
(94.48874 15.566485 2.2417395e-18)
(94.745947 14.976909 -4.0568353e-18)
(93.866403 16.032346 0)
(92.725368 17.371216 0)
(93.528129 16.394403 0)
(94.996095 14.148069 0)
(95.493213 13.110519 2.4240527e-18)
(95.530449 14.577006 6.6483195e-22)
(94.707752 15.508302 -2.4729487e-18)
(94.499204 15.568329 -2.2450541e-18)
(94.749976 14.985315 4.6313358e-24)
(93.853423 16.054877 9.0145147e-22)
(92.725099 17.375255 3.3305038e-18)
(93.548046 16.374317 1.4576662e-21)
(95.014756 14.132895 -2.6982315e-18)
(95.501329 13.111729 -2.4267681e-18)
(95.533753 14.59544 -1.36302e-18)
(94.704331 15.523658 0)
(94.509921 15.570148 -2.245977e-18)
(94.753839 14.994028 4.0661735e-18)
(93.840168 16.077402 0)
(92.724989 17.378955 -3.3364409e-18)
(93.568149 16.354093 7.363944e-22)
(95.033362 14.11786 5.4016234e-18)
(95.823939 14.405898 7.3402505e-22)
(95.539107 14.614289 1.3658161e-18)
(94.701159 15.539038 0)
(94.520962 15.57191 2.2504907e-18)
(94.757489 15.003024 -2.0354854e-18)
(93.826742 16.099917 -8.9832995e-22)
(92.725053 17.382323 -8.128966e-22)
(93.588449 16.333743 2.1985875e-21)
(95.051904 14.102964 -2.7047764e-18)
(95.82923 14.41771 -7.3539945e-22)
(95.54235 14.632676 6.6794713e-22)
(94.697535 15.554049 0)
(94.532258 15.573618 0)
(94.760996 15.012333 -9.9819834e-22)
(93.813286 16.122437 -1.8462893e-18)
(92.725259 17.385348 3.344492e-18)
(93.608919 16.31326 -3.0133773e-18)
(95.070386 14.088212 -1.318833e-21)
(95.837908 14.431909 -1.5085369e-18)
(95.546895 14.651942 -1.3702245e-18)
(94.693971 15.569139 0)
(94.543806 15.575247 0)
(94.764329 15.021913 0)
(93.799897 16.144959 3.700394e-18)
(92.725704 17.388056 -6.6988353e-18)
(93.629567 16.292654 6.0347229e-18)
(95.088799 14.073603 -2.7095989e-18)
(95.843023 14.443432 1.5118367e-18)
(95.549744 14.670313 -6.8977585e-22)
(94.689983 15.583788 0)
(94.555509 15.576786 -1.1021266e-21)
(94.767488 15.031789 2.0464481e-18)
(93.786593 16.167482 -1.8532456e-18)
(92.726358 17.390436 3.3544141e-18)
(93.650378 16.271925 -3.0214046e-18)
(95.107145 14.059144 2.7158186e-18)
(96.198323 14.394974 -1.5497573e-23)
(95.851225 14.457675 0)
(95.553313 14.689926 1.3747392e-18)
(94.685903 15.598548 0)
(94.567371 15.578235 2.2640265e-18)
(94.770406 15.041913 1.0109425e-21)
(93.773316 16.189987 -1.812267e-21)
(92.727237 17.392503 8.1686027e-22)
(93.671363 16.251083 0)
(95.125412 14.044832 0)
(96.199604 14.410012 1.6668835e-18)
(95.856366 14.468899 0)
(95.555605 14.708339 -2.7542115e-18)
(94.68143 15.612842 2.5018404e-18)
(94.579314 15.5796 -2.268858e-18)
(94.773068 15.052325 1.0145646e-21)
(93.759975 16.212462 0)
(92.728389 17.394255 0)
(93.692503 16.230127 -1.4706884e-21)
(95.143613 14.030674 1.1460004e-23)
(96.205522 14.43169 1.6707637e-18)
(95.864177 14.483332 0)
(95.558295 14.728267 5.5185741e-18)
(94.676863 15.627232 -4.8681215e-22)
(94.591347 15.580872 0)
(94.775416 15.062998 -2.0538834e-18)
(93.746522 16.234905 5.5946731e-24)
(92.729831 17.395706 -8.1928686e-22)
(93.713789 16.20906 -3.0344072e-18)
(96.206557 14.446633 -1.6730323e-18)
(95.869448 14.494272 -1.5209758e-18)
(95.560102 14.746858 -2.7644292e-18)
(94.672029 15.641168 -2.5102222e-18)
(94.603384 15.582052 -2.2749441e-18)
(94.777481 15.07398 2.0581599e-18)
(93.732927 16.257307 0)
(92.731519 17.396832 -3.3735399e-18)
(93.735225 16.187892 3.0396865e-18)
(96.792663 14.078748 1.8430521e-18)
(96.212337 14.468222 -1.6778214e-18)
(95.87684 14.508914 1.5237628e-18)
(95.562098 14.767111 -1.5888183e-24)
(94.667243 15.655175 -2.514066e-18)
(94.615397 15.583085 2.2788241e-18)
(94.779279 15.085251 1.9966697e-23)
(93.719229 16.279679 -1.8676067e-18)
(92.733482 17.397647 6.7562159e-18)
(93.756808 16.166627 0)
(96.796351 14.096967 -1.8457312e-18)
(96.213265 14.482951 1.6801791e-18)
(95.882228 14.519608 -7.4586836e-22)
(95.563461 14.785997 2.7736861e-18)
(94.662375 15.66881 2.5195719e-18)
(94.627306 15.584002 0)
(94.780843 15.096827 -2.0647862e-18)
(93.705451 16.302008 3.7391022e-18)
(92.735713 17.398128 -3.38357e-18)
(93.778542 16.145278 7.4657836e-22)
(96.801986 14.124588 0)
(96.218745 14.504562 8.2204006e-22)
(95.889234 14.534411 -7.4708294e-22)
(95.564835 14.806498 -2.7786679e-18)
(94.6577 15.68247 2.5247754e-18)
(94.639117 15.584757 -1.1170343e-21)
(94.782166 15.108676 2.0682023e-18)
(93.691641 16.324296 1.9452376e-22)
(92.73824 17.398285 0)
(93.800406 16.123843 -3.0496978e-18)
(96.804845 14.142969 0)
(96.219706 14.519021 8.23633e-22)
(95.894782 14.545001 1.5322723e-18)
(95.565695 14.825677 6.8116351e-22)
(94.653081 15.695838 -2.5285663e-18)
(94.650772 15.58542 0)
(94.783246 15.120805 -2.0716153e-18)
(93.677789 16.346515 -3.7511621e-18)
(92.741047 17.398098 -8.2521537e-22)
(93.822398 16.102336 6.1092345e-18)
(97.33694 13.908408 0)
(96.810941 14.170473 0)
(96.224855 14.54064 -8.2524637e-22)
(95.901494 14.559916 -1.5344711e-18)
(95.566472 14.846317 -6.8075166e-22)
(94.648761 15.709165 -1.2358553e-21)
(94.662305 15.58594 2.2398827e-21)
(94.784067 15.133194 -1.0145891e-21)
(93.663914 16.368662 -1.9510631e-22)
(92.744157 17.397574 0)
(93.844507 16.08076 -3.0588454e-18)
(97.34702 13.929025 -2.0433363e-18)
(96.813096 14.18909 0)
(96.225985 14.554873 1.6933999e-18)
(95.907208 14.570543 7.5160324e-22)
(95.566781 14.865781 2.7936182e-18)
(94.644615 15.72225 0)
(94.673702 15.5864 0)
(94.784624 15.145866 -2.0776482e-18)
(93.649974 16.39071 1.8807575e-18)
(92.747564 17.396702 3.40344e-18)
(97.352809 13.956918 2.0471768e-18)
(96.819464 14.216423 0)
(96.230806 14.576502 -3.3936234e-18)
(95.913746 14.585471 0)
(95.566997 14.886509 -2.7981901e-18)
(94.640855 15.735239 -2.4784407e-21)
(94.684992 15.58673 1.1250701e-21)
(94.784905 15.158805 -3.6089534e-23)
(93.635982 16.412671 -1.8859479e-18)
(92.751294 17.395497 -3.4080493e-18)
(97.907223 13.771274 -5.4662667e-22)
(97.36124 13.97692 1.0012587e-21)
(96.821047 14.235209 0)
(96.232211 14.590572 1.7002759e-18)
(95.919734 14.596244 1.5449748e-18)
(95.566857 14.906254 0)
(94.637303 15.74803 -1.2425728e-21)
(94.696151 15.587005 1.1271433e-21)
(94.784896 15.172025 2.0858426e-18)
(93.621921 16.434533 1.8871016e-18)
(92.755343 17.393957 1.6612575e-21)
(97.908664 13.798243 -5.469066e-22)
(97.367866 14.005171 0)
(96.827501 14.262474 0)
(96.236722 14.612123 1.7029686e-18)
(95.926312 14.611151 -1.5473381e-18)
(95.566663 14.927041 2.8119066e-18)
(94.634055 15.760695 -2.5516138e-18)
(94.707182 15.587161 -1.129243e-21)
(94.784596 15.185502 2.0895628e-18)
(93.607858 16.456318 0)
(92.759727 17.3921 0)
(97.919981 13.828244 1.1316411e-18)
(97.374675 14.024853 -2.0615421e-18)
(96.828731 14.281283 0)
(96.238386 14.625999 8.4311855e-22)
(95.932581 14.622176 -7.5743806e-22)
(95.566108 14.947035 -5.6321275e-18)
(94.630933 15.773183 2.556438e-18)
(94.71809 15.587285 1.1291512e-21)
(94.784013 15.199229 -9.7861988e-22)
(93.593815 16.478007 0)
(92.764445 17.389926 0)
(98.554839 13.60468 -1.2426743e-18)
(97.921278 13.856793 1.1320118e-18)
(97.382138 14.053239 1.0180712e-21)
(96.835158 14.308575 0)
(96.242578 14.647377 8.5777557e-24)
(95.939129 14.637003 0)
(95.565486 14.96786 2.8230895e-18)
(94.628027 15.785522 -1.2476357e-21)
(94.728878 15.587337 -1.1313078e-21)
(94.783166 15.213191 -2.0960421e-18)
(93.579856 16.499609 0)
(92.769508 17.387444 0)
(98.563381 13.64218 0)
(97.931576 13.885061 -1.1346306e-18)
(97.387503 14.072836 2.0688531e-18)
(96.836249 14.3272 1.883856e-18)
(96.244465 14.661113 -3.4285951e-18)
(95.945352 14.648267 0)
(95.564426 14.98809 2.827563e-18)