/*--------------------------------*- C++ -*----------------------------------*\
| =========                 |                                                 |
| \\      /  F ield         | OpenFOAM: The Open Source CFD Toolbox           |
|  \\    /   O peration     | Version:  2506                                  |
|   \\  /    A nd           | Website:  www.openfoam.com                      |
|    \\/     M anipulation  |                                                 |
\*---------------------------------------------------------------------------*/
FoamFile
{
    version     2.0;
    format      ascii;
    arch        "LSB;label=32;scalar=64";
    class       volScalarField;
    location    "1.55";
    object      alphat;
}
// * * * * * * * * * * * * * * * * * * * * * * * * * * * * * * * * * * * * * //

dimensions      [1 -1 -1 0 0 0 0];

internalField   nonuniform List<scalar> 
1376
(
0.13179312
0.13076999
0.13007473
0.12958101
0.12920287
0.12890426
0.12866151
0.12846062
0.1282913
0.12814827
0.12802463
0.12791689
0.12782716
0.12774506
0.12767517
0.12761057
0.12755374
0.12750307
0.12745741
0.1274165
0.12737877
0.12735056
0.1273249
0.12730417
0.12728313
0.12726202
0.12726072
0.12727718
0.12731081
0.12735151
0.12741381
0.12753995
0.1223367
0.099850232
0.08208702
0.0659092
0.050446644
0.042512055
0.036712474
0.027412674
0.020337822
0.018837399
0.0095831543
0.0098092208
0.010704079
0.0080539639
0.0086422185
0.0051362077
0.00047378532
0.13178082
0.1308031
0.13013472
0.12964573
0.12926986
0.12896988
0.12872482
0.12852035
0.12834935
0.12820258
0.12807897
0.12796855
0.12787301
0.12779156
0.12771864
0.12765101
0.12759239
0.12753958
0.12749393
0.12745199
0.12741221
0.12738363
0.12735681
0.12733514
0.12731431
0.12729365
0.12728891
0.12730463
0.12733684
0.12736612
0.1274404
0.12755829
0.12425806
0.099914771
0.081071786
0.066771341
0.053491836
0.045356503
0.033140472
0.02452536
0.02504912
0.017462001
0.017979029
0.011500713
0.008684037
0.0044354402
0.0050424048
0.0032896238
0.00047630013
0.13185097
0.13090108
0.13023252
0.12974052
0.12936076
0.12905699
0.1288065
0.12859637
0.12842097
0.12826915
0.12814073
0.12802515
0.12792677
0.12784223
0.12776618
0.12769708
0.12763606
0.12758174
0.12753473
0.12749029
0.12744779
0.12741763
0.12738924
0.12736646
0.1273461
0.12732802
0.12731779
0.12733324
0.12735902
0.12738313
0.12746363
0.1275683
0.12293562
0.10236804
0.079854993
0.069026681
0.053261278
0.039642406
0.040621608
0.029625291
0.019585141
0.017748123
0.010789623
0.0097826602
0.0059900456
0.0056374821
0.003606045
0.001171606
0.00051431142
0.13188637
0.13097661
0.13032042
0.12983282
0.12945186
0.12914354
0.12888784
0.12867461
0.12849383
0.12833765
0.12820315
0.12808503
0.12798278
0.12789363
0.12781619
0.12774366
0.12768209
0.12762465
0.12757548
0.12752971
0.12748487
0.12745177
0.12742421
0.12740106
0.12738074
0.12736253
0.12735149
0.12736142
0.1273812
0.1274084
0.12749012
0.1275813
0.12773642
0.10599231
0.08639712
0.064686144
0.059720037
0.044117485
0.0308146
0.029749042
0.022135566
0.017852018
0.015014863
0.0084356652
0.0088016222
0.0057144325
0.0015497313
0.00098178089
0.0004677082
0.13193
0.13105869
0.13041368
0.12992936
0.12954634
0.12923353
0.12897566
0.12875719
0.12857162
0.12841157
0.12827208
0.12815145
0.12804301
0.12795165
0.12786959
0.12779394
0.12772961
0.12766806
0.1276182
0.12757064
0.12752543
0.12748832
0.12746101
0.12743563
0.12741605
0.12739799
0.12738635
0.12738976
0.1274098
0.12743899
0.12750891
0.12760016
0.12774391
0.10379503
0.086262061
0.067878546
0.054215269
0.046641541
0.036918468
0.026630668
0.023832006
0.015511253
0.013890793
0.011847574
0.0064528485
0.0050324008
0.0018809513
0.0021291176
0.00048358596
0.13196943
0.13113719
0.13050783
0.13002731
0.129643
0.12932912
0.12906753
0.12884291
0.12865374
0.12849031
0.12834643
0.12822096
0.12810855
0.12801266
0.12792568
0.1278477
0.12777955
0.12771635
0.1276646
0.12761479
0.12756894
0.12752781
0.12750004
0.12747232
0.12745321
0.12743524
0.12742124
0.127422
0.12743891
0.12746941
0.12752519
0.12762766
0.12775247
0.10772108
0.087710953
0.071955665
0.054080134
0.045083518
0.036654343
0.027275819
0.022260899
0.018677913
0.012104167
0.0088269921
0.0081451584
0.0055066725
0.0017886959
0.0012047876
0.00052774075
0.13200848
0.13121363
0.13060163
0.13012699
0.12974301
0.129427
0.12916096
0.12893364
0.12873938
0.12857095
0.128423
0.12829204
0.1281762
0.12807413
0.12798522
0.1279051
0.12783403
0.12776898
0.12771089
0.12766104
0.12761556
0.12757142
0.12753875
0.12751115
0.1274923
0.12747402
0.12745845
0.12745778
0.12747268
0.12749812
0.12754558
0.12765394
0.12776066
0.10998993
0.086620685
0.07329791
0.057655492
0.04496537
0.036141591
0.03092469
0.021315109
0.01757262
0.013738646
0.010759592
0.0065794508
0.0053225636
0.0040615019
0.0019258256
0.00056677744
0.13204293
0.13128739
0.13069435
0.13022593
0.12984463
0.12952569
0.12925655
0.12902629
0.1288273
0.12865318
0.12850104
0.12836557
0.12824523
0.12813964
0.12804682
0.12796395
0.12788922
0.1278213
0.12775873
0.12770798
0.12766135
0.1276159
0.12758005
0.12755073
0.12753075
0.12751487
0.12749881
0.1274944
0.12750509
0.12752864
0.12757581
0.12767266
0.12777515
0.11510387
0.089465626
0.072371263
0.059906336
0.047069359
0.03595794
0.028916558
0.023751379
0.017406401
0.013325523
0.0093621847
0.0079369814
0.0054100005
0.0022182493
0.0021355693
0.00059253967
0.13207548
0.13135683
0.13078254
0.13032082
0.12994386
0.12962482
0.12935175
0.12911878
0.12891649
0.12873836
0.12858143
0.12844111
0.12831621
0.12820746
0.12810956
0.12802356
0.12794459
0.12787438
0.12780905
0.12775518
0.12770803
0.1276616
0.12762371
0.12759306
0.12757063
0.12755517
0.12753912
0.12753347
0.12754197
0.12756183
0.12761154
0.1276786
0.12780351
0.11452579
0.094265515
0.072062577
0.059542978
0.047441395
0.038727297
0.028440473
0.023155241
0.017604149
0.013370713
0.0099574128
0.0066415371
0.0048089529
0.0042307642
0.0017678791
0.00059649118
0.1321063
0.1314215
0.13086614
0.13041525
0.13004252
0.12972396
0.12944837
0.12921196
0.12900621
0.1288246
0.12866165
0.12851734
0.12838839
0.12827584
0.12817402
0.12808484
0.12800349
0.12793011
0.12786223
0.12780519
0.12775626
0.12770892
0.12766827
0.12763546
0.12761084
0.12759511
0.12757814
0.12757166
0.12757904
0.12759828
0.12764389
0.12769128
0.12784044
0.11719688
0.094493323
0.076656084
0.060472708
0.047509641
0.038729564
0.030002178
0.023192364
0.01784894
0.013443322
0.0097613076
0.0076286863
0.0051449952
0.002678631
0.0018885608
0.00063747856
0.13213783
0.13148376
0.13094605
0.13050471
0.13013755
0.12982059
0.12954422
0.12930355
0.1290941
0.12890909
0.12874162
0.12859325
0.12846065
0.12834468
0.1282397
0.12814665
0.12806294
0.12798662
0.12791586
0.12785492
0.12780364
0.12775508
0.1277127
0.1276779
0.12765084
0.12763623
0.12761949
0.12760967
0.12761488
0.12763368
0.12767473
0.12771312
0.12787434
0.12130982
0.095138803
0.077202075
0.061405904
0.04973517
0.037951225
0.031236825
0.023518697
0.018093942
0.013249246
0.010087217
0.0066716906
0.0048527075
0.0037516274
0.0016184909
0.00058561426
0.13216813
0.13154052
0.13101972
0.13058893
0.13022709
0.12991185
0.12963539
0.12939109
0.12917767
0.12898985
0.12882041
0.12866696
0.12853089
0.12841148
0.1283037
0.12820598
0.12811953
0.12804051
0.12796792
0.12790413
0.12785027
0.12779982
0.12775558
0.12771971
0.12769101
0.12767526
0.12766
0.12764814
0.12765138
0.12766958
0.12770434
0.12774549
0.1278967
0.12314454
0.099113452
0.077740536
0.063089773
0.049913641
0.039122837
0.030545057
0.023764238
0.018414787
0.013731252
0.0098527571
0.0072431619
0.0051328262
0.0027597801
0.0019599147
0.00065696657
0.13219948
0.13159546
0.13108954
0.13066675
0.13030903
0.12999672
0.1297208
0.12947444
0.12925783
0.1290672
0.12889604
0.12873888
0.12859914
0.12847598
0.12836582
0.12826376
0.12817425
0.12809329
0.1280184
0.12795147
0.1278949
0.12784257
0.12779639
0.12775961
0.12772983
0.1277124
0.12769847
0.12768439
0.12768475
0.12770289
0.12773288
0.12779116
0.12789184
0.12513832
0.10119351
0.079988492
0.062966549
0.051148031
0.040187309
0.031325157
0.023856707
0.018123952
0.013774086
0.0097596629
0.0074029159
0.0045871704
0.0035081995
0.0015790291
0.00061031352
0.13222781
0.13164505
0.13115124
0.13073878
0.13038638
0.13007618
0.12980042
0.12955307
0.129334
0.12913952
0.12896576
0.12880625
0.1286634
0.12853694
0.12842447
0.12831878
0.12822529
0.12814244
0.1280658
0.12799604
0.12793691
0.12788313
0.12783463
0.12779645
0.12776639
0.12774736
0.12773451
0.12771994
0.12771649
0.12773263
0.12776122
0.12782277
0.12789233
0.12806479
0.10200975
0.08193092
0.064724345
0.050456553
0.040855787
0.031362099
0.024777386
0.018303838
0.013561248
0.010147116
0.0067511486
0.0049863218
0.0028397512
0.0018770404
0.00065405522
0.13225498
0.13168913
0.13120418
0.13080175
0.13045575
0.13014669
0.1298707
0.12962304
0.12940241
0.12920399
0.12902717
0.1288663
0.12872118
0.12859184
0.12847672
0.12836838
0.12827113
0.12818637
0.12810853
0.12803634
0.12797474
0.12791991
0.12786952
0.1278293
0.12779886
0.12777864
0.12776583
0.12775224
0.12774628
0.12775997
0.1277872
0.12785036
0.12789782
0.12808789
0.10425919
0.081906987
0.065580392
0.051761648
0.040323925
0.031935227
0.024323892
0.018692328
0.013775015
0.0099250957
0.0070998672
0.0047428934
0.002963585
0.0017549268
0.00061932201
0.13228204
0.13172807
0.13125002
0.13085243
0.13051073
0.13020389
0.12992888
0.12968317
0.12946085
0.12925932
0.12907989
0.12891749
0.12877019
0.12863836
0.12852116
0.12841122
0.12831053
0.12822353
0.12814498
0.12807149
0.12800774
0.12795178
0.12789985
0.12785716
0.12782598
0.12780517
0.12779147
0.12777861
0.12777136
0.12778262
0.1278084
0.12787246
0.12790135
0.12810605
0.10587518
0.083651253
0.065609916
0.052571944
0.04111534
0.031943889
0.024659006
0.018572759
0.013927624
0.010017288
0.0070566918
0.0046716353
0.0029022644
0.0017358705
0.00062862814
0.13230603
0.13175992
0.13128787
0.13089387
0.13055388
0.13024972
0.12997606
0.12973049
0.12950547
0.12930332
0.12912363
0.12895909
0.12880909
0.12867514
0.12855647
0.12844569
0.12834215
0.12825278
0.12817342
0.12809944
0.12803429
0.12797768
0.12792516
0.12788038
0.12784805
0.127827
0.12781229
0.12779962
0.1277919
0.12780104
0.12782492
0.12788867
0.12790322
0.12811907
0.10808294
0.08582669
0.067687639
0.053218232
0.042262874
0.032912295
0.025215115
0.019073729
0.014100927
0.010228385
0.0071108577
0.0047937482
0.0029857883
0.0017304127
0.00062951885
0.13232464
0.13178417
0.13131538
0.13092404
0.13058659
0.13028351
0.13001162
0.12976495
0.12953847
0.12933544
0.12915504
0.1289893
0.12883704
0.12870127
0.12858159
0.12847072
0.12836535
0.12827378
0.12819335
0.12811913
0.12805294
0.12799573
0.12794319
0.12789719
0.12786397
0.12784285
0.12782704
0.12781418
0.12780701
0.12781561
0.1278387
0.12790188
0.1279084
0.1281308
0.11107502
0.088000776
0.069323767
0.054732878
0.04295685
0.033494359
0.025742318
0.01944492
0.014387555
0.010407498
0.0072818668
0.0048507249
0.0029859079
0.0018461755
0.00065007514
0.13233598
0.13179799
0.13133188
0.13094172
0.13060541
0.13030272
0.13003225
0.12978611
0.12955843
0.12935412
0.1291727
0.12900667
0.12885351
0.12871636
0.12859559
0.12848474
0.12837889
0.12828607
0.12820477
0.12813028
0.12806345
0.12800578
0.12795344
0.12790714
0.12787395
0.12785345
0.12783718
0.12782457
0.12781934
0.12782974
0.12785438
0.12791859
0.12792688
0.12815108
0.10909367
0.086532455
0.068091007
0.053572475
0.04204936
0.032669554
0.02504843
0.018908662
0.014033422
0.010135233
0.0070521469
0.0046971097
0.0029021225
0.0017229621
0.00062486666
0.13233961
0.13180262
0.13133674
0.13094642
0.13061065
0.13030861
0.13003666
0.12979128
0.12956618
0.12936159
0.12917853
0.12901176
0.12885838
0.12872057
0.12859876
0.12848772
0.12838201
0.12828886
0.12820713
0.12813258
0.12806569
0.128008
0.12795606
0.1272365
0.12728234
0.12732892
0.12738238
0.12744652
0.12752006
0.12761067
0.12772237
0.12785551
0.12802208
0.12823019
0.12849965
0.12885799
0.12937615
0.13015474
0.1271126
0.12709662
0.12708245
0.12704522
0.12705717
0.12706526
0.12709337
0.12710283
0.12712796
0.12714323
0.12716959
0.12719868
0.12723257
0.12727452
0.12732066
0.12737021
0.12742815
0.12749339
0.12757124
0.12766755
0.12778357
0.12792212
0.12809416
0.12830899
0.12858674
0.12895433
0.12948808
0.13028524
0.035769326
0.041205789
0.053910773
0.057771964
0.079142623
0.10512812
0.12612376
0.12741424
0.12726403
0.12716531
0.12712874
0.12710925
0.12709471
0.12706919
0.12706218
0.12708497
0.12711385
0.12712577
0.12715274
0.12717115
0.12719934
0.12723133
0.12726869
0.12731352
0.12736168
0.12741387
0.12747474
0.12754218
0.12762537
0.12772677
0.12784665
0.1279914
0.12816946
0.12839094
0.12867774
0.12905531
0.12960541
0.13042295
0.010696087
0.0076659297
0.018574126
0.0052816227
0.0142805
0.018368994
0.021161962
0.025908116
0.025629719
0.045962247
0.046593161
0.050508059
0.071537147
0.073880695
0.093836486
0.11778601
0.12743207
0.12729059
0.12718148
0.12714112
0.12713117
0.12709637
0.12707999
0.12708575
0.12711117
0.12713642
0.12715408
0.12717454
0.12719933
0.12723184
0.1272687
0.1273069
0.12735323
0.12740549
0.12746014
0.1275223
0.12759518
0.12768279
0.12778758
0.1279122
0.12806338
0.12824864
0.12847717
0.12877264
0.1291622
0.12972774
0.13056782
0.00051323291
0.011705909
0.0089599514
0.010557196
0.013429493
0.013848477
0.0085379282
0.021264348
0.023272656
0.030961087
0.039814048
0.033759692
0.051536347
0.068247266
0.080319601
0.10797288
0.11267036
0.12634698
0.12740082
0.12726912
0.12719624
0.12716894
0.12714635
0.12712415
0.12711174
0.12712008
0.12714518
0.12716863
0.1271849
0.12721043
0.12723539
0.12726861
0.12730616
0.12734916
0.12739617
0.12744894
0.12750741
0.12757367
0.1276502
0.12774223
0.12785258
0.12798149
0.12813782
0.12833101
0.12856754
0.12887256
0.12927471
0.12985528
0.13071902
0.00048908956
0.010079667
0.0082529502
0.010497423
0.010527172
0.012794199
0.012660139
0.018600337
0.025181164
0.02211026
0.027986
0.041029556
0.041620448
0.05543967
0.064313833
0.075451757
0.10586857
0.12759233
0.12740007
0.12727853
0.12720674
0.12717897
0.12716042
0.12714104
0.12713494
0.12714801
0.12717259
0.12719836
0.12721376
0.12724272
0.12727329
0.1273052
0.12734384
0.12739047
0.12743984
0.12749385
0.1275554
0.12762711
0.12770695
0.12780341
0.12791956
0.12805382
0.12821692
0.1284165
0.12866191
0.12897817
0.12939329
0.12999012
0.1308754
0.00047755209
0.0093360825
0.0091949422
0.0086871391
0.010462746
0.0077187461
0.012395402
0.022630834
0.021701691
0.029531501
0.035292057
0.044112396
0.05163083
0.059868639
0.076913041
0.095533839
0.10476974
0.12485331
0.12740663
0.12729217
0.12723127
0.12720484
0.12717855
0.12716134
0.12715333
0.12717327
0.12719949
0.12722176
0.12724276
0.12726877
0.12730571
0.12734107
0.12738252
0.12742999
0.12748435
0.12754171
0.1276063
0.12767931
0.12776463
0.1278675
0.12798846
0.12812878
0.12829909
0.12850664
0.1287616
0.12908905
0.1295179
0.13013475
0.13103937
0.00047914999
0.0061039079
0.0097174526
0.0050355638
0.0083293341
0.011128294
0.018998077
0.018415042
0.023785755
0.02715386
0.03534578
0.035572272
0.049852747
0.067701423
0.074182186
0.094152887
0.12224369
0.12756768
0.12739944
0.12730182
0.12724558
0.12722778
0.12719669
0.12718462
0.12718628
0.12720916
0.12723103
0.12725315
0.12727415
0.12730792
0.12734288
0.12737964
0.12742324
0.12747205
0.12753019
0.12759078
0.12765858
0.12773527
0.12782663
0.12793479
0.12805953
0.12820667
0.12838551
0.12860174
0.12886638
0.1292053
0.12964947
0.1302881
0.13121824
0.00048328389
0.0051009169
0.00755083
0.0061293648
0.009301368
0.011465789
0.012948859
0.015153877
0.022334808
0.025830996
0.030875035
0.044684245
0.051733165
0.059945093
0.074901134
0.093353789
0.11175727
0.12755955
0.12740537
0.12732021
0.12726645
0.12724396
0.12721599
0.12720849
0.12721575
0.12724231
0.12726186
0.12728611
0.12730951
0.12734547
0.12738165
0.12742133
0.12746652
0.12751795
0.12757414
0.12763993
0.12771198
0.12779501
0.1278926
0.12800525
0.12813461
0.12828842
0.12847498
0.12870044
0.12897618
0.12932816
0.12978821
0.13044836
0.13141282
0.00048288505
0.0045930367
0.0055941285
0.0057811649
0.010473949
0.0094578232
0.014800378
0.016508576
0.023617805
0.02744373
0.03364365
0.043369077
0.05122309
0.067045382
0.078611661
0.097007934
0.12343442
0.1275492
0.12741068
0.12733768
0.12728579
0.12726156
0.127238
0.12723281
0.12724847
0.12727204
0.12729261
0.12731709
0.12734424
0.12737939
0.12741901
0.12746265
0.12750989
0.12756434
0.12762202
0.12769119
0.12776916
0.12785496
0.12795938
0.12807787
0.12821367
0.12837482
0.12856843
0.12880258
0.12909
0.12945606
0.12993311
0.13061056
0.13161094
)
;

boundaryField
{
    Side
    {
        type            empty;
    }
    Inlet
    {
        type            calculated;
        value           nonuniform List<scalar> 
30
(
0.1324695
0.1324602
0.13245355
0.13245297
0.13245292
0.13245212
0.1324502
0.13244708
0.13244456
0.13244304
0.1324409
0.13244251
0.13244745
0.13245522
0.13246508
0.13247572
0.13248611
0.13249507
0.13250122
0.13250338
0.1326194
0.13261593
0.13261352
0.13261405
0.13261972
0.13262272
0.13262064
0.13259015
0.13254251
0.13248599
)
;
    }
    Airfoil
    {
        type            compressible::alphatWallFunction;
        value           nonuniform List<scalar> 
25
(
0.00066117355
0.00065566944
0.00064897936
0.0006483135
0.00065220015
0.0006528097
0.00065606884
0.00066041775
0.00066609564
0.00067219339
0.00067885402
0.00068571633
0.0006926528
0.00069934335
0.00070554926
0.00071117106
0.00071596996
0.0007196869
0.00072206933
0.00068986154
0.00068183598
0.00067621333
0.0006719078
0.00066874892
0.00066646894
)
;
    }
    Outlet
    {
        type            calculated;
        value           nonuniform List<scalar> 0();
    }
    procBoundary7to0
    {
        type            processor;
        value           nonuniform List<scalar> 
50
(
0.12791014
0.12787766
0.12785801
0.12784134
0.12782886
0.12782547
0.12783779
0.12786351
0.1279287
0.12794212
0.1281663
0.10616256
0.08430792
0.066418616
0.052230585
0.04093794
0.03178732
0.0243402
0.018393078
0.013613183
0.0098353803
0.0068112266
0.0045090964
0.0027390077
0.0016025863
0.00061576001
0.13233567
0.13179771
0.13133176
0.13094099
0.13060472
0.13030318
0.13003141
0.12978506
0.12955957
0.12935523
0.1291723
0.12900506
0.12885223
0.12871518
0.12859361
0.12848279
0.12837761
0.12828485
0.12820338
0.12812932
0.12806249
0.12800448
0.12791014
0.12795254
)
;
    }
    procBoundary7to8
    {
        type            processor;
        value           nonuniform List<scalar> 
53
(
0.12720068
0.1272441
0.12728961
0.12733869
0.12739912
0.12747076
0.127556
0.12766328
0.12779276
0.12795309
0.12815469
0.12841706
0.12876582
0.1292703
0.13003095
0.1271063
0.12708497
0.12704988
0.12703598
0.12703291
0.12703358
0.12706424
0.12707412
0.12709977
0.12711461
0.12713738
0.12716583
0.12719441
0.12719441
0.047935662
0.065573568
0.06116691
0.09348697
0.093486963
0.084791732
0.12547587
0.1274401
0.12726996
0.12715719
0.12715719
0.010609587
0.01362571
0.018261446
0.01371984
0.021590697
0.012534529
0.025038885
0.021099119
0.037643352
0.037643352
0.00051485523
0.012252583
0.012252583
)
;
    }
}


// ************************************************************************* //
