/*--------------------------------*- C++ -*----------------------------------*\
| =========                 |                                                 |
| \\      /  F ield         | OpenFOAM: The Open Source CFD Toolbox           |
|  \\    /   O peration     | Version:  2506                                  |
|   \\  /    A nd           | Website:  www.openfoam.com                      |
|    \\/     M anipulation  |                                                 |
\*---------------------------------------------------------------------------*/
FoamFile
{
    version     2.0;
    format      ascii;
    arch        "LSB;label=32;scalar=64";
    class       volScalarField;
    location    "1.55";
    object      omega;
}
// * * * * * * * * * * * * * * * * * * * * * * * * * * * * * * * * * * * * * //

dimensions      [0 0 -1 0 0 0 0];

internalField   nonuniform List<scalar> 
1376
(
56.81
52.021109
49.002683
46.924591
45.382288
44.184804
43.227485
42.44561
41.796932
41.25298
40.792203
40.3984
40.060254
39.76801
39.514053
39.291554
39.09685
38.926239
38.775669
38.64231
38.524541
38.420125
38.327916
38.247662
38.175924
38.114541
38.064297
38.024426
37.999327
37.985782
37.990014
38.020679
38.08329
38.181637
38.334998
38.578103
38.931403
39.439948
40.269779
41.540731
43.50649
46.811157
51.370105
62.243499
78.671737
123.05253
167.34844
485.64987
1349.6207
56.725003
52.170236
49.255825
47.194624
45.647316
44.437989
43.466457
42.669806
42.00668
41.448605
40.974494
40.568391
40.218553
39.915333
39.651424
39.419894
39.21659
39.037757
38.879869
38.739474
38.615222
38.504519
38.406792
38.321159
38.244693
38.178643
38.123608
38.079576
38.049028
38.030452
38.029155
38.055121
38.110765
38.201465
38.336324
38.556186
38.895212
39.379795
40.125047
41.274665
43.255031
46.457895
51.424358
62.04963
79.489722
100.04411
146.06267
456.97109
1327.4762
57.084747
52.648475
49.695348
47.597962
46.017672
44.777415
43.777522
42.955263
42.26888
41.689708
41.19655
40.773091
40.407133
40.089309
39.812134
39.568652
39.354505
39.165024
38.997728
38.848654
38.716393
38.598225
38.493748
38.401434
38.319581
38.247744
38.186566
38.137638
38.100576
38.076522
38.069433
38.088532
38.133644
38.214275
38.341304
38.531978
38.841563
39.29428
39.976874
41.058201
42.676577
45.661379
49.61182
58.615702
70.696361
95.20326
148.66808
442.74631
1308.3104
57.274837
53.000249
50.088595
47.984734
46.382918
45.117774
44.092971
43.247155
42.538649
41.938837
41.426621
40.985768
40.60374
40.270974
39.9798
39.723784
39.498084
39.297677
39.120284
38.962285
38.821747
38.695775
38.583743
38.484587
38.396642
38.318653
38.251538
38.196618
38.153222
38.123802
38.111629
38.123853
38.15806
38.228251
38.34655
38.523123
38.80868
39.237857
39.860974
40.93044
42.44261
45.205165
49.464347
56.79154
71.510528
92.934367
140.26219
397.57058
1291.8478
57.489062
53.382427
50.506169
48.394346
46.771082
45.480559
44.429885
43.559177
42.82726
42.205494
41.672879
41.21323
40.813996
40.465078
40.15935
39.88973
39.651182
39.439344
39.251311
39.083395
38.933348
38.798858
38.678716
38.5723
38.477364
38.39275
38.319579
38.257912
38.209069
38.174095
38.153929
38.159302
38.186988
38.246431
38.352185
38.515778
38.763455
39.164779
39.772196
40.674422
42.251115
44.568309
49.611192
55.925899
66.506063
84.118151
131.22515
377.97799
1277.3082
57.681991
53.748456
50.922202
48.811338
47.171066
45.857242
44.781501
43.886011
43.130471
42.486266
41.93249
41.45317
41.035872
40.670191
40.348735
40.064549
39.812871
39.588653
39.388895
39.210486
39.050626
38.907216
38.77852
38.663937
38.561706
38.470362
38.390541
38.322414
38.266529
38.22557
38.200573
38.196361
38.217239
38.266029
38.357423
38.514236
38.751637
39.106431
39.670943
40.566222
41.953007
44.136108
48.27273
54.538904
65.408139
82.908187
121.43639
350.55253
1263.9106
57.8639
54.105856
51.337353
49.233746
47.580514
46.245633
45.146034
44.226197
43.44687
42.779888
42.20447
41.70491
41.268607
40.88555
40.547757
40.248522
39.982613
39.745357
39.533397
39.343786
39.173689
39.020679
38.882967
38.759676
38.64947
38.551016
38.464231
38.38973
38.327781
38.279299
38.247217
38.234213
38.249977
38.289262
38.36673
38.505856
38.719784
39.073942
39.589968
40.399251
41.808687
43.88415
47.85063
54.222682
63.123259
79.866372
117.54623
341.04649
1251.2501
58.030486
54.446292
51.743397
49.654629
47.993388
46.640528
45.518781
44.575568
43.772925
43.083288
42.486221
41.966101
41.510412
41.109426
40.754726
40.440007
40.159456
39.908703
39.683879
39.482465
39.301593
39.13864
38.991564
38.859286
38.740705
38.634842
38.540856
38.458872
38.389687
38.334933
38.296352
38.275394
38.282938
38.31279
38.379617
38.506068
38.705933
39.006649
39.536781
40.283636
41.511876
43.623588
46.925436
53.307362
61.934819
77.701951
116.65152
310.47244
1238.7148
58.182022
54.76689
52.135156
50.067839
48.403703
47.036544
45.894973
44.929787
44.104662
43.392914
42.774487
42.233956
41.758787
41.339477
40.967738
40.637073
40.341572
40.07702
39.839295
39.62557
39.433344
39.260027
39.103353
38.961975
38.834804
38.720924
38.619516
38.530475
38.45432
38.392149
38.345959
38.31923
38.315851
38.338448
38.397185
38.504453
38.69415
38.976142
39.419332
40.229525
41.323461
43.364046
46.493753
52.074521
60.841773
74.592527
111.97991
297.20704
1226.0377
58.319269
55.066187
52.508235
50.467329
48.805336
47.427452
46.268805
45.28346
44.437197
43.704287
43.065108
42.504592
42.010295
41.572701
41.183878
40.837097
40.526714
40.248068
39.997341
39.771285
39.567449
39.383512
39.217046
39.066435
38.930598
38.808578
38.699573
38.603169
38.519938
38.450814
38.397397
38.364783
38.348228
38.365675
38.415266
38.510057
38.67344
38.952604
39.363516
40.039901
41.210784
43.009608
46.291283
51.405894
60.020899
73.25088
106.69845
287.22629
1213.2471
58.441087
55.339323
52.85642
50.846593
49.191264
47.806738
46.634277
45.631055
44.765274
44.012421
43.353469
42.773582
42.260777
41.805534
41.399905
41.037138
40.711896
40.419334
40.155598
39.917261
39.702041
39.507521
39.331112
39.171154
39.026643
38.896491
38.779884
38.676117
38.585798
38.509665
38.449333
38.409119
38.383851
38.395818
38.435057
38.516634
38.665159
38.916542
39.319393
39.956534
40.989564
42.748688
45.99364
50.660889
58.347586
72.179852
102.91963
269.5554
1200.4248
58.548372
55.586291
53.176726
51.200132
49.55499
48.167678
46.98468
45.966351
45.083179
44.311949
43.634501
43.036381
42.505944
42.033727
41.611925
41.233797
40.894011
40.587833
40.311382
40.061136
39.834549
39.629454
39.443344
39.274254
39.121102
38.982806
38.858697
38.747893
38.650567
38.567496
38.500477
38.452826
38.420485
38.425671
38.454159
38.525482
38.658846
38.890096
39.275025
39.865884
40.909453
42.447992
45.631809
50.447514
57.10139
69.747603
103.7094
257.03604
1187.814
58.641088
55.803985
53.464409
51.52237
49.890285
48.503319
47.31291
46.282317
45.38408
44.596472
43.902205
43.287333
42.740437
42.252283
41.81527
41.422651
41.069074
40.749995
40.461321
40.199667
39.962282
39.74708
39.551583
39.373717
39.212343
39.066323
38.934849
38.817135
38.713159
38.623574
38.550146
38.495047
38.459104
38.452906
38.473778
38.535343
38.659435
38.872026
39.228633
39.811307
40.730577
42.44978
44.990351
49.737749
56.857153
68.266244
100.69335
258.96886
1175.6671
58.720175
55.993203
53.718194
51.809847
50.192148
48.807789
47.612084
46.571706
45.660986
44.85935
44.150227
43.520271
42.95841
42.455691
42.004705
41.598784
41.232607
40.901682
40.601774
40.329518
40.082095
39.857445
39.653156
39.467037
39.297894
39.144637
39.00639
38.882397
38.772265
38.676504
38.597008
38.535265
38.49588
38.47687
38.4936
38.547065
38.658715
38.859832
39.192387
39.741605
40.654217
42.112289
44.850241
49.157461
55.945577
68.07382
95.658693
258.7159
1164.3163
58.786047
56.152914
53.934588
52.057378
50.454674
49.074237
47.87595
46.828242
45.907391
45.094083
44.372359
43.729358
43.154461
42.638941
42.175543
41.757733
41.38023
41.038617
40.728641
40.446894
40.190501
39.957358
39.745164
39.551628
39.375533
39.215778
39.071364
38.941602
38.825958
38.724698
38.63968
38.572288
38.528267
38.49972
38.5124
38.558693
38.65916
38.845859
39.162729
39.682591
40.534088
42.06241
44.492154
48.651885
55.337951
67.224717
97.041696
232.86426
1154.2386
58.83916
56.283199
54.112864
52.263429
50.674582
49.298584
48.098744
47.045904
46.117526
45.294985
44.56299
43.90918
43.323317
42.796917
42.32289
41.894864
41.507611
41.156805
40.838158
40.548179
40.284041
40.043595
39.824623
39.624728
39.442622
39.277189
39.127359
38.992496
38.872014
38.765952
38.67606
38.603664
38.555574
38.518786
38.527847
38.566884
38.659061
38.83052
39.125066
39.62089
40.4309
41.802844
44.358892
48.277655
54.894176
65.775888
95.889772
237.8194
1145.5581
58.879963
56.383951
54.251823
52.425012
50.847976
49.476647
48.276244
47.220058
46.286101
45.456542
44.716659
44.054503
43.460057
42.925037
42.442502
42.006207
41.610977
41.25258
40.926805
40.630097
40.359677
40.113318
39.88884
39.683809
39.49685
39.326828
39.172612
39.033623
38.909253
38.799267
38.705327
38.628671
38.576849
38.533449
38.539179
38.572524
38.654871
38.81324
39.093151
39.558277
40.349791
41.655253
44.044342
48.039812
54.215715
65.923946
92.83739
241.61533
1138.3963
58.908791
56.455361
54.350751
52.540611
50.972782
49.605202
48.405182
47.346664
46.408695
45.574187
44.828782
44.160742
43.560238
43.019092
42.530431
42.088138
41.6871
41.323121
40.992063
40.690332
40.41518
40.164343
39.935657
39.726733
39.536139
39.362727
39.205307
39.063333
38.936188
38.823388
38.726506
38.646873
38.592359
38.545217
38.549258
38.579653
38.657265
38.809869
39.08144
39.545045
40.315423
41.641377
43.947427
47.9301
54.321288
65.299333
93.831892
230.47402
1133.2721
58.92586
56.497508
54.409092
52.608842
51.046638
49.681534
48.481802
47.421875
46.481494
45.64396
44.89528
44.223739
43.619663
43.074957
42.582723
42.136916
41.732492
41.36527
41.031146
40.726507
40.448605
40.195118
39.963893
39.752622
39.55987
39.384468
39.225207
39.081603
38.953115
38.839092
38.741104
38.660626
38.605729
38.559121
38.564243
38.596628
38.67777
38.835837
39.117195
39.594907
40.397742
41.757905
44.205181
48.236501
54.713806
66.136423
94.984979
241.6104
1130.4958
58.9314
56.510771
54.42697
52.629278
51.06827
49.703676
48.503916
47.443541
46.502264
45.663577
44.913658
44.240903
43.635717
43.090088
42.597012
42.150374
41.745154
41.377177
41.042315
40.736955
40.458386
40.204277
39.972454
38.059873
38.190966
38.34725
38.533351
38.755722
39.023119
39.346879
39.741771
40.228319
40.835896
41.60967
42.62326
44.012938
46.067432
49.455455
37.561521
37.549728
37.54883
37.558103
37.576813
37.605417
37.641522
37.686643
37.738829
37.800853
37.8766
37.961924
38.063394
38.182867
38.323722
38.490304
38.687942
38.923142
39.204929
39.544946
39.95849
40.466609
41.09957
41.903705
42.954866
44.392942
46.515473
49.994289
40.719343
39.698734
38.992522
38.553294
38.226754
38.021047
37.86581
37.748057
37.668898
37.62423
37.606798
37.600798
37.607743
37.622274
37.646238
37.680424
37.720924
37.770763
37.828881
37.897195
37.97943
38.072051
38.181582
38.310099
38.461247
38.638752
38.848586
39.097501
39.394665
39.752063
40.185496
40.716705
41.376826
42.213533
43.305043
44.79523
46.991089
50.570763
216.98976
165.73428
99.309605
85.607868
60.753817
53.639528
46.5734
43.926176
41.943234
40.561056
39.574233
38.965672
38.529188
38.214364
38.012281
37.881694
37.774344
37.696783
37.663756
37.65244
37.651262
37.662225
37.682444
37.713847
37.754143
37.801357
37.85721
37.921159
37.996306
38.085476
38.186012
38.303819
38.441967
38.603776
38.793052
39.01578
39.279234
39.592833
39.968843
40.423558
40.979523
41.668705
42.540336
43.675166
45.221433
47.496403
51.187355
1526.2919
649.25996
219.83749
168.06588
100.5987
84.396611
60.927303
53.581698
46.593318
43.72996
41.705378
40.467246
39.50356
38.906535
38.497443
38.221067
38.031493
37.897249
37.799428
37.742403
37.713791
37.707069
37.708554
37.723889
37.748536
37.784918
37.829828
37.88243
37.944635
38.015641
38.098083
38.194524
38.30363
38.43047
38.578917
38.751558
38.953456
39.190054
39.468943
39.800153
40.195883
40.673346
41.255785
41.976109
42.885293
44.066768
45.673461
48.03385
51.847193
1494.6048
580.46322
208.07559
151.92228
101.37565
73.702611
59.888563
51.612857
46.142521
43.274012
41.417404
40.158856
39.37602
38.81833
38.462277
38.196216
38.025351
37.918014
37.827131
37.777
37.757912
37.757325
37.764947
37.786442
37.817418
37.858039
37.908437
37.966559
38.034258
38.112588
38.202894
38.306959
38.425301
38.561984
38.721198
38.905654
39.120687
39.371786
39.667126
40.016996
40.433901
40.935648
41.546391
42.300129
43.249739
44.481554
46.15358
48.606328
52.553816
1463.3784
544.87261
180.82067
141.03054
90.695485
71.454473
59.087618
50.621214
45.909135
42.944707
41.077813
40.024145
39.257179
38.749768
38.418892
38.190515
38.036554
37.932277
37.857261
37.814747
37.802647
37.80645
37.821151
37.847748
37.885844
37.93232
37.988502
38.05304
38.127562
38.212672
38.310986
38.423246
38.551342
38.698408
38.869157
39.065924
39.294897
39.561386
39.874321
40.244024
40.683585
41.211387
41.852454
42.64201
43.635198
44.921298
46.663967
49.216858
53.312013
1432.3417
521.82455
171.19817
131.27308
83.598299
67.200998
58.008283
49.148421
45.042124
42.60803
40.90973
39.971873
39.207035
38.707364
38.404333
38.186571
38.046657
37.952764
37.887745
37.85736
37.85214
37.859972
37.880376
37.911808
37.955819
38.007787
38.069918
38.141069
38.222791
38.315803
38.42225
38.543365
38.681543
38.839738
39.022833
39.232686
39.476431
39.759465
40.091179
40.481963
40.945622
41.501349
42.174862
43.002994
44.043109
45.387756
47.206902
49.868669
54.127076
1401.3863
496.5242
169.41301
123.55288
79.68795
64.889982
54.164944
47.636947
44.468123
42.099709
40.635045
39.707272
39.056534
38.654475
38.37842
38.18062
38.052725
37.970673
37.920806
37.898841
37.899842
37.913676
37.941018
37.977973
38.028022
38.086032
38.153711
38.231691
38.320467
38.42177
38.53701
38.667725
38.816071
38.986205
39.182303
39.406275
39.665604
39.966369
40.31814
40.731329
41.22065
41.806289
42.514525
43.384039
44.474542
45.882365
47.784462
50.564014
55.002402
1371.2826
499.32764
173.18932
122.18828
78.110741
63.87042
53.666274
47.092994
43.876399
41.835426
40.445329
39.595164
38.996437
38.619964
38.351739
38.179416
38.069092
37.993582
37.953305
37.941469
37.948256
37.967255
38.00163
38.04537
38.101151
38.166309
38.240112
38.325171
38.421695
38.531211
38.655523
38.796343
38.955673
39.138208
39.347717
39.586786
39.862469
40.181991
40.554974
40.991968
41.50866
42.126034
42.871204
43.784808
44.92909
46.404529
48.395469
51.299528
55.928633
)
;

boundaryField
{
    Side
    {
        type            empty;
    }
    Inlet
    {
        type            fixedValue;
        value           uniform 60.24606;
    }
    Airfoil
    {
        type            omegaWallFunction;
        blending        binomial;
        n               2;
        value           nonuniform List<scalar> 
25
(
1349.6207
1327.4762
1308.3104
1291.8478
1277.3082
1263.9106
1251.2501
1238.7148
1226.0377
1213.2471
1200.4248
1187.814
1175.6671
1164.3163
1154.2386
1145.5581
1138.3963
1133.2721
1130.4958
1526.2919
1494.6048
1463.3784
1432.3417
1401.3863
1371.2826
)
;
    }
    Outlet
    {
        type            inletOutlet;
        inletValue      nonuniform List<scalar> 0();
        value           nonuniform List<scalar> 0();
    }
    procBoundary7to0
    {
        type            processor;
        value           nonuniform List<scalar> 
50
(
39.760653
39.567447
39.391651
39.232068
39.088298
38.959883
38.846052
38.748377
38.668247
38.613929
38.568949
38.575781
38.610993
38.696569
38.861889
39.154961
39.652755
40.487296
41.907365
44.44197
48.585869
55.199193
66.965403
97.677314
252.01968
1129.7388
58.925837
56.497471
54.409053
52.60888
51.046656
49.681557
48.481847
47.422063
46.481605
45.643778
44.894789
44.223071
43.618953
43.074444
42.582462
42.136836
41.732596
41.365555
41.031533
40.726925
40.449048
40.195598
39.760653
39.964357
)
;
    }
    procBoundary7to8
    {
        type            processor;
        value           nonuniform List<scalar> 
53
(
37.940611
38.062746
38.209233
38.384488
38.594837
38.848738
39.157289
39.534716
40.001036
40.584915
41.330346
42.308977
43.653638
45.64504
48.951305
37.504373
37.491452
37.488226
37.493186
37.507549
37.531627
37.56469
37.605391
37.651564
37.708273
37.776822
37.8555
37.948841
37.948841
41.161635
39.849918
39.203343
38.648735
38.293015
38.016793
37.847282
37.729486
37.640959
37.586421
37.586421
212.06129
163.80399
98.31106
83.09808
60.230517
53.074982
46.785766
44.285504
42.158487
42.158487
1557.607
647.24074
647.24074
)
;
    }
}


// ************************************************************************* //
