/*--------------------------------*- C++ -*----------------------------------*\
| =========                 |                                                 |
| \\      /  F ield         | OpenFOAM: The Open Source CFD Toolbox           |
|  \\    /   O peration     | Version:  2506                                  |
|   \\  /    A nd           | Website:  www.openfoam.com                      |
|    \\/     M anipulation  |                                                 |
\*---------------------------------------------------------------------------*/
FoamFile
{
    version     2.0;
    format      ascii;
    arch        "LSB;label=32;scalar=64";
    class       volVectorField;
    location    "0.011";
    object      U;
}
// * * * * * * * * * * * * * * * * * * * * * * * * * * * * * * * * * * * * * //

dimensions      [0 1 -1 0 0 0 0];

internalField   nonuniform List<vector> 
13761
(
(3.3657733 0.78874595 1.18944e-17)
(10.40011 2.4376088 0)
(18.042984 4.2293041 3.5693587e-22)
(26.231131 6.1491324 0)
(34.557212 8.1016775 3.1079717e-22)
(42.284757 9.9142791 -9.3349304e-18)
(48.913689 11.469625 8.4929885e-18)
(54.441563 12.767107 0)
(59.081606 13.856697 0)
(63.048199 14.788635 6.3811751e-18)
(66.508263 15.602027 -5.827125e-18)
(69.582153 16.325074 6.5136921e-22)
(72.354879 16.977686 5.9836631e-22)
(3.3962134 0.80973027 1.2063274e-17)
(10.489388 2.5011715 3.8331903e-22)
(18.190472 4.3376906 -7.2416621e-22)
(26.432862 6.3034952 -1.1133424e-17)
(34.800496 8.2994165 2.0656356e-17)
(42.549546 10.148054 -9.4627325e-18)
(49.183597 11.730962 0)
(54.707599 13.049295 4.7664706e-22)
(59.33903 14.154913 0)
(63.294128 15.099375 -7.8894865e-22)
(66.740667 15.922676 0)
(69.799485 16.65362 -6.5968461e-22)
(72.555962 17.312554 -6.0587604e-22)
(75.072872 17.914437 5.5776581e-22)
(77.39775 18.470596 0)
(79.567127 18.989735 9.5058991e-22)
(81.60977 19.47871 8.7957096e-22)
(83.548535 19.942966 0)
(85.401477 20.386809 -1.511969e-21)
(87.183885 20.813886 0)
(88.90948 21.227477 0)
(90.589899 21.630375 0)
(92.235318 22.025029 -1.1277699e-21)
(93.855159 22.413723 0)
(95.457708 22.79848 1.9966425e-18)
(97.050696 23.181204 -1.8576241e-18)
(3.401743 0.82392841 -1.2237651e-17)
(10.502774 2.5440227 -1.2743951e-17)
(18.208237 4.4105775 1.2036591e-17)
(26.451418 6.4074905 -1.129386e-17)
(34.81811 8.4344568 -3.3430822e-24)
(42.567403 10.311991 9.6015206e-18)
(49.203287 11.919899 5.3307212e-22)
(54.729428 13.259058 -7.9266383e-18)
(59.362559 14.381971 1.4401517e-17)
(63.31876 15.340968 4.1107413e-22)
(66.765849 16.176682 -1.1978002e-17)
(69.824743 16.918385 5.4838982e-18)
(72.580873 17.586753 5.0364192e-18)
(75.097033 18.196982 1.4360643e-23)
(77.420741 18.760569 -8.553704e-18)
(79.588487 19.28634 3.9499934e-18)
(81.629002 19.781247 3.6543494e-18)
(83.565204 20.250834 1.7648651e-23)
(85.41531 20.699515 -3.137591e-18)
(87.194791 21.131042 2.9171449e-18)
(88.91754 21.548795 -2.7068414e-18)
(90.595391 21.955661 0)
(92.238751 22.354189 -2.3410114e-18)
(93.857273 22.746753 2.1774383e-18)
(95.459527 23.135474 3.9572413e-21)
(97.053522 23.52235 -1.8412084e-21)
(98.646813 23.909289 -1.7524871e-18)
(100.24652 24.29812 -3.2152519e-21)
(101.85979 24.690712 3.030804e-18)
(103.49365 25.088934 -1.412194e-18)
(105.15473 25.494586 0)
(106.84942 25.909439 1.2254113e-18)
(3.4140113 0.83878873 -1.2416425e-17)
(10.537653 2.5890784 1.2929621e-17)
(18.264092 4.4875556 -7.4481612e-22)
(26.525318 6.5174662 0)
(34.904718 8.5765264 3.2394785e-22)
(42.659753 10.482256 0)
(49.295291 12.112936 -5.3979389e-22)
(54.816419 13.469796 0)
(59.440695 14.606301 0)
(63.384807 15.575669 0)
(66.817217 16.419323 -7.3905182e-22)
(69.859633 17.167142 0)
(72.598423 17.840041 5.0918188e-18)
(75.096943 18.453919 -9.3794215e-18)
(77.403393 19.020487 4.3298479e-18)
(79.554888 19.548797 0)
(81.580595 20.046276 9.0356664e-22)
(83.504059 20.51843 0)
(85.343874 20.969872 -1.5534058e-21)
(87.115755 21.404503 -1.4424279e-21)
(88.833722 21.825787 -1.3400439e-21)
(90.509551 22.236633 1.2456698e-21)
(92.153407 22.639564 0)
(93.774718 23.036936 -2.1556674e-21)
(95.381943 23.430882 -2.006458e-21)
(96.983025 23.823424 0)
(98.585472 24.216499 1.7757832e-18)
(100.19657 24.612016 -1.6557256e-18)
(101.8235 25.011887 1.5435467e-18)
(103.47296 25.417927 2.826531e-21)
(105.15123 25.831869 -1.332574e-18)
(106.86435 26.255408 0)
(108.61812 26.690217 0)
(110.41848 27.138021 -1.0696108e-18)
(112.27182 27.600686 9.9704033e-19)
(114.18489 28.080218 -7.2017629e-21)
(1.5867017 -0.38987077 -1.9942218e-22)
(4.8704042 -1.1965614 0)
(8.4058696 -2.0650701 3.884622e-22)
(12.202508 -2.9976526 1.1978459e-17)
(16.236724 -3.9884806 -1.1216164e-17)
(20.410627 -5.0134783 -3.1856717e-22)
(24.52377 -6.0233872 0)
(28.356389 -6.9642133 0)
(31.787387 -7.8062083 8.1845772e-18)
(34.807463 -8.5470904 -7.520056e-18)
(37.46593 -9.1989692 -8.4322675e-22)
(39.824159 -9.7769072 3.0510375e-25)
(41.936288 -10.294186 0)
(43.846811 -10.761718 0)
(45.591273 -11.18823 0)
(47.197591 -11.580552 -1.1226918e-21)
(48.68789 -11.943795 -4.2513346e-18)
(50.077874 -12.28235 3.9370539e-18)
(51.380984 -12.599054 -1.7823088e-21)
(52.608379 -12.896648 0)
(53.769989 -13.177713 -5.9971318e-25)
(54.875413 -13.444204 1.4176934e-21)
(55.931746 -13.698097 0)
(56.945404 -13.940914 0)
(57.921832 -14.173937 -2.2549006e-21)
(58.865794 -14.398304 8.1575977e-25)
(59.781367 -14.61499 1.9848164e-18)
(60.671867 -14.824779 -1.837065e-18)
(61.539977 -15.028294 0)
(62.387698 -15.22599 0)
(63.216317 -15.418139 5.6991661e-21)
(64.026471 -15.60485 -1.3451844e-18)
(64.818246 -15.78609 1.2547413e-18)
(65.591377 -15.961727 4.5165117e-21)
(66.345398 -16.131556 1.0738336e-18)
(67.079569 -16.29528 -9.9692206e-19)
(67.792922 -16.452566 0)
(68.483968 -16.603181 0)
(69.147119 -16.74631 0)
(69.701463 -16.857533 5.6342902e-21)
(69.913487 -16.876278 0)
(69.928894 -16.84084 9.5820688e-21)
(69.919867 -16.79776 0)
(69.908674 -16.74995 5.2077857e-19)
(69.896055 -16.69788 -4.7994469e-19)
(69.88282 -16.641586 1.3824864e-20)
(69.868702 -16.581014 4.2035483e-19)
(69.853686 -16.515716 -7.3953437e-19)
(69.837601 -16.445299 3.677938e-19)
(69.820325 -16.369496 -2.9905824e-19)
(69.801966 -16.288051 2.9394638e-19)
(69.78271 -16.200318 -3.3857979e-20)
(1.5932765 -0.38594372 -1.2882246e-17)
(4.8917885 -1.1848058 2.6602288e-17)
(8.4445556 -2.0452436 -1.2548851e-17)
(12.261173 -2.9695225 -1.1806296e-17)
(16.317588 -3.9517922 -8.4131746e-25)
(20.514048 -4.967871 1.0285888e-17)
(24.647195 -5.968491 -5.8099231e-22)
(28.495689 -6.9000381 0)
(31.939136 -7.7333559 -8.0642432e-18)
(34.969678 -8.4665419 7.4095794e-18)
(37.637688 -9.1117921 -6.8061603e-18)
(40.005109 -9.6840967 6.2603769e-18)
(42.126341 -10.196614 7.0364272e-22)
(44.045967 -10.660121 6.4880795e-22)
(45.799583 -11.083217 -4.9077988e-18)
(47.415103 -11.472642 1.1005988e-21)
(48.914492 -11.833657 4.1878186e-18)
(50.314977 -12.170384 0)
(51.629164 -12.485915 -3.5950324e-18)
(52.867867 -12.782713 -1.6346023e-21)
(54.040547 -13.063154 -8.9061219e-24)
(55.155751 -13.329013 2.8609536e-18)
(56.220563 -13.582129 0)
(57.241363 -13.824006 -2.3980253e-21)
(58.223628 -14.055916 2.2231483e-21)
(59.172197 -14.278992 2.059895e-21)
(60.091266 -14.494219 0)
(60.984311 -14.702408 -1.8068273e-18)
(61.854143 -14.904211 3.3569231e-18)
(62.702777 -15.100084 -1.5527834e-18)
(63.531566 -15.290323 1.4348162e-18)
(64.341376 -15.475096 -1.3410383e-18)
(65.132503 -15.654428 -1.2411442e-18)
(65.904834 -15.828231 1.1349944e-18)
(66.658044 -15.996346 1.0539307e-18)
(67.391599 -16.158536 -9.6703657e-19)
(68.104861 -16.314545 -7.0387605e-21)
(68.796757 -16.464182 0)
(69.462876 -16.607004 0)
(70.051307 -16.727142 7.1622035e-19)
(70.31838 -16.761082 1.4562216e-23)
(70.344962 -16.729101 -9.4276082e-21)
(70.333701 -16.687966 -5.5702874e-19)
(70.320434 -16.641793 5.2137715e-19)
(70.306007 -16.591875 1.4795978e-20)
(70.290604 -16.537888 -4.496275e-19)
(70.274063 -16.479707 -1.2558764e-20)
(70.256449 -16.416812 -4.0817648e-24)
(70.237504 -16.349072 0)
(70.217176 -16.276022 -1.9649999e-20)
(70.195625 -16.197333 0)
(70.172918 -16.112439 1.6691104e-20)
(70.149152 -16.021069 2.7680414e-19)
(70.124295 -15.92275 -2.5503165e-19)
(70.098132 -15.81683 0)
(70.070443 -15.702764 -2.4054659e-20)
(70.04123 -15.579945 0)
(70.010595 -15.447668 0)
(69.978599 -15.305402 0)
(69.945445 -15.15266 0)
(69.911536 -14.988409 -3.1943543e-20)
(69.876875 -14.811693 -1.7654274e-19)
(1.5974597 -0.38091942 -1.9372937e-22)
(4.9060997 -1.1697492 4.0014054e-22)
(8.4714589 -2.0198194 0)
(12.303415 -2.9334062 3.551042e-22)
(16.377619 -3.9046964 1.0897738e-17)
(20.592737 -4.9095144 -1.0138644e-17)
(24.742793 -5.8987421 5.7285878e-22)
(28.604931 -6.8192386 -5.2756617e-22)
(32.059263 -7.6424183 4.8493397e-22)
(35.099147 -8.3667 -4.4556802e-22)
(37.775861 -9.0043063 0)
(40.151828 -9.5701097 0)
(42.281659 -10.077117 -1.3869634e-21)
(44.210015 -10.53595 -6.395649e-22)
(45.972467 -10.955038 1.1806451e-21)
(47.596876 -11.340983 0)
(49.105081 -11.699356 0)
(50.515321 -12.033744 -9.3330795e-22)
(51.840308 -12.34754 0)
(53.090472 -12.643208 1.6038649e-21)
(54.274981 -12.922834 -5.3233046e-25)
(55.401386 -13.188135 0)
(56.476559 -13.440713 1.2755692e-21)
(57.506717 -13.682001 2.3645384e-21)
(58.49718 -13.913229 0)
(59.452657 -14.135481 2.0786342e-18)
(60.377244 -14.349699 -1.9259558e-18)
(61.274374 -14.556672 -6.9696515e-21)
(62.146923 -14.757056 -3.2282516e-21)
(62.997188 -14.951373 2.9883319e-21)
(63.82684 -15.139987 0)
(64.636946 -15.323115 5.1233332e-21)
(65.428026 -15.500838 4.7416042e-21)
(66.200243 -15.673144 0)
(66.953535 -15.839957 4.0563556e-21)
(67.68749 -16.001091 -9.6049318e-19)
(68.401451 -16.1563 -1.2541705e-23)
(69.094574 -16.305418 8.1444874e-19)
(69.763679 -16.448246 7.5266142e-19)
(70.38012 -16.576145 -7.005078e-19)
(70.70984 -16.627563 1.009532e-20)
(70.753597 -16.602663 -5.8651503e-19)
(70.741105 -16.563493 5.4917678e-19)
(70.725818 -16.519133 0)
(70.708882 -16.470868 -4.8103264e-19)
(70.690992 -16.418771 4.4329803e-19)
(70.671859 -16.362775 0)
(70.65152 -16.302463 -1.1410537e-20)
(70.629927 -16.237418 0)
(70.607091 -16.1673 -2.9065478e-19)
(70.583155 -16.091827 1.7840177e-20)
(70.55825 -16.01035 2.4679795e-19)
(70.531925 -15.922517 2.5774335e-19)
(70.503991 -15.827776 2.7956324e-20)
(70.474543 -15.725551 -2.0594773e-19)
(70.443731 -15.615407 2.3724676e-20)
(70.411583 -15.496786 -1.5299584e-19)
(70.377987 -15.36891 2.0134908e-19)
(70.342832 -15.231011 1.4841843e-19)
(70.306453 -15.082489 -2.7345865e-19)
(70.269435 -14.922526 9.447237e-20)
(70.231537 -14.750321 5.8009921e-20)
(70.192057 -14.564998 5.3457124e-20)
(70.150557 -14.365637 -1.4767602e-19)
(70.107696 -14.151088 0)
(70.064819 -13.92021 0)
(70.022066 -13.67204 0)
(1.5986762 -0.37470942 -1.2519155e-17)
(4.911651 -1.151116 1.2929506e-17)
(8.4837307 -1.9883053 -1.2200656e-17)
(12.325113 -2.8886066 1.1480077e-17)
(16.41132 -3.8462619 -3.2815922e-22)
(20.6398 -4.8372411 -1.0208636e-25)
(24.802407 -5.8128802 -5.6513187e-22)
(28.675039 -6.7201915 5.2043084e-22)
(32.137958 -7.5316043 -4.7815752e-22)
(35.185405 -8.2456768 -7.1956463e-18)
(37.869432 -8.874469 6.6116383e-18)
(40.25287 -9.4327018 0)
(42.390478 -9.9333612 5.6014184e-18)
(44.327138 -10.386787 -5.1658078e-18)
(46.098541 -10.801376 -1.1642386e-21)
(47.732742 -11.183763 -1.0757727e-21)
(49.252105 -11.538899 0)
(50.673648 -11.870899 9.2131145e-22)
(52.010248 -12.182865 8.532418e-22)
(53.272556 -12.477096 -1.5812282e-21)
(54.469619 -12.7555 2.9990929e-18)
(55.608119 -13.020161 -2.7799672e-18)
(56.694848 -13.272165 -1.2579659e-21)
(57.735794 -13.51292 2.3866223e-18)
(58.736078 -13.743619 -2.2095388e-18)
(59.700259 -13.965295 2.0008733e-21)
(60.632346 -14.178845 0)
(61.535759 -14.385029 -1.7554791e-18)
(62.413443 -14.584504 1.6290796e-18)
(63.267797 -14.777798 -2.9468333e-21)
(64.100641 -14.965305 0)
(64.913215 -15.147281 0)
(65.706121 -15.32383 0)
(66.479517 -15.494946 1.1024924e-18)
(67.233398 -15.660579 -1.0276906e-18)
(67.967627 -15.820629 3.6974263e-21)
(68.682013 -15.974957 2.2276044e-24)
(69.376041 -16.123424 -8.0907977e-19)
(70.047607 -16.265902 7.593872e-19)
(70.681404 -16.39847 -6.9599725e-19)
(71.077744 -16.467581 6.2718003e-19)
(71.146227 -16.451469 0)
(71.133545 -16.415302 0)
(71.116502 -16.374501 0)
(71.098243 -16.330407 1.4371376e-20)
(71.078791 -16.282556 1.3244455e-20)
(71.057969 -16.230672 0)
(71.035888 -16.174239 -1.1248132e-20)
(71.012416 -16.113202 3.3175863e-19)
(70.987601 -16.047099 -3.0571137e-19)
(70.961572 -15.975588 -2.8173464e-19)
(70.934235 -15.898136 5.3542128e-19)
(70.905582 -15.814436 -4.9337088e-19)
(70.875582 -15.723981 2.2040787e-19)
(70.844072 -15.62613 -1.7771744e-19)
(70.81086 -15.520352 1.8712666e-19)
(70.776021 -15.406069 -2.1555611e-20)
(70.739792 -15.282649 7.9432561e-20)
(70.702401 -15.149449 -2.5612961e-19)
(70.66388 -15.005851 1.3483044e-19)
(70.624241 -14.850811 9.677299e-24)
(70.583183 -14.683604 -2.2887012e-19)
(70.540328 -14.503326 1.0542323e-19)
(70.495806 -14.308973 9.70987e-20)
(70.450452 -14.099406 0)
(70.404541 -13.873634 0)
(70.357882 -13.630656 -7.5868608e-20)
(70.311328 -13.369535 1.3972394e-19)
(70.266682 -13.08879 6.4331029e-20)
(70.225347 -12.78692 -5.9227549e-20)
(70.186845 -12.463158 -1.0909137e-19)
(1.5953843 -0.36700885 1.8833746e-22)
(4.9044837 -1.1281639 -1.2752576e-17)
(8.4757703 -1.9497282 3.6674055e-22)
(12.320058 -2.8341503 1.1326598e-17)
(16.413084 -3.7758349 0)
(20.651392 -4.7509485 -6.0266142e-22)
(24.824748 -5.7110242 -9.1398214e-18)
(28.70698 -6.6045289 -4.0122896e-24)
(32.178294 -7.4033431 7.7320514e-18)
(35.233482 -8.1063279 -7.1047137e-18)
(37.925004 -8.7257536 6.5255414e-18)
(40.31607 -9.2761144 0)
(42.461856 -9.7698945 -5.5303287e-18)
(44.407273 -10.217583 5.1005841e-18)
(46.188083 -10.627356 4.7108043e-18)
(47.832218 -11.005605 -4.3522104e-18)
(49.361571 -11.357316 4.0243869e-18)
(50.793156 -11.686403 -3.7226115e-18)
(52.139966 -11.995799 -3.4491524e-18)
(53.412459 -12.287951 3.1972688e-18)
(54.619636 -12.56498 0)
(55.769033 -12.828412 2.7409047e-18)
(56.866919 -13.079674 -5.0782476e-18)
(57.918906 -13.320027 2.3531869e-18)
(58.929776 -13.550522 -4.2593348e-21)
(59.903805 -13.772093 -1.9734851e-21)
(60.844791 -13.985564 1.8279605e-21)
(61.756022 -14.191645 1.7342378e-18)
(62.640382 -14.390956 -3.1238004e-21)
(63.500257 -14.584011 -1.487269e-18)
(64.337506 -14.771203 0)
(65.153483 -14.952814 4.9772663e-21)
(65.949014 -15.129004 1.1839568e-18)
(66.724551 -15.29984 4.2773948e-21)
(67.480309 -15.46533 -1.0091731e-18)
(68.216278 -15.625414 -1.061676e-24)
(68.932406 -15.78 1.348179e-20)
(69.628574 -15.928991 7.9759291e-19)
(70.303701 -16.072301 -7.371085e-19)
(70.948773 -16.208767 5.3188895e-21)
(71.412576 -16.297374 0)
(71.517969 -16.293523 9.0522038e-21)
(71.507482 -16.260417 5.3410143e-19)
(71.489539 -16.222489 7.704403e-21)
(71.469903 -16.181155 -1.4163982e-20)
(71.449229 -16.136445 -4.3112593e-19)
(71.427221 -16.088247 1.2038087e-20)
(71.403977 -16.036078 -3.3286936e-19)
(71.379534 -15.979338 6.5439696e-19)
(71.353875 -15.9176 -3.0151624e-19)
(71.326981 -15.85059 -1.7368818e-20)
(71.298849 -15.777703 -2.5604276e-19)
(71.269052 -15.69859 -1.2116208e-23)
(71.237487 -15.612701 2.1738695e-19)
(71.204382 -15.519517 -5.0078196e-20)
(71.169811 -15.418499 1.6150699e-19)
(71.133634 -15.309024 -1.7005088e-19)
(71.095697 -15.19031 3.9176391e-20)
(71.056157 -15.061787 -1.0962807e-23)
(71.01541 -14.922958 0)
(70.973626 -14.773044 1.5316165e-19)
(70.930237 -14.61104 -5.642159e-20)
(70.885126 -14.436006 1.0399285e-19)
(70.838462 -14.246826 -9.5766006e-20)
(70.790465 -14.042386 -4.4094162e-20)
(70.741532 -13.821753 -8.1248731e-20)
(70.691817 -13.58402 -7.4836435e-20)
(70.642301 -13.328122 6.8904789e-20)
(70.595408 -13.052675 6.3337564e-24)
(70.551311 -12.75643 1.1931763e-23)
(70.509008 -12.438708 1.0758133e-19)
(70.471177 -12.09735 1.4856697e-19)
(70.438715 -11.730215 1.404139e-23)
(70.409542 -11.337469 4.1983149e-20)
(1.5857538 -0.35757135 1.2174301e-17)
(4.8782566 -1.0999287 -2.5156386e-17)
(8.4355691 -1.9020946 1.1870683e-17)
(12.269321 -2.7666659 3.4099456e-22)
(16.35595 -3.6883244 0)
(20.59195 -4.64374 5.9440091e-22)
(24.765934 -5.5852575 0)
(28.650623 -6.4616333 -5.068519e-22)
(32.125845 -7.2457706 4.6590191e-22)
(35.186716 -7.9365749 4.2810087e-22)
(37.885996 -8.5459444 0)
(40.286805 -9.0880982 -5.9271739e-18)
(42.443835 -9.5753609 1.0920308e-17)
(44.401487 -10.01772 -5.0351786e-18)
(46.194817 -10.423058 0)
(47.851144 -10.797513 1.0488404e-21)
(49.39203 -11.145923 -3.9710503e-18)
(50.834465 -11.472094 3.6715072e-18)
(52.19163 -11.778974 -8.3023268e-22)
(53.474394 -12.068985 3.1483235e-18)
(54.692163 -12.34422 -5.835982e-18)
(55.85253 -12.606353 2.702989e-18)
(56.961784 -12.856765 -2.8503183e-25)
(58.025463 -13.096665 0)
(59.048188 -13.327049 2.1527879e-18)
(60.034014 -13.548787 -1.9926657e-18)
(60.986486 -13.76263 -3.6060004e-21)
(61.908641 -13.969218 0)
(62.803139 -14.169106 1.5870697e-18)
(63.672198 -14.36275 -1.4666545e-18)
(64.517578 -14.550508 0)
(65.340622 -14.732642 -4.909289e-21)
(66.142216 -14.909315 1.1629014e-18)
(66.922932 -15.080617 1.2920763e-23)
(67.683158 -15.2466 -9.9505061e-19)
(68.423079 -15.407265 -7.1889241e-21)
(69.142857 -15.562582 -6.6471728e-21)
(69.842653 -15.71249 6.1445243e-21)
(70.521945 -15.856835 -5.6787762e-21)
(71.174631 -15.995573 -5.2464872e-21)
(71.703062 -16.102515 -9.6824301e-21)
(71.861528 -16.116573 -8.9318629e-21)
(71.856337 -16.091402 5.2686268e-19)
(71.8384 -16.060426 -4.9312512e-19)
(71.819269 -16.025781 0)
(71.798944 -15.986909 0)
(71.777328 -15.94358 3.8006033e-19)
(71.754553 -15.89552 -3.6118711e-19)
(71.730441 -15.842932 2.017038e-20)
(71.704938 -15.785428 2.974484e-19)
(71.678026 -15.722628 -2.7409227e-19)
(71.649475 -15.654006 -2.683633e-19)
(71.619303 -15.579253 2.3273344e-19)
(71.587631 -15.497861 -2.6803054e-20)
(71.554339 -15.409206 2.4704311e-20)
(71.519309 -15.312759 4.5519157e-20)
(71.48251 -15.207934 -2.0967011e-20)
(71.44395 -15.094109 0)
(71.403655 -14.970579 -3.5607043e-20)
(71.361658 -14.836734 3.2794847e-20)
(71.318214 -14.69162 -1.2087492e-19)
(71.273252 -14.534508 5.5678236e-20)
(71.226682 -14.364345 1.5189309e-23)
(71.178573 -14.180172 1.8897536e-19)
(71.129238 -13.980785 -4.3505091e-20)
(71.078274 -13.765198 -8.0149447e-20)
(71.025901 -13.532643 -1.4764965e-19)
(70.974174 -13.281837 -6.692607e-24)
(70.924545 -13.011307 6.2607418e-20)
(70.876201 -12.720873 0)
(70.830417 -12.409367 -1.0617548e-19)
(70.789704 -12.074197 -4.8877895e-20)
(70.753257 -11.713839 -4.4978967e-20)
(70.720068 -11.327501 8.2816527e-20)
(70.692128 -10.913357 0)
(70.673625 -10.469331 0)
(70.665544 -9.9948346 9.6801259e-20)
(1.5808586 -0.3515219 0)
(4.8643533 -1.0815343 1.8931496e-22)
(8.4132538 -1.8705999 0)
(12.239429 -2.7213236 -1.1015929e-17)
(16.319469 -3.628497 -6.3611341e-25)
(20.549563 -4.569046 -2.9380855e-22)
(24.717404 -5.4957836 8.8830108e-18)
(28.594986 -6.3580364 4.9943625e-22)
(32.062401 -7.1291548 7.51901e-18)
(35.115674 -7.8082272 -6.908191e-18)
(37.80847 -8.407127 7.7442174e-22)
(40.204469 -8.9407497 5.8435484e-18)
(42.359416 -9.4202857 1.3184226e-21)
(44.317791 -9.8563509 -4.9659488e-18)
(46.114784 -10.256688 -1.1189752e-21)
(47.777646 -10.627294 1.0339648e-21)
(49.327592 -10.972862 3.9160526e-18)
(50.781054 -11.29702 -7.2437409e-18)
(52.150598 -11.602529 3.3552223e-18)
(53.446542 -11.891649 0)
(54.677856 -12.166336 -2.8761295e-18)
(55.85182 -12.428167 1.2948498e-21)
(56.974527 -12.678455 -7.3875955e-24)
(58.05141 -12.918365 2.2913614e-18)
(59.08703 -13.148866 0)
(60.0854 -13.370802 1.919225e-21)
(61.050015 -13.584902 3.8396702e-25)
(61.98385 -13.791782 0)
(62.889494 -13.991968 0)
(63.769096 -14.185893 2.824987e-21)
(64.624366 -14.373894 0)
(65.456627 -14.556223 0)
(66.26678 -14.733041 -1.1513434e-18)
(67.055449 -14.904447 1.0568631e-18)
(67.823118 -15.070506 -9.8128694e-19)
(68.570097 -15.231249 1.821915e-18)
(69.296688 -15.386688 -8.4545805e-19)
(70.003215 -15.536799 0)
(70.689501 -15.681433 -7.1669342e-19)
(71.351521 -15.820376 6.6218295e-19)
(71.934331 -15.939382 6.2087959e-19)
(72.168014 -15.969692 -5.6385112e-19)
(72.177134 -15.945335 5.1979318e-19)
(72.162961 -15.914374 1.1973411e-23)
(72.146219 -15.880316 -1.378299e-20)
(72.128024 -15.843259 1.2043348e-23)
(72.108236 -15.803004 -7.6164599e-19)
(72.087074 -15.758899 3.4554713e-19)
(72.064576 -15.710126 -5.2472669e-24)
(72.040518 -15.656202 0)
(72.014705 -15.59698 0)
(71.98724 -15.532012 1.5576668e-20)
(71.957946 -15.46105 0)
(71.926935 -15.383561 2.6451795e-20)
(71.894377 -15.298991 -2.4366861e-20)
(71.860023 -15.206711 -2.2458285e-20)
(71.823399 -15.106044 -1.4482925e-19)
(71.784438 -14.996316 1.5249512e-19)
(71.743616 -14.877005 -3.512113e-20)
(71.701453 -14.747553 -3.2366263e-20)
(71.657884 -14.607052 8.9451412e-20)
(71.612447 -14.454577 -1.647879e-19)
(71.565155 -14.289302 1.518114e-19)
(71.516222 -14.110135 -4.6620215e-20)
(71.465255 -13.916026 0)
(71.411861 -13.706157 8.1127536e-24)
(71.357389 -13.479312 1.4568763e-19)
(71.304015 -13.234075 6.7084976e-20)
(71.251546 -12.969719 0)
(71.199709 -12.68538 0)
(71.151168 -12.379375 1.0473948e-19)
(71.10776 -12.049782 -4.8222067e-20)
(71.067603 -11.695235 4.4385542e-20)
(71.029514 -11.315062 0)
(70.99794 -10.906591 0)
(70.976011 -10.468 -1.3838882e-19)
(70.961833 -10.000129 -1.2733372e-19)
(70.957935 -9.5014376 -1.1717793e-19)
(70.966346 -8.9691427 1.8862254e-19)
(1.5853888 -0.34877748 -1.1845531e-17)
(4.8776989 -1.0729314 1.2236782e-17)
(8.4354119 -1.8554791 -1.1545802e-17)
(12.270244 -2.6989323 -1.0864107e-17)
(16.358358 -3.598054 2.0343273e-17)
(20.594927 -4.5297857 9.8134004e-25)
(24.766222 -5.4471198 -1.7508939e-17)
(28.643612 -6.2997758 -1.6515438e-24)
(32.107875 -7.0615512 -4.5415226e-22)
(35.156177 -7.7318782 4.1281317e-22)
(37.843086 -8.3228764 6.2465253e-18)
(40.233164 -8.8480678 -5.7519122e-18)
(42.381563 -9.3207053 1.059607e-17)
(44.333635 -9.7500546 -9.771383e-18)
(46.12505 -10.143985 4.512812e-18)
(47.783358 -10.50899 -1.0184828e-21)
(49.330564 -10.8495 -9.4213346e-22)
(50.783615 -11.169271 -8.7201649e-22)
(52.155189 -11.471208 -3.3078754e-18)
(53.455478 -11.757488 3.0632618e-18)
(54.693217 -12.029992 0)
(55.875374 -12.290216 -1.283942e-21)
(57.007679 -12.539374 2.4353101e-18)
(58.095184 -12.778531 -2.2598917e-18)
(59.142074 -13.008557 -2.0902985e-18)
(60.152011 -13.230207 1.9386483e-18)
(61.12818 -13.444129 1.7543e-21)
(62.073281 -13.650863 -1.6639073e-18)
(62.989669 -13.850876 1.5409796e-18)
(63.879299 -14.044547 1.4212414e-18)
(64.743729 -14.232174 -1.323382e-18)
(65.584177 -14.413981 -1.2271418e-18)
(66.401494 -14.590116 4.4092564e-21)
(67.196308 -14.760681 1.0505392e-18)
(67.96917 -14.925764 -9.7158224e-19)
(68.720512 -15.08543 8.9492055e-19)
(69.450797 -15.239747 6.4644337e-21)
(70.160557 -15.388781 -7.6477765e-19)
(70.849978 -15.532521 7.0680163e-19)
(71.516618 -15.670707 6.5310434e-19)
(72.132807 -15.796967 -6.0303231e-19)
(72.446997 -15.846534 0)
(72.476294 -15.82456 5.128644e-19)
(72.465536 -15.791816 -4.800433e-19)
(72.452636 -15.756205 -4.3562544e-19)
(72.438063 -15.718154 4.014619e-19)
(72.421663 -15.677511 0)
(72.403485 -15.633534 3.4096439e-19)
(72.383342 -15.585828 -3.5348275e-19)
(72.361318 -15.533677 2.8956277e-19)
(72.337497 -15.476608 -2.6682894e-19)
(72.311734 -15.414099 -1.5365659e-20)
(72.28424 -15.345852 -2.2657941e-19)
(72.255219 -15.271331 4.1754976e-19)
(72.224426 -15.189932 -1.4427456e-19)
(72.191511 -15.101121 1.9941558e-19)
(72.156302 -15.004207 -3.2664148e-19)
(72.118729 -14.898448 -3.7623867e-20)
(72.078862 -14.783014 1.3864591e-19)
(72.03686 -14.657444 1.2773512e-19)
(71.99293 -14.521035 -8.8249429e-20)
(71.946882 -14.373153 -5.4197425e-20)
(71.898949 -14.212676 0)
(71.849077 -14.038607 -1.3798885e-19)
(71.796561 -13.849687 1.270979e-19)
(71.741856 -13.644846 7.8039807e-20)
(71.686706 -13.422942 -2.0614934e-23)
(71.631589 -13.182872 0)
(71.576268 -12.923942 -1.1590198e-23)
(71.522115 -12.645336 5.6136576e-20)
(71.471856 -12.345177 -1.5508566e-19)
(71.425933 -12.021631 4.7584907e-20)
(71.381644 -11.673939 0)
(71.340552 -11.300183 0)
(71.306468 -10.896765 0)
(71.278591 -10.465041 1.3662479e-19)
(71.257915 -10.005069 1.5713821e-19)
(71.24813 -9.5132189 1.3872751e-24)
(71.251023 -8.9870185 -5.3184276e-20)
(71.265584 -8.4263377 2.2013915e-19)
(71.291064 -7.83493 2.0237367e-19)
(1.5910816 -0.34628957 1.1687037e-17)
(4.894796 -1.065176 -1.2074025e-17)
(8.4642942 -1.8419107 3.4762893e-22)
(12.311118 -2.6789304 6.5425222e-22)
(16.41093 -3.5709478 -1.003677e-17)
(20.657772 -4.4948999 -2.858796e-22)
(24.836405 -5.4039518 8.6376152e-18)
(28.717457 -6.248197 4.8538202e-22)
(32.182168 -7.0018061 -7.3062786e-18)
(35.228675 -7.6643897 6.7107155e-18)
(37.912458 -8.2480341 0)
(40.298611 -8.766902 -5.6655698e-18)
(42.443232 -9.2332287 5.2161333e-18)
(44.391761 -9.6569328 0)
(46.180125 -10.0459 -2.524277e-25)
(47.836392 -10.405791 0)
(49.381861 -10.741605 9.2758285e-22)
(50.833128 -11.057307 0)
(52.203649 -11.355356 7.9580991e-22)
(53.504185 -11.638127 -3.0204218e-18)
(54.74382 -11.907556 -5.3056698e-24)
(55.929503 -12.165171 2.5931179e-18)
(57.066713 -12.412213 0)
(58.160276 -12.649645 0)
(59.214153 -12.878268 2.0617997e-18)
(60.231783 -13.098778 -3.8264091e-18)
(61.216136 -13.311766 1.7700632e-18)
(62.169704 -13.517719 0)
(63.094648 -13.71705 1.5200808e-18)
(63.99274 -13.91009 -1.4047033e-18)
(64.86537 -14.09709 2.5449943e-21)
(65.713603 -14.278234 1.2104813e-18)
(66.53816 -14.453637 -1.1201295e-18)
(67.339568 -14.623374 -1.0281892e-18)
(68.118314 -14.78752 1.9129517e-18)
(68.874806 -14.946136 -8.8960772e-19)
(69.609535 -15.099304 0)
(70.32312 -15.247126 -7.5432139e-19)
(71.016005 -15.389676 -9.9234196e-24)
(71.686916 -15.526823 6.4418872e-19)
(72.322578 -15.656505 0)
(72.718624 -15.72624 0)
(72.776291 -15.712687 0)
(72.767259 -15.681545 1.4575973e-20)
(72.754915 -15.646339 3.2260497e-24)
(72.741752 -15.607835 0)
(72.727376 -15.566081 -3.6510579e-19)
(72.711594 -15.521099 3.3646025e-19)
(72.694039 -15.472798 1.9381846e-20)
(72.674369 -15.420709 2.8574741e-19)
(72.652646 -15.364337 -1.6445626e-20)
(72.629241 -15.303076 -2.4263472e-19)
(72.60403 -15.236515 0)
(72.576899 -15.163969 2.0603145e-19)
(72.547785 -15.084834 -2.1357004e-19)
(72.516399 -14.998473 -4.3731248e-20)
(72.482568 -14.904291 0)
(72.446293 -14.801579 3.7129786e-20)
(72.407636 -14.689723 3.4209415e-20)
(72.366285 -14.56802 1.2605703e-19)
(72.32224 -14.435645 -1.1612812e-19)
(72.276002 -14.291811 1.6049234e-19)
(72.228077 -14.135587 -9.8552935e-20)
(72.17805 -13.965917 4.5400773e-20)
(72.125546 -13.78166 -4.1820321e-20)
(72.070801 -13.581705 -2.1623283e-23)
(72.014721 -13.36491 -6.8974545e-24)
(71.957925 -13.13034 -1.3066631e-19)
(71.900352 -12.876958 -6.0179859e-20)
(71.843933 -12.603574 -5.5410057e-20)
(71.791759 -12.308345 5.1013474e-20)
(71.742588 -11.990521 9.3923827e-20)
(71.694954 -11.649228 0)
(71.651747 -11.281283 7.9586959e-20)
(71.613624 -10.885178 -1.4649913e-19)
(71.579918 -10.460802 1.3481937e-19)
(71.55411 -10.006613 1.5507396e-19)
(71.540463 -9.5205878 -1.4266869e-19)
(71.53795 -9.0004164 0)
(71.543986 -8.4478811 0)
(71.562558 -7.8617965 -5.0268404e-23)
(71.599787 -7.2438672 -1.428585e-19)
(1.5966681 -0.34375453 -1.8038671e-25)
(4.9118571 -1.0573441 1.1914494e-17)
(8.4935591 -1.8283184 -3.431233e-22)
(12.353218 -2.6590617 -3.2285293e-22)
(16.466036 -3.544243 9.9041503e-18)
(20.724908 -4.4607986 -9.2127414e-18)
(24.91301 -5.3620541 0)
(28.800198 -6.1984752 7.8471434e-18)
(32.268127 -6.9445958 1.7676384e-24)
(35.315735 -7.6001987 -6.6209934e-18)
(37.999164 -8.1773787 6.0795521e-18)
(40.383985 -8.6902571 -5.5873414e-18)
(42.526687 -9.1509988 -5.1450301e-18)
(44.473016 -9.5694559 9.4891148e-18)
(46.259092 -9.9534175 -4.3801178e-18)
(47.913006 -10.308947 4.0455061e-18)
(49.456726 -10.640724 -3.7393004e-18)
(50.907287 -10.952265 3.4631653e-18)
(52.277408 -11.246695 4.0457609e-24)
(53.578041 -11.526047 -2.9765731e-18)
(54.818385 -11.792457 2.7575563e-18)
(56.005881 -12.047458 -2.5585909e-18)
(57.146528 -12.292157 0)
(58.245055 -12.527736 2.1942783e-18)
(59.305248 -12.754939 -4.0714733e-18)
(60.33028 -12.974382 1.8356144e-21)
(61.322787 -13.186576 1.74955e-18)
(62.284912 -13.391922 0)
(63.218473 -13.590751 -2.9285378e-21)
(64.124941 -13.783314 1.3885026e-18)
(65.005453 -13.969793 7.4860247e-24)
(65.860878 -14.150316 7.72853e-24)
(66.6918 -14.324953 -1.1007252e-18)
(67.498667 -14.493753 1.0103322e-18)
(68.281941 -14.656775 -9.3802804e-19)
(69.042053 -14.814081 3.4018586e-21)
(69.779564 -14.965764 0)
(70.495232 -15.111956 -7.4990449e-19)
(71.189788 -15.252786 6.8768091e-19)
(71.862885 -15.388267 4.9640099e-21)
(72.507349 -15.51817 -9.1697021e-21)
(72.977706 -15.60465 0)
(73.077158 -15.601049 7.8026975e-21)
(73.070692 -15.571581 -7.1935536e-21)
(73.059083 -15.538021 2.6516246e-20)
(73.046522 -15.500978 0)
(73.032829 -15.460458 0)
(73.017847 -15.416129 3.21697e-19)
(73.001243 -15.368026 -3.0601514e-19)
(72.982959 -15.315989 2.8201454e-19)
(72.962991 -15.259917 -5.0351628e-19)
(72.941114 -15.1992 4.9391926e-19)
(72.917474 -15.133401 -2.2066747e-19)
(72.892227 -15.061968 2.5414047e-20)
(72.865082 -14.984327 2.341764e-20)
(72.835681 -14.899896 4.316087e-20)
(72.803755 -14.807942 -1.3919444e-19)
(72.768986 -14.707688 1.4655918e-19)
(72.731087 -14.598397 1.3504069e-19)
(72.690266 -14.479584 8.3223109e-24)
(72.647163 -14.350477 -1.146167e-19)
(72.601927 -14.210206 0)
(72.55454 -14.057838 0)
(72.504509 -13.892356 0)
(72.45134 -13.712567 0)
(72.395761 -13.517348 -7.6040413e-20)
(72.338963 -13.305504 -7.0016671e-20)
(72.280769 -13.075896 1.2899794e-19)
(72.221766 -12.827851 5.7899457e-24)
(72.165035 -12.55957 -5.4688027e-20)
(72.111413 -12.269527 -1.0070046e-19)
(72.058842 -11.957689 -9.2738897e-20)
(72.008408 -11.622096 0)
(71.962466 -11.259738 -7.858554e-20)
(71.920572 -10.869439 1.44659e-19)
(71.882683 -10.451698 -1.3312873e-19)
(71.852768 -10.004445 -3.4899161e-23)
(71.833969 -9.5245806 8.4533251e-20)
(71.824206 -9.0132418 -8.0818344e-25)
(71.823868 -8.4683491 2.144993e-19)
(71.835703 -7.889647 -2.1922099e-19)
(71.865513 -7.2791875 2.0155627e-19)
(71.917465 -6.6398901 5.9281704e-19)
(71.998833 -5.9737144 0)
(1.602347 -0.34122246 1.7362165e-22)
(4.9292752 -1.049539 1.175875e-17)