/*--------------------------------*- C++ -*----------------------------------*\
| =========                 |                                                 |
| \\      /  F ield         | OpenFOAM: The Open Source CFD Toolbox           |
|  \\    /   O peration     | Version:  2506                                  |
|   \\  /    A nd           | Website:  www.openfoam.com                      |
|    \\/     M anipulation  |                                                 |
\*---------------------------------------------------------------------------*/
FoamFile
{
    version     2.0;
    format      ascii;
    arch        "LSB;label=32;scalar=64";
    class       volSymmTensorField;
    location    "0.00021";
    object      R;
}
// * * * * * * * * * * * * * * * * * * * * * * * * * * * * * * * * * * * * * //

dimensions      [0 2 -2 0 0 0 0];

internalField   nonuniform List<symmTensor> 
3463
(
(0.013536878 -5.1015864e-06 4.3524053e-21 0.013554951 7.0752101e-22 0.013546371)
(0.013635175 -2.4572256e-06 -8.669085e-23 0.01365451 -3.4083516e-23 0.013644135)
(0.013634849 -1.5998754e-06 -7.2744593e-21 0.013652081 -1.2814934e-21 0.013644005)
(0.01390695 -2.0405247e-06 -1.8135519e-22 0.013926196 -3.1232201e-23 0.013913002)
(0.013755996 -4.2803432e-06 1.6615478e-22 0.013776813 2.5819011e-23 0.013765028)
(0.013607359 -7.5759647e-06 -1.0632696e-22 0.013625886 -2.5298821e-23 0.013618004)
(0.013536221 -5.0441356e-06 4.1962042e-23 0.013554642 -1.4216958e-24 0.013546375)
(0.013634675 -2.6201026e-06 -4.9617801e-25 0.013653794 6.6987381e-24 0.013643533)
(0.013634209 -1.2721217e-06 7.2041203e-21 0.013651526 1.2599062e-21 0.013643539)
(0.013503653 -5.5576067e-07 6.8998088e-21 0.01352338 1.2290987e-21 0.013512975)
(0.013603722 2.2174384e-08 7.6250889e-20 0.013603947 2.0520951e-20 0.013603712)
(0.013603661 -2.092093e-08 -1.405601e-22 0.013603378 2.7314545e-25 0.013603593)
(0.01357849 3.5990226e-08 1.1886946e-22 0.013578689 -2.8467591e-24 0.013578528)
(0.086022176 -2.1003726e-07 8.6845409e-20 0.086021569 2.4052961e-20 0.086021838)
(0.013904711 -2.095397e-06 -1.8603448e-22 0.013923699 -1.7843367e-23 0.01391058)
(0.013754243 -4.4118926e-06 2.0119567e-24 0.013773894 -5.363456e-24 0.01376192)
(0.013605962 -7.2225544e-06 -4.7346863e-21 0.013624451 -7.392522e-22 0.013616493)
(0.013536097 -5.4500954e-06 -1.9636338e-24 0.013554055 5.5660914e-24 0.013545808)
(0.013633893 -2.6745941e-06 -1.245459e-22 0.013653144 -2.4118165e-23 0.013642993)
(0.01363364 -1.5023651e-06 -3.6067224e-21 0.013650846 -6.44526e-22 0.013642881)
(0.013503696 -7.9331113e-07 -6.6978271e-21 0.013523294 -1.1946452e-21 0.013512857)
(0.01349332 -1.9440443e-06 -6.1429393e-21 0.013508375 -1.1627709e-21 0.013500775)
(0.013637851 -4.0807577e-07 1.9070402e-22 0.013649995 1.7265151e-23 0.013643965)
(0.0137255 -3.9405843e-07 3.4420077e-23 0.013740902 2.3317284e-23 0.013732169)
(0.013707736 -5.1223434e-07 9.2835486e-21 0.013717435 1.8860172e-21 0.013713159)
(0.013647292 2.576406e-06 9.4585888e-24 0.013657889 -1.7925034e-23 0.013651393)
(0.013618575 1.954135e-08 7.8697572e-21 0.01362928 1.6914885e-21 0.01362358)
(0.01361596 -4.4140764e-07 6.891588e-21 0.013619647 1.5220663e-21 0.013619601)
(0.013603658 6.1780108e-09 2.4653377e-20 0.013603787 6.5970121e-21 0.013603657)
(0.013603699 -1.6261069e-09 2.1715558e-20 0.013603757 5.8306442e-21 0.013603696)
(0.013603721 2.137044e-08 -3.7697469e-20 0.013603949 -1.0274828e-20 0.013603714)
(0.013603623 -1.9998557e-08 3.3567479e-20 0.013603349 9.1483713e-21 0.013603564)
(0.013578251 3.7473277e-08 -4.3051176e-25 0.013578468 -4.0006506e-24 0.013578306)
(0.086018467 -2.0846607e-07 -8.6506408e-20 0.086018028 -2.4063847e-20 0.086018293)
(0.014578062 -9.6653293e-06 -3.4237661e-21 0.014606315 -4.4956504e-22 0.014592379)
(0.014282089 -5.233448e-06 6.2986125e-21 0.014306068 9.0163696e-22 0.014291165)
(0.013902441 -1.9047115e-06 6.7901462e-25 0.013921548 -8.5202154e-24 0.013908242)
(0.013751667 -3.5912962e-06 2.3589289e-23 0.013771315 4.8648829e-24 0.013759119)
(0.013604771 -7.5496806e-06 4.794901e-21 0.013622742 7.6682486e-22 0.013614745)
(0.013535326 -5.3952731e-06 1.3798226e-22 0.013553553 1.7256316e-23 0.013545578)
(0.013633161 -2.7320625e-06 -1.2726423e-22 0.01365236 -2.0786395e-23 0.013642336)
(0.013632944 -1.3448378e-06 5.6654934e-25 0.013650084 6.0408116e-24 0.01364219)
(0.013503535 -8.2085916e-07 6.6803884e-21 0.013523276 1.2164255e-21 0.013512845)
(0.013493755 -2.0911624e-06 -9.5675388e-23 0.013508736 -2.6739545e-23 0.01350109)
(0.013638231 -2.8489734e-07 -5.5812417e-21 0.013650357 -1.0556826e-21 0.013644402)
(0.01372554 -2.8758097e-07 5.1981377e-21 0.01374096 1.0118366e-21 0.013732272)
(0.013707569 -5.8868344e-07 8.6165724e-23 0.013717421 -6.1324496e-24 0.013713196)
(0.013647331 2.4745094e-06 8.189415e-24 0.013657862 -2.4625507e-23 0.013651354)
(0.013618529 -4.6350829e-08 -1.5297089e-20 0.013629196 -3.3479654e-21 0.01362341)
(0.013616037 -6.0135343e-07 5.5108672e-24 0.013619606 -6.7267367e-24 0.013619629)
(0.013603674 -8.1633371e-10 3.15995e-20 0.013603715 8.423915e-21 0.013603674)
(0.013603669 -1.9437222e-09 -1.4555819e-22 0.013603737 -1.4280439e-24 0.013603669)
(0.013603659 5.8428723e-09 -2.4529963e-20 0.013603787 -6.600619e-21 0.013603657)
(0.013603699 -1.6863844e-09 -2.1517751e-20 0.013603757 -5.8424339e-21 0.013603697)
(0.01360372 2.0673854e-08 -2.5556659e-22 0.01360395 8.3544023e-24 0.013603714)
(0.013603608 -1.7350671e-08 -3.3280409e-20 0.013603358 -9.1554022e-21 0.013603573)
(0.013578241 3.8767959e-08 -1.1827147e-26 0.013578451 2.2409136e-24 0.013578289)
(0.086028622 -2.1191699e-07 -3.3473161e-22 0.086028217 1.2086823e-23 0.086028483)
(0.014210958 -1.3376423e-05 -3.1024011e-22 0.014237149 -2.4842899e-23 0.014227595)
(0.014422418 -1.3100644e-05 4.4263008e-21 0.01445064 5.9089069e-22 0.014439494)
(0.014573934 -1.0120702e-05 3.3594001e-21 0.014602624 4.5053977e-22 0.014589197)
(0.014278485 -5.9460273e-06 -3.0004061e-21 0.01430321 -4.4014235e-22 0.014288994)
(0.013900161 -2.3363855e-06 -1.8562566e-22 0.013919355 -2.5472096e-23 0.013906321)
(0.013749622 -3.1420063e-06 -2.5253503e-21 0.013768386 -3.7942056e-22 0.013755939)
(0.013603459 -6.5635644e-06 -1.0539028e-22 0.013621006 -2.224781e-23 0.013612891)
(0.013535068 -5.577288e-06 4.2019362e-23 0.013552825 -1.2878656e-24 0.01354493)
(0.013632324 -2.8511029e-06 1.4443253e-24 0.013651473 -3.3364048e-24 0.013641568)
(0.013632089 -1.3965146e-06 -3.5353e-21 0.013649295 -6.1206148e-22 0.013641434)
(0.013503681 -1.0380413e-06 6.6692275e-21 0.013523128 1.1704896e-21 0.013512651)
(0.013494146 -2.2771534e-06 -6.1155602e-21 0.013509098 -1.1542012e-21 0.013501492)
(0.013638744 -4.3161405e-07 -5.1075493e-23 0.013650679 -5.9777118e-25 0.013644737)
(0.013725576 -4.4020286e-07 -1.0213229e-20 0.013741035 -2.0230738e-21 0.013732282)
(0.013707543 -7.9717934e-07 8.5849376e-23 0.013717249 -1.2952581e-24 0.013713061)
(0.013647415 2.4479438e-06 -8.4485723e-21 0.013657752 -1.7181272e-21 0.013651282)
(0.013618406 1.8747269e-08 7.4878762e-21 0.01362911 1.6767901e-21 0.013623275)
(0.013616024 -7.8437807e-07 -5.4161947e-23 0.013619609 -1.5532616e-23 0.01361969)
(0.013615893 4.2976502e-06 4.9476893e-23 0.013624385 1.5541508e-23 0.013617294)
(0.013604009 1.453122e-06 1.1466857e-20 0.013614904 2.7496794e-21 0.013607584)
(0.013597518 -3.8507006e-06 -4.1679421e-25 0.013594159 -1.3705018e-24 0.013599604)
(0.013595166 -5.6273393e-07 9.3207192e-21 0.013594846 2.0628211e-21 0.013597514)
(0.013603646 2.9276989e-08 2.2641036e-20 0.013603766 6.0216269e-21 0.013603646)
(0.013603678 4.1204366e-09 1.9884611e-20 0.013603707 5.3606068e-21 0.013603678)
(0.013603678 -2.3714904e-11 1.3790305e-25 0.0136037 -5.936704e-24 0.013603678)
(0.013603673 -8.227955e-10 -3.1260736e-20 0.013603715 -8.4319845e-21 0.013603674)
(0.013603669 -2.0301961e-09 2.793115e-20 0.013603737 7.4620839e-21 0.013603669)
(0.01360366 5.3010404e-09 2.4650426e-20 0.013603787 6.5919476e-21 0.013603656)
(0.013603699 -1.8842946e-09 -1.0139014e-22 0.013603757 3.0240258e-24 0.013603696)
(0.013603717 2.0470312e-08 1.910251e-20 0.013603949 5.1279975e-21 0.013603713)
(0.0136036 -1.5672136e-08 -2.8218507e-22 0.013603365 9.3945008e-24 0.01360358)
(0.013578255 3.7426245e-08 1.1847169e-22 0.013578448 -4.2204788e-24 0.013578287)
(0.08601126 -2.1323117e-07 -3.3598055e-22 0.086010798 1.1179463e-23 0.086011064)
(0.014351889 -1.3142975e-05 2.608662e-21 0.014375109 3.1364905e-22 0.014365193)
(0.01420403 -1.2751478e-05 -2.7443136e-24 0.014227941 -1.0404869e-24 0.014218729)
(0.014208729 -1.3614996e-05 2.149631e-21 0.014234681 2.7394867e-22 0.014225157)
(0.014419968 -1.2877292e-05 1.0241703e-22 0.014447635 -5.7160617e-24 0.014436764)
(0.014569879 -1.1032951e-05 3.3102996e-23 0.014599248 -1.4482623e-24 0.014586074)
(0.014275454 -7.201952e-06 -2.3415013e-22 0.014300882 -2.8143176e-23 0.014286606)
(0.013897976 -3.057362e-06 1.8359064e-22 0.013917497 3.0172554e-23 0.013904369)
(0.013747017 -3.1140126e-06 2.6393049e-21 0.013765583 4.0694869e-22 0.013753057)
(0.013601865 -6.6911624e-06 -4.7237034e-23 0.01361931 -6.1196971e-24 0.0136111)
(0.013534404 -5.4950451e-06 -4.3149227e-21 0.013552252 -6.8679217e-22 0.01354451)
(0.013631206 -2.8270819e-06 -2.9190036e-22 0.013650505 -3.978277e-23 0.013640739)
(0.013631329 -1.4439621e-06 -3.4903808e-21 0.01364832 -5.9598778e-22 0.01364052)
(0.013503507 -1.0975226e-06 -8.1969679e-23 0.013523098 -3.8804074e-23 0.013512621)
(0.013494555 -2.6109193e-06 -2.0322974e-23 0.013509519 2.1106445e-23 0.013501858)
(0.013639185 -5.0729521e-07 -2.3430033e-25 0.013650997 3.289598e-24 0.013645125)
(0.013725535 -3.4640955e-07 4.9370051e-21 0.013741052 9.9306432e-22 0.013732344)
(0.013707296 -9.201207e-07 -9.2118554e-21 0.013717092 -1.888388e-21 0.013712961)
(0.013647319 2.4149376e-06 8.3652436e-21 0.013657686 1.7468108e-21 0.01365122)
(0.013618265 -7.1184874e-08 2.5185594e-25 0.013628998 -4.4720515e-24 0.013623066)
(0.01361605 -9.2358421e-07 -1.1485954e-22 0.01361955 -9.850136e-24 0.013619698)
(0.01361595 4.2913358e-06 5.0203337e-23 0.013624461 1.0798257e-23 0.013617428)
(0.013604084 1.4914621e-06 9.5723237e-23 0.013615067 -3.3358579e-24 0.013607615)
(0.013597485 -3.8888397e-06 4.3857565e-23 0.013594245 -1.5448572e-23 0.013599647)
(0.01359509 -5.9351728e-07 -9.1710183e-21 0.013594614 -2.0654537e-21 0.013597366)
(0.013602322 1.7243201e-06 1.672187e-22 0.013612097 1.0021542e-23 0.013603938)
(0.013611867 -3.0444353e-06 1.5397363e-20 0.013613349 3.8328185e-21 0.013614228)
(0.013615904 -8.4975375e-06 2.1112201e-25 0.013602168 -4.1160885e-24 0.013619518)
(0.013611449 -6.9292769e-06 9.1612631e-23 0.013600909 -3.1586985e-24 0.013616081)
(0.013603017 5.3463773e-07 1.399151e-20 0.013604992 3.7434676e-21 0.013603049)
(0.013603506 1.4128036e-07 1.5686054e-22 0.013604044 -1.0811024e-23 0.01360351)
(0.013603644 2.9275997e-08 -2.2496577e-20 0.013603766 -6.024664e-21 0.013603644)
(0.013603677 4.1107365e-09 1.0558657e-22 0.013603706 -3.6801079e-24 0.013603677)
(0.01360368 -2.8085864e-11 -1.9594278e-29 0.013603701 7.3292758e-28 0.013603679)
(0.013603674 -8.4250866e-10 -8.7712601e-23 0.013603715 -9.5996792e-25 0.013603674)
(0.013603669 -2.0669426e-09 -2.7640296e-20 0.013603736 -7.4693748e-21 0.013603668)
(0.013603658 5.8604764e-09 -4.9060506e-20 0.013603787 -1.3194778e-20 0.013603657)
(0.013603703 -2.2450726e-09 9.8726381e-23 0.013603755 -1.4625716e-24 0.013603694)
(0.013603714 2.0064628e-08 -1.8931955e-20 0.013603948 -5.1313058e-21 0.013603713)
(0.013603599 -1.535501e-08 3.3561973e-20 0.013603369 9.1440311e-21 0.013603584)
(0.013578254 3.75759e-08 -2.9379291e-20 0.013578436 -7.7809193e-21 0.013578274)
(0.086020361 -2.1590076e-07 8.6831222e-20 0.08601984 2.4056776e-20 0.086020105)
(0.014236749 -1.3191728e-05 -3.6321848e-22 0.014258643 -5.2813966e-23 0.014247562)
(0.014355803 -1.2255664e-05 -2.8136495e-21 0.014377811 -3.4315583e-22 0.014367262)
(0.014349615 -1.2158948e-05 -2.5311326e-21 0.014372108 -3.1097961e-22 0.014362163)
(0.014202386 -1.2152076e-05 -5.5932452e-26 0.01422577 6.3630329e-25 0.014216508)
(0.014207062 -1.2913612e-05 -2.3734226e-21 0.01423205 -3.1994747e-22 0.014222543)
(0.014417034 -1.3126824e-05 -5.7031603e-21 0.014444926 -7.4521269e-22 0.014434138)
(0.0145664 -1.194367e-05 -3.6072213e-23 0.014595772 1.0291921e-23 0.014582887)
(0.014272372 -8.1448295e-06 2.9841107e-23 0.014298636 -1.2355007e-24 0.014285056)
(0.013895731 -2.9866123e-06 -1.8209405e-22 0.013915676 -2.7095701e-23 0.013902906)
(0.013744607 -2.5808802e-06 3.8431255e-22 0.013762798 5.5033367e-23 0.013750043)
(0.01360063 -6.0059089e-06 4.8974689e-21 0.013617397 7.7247425e-22 0.013609084)
(0.013534084 -5.596903e-06 4.1383385e-21 0.013551566 6.6494053e-22 0.013543946)
(0.013630176 -3.1051502e-06 4.2060576e-21 0.013649315 6.9251782e-22 0.013639652)
(0.013630273 -1.4499794e-06 -6.9631353e-23 0.01364742 -7.3430125e-24 0.01363965)
(0.013503689 -1.3740435e-06 -6.7153943e-21 0.013522909 -1.1886056e-21 0.013512366)
(0.013495006 -2.6566318e-06 6.1201535e-21 0.013509885 1.1551941e-21 0.013502266)
(0.013639608 -4.5052939e-07 -4.7895127e-25 0.01365131 -4.3918919e-24 0.013645481)
(0.013725576 -4.4301754e-07 4.6322314e-23 0.013741046 -1.5587876e-24 0.013732274)
(0.013707091 -1.1229603e-06 -8.4005193e-23 0.013716852 2.8643519e-24 0.013712751)
(0.013647294 2.3097715e-06 6.630087e-23 0.013657506 1.7915706e-23 0.013651076)
(0.013618059 3.890549e-08 7.7654445e-21 0.013628849 1.6666585e-21 0.013622868)
(0.01361593 -1.0829627e-06 7.0831799e-21 0.013619517 1.5182567e-21 0.013619727)
(0.013615947 4.2822846e-06 -4.8940673e-23 0.013624498 -1.4355177e-23 0.013617515)
(0.013604156 1.5295911e-06 -9.5267021e-23 0.013615204 -1.2463262e-24 0.013607622)
(0.013597484 -3.9286523e-06 -1.0400603e-20 0.013594335 -2.4706931e-21 0.013599691)
(0.013595105 -6.191902e-07 -9.6266185e-21 0.013594484 -2.0699527e-21 0.013597321)
(0.013602058 1.7368972e-06 -8.3788575e-21 0.01361202 -1.9542926e-21 0.013603837)
(0.013611656 -2.981328e-06 -1.5224409e-20 0.013613186 -3.8532375e-21 0.013613929)
(0.0136156 -8.4316872e-06 -1.0437074e-22 0.013601873 7.5541213e-24 0.013619168)
(0.013611173 -6.934854e-06 3.5781395e-25 0.013600514 -1.6839156e-26 0.013615783)
(0.013604435 3.6733774e-08 -2.1353536e-23 0.013609684 -3.6569997e-24 0.013608036)
(0.013601516 4.3130279e-06 1.4041525e-22 0.013615907 -8.8552601e-24 0.013603206)
(0.013603564 3.4330144e-06 -1.7378891e-20 0.013615207 -4.04864e-21 0.01360415)
(0.013606682 1.5953723e-06 -2.6144598e-25 0.013612309 5.5295402e-24 0.013606835)
(0.013615056 5.3247845e-07 1.4266457e-20 0.013617048 3.7363937e-21 0.013615088)
(0.013603504 1.4090005e-07 -1.4452524e-22 0.013604047 9.5260537e-24 0.013603509)
(0.013603645 2.9269342e-08 2.2632942e-20 0.013603768 6.0205443e-21 0.013603646)
(0.013603675 4.1044875e-09 2.5348899e-26 0.013603704 -2.9141265e-24 0.013603675)
(0.01360368 -2.6834062e-11 8.7727218e-26 0.013603701 -1.7748926e-24 0.013603679)
(0.013603675 -9.0382424e-10 -1.5799203e-20 0.013603715 -4.2119775e-21 0.013603674)
(0.01360367 -2.0683325e-09 -1.423447e-22 0.013603736 8.7350221e-24 0.013603669)
(0.013603656 6.1959646e-09 2.4289908e-20 0.013603788 6.6049151e-21 0.013603658)
(0.013603708 -2.5746314e-09 -2.1720373e-20 0.013603752 -5.8396457e-21 0.013603691)
(0.013603712 2.0829173e-08 -8.7519599e-23 0.013603949 1.4327955e-24 0.013603713)
(0.013603601 -1.48431e-08 -3.327619e-20 0.013603369 -9.1521e-21 0.013603584)
(0.013578259 3.7722716e-08 2.9141143e-20 0.013578432 7.790484e-21 0.01357827)
(0.08600511 -2.1793362e-07 1.0021541e-21 0.086004539 -3.9336911e-23 0.086004805)
(0.01424884 -1.4728289e-05 -8.9413029e-22 0.014271057 -1.109512e-22 0.014259177)
(0.014311289 -1.410952e-05 4.1469065e-22 0.014333534 4.655497e-23 0.014321962)
(0.014234511 -1.2912468e-05 -1.5530428e-21 0.014255843 -1.7411977e-22 0.014244951)
(0.014352731 -1.2225658e-05 2.7662349e-21 0.014374159 3.436619e-22 0.014363762)
(0.014347261 -1.1771439e-05 -4.9641659e-23 0.014369071 -4.5082183e-24 0.01435919)
(0.014200817 -1.2020585e-05 0 0.014223579 0 0.014214273)
(0.014205039 -1.2506472e-05 -2.6593649e-23 0.014229791 7.6519502e-24 0.014220202)
(0.01441475 -1.3022578e-05 3.9113528e-21 0.014441941 5.3064657e-22 0.014431178)
(0.014563113 -1.2037575e-05 3.6679512e-21 0.014592484 4.8351592e-22 0.014579828)
(0.014269984 -9.404915e-06 -3.3100409e-21 0.014296771 -4.6890269e-22 0.014283284)
(0.013893774 -4.8998712e-06 -8.0438462e-26 0.013914156 9.8207152e-25 0.013901426)
(0.013742084 -2.6975239e-06 -2.7195067e-21 0.013760136 -4.1083487e-22 0.013747333)
(0.013598978 -5.575098e-06 -4.8062972e-21 0.01361572 -7.7252885e-22 0.013607255)
(0.013533605 -5.2905751e-06 -4.2855375e-21 0.013551029 -6.8845866e-22 0.013543484)
(0.013628816 -2.8986217e-06 -4.1691905e-21 0.013648127 -6.903457e-22 0.013638622)
(0.013629455 -1.5800279e-06 3.7724981e-21 0.013646366 6.6223614e-22 0.013638657)
(0.013503567 -1.3032159e-06 -2.7335995e-22 0.013522858 -3.8662997e-23 0.013512323)
(0.013495419 -2.9858356e-06 5.7614823e-23 0.013510336 -2.2167927e-24 0.013502689)
(0.013640072 -6.7430093e-07 3.5363988e-23 0.013651583 1.8124465e-23 0.013645811)
(0.013725439 -3.8297807e-07 -3.2763451e-23 0.013741038 -1.7548458e-23 0.013732294)
(0.013706774 -1.2275879e-06 1.0263382e-22 0.013716567 3.5731413e-23 0.013712524)
(0.013647082 2.3246323e-06 8.4602566e-21 0.013657358 1.7126032e-21 0.013650949)
(0.013617803 -6.8860291e-08 -1.5388928e-20 0.013628724 -3.3725577e-21 0.013622642)
(0.013615872 -1.2190935e-06 -1.3939174e-20 0.013619424 -3.0315755e-21 0.013619693)
(0.013615932 4.2688298e-06 5.3159632e-23 0.013624473 9.5809327e-24 0.013617557)
(0.013604213 1.5600544e-06 1.1725593e-20 0.013615297 2.7310524e-21 0.013607585)
(0.013597476 -3.9699538e-06 1.0234063e-20 0.013594393 2.4757465e-21 0.013599701)
(0.013595111 -6.4087873e-07 1.876895e-20 0.013594365 4.1431126e-21 0.013597288)
(0.013601888 1.7472334e-06 -8.6163911e-21 0.01361201 -1.9587267e-21 0.013603804)
(0.013611598 -2.9239485e-06 -1.1808131e-22 0.013613174 1.0144798e-23 0.013613782)
(0.013615336 -8.3630006e-06 1.3808453e-20 0.013601623 3.1285004e-21 0.013618863)
(0.013610899 -6.9389934e-06 -4.7320299e-23 0.013600126 -1.2303956e-23 0.013615492)
(0.013604126 -4.5686646e-08 2.140804e-23 0.013609271 -7.3141866e-25 0.013607745)
(0.013601157 4.2382289e-06 -1.9683611e-20 0.013615538 -3.6670256e-21 0.013602871)
(0.01360291 3.3992949e-06 -1.2168449e-22 0.013614588 1.0823766e-23 0.013603505)
(0.013605594 1.5847939e-06 1.5849411e-20 0.013611253 4.017182e-21 0.013605752)
(0.013607904 5.3007914e-07 2.7297667e-22 0.013609908 -8.0047008e-24 0.013607937)
(0.013603551 1.4050532e-07 2.5132236e-20 0.013604098 6.7500198e-21 0.013603556)
(0.013603645 2.9265432e-08 -4.5010756e-20 0.013603769 -1.2057235e-20 0.013603645)
(0.013603676 4.146746e-09 1.1528206e-22 0.013603706 2.1357704e-24 0.013603677)
(0.013603679 -2.5097774e-11 -1.0727891e-22 0.013603702 2.6106626e-24 0.01360368)
(0.013603675 -9.678926e-10 1.5723622e-20 0.013603715 4.2170495e-21 0.013603674)
(0.01360367 -1.9988538e-09 -6.7016729e-24 0.013603736 -3.4145406e-24 0.013603669)
(0.013603654 5.6163706e-09 1.2033216e-22 0.013603788 -2.0394171e-24 0.013603658)
(0.013603708 -2.5292229e-09 2.1515115e-20 0.013603752 5.8435438e-21 0.013603692)
(0.013603713 2.1061277e-08 2.3301382e-24 0.013603952 -1.083243e-24 0.013603716)
(0.013603601 -1.4801392e-08 -1.4160044e-22 0.013603364 4.9600294e-24 0.013603579)
(0.013578262 3.6409213e-08 1.180306e-22 0.013578429 -7.4249905e-24 0.013578267)
(0.086014266 -2.1573212e-07 -1.7364051e-19 0.086013657 -4.8096755e-20 0.086013919)
(0.014099812 -1.4681633e-05 -2.3988993e-21 0.014120979 -2.7986676e-22 0.014109047)
(0.014245934 -1.5008235e-05 -4.6799753e-22 0.014267625 -4.3092721e-23 0.014255844)
(0.014308334 -1.3837974e-05 4.057931e-22 0.014330205 5.8541467e-23 0.014318792)
(0.014232248 -1.2804294e-05 3.425976e-21 0.014253212 4.0576576e-22 0.014242448)
(0.014349797 -1.1812501e-05 -3.2183364e-22 0.014370699 -4.5568741e-23 0.014360332)
(0.014344831 -1.1487425e-05 2.5646782e-21 0.01436617 3.1946264e-22 0.014356232)
(0.014199453 -1.1337065e-05 -2.4539145e-24 0.014221332 -4.5640647e-24 0.014211983)
(0.014203457 -1.2565716e-05 2.6420157e-22 0.014227437 3.1241764e-23 0.014217876)
(0.014412321 -1.2768909e-05 -2.1990111e-21 0.01443908 -3.0169364e-22 0.014428395)
(0.014559806 -1.2623896e-05 -3.5976943e-21 0.014589495 -4.8864368e-22 0.01457699)
(0.014267658 -1.002932e-05 3.2153237e-21 0.014295097 4.7178389e-22 0.014282039)
(0.013891406 -4.5571238e-06 -1.8249639e-22 0.01391297 -2.4909667e-23 0.013900674)
(0.01373979 -2.5144547e-06 5.5079322e-21 0.013757593 8.3894964e-22 0.013744796)
(0.013597563 -5.2274921e-06 -9.2779326e-23 0.013613975 1.3597442e-24 0.01360545)
(0.013533334 -5.3578853e-06 4.3810326e-21 0.013550394 7.1776571e-22 0.01354296)
(0.013627577 -3.1605464e-06 4.0481377e-21 0.01364684 6.7689616e-22 0.013637403)
(0.013628449 -1.5560857e-06 3.6515392e-21 0.013645441 6.1161018e-22 0.01363776)
(0.013503725 -1.7151162e-06 1.0341932e-22 0.013522768 1.5362764e-23 0.013512149)
(0.013495988 -3.1436682e-06 -3.9309254e-23 0.013510778 -1.5782754e-23 0.013503135)
(0.013640428 -5.4013662e-07 5.7406445e-21 0.013651939 1.071547e-21 0.013646235)
(0.013725494 -4.5626397e-07 -5.2476871e-21 0.013741002 -1.0273451e-21 0.013732207)
(0.01370642 -1.4474333e-06 4.7668697e-21 0.013716254 9.6518374e-22 0.013712238)
(0.013646969 2.2070077e-06 -8.3025795e-21 0.013657079 -1.7405322e-21 0.013650703)
(0.013617557 4.4443098e-08 7.4952225e-21 0.013628552 1.698625e-21 0.013622417)
(0.013615696 -1.3560362e-06 1.3935111e-20 0.013619353 3.0616225e-21 0.013619692)
(0.013615858 4.2387084e-06 -6.4862848e-21 0.013624439 -1.4013316e-21 0.013617577)
(0.01360425 1.5908963e-06 -2.3077721e-20 0.013615359 -5.4631028e-21 0.013607514)
(0.01359743 -4.0060833e-06 8.3914226e-23 0.013594424 2.5955334e-24 0.013599685)
(0.013595073 -6.5742477e-07 -9.1420935e-21 0.013594225 -2.0755345e-21 0.013597235)
(0.013601735 1.7536153e-06 8.451398e-21 0.013611984 1.9705955e-21 0.013603758)
(0.013611599 -2.8710429e-06 -2.9582121e-23 0.013613223 -1.3467634e-23 0.013613697)
(0.013615185 -8.2922932e-06 -1.3654249e-20 0.013601491 -3.1216414e-21 0.013618674)
(0.013610681 -6.9412137e-06 -7.7877989e-25 0.013599796 2.5297399e-24 0.013615257)
(0.013603828 -1.2685096e-07 5.9463744e-23 0.013608871 -1.7873133e-24 0.013607468)
(0.013600807 4.1631454e-06 1.9405553e-20 0.013615176 3.6765457e-21 0.013602545)
(0.013602469 3.3650572e-06 1.046595e-22 0.013614183 -1.186376e-23 0.013603074)
(0.013604945 1.5741698e-06 2.2646611e-22 0.013610637 -9.3633259e-24 0.013605108)
(0.013606796 5.2756818e-07 -2.8447997e-20 0.013608815 -7.4721062e-21 0.013606831)
(0.013615214 1.4008838e-07 -2.5136167e-20 0.013615767 -6.7493347e-21 0.013615219)
(0.013603692 2.9260554e-08 2.224351e-20 0.013603817 6.0312102e-21 0.013603692)
(0.013603676 4.1888034e-09 -1.9995003e-20 0.013603706 -5.358877e-21 0.013603677)
(0.013603679 -4.0019816e-11 1.783632e-20 0.013603701 4.7522093e-21 0.01360368)
(0.013603675 -9.9828017e-10 -1.5709056e-20 0.013603715 -4.2151061e-21 0.013603674)
(0.01360367 -1.922401e-09 -1.0226414e-23 0.013603736 -1.1412794e-24 0.013603669)
(0.013603654 5.089394e-09 1.203746e-22 0.013603788 -3.7590581e-24 0.013603657)
(0.013603702 -2.0728253e-09 1.0405975e-22 0.013603755 -2.5374312e-24 0.013603695)
(0.013603713 2.0375789e-08 -8.5191769e-23 0.013603954 2.659162e-24 0.013603718)
(0.013603595 -1.5327081e-08 -1.0240561e-24 0.01360336 -2.7525532e-25 0.013603576)
(0.013578265 3.5461567e-08 4.4283395e-25 0.013578435 1.2028238e-25 0.013578273)
(0.085999047 -2.1822504e-07 -1.0019484e-21 0.085998408 3.1840208e-23 0.085998673)
(0.014140656 -1.5152692e-05 4.0492495e-23 0.014160761 -7.6083246e-25 0.014148368)
(0.014172193 -1.4747923e-05 1.0633536e-23 0.014192202 -1.9316382e-24 0.014179973)
(0.014097802 -1.4499462e-05 -5.204509e-22 0.014118379 -5.1837913e-23 0.014106378)
(0.014243233 -1.4635871e-05 9.0021766e-22 0.014264214 1.0879066e-22 0.0142525)
(0.014305613 -1.3695949e-05 1.2538039e-21 0.014326699 1.3647308e-22 0.014315498)
(0.01423 -1.3028173e-05 -3.0195101e-21 0.014250564 -3.6720591e-22 0.01423997)
(0.014346875 -1.1672726e-05 -1.7718943e-23 0.014367366 7.0650179e-24 0.014357165)
(0.014342523 -1.1033785e-05 -2.4332197e-22 0.014363204 -4.1248117e-23 0.014353362)
(0.014197855 -1.0621144e-05 2.9158247e-22 0.014219281 3.7830742e-23 0.014209843)
(0.014202178 -1.1588025e-05 2.8745746e-22 0.014225201 3.6856983e-23 0.014215515)
(0.014409888 -1.2462229e-05 1.7473634e-21 0.014436388 2.3021513e-22 0.014425696)
(0.014557361 -1.2589235e-05 -3.3309987e-23 0.014586263 3.1983195e-24 0.014573905)
(0.014265824 -1.1248116e-05 3.381257e-21 0.0142936 4.6350204e-22 0.014280823)
(0.013889989 -6.6424717e-06 -1.8535757e-22 0.013911808 -3.5074078e-23 0.013899633)
(0.01373749 -2.9872416e-06 -2.480163e-21 0.013755436 -3.7690786e-22 0.013742504)
(0.013596434 -4.6048194e-06 4.9102905e-21 0.013612353 7.7329793e-22 0.01360364)
(0.013532958 -5.0659256e-06 4.4165625e-23 0.013549852 -1.0590224e-23 0.013542457)
(0.013626258 -3.1746354e-06 -4.013126e-21 0.013645498 -6.8270401e-22 0.01363623)
(0.013627641 -1.9299359e-06 -3.6640497e-21 0.013644436 -6.3519548e-22 0.01363679)
(0.013503815 -1.6158743e-06 1.1036496e-24 0.013522766 -1.7338688e-24 0.013512142)
(0.01349652 -3.2746656e-06 -6.1378844e-21 0.013511354 -1.1568353e-21 0.013503736)
(0.013641001 -7.3564068e-07 -5.6015036e-21 0.013652275 -1.0527192e-21 0.013646632)
(0.013725412 -3.6041844e-07 4.9958494e-21 0.013741089 9.985024e-22 0.013732302)
(0.013706118 -1.5391559e-06 -4.5069369e-21 0.01371592 -9.3222217e-22 0.013711961)
(0.013646697 2.2107709e-06 -8.675365e-21 0.013656847 -1.7380385e-21 0.013650506)
(0.013617265 -3.1161331e-08 7.8985279e-21 0.013628418 1.6911472e-21 0.013622183)
(0.013615591 -1.5169953e-06 -6.8518667e-21 0.013619234 -1.5296668e-21 0.013619622)
(0.013615769 4.2179478e-06 1.2669652e-20 0.013624323 2.7514242e-21 0.013617534)
(0.013604263 1.6166496e-06 1.1351929e-20 0.01361539 2.7337839e-21 0.013607417)
(0.013597316 -4.0378685e-06 1.2189543e-25 0.013594429 -7.5694043e-24 0.013599642)
(0.013594995 -6.7253894e-07 -9.5247399e-21 0.013594048 -2.067675e-21 0.013597145)
(0.013601565 1.755838e-06 3.3511701e-23 0.013611915 -7.0745391e-24 0.013603668)
(0.013611587 -2.8222546e-06 -5.5430063e-25 0.013613262 3.8304626e-24 0.013613601)
(0.013615196 -8.2194384e-06 1.3718825e-20 0.013601524 3.1465238e-21 0.01361865)
(0.013610603 -6.9420597e-06 4.7682326e-25 0.013599606 -6.0671875e-24 0.013615161)
(0.013603598 -2.068037e-07 -1.0916368e-20 0.013608543 -1.7130875e-21 0.013607262)
(0.013600479 4.087673e-06 2.1065543e-22 0.013614835 -7.6985958e-24 0.013602241)
(0.013602089 3.3305363e-06 -1.7649952e-20 0.013613839 -4.0336886e-21 0.013602704)
(0.013604498 1.563453e-06 -1.5854304e-20 0.013610225 -4.0110908e-21 0.013604669)
(0.013606156 5.2503992e-07 1.4012068e-20 0.01360819 3.7517121e-21 0.013606193)
(0.013608295 1.3960611e-07 1.3228118e-22 0.013608852 -1.3645061e-23 0.0136083)
(0.013614977 2.9211417e-08 2.8074914e-22 0.013615103 -5.3682773e-24 0.013614977)
(0.013603723 4.134399e-09 1.5588481e-25 0.013603753 -2.0777943e-24 0.013603724)
(0.01360368 -6.7132819e-11 -1.7559161e-20 0.013603702 -4.7639949e-21 0.01360368)
(0.013603676 -1.0188522e-09 1.5725447e-20 0.013603715 4.21949e-21 0.013603674)
(0.013603669 -1.8256984e-09 -3.3738638e-24 0.013603736 -4.8569599e-24 0.013603669)
(0.013603653 5.4591673e-09 -2.4529671e-20 0.013603788 -6.5984108e-21 0.013603657)
(0.013603699 -1.6557578e-09 -3.4164381e-26 0.013603758 3.6592209e-24 0.013603697)
(0.013603713 2.0319727e-08 1.9102406e-20 0.013603955 5.1281108e-21 0.013603719)
(0.013603588 -1.4663667e-08 2.0378439e-24 0.013603363 -8.3173232e-25 0.013603578)
(0.013578268 3.506866e-08 -2.5930387e-27 0.013578439 1.6383368e-24 0.013578277)
(0.086007905 -2.1756969e-07 8.6809142e-20 0.086007281 2.4046101e-20 0.086007543)
(0.014139211 -1.5114822e-05 -1.7496934e-21 0.014158768 -1.8599604e-22 0.014146567)
(0.014170096 -1.5078379e-05 1.0440509e-23 0.014189636 8.1207404e-24 0.014177414)
(0.01409594 -1.4469548e-05 9.6993758e-22 0.014115934 1.0954379e-22 0.014103906)
(0.014240762 -1.4200743e-05 -4.417492e-22 0.014260763 -5.6093447e-23 0.014249215)
(0.014302732 -1.3814768e-05 -3.6547918e-22 0.014323347 -4.4018452e-23 0.014312162)
(0.014227726 -1.299082e-05 1.8792235e-21 0.014247895 2.3226386e-22 0.014237416)
(0.014344066 -1.1500374e-05 1.4008428e-21 0.01436416 1.5566915e-22 0.014354116)
(0.014340249 -1.0893416e-05 -5.1365393e-21 0.014360318 -6.4302707e-22 0.014350532)
(0.014196424 -1.0507317e-05 2.7948928e-23 0.014217095 5.9526938e-24 0.014207694)
(0.014200595 -1.1133839e-05 -1.8694688e-21 0.014223275 -2.5021751e-22 0.014213543)
(0.014407901 -1.186548e-05 -3.9617873e-21 0.014433599 -5.244119e-22 0.014422856)
(0.014554413 -1.2732647e-05 -2.2764768e-22 0.014583409 -3.4355182e-23 0.014571043)
(0.014264491 -1.1653939e-05 -6.5763285e-21 0.014292201 -9.3440638e-22 0.014279578)
(0.013888195 -7.0678596e-06 -2.9571193e-23 0.013910999 1.3285183e-23 0.013899294)
(0.013735222 -3.0391582e-06 2.8185498e-21 0.013753364 4.2817847e-22 0.013740716)
(0.013594926 -4.2991156e-06 -4.9944244e-21 0.013611071 -7.9989374e-22 0.013602371)
(0.013532561 -4.6599225e-06 -1.79736e-22 0.013549322 -1.6015165e-23 0.01354198)
(0.013624922 -3.0448888e-06 8.7298436e-23 0.013644248 2.215408e-23 0.013635003)
(0.013626739 -1.7257014e-06 -3.4729894e-23 0.013643507 9.4024975e-25 0.013635924)
(0.013504032 -1.8914602e-06 9.7512827e-25 0.013522789 4.6363891e-26 0.013512114)
(0.013497242 -3.5032536e-06 -2.1585164e-23 0.013512003 2.4924985e-23 0.013504354)
(0.013641429 -6.7205704e-07 5.5724008e-21 0.013652784 1.0427372e-21 0.013647213)
(0.013725531 -4.5455915e-07 -7.1875828e-25 0.013741162 -8.0999801e-25 0.013732334)
(0.013705789 -1.792884e-06 4.6179386e-21 0.01371567 9.6056184e-22 0.013711732)
(0.0136466 2.12617e-06 8.3865386e-21 0.013656583 1.7319612e-21 0.013650274)
(0.013617094 4.1191698e-08 -7.5792042e-21 0.013628282 -1.6749492e-21 0.013621986)
(0.013615467 -1.6180152e-06 -5.4412802e-23 0.013619195 -1.3913863e-23 0.013619661)
(0.013615612 4.160523e-06 -1.2667483e-20 0.013624211 -2.7672373e-21 0.013617483)