/*--------------------------------*- C++ -*----------------------------------*\
| =========                 |                                                 |
| \\      /  F ield         | OpenFOAM: The Open Source CFD Toolbox           |
|  \\    /   O peration     | Version:  2506                                  |
|   \\  /    A nd           | Website:  www.openfoam.com                      |
|    \\/     M anipulation  |                                                 |
\*---------------------------------------------------------------------------*/
FoamFile
{
    version     2.0;
    format      ascii;
    arch        "LSB;label=32;scalar=64";
    class       volScalarField;
    location    "0.0025";
    object      k;
}
// * * * * * * * * * * * * * * * * * * * * * * * * * * * * * * * * * * * * * //

dimensions      [0 2 -2 0 0 0 0];

internalField   nonuniform List<scalar> 
13761
(
0.083558416
0.083558337
0.083558337
0.083558337
0.083558337
0.083558337
0.083558337
0.08355836
0.083558408
0.083563026
0.087011333
0.083558388
0.083558337
0.083558337
0.083558337
0.083558337
0.083558337
0.083558337
0.083558361
0.083558411
0.083562901
0.082748613
0.083558357
0.083558337
0.083558337
0.083558337
0.083558337
0.083558337
0.083558337
0.083558361
0.08355841
0.083562901
0.084019327
0.083558417
0.083558337
0.083558337
0.083558337
0.083558337
0.083558337
0.083558337
0.083558337
0.083558361
0.083558409
0.083562902
0.084019637
0.083558405
0.083558337
0.083558337
0.083558337
0.083558337
0.083558337
0.083558337
0.083558337
0.083558362
0.083558408
0.083562906
0.084020595
0.083558364
0.083558337
0.083558337
0.083558337
0.083558337
0.083558337
0.083558337
0.083558337
0.083558362
0.083558407
0.083563
0.084021406
0.083558442
0.083558337
0.083558337
0.083558337
0.083558337
0.083558337
0.083558337
0.083558337
0.083558337
0.083558362
0.083558406
0.083563626
0.08402214
0.083558425
0.083558337
0.083558337
0.083558337
0.083558337
0.083558337
0.083558337
0.083558337
0.083558337
0.083558363
0.083558406
0.083565158
0.084022869
0.083558372
0.083558337
0.083558337
0.083558337
0.083558337
0.083558337
0.083558337
0.083558337
0.083558337
0.083558363
0.083558408
0.083566952
0.08402325
0.083558523
0.083558337
0.083558337
0.083558337
0.083558337
0.083558337
0.083558337
0.083558337
0.083558337
0.083558337
0.083558363
0.083558487
0.083568158
0.084023499
0.083558503
0.083558337
0.083558337
0.083558337
0.083558337
0.083558337
0.083558337
0.083558337
0.083558337
0.083558337
0.083558363
0.08355908
0.083568635
0.084023375
0.083558437
0.083558337
0.083558337
0.083558337
0.083558337
0.083558337
0.083558337
0.083558337
0.083558337
0.083558337
0.083558363
0.083560592
0.083568713
0.084019681
0.083558382
0.083558337
0.083558337
0.083558337
0.083558337
0.083558337
0.083558337
0.083558337
0.083558337
0.083558337
0.083558363
0.083562406
0.083568483
0.084009292
0.0835585
0.083558337
0.083558337
0.083558337
0.083558337
0.083558337
0.083558337
0.083558337
0.083558337
0.083558337
0.083558337
0.083558365
0.083563665
0.083567995
0.084015889
0.083558472
0.083558337
0.083558337
0.083558337
0.083558337
0.083558337
0.083558337
0.083558337
0.083558337
0.083558337
0.083558337
0.083558432
0.083564188
0.083567777
0.084023585
0.08355839
0.083558337
0.083558337
0.083558337
0.083558337
0.083558337
0.083558337
0.083558337
0.083558337
0.083558337
0.083558337
0.083558956
0.083564285
0.083567756
0.084020805
0.083558533
0.083558337
0.083558337
0.083558337
0.083558337
0.083558337
0.083558337
0.083558337
0.083558337
0.083558337
0.083558337
0.083558337
0.083560397
0.083564086
0.083568073
0.084045079
0.083558498
0.083558337
0.083558337
0.083558337
0.083558337
0.083558337
0.083558337
0.083558337
0.083558337
0.083558337
0.083558337
0.083558337
0.083562236
0.083563533
0.08356883
0.084031781
0.0835584
0.083558337
0.083558337
0.083558337
0.083558337
0.083558337
0.083558337
0.083558337
0.083558337
0.083558337
0.083558337
0.083558338
0.083563593
0.083563221
0.083569503
0.084024926
0.083558568
0.083558337
0.083558337
0.083558337
0.083558337
0.083558337
0.083558337
0.083558337
0.083558337
0.083558337
0.083558337
0.083558336
0.083558382
0.083564206
0.083563161
0.083570031
0.084025923
0.083558527
0.083558337
0.083558337
0.083558337
0.083558337
0.083558337
0.083558337
0.083558337
0.083558337
0.083558337
0.083558337
0.083558336
0.083558805
0.08356434
0.083563314
0.0835708
0.08404775
0.083558411
0.083558337
0.083558337
0.083558337
0.083558337
0.083558337
0.083558337
0.083558337
0.083558337
0.083558337
0.083558337
0.083558336
0.083560122
0.083564216
0.083563961
0.083572264
0.08355849
0.083558338
0.083558337
0.083558337
0.083558337
0.083558337
0.083558337
0.083558337
0.083558337
0.083558337
0.083558337
0.083558337
0.083558337
0.08356197
0.083563638
0.083564655
0.083574168
0.083558438
0.083558338
0.083558338
0.083558337
0.083558337
0.083558337
0.083558337
0.083558337
0.083558337
0.083558337
0.083558337
0.083558336
0.083558365
0.083563456
0.08356321
0.083565154
0.083576227
0.083558647
0.083558338
0.083558338
0.083558338
0.083558337
0.083558337
0.083558337
0.083558337
0.083558337
0.083558337
0.083558337
0.083558337
0.083558336
0.083558686
0.083564204
0.083563094
0.083565634
0.083578266
0.083558592
0.083558337
0.083558338
0.083558338
0.083558337
0.083558337
0.083558337
0.083558337
0.083558337
0.083558337
0.083558337
0.083558337
0.083558336
0.083559848
0.083564402
0.08356313
0.083566554
0.083579895
0.083558436
0.083558337
0.083558338
0.083558338
0.083558338
0.083558337
0.083558337
0.083558337
0.083558337
0.083558337
0.083558337
0.083558337
0.083558336
0.083561671
0.083564361
0.083563604
0.083568101
0.083558694
0.083558338
0.083558337
0.083558338
0.083558338
0.083558338
0.083558337
0.083558337
0.083558337
0.083558337
0.083558337
0.083558337
0.083558336
0.083558336
0.083563275
0.083563826
0.08356431
0.083569961
0.08355863
0.083558338
0.083558337
0.083558338
0.083558338
0.083558338
0.083558337
0.083558337
0.083558337
0.083558337
0.083558337
0.083558337
0.083558336
0.083558348
0.083564166
0.083563266
0.083564845
0.083571944
0.083558451
0.083558338
0.083558337
0.083558338
0.083558338
0.083558338
0.083558337
0.083558337
0.083558337
0.083558337
0.083558337
0.083558337
0.083558336
0.083558548
0.083564452
0.08356305
0.083565244
0.083573894
0.083558568
0.083558339
0.083558338
0.083558337
0.083558338
0.083558338
0.083558337
0.083558337
0.083558337
0.083558337
0.083558337
0.083558337
0.083558337
0.083558336
0.08355947
0.083564465
0.083563025
0.083565767
0.083575463
0.083558489
0.083558339
0.083558338
0.083558337
0.083558338
0.083558338
0.083558337
0.083558337
0.083558337
0.083558337
0.083558337
0.083558337
0.083558337
0.083558336
0.083561202
0.083564041
0.083563277
0.083566844
0.083558598
0.083558339
0.083558339
0.083558338
0.083558337
0.083558338
0.083558338
0.083558337
0.083558337
0.083558337
0.083558337
0.083558337
0.083558337
0.083558336
0.083558341
0.083562948
0.083563389
0.083563935
0.083568418
0.083558509
0.083558339
0.083558339
0.083558338
0.083558337
0.083558338
0.083558338
0.083558337
0.083558337
0.083558337
0.083558337
0.083558337
0.083558337
0.083558336
0.083558453
0.083564058
0.083563064
0.083564532
0.08357024
0.083558856
0.083558339
0.083558339
0.083558339
0.083558338
0.083558337
0.083558338
0.083558338
0.083558337
0.083558337
0.083558337
0.083558337
0.083558337
0.083558337
0.083558336
0.083559136
0.083564498
0.083562996
0.083564947
0.083572156
0.083558763
0.083558339
0.083558339
0.083558339
0.083558338
0.083558337
0.083558338
0.083558338
0.083558337
0.083558337
0.083558337
0.083558337
0.083558337
0.083558337
0.083558336
0.083560704
0.083564575
0.083563093
0.083565315
0.083574033
0.083558501
0.083558339
0.083558339
0.083558339
0.083558338
0.083558337
0.083558338
0.083558338
0.083558337
0.083558337
0.083558337
0.083558337
0.083558337
0.083558337
0.083558336
0.083562532
0.083564341
0.08356363
0.083565939
0.083575552
0.083558669
0.083558338
0.083558338
0.083558339
0.083558338
0.083558338
0.083558338
0.083558338
0.083558338
0.083558337
0.083558337
0.083558337
0.083558337
0.083558337
0.083558337
0.083558337
0.083563848
0.083563644
0.083564266
0.083567123
0.083558556
0.083558338
0.083558338
0.083558339
0.083558338
0.083558338
0.083558338
0.083558338
0.083558337
0.083558337
0.083558337
0.083558337
0.083558337
0.083558337
0.083558336
0.08355838
0.083564458
0.083563149
0.083564721
0.083568699
0.083558707
0.083558339
0.083558339
0.083558338
0.083558338
0.083558338
0.083558338
0.083558338
0.083558338
0.083558338
0.083558337
0.083558337
0.083558337
0.083558337
0.083558337
0.083558336
0.083558788
0.083564602
0.083562989
0.083565054
0.083570485
0.083558581
0.08355834
0.083558339
0.083558338
0.083558338
0.083558339
0.083558338
0.083558338
0.083558338
0.083558338
0.083558337
0.083558337
0.083558337
0.083558337
0.083558337
0.083558336
0.083560062
0.083564522
0.083562983
0.083565433
0.083572338
0.083558463
0.08355834
0.08355834
0.083558339
0.083558338
0.083558337
0.083558339
0.083558338
0.083558338
0.083558338
0.083558338
0.083558337
0.083558337
0.083558337
0.083558337
0.083558337
0.083558336
0.083561905
0.083563909
0.083563284
0.083566177
0.083574149
0.083558793
0.083558339
0.083558341
0.08355834
0.083558339
0.083558338
0.083558337
0.083558338
0.083558338
0.083558338
0.083558338
0.083558338
0.083558337
0.083558337
0.083558337
0.083558337
0.083558337
0.08355835
0.08356348
0.083563283
0.083563915
0.083567427
0.083575627
0.083558637
0.083558338
0.083558341
0.08355834
0.083558339
0.083558339
0.083558337
0.083558338
0.083558338
0.083558338
0.083558338
0.083558338
0.083558337
0.083558337
0.083558337
0.083558337
0.083558336
0.08355856
0.083564363
0.083563015
0.083564452
0.083569003
0.083558802
0.083558337
0.083558338
0.08355834
0.08355834
0.08355834
0.083558339
0.083558338
0.083558338
0.083558338
0.083558338
0.083558338
0.083558338
0.083558337
0.083558337
0.083558337
0.083558337
0.083558336
0.083559492
0.083564666
0.083562965
0.083564822
0.083570753
0.083558628
0.083558338
0.083558338
0.08355834
0.08355834
0.08355834
0.083558339
0.083558338
0.083558338
0.083558337
0.083558338
0.083558338
0.083558338
0.083558338
0.083558337
0.083558337
0.083558337
0.083558336
0.083561212
0.083564695
0.083563089
0.083565132
0.083572548
0.083558113
0.083558298
0.083558339
0.083558339
0.083558339
0.08355834
0.08355834
0.08355834
0.083558339
0.083558338
0.083558337
0.083558338
0.083558338
0.083558337
0.083558338
0.083558337
0.083558337
0.083558337
0.083558335
0.083562961
0.083564324
0.083563622
0.083565563
0.083574301
0.083556861
0.083557944
0.083558298
0.083558339
0.08355834
0.083558339
0.08355834
0.08355834
0.083558339
0.083558339
0.083558338
0.083558337
0.083558338
0.083558338
0.083558337
0.083558338
0.083558337
0.083558337
0.083558336
0.083558338
0.08356411
0.08356358
0.083564206
0.083566406
0.083575741
0.083556645
0.083557943
0.083558298
0.083558339
0.08355834
0.083558338
0.08355834
0.08355834
0.083558339
0.083558339
0.083558338
0.083558337
0.083558338
0.083558338
0.083558337
0.083558338
0.083558337
0.083558337
0.083558336
0.083558409
0.083564597
0.083563114
0.083564618
0.083567687
0.083551698
0.083556238
0.083557942
0.083558298
0.083558339
0.083558341
0.083558338
0.08355834
0.08355834
0.083558339
0.083558339
0.083558338
0.083558337
0.083558337
0.083558337
0.083558337
0.083558338
0.083558337
0.083558337
0.083558336
0.083558938
0.083564698
0.083562969
0.083564919
0.083569256
0.08354054
0.083551491
0.083556237
0.083557942
0.083558298
0.083558339
0.083558341
0.083558338
0.08355834
0.08355834
0.083558339
0.083558338
0.083558338
0.083558337
0.083558338
0.083558338
0.083558337
0.083558338
0.083558337
0.083558337
0.083558336
0.083560345
0.083564557
0.083562963
0.083565224
0.083570968
0.083517527
0.083540349
0.083551493
0.083556233
0.083557941
0.083558298
0.083558339
0.083558341
0.083558338
0.08355834
0.08355834
0.083558339
0.083558339
0.083558338
0.083558338
0.083558338
0.083558338
0.083558337
0.083558338
0.083558337
0.083558337
0.083558336
0.083562189
0.083563888
0.083563244
0.083565722
0.083572712
0.083467899
0.08351742
0.083540349
0.083551483
0.083556229
0.08355794
0.083558297
0.083558339
0.083558341
0.083558338
0.08355834
0.08355834
0.083558339
0.083558339
0.083558338
0.083558338
0.083558338
0.083558338
0.083558337
0.083558338
0.083558337
0.083558337
0.083558354
0.083563679
0.083563275
0.083563835
0.083566645
0.083574416
0.083345238
0.083467773
0.083517395
0.083540331
0.083551474
0.083556225
0.083557938
0.083558297
0.083558339
0.083558342
0.083558338
0.08355834
0.08355834
0.083558339
0.083558339
0.083558338
0.083558338
0.083558338
0.083558338
0.083558337
0.083558338
0.083558337
0.083558336
0.083558596
0.083564488
0.083563017
0.083564344
0.083567953
0.083575825
0.083084757
0.083345057
0.083467691
0.08351736
0.083540311
0.083551466
0.083556222
0.083557937
0.083558297
0.083558339
0.083558342
0.083558338
0.08355834
0.083558339
0.083558339
0.083558339
0.083558338
0.083558338
0.083558338
0.083558338
0.083558337
0.083558338
0.083558337
0.083558336
0.083559582
0.083564756
0.083562968
0.083564697
0.08356952
0.082583673
0.083084479
0.08334483
0.083467602
0.083517327
0.083540291
0.083551457
0.083556219
0.083557935
0.083558296
0.083558339
0.083558342
0.083558338
0.083558339
0.083558339
0.083558339
0.083558339
0.083558338
0.083558339
0.083558338
0.083558338
0.083558337
0.083558338
0.083558337
0.083558336
0.083561316
0.083564778
0.08356307
0.083564983
0.083571195
0.081743681
0.082583115
0.083084007
0.083344585
0.083467529
0.08351729
0.083540271
0.08355145
0.083556215
0.083557934
0.083558296
0.083558339
0.083558341
0.083558338
0.083558339
0.083558339
0.083558339
0.083558339
0.083558337
0.083558339
0.083558338
0.083558338
0.083558337
0.083558338
0.083558337
0.083558339
0.083563049
0.083564392
0.083563555
0.083565312
0.083572891
0.080565965
0.081742545
0.082582154
0.083083565
0.083344355
0.083467462
0.083517248
0.083540254
0.083551444
0.083556212
0.083557934
0.083558296
0.083558339
0.08355834
0.083558338
0.083558339
0.083558339
0.083558339
0.083558339
0.083558337
0.083558338
0.083558338
0.083558338
0.083558337
0.083558337
0.083558337
0.083558413
0.083564197
0.083563634
0.083564108
0.083565876
0.083574551
0.07817761
0.079250472
0.080564065
0.081740864
0.082581316
0.08308314
0.083344137
0.083467392
0.083517208
0.083540241
0.083551438
0.083556209
0.083557933
0.083558296
0.083558339
0.08355834
0.083558338
0.08355834
0.08355834
0.08355834
0.083558339
0.083558337
0.083558338
0.083558338
0.083558338
0.083558337
0.083558337
0.083558337
0.083558947
0.083564702
0.083563146
0.083564505
0.083566847
0.083575934
0.077776064
0.078179151
0.079248711
0.080561701
0.081739391
0.082580505
0.083082727
0.083343939
0.083467311
0.083517175
0.083540229
0.083551433
0.083556206
0.083557932
0.083558296
0.083558338
0.08355834
0.083558339
0.08355834
0.08355834
0.08355834
0.083558339
0.083558337
0.083558338
0.083558338
0.083558338
0.083558337
0.083558337
0.083558337
0.083560351
0.083564818
0.083562981
0.083564791
0.083568169
0.078728503
0.078173239
0.077783228
0.078179606
0.079246656
0.080559582
0.081737971
0.082579744
0.083082319
0.083343759
0.083467228
0.083517148
0.083540216
0.083551428
0.083556203
0.083557931
0.083558295
0.083558338
0.08355834
0.08355834
0.08355834
0.08355834
0.08355834
0.083558339
0.083558337
0.083558338
0.083558338
0.083558338
0.083558338
0.083558337
0.083558354
0.083562204
0.083564722
0.083562962
0.08356506
0.08356972
0.079383661
0.078686386
0.078722906
0.078723198
0.078179184
0.077787897
0.07818029
0.079244805
0.080557528
0.08173668
0.082579031
0.08308193
0.083343595
0.083467152
0.083517125
0.083540202
0.083551422
0.083556201
0.083557931
0.083558295
0.083558338
0.08355834
0.08355834
0.08355834
0.08355834
0.08355834
0.083558339
0.083558337
0.083558338
0.083558338
0.083558338
0.083558338
0.083558336
0.083558587
0.083563735
0.083564079
0.083563161
0.083565418
0.083571362
0.081201921
0.080289185
0.079241025
0.078624781
0.078702208
0.0787179
0.078183284
0.077793247
0.078180815
0.079242988
0.080555634
0.081735491
0.082578359
0.083081576
0.083343437
0.083467085
0.083517101
0.083540187
0.083551416
0.083556198
0.083557929
0.083558294
0.083558338
0.08355834
0.08355834
0.08355834
0.08355834
0.08355834
0.083558339
0.083558337
0.083558338
0.083558338
0.083558338
0.083558338
0.083558336
0.08355954
0.083564603
0.083563396
0.083563696
0.083566047
0.083573018
0.08200287
0.081490404
0.081595488
0.081729102
0.081052722
0.080067873
0.079104219
0.078565583
0.078680591
0.078715216
0.078189187
0.077798398
0.078181317
0.079241275
0.080553884
0.081734398
0.082577724
0.083081261
0.083343275
0.08346703
0.083517076
0.083540173
0.08355141
0.083556195
0.083557928
0.083558294
0.083558338
0.083558339
0.08355834
0.08355834
0.083558341
0.08355834
0.083558339
0.083558338
0.083558338
0.083558338
0.083558338
0.083558337
0.083558336
0.083561236
0.083564914
0.083563064
0.083564203
0.083567064
0.083574643
0.087084011
0.085060468
0.08336067
0.082488518
0.082257266
0.081920584
0.081436332
0.081676497
0.081764301
0.080828765
0.079840281
0.078986492
0.078518764
0.078664813
0.078714301
0.078195721
0.07780349
0.078181776
0.079239652
0.080552286
0.081733381
0.082577126
0.083080981
0.083343105
0.08346699
0.08351705
0.083540156
0.083551404
0.083556193
0.083557927
0.083558294
0.083558338
0.083558339
0.08355834
0.08355834
0.08355834
0.083558339
0.083558339
0.083558338
0.083558339
0.083558338
0.083558338
0.083558337
0.083558338
0.083562965
0.083564954
0.083562982
0.083564562
0.083568409
0.083576003
0.087224312
0.086499833
0.086034103
0.085774171
0.08668089
0.088390683
0.089040987
0.088487548
0.087051235
0.085004336
0.083296032
0.082479003
0.08225416
0.081802957
0.081410784
0.081769501
0.081759637
0.08056577
0.079628728
0.078886653
0.078482117
0.078653328
0.078715059
0.078203055
0.077808428
0.078182224
0.079238162
0.080550831
0.081732409
0.082576569
0.083080727
0.083342939
0.083466954
0.083517026
0.083540139
0.083551399
0.083556191
0.083557926
0.083558294
0.083558338
0.083558339
0.08355834
0.08355834
0.08355834
0.083558339
0.083558339
0.083558339
0.083558339
0.083558338
0.083558338
0.083558337
0.083558395
0.083564152
0.083564624
0.083563004
0.083564842
0.083569951
0.093980726
0.094571539
0.094924024
0.09508429
0.095189479
0.095137753
0.094739375
0.093771588
0.092753448
0.092689471
0.091303568
0.087476872
0.08806426
0.09134861
0.090272267
0.086779065
0.08781482
0.093105426
0.099071999
0.099540977
0.097881984
0.094775112
0.091384335
0.088584795
0.087480247
0.0868997
0.087137782
0.087953972
0.087593774
0.087180168
0.087858738
0.087912397
0.08718897
0.086465459
0.086006098
0.085745319
0.086656467
0.088370455
0.089005556
0.08844622
0.087000658
0.084927346
0.083242867
0.08247407
0.082184381
0.081686807
0.081410017
0.081906957
0.08164057
0.080277327
0.079437762
0.078805122
0.078454536
0.078645493
0.078717068
0.078210948
0.0778132
0.078182681
0.079236837
0.080549513
0.081731463
0.082576062
0.083080493
0.083342795
0.08346691
0.083517001
0.083540128
0.083551394
0.083556189
0.083557925
0.083558294
0.083558338
0.083558339
0.08355834
0.08355834
0.08355834
0.083558338
0.083558339
0.083558339
0.083558338
0.083558338
0.083558338
0.083558337
0.083558852
0.08356471
0.083563818
0.08356334
0.083565128
0.083571559
0.093263686
0.093938988
0.094528999
0.094878574
0.095038104
0.095141714
0.095091067
0.094691757
0.093722751
0.09270502
0.092646788
0.091253141
0.087422246
0.088026897
0.091326297
0.090230527
0.08672596
0.087782565
0.093089474
0.099037265
0.099489888
0.097817366
0.094710069
0.091324147
0.088537637
0.087439565
0.086867257
0.08710476
0.08792615
0.087561506
0.087145858
0.087833473
0.087882763
0.087147177
0.086422096
0.085966921
0.085705206
0.086615652
0.088332127
0.088954324
0.088387667
0.08694303
0.084852618
0.083215159
0.082471452
0.082071654
0.081610596
0.081472142
0.082045286
0.081410037
0.079985237
0.07927314
0.078741496
0.078434501
0.078640621
0.078720164
0.078219227
0.077817788
0.078183122
0.079235691
0.080548319
0.081730531
0.082575607
0.083080275
0.083342679
0.083466845
0.083516986
0.083540121
0.08355139
0.083556187
0.083557925
0.083558293
0.083558337
0.083558339
0.08355834
0.08355834
0.083558339
0.083558338
0.083558339
0.083558339
0.083558338
0.083558338
0.083558338
0.083558337
0.083560154
0.083564855
0.083563219
0.083563882
0.083565523
0.083573178
0.09212166
0.092564133
0.093222159
0.093889223
0.094477311
0.094823638
0.094982105
0.095084126
0.095033669
0.094633287
0.093662914
0.092646397
0.092593809
0.091191493
0.087358833
0.087982957
0.09129606
0.090178772
0.086665149
0.087744398
0.093071583
0.098995066
0.099430621
0.097743881
0.094637553
0.091256494
0.088484036
0.087392133
0.086827345
0.087064406
0.087889216
0.087521817
0.087101918
0.087799338
0.087842361
0.087105907
0.086379617
0.085926826
0.085665597
0.08657454
0.088291602
0.088903733
0.088328813
0.086876001
0.084789377
0.083202095
0.082417973
0.081916192
0.081589078
0.081615693
0.082111709
0.081088303
0.07970842
0.079137254
0.078694293
0.078420815
0.078638051
0.078724187
0.078227675
0.077822199
0.078183576
0.079234707
0.080547253
0.081729662
0.082575205
0.08308007
0.083342584
0.083466765
0.083516982
0.083540117
0.083551385
0.083556185
0.083557924
0.083558292
0.083558336
0.08355834
0.083558341
0.08355834
0.083558339
0.083558338
0.083558339
0.083558339
0.083558338
0.083558338
0.083558337
0.083558346
0.083561979
0.083564816
0.083562975
0.083564319
0.083566195
0.083574771
0.28277312
0.097427623
0.092079165
0.092527701
0.093176651
0.093845144
0.094431925
0.094775284
0.09493245
0.095033388
0.094982671
0.094581811
0.093610189
0.092594705
0.0925479
0.091138401
0.087303676
0.087945382
0.091271589
0.090134978
0.086612776
0.087711511
0.09305738
0.098958609
0.099378759
0.097678845
0.094573202
0.091196645
0.088436554
0.087350473
0.086791205
0.087028211
0.087854544
0.08748395
0.087057475
0.087763131
0.087800144
0.087059181
0.086333493
0.085881359
0.085622302
0.086527658
0.088243068
0.088849683
0.088265209
0.08680651
0.084743115
0.08318737
0.082306832
0.081790106
0.081616229
0.081840349
0.082100213
0.080714473
0.079462677
0.079030289
0.078661168
0.078412383
0.078637403
0.078729104
0.078236065
0.077826448
0.078184038
0.079233861
0.080546318
0.081728905
0.082574856
0.083079881
0.083342499
0.083466692
0.083516978
0.083540114
0.083551379
0.083556183
0.083557923
0.083558292
0.083558336
0.083558341
0.083558341
0.08355834
0.083558339
0.083558338
0.083558339
0.083558339
0.083558338
0.083558338
0.083558337
0.083558502
0.083563578
0.08356427
0.083562926
0.083564633
0.083567236
0.083576113
14.598618
9.2795994
2.823143
0.27427901
0.09715519
0.092029465
0.092484062
0.09313485
0.093803041
0.094388178
0.094728698
0.094884399
0.094984517
0.094933355
0.094532484
0.093559452
0.092544772
0.092503492
0.091087894
0.087250978
0.087908905
0.091247371
0.090092004
0.08656226
0.087678058
0.093041632
0.098920193
0.099325445
0.097613349
0.094507511
0.091135274
0.088385845
0.087305623
0.086750072
0.086987782
0.087814277
0.087440524
0.087006475
0.087719713
0.087751466
0.087006544
0.086283742
0.085830219
0.085575466
0.086476908
0.088190533
0.088795271
0.088198206
0.086741382
0.084705692
0.083138138
0.082141533
0.081749422
0.081776353
0.082072811
0.081787988
0.080332861
0.079259163
0.078950178
0.078639854
0.078407783
0.078637921
0.078734857
0.078244277
0.077830552
0.078184512
0.079233134
0.080545501
0.081728268
0.082574556
0.083079719
0.083342422
0.083466635
0.083516971
0.083540109
0.083551373
0.083556181
0.083557922
0.083558291
0.083558336
0.083558341
0.083558341
0.08355834
0.083558339
0.083558338
0.083558338
0.083558338
0.083558338
0.083558338
0.083558337
0.083559276
0.083564552
0.083563553
0.083563
0.083564903
0.083568584
28.27866
25.801419
22.747152
19.03403
14.574646
9.1963861
2.7523427
0.26678575
0.096866758
0.091980957
0.092439936
0.093089935
0.093757878
0.094341265
0.094679153
0.094833556
0.094932912
0.094881413
0.094480834
0.093505989
0.092491643
0.092455407
0.09103452
0.08719503
0.087867514
0.091218112
0.090043838
0.086507137
0.087637915
0.09301849
0.098873778
0.099264751
0.097541666
0.094435314
0.091068288
0.088328665
0.087255644
0.086702506
0.086941541
0.087767252
0.087390116
0.08694842
0.08766943
0.087697522
0.086947919
0.08622993
0.085773285
0.085524042
0.086424437
0.088136817
0.088740585
0.088129092
0.086682729
0.084651741
0.083003191
0.08202915
0.081772054
0.082080343
0.082169533
0.081303537
0.079987577
0.079101415
0.078893756
0.078627662
0.078406133
0.078639269
0.078741301
0.078252302
0.077834524
0.078185054
0.079232512
0.08054481
0.081727762
0.082574288
0.083079595
0.083342349
0.083466602
0.083516963
0.083540102
0.083551367
0.08355618
0.083557921
0.08355829
0.083558336
0.083558341
0.083558341
0.08355834
0.083558339
0.083558338
0.083558338
0.083558338
0.083558338
0.083558338
0.083558338
0.083560862
0.083564945
0.083563157
0.083563434
0.083565204
0.083570105
34.466824
33.512735
32.243513
30.607941
28.544414
25.980332
22.8374
19.051113
14.524178
9.1018527
2.6831493
0.25960268
0.096611353
0.091924691
0.0923878
0.093037725
0.093705157
0.094286556
0.094621614
0.094774818
0.094873098
0.094821087
0.094420648
0.09344342
0.092429507
0.092398328
0.090971413
0.087129166
0.087816489
0.091179889
0.089984733
0.086441718
0.087587515
0.09298539
0.098816905
0.099193072
0.097459511
0.094352338
0.090991634
0.08826136
0.087197737
0.086646115
0.086887347
0.087711981
0.087332105
0.086883727
0.087612843
0.087639335
0.086884476
0.086173247
0.085713785
0.085470227
0.086372023
0.088083521
0.088683447
0.088056869
0.086616774
0.084556627
0.082860923
0.082001422
0.082008349
0.08242347
0.082000827
0.080767272
0.079710021
0.078986574
0.078857681
0.078621517
0.078407428
0.078641299
0.078748277
0.078260166
0.077838336
0.078185741
0.079232018
0.080544265
0.081727376
0.082574044
0.083079503
0.083342269
0.083466589
0.083516951
0.083540094
0.083551363
0.083556178
0.083557919
0.08355829
0.083558336
0.083558341
0.083558341
0.08355834
0.083558339
0.083558338
0.083558338
0.083558339
0.083558338
0.083558338
0.083558369
0.083562665
0.083565022
0.083563032
0.083563976
0.083565633
0.083571686
34.939213
35.385764
35.787518
36.120968
36.357692
36.466233
36.414233
36.170076
35.702543
34.980421
33.969367
32.629903
30.914291
28.764617
26.113558
22.889437
19.031784
14.452789
9.0005133
2.6171905
0.25332686
0.096364372
0.091857017
0.09232384
0.092973509
0.093640316
0.094219714
0.094551543
0.094703465
0.094800467
0.094747654
0.094347661
0.09336786
0.092354383
0.092328475
0.090895405
0.087050533
0.087751907
0.0911283
0.089912493
0.086363845
0.087523787
0.092937819
0.098747059
0.099108947
0.097366489
0.094258605
0.090905298
0.088183431
0.087130934
0.086580917
0.086825216
0.087649891
0.087269178
0.086816378
0.087554018
0.087581651
0.086820883
0.08611691
0.085654028
0.085415856
0.086319797
0.088027435
0.088618339
0.087974552
0.086526819
0.084439373
0.082810882
0.082118831
0.082419586
0.082571588
0.081343318
0.080295683
0.079507955
0.078908508
0.078837249
0.078619787
0.078409738
0.078644025
0.078755645
0.078267768
0.077841967
0.078186601
0.079231676
0.080543849
0.081727087
0.082573839
0.08307943
0.083342186
0.083466583
0.083516938
0.083540083
0.083551361
0.083556177
0.083557918
0.08355829
0.083558336
0.083558341
0.083558341
0.08355834
0.083558339
0.083558338
0.083558338
0.083558339
0.083558338
0.083558337
0.083558695
0.083564038
0.083564831
0.083563023
0.083564386
0.083566344
0.083573277
0.031268528
0.013897758
0.077027795
0.31461218
0.91953004
2.1529773
4.2381393
7.1511043
10.537707
13.937897
17.046682
19.753307
22.061615
24.020828
25.688413
27.115839
28.345726
29.412733
30.345457
31.168854
31.905502
32.575656
33.197331
33.785705
34.351634
34.900184
35.429068
35.927099
36.374793
36.745248
37.006394
37.123814
37.0634
36.793056
36.282207
35.501087
34.418006
32.996306
31.191586
28.9499
26.208851
22.906416
18.981892
14.363243
8.8937715
2.5529932
0.24742377
0.096117257
0.091775372
0.092245665
0.092895059
0.093561008
0.094138219
0.094466464
0.094617016
0.094713226
0.094659432
0.094260483
0.093278802
0.092265983
0.092245938
0.090806821
0.086959924
0.087674892
0.091064551
0.089829088
0.086275696
0.087449561
0.092878652
0.098667659
0.099016302
0.097266982
0.094159104
0.090814726
0.08810128
0.087061283
0.086514433
0.08676234
0.087588448
0.087207316
0.086751809
0.08749657
0.087527579
0.086760804
0.086063833
0.085595499
0.085359056
0.08626418
0.08795946
0.08853796
0.087882953
0.086436037
0.084390489
0.082848762
0.082487578
0.082806472
0.082309057
0.080651556
0.079942406
0.079371505
0.078860114
0.078826584
0.07862257
0.078412298
0.078647378
0.078763275
0.07827509
0.077845421
0.078187623
0.079231547
0.080543542
0.081726871
0.0825737
0.083079367
0.083342114
0.083466574
0.083516926
0.083540072
0.083551359
0.083556176
0.083557917
0.08355829
0.083558337
0.083558341
0.083558341
0.08355834
0.083558339
0.083558338
0.083558338
0.083558338
0.083558338
0.083558337
0.083559795
0.083564775
0.083564081
0.083563222
0.08356469
0.083567411
0.083574844
0.031956818
0.014231195
0.078934888
0.32239231
0.94206547
2.2043668
4.3336711
7.2980561
10.730628
14.164501
17.295246
20.015207
22.330942
24.293548
25.961792
27.388242
28.616686
29.683185
30.618038
31.448164
32.198222
32.8904
33.544114
34.174982
34.792908
35.400377
35.990871
36.54819
37.047159
37.455565
37.737163
37.854954
37.774013
37.462903
36.893031
36.037461
34.867911
33.351577
31.448402
29.109407
26.276613
22.899525
18.919352
14.269891
8.791007
2.4934639
0.24176635
0.095860849
0.091685226
0.092159573
0.092808516
0.093473487
0.094048502
0.094373361
0.094522626
0.0946189
0.094564218
0.094166777
0.093184439
0.092172772
0.092159532
0.09071471
0.086867166
0.087595606
0.090999073
0.089745212
0.086187983
0.087377119
0.092820654
0.098590976
0.098926751
0.097171773
0.094064178
0.090729409
0.088024756
0.086997379
0.086454595
0.086706061
0.087535011
0.087152481
0.086694902
0.087443468
0.087477426
0.086701729
0.086010072
0.085535309
0.085293659
0.086195251
0.087880342
0.088454695
0.0878148
0.086405335
0.084408462
0.083187728
0.082954969
0.082918316
0.081446235
0.080089816
0.079706391
0.079283881
0.078835439
0.078821874
0.078628466
0.078414911