/*--------------------------------*- C++ -*----------------------------------*\
| =========                 |                                                 |
| \\      /  F ield         | OpenFOAM: The Open Source CFD Toolbox           |
|  \\    /   O peration     | Version:  2506                                  |
|   \\  /    A nd           | Website:  www.openfoam.com                      |
|    \\/     M anipulation  |                                                 |
\*---------------------------------------------------------------------------*/
FoamFile
{
    version     2.0;
    format      ascii;
    arch        "LSB;label=32;scalar=64";
    class       volScalarField;
    location    "0.03";
    object      alphat;
}
// * * * * * * * * * * * * * * * * * * * * * * * * * * * * * * * * * * * * * //

dimensions      [1 -1 -1 0 0 0 0];

internalField   nonuniform List<scalar> 
13761
(
5.1201988e-10
2.1285622e-09
4.2307356e-08
3.6985137e-07
1.7285353e-06
5.121446e-06
1.0992063e-05
1.9191103e-05
2.9510355e-05
4.1871683e-05
5.6313481e-05
7.2942139e-05
9.1895959e-05
5.2270548e-10
2.1648909e-09
4.2979099e-08
3.753538e-07
1.7509077e-06
5.1754444e-06
1.1086086e-05
1.9331531e-05
2.9707945e-05
4.2143017e-05
5.6680304e-05
7.3429821e-05
9.2530117e-05
0.00011414083
0.00013843582
0.0001655924
0.00019578564
0.00022917601
0.00026589163
0.00030603505
0.00034969049
0.00039689337
0.00044762853
0.00050183549
0.00055938615
0.00062008766
5.3043038e-10
2.1944377e-09
4.3545452e-08
3.8003317e-07
1.7702797e-06
5.2237769e-06
1.1174365e-05
1.9470747e-05
2.9914163e-05
4.2438585e-05
5.7093365e-05
7.3993367e-05
9.3280319e-05
0.00011511556
0.00013967224
0.00016712532
0.0001976446
0.0002313837
0.00026846081
0.0003089676
0.0003529753
0.00040050652
0.0004515325
0.00050598156
0.00056371693
0.00062454332
0.00068819779
0.00075434057
0.0008225518
0.00089231318
0.0009629866
0.0010337834
5.3588224e-10
2.2174629e-09
4.3999003e-08
3.8381078e-07
1.7861983e-06
5.2648036e-06
1.1252642e-05
1.9599843e-05
3.0112665e-05
4.2730717e-05
5.7508237e-05
7.4563698e-05
9.4040623e-05
0.00011610016
0.00014091315
0.00016864994
0.00019947357
0.00023352873
0.0002709227
0.00031173481
0.0003560231
0.00040379652
0.00045501298
0.00050958809
0.00056737454
0.00062816798
0.00069170012
0.00075762896
0.00082553745
0.00089491698
0.00096514994
0.0010354923
0.0011050418
0.0011727152
0.0012372103
0.0012969289
6.5716998e-11
1.2503377e-10
1.7959927e-09
1.641167e-08
8.9225805e-08
3.4157082e-07
1.0031334e-06
2.371756e-06
4.691929e-06
8.0631367e-06
1.2465356e-05
1.7831064e-05
2.4087918e-05
3.1175932e-05
3.9048602e-05
4.7668235e-05
5.7001708e-05
6.7014289e-05
7.7661388e-05
8.8887891e-05
0.00010062509
0.000112777
0.00012521477
0.00013777239
0.00015023594
0.0001623413
0.00017376877
0.0001841394
0.00019301116
0.0001998703
0.00020411869
0.00020505619
0.00020185907
0.00019356314
0.00017906624
0.00015720796
0.00012708135
8.9069427e-05
4.7952922e-05
1.7146986e-05
5.4211002e-06
3.174576e-06
2.8583662e-06
2.7985897e-06
2.7674064e-06
2.7391004e-06
2.7124218e-06
2.6883936e-06
2.666678e-06
2.6448332e-06
2.6189198e-06
2.5853629e-06
6.7009537e-11
1.2843399e-10
1.8548592e-09
1.6952066e-08
9.2115237e-08
3.5219817e-07
1.0321793e-06
2.4335616e-06
4.7992701e-06
8.223484e-06
1.268143e-05
1.8102992e-05
2.4414725e-05
3.1556288e-05
3.9481242e-05
4.8152366e-05
5.753755e-05
6.7603788e-05
7.8309081e-05
8.9601896e-05
0.00010141815
0.00011366741
0.00012622702
0.00013893753
0.0001515913
0.00016392978
0.00017563757
0.00018633847
0.0001955917
0.00020288355
0.00020761522
0.0002090856
0.00020646957
0.00019879959
0.00018496314
0.00016376766
0.0001342062
9.6349064e-05
5.4121749e-05
2.0237153e-05
6.1118411e-06
3.2670961e-06
2.8728781e-06
2.8044807e-06
2.7717327e-06
2.7427797e-06
2.7159724e-06
2.6923656e-06
2.6716007e-06
2.6511381e-06
2.6268605e-06
2.5949115e-06
2.5544807e-06
2.5094889e-06
2.4667726e-06
2.431548e-06
2.4049675e-06
2.3847937e-06
2.3670016e-06
2.3493194e-06
2.3344067e-06
2.3242129e-06
6.8150486e-11
1.3169523e-10
1.9133322e-09
1.7489867e-08
9.4992327e-08
3.627848e-07
1.0611319e-06
2.4952398e-06
4.9066188e-06
8.3843663e-06
1.2899108e-05
1.8378126e-05
2.4746745e-05
3.1944075e-05
3.9923508e-05
4.8647996e-05
5.8086097e-05
6.8206104e-05
7.8968132e-05
9.0323776e-05
0.00010221319
0.00011455124
0.00012722154
0.0001400715
0.0001529005
0.00016545661
0.00017743005
0.00018844884
0.00019807489
0.00020579574
0.00021101284
0.00021302477
0.00021100543
0.00020398453
0.00019084065
0.00017035277
0.0001414254
0.00010385068
6.0754946e-05
2.3875708e-05
6.9946188e-06
3.3860681e-06
2.8900147e-06
2.8108169e-06
2.7763089e-06
2.7465908e-06
2.7194928e-06
2.6961338e-06
2.6761789e-06
2.6570296e-06
2.6344186e-06
2.6042229e-06
2.5652267e-06
2.5210604e-06
2.478322e-06
2.442168e-06
2.4138572e-06
2.3914517e-06
2.3712562e-06
2.3511986e-06
2.3342371e-06
2.322713e-06
2.3113398e-06
2.3018296e-06
2.3201421e-06
2.3869297e-06
2.4773746e-06
6.9067612e-11
1.3469899e-10
1.9699054e-09
1.8011525e-08
9.7786033e-08
3.7307885e-07
1.0893367e-06
2.5554819e-06
5.011855e-06
8.542829e-06
1.3114674e-05
1.865211e-05
2.5079118e-05
3.2334068e-05
4.0369928e-05
4.9149541e-05
5.8641788e-05
6.8815871e-05
7.9633593e-05
9.104924e-05
0.00010300681
0.00011542624
0.00012819729
0.00014117448
0.00015416478
0.00016692377
0.00017914853
0.00019047276
0.00020046257
0.00020860824
0.00021431273
0.00021687527
0.00021546966
0.00020912376
0.00019670879
0.00017697899
0.00014876041
0.00011159745
6.7875768e-05
2.8142171e-05
8.1288107e-06
3.5415774e-06
2.910678e-06
2.8176199e-06
2.7811061e-06
2.7505109e-06
2.7229602e-06
2.6996648e-06
2.6803606e-06
2.6624334e-06
2.6414973e-06
2.6131773e-06
2.5758741e-06
2.5327963e-06
2.4903118e-06
2.4534714e-06
2.4235911e-06
2.399006e-06
2.3763481e-06
2.3537538e-06
2.3345303e-06
2.3215187e-06
2.309057e-06
2.2976421e-06
2.3132749e-06
2.3784922e-06
2.469448e-06
2.541203e-06
2.5779553e-06
2.5885739e-06
2.5877426e-06
6.9741563e-11
1.3731258e-10
2.0216728e-09
1.8490269e-08
1.0035414e-07
3.8256399e-07
1.1154126e-06
2.6114204e-06
5.1101024e-06
8.6917008e-06
1.3318543e-05
1.8912922e-05
2.5397423e-05
3.2709514e-05
4.0801543e-05
4.9636013e-05
5.918183e-05
6.9408778e-05
8.0279979e-05
9.1752046e-05
0.0001037725
0.00011626608
0.00012912869
0.00014222214
0.00015536148
0.0001683107
0.00018077499
0.00019239521
0.0002027434
0.00021131423
0.00021751377
0.00022064329
0.00021987766
0.00021424407
0.00020260798
0.00018370196
0.00015628185
0.00011966895
7.5562191e-05
3.3154203e-05
9.601229e-06
3.7494483e-06
2.936422e-06
2.8250391e-06
2.7861791e-06
2.7545947e-06
2.7264258e-06
2.7029967e-06
2.6841637e-06
2.6673442e-06
2.6480675e-06
2.6217174e-06
2.5863043e-06
2.5445745e-06
2.5026308e-06
2.4653725e-06
2.4341197e-06
2.4074446e-06
2.3822953e-06
2.357014e-06
2.3353042e-06
2.3206233e-06
2.3070163e-06
2.293605e-06
2.3064153e-06
2.3699575e-06
2.4614162e-06
2.5347673e-06
2.5728952e-06
2.5842031e-06
2.5837819e-06
2.5849004e-06
2.5780157e-06
2.5484574e-06
6.9715201e-11
1.3922493e-10
2.0701572e-09
1.8943835e-08
1.0280253e-07
3.9169209e-07
1.1408259e-06
2.6667431e-06
5.2087486e-06
8.8433383e-06
1.3528848e-05
1.9184842e-05
2.5732121e-05
3.3106889e-05
4.1260552e-05
5.0154948e-05
5.9758691e-05
7.0041805e-05
8.0968367e-05
9.2496935e-05
0.0001045782
0.00011714141
0.00013008844
0.00014328849
0.0001565651
0.00016969141
0.00018238183
0.00019428594
0.00020498342
0.0002139753
0.00022067267
0.00022438069
0.00022427705
0.00021939007
0.0002085817
0.00019056655
0.00016403876
0.00012812035
8.3879387e-05
3.9041071e-05
1.1530772e-05
4.0338806e-06
2.9696724e-06
2.8333052e-06
2.7916104e-06
2.7589269e-06
2.7299736e-06
2.706201e-06
2.6876388e-06
2.6717877e-06
2.6541293e-06
2.6298175e-06
2.5964564e-06
2.5563253e-06
2.5152156e-06
2.4778324e-06
2.4454416e-06
2.4168072e-06
2.3891717e-06
2.3610683e-06
2.3366369e-06
2.3200752e-06
2.3052101e-06
2.2896973e-06
2.299522e-06
2.3612646e-06
2.4532066e-06
2.5282335e-06
2.5677887e-06
2.579776e-06
2.5796868e-06
2.5817918e-06
2.5767069e-06
2.5489341e-06
2.5013296e-06
2.450451e-06
2.3990111e-06
6.9783594e-11
1.4140448e-10
2.123389e-09
1.9440749e-08
1.0548226e-07
4.0168479e-07
1.168717e-06
2.7278347e-06
5.3188281e-06
9.0149993e-06
1.377102e-05
1.9503702e-05
2.6131719e-05
3.3589426e-05
4.1826532e-05
5.0803376e-05
6.048741e-05
7.0848009e-05
8.1849311e-05
9.3450907e-05
0.00010560577
0.00011824684
0.00013128124
0.00014458496
0.00015798974
0.0001712779
0.00018417353
0.00019633569
0.00020735285
0.00021673369
0.0002238956
0.00022814882
0.00022867481
0.00022450394
0.00021449616
0.00019735211
0.00017171603
0.00013654757
9.2389327e-05
4.5556246e-05
1.3940634e-05
4.4112145e-06
3.0119853e-06
2.8423187e-06
2.7972066e-06
2.7633555e-06
2.7335093e-06
2.7092288e-06
2.6907497e-06
2.6756985e-06
2.6595527e-06
2.6372714e-06
2.6060691e-06
2.5677751e-06
2.52782e-06
2.4906559e-06
2.4574216e-06
2.4270134e-06
2.3969421e-06
2.3659249e-06
2.3385666e-06
2.3199007e-06
2.3036312e-06
2.2859605e-06
2.2927392e-06
2.3525997e-06
2.4449504e-06
2.5216234e-06
2.5626192e-06
2.5752682e-06
2.5754322e-06
2.5784626e-06
2.5751242e-06
2.5491648e-06
2.5027557e-06
2.4527655e-06
2.4024353e-06
2.3367181e-06
2.2484632e-06
7.0821731e-11
1.4444622e-10
2.178452e-09
1.9947177e-08
1.0819072e-07
4.116647e-07
1.1961776e-06
2.7872298e-06
5.4251601e-06
9.1811661e-06
1.4007921e-05
1.9820991e-05
2.6537884e-05
3.4091473e-05
4.2429585e-05
5.1510442e-05
6.1299388e-05
7.1763952e-05
8.2866939e-05
9.4567497e-05
0.00010681935
0.0001195576
0.00013269319
0.0001461077
0.0001596401
0.00017308134
0.00018616508
0.00019856023
0.00020986481
0.00021959617
0.00022717921
0.00023193031
0.00023303567
0.00022952857
0.00022026834
0.00020394536
0.00017916519
0.00014475996
0.00010085173
5.2499665e-05
1.6849599e-05
4.9030606e-06
3.0657908e-06
2.852139e-06
2.8028689e-06
2.7678086e-06
2.7370044e-06
2.7120873e-06
2.6935193e-06
2.6790877e-06
2.6643094e-06
2.6439958e-06
2.6150107e-06
2.5787572e-06
2.54027e-06
2.5036866e-06
2.4699405e-06
2.4379898e-06
2.4055772e-06
2.3715966e-06
2.3411371e-06
2.3201403e-06
2.3022966e-06
2.2824248e-06
2.2861545e-06
2.3440819e-06
2.4367448e-06
2.5149891e-06
2.5574184e-06
2.57071e-06
2.5710495e-06
2.5748895e-06
2.5732157e-06
2.5490656e-06
2.5039492e-06
2.4549118e-06
2.405742e-06
2.3411668e-06
2.253133e-06
2.1648463e-06
2.1109735e-06
7.2098265e-11
1.4760343e-10
2.2315345e-09
2.0433046e-08
1.1077807e-07
4.2111631e-07
1.2218275e-06
2.8417542e-06
5.5211023e-06
9.3291531e-06
1.4217628e-05
2.0102353e-05
2.6901271e-05
3.4547178e-05
4.2987093e-05
5.2177741e-05
6.2082472e-05
7.2666584e-05
8.3890719e-05
9.5712337e-05
0.00010808439
0.00012094243
0.0001341994
0.00014774073
0.00016141112
0.00017500902
0.00018827696
0.0002008936
0.0002124669
0.00022252374
0.00023049764
0.00023571234
0.00023735996
0.00023447782
0.00022592612
0.00021038802
0.00018643895
0.00015280958
0.0001092819
5.9824184e-05
2.0312019e-05
5.543763e-06
3.135259e-06
2.863052e-06
2.8085954e-06
2.7722887e-06
2.7404831e-06
2.7148179e-06
2.6959972e-06
2.6820027e-06
2.668432e-06
2.6499957e-06
2.6232509e-06
2.589199e-06
2.552464e-06
2.5168175e-06
2.4829124e-06
2.4496903e-06
2.4150763e-06
2.3781206e-06
2.3444065e-06
2.3208514e-06
2.3012467e-06
2.2791071e-06
2.2797765e-06
2.3357227e-06
2.4286096e-06
2.5083618e-06
2.552223e-06
2.5661468e-06
2.5665899e-06
2.5711104e-06
2.5710057e-06
2.5486368e-06
2.5048531e-06
2.4568313e-06
2.4088698e-06
2.3455261e-06
2.2577995e-06
2.168367e-06
2.113038e-06
2.0862037e-06
7.3294078e-11
1.5067311e-10
2.2840578e-09
2.0914048e-08
1.1333608e-07
4.3042604e-07
1.2469025e-06
2.8944218e-06
5.6123472e-06
9.4675294e-06
1.4410676e-05
2.0358298e-05
2.7229644e-05
3.4958609e-05
4.3492708e-05
5.2788399e-05
6.2808028e-05
7.3515304e-05
8.4868887e-05
9.6824243e-05
0.00010933275
0.00012232916
0.00013572686
0.00014941335
0.00016323725
0.00017700287
0.00019046036
0.00020329734
0.00021513149
0.00022549961
0.00023384463
0.00023949878
0.0002416613
0.00023937483
0.00023150185
0.00021672092
0.00019358386
0.00016073964
0.00011769319
6.7479521e-05
2.4368803e-05
6.3747789e-06
3.2259173e-06
2.87544e-06
2.8143707e-06
2.7767775e-06
2.7439503e-06
2.7174453e-06
2.6982197e-06
2.6844801e-06
2.6719436e-06
2.655266e-06
2.6307454e-06
2.599011e-06
2.5642788e-06
2.529916e-06
2.496223e-06
2.4620415e-06
2.4254154e-06
2.3855171e-06
2.3484218e-06
2.3220854e-06
2.3005195e-06
2.2760195e-06
2.2736003e-06
2.3275149e-06
2.4205493e-06
2.5017648e-06
2.5470622e-06
2.5616159e-06
2.5621009e-06
2.5671788e-06
2.5685386e-06
2.5479047e-06
2.5054674e-06
2.4585201e-06
2.4118124e-06
2.3497472e-06
2.2624042e-06
2.1719427e-06
2.1152217e-06
2.0875347e-06
2.0603334e-06
2.0349364e-06
7.4467254e-11
1.5374509e-10
2.3371073e-09
2.1399999e-08
1.1591818e-07
4.3980153e-07
1.2720437e-06
2.9468639e-06
5.7023476e-06
9.602455e-06
1.4596521e-05
2.0601598e-05
2.7538387e-05
3.5342355e-05
4.3962281e-05
5.3355324e-05
6.3483886e-05
7.4311067e-05
8.5794332e-05
9.7887606e-05
0.00011054072
0.00012368721
0.00013723995
0.0001510872
0.00016507992
0.00017902654
0.00019268323
0.00020574527
0.0002178393
0.00022851177
0.00023721534
0.00024329156
0.00024594785
0.00024423345
0.00023701466
0.00022296772
0.00020062625
0.00016857314
0.00012608661
7.5410826e-05
2.9042872e-05
7.4449642e-06
3.3451129e-06
2.8898397e-06
2.8201868e-06
2.7812541e-06
2.747409e-06
2.719995e-06
2.7002261e-06
2.6865617e-06
2.674874e-06
2.6598076e-06
2.6374516e-06
2.6081007e-06
2.5755823e-06
2.5428334e-06
2.5097371e-06
2.474947e-06
2.4365507e-06
2.3937917e-06
2.3532208e-06
2.3238903e-06
2.3001537e-06
2.2731739e-06
2.2676126e-06
2.3194371e-06
2.4125546e-06
2.4952086e-06
2.5419526e-06
2.5571406e-06
2.5576164e-06
2.5631411e-06
2.5658554e-06
2.5468971e-06
2.5058095e-06
2.4599899e-06
2.4145852e-06
2.3538384e-06
2.2669446e-06
2.1755168e-06
2.1174645e-06
2.0890284e-06
2.0607734e-06
2.0329713e-06
2.0549525e-06
7.5620072e-11
1.5682913e-10
2.390877e-09
2.1892681e-08
1.1853458e-07
4.4928659e-07
1.2974037e-06
2.9995342e-06
5.7922329e-06
9.7362772e-06
1.4779348e-05
2.0838784e-05
2.7836605e-05
3.5709903e-05
4.4409003e-05
5.38923e-05
6.4122968e-05
7.5064346e-05
8.6673553e-05
9.8903718e-05
0.00011170365
0.00012500583
0.0001387224
0.00015274169
0.00016691584
0.00018105606
0.00019492294
0.00020821795
0.00022057544
0.00023155076
0.00024060608
0.00024709255
0.00025022659
0.0002490651
0.00024247957
0.00022914608
0.0002075845
0.00017632429
0.00013445766
8.3562951e-05
3.4335898e-05
8.8097502e-06
3.5025319e-06
2.906997e-06
2.8260446e-06
2.7856942e-06
2.7508587e-06
2.7224906e-06
2.7020576e-06
2.688295e-06
2.6772626e-06
2.6636336e-06
2.6433385e-06
2.6163847e-06
2.5862446e-06
2.5554158e-06
2.5233065e-06
2.4882937e-06
2.448422e-06
2.4029383e-06
2.3588352e-06
2.3263142e-06
2.3001935e-06
2.2705892e-06
2.2617992e-06
2.3114603e-06
2.4046077e-06
2.4886942e-06
2.5369018e-06
2.5527328e-06
2.5531573e-06
2.5590302e-06
2.5629863e-06
2.5456332e-06
2.50589e-06
2.4612444e-06
2.4172005e-06
2.357826e-06
2.2714421e-06
2.1790857e-06
2.1197538e-06
2.0906346e-06
2.0614186e-06
2.0312053e-06
2.0505002e-06
2.1432164e-06
7.676255e-11
1.5993541e-10
2.4454054e-09
2.2392374e-08
1.2118643e-07
4.5888542e-07
1.3230055e-06
3.0525328e-06
5.8823296e-06
9.8698314e-06
1.4960893e-05
2.1072937e-05
2.8129097e-05
3.6067992e-05
4.4841522e-05
5.4409507e-05
6.4736293e-05
7.5786015e-05
8.7516122e-05
9.9879669e-05
0.00011282509
0.00012628429
0.00014016891
0.00015436718
0.00016873188
0.00018307599
0.00019716332
0.0002107001
0.00022332707
0.00023460736
0.00024401199
0.00025090151
0.00025450168
0.00025387784
0.00024790784
0.0002352694
0.00021447239
0.00018400307
0.00014280061
9.1885414e-05
4.0228466e-05
1.052951e-05
3.7108402e-06
2.9279429e-06
2.8319617e-06
2.7900696e-06
2.7542934e-06
2.7249513e-06
2.7037533e-06
2.6897293e-06
2.6791555e-06
2.6667694e-06
2.6483907e-06
2.6237949e-06
2.5961469e-06
2.5675117e-06
2.5367768e-06
2.5019551e-06
2.4609545e-06
2.4129385e-06
2.36529e-06
2.3294055e-06
2.3006911e-06
2.2682947e-06
2.2561512e-06
2.3035549e-06
2.3966878e-06
2.4822185e-06
2.5319131e-06
2.5483986e-06
2.5487359e-06
2.5548685e-06
2.5599541e-06
2.5441249e-06
2.5057085e-06
2.4622742e-06
2.4196579e-06
2.3617292e-06
2.2759178e-06
2.182662e-06
2.1220956e-06
2.0923506e-06
2.062237e-06
2.0296087e-06
2.0461665e-06
2.1381741e-06
2.2471844e-06
2.3094446e-06
7.7896616e-11
1.6306175e-10
2.5006175e-09
2.2898358e-08
1.2386978e-07
4.6858469e-07
1.3488166e-06
3.1058104e-06
5.9726272e-06
1.0003281e-05
1.5141707e-05
2.1305278e-05
2.8418078e-05
3.6420101e-05
4.5264745e-05
5.4913286e-05
6.5331413e-05
7.6484363e-05
8.8330372e-05
0.00010082297
0.00011391083
0.00012752583
0.00014157952
0.00015596021
0.0001705212
0.00018507674
0.00019939299
0.00021317982
0.0002260831
0.00023767253
0.00024742705
0.00025471605
0.00025877451
0.00025867659
0.0002533074
0.00024134774
0.00022130058
0.00019161722
0.00015111054
0.00010033511
4.6682607e-05
1.2666868e-05
3.9864127e-06
2.9540886e-06
2.8379792e-06
2.7943482e-06
2.7576991e-06
2.7273881e-06
2.7053459e-06
2.6909115e-06
2.6806021e-06
2.6692504e-06
2.6526097e-06
2.6302827e-06
2.6051863e-06
2.578978e-06
2.549991e-06
2.5157934e-06
2.4740572e-06
2.4237597e-06
2.3726013e-06
2.3332115e-06
2.3017064e-06
2.2663324e-06
2.2506693e-06
2.295695e-06
2.3887743e-06
2.4757773e-06
2.5269898e-06
2.5441426e-06
2.544361e-06
2.5506736e-06
2.5567785e-06
2.5423815e-06
2.5052578e-06
2.4630608e-06
2.4219458e-06
2.3655536e-06
2.280382e-06
2.1862539e-06
2.1244939e-06
2.0941904e-06
2.0632428e-06
2.0281971e-06
2.0419232e-06
2.1331636e-06
2.2435044e-06
2.3067458e-06
2.3491273e-06
7.9024518e-11
1.6620753e-10
2.5564311e-09
2.3409833e-08
1.2658044e-07
4.7836861e-07
1.3747945e-06
3.1592896e-06
6.0630311e-06
1.0136575e-05
1.5321908e-05
2.153626e-05
2.8704552e-05
3.6768017e-05
4.5681431e-05
5.5407489e-05
6.591326e-05
7.7165233e-05
8.9122702e-05
0.00010174006
0.00011496668
0.00012873492
0.00014295671
0.00015752078
0.00017228106
0.00018705295
0.00020160444
0.00021564828
0.00022883441
0.00024073802
0.00025084485
0.00025853235
0.00026304428
0.00026346369
0.00025868338
0.00024738844
0.00022807735
0.00019917309
0.00015938392
0.00010887688
5.3645712e-05
1.5282849e-05
4.3500756e-06
2.9873367e-06
2.8441688e-06
2.7984925e-06
2.7610512e-06
2.7297995e-06
2.7068571e-06
2.6918812e-06
2.6816506e-06
2.6711194e-06
2.6560135e-06
2.6358217e-06
2.6132816e-06
2.5896849e-06
2.562794e-06
2.5296606e-06
2.4876222e-06
2.4353522e-06
2.3807729e-06
2.3377749e-06
2.3033039e-06
2.2647549e-06
2.2453645e-06
2.2878614e-06
2.3808491e-06
2.4693661e-06
2.5221351e-06
2.5399698e-06
2.5400399e-06
2.5464609e-06
2.55348e-06
2.5404144e-06
2.5045306e-06
2.4635833e-06
2.4240464e-06
2.3692942e-06
2.2848354e-06
2.1898603e-06
2.1269438e-06
2.0961623e-06
2.0644603e-06
2.0270005e-06
2.0377864e-06
2.1281538e-06
2.2398304e-06
2.304075e-06
2.3461905e-06
2.4149693e-06
8.0146878e-11
1.6936991e-10
2.6127656e-09
2.3926073e-08
1.2931438e-07
4.8822226e-07
1.4009002e-06
3.2128931e-06
6.1534256e-06
1.0269593e-05
1.5501431e-05
2.1765989e-05
2.8988929e-05
3.7112609e-05
4.6093088e-05
5.5894406e-05
6.6484972e-05
7.783259e-05
8.9897759e-05
0.00010263598
0.00011599764
0.00012991602
0.00014430383
0.00015905061
0.00017401121
0.00018900218
0.00020379321
0.0002180994
0.00023157403
0.0002437968
0.00025425928
0.00026234602
0.00026730894
0.00026823965
0.00026403888
0.00025339673
0.00023480914
0.00020667606
0.00016761883
0.00011748295
6.1055381e-05
1.8432189e-05
4.8277732e-06
3.030214e-06
2.8506421e-06
2.8024596e-06
2.7643124e-06
2.7321686e-06
2.7082931e-06
2.6926654e-06
2.6823429e-06
2.6724226e-06
2.6586343e-06
2.6404079e-06
2.6203754e-06
2.5995208e-06
2.5750367e-06
2.5434014e-06
2.5015244e-06
2.4476461e-06
2.3897926e-06
2.3431301e-06
2.3055479e-06
2.2636226e-06
2.2402584e-06
2.2800435e-06
2.3728973e-06
2.4629798e-06
2.5173515e-06
2.5358852e-06
2.535779e-06
2.542245e-06
2.5500805e-06
2.5382391e-06
2.503524e-06
2.4638238e-06
2.4259414e-06
2.3729404e-06
2.2892738e-06
2.1934745e-06
2.1294332e-06
2.0982631e-06
2.065904e-06
2.0260433e-06
2.033784e-06
2.1231594e-06
2.2361325e-06
2.3013921e-06
2.343265e-06
2.4121783e-06
2.4854804e-06
8.126318e-11
1.7254516e-10
2.669544e-09
2.4446342e-08
1.3206771e-07
4.9813141e-07
1.427095e-06
3.2665431e-06
6.2436924e-06
1.040219e-05
1.5680145e-05
2.1994412e-05
2.9271325e-05
3.7454277e-05
4.6500527e-05
5.6375371e-05
6.7048515e-05
7.8489077e-05
9.0658817e-05
0.00010351449
0.00011700776
0.00013107307
0.00014562429
0.00016055214
0.00017571268
0.00019092383
0.00020595694
0.00022052924
0.00023429686
0.00024684324
0.00025766491
0.00026615262
0.00027156564
0.00027300367
0.00026937529
0.00025937605
0.00024150081
0.00021413069
0.00017581453
0.00012613155
6.8844399e-05
2.2158404e-05
5.451038e-06
3.0860288e-06
2.8575623e-06
2.8062018e-06
2.7674326e-06
2.7344621e-06
2.7096428e-06
2.6932764e-06
2.6827116e-06
2.6732059e-06
2.6605159e-06
2.6440592e-06
2.6264367e-06
2.6083958e-06
2.5865798e-06
2.5568559e-06
2.5156224e-06
2.4605509e-06
2.3996304e-06
2.349299e-06
2.3084984e-06
2.2629991e-06
2.2353816e-06
2.2722398e-06
2.3649086e-06
2.4566111e-06
2.5126391e-06
2.5318927e-06
2.5315838e-06
2.5380392e-06
2.5466026e-06
2.5358756e-06
2.502241e-06
2.4637697e-06
2.4276148e-06
2.3764806e-06
2.2936916e-06
2.1970894e-06
2.1319475e-06
2.10048e-06
2.0675749e-06
2.0253383e-06
2.0299376e-06
2.1182063e-06
2.2324282e-06
2.2987074e-06
2.3403099e-06
2.4093682e-06
2.4837356e-06
8.2372539e-11
1.7572881e-10
2.726679e-09
2.4969794e-08
1.3483614e-07
5.0808119e-07
1.4533396e-06
3.3201622e-06
6.3337107e-06
1.0534208e-05
1.5857878e-05
2.2221372e-05
2.9551658e-05
3.7793105e-05
4.6904085e-05
5.6851074e-05
6.7605026e-05
7.9136335e-05
9.140805e-05
0.00010437825
0.000118
0.00013220916
0.000146921
0.00016202775
0.00017738694
0.00019281814
0.00020809448
0.00022293523
0.00023699906
0.00024987269
0.00026105683
0.00026994763
0.00027581092
0.00027775384
0.00027469251
0.00026532817
0.00024815559
0.00022154047
0.00018397086
0.00013480529
7.6945393e-05
2.6489514e-05
6.2571546e-06
3.1590664e-06
2.8651603e-06
2.8096703e-06
2.7703512e-06
2.7366313e-06
2.7108783e-06
2.6937104e-06
2.6827781e-06
2.6735121e-06
2.6617108e-06
2.6468134e-06
2.6314606e-06
2.6162439e-06
2.5972986e-06
2.5698642e-06
2.5297613e-06
2.4739558e-06
2.4102361e-06
2.356289e-06
2.3122062e-06
2.2629473e-06
2.2307717e-06
2.2644589e-06
2.3568775e-06
2.4502509e-06
2.507994e-06
2.5279944e-06
2.5274579e-06
2.5338543e-06
2.5430684e-06
2.5333468e-06
2.5006909e-06
2.4634138e-06
2.4290533e-06
2.3799038e-06
2.298085e-06
2.200701e-06
2.1344738e-06
2.1027957e-06
2.0694645e-06
2.0248885e-06
2.0262579e-06
2.1133128e-06
2.2287419e-06
2.2960456e-06
2.3373359e-06
2.4064998e-06
2.4819758e-06
2.5211638e-06
8.3475411e-11
1.7891966e-10
2.7841152e-09
2.54959e-08
1.3761652e-07
5.1805926e-07
1.479603e-06
3.3736875e-06
6.423372e-06
1.0665496e-05
1.6034452e-05
2.2446688e-05
2.9829779e-05
3.8129019e-05
4.7303827e-05
5.7321803e-05
6.8155085e-05
7.97753e-05
9.2146777e-05
0.00010522896
0.00011897639
0.00013332648
0.00014819612
0.00016347927
0.00017903526
0.00019468549
0.00021020507
0.00022531537
0.00023967749
0.00025288102
0.00026443036
0.00027372633
0.00028004057
0.00028248701
0.00027998885
0.00027125301
0.00025477489
0.00022890746
0.00019208741
0.00014348961
8.5294573e-05
3.1435211e-05
7.288906e-06
3.2548335e-06
2.8737565e-06
2.8128203e-06
2.7730017e-06
2.7386171e-06
2.7119578e-06
2.6939499e-06
2.6825526e-06
2.6733795e-06
2.6622765e-06
2.648725e-06
2.6354672e-06
2.623025e-06
2.6070862e-06
2.5822712e-06
2.5437769e-06
2.4877313e-06
2.4215399e-06
2.3640905e-06
2.3167101e-06
2.2635253e-06
2.2264706e-06
2.2567189e-06
2.3488046e-06
2.4438881e-06
2.5034081e-06
2.524189e-06
2.5234031e-06
2.5296983e-06
2.5394983e-06
2.5306776e-06
2.4988878e-06
2.4627542e-06
2.4302463e-06
2.383199e-06
2.3024505e-06
2.2043087e-06
2.1370019e-06
2.1051929e-06
2.0715608e-06
2.0246923e-06
2.0227486e-06
2.1084863e-06
2.2250869e-06
2.2934245e-06
2.3343675e-06
2.403586e-06
2.4801674e-06
2.5201738e-06
2.5371612e-06
8.4569627e-11
1.8211067e-10
2.8417387e-09
2.6023825e-08
1.4040478e-07
5.2805138e-07
1.5058464e-06
3.4270408e-06
6.5125569e-06
1.0795894e-05
1.6209664e-05
2.2670131e-05
3.0105453e-05
3.8461808e-05
4.7699614e-05
5.7787539e-05
6.8698843e-05
8.0406352e-05
9.2875646e-05
0.00010606753
0.00011993808
0.00013442635
0.000149451
0.0001649079
0.00018065839
0.00019652597
0.0002122879
0.00022766779
0.00024232912
0.00025586422
0.00026778073
0.00027748361
0.00028424963
0.00028719885
0.00028526107
0.00027714869
0.00026135827
0.00023623206
0.00020016301
0.00015217182
9.3834664e-05
3.6986161e-05
8.5938424e-06
3.3803719e-06
2.8837884e-06
2.8156166e-06
2.7753173e-06
2.7403552e-06
2.7128312e-06
2.6939673e-06
2.6820361e-06
2.672841e-06
2.6622727e-06
2.6498611e-06
2.638498e-06
2.6287238e-06
2.6158565e-06
2.5939318e-06
2.5575015e-06
2.5017338e-06
2.4334534e-06
2.3726769e-06
2.3220343e-06
2.2647832e-06
2.2225223e-06
2.2490461e-06
2.3406968e-06
2.4375109e-06
2.4988692e-06
2.5204725e-06
2.5194188e-06
2.5255765e-06
2.5359106e-06
2.5278938e-06
2.4968499e-06
2.4617934e-06
2.4311847e-06
2.3863551e-06
2.3067851e-06
2.2079146e-06
2.1395244e-06
2.1076557e-06
2.0738513e-06
2.0247468e-06
2.0194107e-06
2.1037276e-06
2.2214649e-06
2.2908505e-06
2.3314222e-06
2.4006525e-06
2.4783153e-06
2.5191887e-06
2.5361437e-06
2.561025e-06
8.5655229e-11
1.8530042e-10
2.8994898e-09
2.6552853e-08
1.4319708e-07
5.3804377e-07
1.5320352e-06
3.480154e-06
6.6011576e-06
1.0925254e-05
1.6383325e-05
2.2891479e-05
3.0378438e-05
3.8791224e-05
4.8091224e-05
5.8248118e-05
6.9236236e-05
8.1029565e-05
9.3594901e-05
0.0001068944
0.00012088568
0.00013550949
0.00015068636
0.00016631422
0.0001822566
0.00019833932
0.00021434197
0.00022999055
0.00024495099
0.00025881826
0.00027110304
0.00028121399
0.00028843245
0.00029188401
0.00029050456
0.00028301172
0.00026790349
0.00024351304
0.00020819548
0.00016084066
0.00010251667
4.3115421e-05
1.0223024e-05
3.5446522e-06
2.8958472e-06
2.8180397e-06
2.7772369e-06
2.7417827e-06
2.7134463e-06
2.6937299e-06
2.6812236e-06
2.6719244e-06
2.6617586e-06
2.650296e-06
2.6406117e-06
2.633348e-06
2.623546e-06
2.6047155e-06
2.5707692e-06
2.5158092e-06
2.4458717e-06
2.3820048e-06
2.3281875e-06
2.2667608e-06
2.2189705e-06
2.241474e-06
2.3325672e-06
2.4311079e-06
2.4943621e-06
2.5168377e-06
2.5155031e-06
2.5214919e-06
2.5323219e-06
2.5250219e-06
2.4945989e-06
2.4605375e-06
2.4318605e-06
2.3893598e-06
2.3110842e-06
2.2115213e-06
2.1420352e-06
2.1101698e-06
2.0763245e-06
2.0250496e-06
2.0162465e-06
2.0990362e-06
2.2178714e-06
2.2883217e-06
2.3285061e-06
2.3977162e-06
2.4764386e-06
2.5181652e-06
2.5351353e-06
2.5599185e-06
2.5911499e-06
8.6731182e-11
1.8848581e-10
2.9573168e-09
2.7082446e-08
1.4599015e-07
5.4802424e-07
1.5581371e-06
3.5329664e-06
6.6890775e-06
1.1053441e-05
1.655527e-05
2.3110529e-05
3.0648502e-05
3.9117027e-05
4.8478417e-05
5.8703325e-05
6.9767106e-05
8.1644862e-05
9.4304569e-05
0.00010770971
0.00012181944
0.00013657623
0.00015190254
0.00016769847
0.00018382988
0.00020012506
0.00021636614
0.00023228168
0.00024754019
0.00026173925
0.00027439247
0.0002849119
0.00029258305
0.0002965365
0.00029571376
0.0002888374
0.00027440699
0.00025074783
0.00021618182
0.00016948626
0.00011130054
4.9781574e-05
1.2229245e-05
3.7590568e-06
2.9107228e-06
2.8200907e-06
2.7787091e-06
2.7428439e-06
2.7137545e-06
2.6932056e-06
2.6801071e-06
2.670653e-06
2.6607899e-06
2.6501068e-06
2.6418782e-06
2.6369252e-06
2.6301142e-06
2.614511e-06
2.5834219e-06
2.5297984e-06
2.4586767e-06
2.3920149e-06
2.3351631e-06
2.2694868e-06
2.215857e-06
2.2340409e-06
2.3244332e-06
2.4246691e-06
2.4898701e-06
2.5132747e-06
2.5116526e-06
2.5174463e-06
2.5287471e-06
2.5220887e-06
2.4921594e-06
2.4589963e-06
2.4322667e-06
2.3921994e-06
2.3153418e-06
2.2151308e-06
2.1445287e-06
2.1127217e-06
2.0789697e-06
2.0255993e-06
2.0132598e-06
2.0944134e-06
2.2143023e-06
2.285834e-06
2.3256182e-06
2.3947826e-06
2.4745533e-06
2.5171157e-06
2.5340938e-06
2.5588137e-06
2.5903045e-06
8.7793893e-11
1.9165768e-10
3.0150972e-09
2.7611613e-08
1.4877906e-07
5.5797692e-07
1.5841127e-06
3.5854049e-06
6.7762085e-06
1.1180313e-05
1.6725321e-05
2.3327074e-05
3.0915413e-05
3.943897e-05
4.8860936e-05
5.9152904e-05
7.0291229e-05
8.2252069e-05
9.5004549e-05
0.00010851344
0.00012273942
0.0001376267
0.00015309969
0.00016906072
0.00018537809
0.00020188271
0.00021835943
0.00023453951
0.00025009416
0.00026462371
0.00027764459
0.00028857213
0.00029669565
0.00030115034
0.00030088291
0.00029462056
0.00028086451
0.00025793312
0.00022411864
0.0001781004
0.00012015502
5.6932936e-05
1.4664802e-05
4.0379463e-06
2.9294628e-06
2.8217956e-06
2.7796959e-06
2.7434947e-06
2.7137162e-06
2.6923673e-06
2.6786795e-06
2.6690463e-06
2.6594167e-06
2.6493675e-06
2.642373e-06
2.6394982e-06
2.6355427e-06
2.6232288e-06
2.5953148e-06
2.5435422e-06
2.4717401e-06
2.4026339e-06
2.3429397e-06
2.272979e-06
2.2132209e-06
2.2267874e-06
2.3163159e-06
2.4181868e-06
2.4853765e-06
2.5097719e-06
2.507863e-06
2.5134407e-06
2.5252004e-06
2.5191215e-06
2.4895585e-06
2.4571827e-06
2.4323973e-06
2.3948594e-06
2.3195498e-06
2.2187433e-06
2.1469988e-06
2.115298e-06
2.081776e-06
2.0263943e-06
2.0104564e-06
2.0898635e-06
2.2107561e-06
2.2833846e-06
2.3227556e-06
2.3918492e-06
2.472666e-06
2.516067e-06
2.5330331e-06
2.5576684e-06
2.5894506e-06
2.6127233e-06
8.8841608e-11
1.9481191e-10
3.0727405e-09
2.813951e-08
1.5155965e-07
5.6788693e-07
1.609927e-06
3.6374044e-06
6.8624521e-06
1.1305741e-05
1.6893326e-05
2.3540946e-05
3.1178987e-05
3.975685e-05
4.9238585e-05
5.9596683e-05
7.0808457e-05
8.2851086e-05
9.5694799e-05
0.00010930563
0.00012364575
0.00013866108
0.00015427802
0.00017040115
0.00018690131
0.00020361211
0.00022032127
0.00023676291
0.00025261111
0.00026746902
0.00028085597
0.00029219044
0.00030076539
0.00030572034
0.0003060068
0.00030035639
0.00028727199
0.00026506567
0.00023200297
0.00018667696
0.00012905686
6.4512008e-05
1.7578938e-05
4.3992921e-06
2.9534454e-06
2.8232078e-06
2.780173e-06
2.7437043e-06
2.7133037e-06
2.6911959e-06
2.6769362e-06
2.6671208e-06
2.6576813e-06
2.6481448e-06
2.642171e-06
2.6411204e-06
2.6398333e-06
2.6308026e-06
2.6063203e-06
2.556886e-06
2.4849268e-06
2.4137761e-06
2.3514827e-06
2.2772454e-06
2.211098e-06
2.2197543e-06
2.3082368e-06
2.4116561e-06
2.4808663e-06
2.5063172e-06
2.5041296e-06
2.5094765e-06
2.5216949e-06