/*--------------------------------*- C++ -*----------------------------------*\
| =========                 |                                                 |
| \\      /  F ield         | OpenFOAM: The Open Source CFD Toolbox           |
|  \\    /   O peration     | Version:  2506                                  |
|   \\  /    A nd           | Website:  www.openfoam.com                      |
|    \\/     M anipulation  |                                                 |
\*---------------------------------------------------------------------------*/
FoamFile
{
    version     2.0;
    format      ascii;
    arch        "LSB;label=32;scalar=64";
    class       volScalarField;
    location    "0.024";
    object      Co;
}
// * * * * * * * * * * * * * * * * * * * * * * * * * * * * * * * * * * * * * //

dimensions      [0 0 0 0 0 0 0];

internalField   nonuniform List<scalar> 
13761
(
0.018100291
0.018479968
0.018841515
0.015851573
0.016314342
0.016761323
0.017193457
0.017611852
0.018014012
0.018397345
0.018762718
0.019111615
0.014276688
0.014773377
0.015259956
0.015737306
0.016201819
0.01665059
0.017084877
0.017505772
0.017910749
0.018297399
0.018666497
0.019019228
0.019354519
0.012093675
0.012615529
0.013131898
0.01364516
0.014152517
0.014649443
0.015136968
0.015615624
0.016081533
0.016532217
0.016969081
0.017392595
0.017799742
0.018188279
0.018559406
0.0189143
0.019251706
0.010415869
0.010924602
0.011442203
0.011965154
0.012485371
0.013000796
0.013513875
0.014020925
0.014517762
0.015005841
0.015485138
0.015951413
0.01640256
0.016840218
0.017264729
0.017673074
0.018063281
0.018436492
0.018793553
0.019133004
0.019453729
0.0087911105
0.0092900738
0.0097890576
0.010288887
0.010796325
0.011313137
0.011834837
0.01235329
0.012867576
0.013379921
0.013885852
0.014381764
0.014869588
0.015348755
0.015814928
0.016266557
0.016705332
0.017130905
0.017539875
0.017930526
0.018304359
0.018662131
0.019002219
0.01932357
0.019627037
0.0072821673
0.0077319135
0.0081904198
0.0086728109
0.0091683085
0.0096626606
0.010159345
0.010664926
0.011180082
0.011699356
0.012214942
0.01272731
0.013238251
0.013742504
0.014237208
0.014724511
0.015203094
0.01566843
0.016119459
0.016557949
0.016983304
0.017392166
0.017783176
0.01815779
0.018516408
0.018857207
0.019179339
0.019483858
0.019772306
0.0059120678
0.0063134228
0.0067319245
0.0071720825
0.0076163601
0.0080726923
0.0085536668
0.0090446483
0.0095337904
0.010027395
0.010531233
0.011044815
0.011561762
0.012074832
0.012585647
0.013095051
0.013597184
0.014090124
0.0145762
0.01505341
0.015517377
0.015967657
0.01640593
0.016830891
0.017238982
0.0176292
0.018003267
0.018361384
0.018701602
0.019023221
0.019327469
0.01961577
0.019887481
0.0047150012
0.0050633432
0.0054268869
0.0058125521
0.0062093088
0.0066251932
0.0070606397
0.0074995488
0.0079539998
0.0084328498
0.0089185593
0.0094026102
0.0098933397
0.010395202
0.010906499
0.011419917
0.011929239
0.012437319
0.012943981
0.013443077
0.013933778
0.014418242
0.014893638
0.015355679
0.015804462
0.016241549
0.01666528
0.017072197
0.017461719
0.017835504
0.018193358
0.018533171
0.018854535
0.019158886
0.01944756
0.019719714
0.0036981439
0.0039914533
0.0042977899
0.0046272356
0.0049706807
0.0053308966
0.0057124047
0.0061046868
0.0065178628
0.006947973
0.0073817183
0.0078346938
0.0083109444
0.0087905898
0.0092693489
0.0097571167
0.010256715
0.010765351
0.011275136
0.011781291
0.01228737
0.012791599
0.013287801
0.013776217
0.01425869
0.014731692
0.015191377
0.01563842
0.016074086
0.016496044
0.016900894
0.017288538
0.017660756
0.018017025
0.018355173
0.018675066
0.018978327
0.01926604
0.019536894
0.019789132
0.0026360578
0.0028564832
0.0030974414
0.0033493985
0.0036223463
0.0039107755
0.0042134819
0.0045392161
0.0048776543
0.0052346363
0.0056115945
0.0059995468
0.0064096704
0.0068337687
0.0072629297
0.0077147825
0.0081872448
0.0086599122
0.0091336899
0.0096188506
0.010116216
0.010621833
0.011127229
0.011629295
0.01213198
0.012632123
0.013124129
0.013609378
0.01408907
0.014558993
0.01501571
0.015460411
0.015894043
0.016313863
0.016716659
0.017102764
0.017473799
0.017828814
0.01816558
0.018484367
0.018786958
0.019074186
0.019344485
0.019596211
0.0018374833
0.0020034659
0.0021777388
0.002368824
0.0025733419
0.0027908092
0.0030281581
0.0032760343
0.0035457853
0.003829422
0.00412889
0.0044506459
0.0047842058
0.0051380544
0.0055100746
0.0058939588
0.0063005953
0.0067184021
0.0071436962
0.0075942573
0.0080617676
0.0085271692
0.0089964696
0.009479021
0.0099735813
0.010475215
0.010975638
0.011473938
0.011973801
0.012470392
0.012958929
0.013441563
0.013918608
0.014385345
0.014839044
0.015281304
0.015712495
0.016129279
0.016528848
0.016912155
0.01728074
0.017633178
0.017967305
0.018283828
0.018584653
0.018870168
0.019138287
0.019387427
0.019618952
0.0010580828
0.0011552874
0.0012625507
0.0013789252
0.0015045713
0.0016433111
0.001789608
0.0019525466
0.0021230811
0.0023113694
0.0025112323
0.0027262384
0.0029594903
0.0032034211
0.0034696877
0.0037483072
0.0040445489
0.0043617846
0.0046905668
0.0050411287
0.0054078528
0.0057878979
0.0061904531
0.0066016835
0.0070238123
0.0074728682
0.0079341312
0.0083919488
0.0088571776
0.009337107
0.0098287042
0.01032619
0.010821654
0.011315999
0.011811884
0.012303321
0.012786979
0.013265689
0.01373875
0.014201153
0.014650883
0.015089932
0.015518171
0.015931927
0.016328739
0.016709886
0.017076523
0.017426802
0.017758733
0.018073542
0.01837311
0.018657329
0.018923916
0.019171731
0.019402461
0.00045724838
0.0005001721
0.00054719113
0.00059831759
0.00065420637
0.00071540103
0.00078255877
0.00085603035
0.00093681266
0.0010249222
0.0011198269
0.0012253356
0.001338514
0.0014620013
0.0015968645
0.0017402445
0.0018997899
0.0020669235
0.0022525013
0.0024481909
0.0026608773
0.002889356
0.0031297485
0.0033925172
0.0036663224
0.0039596389
0.0042721429
0.0045965165
0.0049436182
0.0053048937
0.0056813597
0.0060791319
0.0064839894
0.0069039528
0.007350665
0.0078041331
0.0082546387
0.0087166252
0.009194034
0.0096821564
0.010174341
0.010663942
0.011153949
0.011645633
0.012132217
0.012611904
0.013087561
0.013557252
0.014015831
0.014462176
0.014898386
0.015323405
0.01573309
0.016125796
0.016503499
0.01686701
0.017213925
0.017542552
0.017854663
0.018152038
0.018433905
0.018697549
0.018942127
0.019170127
1.4711776e-05
1.5780704e-05
1.716959e-05
1.8621613e-05
2.0198035e-05
2.1911095e-05
2.3769835e-05
2.5785263e-05
2.7964181e-05
3.0305402e-05
3.2788368e-05
3.5390405e-05
3.8420791e-05
4.2208132e-05
4.6506855e-05
5.0962064e-05
5.5516564e-05
6.0095018e-05
6.4606036e-05
6.9451766e-05
7.6096574e-05
8.3239668e-05
9.0720297e-05
9.8378632e-05
0.00010691309
0.00011662597
0.00012721212
0.00013880998
0.00015129939
0.00016507317
0.00018021882
0.00019678611
0.00021486048
0.00023468447
0.00025648909
0.00028058158
0.0003066345
0.00033529325
0.00036701315
0.00040187496
0.00044009358
0.00048169681
0.00052727628
0.00057693225
0.0006312273
0.00069072444
0.00075590145
0.00082757302
0.00090612657
0.00099177577
0.0010850724
0.0011878667
0.0012976662
0.0014191724
0.0015506989
0.0016923087
0.0018485934
0.0020126293
0.0021950616
0.0023864229
0.0025962697
0.0028196217
0.003057192
0.0033160672
0.0035848412
0.0038750585
0.0041822637
0.0045023562
0.0048456158
0.0052013617
0.005574278
0.0059665544
0.006365507
0.0067837924
0.0072267291
0.0076713449
0.0081154231
0.0085747228
0.0090491158
0.0095329786
0.010019455
0.010503764
0.010989927
0.011476942
0.011957879
0.012432647
0.012903862
0.013368483
0.013821644
0.014263164
0.014695258
0.015116214
0.015521917
0.015911358
0.016286523
0.016647434
0.016991416
0.017317371
0.017627632
0.017923573
0.018203669
0.018465279
0.018708483
0.018936196
1.4016202e-05
1.5024288e-05
1.6347773e-05
1.7730563e-05
1.9231566e-05
2.0862789e-05
2.2632733e-05
2.4551913e-05
2.6626618e-05
2.8855611e-05
3.1217733e-05
3.3691758e-05
3.6564526e-05
4.0182383e-05
4.4295593e-05
4.8564484e-05
5.2922345e-05
5.7307758e-05
6.1630007e-05
6.6195597e-05
7.2540755e-05
7.9357246e-05
8.6499704e-05
9.3866161e-05
0.0001020382
0.00011134397
0.00012147579
0.00013261318
0.00014458444
0.0001577896
0.00017233665
0.00018824675
0.00020560983
0.00022467101
0.00024563869
0.00026885899
0.00029397951
0.00032156367
0.00035221217
0.00038587
0.00042288254
0.00046315494
0.00050728659
0.00055547853
0.00060817107
0.00066593732
0.00072922591
0.00079892998
0.00087523369
0.00095884547
0.0010500096
0.0011494891
0.0012571145
0.0013767755
0.0015044379
0.0016435425
0.0017953953
0.0019562139
0.0021352494
0.0023227367
0.0025298387
0.0027484798
0.0029835171
0.0032378054
0.0035019446
0.0037893457
0.004091123
0.0044075456
0.0047466597
0.0050969756
0.0054662675
0.0058524713
0.0062462162
0.0066631151
0.0071006951
0.0075357449
0.0079743056
0.0084311006
0.008902087
0.0093811644
0.0098611748
0.010339466
0.010820579
0.011301565
0.01177629
0.01224625
0.012713279
0.01317322
0.0136216
0.014059188
0.014487838
0.014904577
0.015305099
0.015689534
0.016060415
0.016417164
0.016756731
0.017078641
0.017385644
0.017678583
0.017955209
0.018212861
0.018452197
0.018676678
1.3315356e-05
1.4262373e-05
1.5519973e-05
1.6833027e-05
1.8258052e-05
1.9806846e-05
2.1487341e-05
2.3309544e-05
2.5279225e-05
2.7395055e-05
2.9635324e-05
3.1980526e-05
3.4697519e-05
3.8144888e-05
4.2071579e-05
4.6151029e-05
5.0309463e-05
5.4497545e-05
5.8624803e-05
6.2922735e-05
6.8958805e-05
7.5441728e-05
8.2257616e-05
8.9320632e-05
9.7166541e-05
0.00010608961
0.00011576779
0.00012641762
0.00013785361
0.00015048143
0.00016442191
0.00017966432
0.00019631352
0.00021461545
0.00023473833
0.00025707446
0.00028126122
0.0003077806
0.00033734667
0.00036979662
0.00040559138
0.00044452939
0.00048721306
0.00053393361
0.00058500464
0.00064104996
0.00070245944
0.00077014919
0.00084439137
0.00092588191
0.0010145127
0.0011113333
0.0012172404
0.0013335662
0.0014574203
0.0015948209
0.0017430462
0.0019019103
0.0020774542
0.0022612212
0.002465131
0.0026788846
0.0029110766
0.0031598906
0.0034200403
0.0037041535
0.0039998705
0.0043127511
0.004646926
0.0049918158
0.0053571431
0.0057367353
0.0061261236
0.0065413923
0.0069713927
0.0073965059
0.0078308794
0.0082853923
0.0087522432
0.0092251975
0.0096978304
0.010170301
0.010646545
0.011121471
0.011590106
0.012054954
0.01251661
0.012970017
0.013411568
0.013843001
0.014265715
0.014676034
0.015070441
0.015450055
0.015816779
0.016168771
0.016503136
0.016820518
0.017124003
0.01741348
0.017685915
0.017939258
0.018175532
0.018398466
1.2608727e-05
1.3494398e-05
1.4685584e-05
1.5928352e-05
1.7276782e-05
1.8742483e-05
2.0332809e-05
2.2057243e-05
2.3921018e-05
2.5922702e-05
2.8040016e-05
3.025549e-05
3.2818215e-05
3.6094159e-05
3.9833215e-05
4.3720055e-05
4.7676097e-05
5.166268e-05
5.5588999e-05
5.962951e-05
6.5347888e-05
7.1493802e-05
7.7991365e-05
8.4742792e-05
9.2262915e-05
0.00010081526
0.00011005218
0.00012021078
0.0001310948
0.00014313493
0.00015645735
0.0001710328
0.00018696894
0.00020450203
0.00022377124
0.000245226
0.00026847822
0.00029393058
0.00032240626
0.00035365109
0.00038821275
0.00042580857
0.00046703029
0.00051227083
0.00056173372
0.00061605734
0.00067556118
0.00074122179
0.0008134295
0.00089263269
0.00097884221
0.0010733371
0.0011767585
0.0012893655
0.0014111416
0.0015464768
0.0016898433
0.0018459101
0.0020167186
0.0021970338
0.0023976831
0.0026069273
0.0028363146
0.0030796126
0.00333688
0.0036170225
0.0039068872
0.0042169387
0.0045457744
0.0048856648
0.0052465807
0.0056194259
0.0060056293
0.0064181949
0.0068384218
0.0072545851
0.0076862973
0.0081378222
0.0085992067
0.0090650831
0.0095302669
0.0099968187
0.010466847
0.010933966
0.011395147
0.011853662
0.012308852
0.012755166
0.013190098
0.01361616
0.014033698
0.014437809
0.014825372
0.015198519
0.015559053
0.015904549
0.016232421
0.016544142
0.016842573
0.017126513
0.01739258
0.017639501
0.017869942
0.018087433
1.1895818e-05
1.2719817e-05
1.3844018e-05
1.501589e-05
1.628706e-05
1.7668944e-05
1.9168313e-05
2.0794117e-05
2.2551042e-05
2.443751e-05
2.6430698e-05
2.8515487e-05
3.0925124e-05
3.4028753e-05
3.7578915e-05
4.1269928e-05
4.5020589e-05
4.8801645e-05
5.25212e-05
5.6312639e-05
6.1705655e-05
6.7514424e-05
7.3696239e-05
8.0134914e-05
8.7304202e-05
9.5478023e-05
0.00010428393
0.0001139627
0.00012428826
0.00013573339
0.00014843596
0.00016234266
0.00017755782
0.00019432011
0.00021274595
0.00023330593
0.00025560813
0.00028000206
0.00030738655
0.00033742589
0.00037073145
0.00040697208
0.00044673475
0.00049049943
0.00053833395
0.0005909225
0.00064851349
0.00071220362
0.0007823498
0.00085923926
0.0009431377
0.0010351468
0.0011358115
0.0012455556
0.0013654193
0.0014966982
0.0016359705
0.0017907987
0.0019576584
0.00213576
0.0023325271
0.0025371716
0.002763316
0.0030010555
0.0032555242
0.0035303147
0.003814661
0.004121636
0.0044441249
0.0047788476
0.0051346321
0.0055011615
0.0058848994
0.0062927434
0.0067017746
0.007110645
0.0075403208
0.0079879032
0.0084431126
0.0089012046
0.0093585729
0.0098188304
0.010282048
0.010741538
0.011196175
0.011649105
0.012097887
0.012536528
0.012963897
0.013382978
0.013792806
0.014188128
0.014567626
0.014934435
0.015288919
0.015627296
0.015947853
0.01625337
0.016546382
0.016824411
0.017083828
0.017324579
0.017550655
1.1176154e-05
1.1938098e-05
1.2994698e-05
1.4095015e-05
1.5288204e-05
1.6585495e-05
1.7993057e-05
1.9519302e-05
2.1168366e-05
2.2938475e-05
2.4806286e-05
2.6759355e-05
2.9016849e-05
3.1947336e-05
3.5307135e-05
3.8799024e-05
4.2341258e-05
4.5912891e-05
4.9420112e-05
5.2969143e-05
5.8029939e-05
6.3503403e-05
6.9368691e-05
7.5496964e-05
8.2278502e-05
9.0053769e-05
9.8429504e-05
0.00010763576
0.00011740805
0.00012826508
0.00014034573
0.00015357954
0.00016807184
0.00018406691
0.00020164811
0.00022129176
0.00024264953
0.00026600562
0.00029227282
0.00032110061
0.00035312637
0.00038801947
0.00042634037
0.00046860357
0.00051477634
0.00056561565
0.0006213281
0.00068303483
0.00075108771
0.00082566888
0.00090723282
0.00099666269
0.0010947176
0.0012018094
0.0013188713
0.0014460532
0.0015833252
0.0017356559
0.0018965674
0.0020716347
0.002263298
0.0024642006
0.0026873195
0.0029198783
0.0031716222
0.0034405998
0.003720558
0.0040243475
0.0043402673
0.00467048
0.0050213358
0.0053822342
0.0057636315
0.0061644755
0.0065616649
0.0069653544
0.0073935336
0.0078361357
0.0082837457
0.0087329474
0.0091825743
0.0096364992
0.010092179
0.01054316
0.010989985
0.011435306
0.011875261
0.012304395
0.012723481
0.01313554
0.013537891
0.01392501
0.014296771
0.014656332
0.015002913
0.015332813
0.015645741
0.015944998
0.016231743
0.016502158
0.016753242
0.016986555
0.017206278
1.0449268e-05
1.114873e-05
1.2137063e-05
1.316512e-05
1.4279554e-05
1.5491419e-05
1.6806269e-05
1.8231961e-05
1.9772084e-05
2.1424643e-05
2.3165726e-05
2.4985986e-05
2.709201e-05
2.9848466e-05
3.3016269e-05
3.6305766e-05
3.9636465e-05
4.2994933e-05
4.6284436e-05
4.9596263e-05
5.4319011e-05
5.9459698e-05
6.5007236e-05
7.0822908e-05
7.7182676e-05
8.4530999e-05
9.2470614e-05
0.00010120225
0.00011043615
0.00012071454
0.00013217102
0.00014473936
0.00015850767
0.00017372546
0.00019046158
0.00020918892
0.0002296037
0.00025191869
0.00027703672
0.00030465655
0.00033540969
0.00036895888
0.00040582557
0.00044655297
0.00049106852
0.0005401713
0.00059399614
0.00065369895
0.00071965131
0.00079193667
0.00087115661
0.00095805976
0.001053545
0.0011578297
0.0012718748
0.0013958782
0.0015309937
0.0016786188
0.0018353075
0.0020097315
0.0021969605
0.0023951771
0.002614079
0.0028410039
0.0030895888
0.0033522965
0.0036284397
0.0039277256
0.0042364169
0.0045624033
0.0049076016
0.0052630472
0.0056416279
0.0060326135
0.0064186057
0.006819925
0.0072460253
0.0076816844
0.0081206337
0.0085611715
0.0090036977
0.0094507915
0.009897919
0.010340109
0.010779615
0.011218178
0.011650261
0.012071065
0.01248288
0.012887711
0.013281008
0.013658073
0.014021028
0.014373081
0.014711665
0.015032704
0.015337352
0.015629382
0.01590872
0.016170827
0.016413693
0.016640233
9.7147086e-06
1.0351198e-05
1.127056e-05
1.2225602e-05
1.3260461e-05
1.4386017e-05
1.5607192e-05
1.693128e-05
1.8361317e-05
1.9895065e-05
2.1508001e-05
2.3194294e-05
2.5149452e-05
2.7730849e-05
3.0704703e-05
3.3788526e-05
3.6904477e-05
4.0046134e-05
4.3112696e-05
4.6190891e-05
5.0571126e-05
5.5381897e-05
6.0610474e-05
6.610055e-05
7.2022387e-05
7.891022e-05
8.6402459e-05
9.4650182e-05
0.00010335826
0.00011307106
0.00012390556
0.00013580611
0.00014884802
0.00016329255
0.00017919273
0.00019698969
0.00021644157
0.00023772032
0.00026168375
0.00028810375
0.00031757222
0.00034975072
0.00038515229
0.0004243524
0.00046720906
0.00051456828
0.00056649762
0.00062420419
0.00068801965
0.00075801297
0.00083487594
0.00091925846
0.0010121155
0.001113526
0.0012246507
0.0013456603
0.00147769
0.0016208681
0.0017756573
0.0019471817
0.0021270944
0.0023220198
0.0025356445
0.0027583049
0.0030041533
0.0032607356
0.0035336992
0.0038277238
0.0041298241
0.0044526906
0.0047921262
0.0051433662
0.0055178196
0.0058966116
0.0062741247
0.0066749633
0.0070970109
0.0075242537
0.0079541522
0.0083860122
0.0088210518
0.0092602615
0.0096983048
0.010131774
0.010563628
0.010993749
0.011415174
0.011825054
0.012227548
0.012623177
0.013006065
0.013373142
0.013727838
0.014071697
0.014400546
0.014711736
0.015008463
0.015293861
0.015565594
0.01581851
0.016052348
0.016271677
9.7047959e-06
1.0338751e-05
1.1256794e-05
1.221066e-05
1.3244415e-05
1.4368696e-05
1.5588566e-05
1.6911139e-05
1.8338519e-05
1.9866571e-05
2.1456484e-05
2.3090346e-05
2.4858335e-05
2.7166992e-05
2.9909414e-05
3.2777924e-05
3.5629751e-05
3.8538052e-05
4.1469326e-05
4.453499e-05
4.833756e-05
5.2664319e-05
5.7153277e-05
6.1888968e-05
6.6946968e-05
7.3199865e-05
8.0225929e-05
8.7979983e-05
9.6169479e-05
0.00010532671
0.00011553747
0.00012676929
0.00013909396
0.00015276159
0.00016781739
0.00018468232
0.0002031735
0.00022342
0.0002461987
0.00027140595
0.00029958492
0.00033039024
0.00036435077
0.00040200491
0.00044317627
0.00048877885
0.00053881523
0.00059451459
0.00065619519
0.00072390246
0.00079837964
0.00088024652
0.00097041311
0.0010690284
0.0011773222
0.0012952048
0.00142393
0.0015636483
0.0017161529
0.0018822892
0.0020577309
0.0022526337
0.00246123
0.0026804824
0.0029219852
0.0031716731
0.0034414334
0.0037287577
0.004025119
0.0043446169
0.0046771557
0.0050242214
0.0053914036
0.0057571092
0.0061297009
0.0065303579
0.0069461804
0.0073639259
0.0077844802
0.0082079954
0.0086357732
0.0090670252
0.0094958217
0.0099202816
0.010344118
0.010765412
0.011176758
0.011578029
0.011973763
0.012361454
0.012734418
0.013091947
0.013438382
0.013773566
0.014092583
0.014394349
0.014683053
0.014960361
0.015222395
0.015465039
0.015690294
1.0436333e-05
1.1131249e-05
1.211759e-05
1.314396e-05
1.4256919e-05
1.5467028e-05
1.678012e-05
1.8203671e-05
1.9739298e-05
2.1380955e-05
2.3075264e-05
2.4787574e-05
2.6512192e-05
2.8722678e-05
3.1432337e-05
3.4295924e-05
3.7101295e-05
3.9998537e-05
4.3027916e-05
4.6306541e-05
4.9854558e-05
5.401983e-05
5.8091497e-05
6.2421777e-05
6.7027032e-05
7.2550195e-05
7.8680183e-05
8.5245068e-05
9.2314824e-05
9.9965075e-05
0.00010823692
0.00011762779
0.000129235
0.00014212077
0.00015633409
0.00017227025
0.0001897829
0.00020897935
0.00023056777
0.00025458344
0.00028148154
0.00031089086
0.00034337598
0.00037945693
0.00041893735
0.0004627928
0.00051095974
0.00056463925
0.00062417419
0.00068958363
0.00076165972
0.00084099456
0.00092845371
0.0010243633
0.0011296496
0.001244345
0.0013698678
0.0015062962
0.0016554719
0.0018166344
0.0019900411
0.0021812785
0.002381183
0.0025972532
0.0028337212
0.0030782474
0.0033456227
0.0036258798
0.0039181794
0.004233786
0.0045596039
0.0049029514
0.0052605868
0.0056151206
0.005986517
0.0063858418
0.0067929513
0.0072002464
0.0076117022
0.0080273728
0.0084474558
0.0088694805
0.0092879189
0.0097032351
0.010119178
0.010530761
0.010930734
0.011321862
0.011707873
0.012083703
0.012443883
0.01279053
0.01312758
0.013452375
0.013759947
0.014051653
0.014332371
0.014601651
0.014854188
0.015087064
1.1177212e-05
1.1935708e-05
1.2991657e-05
1.4091635e-05
1.5284825e-05
1.6581968e-05
1.7989507e-05
1.9515415e-05
2.1161648e-05
2.2921836e-05
2.4741506e-05
2.6580198e-05
2.8442956e-05
3.0830017e-05
3.3743645e-05
3.6821374e-05
3.9846809e-05
4.2971293e-05
4.6241586e-05
4.9738905e-05
5.3590848e-05
5.8074701e-05
6.2479158e-05
6.7183111e-05
7.2171227e-05
7.7613344e-05
8.3342519e-05
8.9224231e-05
9.5674951e-05
0.00010235089
0.0001092865
0.00011701533
0.00012661242
0.0001369514
0.00014813432
0.00016028901
0.00017624993
0.00019439674
0.00021481607
0.00023763396
0.00026322615
0.0002912199
0.00032221881
0.0003567357
0.00039454257
0.00043664654
0.00048291745
0.00053453647
0.00059191238
0.00065500009
0.00072469508
0.00080150986
0.00088633393
0.00097945162
0.0010816639
0.0011933455
0.0013156272
0.0014487595
0.0015943992
0.0017515793
0.0019222757
0.0021074706
0.0023033023
0.0025201538
0.0027504988
0.0029903019
0.003253426
0.0035253926
0.0038142514
0.0041244891
0.0044437355
0.0047816634
0.00512704
0.0054732075
0.0058454323
0.0062406226
0.0066365343
0.0070334941
0.00743703
0.0078450177
0.0082565724
0.008668968
0.0090776465
0.0094848443
0.00989255
0.010292903
0.010681357
0.011063966
0.011442014
0.011807884
0.012158148
0.012496931
0.01282626
0.013141286
0.013438526
0.013721765
0.013994973
0.014254914
0.014496082
1.1918022e-05
1.2740263e-05
1.3865826e-05
1.5039409e-05
1.6312823e-05
1.7696997e-05
1.9198976e-05
2.0827221e-05
2.2584e-05
2.446253e-05
2.6407153e-05
2.8371357e-05
3.0372267e-05
3.2937656e-05
3.6055604e-05
3.934669e-05
4.2591268e-05
4.5943024e-05
4.9452849e-05
5.3170233e-05
5.7323305e-05
6.212382e-05
6.6866165e-05
7.1950998e-05
7.7314164e-05
8.325315e-05
8.9504078e-05
9.591629e-05
0.00010286047
0.00011006646
0.00011759628
0.00012548913
0.0001337706
0.00014230426
0.00015126816
0.00016055034
0.00017312846
0.00018724645
0.00020246106
0.0002205086
0.00024479401
0.00027138353
0.00030089251
0.00033384345
0.00036997532
0.00041028749
0.00045464391
0.00050423545
0.00055944831
0.00062023433
0.00068755832
0.00076183392
0.00084398106
0.00093424134
0.0010334448
0.001142075
0.0012610409
0.0013909311
0.0015328869
0.0016862744
0.0018533134
0.0020333941
0.0022273154
0.0024392327
0.0026590114
0.0028957268
0.003154279
0.0034197976
0.0037070734
0.0040113269
0.0043243078
0.0046549001
0.0049886704
0.0053318619
0.0057061005
0.0060933097
0.0064764649
0.0068647098
0.0072607774
0.0076598669
0.0080623206
0.0084648813
0.008863402
0.0092618844
0.0096598073
0.010047888
0.010425843
0.01080031
0.011167794
0.011520087
0.01185774
0.012185728
0.012503243
0.012804817
0.013089888
0.013363743
0.013627982
0.013877107
0.014107015
1.265941e-05
1.3545622e-05
1.4740866e-05
1.5988115e-05
1.7341819e-05
1.8813095e-05
2.0409584e-05
2.2140234e-05
2.4007591e-05
2.6004358e-05
2.807357e-05
3.0162543e-05
3.2301769e-05
3.5047549e-05
3.837032e-05
4.1874014e-05
4.5336926e-05
4.8916204e-05
5.2664596e-05
5.6603131e-05
6.1055655e-05
6.6172575e-05
7.1258729e-05
7.6727191e-05
8.2457806e-05
8.887483e-05
9.5638219e-05
0.00010258781
0.0001100218
0.00011777117
0.00012589752
0.00013441249
0.00014337054
0.00015264897
0.00016244292
0.00017263216
0.00018332687
0.00019442057
0.00020553718
0.0002183108
0.00023584421
0.0002546045
0.00027937688
0.0003107409
0.00034517953
0.00038370407
0.00042615472
0.00047372787
0.00052676879
0.00058524113
0.000650151
0.00072185606
0.00080132625
0.00088873089
0.00098498374
0.0010905616
0.0012062767
0.0013328323
0.0014710357
0.0016208278
0.0017840232
0.0019600177
0.0021508319
0.0023557252
0.0025715948
0.0028098043
0.0030612585
0.0033208615
0.0036052856
0.0039006732
0.0042064893
0.0045279827
0.0048524415
0.0051967773
0.0055686496
0.0059423266
0.0063134006
0.0066947765
0.0070824768
0.0074724733
0.0078663408
0.0082584351
0.0086470182
0.0090377552
0.0094256206
0.0098015827
0.010169954
0.010535525
0.010891272
0.011231557
0.011560147
0.01188047
0.012188925
0.012480656
0.012757518
0.013024502
0.013280368
0.013518727
1.340204e-05
1.4352517e-05
1.5617572e-05
1.6938617e-05
1.8372751e-05
1.9931273e-05
2.1622427e-05
2.3455646e-05
2.5433703e-05
2.7548694e-05
2.9742205e-05
3.1955274e-05
3.4233296e-05
3.7161869e-05
4.0689921e-05
4.4405522e-05
4.8086044e-05
5.1893264e-05
5.5878897e-05
6.0041158e-05
6.479055e-05
7.0225062e-05
7.5659939e-05
8.1509997e-05
8.759937e-05
9.4476761e-05
0.0001017293
0.00010920292
0.00011714184
0.00012545612
0.00013417797
0.00014332493
0.00015296223
0.00016297121
0.00017360075
0.00018470334
0.00019633769
0.00020842289
0.00022060222
0.00023283264
0.0002448646
0.00025711409
0.00027398583
0.00029568526
0.00032016086
0.00035686767
0.00039742285
0.00044297059
0.00049381447
0.00054994554
0.00061246781
0.00068164041
0.00075842469
0.00084298926
0.00093628887
0.0010387278
0.0011511495
0.0012743371
0.0014089084
0.0015551049
0.0017143015
0.00188635
0.0020727415
0.0022717958
0.0024855898
0.0027177878
0.0029576107
0.0032150039
0.0034961667
0.0037824977
0.0040826627
0.0043956435
0.0047150291
0.0050613456
0.0054263455
0.0057858036
0.006148506
0.0065236401
0.0069020976
0.0072832968
0.0076674694
0.0080481716
0.0084281714
0.0088108328
0.0091859923
0.0095490448
0.0099084514
0.01026463
0.010608012
0.010936226
0.011254641
0.011563905
0.01185846
0.012135874
0.012401143
0.012658186
0.012902532
1.4146599e-05
1.5161704e-05
1.6496761e-05
1.7891811e-05
1.9406584e-05
2.1052582e-05
2.2838651e-05
2.4774689e-05
2.6863662e-05
2.9096956e-05
3.1414544e-05
3.3751134e-05
3.6168676e-05
3.928276e-05
4.3016721e-05
4.6943672e-05
5.0841043e-05
5.4876817e-05
5.9097479e-05
6.3488236e-05
6.8531581e-05
7.4285666e-05
8.0070795e-05
8.6297656e-05
9.2740218e-05
0.00010006079
0.00010777243
0.00011573344
0.00012420751
0.0001331204
0.00014243831
0.00015221518
0.0001625499
0.00017330614
0.00018474285
0.00019674535
0.00020933503
0.0002224173
0.00023563621
0.00024898319
0.00026224443
0.00027579648
0.00028946536
0.00030300912
0.00031788936
0.00034259102
0.00036894947
0.00041195872
0.0004605729
0.0005144087
0.00057453862
0.0006411494
0.00071526067
0.00079698253
0.00088728571
0.00098660227
0.0010958112
0.0012156357
0.0013466045
0.0014891418
0.0016443804
0.0018124161
0.0019940892
0.0021887671
0.0023992902
0.0026242451
0.002861199
0.0031212054
0.003393663
0.0036692086
0.0039630531
0.0042671865
0.0045842002
0.0049301596
0.0052819409
0.0056271214
0.0059837746
0.0063515662
0.0067200826
0.0070923242
0.0074661278
0.0078368005
0.0082095245
0.0085819844
0.0089433133
0.009296267
0.009648602
0.00999393
0.010323478
0.010640091
0.010949026
0.011247541
0.011530563
0.011799394
0.012059292
0.012309773
1.4893807e-05
1.5973964e-05
1.7379277e-05
1.884862e-05
2.0444318e-05
2.2178118e-05
2.4059438e-05
2.6098638e-05
2.8298838e-05
3.0650609e-05
3.3092131e-05
3.5551775e-05
3.8109822e-05
4.1412496e-05
4.5353352e-05
4.9491127e-05
5.3604463e-05
5.7869458e-05
6.2322917e-05
6.6947351e-05
7.2283971e-05
7.8359409e-05
8.4492804e-05
9.1091263e-05
9.7884718e-05
0.00010563198
0.00011377071
0.00012218575
0.0001312218
0.00014075654
0.00015068571
0.00016110003
0.0001721273
0.00018365149
0.0001959113
0.00020877003
0.00022230277
0.00023639137
0.00025065397
0.00026513542
0.0002796043
0.00029441241
0.00030950417
0.00032456206
0.00033980177
0.00035417345
0.00036803949
0.00039580922
0.00042709803
0.00047858922
0.00053629123
0.00060034909
0.0006717433
0.00075061442
0.00083796551
0.00093419938
0.0010401308
0.001156514
0.0012838586
0.0014226259
0.0015738759
0.0017378093
0.0019150351
0.0021057321
0.0023116925
0.0025310477
0.0027659426
0.0030181606
0.0032749945
0.0035446433
0.0038352706
0.004133991
0.0044527682
0.0047944624
0.0051303332
0.0054663414
0.0058190902
0.0061773909
0.006535782
0.0068992375
0.0072625915
0.0076240837
0.0079884648
0.0083483536
0.0086968113
0.0090413974
0.0093842526
0.0097154853
0.010031805
0.010338897
0.010638348
0.010924963
0.011195625
0.011453656
0.011702878
1.5644413e-05
1.6790114e-05
1.8266005e-05
1.9809969e-05
2.1486975e-05
2.3309001e-05
2.5286005e-05
2.7428809e-05
2.9740648e-05
3.2211175e-05
3.4776564e-05
3.7358929e-05
4.0058758e-05
4.3553397e-05
4.7702363e-05
5.2050683e-05
5.6379057e-05
6.0873932e-05
6.5558843e-05
7.0421284e-05
7.6052609e-05
8.245083e-05
8.8928696e-05
9.5893628e-05
0.00010303886
0.00011120131
0.00011974472
0.00012858928
0.00013820058
0.00014837004
0.00015891643
0.00016998717
0.00018172447
0.00019400259
0.00020709058
0.00022081828
0.00023528069
0.00025036224
0.00026564521
0.00028126114
0.00029695946
0.00031303123
0.00032951929
0.00034603415
0.00036283859
0.00037889268
0.00039446517
0.00040934607
0.00042434072
0.00045679629
0.00049787211
0.00055929239
0.00062793663
0.00070398139
0.00078834555
0.00088142837
0.00098407949
0.00109709
0.0012208115
0.0013558002
0.0015031716
0.0016630956
0.001836108
0.0020227872
0.0022241568
0.0024392201
0.002669668
0.0029121118
0.0031633818
0.0034347042
0.0037190799
0.0040121676
0.0043301712
0.0046579711
0.0049765026
0.0053070321
0.0056537593
0.0060003378
0.0063493329
0.0067038222
0.0070566191
0.0074094942
0.0077641392
0.0081103911
0.0084474559
0.0087835889
0.0091148873
0.0094325519
0.0097376215
0.01003446
0.010321603
0.010594272
0.010852427
0.011101336
1.6399181e-05
1.7610987e-05
1.9157882e-05
2.0776804e-05
2.2535585e-05
2.444635e-05
2.6519582e-05
2.8766548e-05
3.1190547e-05
3.3780215e-05
3.646948e-05
3.9174376e-05
4.2017603e-05
4.5707758e-05
5.0066346e-05
5.4625175e-05
5.9167625e-05
6.389335e-05
6.880914e-05
7.3913644e-05
7.9840847e-05
8.656282e-05
9.338043e-05
0.00010070859
0.00010821098
0.00011678524
0.00012572481
0.00013498701
0.00014516974
0.00015596689
0.00016714488
0.00017888101
0.00019134357
0.00020438389
0.00021828545
0.00023289583
0.00024828624
0.00026435016
0.00028065122
0.00029737954
0.00031429171
0.00033163844
0.00034954893
0.00036750661
0.00038584842
0.00040352797
0.00042076497
0.00043755261
0.00045355329
0.00046895085
0.00048915433
0.00052596718
0.00058405114
0.00065729163
0.00073860722
0.00082852747
0.00092789217
0.0010374208
0.0011574526
0.0012887699
0.0014323905
0.0015883104
0.0017571926
0.0019397931
0.0021364727
0.0023464433
0.0025695936
0.0028033837
0.0030507296
0.0033150593
0.0035888337
0.003881623
0.0041962716
0.0045066983
0.0048160544
0.0051458388
0.0054839745
0.0058195716
0.0061612308
0.0065062979
0.0068483697