/*--------------------------------*- C++ -*----------------------------------*\
| =========                 |                                                 |
| \\      /  F ield         | OpenFOAM: The Open Source CFD Toolbox           |
|  \\    /   O peration     | Version:  2506                                  |
|   \\  /    A nd           | Website:  www.openfoam.com                      |
|    \\/     M anipulation  |                                                 |
\*---------------------------------------------------------------------------*/
FoamFile
{
    version     2.0;
    format      ascii;
    arch        "LSB;label=32;scalar=64";
    class       volScalarField;
    location    "0.03";
    object      alphat;
}
// * * * * * * * * * * * * * * * * * * * * * * * * * * * * * * * * * * * * * //

dimensions      [1 -1 -1 0 0 0 0];

internalField   nonuniform List<scalar> 
13763
(
0.0007916765
0.00062436805
0.00045313513
0.00026762166
0.00010342525
2.2879379e-05
7.5550816e-06
6.5411292e-06
6.5027219e-06
6.5287714e-06
6.539006e-06
6.5417512e-06
6.5294637e-06
6.45857e-06
6.4190068e-06
6.450931e-06
6.5098195e-06
6.5784387e-06
6.646432e-06
6.6693398e-06
6.6575839e-06
6.6206283e-06
6.5860778e-06
6.5705995e-06
6.5608999e-06
6.5530496e-06
6.5370806e-06
6.4732794e-06
6.3973895e-06
6.4111004e-06
6.497902e-06
6.5900516e-06
6.6156369e-06
6.6147502e-06
6.6197533e-06
6.6356368e-06
6.6384062e-06
6.6348474e-06
6.6345878e-06
6.6482567e-06
6.6846346e-06
6.7138966e-06
6.7157462e-06
6.7009389e-06
6.6639224e-06
6.6245159e-06
6.6001793e-06
6.5887169e-06
0.0007917923
0.0006243955
0.00045303936
0.00026749242
0.00010335872
2.2864462e-05
7.5539355e-06
6.5412754e-06
6.5026601e-06
6.5289142e-06
6.5393061e-06
6.5422301e-06
6.5301891e-06
6.4592443e-06
6.4190974e-06
6.4510302e-06
6.5095381e-06
6.5786612e-06
6.6459625e-06
6.6683177e-06
6.6566003e-06
6.6198804e-06
6.5858244e-06
6.5703709e-06
6.5605629e-06
6.5526469e-06
6.5366899e-06
6.4730491e-06
6.3972729e-06
6.4108028e-06
6.497253e-06
6.5902827e-06
6.6177267e-06
6.6178237e-06
6.6233808e-06
6.6389798e-06
6.6413454e-06
6.6373484e-06
6.6366878e-06
6.6495445e-06
6.6850938e-06
6.713324e-06
6.7147015e-06
6.6994576e-06
6.6626511e-06
6.6242165e-06
6.6007802e-06
6.5895736e-06
6.5832394e-06
6.5797377e-06
0.0007920602
0.00062449604
0.0004529817
0.00026738466
0.00010330434
2.2855293e-05
7.5544775e-06
6.5416401e-06
6.5030268e-06
6.5293125e-06
6.5398231e-06
6.5428993e-06
6.5311053e-06
6.4601029e-06
6.4192884e-06
6.4510178e-06
6.5094415e-06
6.5788031e-06
6.6453789e-06
6.6673679e-06
6.6554204e-06
6.6191137e-06
6.5855032e-06
6.5700753e-06
6.5601356e-06
6.5521275e-06
6.5361713e-06
6.4726949e-06
6.3970819e-06
6.4104922e-06
6.4964642e-06
6.5903966e-06
6.6199197e-06
6.6209689e-06
6.6268858e-06
6.6419747e-06
6.6439489e-06
6.6395528e-06
6.63857e-06
6.6507424e-06
6.6852323e-06
6.7119268e-06
6.7127569e-06
6.6970764e-06
6.6607322e-06
6.6234633e-06
6.6009072e-06
6.5900976e-06
6.5840836e-06
6.5805004e-06
6.578711e-06
0.00079227189
0.00062451211
0.00045284258
0.00026722668
0.00010324117
2.2849779e-05
7.5562811e-06
6.5423695e-06
6.5035665e-06
6.5298708e-06
6.5405075e-06
6.5437398e-06
6.5321965e-06
6.4611117e-06
6.4195527e-06
6.4511137e-06
6.5093204e-06
6.5787796e-06
6.6448839e-06
6.6663655e-06
6.6542265e-06
6.618306e-06
6.5851647e-06
6.5697693e-06
6.5596844e-06
6.5515699e-06
6.5356154e-06
6.4723249e-06
6.3969135e-06
6.4101976e-06
6.4956311e-06
6.5904054e-06
6.6220698e-06
6.624087e-06
6.6302478e-06
6.6446009e-06
6.6461848e-06
6.6414748e-06
6.6402693e-06
6.6518859e-06
6.6849936e-06
6.7095838e-06
6.7098051e-06
6.6937288e-06
6.6581816e-06
6.6223788e-06
6.600752e-06
6.5902814e-06
6.584536e-06
6.5810391e-06
6.5793636e-06
6.5784942e-06
6.5785956e-06
0.00079240753
0.00062442755
0.00045260803
0.00026700873
0.00010316412
2.2846644e-05
7.5590456e-06
6.5434205e-06
6.504309e-06
6.5305817e-06
6.5413575e-06
6.5447453e-06
6.5334404e-06
6.462251e-06
6.4198805e-06
6.4511911e-06
6.5092412e-06
6.5787267e-06
6.6443827e-06
6.665337e-06
6.6530136e-06
6.6175109e-06
6.5848377e-06
6.569486e-06
6.5592378e-06
6.5510009e-06
6.5350466e-06
6.4719531e-06
6.3967657e-06
6.4099101e-06
6.4947382e-06
6.5902685e-06
6.6240798e-06
6.6271198e-06
6.6334227e-06
6.6468309e-06
6.6480148e-06
6.6431033e-06
6.6417925e-06
6.6529485e-06
6.6842305e-06
6.7061072e-06
6.7056778e-06
6.6893194e-06
6.6549847e-06
6.6210213e-06
6.6004578e-06
6.5903158e-06
6.5846993e-06
6.5812495e-06
6.5796557e-06
6.5791491e-06
6.5792841e-06
6.5797767e-06
6.5804741e-06
0.00079244456
0.00062422268
0.00045225993
0.00026671747
0.00010306677
2.2844212e-05
7.5624139e-06
6.5447584e-06
6.5051648e-06
6.5314077e-06
6.5423321e-06
6.5459101e-06
6.5348326e-06
6.4635099e-06
6.4202367e-06
6.4512978e-06
6.5091277e-06
6.5786856e-06
6.6438975e-06
6.6642521e-06
6.651818e-06
6.616724e-06
6.5845404e-06
6.5692381e-06
6.5588058e-06
6.5504274e-06
6.5344666e-06
6.4715866e-06
6.3966447e-06
6.4096337e-06
6.4938169e-06
6.5899602e-06
6.6259176e-06
6.6300154e-06
6.6363412e-06
6.6486384e-06
6.649423e-06
6.6444644e-06
6.6431998e-06
6.6539362e-06
6.6828027e-06
6.7013415e-06
6.7002073e-06
6.6837662e-06
6.6511242e-06
6.6194125e-06
6.6000865e-06
6.5903028e-06
6.5847555e-06
6.5813129e-06
6.5797358e-06
6.5793908e-06
6.5796154e-06
6.5803744e-06
6.5810409e-06
6.5808686e-06
6.5806299e-06
0.00079235564
0.00062387438
0.00045177711
0.00026633689
0.000102941
2.284018e-05
7.5659375e-06
6.5462312e-06
6.5061361e-06
6.5323112e-06
6.5434037e-06
6.5472207e-06
6.5363531e-06
6.4648646e-06
6.4206175e-06
6.4513939e-06
6.5090524e-06
6.5786406e-06
6.643409e-06
6.6631538e-06
6.6506091e-06
6.6159625e-06
6.5842738e-06
6.5690327e-06
6.5583945e-06
6.5498499e-06
6.5338744e-06
6.4712221e-06
6.3965365e-06
6.4093545e-06
6.4928337e-06
6.5894235e-06
6.627521e-06
6.6327196e-06
6.6389637e-06
6.6499936e-06
6.6503935e-06
6.6455855e-06
6.6445255e-06
6.6548164e-06
6.6805199e-06
6.6951244e-06
6.6932621e-06
6.6770078e-06
6.6465987e-06
6.6175673e-06
6.5996606e-06
6.5902787e-06
6.5847857e-06
6.5813335e-06
6.5797534e-06
6.5794463e-06
6.5796957e-06
6.5805685e-06
6.5812619e-06
6.5813451e-06
6.5810967e-06
6.580609e-06
6.580536e-06
6.5806624e-06
0.0007921095
0.00062335635
0.0004511353
0.00026584829
0.00010277688
2.2831475e-05
7.5691018e-06
6.5477483e-06
6.507109e-06
6.5332332e-06
6.5445273e-06
6.5486481e-06
6.5379819e-06
6.4663023e-06
6.4210073e-06
6.451518e-06
6.5089547e-06
6.5786129e-06
6.6429435e-06
6.66202e-06
6.6494082e-06
6.6152096e-06
6.5840415e-06
6.5688687e-06
6.5580011e-06
6.5492596e-06
6.5332537e-06
6.4708499e-06
6.3964386e-06
6.4090691e-06
6.4917831e-06
6.5886194e-06
6.6288291e-06
6.6351948e-06
6.6412718e-06
6.6508737e-06
6.6509252e-06
6.646529e-06
6.6458298e-06
6.6555672e-06
6.6771951e-06
6.6873637e-06
6.684775e-06
6.6690355e-06
6.6414418e-06
6.6155096e-06
6.5991919e-06
6.5902543e-06
6.5848141e-06
6.5813457e-06
6.5797573e-06
6.579456e-06
6.57971e-06
6.5806052e-06
6.5813056e-06
6.5814695e-06
6.5812351e-06
6.580983e-06
6.5810448e-06
6.5810856e-06
6.5810385e-06
6.581464e-06
0.00079167039
0.00062263774
0.0004503062
0.00026522983
0.00010256189
2.2814324e-05
7.5713257e-06
6.5491299e-06
6.5080576e-06
6.5341354e-06
6.5456679e-06
6.5501553e-06
6.5396722e-06
6.4677952e-06
6.4213997e-06
6.4516262e-06
6.5089011e-06
6.5786043e-06
6.6424709e-06
6.6608803e-06
6.6481926e-06
6.6144771e-06
6.5838453e-06
6.5687524e-06
6.5576288e-06
6.5486534e-06
6.5326009e-06
6.4704691e-06
6.3963473e-06
6.40877e-06
6.4906287e-06
6.5874882e-06
6.6297934e-06
6.637433e-06
6.6432498e-06
6.6512369e-06
6.6510067e-06
6.6473317e-06
6.6471697e-06
6.656128e-06
6.6726504e-06
6.6781065e-06
6.6747772e-06
6.6599068e-06
6.6357308e-06
6.6132793e-06
6.5986934e-06
6.5902361e-06
6.5848473e-06
6.5813571e-06
6.5797589e-06
6.5794575e-06
6.5797121e-06
6.5806101e-06
6.5813117e-06
6.5814877e-06
6.5812564e-06
6.5810594e-06
6.5811414e-06
6.5811675e-06
6.5813213e-06
6.581719e-06
0.00079099727
0.00062168312
0.00044925719
0.00026445576
0.00010228071
2.2784101e-05
7.5720102e-06
6.5502768e-06
6.508874e-06
6.5349645e-06
6.5467858e-06
6.5516873e-06
6.5413963e-06
6.4693265e-06
6.4217824e-06
6.4517604e-06
6.5088352e-06
6.5786093e-06
6.642027e-06
6.659718e-06
6.6469809e-06
6.6137542e-06
6.5836878e-06
6.5686878e-06
6.5572784e-06
6.5480279e-06
6.531908e-06
6.4700764e-06
6.3962656e-06
6.4084587e-06
6.4893382e-06
6.5859753e-06
6.6303977e-06
6.6394679e-06
6.644876e-06
6.6510164e-06
6.6506006e-06
6.6480182e-06
6.6486007e-06
6.6564263e-06
6.6667584e-06
6.6676783e-06
6.6633942e-06
6.6497641e-06
6.6295984e-06
6.6109352e-06
6.5981854e-06
6.5902306e-06
6.5848877e-06
6.5813694e-06
6.57976e-06
6.5794578e-06
6.5797123e-06
6.5806106e-06
6.5813123e-06
6.5814893e-06
6.5812586e-06
6.5810681e-06
6.5811524e-06
6.5811763e-06
6.5813618e-06
6.5817805e-06
0.00079004403
0.00062045141
0.00044795065
0.00026349628
0.00010191501
2.2735531e-05
7.5707009e-06
6.5510499e-06
6.5095475e-06
6.5356873e-06
6.547851e-06
6.5531859e-06
6.5431096e-06
6.470865e-06
6.4221468e-06
6.4518719e-06
6.5088201e-06
6.5786563e-06
6.6415791e-06
6.658555e-06
6.6457645e-06
6.6130558e-06
6.5835758e-06
6.5686706e-06
6.5569527e-06
6.5473839e-06
6.5311763e-06
6.4696763e-06
6.3961982e-06
6.4081388e-06
6.4878796e-06
6.5840192e-06
6.6306433e-06
6.641384e-06
6.6461135e-06
6.6500964e-06
6.6496214e-06
6.6485254e-06
6.6501724e-06
6.6562793e-06
6.6594044e-06
6.6568577e-06
6.6507313e-06
6.6389014e-06
6.6232578e-06
6.6085549e-06
6.5976924e-06
6.5902469e-06
6.5849371e-06
6.5813823e-06
6.5797611e-06
6.579458e-06
6.5797124e-06
6.5806108e-06
6.5813122e-06
6.5814894e-06
6.5812586e-06
6.5810686e-06
6.5811531e-06
6.5811768e-06
6.5813649e-06
6.5817869e-06
0.00078875774
0.00061889517
0.0004463431
0.00026231607
0.0001014437
2.2662616e-05
7.5668117e-06
6.5514385e-06
6.5100126e-06
6.5362645e-06
6.5488389e-06
6.5546071e-06
6.5447914e-06
6.4723981e-06
6.4224877e-06
6.4520058e-06
6.5088098e-06
6.5787254e-06
6.6411707e-06
6.6573895e-06
6.6445602e-06
6.6123795e-06
6.5835159e-06
6.568702e-06
6.5566502e-06
6.54672e-06
6.5304019e-06
6.4692681e-06
6.3961523e-06
6.4078178e-06
6.4862323e-06
6.5815979e-06
6.630588e-06
6.6433134e-06
6.6469061e-06
6.6483419e-06
6.6480158e-06
6.6485347e-06
6.6519331e-06
6.6550129e-06
6.6519841e-06
6.6449346e-06
6.6373925e-06
6.6279873e-06
6.6169993e-06
6.6062208e-06
6.5972418e-06
6.590295e-06
6.5849969e-06
6.5813967e-06
6.5797622e-06
6.579458e-06
6.5797124e-06
6.5806107e-06
6.5813123e-06
6.5814894e-06
6.5812584e-06
6.5810685e-06
6.581153e-06
6.5811766e-06
6.5813648e-06
6.5817872e-06
0.00078707944
0.00061696005
0.00044438502
0.00026087568
0.00010084295
2.2558918e-05
7.5599011e-06
6.5513846e-06
6.5103017e-06
6.5366899e-06
6.5497318e-06
6.5559158e-06
6.5464111e-06
6.4739048e-06
6.4228042e-06
6.4521132e-06
6.5088494e-06
6.5788511e-06
6.6407918e-06
6.6562418e-06
6.643374e-06
6.6117408e-06
6.5835248e-06
6.5687964e-06
6.5563725e-06
6.5460366e-06
6.5295876e-06
6.4688559e-06
6.3961421e-06
6.4075066e-06
6.4843974e-06
6.5787543e-06
6.6302747e-06
6.6453017e-06
6.6471455e-06
6.645833e-06
6.6454862e-06
6.6481673e-06
6.6531408e-06
6.6525449e-06
6.6442514e-06
6.632335e-06
6.6242732e-06
6.6177349e-06
6.6111182e-06
6.6040079e-06
6.5968613e-06
6.5903871e-06
6.5850707e-06
6.5814118e-06
6.5797626e-06
6.5794577e-06
6.5797124e-06
6.5806109e-06
6.5813122e-06
6.5814891e-06
6.5812581e-06
6.5810684e-06
6.5811528e-06
6.5811762e-06
6.5813644e-06
6.5817872e-06
0.0007849427
0.00061458469
0.00044202063
0.00025912907
0.00010008609
2.2417613e-05
7.5496471e-06
6.551012e-06
6.5103911e-06
6.5369651e-06
6.5505302e-06
6.5571065e-06
6.5479698e-06
6.4753867e-06
6.4231001e-06
6.452244e-06
6.5089114e-06
6.5790176e-06
6.6404813e-06
6.655121e-06
6.6422214e-06
6.61115e-06
6.5836133e-06
6.5689515e-06
6.5561154e-06
6.5453302e-06
6.5287307e-06
6.4684393e-06
6.3961667e-06
6.4072164e-06
6.4824155e-06
6.575626e-06
6.6297807e-06
6.6469242e-06
6.6471686e-06
6.6425136e-06
6.641948e-06
6.6470417e-06
6.6523734e-06
6.6493407e-06
6.6355929e-06
6.6198409e-06
6.6122382e-06
6.6087572e-06
6.6058609e-06
6.6019658e-06
6.5965667e-06
6.590536e-06
6.5851611e-06
6.5814277e-06
6.5797622e-06
6.5794571e-06
6.5797123e-06
6.5806112e-06
6.5813121e-06
6.5814887e-06
6.5812579e-06
6.5810682e-06
6.5811526e-06
6.581176e-06
6.5813643e-06
6.5817871e-06
0.00078227355
0.00061169925
0.00043918697
0.00025702358
9.9143206e-05
2.2231523e-05
7.5357181e-06
6.5503421e-06
6.5103419e-06
6.5371126e-06
6.5512413e-06
6.5581921e-06
6.5494617e-06
6.4768445e-06
6.423384e-06
6.4523845e-06
6.5090191e-06
6.579246e-06
6.6402575e-06
6.6540354e-06
6.6411152e-06
6.6106297e-06
6.5837971e-06
6.5691677e-06
6.5558735e-06
6.5445973e-06
6.5278318e-06
6.4680232e-06
6.3962445e-06
6.4069659e-06
6.4803851e-06
6.5724671e-06
6.6290886e-06
6.6482634e-06
6.6472373e-06
6.6382969e-06
6.6372112e-06
6.6441221e-06
6.6490038e-06
6.6439041e-06
6.626103e-06
6.6082464e-06
6.6019907e-06
6.6013836e-06
6.6014475e-06
6.600101e-06
6.596332e-06
6.5907387e-06
6.5852696e-06
6.581444e-06
6.5797614e-06
6.5794564e-06
6.5797122e-06
6.5806112e-06
6.5813117e-06
6.5814883e-06
6.5812576e-06
6.5810679e-06
6.5811525e-06
6.5811759e-06
6.5813641e-06
6.581787e-06
0.00077898885
0.00060822549
0.00043581281
0.00025449928
9.7980658e-05
2.199301e-05
7.5177886e-06
6.5495047e-06
6.5101553e-06
6.5371482e-06
6.5518777e-06
6.5592032e-06
6.5509041e-06
6.4783149e-06
6.423667e-06
6.452565e-06
6.509169e-06
6.5795565e-06
6.6401363e-06
6.6529849e-06
6.6400648e-06
6.6102057e-06
6.5840945e-06
6.5694473e-06
6.5556375e-06
6.5438297e-06
6.5268881e-06
6.4676069e-06
6.3963862e-06
6.4067809e-06
6.4784853e-06
6.5696575e-06
6.6283432e-06
6.6495839e-06
6.6474171e-06
6.6334629e-06
6.6310385e-06
6.6383411e-06
6.6419784e-06
6.6353254e-06
6.6156699e-06
6.5981474e-06
6.5941159e-06
6.5954128e-06
6.5982367e-06
6.598325e-06
6.5960264e-06
6.5909437e-06
6.5853896e-06
6.5814628e-06
6.579761e-06
6.5794559e-06
6.5797121e-06
6.5806113e-06
6.5813116e-06
6.581488e-06
6.5812573e-06
6.5810676e-06
6.5811521e-06
6.5811755e-06
6.5813638e-06
6.5817868e-06
0.00077499605
0.0006040751
0.00043181684
0.00025148902
9.6561712e-05
2.169395e-05
7.4954263e-06
6.5485281e-06
6.5098889e-06
6.5370974e-06
6.5524407e-06
6.5601623e-06
6.5523063e-06
6.4798327e-06
6.4239609e-06
6.4527924e-06
6.5093733e-06
6.5799832e-06
6.6401345e-06
6.6519526e-06
6.6390754e-06
6.6099096e-06
6.5845287e-06
6.5697953e-06
6.5553995e-06
6.5430191e-06
6.5258965e-06
6.4671919e-06
6.3966051e-06
6.4067059e-06
6.4769685e-06
6.5677272e-06
6.6278687e-06
6.6509943e-06
6.6480322e-06
6.6286624e-06
6.6232855e-06
6.6290741e-06
6.6307045e-06
6.6232475e-06
6.6043859e-06
6.589859e-06
6.5879656e-06
6.5909708e-06
6.5960837e-06
6.5971723e-06
6.595618e-06
6.5910572e-06
6.5854965e-06
6.5814836e-06
6.5797609e-06
6.579455e-06
6.5797118e-06
6.5806115e-06
6.5813114e-06
6.5814877e-06
6.581257e-06
6.5810673e-06
6.5811516e-06
6.581175e-06
6.5813635e-06
6.5817868e-06
0.0007701913
0.00059914945
0.00042710735
0.00024791693
9.4845961e-05
2.1325505e-05
7.468096e-06
6.5474833e-06
6.5095513e-06
6.5369858e-06
6.5529385e-06
6.5611051e-06
6.553713e-06
6.481433e-06
6.4242754e-06
6.4530815e-06
6.5096433e-06
6.5805659e-06
6.640248e-06
6.6509056e-06
6.6381397e-06
6.6097726e-06
6.5851219e-06
6.5702193e-06
6.555151e-06
6.5421547e-06
6.5248518e-06
6.4667755e-06
6.3969224e-06
6.4068256e-06
6.4761367e-06
6.5670866e-06
6.6281382e-06
6.6526724e-06
6.6493909e-06
6.625095e-06
6.6141644e-06
6.6167157e-06
6.6159676e-06
6.608451e-06
6.5928762e-06
6.5831504e-06
6.5831813e-06
6.5881359e-06
6.5948698e-06
6.5965365e-06
6.5953115e-06
6.5910901e-06
6.5855667e-06
6.5815008e-06
6.579761e-06
6.5794544e-06
6.5797118e-06
6.5806116e-06
6.5813112e-06
6.5814874e-06
6.5812567e-06
6.5810669e-06
6.5811514e-06
6.5811747e-06
6.5813632e-06
6.5817866e-06
0.00076445904
0.00059333754
0.00042158056
0.00024369828
9.2789669e-05
2.0878306e-05
7.435151e-06
6.5463596e-06
6.5091778e-06
6.5368463e-06
6.553376e-06
6.562069e-06
6.5551466e-06
6.4831444e-06
6.4246243e-06
6.4534512e-06
6.5099892e-06
6.5813604e-06
6.640483e-06
6.6498023e-06
6.637241e-06
6.6098098e-06
6.5858963e-06
6.5707321e-06
6.5548881e-06
6.5412272e-06
6.523748e-06
6.4663503e-06
6.3973652e-06
6.4072265e-06
6.4761836e-06
6.5686695e-06
6.6302593e-06
6.6550077e-06
6.6516662e-06
6.6239926e-06
6.6049539e-06
6.6028287e-06
6.6000343e-06
6.5928573e-06
6.5822869e-06
6.5778077e-06
6.5795566e-06
6.5867227e-06
6.5943927e-06
6.596247e-06
6.5951462e-06
6.5910897e-06
6.5856002e-06
6.5815102e-06
6.5797611e-06
6.5794541e-06
6.5797115e-06
6.5806113e-06
6.5813108e-06
6.5814871e-06
6.5812565e-06
6.5810668e-06
6.5811513e-06
6.5811745e-06
6.5813629e-06
6.5817863e-06
0.00075766967
0.00058651514
0.00041511918
0.00023873827
9.0345512e-05
2.034268e-05
7.3959281e-06
6.545159e-06
6.5087783e-06
6.5367153e-06
6.5537694e-06
6.5630837e-06
6.5566406e-06
6.4850051e-06
6.4250193e-06
6.4539181e-06
6.5104324e-06
6.5824377e-06
6.6408339e-06
6.648602e-06
6.636349e-06
6.6100311e-06
6.5868632e-06
6.5713472e-06
6.5546126e-06
6.5402307e-06
6.5225793e-06
6.4658981e-06
6.3979782e-06
6.4080149e-06
6.477471e-06
6.5735587e-06
6.6354644e-06
6.6586207e-06
6.6549428e-06
6.6253249e-06
6.5983595e-06
6.5898389e-06
6.5848993e-06
6.5791501e-06
6.573921e-06
6.5735231e-06
6.5772455e-06
6.586266e-06
6.594323e-06
6.5961604e-06
6.5950859e-06
6.591083e-06
6.5856105e-06
6.5815138e-06
6.5797613e-06
6.5794539e-06
6.5797115e-06
6.5806112e-06
6.5813106e-06
6.5814869e-06
6.5812562e-06
6.5810665e-06
6.5811508e-06
6.5811741e-06
6.5813625e-06
6.581786e-06
0.0007496768
0.0005785405
0.00040758938
0.0002329308
8.7462672e-05
1.9708942e-05
7.3498373e-06
6.5438404e-06
6.508369e-06
6.5366245e-06
6.5541124e-06
6.564137e-06
6.5582189e-06
6.4870404e-06
6.4254779e-06
6.4544986e-06
6.5110055e-06
6.5838734e-06
6.6413017e-06
6.6472846e-06
6.6354231e-06
6.6104083e-06
6.588016e-06
6.5720757e-06
6.5543308e-06
6.539165e-06
6.5213418e-06
6.4653895e-06
6.3988206e-06
6.4093443e-06
6.4799335e-06
6.5812181e-06
6.6440063e-06
6.6640897e-06
6.6592067e-06
6.6285379e-06
6.5949344e-06
6.5797602e-06
6.5732496e-06
6.569492e-06
6.5684389e-06
6.5701342e-06
6.5762271e-06
6.5863698e-06
6.5944231e-06
6.5961579e-06
6.5950771e-06
6.5910786e-06
6.5856112e-06
6.5815145e-06
6.5797612e-06
6.5794536e-06
6.5797114e-06
6.5806112e-06
6.5813104e-06
6.5814865e-06
6.5812559e-06
6.5810661e-06
6.5811504e-06
6.5811736e-06
6.5813621e-06
6.5817859e-06
0.00074031469
0.00056925358
0.00039883963
0.00022615788
8.4087635e-05
1.896806e-05
7.2964772e-06
6.5423715e-06
6.5079621e-06
6.5365942e-06
6.5543138e-06
6.5652157e-06
6.5599197e-06
6.4892744e-06
6.4260192e-06
6.4552006e-06
6.5117597e-06
6.5857426e-06
6.6418672e-06
6.6458547e-06
6.6344177e-06
6.61088e-06
6.589327e-06
6.5729208e-06
6.5540549e-06
6.5380379e-06
6.5200332e-06
6.4647734e-06
6.3999992e-06
6.411345e-06
6.4835416e-06
6.5905403e-06
6.6546755e-06
6.6709367e-06
6.664065e-06
6.6323128e-06
6.5939889e-06
6.5734069e-06
6.5660674e-06
6.5643144e-06
6.5648273e-06
6.5683659e-06
6.57597e-06
6.5866457e-06
6.5945661e-06
6.5961954e-06
6.5950911e-06
6.5910748e-06
6.5856063e-06
6.5815126e-06
6.5797607e-06
6.5794531e-06
6.5797113e-06
6.5806111e-06
6.5813101e-06
6.5814861e-06
6.5812552e-06
6.5810657e-06
6.5811502e-06
6.5811734e-06
6.5813618e-06
6.5817856e-06
0.00072939574
0.00055847216
0.00038869904
0.00021828979
8.0165727e-05
1.8112628e-05
7.2357319e-06
6.5407389e-06
6.5075618e-06
6.5366122e-06
6.5544954e-06
6.5663478e-06
6.5617796e-06
6.4917048e-06
6.4266734e-06
6.4560412e-06
6.512784e-06
6.5881235e-06
6.642497e-06
6.6443585e-06
6.6332824e-06
6.6113655e-06
6.5907502e-06
6.5738795e-06
6.5537985e-06
6.536865e-06
6.5186478e-06
6.4639807e-06
6.4016564e-06
6.4141091e-06
6.4882175e-06
6.6001944e-06
6.6650262e-06
6.6765605e-06
6.6678833e-06
6.6349038e-06
6.5938637e-06
6.5700592e-06
6.5626697e-06
6.5617365e-06
6.5630753e-06
6.5676762e-06
6.5759735e-06
6.5868366e-06
6.5946553e-06
6.596227e-06
6.5951056e-06
6.5910715e-06
6.5856003e-06
6.58151e-06
6.5797603e-06
6.5794529e-06
6.5797112e-06
6.5806115e-06
6.5813101e-06
6.5814857e-06
6.5812549e-06
6.5810654e-06
6.5811498e-06
6.5811729e-06
6.5813613e-06
6.5817853e-06
0.00071670455
0.00054598924
0.00037697432
0.0002091839
7.564277e-05
1.7137998e-05
7.1679005e-06
6.5389607e-06
6.5071813e-06
6.5366798e-06
6.5546972e-06
6.5676127e-06
6.5638309e-06
6.4943164e-06
6.427483e-06
6.4570484e-06
6.5141827e-06
6.5910906e-06
6.6431603e-06
6.6428515e-06
6.6319742e-06
6.6117801e-06
6.5922316e-06
6.5749499e-06
6.5535824e-06
6.5356694e-06
6.5171699e-06
6.4629673e-06
6.4038833e-06
6.4177096e-06
6.4940035e-06
6.6093275e-06
6.6717237e-06
6.6790143e-06
6.6691254e-06
6.6353041e-06
6.5930379e-06
6.568156e-06
6.5612354e-06
6.5606312e-06
6.5624641e-06
6.5674771e-06
6.5760003e-06
6.5869212e-06
6.5946931e-06
6.5962392e-06
6.5951106e-06
6.5910682e-06
6.5855957e-06
6.5815081e-06
6.5797598e-06
6.5794526e-06
6.5797112e-06
6.5806114e-06
6.5813097e-06
6.5814852e-06
6.5812547e-06
6.5810652e-06
6.5811495e-06
6.5811725e-06
6.581361e-06
6.5817852e-06
0.00070199247
0.00053156861
0.0003634482
0.00019868622
7.0469114e-05
1.6043998e-05
7.093844e-06
6.5371012e-06
6.506845e-06
6.5368327e-06
6.5550257e-06
6.5691061e-06
6.5660806e-06
6.4970652e-06
6.4285177e-06
6.4582852e-06
6.5160518e-06
6.5947031e-06
6.6438184e-06
6.641376e-06
6.6304594e-06
6.6120579e-06
6.5937165e-06
6.5761286e-06
6.5534388e-06
6.534478e-06
6.5155726e-06
6.4617375e-06
6.4067144e-06
6.422161e-06
6.5011624e-06
6.6175645e-06
6.67409e-06
6.6786822e-06
6.6662296e-06
6.6307617e-06
6.5897661e-06
6.5665471e-06
6.560561e-06
6.5601923e-06
6.5623228e-06
6.5674566e-06
6.5760174e-06
6.586945e-06
6.5947027e-06
6.5962407e-06
6.5951095e-06
6.591064e-06
6.5855922e-06
6.5815062e-06
6.5797592e-06
6.5794519e-06
6.5797111e-06
6.5806115e-06
6.5813094e-06
6.5814848e-06
6.5812541e-06
6.5810647e-06
6.5811489e-06
6.581172e-06
6.5813607e-06
6.5817848e-06
0.00068496309
0.00051494208
0.00034787694
0.00018663349
6.4605944e-05
1.4837386e-05
7.0151434e-06
6.5352805e-06
6.5066405e-06
6.5371566e-06
6.5556403e-06
6.5709203e-06
6.5685333e-06
6.4998819e-06
6.4298521e-06
6.4598402e-06
6.5184776e-06
6.5990065e-06
6.644432e-06
6.6399632e-06
6.6287024e-06
6.6121673e-06
6.5951675e-06
6.5774098e-06
6.5534046e-06
6.5333169e-06
6.5138245e-06
6.4603416e-06
6.4101416e-06
6.4274376e-06
6.509836e-06
6.6256055e-06
6.6729597e-06
6.673596e-06
6.6566839e-06
6.6204339e-06
6.5839378e-06
6.5646712e-06
6.5600729e-06
6.5599645e-06
6.5623468e-06
6.5675299e-06
6.5760368e-06
6.5869442e-06
6.594696e-06
6.5962318e-06
6.5951016e-06
6.5910587e-06
6.5855889e-06
6.5815047e-06
6.5797589e-06
6.5794518e-06
6.5797111e-06
6.5806115e-06
6.5813092e-06
6.5814844e-06
6.5812536e-06
6.5810643e-06
6.5811483e-06
6.5811715e-06
6.5813604e-06
6.5817845e-06
0.00066532647
0.0004958058
0.00032998855
0.00017285915
5.8035847e-05
1.3535519e-05
6.934263e-06
6.5337436e-06
6.5067096e-06
6.5378765e-06
6.5566956e-06
6.57312e-06
6.5711736e-06
6.5026803e-06
6.4315507e-06
6.4617747e-06
6.5215869e-06
6.6040627e-06
6.6450997e-06
6.6384422e-06
6.6267606e-06
6.6121096e-06
6.5965797e-06
6.5787918e-06
6.5534966e-06
6.5322019e-06
6.5118978e-06
6.4588559e-06
6.4141273e-06
6.4334611e-06
6.5198809e-06
6.6336694e-06
6.6710686e-06
6.667929e-06
6.6447649e-06
6.6077354e-06
6.5769938e-06
6.5626196e-06
6.5595441e-06
6.5597693e-06
6.5624519e-06
6.5676487e-06
6.5760613e-06
6.586918e-06
6.5946704e-06
6.5962137e-06
6.5950882e-06
6.5910525e-06
6.5855865e-06
6.5815035e-06
6.5797582e-06
6.5794514e-06
6.5797112e-06
6.5806117e-06
6.5813089e-06
6.581484e-06
6.5812533e-06
6.5810639e-06
6.5811479e-06
6.581171e-06
6.5813599e-06
6.5817841e-06
0.00064273825
0.00047381863
0.000309483
0.00015720746
5.0783356e-05
1.217195e-05
6.8547507e-06
6.5327787e-06
6.5073963e-06
6.5393206e-06
6.558423e-06
6.5757377e-06
6.5739683e-06
6.505395e-06
6.4336046e-06
6.4640587e-06
6.5255391e-06
6.6099305e-06
6.6459016e-06
6.6367548e-06
6.6246419e-06
6.6119023e-06
6.5979867e-06
6.5803073e-06
6.5537316e-06
6.5311312e-06
6.5097716e-06
6.4573743e-06
6.4186315e-06
6.4401702e-06
6.5305042e-06
6.6409073e-06
6.670461e-06
6.6639342e-06
6.6344983e-06
6.5961997e-06
6.570591e-06
6.5606916e-06
6.5588965e-06
6.5595577e-06
6.5625622e-06
6.5677572e-06
6.5760764e-06
6.5868849e-06
6.5946403e-06
6.5961926e-06
6.5950721e-06
6.5910453e-06
6.5855843e-06
6.5815024e-06
6.5797578e-06
6.579451e-06
6.5797109e-06
6.5806115e-06
6.5813083e-06
6.5814833e-06
6.5812527e-06
6.5810632e-06
6.5811476e-06
6.5811708e-06
6.5813595e-06
6.5817838e-06
0.00061677771
0.00044858848
0.00028603539
0.00013956333
4.2950309e-05
1.0803538e-05
6.7813531e-06
6.5330401e-06
6.5093744e-06
6.5419892e-06
6.5610127e-06
6.5787603e-06
6.5768513e-06
6.508015e-06
6.4359136e-06
6.4669128e-06
6.5305516e-06
6.6165949e-06
6.6469123e-06
6.6349044e-06
6.6223549e-06
6.6115721e-06
6.5994026e-06
6.5820086e-06
6.554133e-06
6.5300934e-06
6.5074332e-06
6.4560004e-06
6.4236507e-06
6.4474871e-06
6.5408325e-06
6.6463288e-06
6.6701777e-06
6.6611918e-06
6.6271314e-06
6.587691e-06
6.5657661e-06
6.5591182e-06
6.5581316e-06
6.559373e-06
6.5626782e-06
6.567851e-06
6.5760853e-06
6.5868531e-06
6.5946105e-06
6.5961709e-06
6.5950559e-06
6.5910382e-06
6.5855817e-06
6.5815009e-06
6.5797571e-06
6.5794507e-06
6.5797109e-06
6.5806114e-06
6.581308e-06
6.5814828e-06
6.5812522e-06
6.5810628e-06
6.581147e-06
6.5811701e-06
6.5813588e-06
6.5817832e-06
0.00058696569
0.00041967253
0.0002593114
0.00011991851
3.4774028e-05
9.5157056e-06
6.7199012e-06
6.5356743e-06
6.5137879e-06
6.546513e-06
6.5645074e-06
6.5820194e-06
6.5797132e-06
6.510542e-06
6.4383993e-06
6.4706397e-06
6.5368705e-06
6.6240216e-06
6.6482612e-06
6.6329003e-06
6.6199485e-06
6.6111634e-06
6.6007831e-06
6.5838848e-06
6.5547928e-06
6.5290902e-06
6.5048677e-06
6.4548553e-06
6.4292076e-06
6.4553633e-06
6.5506317e-06
6.649477e-06
6.6685704e-06
6.6581862e-06
6.6217528e-06
6.5820446e-06
6.562577e-06
6.5578859e-06
6.5573889e-06
6.559256e-06
6.5627885e-06
6.5679266e-06
6.5760877e-06
6.586822e-06
6.5945813e-06
6.5961488e-06
6.5950391e-06
6.5910305e-06
6.585579e-06
6.5814998e-06
6.5797566e-06
6.5794501e-06
6.5797108e-06
6.5806115e-06
6.5813077e-06
6.5814823e-06
6.5812518e-06
6.5810625e-06
6.5811465e-06
6.5811694e-06
6.5813583e-06
6.5817828e-06
0.00055276456
0.00038657483
0.00022901321
9.8509984e-05
2.6698106e-05
8.4153279e-06
6.6769498e-06
6.54267e-06
6.522276e-06
6.5534099e-06
6.5687644e-06
6.5852661e-06
6.5824187e-06
6.5129648e-06
6.4410912e-06
6.4752894e-06
6.5447397e-06
6.6321233e-06
6.6501655e-06
6.6308021e-06
6.6174827e-06
6.6106847e-06
6.6020298e-06
6.5858501e-06
6.5557722e-06
6.528159e-06
6.5020566e-06
6.4540929e-06
6.4353181e-06
6.4638446e-06
6.5607291e-06
6.6512873e-06
6.6649974e-06
6.6535294e-06
6.6165867e-06
6.5780637e-06
6.5605342e-06
6.5569199e-06
6.5568192e-06
6.559188e-06
6.5628774e-06
6.5679806e-06
6.5760846e-06
6.5867919e-06
6.5945515e-06
6.5961261e-06
6.5950219e-06
6.5910221e-06
6.5855761e-06
6.5814986e-06
6.579756e-06
6.5794497e-06
6.5797109e-06
6.5806118e-06
6.5813074e-06
6.5814817e-06
6.5812511e-06
6.5810618e-06
6.5811458e-06
6.5811689e-06
6.5813579e-06
6.5817823e-06
0.0005135719
0.00034875723
0.00019500349
7.6065176e-05
1.9394217e-05
7.5987169e-06
6.6582694e-06
6.557142e-06
6.5357888e-06
6.5624186e-06
6.5729308e-06
6.588018e-06
6.5848305e-06
6.5152973e-06
6.4440275e-06
6.480869e-06
6.5543014e-06
6.6407551e-06
6.6527768e-06
6.6287059e-06
6.6149614e-06
6.6100071e-06
6.6030351e-06
6.5878458e-06
6.5570356e-06
6.527285e-06
6.4989595e-06
6.4539037e-06
6.4419647e-06
6.4732057e-06
6.5720689e-06
6.6537932e-06
6.6620149e-06
6.6479236e-06
6.6104545e-06
6.5745042e-06
6.5590932e-06
6.556214e-06
6.5564334e-06
6.5591609e-06
6.5629416e-06
6.5680147e-06
6.5760777e-06
6.5867639e-06
6.5945231e-06
6.5961027e-06
6.5950039e-06
6.5910136e-06
6.5855731e-06
6.5814968e-06
6.5797552e-06
6.5794492e-06
6.5797108e-06
6.5806117e-06
6.5813068e-06
6.581481e-06
6.5812504e-06
6.5810613e-06
6.5811454e-06
6.5811683e-06
6.5813572e-06
6.5817817e-06
0.00046868671
0.00030568612
0.00015760834
5.4093796e-05
1.3613077e-05
7.1037878e-06
6.6636497e-06
6.5814559e-06
6.5535857e-06
6.5709991e-06
6.575439e-06
6.5896916e-06
6.5868711e-06
6.5175961e-06
6.4471647e-06
6.4874338e-06
6.5656025e-06
6.6500282e-06
6.6562726e-06
6.6266707e-06
6.6123574e-06
6.6089466e-06
6.6037152e-06
6.5898811e-06
6.5584284e-06
6.5262304e-06
6.4954436e-06
6.454519e-06
6.4490973e-06
6.483805e-06
6.5854427e-06
6.6578027e-06
6.6611374e-06
6.6426507e-06
6.6037092e-06
6.5708805e-06
6.5579397e-06
6.5557049e-06
6.5561941e-06
6.5591659e-06
6.5629892e-06
6.5680362e-06
6.5760703e-06
6.5867393e-06
6.5944962e-06
6.5960797e-06
6.5949852e-06
6.5910043e-06
6.5855694e-06
6.5814954e-06
6.5797549e-06
6.5794486e-06
6.5797107e-06
6.5806118e-06
6.5813065e-06
6.5814804e-06
6.58125e-06
6.5810609e-06
6.5811449e-06
6.5811677e-06
6.5813566e-06
6.5817813e-06
0.00041721805
0.00025699754
0.00011820283
3.4882451e-05
9.8194731e-06
6.8888677e-06
6.6976484e-06
6.613383e-06
6.5694729e-06
6.5747104e-06
6.5743622e-06
6.5898718e-06
6.5886385e-06
6.519979e-06
6.4504095e-06
6.4949866e-06
6.5786036e-06
6.6601274e-06
6.6609388e-06
6.6246024e-06
6.6097221e-06
6.6078046e-06
6.6041608e-06
6.5919917e-06
6.5596961e-06
6.5244274e-06
6.4911579e-06
6.4562773e-06
6.4566222e-06
6.4961497e-06
6.6007744e-06
6.6627896e-06
6.6620515e-06
6.6380351e-06
6.5973546e-06
6.5674849e-06
6.5569813e-06
6.5553076e-06
6.5560482e-06
6.559195e-06
6.5630293e-06
6.5680521e-06
6.5760663e-06
6.5867212e-06
6.594472e-06
6.5960573e-06
6.5949667e-06
6.5909943e-06
6.5855654e-06
6.5814938e-06
6.5797544e-06
6.5794479e-06
6.5797108e-06
6.5806121e-06
6.5813062e-06
6.5814799e-06
6.5812493e-06
6.5810601e-06
6.581144e-06
6.5811669e-06
6.5813561e-06
6.5817808e-06
0.000358361
0.00020305728
7.9913902e-05
2.0679645e-05
7.8805554e-06
6.8532658e-06
6.7467961e-06
6.6396382e-06
6.5733976e-06
6.5692217e-06
6.5686986e-06
6.5886241e-06
6.5903796e-06
6.5226283e-06
6.4537004e-06
6.5033833e-06
6.5933704e-06
6.6712439e-06
6.6669924e-06
6.6224889e-06
6.6066147e-06
6.6069951e-06
6.6050204e-06
6.5942668e-06
6.5605581e-06
6.5211951e-06
6.4860683e-06
6.4597687e-06
6.4645181e-06
6.5108394e-06
6.617025e-06
6.6672694e-06
6.6629315e-06
6.6339224e-06
6.5919303e-06
6.5646697e-06
6.5562064e-06
6.5549622e-06
6.5559551e-06
6.559236e-06
6.5630653e-06
6.5680668e-06
6.5760663e-06
6.5867114e-06
6.5944524e-06
6.5960362e-06
6.5949491e-06