/*--------------------------------*- C++ -*----------------------------------*\
| =========                 |                                                 |
| \\      /  F ield         | OpenFOAM: The Open Source CFD Toolbox           |
|  \\    /   O peration     | Version:  2506                                  |
|   \\  /    A nd           | Website:  www.openfoam.com                      |
|    \\/     M anipulation  |                                                 |
\*---------------------------------------------------------------------------*/
FoamFile
{
    version     2.0;
    format      ascii;
    arch        "LSB;label=32;scalar=64";
    class       volVectorField;
    location    "0.0095";
    object      wallShearStress;
}
// * * * * * * * * * * * * * * * * * * * * * * * * * * * * * * * * * * * * * //

dimensions      [1 -1 -2 0 0 0 0];

internalField   uniform (0 0 0);

boundaryField
{
    Side
    {
        type            empty;
    }
    Inlet
    {
        type            calculated;
        value           uniform (0 0 0);
    }
    Airfoil
    {
        type            calculated;
        value           nonuniform List<vector> 
109
(
(-6.5063623 -0.14261023 -3.8836988e-17)
(-6.5984344 -0.15384418 -5.9558559e-22)
(-6.686182 -0.16531526 -3.9215422e-17)
(-6.7522378 -0.17662054 -3.940691e-17)
(-6.7993449 -0.18761201 -6.0398415e-22)
(-6.9203945 -0.20065193 6.073242e-22)
(-7.0473246 -0.21459009 -3.9996102e-17)
(-7.1098459 -0.22672957 1.880791e-37)
(-7.2174518 -0.23940505 -6.1639253e-22)
(-7.3596195 -0.25422546 6.1994751e-22)
(-7.4339572 -0.26779932 4.0835621e-17)
(-7.528243 -0.28220221 -2.9368562e-25)
(-7.6797585 -0.29983726 -2.9375066e-25)
(-7.7802499 -0.31598281 -6.3330448e-22)
(-7.8874974 -0.33196975 8.3426191e-17)
(-8.0546755 -0.35044699 -8.3900429e-17)
(-8.1746473 -0.36683919 6.4305305e-22)
(-8.2740552 -0.38340253 -6.475231e-22)
(-8.4162128 -0.40344831 3.7615819e-37)
(-8.5165095 -0.42264958 -8.5846869e-17)
(-8.5944931 -0.4403453 -2.3509887e-38)
(-8.7257753 -0.46049167 -8.6839097e-17)
(-8.8392674 -0.47975817 -1.1754944e-38)
(-8.9381763 -0.49907412 -8.7880046e-17)
(-9.0744208 -0.52123204 -6.7445024e-22)
(-9.1807218 -0.54249478 8.8966636e-17)
(-9.2719201 -0.56294232 -6.8263899e-22)
(-9.397161 -0.58515996 9.0059216e-17)
(-9.5126772 -0.60731525 1.8125298e-16)
(-9.6407025 -0.63062995 7.5231638e-37)
(-9.7725961 -0.65512281 9.1812793e-17)
(-9.8807935 -0.67898911 7.0484034e-22)
(-10.009134 -0.70461182 -7.099441e-22)
(-10.108536 -0.72920746 -3.7615819e-37)
(-10.19828 -0.75342506 9.4257073e-17)
(-10.320128 -0.77982816 1.89798e-16)
(-10.415485 -0.80431957 9.5532739e-17)
(-10.54752 -0.83139229 9.6196251e-17)
(-10.714647 -0.86290519 3.9897959e-25)
(-10.826606 -0.89207735 4.5917748e-40)
(-10.956425 -0.92237426 -8.5542056e-34)
(-11.096448 -0.95342636 7.5476595e-22)
(-11.205213 -0.9823974 -1.5208303e-21)
(-11.356505 -1.0148881 -1.0040433e-16)
(-11.503758 -1.0484138 0)
(-11.61195 -1.0797068 6.7407548e-34)
(-11.734372 -1.112702 -2.0535151e-16)
(-11.822315 -1.1425726 -1.0344446e-16)
(-11.900372 -1.1716492 7.9548221e-22)
(-12.014967 -1.2048097 1.0502281e-16)
(-12.126815 -1.23848 -8.0776418e-22)
(-12.277058 -1.2764685 8.1357886e-22)
(-12.435187 -1.316202 -5.7536357e-25)
(-12.557794 -1.3533089 1.0840841e-16)
(-12.687071 -1.3916964 -8.3355452e-22)
(-12.795341 -1.428651 1.6813458e-21)
(-12.909392 -1.4661629 1.1110218e-16)
(-13.048334 -1.5066774 1.1204532e-16)
(-13.164927 -1.5453481 -8.6240637e-22)
(-13.294238 -1.5862034 1.1396895e-16)
(-13.406749 -1.6263434 -8.7664332e-22)
(-13.509626 -1.6655649 -1.1595157e-16)
(-13.625436 -1.7065562 8.9281495e-22)
(-13.718979 -1.7454217 8.9991391e-22)
(-13.829816 -1.7867631 -1.1906512e-16)
(-13.935651 -1.8284102 -1.2014018e-16)
(-14.034893 -1.8698598 -7.710051e-24)
(-14.148489 -1.913589 -1.2235053e-16)
(-14.249944 -1.9563744 1.2348106e-16)
(-14.374137 -2.0029187 -1.2464667e-16)
(-14.492219 -2.0497388 -1.2583263e-16)
(-14.598325 -2.0955899 9.6878969e-22)
(-14.704323 -2.1418722 -9.7910033e-22)
(-14.791948 -2.1860027 0)
(-14.886859 -2.2314647 -1.3080494e-16)
(-14.964786 -2.2751568 3.0092655e-36)
(-15.039913 -2.3185781 1.0174849e-21)
(-15.113295 -2.3619733 -1.0288085e-21)
(-15.172855 -2.403656 1.0383215e-21)
(-15.232342 -2.4456756 -1.0352969e-24)
(-15.276511 -2.4857936 -1.0610669e-21)
(-15.326728 -2.527009 1.4047441e-16)
(-15.375158 -2.568503 1.0825485e-21)
(-15.427515 -2.6109928 -1.4348969e-16)
(-15.491596 -2.6559276 2.2131615e-21)
(-15.55185 -2.7005027 -2.2373583e-21)
(-15.622183 -2.747147 1.4824853e-16)
(-15.693001 -2.7952414 -1.4989568e-16)
(-15.769764 -2.8449027 3.0316949e-16)
(-15.844985 -2.8947187 -1.1690231e-21)
(-15.925342 -2.9458637 3.1013226e-16)
(-16.005155 -2.9975741 1.5686058e-16)
(-16.073093 -3.0475609 -9.4039548e-38)
(-16.135562 -3.09662 1.6055326e-16)
(-16.184134 -3.1433232 -1.6244832e-16)
(-16.230832 -3.1898774 1.6438631e-16)
(-16.279693 -3.2370781 0)
(-16.345392 -3.2877306 -3.0092655e-36)
(-16.417977 -3.3402145 -1.7047501e-16)
(-16.490495 -3.3933529 -1.7259619e-16)
(-16.550377 -3.4444314 -1.3340676e-21)
(-16.600735 -3.4939993 -9.1835496e-41)
(-16.652186 -3.5438592 0)
(-16.713669 -3.5961994 4.1284425e-33)
(-16.789918 -3.6519766 -1.4018699e-21)
(-16.87382 -3.7098346 1.7749913e-24)
(-16.96698 -3.7703926 1.4405546e-21)
(-17.175455 -3.8708174 1.4577137e-21)
(-17.428852 -4.0079282 9.6864021e-17)
)
;
    }
    Outlet
    {
        type            calculated;
        value           nonuniform List<vector> 0();
    }
    procBoundary9to2
    {
        type            processor;
        value           uniform (0 0 0);
    }
    procBoundary9to8
    {
        type            processor;
        value           uniform (0 0 0);
    }
    procBoundary9to10
    {
        type            processor;
        value           uniform (0 0 0);
    }
}


// ************************************************************************* //
