/*--------------------------------*- C++ -*----------------------------------*\
| =========                 |                                                 |
| \\      /  F ield         | OpenFOAM: The Open Source CFD Toolbox           |
|  \\    /   O peration     | Version:  2506                                  |
|   \\  /    A nd           | Website:  www.openfoam.com                      |
|    \\/     M anipulation  |                                                 |
\*---------------------------------------------------------------------------*/
FoamFile
{
    version     2.0;
    format      ascii;
    arch        "LSB;label=32;scalar=64";
    class       volScalarField;
    location    "0.019";
    object      k;
}
// * * * * * * * * * * * * * * * * * * * * * * * * * * * * * * * * * * * * * //

dimensions      [0 2 -2 0 0 0 0];

internalField   nonuniform List<scalar> 
19257
(
11.278924
10.895418
10.886072
10.887562
10.887744
10.887665
10.887397
10.888015
10.891704
10.899454
10.904873
10.897624
10.879294
10.866256
10.869911
10.879673
10.885365
10.888121
10.890538
10.893313
10.896337
10.8995
10.902861
10.906557
10.910758
10.915691
10.921676
10.929162
10.938787
10.951476
10.968575
10.991996
11.024599
11.070302
11.132265
11.20068
11.277209
11.365442
11.469392
11.593867
11.745596
11.934937
12.17473
12.500488
12.904722
13.581348
13.990124
15.98273
16.04958
11.29999
10.895175
10.886817
10.887345
10.887602
10.887511
10.887224
10.887661
10.891062
10.899023
10.905799
10.90023
10.882501
10.867956
10.868479
10.877183
10.884411
10.887752
10.89019
10.892904
10.895867
10.898963
10.902251
10.905866
10.909965
10.91476
10.920555
10.927772
10.937009
10.949129
10.965391
10.98759
11.018411
11.061489
11.120814
11.186515
11.260266
11.345396
11.445617
11.565465
11.711437
11.893144
12.124373
12.433707
12.853349
13.490182
13.908397
15.814925
15.664804
11.338428
10.895178
10.887298
10.887184
10.887406
10.887334
10.887037
10.887305
10.89036
10.898362
10.906615
10.902837
10.886114
10.870526
10.867667
10.875157
10.882981
10.886996
10.889713
10.89245
10.895336
10.898355
10.901577
10.905116
10.909112
10.913767
10.919368
10.926313
10.935155
10.9467
10.962122
10.983099
11.012143
11.052634
11.10925
11.172359
11.243492
11.325685
11.42237
11.537841
11.678328
11.852879
12.075304
12.370544
12.777047
13.37182
13.849323
15.620784
15.35894
11.378223
10.896179
10.887686
10.887007
10.887153
10.887128
10.88684
10.886957
10.889601
10.897398
10.907032
10.905558
10.889978
10.873408
10.867421
10.873253
10.881
10.886045
10.889243
10.892012
10.894813
10.897771
10.900943
10.904414
10.908319
10.91285
10.918281
10.924982
10.933471
10.944499
10.959166
10.979043
11.00649
11.044658
11.098745
11.159471
11.228288
11.307927
11.401561
11.513291
11.649119
11.817643
12.032547
12.3162
12.71352
13.253975
13.787649
15.490225
15.116029
11.417564
10.900858
10.88796
10.886814
10.886868
10.886882
10.886623
10.886613
10.888822
10.896199
10.906963
10.908239
10.894135
10.876819
10.868136
10.871612
10.87882
10.884864
10.888619
10.891489
10.894281
10.89721
10.900334
10.903738
10.907558
10.911979
10.917256
10.923733
10.931893
10.942442
10.956408
10.975266
11.001227
11.037246
11.088823
11.147296
11.213988
11.291286
11.382139
11.490489
11.622123
11.785289
11.993339
12.267193
12.653109
13.153308
13.665995
15.350495
14.922362
11.455345
10.909659
10.88816
10.886602
10.886565
10.886606
10.886388
10.886282
10.888052
10.89482
10.906357
10.910559
10.898522
10.880827
10.869677
10.870317
10.876642
10.883354
10.887729
10.890891
10.893767
10.896677
10.899745
10.903085
10.906833
10.911158
10.916294
10.922562
10.930417
10.940518
10.953832
10.971741
10.996316
11.030338
11.079383
11.13575
11.200484
11.275616
11.363913
11.469192
11.597049
11.755443
11.957331
12.222765
12.597223
13.0606
13.54378
15.134667
14.766979
11.491312
10.922475
10.888325
10.886354
10.886238
10.886302
10.886132
10.885966
10.887319
10.893344
10.90523
10.912308
10.902985
10.885377
10.872228
10.869461
10.874664
10.881489
10.886567
10.890211
10.893241
10.896146
10.899171
10.902464
10.906153
10.910392
10.915397
10.921469
10.929039
10.938727
10.951435
10.96846
10.99174
11.023905
11.070335
11.124781
11.187687
11.260776
11.346689
11.449136
11.57354
11.727627
11.923922
12.182062
12.544668
12.981334
13.43741
14.934396
14.641484
11.525095
10.93929
10.888502
10.886068
10.885884
10.88597
10.885857
10.885665
10.886652
10.891857
10.90363
10.913379
10.907227
10.890376
10.875546
10.869469
10.872953
10.879342
10.885164
10.88938
10.892637
10.895597
10.898619
10.901885
10.905524
10.909682
10.914563
10.920454
10.92776
10.937064
10.94921
10.965414
10.987489
11.017925
11.061688
11.114406
11.175566
11.246701
11.330366
11.430177
11.551395
11.701555
11.892751
12.14448
12.494995
12.911739
13.350044
14.718916
14.542808
11.556376
10.959998
10.88873
10.885747
10.885512
10.885621
10.885578
10.885394
10.886072
10.890439
10.901682
10.91366
10.9111
10.895634
10.879609
10.870584
10.87164
10.877137
10.883501
10.888315
10.891928
10.895039
10.898101
10.901352
10.904943
10.909025
10.913793
10.919518
10.926582
10.935534
10.947162
10.962607
10.983565
11.012396
11.053685
11.104679
11.164125
11.233384
11.314918
11.412255
11.530513
11.67706
11.863588
12.10959
12.447812
12.8502
13.277756
14.564693
14.465617
11.584831
10.984165
10.889074
10.88543
10.885148
10.885284
10.885315
10.885163
10.885595
10.889159
10.899539
10.913038
10.914412
10.900881
10.884245
10.872869
10.870751
10.875158
10.881568
10.886998
10.891109
10.894462
10.897603
10.900852
10.904403
10.908419
10.913088
10.918664
10.92551
10.93414
10.945294
10.960043
10.979975
11.007329
11.046319
11.095625
11.153402
11.220857
11.300367
11.395378
11.510875
11.654085
11.836328
12.077113
12.403929
12.7956
13.215832
14.420555
14.407922
11.610193
11.011036
10.889546
10.885203
10.88484
10.884989
10.885086
10.884978
10.88522
10.888055
10.897355
10.911735
10.916845
10.905809
10.889214
10.875988
10.870739
10.873551
10.879453
10.885467
10.890146
10.893825
10.897099
10.900374
10.903901
10.907864
10.912448
10.917895
10.924545
10.932885
10.943611
10.957727
10.976726
11.002733
11.039619
11.087292
11.143455
11.209186
11.286781
11.379607
11.492535
11.63266
11.810973
12.04696
12.364489
12.747113
13.16243
14.301523
14.366121
11.632259
11.039684
10.890092
10.885065
10.884602
10.884747
10.88489
10.884827
10.884937
10.887131
10.89527
10.909954
10.918344
10.910139
10.894279
10.879713
10.87178
10.872405
10.877388
10.883758
10.889003
10.893103
10.896577
10.899913
10.903436
10.907358
10.911871
10.917206
10.923686
10.931769
10.942111
10.955661
10.973823
10.998621
11.033606
11.079726
11.134349
11.198449
11.274247
11.365039
11.475587
11.612875
11.787599
12.019209
12.328848
12.704009
13.116324
14.182035
14.342846
11.650922
11.06914
10.890664
10.884972
10.884411
10.884544
10.884718
10.884698
10.884723
10.886386
10.893387
10.907859
10.919011
10.913763
10.89919
10.883747
10.873742
10.871703
10.875683
10.881943
10.887696
10.892283
10.89602
10.899461
10.903003
10.9069
10.911352
10.916591
10.922925
10.930786
10.940794
10.953847
10.971269
10.994997
11.028295
11.072969
11.126152
11.188733
11.262869
11.351787
11.460158
11.594865
11.766342
11.993988
12.296975
12.666021
13.075758
14.073793
14.322393
11.666233
11.097981
10.891537
10.884916
10.884249
10.884371
10.884568
10.884585
10.884562
10.885802
10.891766
10.905674
10.918904
10.916781
10.903612
10.887781
10.876169
10.871733
10.874394
10.880117
10.88629
10.891363
10.895413
10.899009
10.902601
10.906487
10.910891
10.91605
10.92226
10.929932
10.939655
10.95228
10.969064
10.991864
11.023697
11.067059
11.118926
11.180122
11.252751
11.33998
11.446394
11.57879
11.747376
11.971488
12.268881
12.632961
13.03976
13.995097
14.303449
11.678387
11.123553
10.894118
10.884899
10.88411
10.884235
10.884439
10.884484
10.884441
10.885357
10.890434
10.903599
10.918234
10.919145
10.907338
10.891597
10.878802
10.872378
10.873525
10.878471
10.884885
10.890376
10.894767
10.898556
10.902228
10.90612
10.910489
10.915583
10.921692
10.929208
10.938692
10.950958
10.967204
10.989221
11.019813
11.062022
11.112722
11.172695
11.243996
11.32974
11.434441
11.564818
11.730891
11.951923
12.244676
12.604773
13.008675
13.936597
14.286144
11.68767
11.145015
10.8979
10.884925
10.883997
10.884127
10.884333
10.884398
10.884349
10.885027
10.889386
10.901773
10.917321
10.920779
10.910335
10.894967
10.881359
10.873419
10.872926
10.877205
10.883589
10.88939
10.894119
10.898122
10.901891
10.905801
10.910146
10.91519
10.921219
10.92861
10.937901
10.949877
10.965686
10.987064
11.016642
11.057878
11.107588
11.16652
11.236696
11.321186
11.424441
11.553117
11.717077
11.935516
12.22451
12.581499
12.982556
13.896991
14.26941
11.694394
11.16199
10.902045
10.884972
10.883906
10.884035
10.884248
10.884328
10.884282
10.884789
10.888602
10.90029
10.916442
10.921792
10.912588
10.897705
10.88358
10.874588
10.872622
10.876297
10.882475
10.888496
10.893521
10.897728
10.901598
10.905534
10.909866
10.914873
10.920841
10.928136
10.93728
10.949033
10.964504
10.985386
11.014177
11.054639
11.103554
11.161652
11.230926
11.314411
11.416509
11.543825
11.706091
11.92244
12.208505
12.563159
12.961836
13.866773
14.256366
11.69888
11.174245
10.905733
10.884999
10.883818
10.883966
10.884186
10.884276
10.884233
10.884626
10.88805
10.899216
10.915739
10.922372
10.914129
10.899699
10.885285
10.875563
10.872578
10.875717
10.881619
10.887783
10.893023
10.897394
10.90136
10.90533
10.909659
10.914639
10.92056
10.927786
10.936826
10.948421
10.963653
10.984183
11.012416
11.052315
11.100649
11.158137
11.226749
11.309497
11.410744
11.537059
11.698071
11.912854
12.196804
12.549861
12.946438
13.846115
14.246474
11.70146
11.181659
10.908224
10.885021
10.883756
10.883932
10.884152
10.884241
10.884202
10.884526
10.887716
10.898576
10.915306
10.922667
10.915005
10.900894
10.886344
10.876209
10.872626
10.875398
10.881079
10.887322
10.892678
10.897153
10.901196
10.905204
10.909535
10.914494
10.920382
10.927563
10.936542
10.948044
10.963135
10.983458
11.011363
11.050922
11.098905
11.15602
11.224229
11.306525
11.40725
11.532947
11.693176
11.906967
12.189617
12.541762
12.936625
13.83436
14.239798
11.7023
11.184159
10.909099
10.885033
10.883742
10.883922
10.884144
10.884226
10.884192
10.884491
10.887601
10.898367
10.915166
10.922754
10.915282
10.901285
10.886694
10.876427
10.872641
10.875284
10.880873
10.887152
10.892544
10.897052
10.901125
10.90515
10.909483
10.914434
10.920309
10.927475
10.936434
10.947909
10.962959
10.983222
11.011032
11.050488
11.098359
11.155355
11.223433
11.305585
11.406141
11.53164
11.691608
11.905063
12.187247
12.53913
12.933031
13.830739
14.236616
11.70146
11.181659
10.908224
10.885021
10.883755
10.883931
10.884152
10.88424
10.884202
10.884525
10.887714
10.898572
10.915295
10.922649
10.914988
10.900876
10.886331
10.876198
10.872605
10.875358
10.881017
10.887255
10.892622
10.897111
10.901159
10.905167
10.909496
10.914455
10.920344
10.927529
10.936515
10.948029
10.963137
10.983485
11.011431
11.051017
11.099024
11.156168
11.224409
11.306743
11.407509
11.533252
11.693524
11.907358
12.190001
12.542131
12.936957
13.834697
14.2399
11.69888
11.174245
10.905733
10.884998
10.883816
10.883964
10.884184
10.884274
10.884231
10.884624
10.888046
10.899206
10.915717
10.922336
10.914091
10.899662
10.885258
10.875539
10.872532
10.875629
10.881492
10.88765
10.892911
10.897306
10.901281
10.905252
10.909577
10.914555
10.920477
10.927711
10.936766
10.948383
10.96365
10.984229
11.012547
11.052496
11.10088
11.158423
11.2271
11.309921
11.411251
11.537653
11.698751
11.913618
12.197552
12.550572
12.947082
13.846749
14.246629
11.694394
11.16199
10.902044
10.88497
10.883903
10.884032
10.884245
10.884325
10.884278
10.884785
10.888594
10.900274
10.916406
10.921736
10.912529
10.897651
10.88354
10.874552
10.872542
10.876155
10.882277
10.888298
10.893354
10.897593
10.901477
10.905413
10.90974
10.914743
10.920713
10.928019
10.937185
10.948971
10.964495
10.985452
11.014373
11.05491
11.103898
11.162078
11.231447
11.315041
11.417262
11.544709
11.707102
11.923574
12.209611
12.564208
12.962786
13.867705
14.256568
11.68767
11.145016
10.8979
10.884922
10.883993
10.884123
10.884329
10.884393
10.884344
10.88502
10.889375
10.901748
10.91727
10.920704
10.910255
10.894897
10.881308
10.873371
10.872807
10.876994
10.883319
10.889132
10.893904
10.897945
10.90173
10.905638
10.909975
10.915015
10.921047
10.928453
10.937773
10.949794
10.965675
10.987155
11.016909
11.058247
11.108052
11.167092
11.237393
11.322029
11.425448
11.5543
11.718427
11.937026
12.225978
12.582886
12.983824
13.898159
14.269688
11.678387
11.123555
10.894117
10.884895
10.884105
10.88423
10.884434
10.884478
10.884434
10.885348
10.890418
10.903566
10.918167
10.919048
10.907238
10.891515
10.878745
10.872309
10.873359
10.87818
10.884542
10.890062
10.89451
10.898341
10.902027
10.905915
10.910274
10.915362
10.921476
10.929012
10.938532
10.950858
10.967196
10.989346
11.020166
11.062499
11.113317
11.173423
11.244881
11.330809
11.435716
11.566312
11.732594
11.953821
12.246516
12.606506
13.010258
13.93832
14.28632
11.666233
11.097983
10.891535
10.884912
10.884244
10.884365
10.884561
10.884577
10.884554
10.88579
10.891746
10.905631
10.91882
10.916662
10.903493
10.887692
10.876111
10.871635
10.87416
10.879734
10.885878
10.891005
10.895124
10.89876
10.902362
10.906239
10.910632
10.915786
10.922004
10.929701
10.939469
10.952168
10.969067
10.992032
11.02415
11.067658
11.119663
11.181018
11.253837
11.341288
11.447953
11.580614
11.749451
11.973788
12.271107
12.635056
13.041657
13.997512
14.303476
11.650922
11.069142
10.890661
10.884967
10.884405
10.884537
10.884711
10.88469
10.884713
10.886371
10.89336
10.907805
10.918907
10.913624
10.899054
10.883659
10.873689
10.87155
10.875357
10.881469
10.887229
10.891896
10.895705
10.899182
10.902727
10.906611
10.911051
10.916286
10.922631
10.930523
10.940588
10.953731
10.971292
10.995221
11.028867
11.073707
11.127046
11.189812
11.264171
11.353354
11.462021
11.597042
11.768812
11.99671
12.299603
12.668494
13.077991
14.07691
14.32243
11.632259
11.039687
10.890088
10.885059
10.884594
10.884739
10.884881
10.884817
10.884924
10.887114
10.895238
10.909887
10.918218
10.909975
10.894135
10.879637
10.871719
10.872182
10.876946
10.883206
10.888499
10.892698
10.89624
10.899602
10.90312
10.907028
10.911528
10.916862
10.923358
10.93148
10.94189
10.955549
10.973877
10.998915
11.034318
11.08062
11.135417
11.199726
11.275784
11.366883
11.477777
11.61543
11.790489
12.022375
12.331899
12.706885
13.118878
14.186573
14.342396
11.610194
11.011038
10.889542
10.885195
10.884831
10.884979
10.885075
10.884965
10.885205
10.888033
10.897316
10.911656
10.916692
10.905616
10.889074
10.875933
10.870647
10.873233
10.878884
10.884854
10.889626
10.89341
10.89674
10.900027
10.903543
10.90749
10.912063
10.917513
10.924187
10.932574
10.943381
10.957626
10.976822
11.003114
11.040495
11.088363
11.144712
11.210679
11.288571
11.381753
11.49508
11.635622
11.814314
12.050594
12.367988
12.750419
13.165391
14.30546
14.366089
11.584832
10.984167
10.889069
10.885421
10.885138
10.885271
10.885302
10.885148
10.885576
10.889132
10.899494
10.912949
10.914224
10.900658
10.884124
10.872846
10.870581
10.874708
10.880891
10.886348
10.890587
10.894039
10.89722
10.900469
10.904003
10.908001
10.912662
10.918247
10.925123
10.933811
10.945063
10.959962
10.980126
11.007813
11.047384
11.096892
11.154866
11.222583
11.302432
11.397849
11.513804
11.657488
11.840154
12.081245
12.407904
12.799367
13.219277
14.424337
14.408198
11.556377
10.960003
10.888727
10.88574
10.885504
10.88561
10.885564
10.885376
10.88605
10.890408
10.901635
10.913556
10.910868
10.895388
10.879526
10.870571
10.871377
10.876528
10.882747
10.88765
10.891404
10.894601
10.897689
10.90093
10.904501
10.908566
10.913329
10.919068
10.92617
10.935192
10.946935
10.962555
10.983783
11.013002
11.054962
11.106159
11.165813
11.235361
11.317278
11.415079
11.533859
11.680943
11.867942
12.114252
12.452323
12.854476
13.281717
14.569494
14.46609
11.525096
10.939298
10.8885
10.886064
10.885879
10.885962
10.885846
10.885649
10.886628
10.891824
10.903588
10.913255
10.90694
10.890121
10.875517
10.869437
10.872562
10.878565
10.884361
10.888727
10.892113
10.895133
10.898166
10.90142
10.90504
10.909184
10.914065
10.919975
10.927328
10.936715
10.948993
10.9654
10.987786
11.01867
11.063214
11.116123
11.177494
11.248949
11.333046
11.433384
11.555196
11.705962
11.897682
12.149718
12.499993
12.916578
13.354649
14.722809
14.543509
11.491311
10.922483
10.888322
10.886349
10.886233
10.886297
10.886125
10.885952
10.887296
10.893316
10.905202
10.912152
10.902616
10.885141
10.872281
10.869361
10.874094
10.880568
10.885733
10.889576
10.892718
10.895652
10.898671
10.901949
10.905625
10.909857
10.914868
10.920967
10.928593
10.938376
10.951236
10.968493
10.99213
11.024811
11.071986
11.126727
11.189874
11.263315
11.349715
11.452763
11.577842
11.732614
11.929492
12.187932
12.550152
12.986748
13.442768
14.940951
14.642272
11.45534
10.909664
10.888156
10.886594
10.886558
10.886602
10.886384
10.886271
10.88803
10.894808
10.906355
10.910339
10.898053
10.880651
10.869819
10.870103
10.875852
10.88234
10.886885
10.890258
10.893232
10.896151
10.8992
10.902522
10.906259
10.910585
10.915736
10.922039
10.92996
10.940172
10.953658
10.971831
10.996811
11.031427
11.081121
11.137904
11.202941
11.278469
11.367317
11.473279
11.601907
11.761081
11.963621
12.229359
12.60318
13.066847
13.550127
15.13439
14.767616
11.417554
10.900851
10.887958
10.886803
10.886857
10.886874
10.886616
10.886601
10.888803
10.896221
10.906989
10.907899
10.893567
10.876753
10.868356
10.871244
10.877758
10.883801
10.887809
10.890841
10.893701
10.896638
10.899743
10.903128
10.906941
10.91137
10.91667
10.923193
10.931431
10.942105
10.956266
10.975422
11.001839
11.038538
11.090679
11.149651
11.216728
11.294484
11.385961
11.495091
11.627611
11.791667
12.000456
12.274585
12.659561
13.159614
13.672067
15.356897
14.922684
11.378204
10.896149
10.887689
10.886992
10.887138
10.887115
10.886828
10.886938
10.889591
10.897478
10.907057
10.905036
10.88935
10.873514
10.867691
10.872653
10.879667
10.884952
10.888483
10.891351
10.89417
10.897135
10.900302
10.903761
10.907661
10.912205
10.917668
10.924426
10.933006
10.944176
10.959062
10.979274
11.007229
11.046172
11.100748
11.162026
11.231315
11.311488
11.405835
11.518461
11.655318
11.824889
12.040606
12.32471
12.720172
13.260717
13.790014
15.479136
15.11632
11.338393
10.895115
10.887314
10.887167
10.887389
10.887317
10.887017
10.887277
10.890374
10.898516
10.906588
10.90208
10.885484
10.87093
10.867826
10.874226
10.881456
10.885906
10.888978
10.891779
10.894628
10.897642
10.900877
10.90442
10.90842
10.913093
10.918736
10.925749
10.934697
10.946404
10.962073
10.983425
11.013038
11.054406
11.111452
11.175156
11.24686
11.329689
11.427205
11.543732
11.685411
11.8612
12.084619
12.3802
12.784746
13.379264
13.849582
15.639078
15.359189
11.299926
10.89508
10.88684
10.887326
10.887592
10.88749
10.887194
10.887628
10.891125
10.899254
10.905651
10.899237
10.881941
10.868722
10.868514
10.87579
10.882849
10.886641
10.889414
10.892201
10.895105
10.898172
10.901476
10.905112
10.909227
10.914047
10.919888
10.927182
10.936536
10.948833
10.965365
10.987975
11.019417
11.063467
11.123142
11.189451
11.263852
11.349713
11.450876
11.571905
11.719309
11.902515
12.13443
12.445742
12.855477
13.49715
13.90447
15.793369
15.664982
11.278874
10.895291
10.886138
10.887526
10.887748
10.887644
10.887358
10.887988
10.891839
10.899759
10.904493
10.896413
10.878946
10.867179
10.869724
10.877671
10.88387
10.887096
10.889669
10.892504
10.895523
10.898672
10.902047
10.905776
10.910013
10.914991
10.921042
10.928628
10.938401
10.95131
10.968735
10.99265
11.025989
11.072838
11.135177
11.20426
11.281607
11.37078
11.475979
11.602148
11.755526
11.947427
12.188983
12.516184
12.932823
13.639604
13.976772
15.99561
16.046098
36.182116
20.467044
14.977073
14.435775
14.631804
14.629049
14.460241
14.140049
13.779256
13.424479
13.098961
12.797796
12.519564
12.256137
12.017145
11.79973
11.610147
11.451106
11.323756
11.224079
11.148405
11.091919
11.047921
11.009963
10.977678
10.951888
10.931545
10.91551
10.903286
10.894499
10.888561
10.884765
10.882588
10.881393
10.880441
10.880438
10.881832
10.882602
10.881058
10.878972
10.878745
10.881393
10.883516
10.887705
10.88589
10.890303
10.885282
10.889269
10.895343
37.040929
18.026597
14.563156
14.299005
14.610923
14.588033
14.389878
14.068164
13.718853
13.373304
13.061054
12.770966
12.502201
12.24426
12.011415
11.796515
11.608547
11.449768
11.322666
11.223345
11.148521
11.092988
11.049918
11.012266
10.979953
10.954155
10.933767
10.917508
10.904887
10.895649
10.889305
10.885189
10.882748
10.881361
10.880464
10.880539
10.881686
10.88224
10.880803
10.879009
10.878987
10.88162
10.883667
10.887743
10.885933
10.890294
10.885332
10.88924
10.895436
37.59172
17.258295
14.418963
14.262991
14.603744
14.536045
14.328248
14.003237
13.660979
13.32262
13.020613
12.741941
12.483793
12.231919
12.005618
11.792948
11.606301
11.447483
11.320655
11.221847
11.147976
11.093471
11.051426
11.014231
10.982017
10.956247
10.935844
10.91943
10.906481
10.896825
10.890084
10.885652
10.882956
10.881389
10.880495
10.880613
10.881535
10.881888
10.880539
10.879025
10.879213
10.881837
10.883808
10.887785
10.885979
10.890259
10.88538
10.889197
10.895524
37.895497
16.820018
14.391395
14.289904
14.603365
14.486497
14.265675
13.932052
13.595644
13.263384
12.972777
12.703798
12.456952
12.211905
11.993118
11.783253
11.598646
11.440732
11.315354
11.218089
11.145784
11.092612
11.05174
11.015251
10.983447
10.957911
10.937609
10.921155
10.907985
10.89798
10.890869
10.886134
10.8832
10.88147
10.880554
10.880679
10.881399
10.881548
10.880272
10.879045
10.879446
10.882064
10.883955
10.887834
10.886023
10.890236
10.885429
10.889157
10.895608
38.024251
16.589029
14.451603
14.358025
14.602828
14.44093
14.207254
13.863351
13.531651
13.203354
12.923204
12.661717
12.426183
12.187979
11.976877
11.769754
11.587288
11.430796
11.307712
11.212808
11.142526
11.090821
11.051076
11.015421
10.984302
10.95921
10.939125
10.922724
10.909419
10.899125
10.89167
10.886636
10.883471
10.881581
10.880632
10.880754
10.881272
10.881214
10.879995
10.879056
10.879682
10.882301
10.884108
10.887888
10.886068
10.890211
10.885476
10.889117
10.895688
38.005515
16.434708
14.510562
14.414449
14.600711
14.397661
14.151159
13.796116
13.468823
13.14303
12.872573
12.616612
12.392153
12.160733
11.957353
11.752963
11.572734
11.418153
11.29801
11.206133
11.138326
11.088253
11.049537
11.014745
10.984529
10.960099
10.940378
10.924125
10.910769
10.900251
10.892491
10.887162
10.883761
10.881709
10.880726
10.880837
10.881158
10.880881
10.879712
10.879054
10.879918
10.882548
10.884266
10.887947
10.886113
10.890191
10.88552
10.889082
10.895764
37.856796
16.320959
14.582023
14.456009
14.606241
14.358371
14.096763
13.730134
13.407255
13.082941
12.821425
12.569866
12.35557
12.130821
11.935059
11.73352
11.555726
11.403552
11.286726
11.198243
11.133251
11.085025
11.047293
11.01332
10.984123
10.960545
10.941345
10.925348
10.912021
10.901344
10.893326
10.887718
10.884072
10.881845
10.880828
10.880933
10.881063
10.880544
10.879428
10.879055
10.880156
10.882807
10.884432
10.888011
10.886158
10.890174
10.885563
10.889053
10.89583
37.592308
16.227989
14.661552
14.500417
14.610496
14.32326
14.04248
13.664916
13.346645
13.023199
12.769958
12.522223
12.316756
12.098713
11.910312
11.711881
11.536854
11.387654
11.274344
11.18934
11.127301
11.081136
11.044473
11.011293
10.983127
10.960528
10.941998
10.926371
10.913159
10.902386
10.894161
10.888304
10.884407
10.881986
10.880937
10.881045
10.880979
10.880198
10.879112
10.879058
10.8804
10.883081
10.884606
10.888081
10.886203
10.89016
10.885605
10.889023
10.895884
37.227174
16.148126
14.74609
14.540483
14.613406
14.282852
13.988084
13.600802
13.287198
12.964384
12.718708
12.474479
12.27628
12.065193
11.883681
11.688678
11.516756
11.371099
11.261391
11.179757
11.120568
11.07656
11.041158
11.008837
10.981645
10.960065
10.942314
10.927168
10.914163
10.903358
10.894975
10.888906
10.88477
10.882136
10.881055
10.881174
10.880901
10.879838
10.878818
10.879061
10.880654
10.883371
10.884789
10.88816
10.886247
10.890149
10.885643
10.889
10.895925
36.778341
16.07828
14.832923
14.571547
14.613609
14.240449
13.933354
13.537842
13.228731
12.906748
12.667857
12.427159
12.234571
12.030886
11.855644
11.664466
11.495912
11.354289
11.248221
11.169801
11.113214
11.071292
11.037344
11.006072
10.979817
10.959209
10.942294
10.927723
10.915021
10.904251
10.895752
10.889508
10.885155
10.882302
10.88118
10.881318
10.880827
10.879461
10.878509
10.879066
10.880923
10.883677
10.884981
10.888243
10.886293
10.89014
10.885675
10.888984
10.895958
36.25039
16.015302
14.918314
14.605619
14.609105
14.194629
13.877721
13.475798
13.170738
12.850222
12.617226
12.380356
12.192376
11.996148
11.826468
11.63963
11.474613
11.337408
11.234994
11.159672
11.105428
11.065389
11.032986
11.003026
10.97776
10.95803
10.941951
10.928028
10.915723
10.905062
10.896486
10.890099
10.885554
10.88249
10.881316
10.881469
10.880755
10.879068
10.878191
10.879081
10.881215
10.884006
10.88518
10.888331
10.886341
10.890133
10.885703
10.888974
10.895983
35.650336
15.95841
14.99647
14.638202
14.595294
14.145561
13.821106
13.415006
13.113148
12.795181
12.566955
12.334481
12.150179
11.961368
11.796548
11.614662
11.453239
11.320694
11.221896
11.149571
11.097451
11.059036
11.028109
10.999683
10.97556
10.956621
10.941321
10.928086
10.916252
10.905785
10.897176
10.890672
10.885957
10.882703
10.88147
10.881622
10.88068
10.878666
10.877864
10.879107
10.881535
10.884363
10.885388
10.888423
10.88639
10.890131
10.885715
10.888978
10.895997
34.986697
15.907985
15.065472
14.671919
14.571708
14.094828
13.763795
13.356216
13.056228
12.74229
12.517432
12.290146
12.108429
11.927018
11.766403
11.590102
11.43221
11.304416
11.209135
11.139688
11.089521
11.05249
11.022843
10.996032
10.973244
10.955078
10.940459
10.927908
10.916602
10.906411
10.897823
10.891223
10.886357
10.882934
10.881649
10.881784
10.880599
10.878253
10.877528
10.879146
10.88188
10.884736
10.885597
10.88852
10.886441
10.890137
10.885702
10.888995
10.896004
34.275848
15.86614
15.129352
14.695153
14.542268
14.043018
13.705574
13.299642
12.999737
12.691676
12.468574
12.247476
12.067231
11.893223
11.736266
11.566185
11.411696
11.288656
11.196784
11.13009
11.081745
11.045926
11.017347
10.992083
10.970779
10.953458
10.939435
10.927519
10.916776
10.906934
10.89843
10.89176
10.886757
10.883175
10.881848
10.881961
10.880513
10.877817
10.877175
10.879204
10.882251
10.885106
10.885813
10.888617
10.886491
10.890158
10.885669
10.889014
10.896004
33.512768
15.832952
15.186762
14.711974
14.508964
13.990265
13.645916
13.245013
12.943017
12.643007
12.419915
12.206203
12.026362
11.859793
11.706101
11.542858
11.391643
11.273324
11.184779
11.120733
11.074115
11.039403
11.011743
10.987879
10.968103
10.951766
10.938309
10.926944
10.916776
10.907346
10.898994
10.892288
10.887165
10.883422
10.882061
10.882158
10.880423
10.877353
10.876801
10.879289
10.882652
10.885486
10.88603
10.888718
10.886538
10.890194
10.885625
10.889028
10.895998
32.706797
15.806696
15.2365
14.724492
14.469733
13.937982
13.585036
13.192587
12.886053
12.596443
12.371529
12.166469
11.986048
11.826857
11.676143
11.520236
11.372165
11.25846
11.173147
11.11164
11.06666
11.032986
11.006166
10.983544
10.965211
10.949978
10.937132
10.92623
10.916608
10.907637
10.899506
10.892802
10.887579
10.883674
10.882276
10.882376
10.880331
10.876856
10.876404
10.879412
10.883087
10.88591
10.886243
10.888831
10.88657
10.890242
10.885581
10.889042
10.895987
31.873725
15.787663
15.276681
14.732227
14.424608
13.886647
13.523113
13.142598
12.829019
12.55214
12.323632
12.128416
11.946594
11.794608
11.646655
11.498385
11.353371
11.244105
11.161912
11.10282
11.059403
11.026715
11.00071
10.979208
10.962158
10.948064
10.935926
10.925432
10.916284
10.907797
10.899948
10.893294
10.887993
10.883929
10.882488
10.882611
10.880232
10.876322
10.875993
10.879584
10.883562
10.886369
10.88647
10.888954
10.886582
10.890287
10.88555
10.889056
10.895972
31.023378
15.778372
15.305642
14.735305
14.373507
13.836576
13.460119
13.094792
12.771703
12.509827
12.27613
12.091826
11.907977
11.763497
11.617683
11.477166
11.335218
11.230192
11.151014
11.094214
11.052306
11.020585
10.9954
10.974948
10.959015
10.946
10.934671
10.9246
10.915829
10.907819
10.900305
10.893754
10.888404
10.884182
10.882701
10.882862
10.88012
10.875739
10.875585
10.879816
10.884088
10.886847
10.886701
10.889084
10.886591
10.890326
10.885523
10.889071
10.895954
30.151124
15.780912
15.321497
14.733701
14.31652
13.7877
13.396175
13.048656
12.713743
12.469014
12.228836
12.056305
11.870097
11.733258
11.589115
11.45634
11.31759
11.216606
11.140371
11.085749
11.045318
11.014579
10.990234
10.970789
10.955851
10.943795
10.933323
10.923756
10.915281
10.907701
10.900562
10.894171
10.888808
10.884429
10.882939
10.883134
10.879963
10.875098
10.875199
10.88012
10.884676
10.887347
10.886923
10.889212
10.886613
10.890355
10.885499
10.889087
10.895935
29.26688
15.79436
15.322042
14.7275
14.25557
13.740917
13.333069
13.00403
12.655299
12.429455
12.181983
12.021659
11.833136
11.703795
11.561084
11.435808
11.300482
11.203326
11.129976
11.07742
11.038436
11.008714
10.985242
10.966757
10.952723
10.941498
10.931856
10.922891
10.91469
10.907452
10.900707
10.894532
10.889192
10.884671
10.88323
10.883439
10.879717
10.874405
10.874853
10.880504
10.885326
10.88786
10.887138
10.889327
10.886653
10.890372
10.885479
10.889105
10.895915
28.381978
15.820298
15.306748
14.716422
14.197285
13.700086
13.267265
12.960711
12.596959
12.390909
12.136034
11.987745
11.797365
11.675064
11.534092
11.41551
11.283934
11.190357
11.119848
11.069254
11.031684
11.003015
10.980458
10.962879
10.949665
10.939172
10.93027
10.921976
10.914093
10.907103
10.900733
10.894829
10.889532
10.884911
10.883562
10.883772
10.879343
10.873667
10.874602
10.880953
10.886035
10.888373
10.887369
10.889419
10.886707
10.890375
10.885465
10.889123
10.895894
27.506033
15.857569