/*--------------------------------*- C++ -*----------------------------------*\
| =========                 |                                                 |
| \\      /  F ield         | OpenFOAM: The Open Source CFD Toolbox           |
|  \\    /   O peration     | Version:  2506                                  |
|   \\  /    A nd           | Website:  www.openfoam.com                      |
|    \\/     M anipulation  |                                                 |
\*---------------------------------------------------------------------------*/
FoamFile
{
    version     2.0;
    format      ascii;
    arch        "LSB;label=32;scalar=64";
    class       volScalarField;
    location    "0.019";
    object      Ma;
}
// * * * * * * * * * * * * * * * * * * * * * * * * * * * * * * * * * * * * * //

dimensions      [0 0 0 0 0 0 0];

internalField   nonuniform List<scalar> 
192657
(
0.30037622
0.29897913
0.30056002
0.29951351
0.30028582
0.29999658
0.30007619
0.2999596
0.29966926
0.29901624
0.29809155
0.29773541
0.29940172
0.30203008
0.3035709
0.30234384
0.29956451
0.3002018
0.301884
0.30159442
0.30060517
0.30134506
0.30156593
0.30146253
0.3016653
0.30183691
0.30195048
0.30206115
0.30218613
0.30231643
0.30247081
0.30252315
0.30261221
0.3027528
0.30290085
0.30298215
0.30302527
0.30307156
0.30316958
0.303201
0.30333376
0.30335647
0.30345942
0.30361877
0.30370807
0.30387179
0.3041153
0.30433687
0.30462219
0.30505496
0.30550768
0.30598382
0.30659775
0.30734345
0.30815021
0.30902251
0.31000422
0.3111266
0.3123376
0.31359748
0.31490873
0.31629765
0.3177584
0.31927616
0.32081448
0.32234157
0.32384671
0.32535506
0.3268723
0.32838551
0.32985169
0.33124605
0.3325705
0.33383501
0.33505692
0.33624607
0.33738987
0.33847036
0.33947463
0.34040317
0.3412679
0.34208523
0.34287012
0.34362907
0.34436145
0.34505905
0.34571547
0.34633197
0.34691151
0.34746025
0.34798679
0.34849278
0.3489785
0.34945716
0.34994203
0.350426
0.35089802
0.35135878
0.35180774
0.35224267
0.35265905
0.35305659
0.35344073
0.3538174
0.35419184
0.35456789
0.35516868
0.35488047
0.3526467
0.34885339
0.34493363
0.3408883
0.33671757
0.33247047
0.32818779
0.32389719
0.31961476
0.31534547
0.31109146
0.30685852
0.30264628
0.29844822
0.29425457
0.29005402
0.28583371
0.28157875
0.27727258
0.27289681
0.26843017
0.2638496
0.25912869
0.25423636
0.24913902
0.2437977
0.23816351
0.23217525
0.22574131
0.21871923
0.21086094
0.20188082
0.19136614
0.17871696
0.16312608
0.1437066
0.1201094
0.093456189
0.065865902
0.038846664
0.012896532
0.30037597
0.29897811
0.3005618
0.29951431
0.30028277
0.2999965
0.30007644
0.29995973
0.29967088
0.29902079
0.29809478
0.29772189
0.29937656
0.30200584
0.30356963
0.30236743
0.29958268
0.30018174
0.30187575
0.30160403
0.30060492
0.30133665
0.30155992
0.30145455
0.30165027
0.30181926
0.30193054
0.30203951
0.30216274
0.30229106
0.30244073
0.3024881
0.30257475
0.30271256
0.3028553
0.30293341
0.30297971
0.30302267
0.30311249
0.30313448
0.30326038
0.30327258
0.30336812
0.30350854
0.30358884
0.30373538
0.30396021
0.30416499
0.30443845
0.30485732
0.30529028
0.30574763
0.30634319
0.307066
0.30785154
0.3087044
0.30966837
0.31077252
0.31196391
0.3132039
0.31450293
0.31588315
0.31733468
0.3188474
0.32037975
0.32190011
0.32340541
0.32491479
0.32643532
0.32795331
0.32942385
0.33082417
0.33215485
0.33342696
0.33465773
0.33585655
0.33700883
0.33809648
0.33910545
0.34003803
0.34090622
0.341727
0.3425143
0.34327331
0.34400332
0.34469595
0.34534514
0.34594689
0.34650227
0.34702263
0.34752064
0.34801061
0.34850113
0.34897921
0.34942754
0.34985309
0.35026535
0.35066041
0.35103576
0.35138835
0.35171821
0.3520288
0.35232555
0.35261203
0.35288894
0.35315135
0.35302365
0.35210427
0.34920447
0.34509357
0.34082843
0.33638634
0.33180589
0.32712807
0.32239336
0.31763488
0.31287747
0.30813533
0.30341239
0.29871872
0.29405326
0.28940999
0.28477987
0.28015137
0.27551078
0.27084172
0.26612525
0.26133989
0.25646032
0.25145818
0.24629988
0.24094447
0.23534472
0.22944306
0.22316502
0.21641623
0.20907799
0.20099766
0.19197659
0.18175334
0.16997305
0.15616476
0.13976313
0.12028896
0.097984151
0.074377403
0.051338525
0.029745356
0.0096906684
0.30037555
0.29897578
0.30056587
0.29951395
0.30027947
0.29999694
0.30007668
0.29996029
0.2996726
0.29902412
0.29809588
0.29770827
0.29935392
0.30198577
0.30356971
0.30238807
0.29959831
0.30016329
0.30186769
0.30161105
0.30060356
0.30132795
0.30155355
0.30144644
0.30163605
0.30180211
0.30191078
0.30201783
0.30213947
0.3022661
0.30241099
0.302454
0.30253762
0.30267365
0.3028089
0.30288252
0.30293105
0.3029642
0.30304758
0.30306817
0.30317785
0.3031788
0.30326888
0.30340264
0.30346462
0.30360206
0.30381498
0.30400358
0.3042602
0.3046571
0.30506822
0.30550643
0.30608391
0.30678919
0.30755349
0.30838574
0.3093298
0.31041677
0.31159165
0.31281705
0.31410184
0.31546714
0.31690811
0.31841189
0.31993776
0.32145514
0.32295746
0.32446757
0.32599061
0.32751217
0.32898741
0.33039302
0.33173015
0.33300974
0.33424991
0.33545647
0.33661651
0.33771184
0.33872817
0.3396667
0.34053968
0.34136266
0.34214934
0.34290595
0.343631
0.34431558
0.34495383
0.34554583
0.34609315
0.3466013
0.34707697
0.34752105
0.34793808
0.34834278
0.34874519
0.34913271
0.34949433
0.34983102
0.35014104
0.35042195
0.35067143
0.35089165
0.35108868
0.35126911
0.35143616
0.35163891
0.35199485
0.35140784
0.34840165
0.3441929
0.33983205
0.33530139
0.3306351
0.32588083
0.32107823
0.31625634
0.31143823
0.30665093
0.30191372
0.29721607
0.29254926
0.28790439
0.28327153
0.27863911
0.27399366
0.26931925
0.26459761
0.25980795
0.25492584
0.24992435
0.24477218
0.23943151
0.23385913
0.22800305
0.22179633
0.21515262
0.20795881
0.20006436
0.19126782
0.18129283
0.16976354
0.15619059
0.13999244
0.12070983
0.098610024
0.07515713
0.052087513
0.03028353
0.0099000604
0.30037446
0.29897315
0.30057024
0.29951328
0.30027525
0.29999768
0.30007702
0.29996103
0.29967479
0.2990279
0.29809705
0.29769268
0.29932754
0.301963
0.30357023
0.30241256
0.29961575
0.30014111
0.30185867
0.30161937
0.3006019
0.30131802
0.30154703
0.30143894
0.30162192
0.30178476
0.30189073
0.30199609
0.30211634
0.30224066
0.3023806
0.30241893
0.30249959
0.30263262
0.30276294
0.30283417
0.30288178
0.30291254
0.30298828
0.30299804
0.30310146
0.30309254
0.30317579
0.30328964
0.30334183
0.30346365
0.30365701
0.3038285
0.304072
0.3044548
0.30484645
0.30526594
0.30582507
0.30650692
0.307249
0.30806121
0.30898675
0.31005489
0.31120931
0.31241451
0.31368562
0.31504135
0.31647255
0.31796975
0.31948901
0.32099884
0.32250105
0.32401151
0.3255375
0.3270637
0.32854325
0.32995526
0.3312988
0.33258639
0.33383519
0.33505135
0.33622016
0.33732285
0.33834371
0.3392861
0.34016173
0.34098657
0.34177328
0.34252721
0.34324613
0.34392083
0.34454548
0.34511516
0.34563143
0.34610573
0.3465513
0.34698323
0.34740397
0.34779568
0.34814426
0.34846313
0.34876137
0.34903406
0.34927838
0.34949168
0.34967506
0.3498331
0.3499723
0.35009703
0.35021033
0.35025561
0.35016592
0.34944947
0.34649887
0.34227936
0.33788521
0.33331029
0.32859292
0.32378244
0.31892163
0.31404245
0.30916325
0.30429911
0.29945658
0.29463769
0.28984016
0.28505925
0.28028741
0.27551419
0.27072691
0.26591026
0.2610465
0.25611533
0.25109245
0.24595046
0.24065665
0.23517126
0.22944921
0.22343674
0.2170659
0.21025204
0.20288885
0.19483969
0.18592632
0.17590943
0.16444471
0.15105571
0.13517263
0.1163389
0.094828259
0.072101515
0.049855388
0.028923629
0.0094328492
0.30037286
0.29897016
0.30057399
0.29951288
0.30027094
0.2999989
0.30007764
0.29996214
0.29967704
0.29903084
0.2980967
0.29767706
0.29930322
0.30194328
0.30357103
0.30243433
0.29963155
0.30012014
0.30185006
0.30162499
0.30059979
0.30130774
0.30153988
0.30143082
0.30160772
0.30176719
0.30187058
0.301974
0.30209245
0.30221477
0.30235022
0.3023849
0.30246254
0.30259337
0.30271642
0.30278361
0.3028307
0.30285173
0.3029204
0.30292951
0.30301581
0.30299606
0.30307299
0.30318015
0.30321485
0.30332601
0.3035082
0.30366389
0.30389133
0.30425166
0.30462064
0.30502069
0.30556098
0.3062243
0.30694516
0.30773649
0.30864149
0.30969104
0.31082779
0.31201842
0.31327435
0.31461355
0.31603361
0.31752148
0.31903287
0.32053935
0.32203802
0.32354812
0.32507638
0.32660552
0.3280899
0.32950674
0.33085659
0.33215214
0.33341054
0.3346346
0.33581178
0.33692223
0.33795067
0.33889931
0.33977975
0.34060629
0.34139174
0.342142
0.34285444
0.34352023
0.34413416
0.34469446
0.34520151
0.34566076
0.34607828
0.34645602
0.34680326
0.34713516
0.34745804
0.34775671
0.34802359
0.34826114
0.34846809
0.34864307
0.34878604
0.34890132
0.34899559
0.34907634
0.34914761
0.34927489
0.34938943
0.34874697
0.34587561
0.34165638
0.33724285
0.33264544
0.32790178
0.32305936
0.31816097
0.31324156
0.30832967
0.30343307
0.29855753
0.29370542
0.28887523
0.28406214
0.2792581
0.27445282
0.26963411
0.26478696
0.25989453
0.25493774
0.24989374
0.24473668
0.23943549
0.2339521
0.22824296
0.22225498
0.21591884
0.20914809
0.20183194
0.19382593
0.18494083
0.17492391
0.16342647
0.14998354
0.1340459
0.11519111
0.093735529
0.071157715
0.049131908
0.02846476
0.0092685671
0.30037126
0.29896739
0.3005755
0.29951378
0.30026768
0.29999989
0.30007807
0.29996324
0.29967967
0.2990345
0.29809709
0.29765992
0.29927479
0.30191954
0.30357169
0.30246051
0.29965009
0.3000959
0.30184003
0.30163236
0.30059746
0.30129601
0.30153275
0.30142257
0.30159281
0.3017494
0.30185046
0.30195239
0.30206838
0.30218841
0.30231946
0.30235047
0.30242454
0.30255234
0.30267083
0.30273621
0.30277851
0.30279775
0.3028594
0.30285635
0.30293712
0.30290834
0.30297871
0.30306495
0.30308897
0.30318634
0.30334822
0.30348636
0.30369939
0.30404519
0.30439502
0.3047765
0.30529829
0.30593795
0.30663562
0.30740608
0.3082919
0.30932178
0.31043741
0.31160761
0.31284791
0.31417667
0.31558644
0.31706582
0.31856979
0.32006838
0.32156602
0.32307587
0.32460674
0.32614019
0.32762863
0.32905184
0.3304083
0.33171207
0.33297886
0.33421275
0.33539937
0.3365178
0.3375517
0.33850548
0.33938971
0.34021927
0.3410061
0.34175547
0.34246343
0.34312086
0.34372222
0.34426211
0.34474333
0.34517742
0.3455785
0.34596233
0.34632615
0.34665078
0.346928
0.34717629
0.34740353
0.34760512
0.34777793
0.34791969
0.34803256
0.34812249
0.3481973
0.3482626
0.34832208
0.34830879
0.34830644
0.34778929
0.34520283
0.3410573
0.33667452
0.33210638
0.32738597
0.3225602
0.31766905
0.31274281
0.30780288
0.30286364
0.29793387
0.29301753
0.28811439
0.2832214
0.27833292
0.27344001
0.26853096
0.26359123
0.25860586
0.25355599
0.24841824
0.24316647
0.23776976
0.2321906
0.22638671
0.22030774
0.21388982
0.20704994
0.19968197
0.1916472
0.18276156
0.17277508
0.1613397
0.14799017
0.13217855
0.1134906
0.09225849
0.06996532
0.04826405
0.027937945
0.0090881885
0.30037063
0.29896457
0.30057446
0.2995153
0.30026605
0.30000125
0.30007875
0.29996474
0.29968235
0.29903747
0.29809613
0.29764301
0.29924861
0.30189893
0.30357383
0.30248374
0.29966668
0.30007347
0.30183087
0.30163734
0.30059506
0.30128448
0.3015251
0.3014134
0.30157747
0.30173131
0.30183016
0.30193053
0.30204403
0.30216188
0.30228912
0.30231736
0.30238829
0.30251365
0.30262486
0.30268587
0.30272528
0.30273507
0.30278892
0.30278569
0.30284901
0.30280966
0.30287294
0.3029518
0.30295979
0.303045
0.30319609
0.30331874
0.30351648
0.30383957
0.30416595
0.30452758
0.30502983
0.30564972
0.30632635
0.30707561
0.30794021
0.30895024
0.31004732
0.31120249
0.31242636
0.31373734
0.31513532
0.31660474
0.31809964
0.31959398
0.32108734
0.32259575
0.32412841
0.32566423
0.32715736
0.32858493
0.32994779
0.33125991
0.3325365
0.33377898
0.33497482
0.33610157
0.33714409
0.3381055
0.33899607
0.33982925
0.34061755
0.34136608
0.34207099
0.34272432
0.34332123
0.34385823
0.3443356
0.34475992
0.34513818
0.34547467
0.34578283
0.34607632
0.34635648
0.34660765
0.34682701
0.3470179
0.34717902
0.34730936
0.34741012
0.34748719
0.34754888
0.34760335
0.34765489
0.34777019
0.34776492
0.34733669
0.34496644
0.34086843
0.33649871
0.3319439
0.32723246
0.32241028
0.31751749
0.31258488
0.30763384
0.30267866
0.29772861
0.29278812
0.28785732
0.28293354
0.27801153
0.27308345
0.26814028
0.26317106
0.2581604
0.25308867
0.24793075
0.24266043
0.23724722
0.23165387
0.22583774
0.21974695
0.21331461
0.20645587
0.19906328
0.1909983
0.18207849
0.17205771
0.1605932
0.14722587
0.1314144
0.11275152
0.091577654
0.069382242
0.047815545
0.027652172
0.0089855098
0.300371
0.29896311
0.30057553
0.2995168
0.30026559
0.30000231
0.3000795
0.29996606
0.29968531
0.29904127
0.29809632
0.29762465
0.29921794
0.30187348
0.30357515
0.30251148
0.29968726
0.30004696
0.30182002
0.30164416
0.30059242
0.30127173
0.30151757
0.30140398
0.30156198
0.30171326
0.30181027
0.30190911
0.30201962
0.30213538
0.30225887
0.30228407
0.30235114
0.30247311
0.30257984
0.30263875
0.30267052
0.30267927
0.30272664
0.30270964
0.30276793
0.30272071
0.30277754
0.30283469
0.30283108
0.30290425
0.30303445
0.3031391
0.30332115
0.30362905
0.30393663
0.30427994
0.3047633
0.3053596
0.30601213
0.30673943
0.30758439
0.30857382
0.30964919
0.31078347
0.31198967
0.31328956
0.31467662
0.31613552
0.31762207
0.31910849
0.32059945
0.32210717
0.32364207
0.3251817
0.32667851
0.32811211
0.32948177
0.33080217
0.33208704
0.33333985
0.33454601
0.33568172
0.33673154
0.33770039
0.33859735
0.33943684
0.34023059
0.34098334
0.34168944
0.34234033
0.34293049
0.34345507
0.34391862
0.34433271
0.34471236
0.34507294
0.34540727
0.34569762
0.34594295
0.34616346
0.34636421
0.34654114
0.34669087
0.34681142
0.34690614
0.34698213
0.34704675
0.34710455
0.34715724
0.34716634
0.34717645
0.34687717
0.34487686
0.34090053
0.33655967
0.33202791
0.32732773
0.32250592
0.3176057
0.31265995
0.30769235
0.30271893
0.2977503
0.29279192
0.28784469
0.2829053
0.27796619
0.27301746
0.26804702
0.26303984
0.25797781
0.25284335
0.24761718
0.24227641
0.23679208
0.23112812
0.22524365
0.21908818
0.21259583
0.20568537
0.19825246
0.19015899
0.18122253
0.17119663
0.15973824
0.14638871
0.1306089
0.11199719
0.090903889
0.068823599
0.047398958
0.027393807
0.0088950927
0.30037166
0.29896119
0.30057976
0.29951724
0.3002657
0.30000369
0.30008042
0.29996786
0.29968834
0.29904446
0.29809516
0.29760627
0.29918942
0.30185091
0.30357775
0.30253656
0.29970597
0.30002211
0.30180993
0.30164857
0.30058993
0.30125916
0.30150948
0.30139406
0.30154622
0.30169523
0.30179076
0.301888
0.30199531
0.30210904
0.30222919
0.30225179
0.3023158
0.30243478
0.30253429
0.30258804
0.30261558
0.30261555
0.30265386
0.30263705
0.30267775
0.30261983
0.30266881
0.30271795
0.30270007
0.3027595
0.30287891
0.30296845
0.3031359
0.303421
0.30370452
0.30402752
0.3044907
0.30506586
0.30569746
0.30640331
0.30722633
0.30819488
0.30925101
0.31036903
0.31155773
0.31283905
0.31421338
0.31566153
0.31713797
0.31861884
0.32010472
0.32161002
0.32314606
0.32468755
0.32618861
0.32762632
0.32900265
0.3303316
0.33162655
0.33288899
0.33410521
0.33525019
0.33631024
0.33728868
0.33819443
0.33904103
0.33984103
0.3405984
0.34130774
0.341962
0.34255637
0.34308631
0.34355266
0.34396364
0.34432793
0.34465299
0.3449544
0.34524197
0.34551125
0.34574847
0.34595613
0.346138
0.34629247
0.34641836
0.34651723
0.34659571
0.34666194
0.34672348
0.34678934
0.34688744
0.34691333
0.34667854
0.34496049
0.34113783
0.33683705
0.33234919
0.32769015
0.32290315
0.3180286
0.31309822
0.30813481
0.30315339
0.29816396
0.29317315
0.28818321
0.2831928
0.27819797
0.27319229
0.2681671
0.26311072
0.25800865
0.25284348
0.24759356
0.24223276
0.23672979
0.23104679
0.22514075
0.21896157
0.21244616
0.20551273
0.19805614
0.18993883
0.1809792
0.17093191
0.15945542
0.14609279
0.13030693
0.11169899
0.090622981
0.068577521
0.047205939
0.027268925
0.0088496068
0.30037218
0.29895948
0.30058542
0.29951741
0.30026564
0.30000465
0.30008114
0.29996933
0.29969158
0.29904849
0.29809538
0.29758756
0.29915676
0.30182321
0.30357839
0.30256589
0.29972901
0.29999433
0.30179819
0.30165504
0.30058759
0.30124563
0.3015015
0.30138396
0.30153011
0.30167749
0.30177143
0.30186734
0.301972
0.30208326
0.30219986
0.3022192
0.30227915
0.3023942
0.30248886
0.30254069
0.30255871
0.3025579
0.30259049
0.30255861
0.30259449
0.30252973
0.30257202
0.30259947
0.3025686
0.30261749
0.30271587
0.30278685
0.30293733
0.30320636
0.30347147
0.30377641
0.30422026
0.30477207
0.30537876
0.30606136
0.30686436
0.30781145
0.30884524
0.30994155
0.3111109
0.31238052
0.31374302
0.31517881
0.31664595
0.31811885
0.31960067
0.32110499
0.32264284
0.32418749
0.32569174
0.327135
0.32851819
0.32985533
0.33115874
0.33243212
0.33365952
0.33481467
0.33588427
0.33687277
0.33778808
0.33864499
0.33945541
0.34022314
0.34094084
0.34160043
0.34219606
0.34272361
0.34318938
0.34360481
0.34398541
0.34434466
0.34467256
0.34495604
0.34520156
0.345427
0.34563381
0.34581878
0.34597808
0.34610931
0.34621581
0.34630478
0.34638331
0.34645529
0.34651649
0.34654278
0.34659
0.34645968
0.34511346
0.34151402
0.33724922
0.33279193
0.32815553
0.32338318
0.31851767
0.31359306
0.30863356
0.30365481
0.29866667
0.29367441
0.28867954
0.28367996
0.27867024
0.27364282
0.26858853
0.26349573
0.25835051
0.2531362
0.24783233
0.24241617
0.23685981
0.23112791
0.22517977
0.21896579
0.21242172
0.20546481
0.19798939
0.18985769
0.1808879
0.17083429
0.1593547
0.14599163
0.13020749
0.11160111
0.090524353
0.068479947
0.047119568
0.02720735
0.0088251689
0.30037276
0.29895639
0.3005877
0.29951735
0.30026538
0.30000614
0.30008221
0.29997136
0.29969492
0.29905196
0.29809424
0.29756743
0.29912611
0.30179893
0.30358102
0.30259225
0.29974994
0.29996751
0.30178779
0.3016596
0.30058493
0.30123255
0.30149298
0.30137356
0.30151419
0.30165993
0.30175231
0.30184685
0.30194857
0.30205779
0.3021705
0.3021871
0.30224372
0.30235604
0.30244325
0.30248931
0.30250184
0.30249298
0.3025153
0.30248413
0.30250282
0.30242688
0.30246012
0.30247919
0.3024358
0.30246948
0.30255683
0.30261297
0.30274952
0.30299585
0.30323636
0.30352052
0.30394354
0.30447296
0.3050585
0.30571952
0.30649997
0.30742533
0.3084391
0.30951731
0.31066863
0.31191914
0.31326756
0.31469168
0.31614775
0.31761362
0.31908958
0.32059059
0.32212884
0.32367483
0.32518267
0.32663005
0.32802019
0.32936583
0.33067969
0.33196382
0.33320192
0.33436754
0.33544916
0.33644932
0.33737611
0.33824395
0.33906548
0.33984329
0.34057063
0.34124099
0.34184909
0.34238933
0.34286358
0.34328181
0.34365495
0.34399387
0.34431416
0.34462014
0.34490218
0.34515045
0.34537234
0.34557102
0.34574381
0.34588845
0.34600664
0.3461052
0.34619212
0.34627451
0.34636162
0.34647667
0.34653309
0.34643596
0.3453399
0.34201061
0.33779982
0.33339516
0.3288082
0.32407695
0.31924257
0.3143389
0.30939054
0.3044137
0.29941891
0.29441219
0.28939591
0.28437022
0.279332
0.27427434
0.26918801
0.26406146
0.25888094
0.25363015
0.24828876
0.24283356
0.23723628
0.23146178
0.22546964
0.2192109
0.21262201
0.20562161
0.19810512
0.18993561
0.18093223
0.17085031
0.15934873
0.14597057
0.13017633
0.11156156
0.090474895
0.068422187
0.047062971
0.027164566
0.0088074809
0.30037337
0.29895176
0.3005846
0.29951728
0.30026506
0.30000729
0.30008309
0.29997294
0.29969838
0.29905628
0.29809464
0.29754832
0.29909097
0.30176869
0.3035811
0.30262318
0.29977627
0.29993825
0.30177522
0.30166604
0.30058308
0.30121845
0.30148457
0.30136364
0.30149846
0.30164273
0.3017334
0.30182673
0.3019257
0.3020321
0.30214148
0.30215479
0.30220737
0.30231512
0.30239736
0.30244117
0.30244278
0.3024332
0.30245037
0.30240339
0.3024173
0.30233577
0.3023616
0.30235968
0.30230146
0.30232588
0.30239246
0.30242957
0.30254779
0.30277708
0.30299948
0.3032658
0.3036691
0.3041754
0.30473537
0.30537185
0.30613174
0.30703495
0.3080256
0.30908098
0.31021192
0.31144995
0.31278528
0.31419562
0.31564145
0.31709896
0.31856915
0.32006898
0.32160845
0.32315675
0.32466726
0.32611965
0.32751648
0.32887019
0.33019295
0.33148847
0.33273851
0.3339156
0.33500892
0.33602149
0.33696084
0.33784269
0.33867888
0.33947222
0.34021433
0.34089748
0.3415149
0.34206315
0.34254978
0.34298582
0.34338649
0.34376242
0.34410333
0.34440306
0.34467336
0.34492716
0.34516163
0.3453747
0.34556217
0.34572081
0.34585392
0.34596884
0.34607264
0.34616899
0.3462529
0.34630485
0.3463854
0.34637379
0.34559149
0.34259749
0.33844305
0.33407692
0.32952418
0.32482066
0.32000886
0.31512432
0.31019269
0.30523048
0.30024772
0.29524937
0.29023632
0.28520694
0.28015786
0.27508352
0.2699758
0.26482389
0.25961439
0.25433151
0.24895565
0.2434643
0.23782986
0.23201782
0.22598829
0.21969234
0.21306635
0.20602912
0.19847649
0.19027207
0.18123543
0.17112229
0.15959173
0.14618646
0.13036596
0.11172172
0.090597188
0.068501278
0.047104721
0.027180903
0.0088098769
0.30037345
0.29894629
0.30058263
0.29951627
0.30026495
0.30000895
0.30008417
0.29997518
0.29970201
0.29906008
0.29809364
0.29752697
0.29905808
0.301742
0.30358343
0.30265139
0.29979987
0.29990886
0.30176373
0.30167049
0.30058179
0.30120511
0.30147584
0.3013537
0.30148307
0.30162539
0.30171444
0.30180664
0.30190296
0.30200678
0.30211193
0.30212228
0.3021718
0.30227676
0.30235185
0.30238878
0.30238427
0.30236758
0.30237236
0.30232652
0.30232401
0.30223103
0.30224667
0.30223558
0.30216668
0.30217482
0.30222973
0.30225214
0.3023571
0.30256407
0.30276136
0.30300638
0.30338819
0.30387103
0.30440917
0.30502416
0.30576105
0.30664175
0.30761127
0.30864665
0.30975956
0.31097774
0.31229736
0.31369511
0.31512885
0.31657784
0.31804143
0.31953716
0.32107623
0.32262525
0.32413858
0.3255953
0.32699914
0.32836115
0.32969469
0.33100188
0.33226304
0.33345183
0.33455878
0.33558484
0.33653806
0.3374341
0.33828516
0.33909258
0.33984933
0.34054977
0.34118696
0.34175434
0.34225465
0.34269953
0.34310225
0.34347628
0.34383488
0.34417584
0.34448597
0.34476141
0.34501313
0.34524306
0.34544755
0.34562324
0.34577164
0.34589979
0.34601581
0.34612679
0.34624209
0.34637852
0.34646684
0.34646139
0.34586171
0.34323615
0.33917238
0.33486404
0.33036577
0.32570753
0.32093104
0.31607262
0.31115929
0.3062089
0.30123257
0.29623597
0.29122024
0.28618352
0.28112174
0.27602945
0.27089944
0.26572125
0.26048201
0.25516639
0.24975517
0.24422625
0.23855227
0.23269891
0.22662684
0.22028791
0.21361925
0.20654024
0.19894719
0.19070409
0.18163083
0.17148334
0.15992063
0.14648487
0.13063357
0.11195347
0.090782136
0.068631269
0.047183582
0.027219681
0.0088198902
0.30037354
0.29894193
0.30058533
0.29951485
0.3002648
0.30001
0.30008506
0.29997687
0.29970569
0.29906471
0.2980943
0.29750706
0.29902088
0.30170933
0.30358221
0.30268368
0.29982972
0.2998781
0.30174943
0.30167726
0.30058171
0.30119069
0.30146725
0.30134418
0.30146754
0.30160818
0.30169562
0.30178639
0.30188017
0.3019813
0.30208241
0.30208982
0.30213509
0.30223541
0.30230475
0.30233969
0.30232359
0.30230571
0.30230583
0.30224376
0.30223588
0.30213873
0.3021463
0.30211525
0.30202946
0.30202927
0.3020639
0.30206697
0.30215239
0.30234109
0.30252046
0.30274781
0.30310964
0.30356942
0.30408158
0.30467095
0.30538632
0.30624436
0.30718985
0.30820122
0.30929328
0.31049774
0.31180287
0.31318589
0.31460844
0.3160482
0.31750444
0.31899876
0.32053817
0.32208857
0.32360407
0.32506519
0.3264753
0.32784531
0.32918835
0.33050711
0.33178078
0.33298221
0.33410255
0.33514272
0.33611096
0.33702381
0.33789256
0.33871883
0.33949476
0.34021436
0.34086852
0.34145397
0.34197834
0.34245207
0.34288923
0.34329687
0.34366663
0.34400008
0.34431191
0.34460757
0.34488132
0.34513272
0.34535765
0.34555227
0.34571971
0.34586752
0.34600274
0.34612913
0.34624116
0.34632219
0.34643794
0.34650223
0.34613453
0.34391425
0.33996554
0.33570221
0.3312468
0.32662573
0.32188098
0.31704989
0.31216047
0.30723113
0.30227319
0.29729215
0.29228875
0.28726054
0.28220253
0.27710794
0.27196918
0.26677666
0.26151814
0.25617877
0.25073976
0.24517955
0.23947139
0.23358151
0.22747108
0.22109251
0.21438329
0.20726328
0.19962922
0.19134549
0.18223236
0.17204601
0.16044543
0.14697202
0.13108061
0.11235119
0.09111231
0.0688778
0.047346035
0.027308368
0.0088466825
0.30037455
0.29893746
0.30059014
0.29951313
0.30026465
0.30001168
0.30008632
0.2999793
0.29970959
0.29906887
0.29809352
0.29748485
0.29898516
0.30168026
0.30358435
0.30271394
0.2998564
0.29984748
0.30173707
0.30168227
0.30058116
0.30117684
0.3014581
0.30133431
0.30145214
0.30159082
0.30167662
0.30176594
0.30185725
0.30195584
0.30205258
0.30205684
0.30209858
0.30219604
0.30225827
0.30228574
0.30226328
0.30223943
0.30222519
0.3021644
0.30214133
0.30203213
0.30202857
0.30198684
0.3018924
0.30187535
0.30189742
0.30188561
0.30195839
0.3021254
0.30227926
0.30248475
0.30282436
0.30325983
0.30374908
0.30431712
0.3050093
0.30584406
0.30676692
0.30775689
0.308831
0.31001442
0.31130227
0.31267183
0.31408104
0.31551086
0.31695991
0.31844941
0.31998753
0.3215379
0.32305548
0.32452109
0.325938
0.32731603
0.32866999
0.33000092
0.33128591
0.33250016
0.3336353
0.33469037
0.33567429
0.33660374
0.33748992
0.33833296
0.33912668
0.33986811
0.34054713
0.34115587
0.34169807
0.34218653
0.34263617
0.3430616
0.34347134
0.34385717
0.34420501
0.34451771
0.34480816
0.345077
0.34532003
0.34553319
0.34571765
0.34588024
0.3460305
0.34617468
0.3463222
0.34648494
0.34660175
0.34666195
0.34639978
0.34458053
0.34080645
0.33660374
0.33220555
0.32763333
0.32292801
0.31812788
0.31326261
0.30835225
0.3034093
0.29844
0.29344532
0.28842263
0.28336655
0.27826967
0.2731235
0.26791815
0.26264202
0.25728064
0.25181546
0.24622529
0.24048387
0.23455791
0.2284089
0.22198973
0.21523864
0.20807592
0.20039876
0.19207192
0.18291595
0.17268717
0.1610444
0.14752811
0.13159035
0.11280437
0.091489802
0.069162384
0.047536313
0.027414075
0.0088793508
0.30037616
0.29893354
0.30059478
0.29951205
0.30026428
0.30001271
0.30008725
0.29998111
0.2997135
0.29907383
0.2980945
0.29746422
0.29894587
0.30164439
0.30358203
0.30274724
0.29988944
0.29981539
0.30172094
0.30168866
0.30058184
0.30116203
0.30144906
0.30132487
0.30143678
0.30157346
0.3016575
0.30174525
0.30183462
0.30193038
0.30202231
0.30202376
0.30206099
0.30215339
0.30220966
0.30223472
0.30220029
0.30217492
0.30215691
0.30207997
0.30205061
0.30193845
0.30192596
0.30186545
0.30175242
0.30172754
0.3017299
0.30169854
0.30175084
0.3018981
0.30203403
0.30222206
0.30254152
0.30295376
0.30341692
0.30395861
0.30462777
0.30543945
0.30633736
0.30730237
0.30835517
0.30952326
0.31079542
0.31214957
0.31354656
0.3149659
0.31640627
0.31789391
0.31943124
0.32098203
0.3225013
0.32397064
0.32539322
0.32677929
0.32814328
0.32948567
0.33078354
0.33201132
0.3331608
0.33423091
0.33523147
0.33617938
0.33708493
0.33794855
0.33876369
0.33952777
0.34022894
0.34086317
0.34143755
0.34196163
0.34244774
0.34289918
0.34331118
0.34369237
0.34405714
0.34440285
0.3447225
0.34501758
0.34528438
0.34551918
0.34572485
0.34590904
0.34607902
0.34623866
0.34638136
0.34649542
0.34664115
0.34676287
0.3466582
0.34523462
0.34168403
0.3375323
0.33318278
0.32865488
0.3239879
0.3192206
0.31438381
0.30949871
0.30457869
0.29963043
0.29465498
0.28964945
0.28460789
0.27952211
0.27438254
0.26917794
0.26389588
0.25852245
0.25303991
0.24742742
0.24165914
0.23570225
0.22951885
0.22306225
0.21627102
0.20906603
0.20134495
0.19297297
0.18377103
0.17349568
0.1618056
0.14824025
0.13224833
0.11339483
0.091987755
0.069543936
0.04779632
0.027561491
0.0089260616
0.30037727
0.29892943
0.30059806
0.29951183
0.30026405
0.30001441
0.30008864
0.29998373
0.29971769
0.2990784
0.29809402
0.29744121
0.29890738
0.30161263
0.30358351
0.30277977
0.29991901
0.29978285
0.30170667
0.30169429
0.30058226
0.30114786
0.30143932
0.30131539
0.30142157
0.3015557
0.30163801
0.30172457
0.30181164
0.30190452
0.30199174
0.3019896
0.30202345
0.30211277
0.30216187
0.30217885
0.30213791
0.30210786
0.30207369
0.30199742
0.30195502
0.30182986
0.30180567
0.30173235
0.30161253
0.30157097
0.30155938
0.30151289
0.30155284
0.30167941
0.3017897
0.30195525
0.30225168
0.30263886
0.30307785
0.30359828
0.30424425
0.30503188
0.30590546
0.30684833
0.30788286
0.30902845
0.31028207
0.31162176
0.31300396
0.31441208
0.31584482
0.31732696
0.31886198
0.32041192
0.3219326
0.32340634
0.32483525
0.32622903
0.32760376
0.32895837
0.33026765
0.33150903
0.33267394
0.33375985
0.33477727
0.33574323
0.33666755
0.33754946
0.33838405
0.33917076
0.33989744
0.34055541
0.34114922
0.34169233
0.34220055
0.34268784
0.34315652
0.3435938
0.34398734
0.34434594
0.3446823
0.34499567
0.34528158
0.34553608
0.34575976
0.34596015
0.34614647
0.34632613
0.3465082
0.34669898
0.34684293
0.34695576
0.34689604
0.34582469
0.3425709
0.33848716
0.33419709
0.32972205
0.32509867
0.3203663
0.31555753
0.3106955
0.3057952
0.30086448
0.295905
0.29091405
0.28588544
0.28081044
0.27567876
0.27047826
0.26519538
0.25981527
0.25432028
0.24869022
0.24289948
0.23691544
0.23070054
0.22420858
0.21737869
0.21013217
0.20236712
0.1939491
0.18469933
0.1743745
0.16263303
0.14901328
0.13296077
0.1140327
0.09252598
0.069958292
0.048080783
0.027724121
0.0089781184
0.30037667
0.29892545
0.30060166
0.29951338
0.30026379
0.30001556
0.3000896
0.29998566
0.29972183
0.29908373
0.29809537
0.29742
0.29886519
0.30157394
0.30357942
0.30281421
0.29995608
0.29975001
0.30168828
0.30170104
0.30058466
0.30113255
0.30142945
0.30130591
0.30140606
0.3015377
0.30161859
0.30170363
0.30178854
0.30187852
0.30196041
0.30195557
0.30198463
0.30206904
0.30211155
0.30212632
0.30207325
0.30204045
0.30200298
0.30191109
0.30186127
0.30173423
0.30170077
0.30160952
0.30146989
0.30142048
0.30138967
0.30132358
0.3013425
0.30144781
0.30153991
0.3016882
0.30196428
0.30232782
0.30274096
0.3032346
0.30385572
0.30461974
0.30546752
0.30638491
0.30739723
0.30852572
0.30976296
0.31108645
0.31245528
0.31385157
0.31527454
0.31675391
0.31828693
0.31983646
0.32135823
0.32283496
0.32426899
0.32567088
0.32705592
0.32842166
0.32974397
0.33099932
0.33217877
0.33327986
0.33431454
0.33529947
0.33624358
0.33714649
0.33800346
0.33881306
0.33956316
0.34024921
0.34087722
0.3414562
0.34199678
0.34249934
0.3429637
0.34340331
0.34382919
0.34423132
0.34460286
0.34494662
0.34525943
0.34553769
0.34578406
0.3460063
0.34621267
0.34640687
0.34658193
0.34672973
0.34690381
0.34707406
0.34711899
0.34636329
0.34345564
0.33944227
0.33520597
0.33078151
0.32620191
0.32150647
0.31672905
0.31189435
0.3070188
0.30211132
0.29717429
0.29220529
0.28719803
0.28214332
0.27703014
0.27184535
0.26657424
0.26120057
0.2557053
0.25006784
0.24426323
0.23825943