/*--------------------------------*- C++ -*----------------------------------*\
| =========                 |                                                 |
| \\      /  F ield         | OpenFOAM: The Open Source CFD Toolbox           |
|  \\    /   O peration     | Version:  2506                                  |
|   \\  /    A nd           | Website:  www.openfoam.com                      |
|    \\/     M anipulation  |                                                 |
\*---------------------------------------------------------------------------*/
FoamFile
{
    version     2.0;
    format      ascii;
    arch        "LSB;label=32;scalar=64";
    class       volScalarField;
    location    "0.019";
    object      T;
}
// * * * * * * * * * * * * * * * * * * * * * * * * * * * * * * * * * * * * * //

dimensions      [0 0 0 1 0 0 0];

internalField   nonuniform List<scalar> 
192657
(
245.4793
245.68879
245.52643
245.69008
245.5859
245.66729
245.59615
245.56764
245.44642
245.24165
244.90741
244.54766
244.39245
244.69569
245.41214
245.98517
245.72503
245.25923
245.39235
245.44555
245.05222
244.97465
245.08996
244.94096
244.82363
244.76014
244.70836
244.66707
244.57842
244.44143
244.25291
244.08626
244.002
243.90007
243.77964
243.65298
243.52931
243.3499
243.18879
243.10483
242.91926
242.75995
242.57992
242.38558
242.13709
241.94775
241.70774
241.41704
241.26928
240.9524
240.64
240.4634
240.1893
239.8684
239.52717
239.24007
238.95112
238.65161
238.36501
238.06922
237.78341
237.51907
237.22704
236.9489
236.68253
236.4033
236.16072
235.93649
235.69907
235.45541
235.23804
235.05196
234.89267
234.73643
234.58531
234.44963
234.30636
234.1848
234.08081
233.97413
233.87974
233.79394
233.71018
233.63505
233.56869
233.50511
233.44299
233.3831
233.3288
233.27768
233.23028
233.18307
233.14126
233.10879
233.07465
233.03812
233.00599
232.97632
232.94742
232.92062
232.89617
232.86859
232.85388
233.30664
235.64836
237.64271
238.68064
239.2792
239.62165
239.81811
239.92357
239.96935
239.97429
239.95234
239.91267
239.86455
239.81093
239.75421
239.69626
239.63856
239.58228
239.52824
239.47698
239.42886
239.3841
239.34284
239.30515
239.27104
239.24054
239.21368
239.19051
239.17118
239.15527
239.14275
239.13374
239.12845
239.12717
239.13024
239.13799
239.15062
239.16805
239.18971
239.21395
239.23773
239.25709
239.2694
239.27529
239.2773
239.27766
245.47938
245.68825
245.52652
245.69002
245.58629
245.66739
245.59659
245.56829
245.44802
245.24445
244.91131
244.55093
244.39244
244.68964
245.40446
245.98157
245.73024
245.26065
245.39001
245.44798
245.05607
244.97379
245.0894
244.94265
244.82472
244.76171
244.70781
244.66812
244.5823
244.44743
244.26009
244.09163
244.00409
243.90018
243.78351
243.65758
243.53482
243.35494
243.19276
243.10972
242.92502
242.76954
242.58806
242.39842
242.14644
241.9615
241.71632
241.43239
241.28341
240.9587
240.65319
240.47772
240.19828
239.87578
239.5354
239.24893
238.95878
238.65698
238.36858
238.07157
237.78554
237.51784
237.22091
236.93997
236.67193
236.38844
236.14438
235.91523
235.67126
235.42398
235.20773
235.02582
234.86261
234.70084
234.54899
234.4091
234.26229
234.14112
234.03551
233.92684
233.83082
233.7439
233.65959
233.5829
233.51345
233.44888
233.38801
233.33208
233.27963
233.22616
233.17929
233.14023
233.10245
233.06271
233.02759
232.99932
232.97146
232.94439
232.92074
232.89856
232.87682
232.85844
232.89928
233.5798
236.08063
237.96292
238.92441
239.501
239.87262
240.1197
240.28507
240.39402
240.46346
240.50484
240.52608
240.53279
240.52929
240.51894
240.50418
240.48674
240.46774
240.448
240.42815
240.40866
240.38987
240.37205
240.35539
240.34
240.32598
240.31336
240.30216
240.29237
240.28398
240.27692
240.27112
240.26648
240.26285
240.26006
240.25792
240.25625
240.25488
240.25363
240.25211
240.25023
240.24822
240.24655
240.24552
240.24508
240.24497
245.47947
245.68742
245.52662
245.68998
245.58692
245.66744
245.59704
245.56893
245.44962
245.24725
244.91523
244.55424
244.3925
244.68358
245.39672
245.97788
245.73534
245.26215
245.38757
245.45041
245.06016
244.97296
245.08868
244.9444
244.82592
244.76339
244.70716
244.66899
244.58582
244.45274
244.26628
244.09616
244.00723
243.90239
243.78781
243.66206
243.54133
243.35977
243.1961
243.11419
242.92958
242.7775
242.59399
242.40969
242.15355
241.97317
241.72238
241.44533
241.29459
240.9627
240.66454
240.48993
240.20594
239.88227
239.54391
239.25865
238.96737
238.66322
238.37367
238.07492
237.78677
237.51698
237.21656
236.9344
236.66248
236.37683
236.12968
235.89523
235.64482
235.39542
235.18177
235.00179
234.83497
234.66689
234.51252
234.36784
234.21962
234.09754
233.98789
233.87877
233.78314
233.69556
233.61064
233.53441
233.46703
233.40297
233.34007
233.28164
233.22888
233.17966
233.13545
233.09219
233.05568
233.02774
232.99836
232.96862
232.94411
232.9223
232.90252
232.88484
232.86955
232.85591
232.87988
233.45495
235.96667
237.94226
238.91212
239.4806
239.83354
240.05621
240.1957
240.27966
240.32487
240.34369
240.34439
240.3327
240.31239
240.28632
240.25656
240.22464
240.19178
240.1589
240.1267
240.09564
240.06606
240.03819
240.01217
239.98808
239.96598
239.94586
239.92773
239.91157
239.89736
239.8851
239.87476
239.86637
239.85992
239.85543
239.8529
239.85225
239.85328
239.85562
239.85901
239.86281
239.8662
239.86853
239.86973
239.87016
239.87022
245.47958
245.68623
245.52678
245.69001
245.5876
245.66747
245.59749
245.56961
245.45128
245.25019
244.91934
244.55773
244.39253
244.67715
245.38855
245.97388
245.74078
245.26387
245.38491
245.45298
245.0644
244.97211
245.08798
244.94611
244.8271
244.76516
244.70643
244.66976
244.58943
244.45864
244.2741
244.10235
244.00987
243.90229
243.79135
243.66642
243.54685
243.36476
243.20047
243.11894
242.93537
242.78671
242.60252
242.42263
242.16378
241.98751
241.7316
241.46209
241.30842
240.97031
240.67897
240.50511
240.21563
239.8911
239.55387
239.26904
238.9762
238.67012
238.37924
238.07836
237.7883
237.51634
237.21244
236.92757
236.65358
236.36394
236.11433
235.87422
235.61871
235.3677
235.15591
234.97799
234.80523
234.63245
234.47753
234.32816
234.17746
234.05542
233.94351
233.83241
233.7353
233.6469
233.56156
233.48369
233.41344
233.34902
233.28912
233.2364
233.18571
233.13439
233.09154
233.05665
233.02316
232.98879
232.96105
232.94048
232.92017
232.90168
232.88688
232.87379
232.86059
232.85752
232.8995
233.46371
235.85823
237.96464
238.97159
239.57303
239.95792
240.20729
240.36614
240.46594
240.52528
240.55668
240.56845
240.56513
240.5512
240.53007
240.50445
240.47638
240.44721
240.41776
240.38861
240.3602
240.33287
240.30686
240.28234
240.2594
240.23809
240.21841
240.20036
240.18387
240.1689
240.15537
240.14319
240.13225
240.12245
240.11367
240.10581
240.09879
240.09257
240.08715
240.08265
240.07922
240.07695
240.0757
240.07512
240.07489
240.07482
245.47973
245.68513
245.52707
245.68991
245.58812
245.66744
245.59794
245.57026
245.4529
245.25306
244.9234
244.56119
244.39265
244.67093
245.38061
245.96983
245.74598
245.26557
245.3822
245.45552
245.06874
244.97128
245.08715
244.94782
244.82837
244.76702
244.70563
244.67036
244.59264
244.46378
244.28077
244.10747
244.01329
243.90441
243.79552
243.67059
243.55324
243.36967
243.20415
243.12313
242.93999
242.79427
242.60865
242.43379
242.17152
241.9994
241.73814
241.47623
241.31898
240.97506
240.6913
240.51781
240.22353
239.89841
239.56344
239.27966
238.98526
238.67702
238.38485
238.08281
237.79118
237.51646
237.20898
236.92292
236.64436
236.35259
236.09925
235.85346
235.59286
235.34179
235.13339
234.95516
234.77684
234.59813
234.44033
234.2863
234.13531
234.01128
233.89625
233.7861
233.68912
233.59991
233.51394
233.43659
233.36864
233.30452
233.24187
233.18598
233.13555
233.0893
233.0487
233.00989
232.97884
232.95545
232.93107
232.90778
232.88992
232.87476
232.86208
232.85084
232.84207
232.83488
232.86721
233.33359
235.64306
237.87582
238.93381
239.56054
239.95692
240.20868
240.36776
240.46523
240.5218
240.54965
240.55694
240.55026
240.53457
240.51282
240.48688
240.45813
240.42779
240.39646
240.36491
240.33383
240.30371
240.2749
240.24759
240.22189
240.19787
240.17557
240.155
240.13614
240.11897
240.10347
240.0896
240.07733
240.06664
240.05749
240.04989
240.04378
240.0391
240.0357
240.03338
240.03191
240.03101
240.03048
240.03017
240.03001
240.02995
245.47992
245.68431
245.52746
245.68955
245.58848
245.66738
245.59841
245.57096
245.45462
245.25613
244.92774
244.56494
244.3928
244.66423
245.37201
245.96532
245.75155
245.26766
245.37925
245.45819
245.07333
244.97043
245.08632
244.9495
244.82968
244.76897
244.70482
244.67087
244.59591
244.46953
244.28915
244.11436
244.01655
243.90428
243.79856
243.67474
243.55866
243.37464
243.20895
243.1276
242.94595
242.80299
242.61754
242.44656
242.18255
242.01405
241.748
241.49438
241.33224
240.98379
240.70683
240.53353
240.23373
239.90831
239.57472
239.29116
238.995
238.6851
238.39176
238.08758
237.79349
237.51633
237.20588
236.91682
236.63604
236.34075
236.08427
235.83249
235.56848
235.3174
235.11067
234.93202
234.74655
234.56413
234.40559
234.24658
234.09387
233.96953
233.85172
233.73924
233.64067
233.55058
233.46398
233.38484
233.314
233.2496
233.19078
233.14082
233.09157
233.0425
233.00301
232.9714
232.94116
232.91122
232.88905
232.87337
232.85749
232.84387
232.83337
232.82407
232.81466
232.81189
232.85198
233.27341
235.36073
237.75452
238.8684
239.52009
239.93311
240.20177
240.37552
240.48394
240.54737
240.57921
240.58941
240.58603
240.57291
240.55298
240.52842
240.50076
240.47101
240.44041
240.40977
240.37969
240.35056
240.3227
240.29616
240.27104
240.24743
240.22538
240.20489
240.18592
240.16841
240.15227
240.13742
240.12376
240.1112
240.09967
240.08913
240.07952
240.07087
240.06322
240.05672
240.05151
240.04776
240.04543
240.04422
240.0437
240.04355
245.48017
245.68379
245.52797
245.68903
245.5888
245.66728
245.59887
245.57163
245.45632
245.25914
244.93202
244.56865
244.39303
244.65776
245.36367
245.96078
245.75689
245.26973
245.37627
245.46078
245.07801
244.96962
245.08537
244.95118
244.83112
244.771
244.704
244.67123
244.5988
244.47455
244.2964
244.12011
244.0203
243.9064
243.80253
243.67875
243.56484
243.37977
243.213
243.13139
242.95087
242.8101
242.62401
242.45748
242.19116
242.02606
241.75534
241.50982
241.34212
240.9896
240.72021
240.5467
240.24206
239.91661
239.58539
239.30273
239.0049
238.69308
238.39859
238.09332
237.79776
237.51775
237.20334
236.91303
236.62719
236.32976
236.06912
235.81191
235.54452
235.295
235.09138
234.9097
234.71733
234.52977
234.36785
234.20462
234.0524
233.92502
233.80511
233.69446
233.59539
233.50406
233.41643
233.33744
233.26838
233.20361
233.14132
233.08737
233.03847
232.99406
232.95517
232.9191
232.89123
232.86979
232.8479
232.8282
232.81338
232.80092
232.79092
232.78173
232.77487
232.76959
232.79129
233.13642
235.07371
237.58853
238.77075
239.45994
239.89426
240.17267
240.35139
240.4644
240.53285
240.57041
240.58591
240.58518
240.57257
240.55154
240.52487
240.49477
240.46298
240.43076
240.39881
240.36747
240.33693
240.30729
240.27877
240.25149
240.22561
240.20123
240.17838
240.1571
240.13728
240.11889
240.1019
240.08628
240.07201
240.05905
240.04739
240.03699
240.02782
240.01989
240.01324
240.00793
240.00407
240.00165
240.00039
239.99987
239.99974
245.48044
245.68343
245.52855
245.68827
245.58912
245.6672
245.59937
245.57235
245.45811
245.26236
244.93662
244.57269
244.39334
244.6508
245.3546
245.95567
245.76277
245.27214
245.37302
245.46349
245.08299
244.9688
245.08442
244.95284
244.83263
244.77307
244.70323
244.67151
244.60167
244.48012
244.30531
244.12786
244.02434
243.90639
243.80506
243.68284
243.57005
243.38476
243.21822
243.13553
242.95721
242.81822
242.63325
242.46991
242.20309
242.04085
241.76602
241.52929
241.35464
240.9996
240.73675
240.56282
240.25285
239.92752
239.59777
239.31519
239.01565
238.70243
238.40689
238.09934
237.80107
237.5184
237.20108
236.90734
236.61922
236.31882
236.05474
235.79165
235.52249
235.27393
235.07082
234.88618
234.6863
234.49618
234.33285
234.16467
234.01127
233.88305
233.75991
233.64629
233.54527
233.45274
233.36404
233.28317
233.21121
233.14591
233.0873
233.03827
232.9888
232.94073
232.90271
232.87216
232.84284
232.81497
232.79533
232.78091
232.76605
232.75367
232.74377
232.73475
232.72561
232.72191
232.75157
233.04194
234.72051
237.34888
238.63143
239.36152
239.81792
240.11169
240.30192
240.42315
240.49703
240.53792
240.55568
240.55723
240.54738
240.52953
240.50613
240.47894
240.44924
240.41805
240.38619
240.35436
240.32312
240.29292
240.26414
240.23696
240.21134
240.18722
240.16451
240.14309
240.12296
240.10409
240.08645
240.06998
240.05465
240.04042
240.02727
240.01517
240.00417
239.99433
239.98583
239.97888
239.97377
239.97055
239.96888
239.96821
239.96805
245.48069
245.68312
245.52898
245.68755
245.58941
245.66713
245.59985
245.57305
245.45988
245.26553
244.94117
244.5767
244.39371
244.64407
245.34582
245.95056
245.76838
245.27441
245.36975
245.46609
245.08802
244.96803
245.08336
244.95449
244.83431
244.7752
244.70249
244.67164
244.60418
244.485
244.31308
244.13447
244.02874
243.90909
243.80841
243.68682
243.57588
243.39018
243.22267
243.13899
242.96247
242.82472
242.64004
242.4804
242.21249
242.05296
241.77436
241.54579
241.36381
241.00665
240.75118
240.57629
240.2617
239.9368
239.60943
239.32764
239.02657
238.71165
238.41509
238.10643
237.80632
237.52036
237.19934
236.90414
236.61072
236.30822
236.03983
235.77205
235.50109
235.25484
235.05366
234.86337
234.65603
234.46178
234.29441
234.12281
233.97026
233.83801
233.71373
233.60202
233.49961
233.40518
233.31488
233.23355
233.16244
233.09566
233.03286
232.97933
232.93026
232.88568
232.84603
232.81025
232.78281
232.76062
232.73869
232.7199
232.70522
232.69257
232.68222
232.67225
232.66459
232.6578
232.66669
232.89418
234.40218
237.08528
238.48584
239.26334
239.74497
240.05338
240.2525
240.37955
240.4577
240.50198
240.52243
240.52603
240.51758
240.50062
240.47773
240.45083
240.42136
240.39038
240.3587
240.32691
240.29545
240.26464
240.23476
240.20599
240.1785
240.15239
240.12776
240.10464
240.08305
240.06299
240.04433
240.027
240.01089
239.99592
239.98205
239.96928
239.95762
239.94717
239.93807
239.93057
239.92501
239.9215
239.91972
239.91902
239.91887
245.48092
245.6827
245.52933
245.68705
245.5896
245.66709
245.60038
245.5738
245.46175
245.26891
244.94604
244.58108
244.39422
244.63687
245.33625
245.94478
245.77445
245.27714
245.36624
245.46875
245.0934
244.96727
245.08227
244.95615
244.8361
244.77736
244.70184
244.6717
244.60664
244.49034
244.32242
244.14325
244.03373
243.90958
243.81026
243.69085
243.5808
243.39523
243.2283
243.14298
242.96915
242.83205
242.64955
242.49229
242.22522
242.06782
241.78595
241.5661
241.37564
241.01798
240.76872
240.59267
240.27308
239.9486
239.62278
239.34108
239.03842
238.72226
238.42479
238.11351
237.81082
237.52174
237.19778
236.89867
236.60306
236.29825
236.02634
235.7531
235.48177
235.23665
235.03414
234.83868
234.62431
234.42845
234.25864
234.08264
233.92909
233.79528
233.66738
233.55183
233.44696
233.35075
233.25892
233.17585
233.10201
233.03426
232.97405
232.92349
232.87191
232.82339
232.78488
232.75299
232.72227
232.69409
232.67413
232.65818
232.64202
232.62851
232.6169
232.60611
232.59536
232.59011
232.60794
232.78778
234.02555
236.7247
238.28328
239.11423
239.62437
239.95179
240.16455
240.30159
240.38712
240.43693
240.46163
240.46857
240.46288
240.44818
240.42715
240.40175
240.37345
240.34337
240.31236
240.28107
240.25
240.21951
240.18987
240.16128
240.13386
240.10768
240.0828
240.05921
240.0369
240.01586
239.99606
239.97747
239.96005
239.94379
239.92868
239.91474
239.90201
239.89055
239.88052
239.8722
239.86598
239.86201
239.85995
239.85914
239.85897
245.48112
245.68227
245.52979
245.68673
245.58979
245.66708
245.6009
245.57453
245.4636
245.27224
244.95086
244.58541
244.39475
244.62989
245.32696
245.93905
245.78034
245.27975
245.36269
245.47132
245.09887
244.96656
245.0811
244.9578
244.83806
244.77955
244.70126
244.67167
244.60871
244.49504
244.33061
244.15076
244.03899
243.91294
243.81329
243.69483
243.58625
243.40094
243.23324
243.14627
242.97462
242.8378
242.65655
242.50209
242.23535
242.07977
241.79532
241.58297
241.38423
241.02632
240.78413
240.60633
240.28245
239.95877
239.63539
239.35447
239.05034
238.73277
238.43435
238.12169
237.81641
237.52417
237.19663
236.89576
236.59485
236.28813
236.01193
235.7351
235.46326
235.22022
235.0178
234.8145
234.59286
234.39379
234.21939
234.04107
233.88811
233.74947
233.62114
233.50675
233.39947
233.30064
233.20668
233.12231
233.04801
232.97762
232.91279
232.8578
232.80682
232.76012
232.71758
232.67981
232.6505
232.62552
232.60159
232.58161
232.5651
232.5505
232.53795
232.52567
232.5157
232.50611
232.50429
232.63934
233.71541
236.35952
238.09235
238.97861
239.51828
239.86405
240.08856
240.23337
240.32426
240.37795
240.40562
240.4149
240.41113
240.39802
240.37828
240.35391
240.3264
240.29688
240.26621
240.23504
240.20389
240.17314
240.1431
240.11398
240.08593
240.05907
240.03345
240.00909
239.986
239.96417
239.94357
239.92414
239.90586
239.8887
239.87263
239.85769
239.8439
239.83139
239.82039
239.81123
239.8044
239.80011
239.79794
239.79711
239.79695
245.48134
245.68186
245.53044
245.68653
245.58999
245.66709
245.60147
245.5753
245.46554
245.27579
244.95603
244.59015
244.39549
244.62249
245.31679
245.93256
245.78654
245.28286
245.35892
245.47387
245.10473
244.96586
245.07989
244.95946
244.84016
244.78176
244.7008
244.6716
244.61067
244.50011
244.34026
244.16052
244.04507
243.91414
243.81483
243.6988
243.59091
243.40611
243.23931
243.1502
242.98152
242.84426
242.66617
242.51338
242.24891
242.09443
241.80774
241.60338
241.39557
241.03899
240.80264
240.6228
240.2945
239.97139
239.64976
239.36895
239.06325
238.74462
238.44532
238.1296
237.82167
237.52619
237.19582
236.89058
236.58751
236.27911
235.99957
235.71803
235.44671
235.20404
234.9981
234.78803
234.56049
234.36038
234.18253
234.00075
233.84649
233.70549
233.57318
233.45401
233.34376
233.24252
233.14667
233.06076
232.98393
232.91222
232.84844
232.79397
232.73881
232.68864
232.64797
232.61262
232.57847
232.54794
232.52555
232.50614
232.48719
232.47117
232.45659
232.44302
232.42981
232.42268
232.43032
232.52839
233.35503
235.89306
237.83108
238.78301
239.36002
239.73049
239.97186
240.12848
240.22786
240.28783
240.32028
240.33328
240.33256
240.32195
240.3043
240.28171
240.25569
240.22741
240.19775
240.16739
240.13684
240.10652
240.07672
240.0477
240.0196
239.99257
239.96666
239.94192
239.91838
239.89602
239.87484
239.85479
239.83586
239.81801
239.80124
239.78557
239.77104
239.75778
239.746
239.7361
239.72862
239.72383
239.72136
239.72041
239.72023
245.48159
245.68164
245.53104
245.6865
245.59025
245.66709
245.60202
245.57605
245.46748
245.2793
244.96115
244.59484
244.39621
244.61531
245.30679
245.92622
245.79267
245.28583
245.35511
245.47633
245.1107
244.96518
245.07861
244.96111
244.84242
244.784
244.7004
244.67142
244.61226
244.50458
244.34876
244.16883
244.0511
243.91835
243.81797
243.70283
243.59596
243.41211
243.24475
243.15327
242.98703
242.84916
242.67322
242.5225
242.25976
242.10596
241.81816
241.62007
241.4037
241.04862
240.81899
240.63655
240.30445
239.98236
239.66328
239.38328
239.07609
238.75629
238.45608
238.13856
237.82798
237.52909
237.19528
236.88808
236.57959
236.26954
235.98596
235.70208
235.43091
235.1891
234.98108
234.76178
234.52786
234.32524
234.14261
233.95954
233.80494
233.65866
233.52618
233.40685
233.29317
233.18879
233.09046
233.00209
232.92313
232.84775
232.77958
232.72144
232.66707
232.61661
232.56956
232.52819
232.49524
232.46614
232.43895
232.41625
232.39654
232.37878
232.36299
232.34762
232.33472
232.32154
232.3123
232.38356
233.08173
235.44611
237.58484
238.60596
239.22113
239.61509
239.87125
240.03752
240.14343
240.208
240.24383
240.25942
240.26079
240.25191
240.23574
240.21438
240.18942
240.16201
240.13303
240.10317
240.07295
240.04279
240.013
239.98383
239.95546
239.92801
239.90159
239.87624
239.852
239.82888
239.80686
239.78594
239.76608
239.74728
239.72955
239.7129
239.69742
239.68325
239.67066
239.66009
239.65214
239.64712
239.64458
239.64364
239.64347
245.48181
245.68107
245.53132
245.68628
245.59051
245.66708
245.60262
245.57684
245.46951
245.28302
244.96662
244.59998
244.39724
244.60778
245.29567
245.9191
245.79898
245.28946
245.35108
245.47869
245.11711
244.96456
245.07724
244.96278
244.8448
244.78625
244.70013
244.67124
244.61369
244.50933
244.35857
244.17943
244.0583
243.92054
243.81929
243.70659
243.60038
243.4174
243.25124
243.15701
242.99395
242.85475
242.68283
242.5331
242.27392
242.12023
241.83156
241.64018
241.4147
241.06257
240.83847
240.65305
240.31718
239.99581
239.67868
239.39874
239.08988
238.76927
238.46804
238.14706
237.83378
237.53192
237.19519
236.88335
236.57265
236.26131
235.97472
235.68695
235.41651
235.17378
234.96018
234.73335
234.49501
234.29149
234.10458
233.91898
233.76233
233.613
233.47616
233.35149
233.23447
233.1272
233.02666
232.93677
232.85544
232.77857
232.70986
232.64975
232.58998
232.537
232.49268
232.45217
232.41295
232.37858
232.3525
232.32857
232.30584
232.28635
232.26804
232.25108
232.235
232.22609
232.22475
232.26846
232.76098
234.91302
237.25207
238.36461
239.02944
239.45419
239.73056
239.91066
240.02631
240.09791
240.13895
240.15855
240.16307
240.15682
240.14287
240.12345
240.10017
240.07424
240.04655
240.0178
239.98851
239.9591
239.9299
239.90115
239.87304
239.84573
239.81931
239.79385
239.76938
239.74595
239.72355
239.70217
239.68179
239.66242
239.64406
239.62676
239.6106
239.59571
239.58238
239.57109
239.56248
239.55695
239.55411
239.55302
239.55284
245.48193
245.68028
245.53143
245.68584
245.59069
245.66707
245.60319
245.57762
245.47153
245.28671
244.97205
244.60506
244.39819
244.60045
245.2846
245.91242
245.80524
245.29292
245.3469
245.48099
245.12366
244.96398
245.07585
244.96439
244.84732
244.78854
244.69992
244.67098
244.61477
244.5135
244.36719
244.18848
244.06516
243.9255
243.82265
243.71043
243.60506
243.42363
243.25709
243.15971
242.99944
242.85892
242.68986
242.54125
242.28535
242.13129
241.84302
241.65649
241.42264
241.07348
240.85581
240.66683
240.32766
240.00764
239.69318
239.41383
239.10358
238.78186
238.47961
238.15655
237.84065
237.5347
237.19486
236.88108
236.56509
236.25231
235.96196
235.67292
235.40261
235.1591
234.94131
234.70479
234.46133
234.25574
234.06421
233.87798
233.71954
233.56486
233.4276
233.30128
233.18003
233.06944
232.96605
232.87219
232.78701
232.70583
232.63347
232.57092
232.51182
232.45607
232.40342
232.35752
232.3198
232.28572
232.25455
232.22805
232.2041
232.18226
232.16251
232.14344
232.12711
232.10969
232.0955
232.12702
232.53708
234.42947
236.92808
238.1446
238.8593
239.31277
239.60714
239.79909
239.92273
239.99983
240.04475
240.06718
240.07383
240.06932
240.05684
240.03869
240.01655
239.99163
239.96484
239.93686
239.90823
239.87933
239.8505
239.82198
239.79396
239.76658
239.73997
239.71418
239.68928
239.66529
239.64224
239.62012
239.59893
239.57869
239.55942
239.54119
239.52408
239.50828
239.49412
239.48214
239.47304
239.46727
239.46437
239.46329
239.46311
245.48196
245.6789
245.53179
245.68507
245.59081
245.66708
245.6038
245.57844
245.47365
245.2906
244.97784
244.61062
244.39948
244.59281
245.2725
245.90507
245.81154
245.29713
245.34249
245.48312
245.13071
244.9635
245.07429
244.96601
244.84998
244.79085
244.69983
244.67076
244.61569
244.51785
244.37691
244.19984
244.07361
243.92945
243.82405
243.71377
243.60923
243.429
243.26383
243.16311
243.00634
242.86378
242.69935
242.55083
242.29998
242.14504
241.85769
241.67626
241.43375
241.08863
240.87636
240.68337
240.34091
240.02193
239.70964
239.43011
239.11805
238.79564
238.49217
238.1655
237.84697
237.53787
237.1957
236.87694
236.55874
236.24474
235.95166
235.65946
235.38947
235.14351
234.91838
234.6744
234.42808
234.2214
234.02503
233.83693
233.67541
233.51713
233.37523
233.24363
233.11892
233.00507
232.89902
232.80352
232.71627
232.63359
232.5591
232.49227
232.42702
232.36992
232.3205
232.27356
232.22816
232.18904
232.15863
232.12981
232.10263
232.07894
232.05642
232.03555
232.01627
232.00427
231.99649
232.00592
232.26134
233.88742
236.50337
237.86098
238.63763
239.12718
239.4452
239.65342
239.78847
239.87364
239.92434
239.951
239.96079
239.9588
239.94839
239.93204
239.91151
239.88807
239.86265
239.83595
239.80847
239.78063
239.75273
239.72502
239.69768
239.67087
239.6447
239.61924
239.59453
239.57064
239.54756
239.5253
239.50386
239.48325
239.46349
239.44462
239.42674
239.41
239.39476
239.38157
239.3713
239.36455
239.36103
239.35968
239.35945
245.482
245.67754
245.53232
245.68412
245.5909
245.66707
245.60438
245.57926
245.47576
245.29447
244.98359
244.61611
244.4007
244.58531
245.26059
245.89815
245.81767
245.30123
245.33789
245.48523
245.13784
244.96307
245.07276
244.96754
244.85274
244.79319
244.6998
244.6705
244.61629
244.52161
244.38542
244.20956
244.08156
243.93541
243.8281
243.71742
243.61344
243.43544
243.26986
243.16543
243.01176
242.86725
242.70596
242.55776
242.31192
242.15531
241.87033
241.69213
241.44189
241.1008
240.89479
240.69716
240.35178
240.03472
239.72515
239.44587
239.13225
238.80888
238.50422
238.17536
237.85423
237.54107
237.1957
236.87498
236.55174
236.2363
235.9397
235.647
235.37645
235.1277
234.89647
234.64349
234.39353
234.18496
233.98432
233.79572
233.63068
233.46721
233.32428
233.18963
233.06021
232.94303
232.83379
232.73291
232.64034
232.55296
232.47588
232.4079
232.34264
232.28026
232.22143
232.17062
232.12741
232.08766
232.05184
232.02084
231.99195
231.96537
231.94122
231.91802
231.89778
231.87616
231.85823
231.86727
232.08501
233.42437
236.08292
237.60114
238.43791
238.9609
239.3006
239.5235
239.66856
239.76054
239.81585
239.84564
239.85759
239.85719
239.84799
239.83266
239.81304
239.79047
239.76588
239.73997
239.71326
239.68613
239.65888
239.63175
239.60491
239.57849
239.55262
239.52736
239.50278
239.47891
239.45577
239.43336
239.41169
239.39076
239.37059
239.35121
239.33268
239.31514
239.29887
239.28434
239.2725
239.26391
239.25901
239.25698
239.25678
245.48212
245.67666
245.53319
245.68339
245.59101
245.66708
245.60502
245.58012
245.47795
245.29853
244.98972
244.62212
244.40228
244.57759
245.24761
245.89022
245.8238
245.30608
245.33314
245.48715
245.14553
244.96275
245.07102
244.96907
244.85564
244.79553
244.70001
244.67029
244.61671
244.52544
244.39486
244.22152
244.09146
243.94108
243.83001
243.72053
243.61729
243.44091
243.27653
243.16867
243.01867
242.87149
242.71483
242.56633
242.32685
242.16826
241.88611
241.7114
241.45328
241.11713
240.91638
240.71362
240.36546
240.04998
239.74257
239.46271
239.14717
238.82326
238.51711
238.18464
237.86089
237.54455
237.19758
236.8715
236.54611
236.22913
235.92992
235.6346
235.36341
235.11059
234.87082
234.61138
234.35998
234.14974
233.94387
233.75366
233.58443
233.41697
233.26932
233.12997
232.99723
232.87638
232.76407
232.6616
232.56738
232.47837
232.3977
232.32352
232.25192
232.18937
232.13358
232.0793
232.02705
231.98264
231.94737
231.91348
231.88142
231.85299
231.82601
231.80101
231.77836
231.76294
231.7494
231.73884
231.84665
232.93082
235.56071
237.27901
238.18713
238.75166
239.11939
239.36176
239.52046
239.62195
239.68389
239.7183
239.73348
239.73538
239.72793
239.71401
239.69562
239.67418
239.65071
239.62591
239.60031
239.57428
239.5481
239.522
239.49612
239.47061
239.44557
239.42106
239.39717
239.37392
239.35138
239.32954
239.30846
239.28815
239.26868
239.25012
239.2326
239.2163
239.20161
239.18915
239.17966
239.17379
239.17086
239.16982
239.16966
245.48225
245.67616
245.53405
245.68286
245.59124
245.6671
245.60563
245.58097
245.48014
245.30258
244.99581
244.62803
244.40377
244.56995
245.23479
245.88266
245.82992
245.3108
245.32807
245.48905
245.15327
244.96257
245.06926
244.97048
244.85861
244.79787
244.70025
244.67007
244.61687
244.52869
244.4031
244.23173
244.10049
243.94844
243.83514
243.72437
243.62109
243.44754
243.28257
243.17084
243.02396
242.8742
242.72069
242.57202
242.33906
242.1776
241.89964
241.7267
241.46161
241.1305
240.93565
240.72732
240.37667
240.06382
239.7589
239.47892
239.16167
238.837
238.52941
238.19477
237.86836
237.54797
237.19788
236.86982
236.53973
236.22117
235.9184
235.62295
235.35001
235.09237
234.84519
234.57842
234.32473
234.11232
233.90256
233.71144
233.53694
233.3646
233.21512
233.07139
232.93378
232.80966
232.69396
232.58518
232.48464
232.39076
232.30854
232.23436
232.16187
232.0921
232.02711
231.97133
231.92195
231.8757
231.83428
231.79808
231.76384
231.73206
231.70325
231.67581
231.65151
231.62603
231.60523
231.60132
231.70636
232.53427
235.05124
236.97884
237.95665
238.56115
238.95555
239.21608
239.38719
239.49713
239.56474
239.6029
239.62051
239.62392
239.61745
239.60417
239.58627
239.56528
239.54227
239.51799
239.49295
239.46754
239.44201
239.41656
239.39131
239.36637
239.34182
239.31771
239.29411
239.27105
239.24858
239.22671
239.20549
239.18496
239.16519
239.14626
239.1283
239.11152
239.09625
239.08302
239.07266
239.06557
239.0619
239.06053
239.06038
245.4823
245.67568
245.5346
245.68253
245.59174
245.66712
245.6063
245.58183
245.48242
245.30683
245.00227
244.63449
244.40568
244.5622
245.22087
245.87392
245.83603
245.31641
245.32298
245.49071
245.16158
244.96262
245.06735
244.97192
244.86173
244.80018
244.70075
244.6699
244.61694
244.53192
244.41205
244.24408
244.11171
243.95565
243.83815
243.72754
243.62477
243.45312
243.28899
243.17412
243.03069
242.87759
242.72867
242.57931
242.35383
242.18958
241.91606
241.74538
241.47307
241.14797
240.95792
240.7436
240.39076
240.08012
239.77715
239.49601
239.17687
238.85187
238.54247
238.20437
237.87532
237.55182
237.20042
236.86684
236.53484
236.21406
235.90854
235.61077
235.33597
235.07278
234.81655
234.54484
234.29069
234.0756
233.86038
233.66747
233.48779
233.31131
233.1573
233.00964
232.86904
232.74087
232.62178
232.51173
232.41005
232.31427
232.2271
232.14552
232.06747
231.99861
231.93565
231.87364
231.81436
231.76442
231.72364
231.68426
231.64696
231.6133
231.58151
231.55217
231.52594
231.50698
231.48818
231.46494
231.49264
232.12558
234.46067
236.61336
237.67598
238.3305
238.7584
239.04184
239.22888