/*--------------------------------*- C++ -*----------------------------------*\
| =========                 |                                                 |
| \\      /  F ield         | OpenFOAM: The Open Source CFD Toolbox           |
|  \\    /   O peration     | Version:  2506                                  |
|   \\  /    A nd           | Website:  www.openfoam.com                      |
|    \\/     M anipulation  |                                                 |
\*---------------------------------------------------------------------------*/
FoamFile
{
    version     2.0;
    format      ascii;
    arch        "LSB;label=32;scalar=64";
    class       volVectorField;
    location    "0.019";
    object      wallShearStress;
}
// * * * * * * * * * * * * * * * * * * * * * * * * * * * * * * * * * * * * * //

dimensions      [1 -1 -2 0 0 0 0];

internalField   uniform (0 0 0);

boundaryField
{
    Side
    {
        type            empty;
    }
    Inlet
    {
        type            calculated;
        value           uniform (0 0 0);
    }
    Airfoil
    {
        type            calculated;
        value           nonuniform List<vector> 
1047
(
(-30.480666 -9.7370765 -3.1120393e-21)
(-22.282226 -7.0632377 1.0301123e-16)
(-23.164356 -7.2924843 1.0340026e-16)
(-21.599519 -6.7584449 -2.0783349e-16)
(-21.40977 -6.6664439 2.4074124e-35)
(-20.702492 -6.4218815 1.0477668e-16)
(-20.485463 -6.3378621 1.6054261e-21)
(-20.168601 -6.2297895 1.0558679e-16)
(-19.993073 -6.1725204 3.2740809e-33)
(-19.915341 -6.1518725 -2.1264431e-16)
(-19.858119 -6.1442255 1.6293481e-21)
(-19.893403 -6.1715698 1.0709116e-16)
(-19.946479 -6.2111324 -1.6381457e-21)
(-20.079039 -6.2822478 -2.1559464e-16)
(-20.221245 -6.3637122 1.081447e-16)
(-20.436177 -6.4757834 -1.6568722e-21)
(-20.65862 -6.5986185 -6.0185311e-36)
(-20.960386 -6.7560387 -1.0915243e-16)
(-21.264238 -6.9241713 1.2037062e-35)
(-21.648094 -7.1296267 1.0980709e-16)
(-22.034221 -7.3481329 3.3648132e-21)
(-22.506189 -7.6094706 1.1047409e-16)
(-22.977306 -7.8861627 -3.3906102e-21)
(-23.511825 -8.2024673 -1.1115242e-16)
(-24.057093 -8.5422033 2.4074124e-35)
(-24.555145 -8.8866011 2.2375408e-16)
(-24.6755 -9.0674984 1.1225664e-16)
(-24.670636 -9.1619458 1.5888922e-33)
(-24.727724 -9.2810722 -1.1298878e-16)
(-24.859133 -9.4304482 6.0185311e-36)
(-24.986975 -9.5808973 2.2600752e-33)
(-25.157836 -9.7509045 0)
(-25.329232 -9.9241381 -1.1439686e-16)
(-25.531129 -10.112822 -1.1473897e-16)
(-25.73206 -10.304713 2.301526e-16)
(-25.954228 -10.508976 -1.1541298e-16)
(-26.180349 -10.718945 3.5364994e-21)
(-26.419727 -10.938591 -2.3215265e-16)
(-26.659998 -11.163222 1.2037062e-35)
(-26.910071 -11.396559 -1.1673065e-16)
(-27.158181 -11.634141 1.1705776e-16)
(-27.410839 -11.878645 3.5775196e-21)
(-27.671817 -12.13229 1.1769676e-16)
(-27.932198 -12.39112 1.1801587e-16)
(-28.189859 -12.65473 -3.6065174e-21)
(-28.445525 -12.923306 1.1864899e-16)
(-28.708104 -13.201486 1.2037062e-35)
(-28.981864 -13.491347 3.6347217e-21)
(-29.252386 -13.786666 -3.6629595e-21)
(-29.545304 -14.099883 1.1987169e-16)
(-29.841106 -14.422456 3.6726548e-21)
(-30.178037 -14.774447 1.2047144e-16)
(-30.525218 -15.140546 -1.2076514e-16)
(-30.895382 -15.527502 -1.2037062e-35)
(-31.285331 -15.93451 -3.6974508e-21)
(-31.6978 -16.36383 -1.2162551e-16)
(-32.129008 -16.814417 1.1723344e-23)
(-32.575563 -17.285459 3.7309891e-21)
(-33.078543 -17.799751 0)
(-33.538302 -18.304705 -1.227024e-16)
(-33.95044 -18.79762 1.2296219e-16)
(-34.280061 -19.25849 -1.232142e-16)
(-34.548895 -19.698824 -1.4737176e-24)
(-34.917219 -20.210168 1.2370237e-16)
(-35.242371 -20.712005 -3.775292e-21)
(-35.639974 -21.272987 1.4256995e-23)
(-36.00379 -21.83154 3.8036274e-21)
(-36.38037 -22.416476 1.2462492e-16)
(-36.735899 -23.007933 0)
(-37.072012 -23.607545 1.5166698e-33)
(-37.394787 -24.219801 1.2526493e-16)
(-37.706948 -24.847358 1.254786e-16)
(-38.06007 -25.525848 0)
(-38.470738 -26.26942 -3.833071e-21)
(-38.970106 -27.102629 1.6714931e-23)
(-39.451376 -27.95475 7.7058283e-21)
(-39.879055 -28.80161 -3.8671479e-21)
(-40.296228 -29.674806 -5.8259381e-33)
(-40.696894 -30.571612 -1.2679372e-16)
(-41.083133 -31.495297 0)
(-41.464184 -32.45505 2.5427097e-16)
(-41.829816 -33.445393 -7.7696168e-21)
(-42.185182 -34.472986 1.8392369e-23)
(-42.525352 -35.536665 3.9038065e-21)
(-42.855669 -36.643915 -3.8900651e-21)
(-43.174857 -37.797345 3.9132792e-21)
(-43.499972 -39.01625 1.2807742e-16)
(-43.827052 -40.302505 -1.2822848e-16)
(-44.151173 -41.657314 1.2837972e-16)
(-44.428272 -43.044397 0)
(-44.671743 -44.480774 -2.5737655e-16)
(-44.870489 -45.960447 -1.6327811e-23)
(-45.059496 -47.524127 1.2901417e-16)
(-45.152004 -49.079772 3.9357287e-21)
(-45.242142 -50.736643 -7.8975417e-21)
(-45.276845 -52.445014 -1.2957759e-16)
(-45.229566 -54.179656 1.6129663e-33)
(-45.157793 -56.015398 2.7574746e-33)
(-44.968327 -57.844795 -3.1582242e-33)
(-44.703339 -59.72495 -3.9766454e-21)
(-44.327568 -61.614129 2.6175496e-16)
(-43.827877 -63.495675 4.0039217e-21)
(-43.231969 -65.411632 -4.0171987e-21)
(-42.520424 -67.337755 4.0237831e-21)
(-41.659781 -69.221843 -1.2037062e-35)
(-40.733782 -71.205034 -6.6405137e-17)
(-39.555154 -72.959967 -4.0608959e-21)
(-38.405308 -74.996214 -1.3383598e-16)
(-36.93984 -76.655345 -8.2052932e-21)
(-35.503449 -78.650288 6.7513267e-17)
(-33.749093 -80.261843 -4.1591654e-21)
(-31.753457 -81.459512 6.8223798e-17)
(-29.695363 -82.597506 1.3723943e-16)
(-27.429794 -83.344724 6.8982715e-17)
(-25.100438 -83.918882 6.9354703e-17)
(-22.665941 -84.193903 2.5875106e-23)
(-20.170951 -84.258194 3.5129864e-17)
(-17.632347 -84.099237 -7.0729926e-17)
(-15.071572 -83.759692 -3.2526463e-21)
(-12.484612 -83.104912 9.8965291e-22)
(-9.9100798 -82.279911 0)
(-7.3704131 -81.350427 -3.6318311e-17)
(-4.8407295 -79.853113 -1.8610321e-23)
(-2.3938476 -78.508516 3.6797712e-17)
(-0.01445722 -76.821822 -9.8178064e-38)
(2.245273 -74.569706 -1.194265e-23)
(4.3482627 -72.219203 -3.7615819e-37)
(6.2656691 -69.51098 1.8875477e-17)
(7.9827451 -66.552512 -1.1508258e-21)
(9.5222236 -63.626446 -3.8185213e-17)
(10.85036 -60.507515 -1.194125e-21)
(12.038401 -57.609122 -3.8577373e-17)
(13.043269 -54.657555 -3.8764234e-17)
(13.955359 -52.002058 -2.7524946e-23)
(14.723295 -49.376909 4.7711689e-21)
(15.426229 -47.012403 -7.846744e-17)
(16.014244 -44.701692 -7.8734692e-17)
(16.545085 -42.579878 -1.57954e-16)
(16.977108 -40.506813 -4.8110934e-21)
(17.310202 -38.477209 -7.940239e-17)
(17.484236 -36.410858 -4.9007712e-21)
(17.552713 -34.40077 4.8215208e-21)
(17.530501 -32.454487 -7.9858818e-17)
(17.431318 -30.584592 4.8613857e-21)
(17.257619 -28.782791 1.66095e-33)
(17.021684 -27.057681 4.9011553e-21)
(16.728979 -25.406275 -4.8724709e-21)
(16.389326 -23.832282 2.4074124e-35)
(16.00877 -22.33391 -1.6009062e-16)
(15.595179 -20.911795 -1.6000314e-16)
(15.154833 -19.56482 9.8262907e-21)
(14.692724 -18.290273 1.596981e-16)
(14.21525 -17.08782 0)
(13.724414 -15.951859 6.358948e-37)
(13.227054 -14.883334 -6.668118e-38)
(12.725612 -13.878066 1.0111132e-33)
(12.223981 -12.934047 1.5842372e-16)
(11.727202 -12.049832 0)
(11.228295 -11.214636 -1.7694946e-23)
(10.737346 -10.433883 2.4074124e-35)
(10.251012 -9.6999953 1.5699969e-16)
(9.772964 -9.0120552 4.7838948e-21)
(9.3100561 -8.3729515 -4.7619603e-21)
(8.8525084 -7.7699513 1.1174578e-32)
(8.4131048 -7.2115304 0)
(7.9828668 -6.686808 -1.5490393e-16)
(7.5584806 -6.1906935 -1.5443919e-16)
(7.1496104 -5.7288846 6.0871741e-24)
(6.7427368 -5.2885959 -1.5353696e-16)
(6.353195 -4.8799136 -1.5305408e-16)
(5.98227 -4.5021575 4.6587962e-21)
(5.6252786 -4.1496246 -4.6396986e-21)
(5.2908415 -3.8273832 2.6853698e-33)
(4.9594245 -3.5195922 -3.0750829e-37)
(4.621881 -3.219089 1.2035764e-23)
(4.3086609 -2.9460352 -4.5838464e-21)
(4.0133974 -2.6951025 -1.4965465e-16)
(3.7267273 -2.4586261 -2.9832258e-16)
(3.4470104 -2.2350623 -2.4074124e-35)
(3.1800002 -2.0270749 -1.4815878e-16)
(2.9154194 -1.8277607 1.4765462e-16)
(2.6680328 -1.6453625 9.4775254e-24)
(2.4233352 -1.4707256 4.4758069e-21)
(2.1960296 -1.3117325 -4.4589385e-21)
(1.9671217 -1.1570435 -4.4358534e-21)
(1.7486554 -1.0128139 -1.0455776e-24)
(1.5339656 -0.87536397 1.4459849e-16)
(1.3345766 -0.75026074 -1.4407677e-16)
(1.1365589 -0.62982656 -2.8711248e-16)
(0.98289878 -0.53682165 4.3653442e-21)
(0.76275935 -0.41099329 -4.3486316e-21)
(0.65637426 -0.34840826 -1.4198313e-16)
(0.49872646 -0.26146515 1.4146632e-16)
(0.39548963 -0.20432936 1.4095462e-16)
(0.24624877 -0.12641365 -4.294175e-21)
(-0.088029938 0.043554008 1.3992901e-16)
(-0.14089939 0.069258297 -1.3939964e-16)
(-0.33870316 0.16517439 -1.3887418e-16)
(-0.42609366 0.20522448 -1.3834789e-16)
(-0.57904685 0.27561908 -2.7564474e-16)
(-0.68858914 0.32370142 4.1897745e-21)
(-0.82906688 0.38510694 -3.2419735e-25)
(-0.94419855 0.43327722 -1.3624923e-16)
(-1.0729364 0.48652286 4.1416107e-21)
(-1.1905615 0.53345911 -4.1259184e-21)
(-1.3112504 0.58067139 1.3466923e-16)
(-1.4276503 0.6248619 -8.1871193e-21)
(-1.5408167 0.66663528 4.077777e-21)
(-1.6534981 0.70719931 1.329778e-37)
(-1.7626622 0.74535091 -4.0450457e-21)
(-1.8711008 0.78229597 -1.3202705e-16)
(-1.9761037 0.81697919 2.630095e-16)
(-2.0810452 0.85081937 3.9967932e-21)
(-2.1831326 0.88274269 -6.9540137e-25)
(-2.2841978 0.91350192 -3.9635881e-21)
(-2.3835347 0.94288285 1.2940063e-16)
(-2.4818827 0.97118508 1.2887548e-16)
(-2.578926 0.99833657 -7.366682e-33)
(-2.6757645 1.0247689 -1.2782666e-16)
(-2.7724574 1.0505379 2.4074124e-35)
(-2.8688825 1.0755961 2.5355953e-16)
(-2.9675169 1.100875 1.262573e-16)
(-3.0743795 1.1286034 -1.2573504e-16)
(-3.1707014 1.1462873 1.0924508e-24)
(-3.243544 1.150526 -6.0185311e-36)
(-3.3068995 1.1525108 -1.2415099e-16)
(-3.369721 1.1554656 -1.2364296e-16)
(-3.4316772 1.1592572 -2.4626208e-16)
(-3.4935118 1.164106 7.4843596e-21)
(-3.5554384 1.170062 -7.4537341e-21)
(-3.6162803 1.1767256 3.7120276e-21)
(-3.6767103 1.1843106 0)
(-3.7365112 1.192754 -1.8415735e-21)
(-3.7964328 1.2022958 3.8143078e-25)
(-3.8569092 1.2130975 1.8258757e-21)
(-3.9173105 1.2249614 2.3831453e-16)
(-3.979324 1.2384646 1.8105185e-21)
(-4.0410303 1.2530127 -2.3635553e-16)
(-4.1076256 1.2702896 1.795559e-21)
(-4.173621 1.2885964 1.1719292e-16)
(-4.2605167 1.3147078 1.7810551e-21)
(-4.3352418 1.33844 -1.7732088e-21)
(-4.4327653 1.3707351 1.7661376e-21)
(-4.5314028 1.4049723 1.1523881e-16)
(-4.6530182 1.4481825 -1.7506241e-21)
(-4.8082557 1.503757 -1.1424826e-16)
(-5.022111 1.5806944 -6.0185311e-36)
(-5.0425164 1.5974006 -2.2651116e-16)
(-6.3382005 2.026198 -1.2497798e-24)
(-3.3162462 0.89989962 9.784253e-17)
(-5.1829784 0.74240264 6.0978678e-22)
(-4.3607374 0.62750375 7.2529386e-17)
(-5.9269469 0.84261803 -6.7583863e-17)
(-7.8623386 1.1174058 -2.6803167e-22)
(-6.9174835 0.99529807 -2.2978422e-25)
(-1.6785119 0.2634221 -1.158838e-16)
(3.7951248 -0.51399345 -1.1118307e-16)
(6.3638964 -0.88458208 2.1420797e-16)
(7.7355778 -1.0836311 -1.0341993e-16)
(7.984503 -1.1228506 1.0014495e-16)
(7.433859 -1.0484211 -2.269765e-22)
(6.216052 -0.88199816 1.9028314e-23)
(4.4080771 -0.63683751 -9.2214044e-17)
(2.345344 -0.34669127 -1.7184583e-22)
(0.56832767 -0.097431695 -2.8698593e-42)
(-0.82899802 0.10021121 1.6531954e-22)
(-1.9547178 0.25964226 8.4968187e-17)
(-2.6444476 0.35905741 8.3502423e-17)
(-2.9157715 0.4002978 4.3935277e-33)
(-2.7589542 0.38160413 -3.2306856e-16)
(-2.2596501 0.31454853 1.5887169e-16)
(-1.5069933 0.21322955 -1.5331324e-22)
(-0.45397358 0.069224227 -3.072969e-16)
(0.73484795 -0.093761039 -1.4426615e-22)
(1.7532817 -0.23323837 1.487656e-16)
(2.372577 -0.3196941 -4.7019774e-38)
(2.416744 -0.3283789 1.4454169e-16)
(1.8808006 -0.25805544 3.0092655e-36)
(1.141605 -0.15936526 3.0092655e-36)
(0.57587133 -0.082350718 1.3953927e-16)
(0.11201272 -0.020069469 1.3799461e-16)
(-0.53602757 0.066599167 3.3162106e-33)
(-1.4895659 0.19328974 -1.3524931e-16)
(-2.4430171 0.32215859 -1.3410159e-16)
(-2.9341616 0.38942128 1.3296092e-16)
(-2.9510739 0.3936677 2.5118485e-22)
(-2.7515593 0.36832236 2.6122246e-16)
(-2.4417819 0.32721517 1.2937283e-16)
(-2.1598977 0.28911622 -2.4451839e-22)
(-2.1187258 0.28239889 1.2704222e-16)
(-2.2594009 0.29966515 1.2595176e-16)
(-2.4027975 0.31780701 -2.3865975e-22)
(-2.3723565 0.31427777 2.476426e-16)
(-2.1477791 0.28539491 -2.340456e-22)
(-1.67853 0.22492984 2.3219323e-22)
(-0.89452786 0.1244905 0)
(0.22677942 -0.019038691 1.5046328e-36)
(1.5507929 -0.18812142 1.1835499e-16)
(2.8973277 -0.36046569 -2.2299186e-22)
(4.0679226 -0.51075506 2.2194217e-22)
(4.7071509 -0.59368958 -2.3002616e-16)
(4.5596445 -0.57902936 1.1405589e-16)
(3.4949532 -0.44934789 1.1330658e-16)
(1.6519444 -0.22076742 2.1474932e-22)
(-0.4255151 0.038478523 0)
(-2.5714932 0.31036579 3.1763898e-22)
(-4.4010861 0.54319401 2.2335778e-16)
(-4.3523024 0.54301732 -2.2245877e-16)
(-3.5052014 0.44106486 4.2188247e-22)
(-3.0049888 0.37653312 2.2011459e-16)
(-2.5151853 0.31600524 2.0905391e-22)
(-2.1050516 0.26506179 2.0782095e-22)
(-1.5558903 0.19774015 -2.070317e-22)
(-0.9437022 0.1225567 2.1572811e-16)
(-0.34542827 0.049125322 9.0277966e-36)
(0.19015543 -0.017035393 -2.1327425e-16)
(0.32043398 -0.036304336 -2.1202497e-16)
(-0.36032268 0.039501795 -2.1107228e-16)
(-2.0024173 0.23551983 2.0117516e-22)
(-3.3390991 0.39440768 -4.1995206e-16)
(-3.8784282 0.46316596 2.0944389e-16)
(-4.0039263 0.48145122 -1.9910905e-22)
(-3.3490367 0.40497009 1.9822387e-22)
(-1.9179228 0.24138095 4.1468285e-16)
(0.14789186 -0.0020669929 -2.059025e-16)
(2.4022672 -0.26566572 -1.9425889e-22)
(4.4124981 -0.50174394 1.9414157e-22)
(5.4444287 -0.62550543 2.0122019e-16)
(4.8026836 -0.55945182 -2.0014558e-16)
(2.0982028 -0.2560869 0)
(-0.8240303 0.077023731 1.9997474e-16)
(-3.3537329 0.37258718 -3.9972522e-16)
(-5.126541 0.57673754 -1.4792045e-32)
(-5.4325734 0.61998821 7.5231638e-37)
(-5.0921933 0.58014097 -1.993776e-16)
(-4.5413897 0.51908161 3.9771423e-16)
(-4.1878767 0.47700102 -1.8904262e-22)
(-3.9889277 0.45288618 1.8866257e-22)
(-3.6659567 0.41621916 1.8821155e-22)
(-2.9173791 0.33372664 -1.9701309e-16)
(-1.6241995 0.19133498 -3.9262934e-16)
(0.17830734 -0.006304032 9.2016431e-25)
(2.201628 -0.22849239 1.8581357e-22)
(4.0085011 -0.42938527 -1.9297465e-16)
(4.8184324 -0.52009895 1.9184568e-16)
(3.6090923 -0.40234586 3.816122e-16)
(0.78771668 -0.097492595 1.8203029e-22)
(-2.0879375 0.20907292 1.8328164e-22)
(-4.100588 0.4301344 -1.823183e-22)
(-5.1973377 0.55365871 -1.8951833e-38)
(-5.1073827 0.5455041 -8.6275643e-33)
(-4.6281248 0.4954077 -3.8322071e-16)
(-4.3265205 0.46212564 1.8253514e-22)
(-4.2529838 0.45319052 -1.8244347e-22)
(-4.1710879 0.44486694 -1.8228211e-22)
(-3.6578663 0.39113777 -1.9093136e-16)
(-2.5810872 0.2798763 2.0360857e-22)
(-0.93044624 0.10932077 1.8975321e-16)
(1.0065633 -0.089155195 -1.8880642e-16)
(2.9605453 -0.29062435 1.7956682e-22)
(4.0006024 -0.40027985 4.0009791e-33)
(3.2519793 -0.33578576 -1.7743005e-22)
(0.42877689 -0.053475314 3.5485334e-22)
(-2.5433282 0.24123197 -1.7702873e-22)
(-4.512126 0.44387731 -3.7343725e-16)
(-5.5566107 0.5504105 1.8704257e-16)
(-5.4344683 0.54396451 -1.8707424e-16)
(-5.2293319 0.52243016 1.8699143e-16)
(-5.1081263 0.50727192 1.8693409e-16)
(-5.2229899 0.51646151 -1.8698313e-16)
(-5.4299882 0.53467235 1.7836691e-22)
(-5.2738694 0.51790589 0)
(-4.6555308 0.4582834 -1.7810701e-22)
(-3.4248587 0.34096392 4.8040084e-25)
(-1.3933173 0.14883391 1.8572517e-16)
(1.1477052 -0.091332204 1.8460622e-16)
(3.8510089 -0.34719378 -4.1406789e-34)
(5.7078312 -0.52510853 1.8218022e-16)
(6.0135021 -0.56357199 -3.463616e-22)
(3.1621805 -0.30477855 1.8132289e-16)
(-0.52703306 0.026577743 1.8214114e-16)
(-3.1911726 0.28104028 1.7515968e-22)
(-5.2917633 0.47401784 -1.7429629e-22)
(-5.4978179 0.49956405 -1.8400854e-16)
(-4.8679386 0.4450497 4.5138983e-36)
(-4.483575 0.40922996 1.8383687e-16)
(-4.4591535 0.40413322 1.7535022e-22)
(-4.5655136 0.41049192 -1.753954e-22)
(-4.6028812 0.41188321 1.7573633e-22)
(-4.6354444 0.41296047 3.5714316e-26)
(-4.689222 0.41578638 3.6389779e-26)
(-4.7503605 0.41862936 1.8509553e-16)
(-4.8177707 0.42164211 -7.5231638e-37)
(-4.8979256 0.42554326 -6.0154593e-24)
(-4.8789751 0.42116273 8.6140226e-34)
(-4.7127592 0.40550505 -1.854245e-16)
(-4.1936491 0.36172543 1.7679509e-22)
(-3.1868965 0.27746747 1.8516434e-16)
(-1.5286714 0.14117178 -1.8493296e-16)
(0.97705615 -0.061983867 -1.8435759e-16)
(4.095459 -0.31514858 7.5231638e-37)
(7.4266488 -0.58371567 7.5231638e-37)
(9.606284 -0.76343445 1.8101948e-16)
(10.228997 -0.82039156 -1.8036155e-16)
(6.7646214 -0.55334928 -6.7151249e-25)
(1.6428318 -0.15938491 -1.8176892e-16)
(-1.8154558 0.11599583 0)
(-5.1161237 0.37538924 -9.2254422e-17)
(-6.466558 0.4837813 9.2789239e-17)
(-6.9337559 0.53745539 9.3077381e-17)
(-6.99479 0.53271863 -9.3343532e-17)
(-6.1734685 0.47207568 9.3443425e-17)
(-5.859833 0.44733196 -1.770214e-22)
(-5.8234721 0.44317535 2.5840213e-38)
(-5.9063883 0.44422822 1.785166e-22)
(-5.9960345 0.44542676 -1.7876143e-22)
(-6.0175337 0.44153043 -1.1587836e-25)
(-5.7679255 0.42143146 3.5872621e-22)
(-4.9241494 0.36081896 -1.8831646e-16)
(-3.2830919 0.25870626 7.5231638e-37)
(-0.61003849 0.067646091 -2.8136633e-34)
(2.9147999 -0.18196795 9.3257457e-17)
(6.8531646 -0.44123812 9.2788145e-17)
(10.056086 -0.65968407 -9.2064296e-17)
(11.513528 -0.76114128 1.8308924e-16)
(9.7643574 -0.6594264 9.1181277e-17)
(4.7875259 -0.34734354 -1.7414512e-22)
(-0.17472366 -0.023627289 -9.230027e-17)
(-4.3580045 0.24723462 9.3066349e-17)
(-7.2766983 0.44299017 9.404732e-17)
(-7.7203579 0.48914529 1.892336e-16)
(-6.8946779 0.43886607 1.1284746e-36)
(-5.8334389 0.36735224 -4.2219698e-34)
(-4.9432956 0.30814922 3.6334388e-22)
(-4.2330672 0.26186268 -9.541999e-17)
(-3.7015319 0.22850123 -1.9106325e-16)
(-3.3942202 0.20835018 1.9122098e-16)
(-3.6536607 0.21913591 1.2638915e-34)
(-4.2778675 0.2494385 9.6008727e-17)
(-4.8112835 0.27500716 2.3387636e-33)
(-5.1924393 0.29284885 -1.3808328e-38)
(-5.6791996 0.31565304 -3.7038315e-22)
(-5.9978459 0.33166752 9.7328957e-17)
(-6.0594499 0.33383998 3.7192953e-22)
(-6.2962749 0.34110171 3.6716113e-22)
(-6.7846369 0.36092812 -3.7237761e-22)
(-7.2547242 0.37956667 -9.768607e-17)
(-7.5299846 0.38824558 -9.7787782e-17)
(-7.5972332 0.38645395 -9.7881399e-17)
(-7.5734912 0.38052707 -9.7975394e-17)
(-7.495994 0.37147669 2.6610308e-25)
(-7.3901175 0.35994188 3.7437842e-22)
(-7.2799264 0.3472943 -1.6531107e-38)
(-7.2047611 0.33605845 1.7832007e-25)
(-7.1007218 0.32360262 -9.8502743e-17)
(-6.9131755 0.30947411 1.0264336e-25)
(-6.5487771 0.28679251 -4.9499004e-17)
(-6.0237697 0.25876693 -4.9624913e-17)
(-5.5129793 0.23124804 2.9374738e-25)
(-5.0519896 0.20692303 -4.9922859e-17)
(-4.4029322 0.17765475 7.6415307e-22)
(-3.2541214 0.13127849 -3.1908202e-25)
(-1.1361314 0.055191256 -3.846693e-22)
(1.8169812 -0.052582937 -1.315687e-38)
(5.2756706 -0.17162076 3.8213878e-22)
(8.1938229 -0.26952715 2.7698276e-23)
(9.6939402 -0.32178949 -5.0200126e-17)
(9.4559951 -0.31044275 3.849043e-22)
(8.8568463 -0.28648173 5.0391075e-17)
(8.7065617 -0.2735328 -1.1284746e-36)
(9.1237614 -0.27513606 -5.0607755e-17)
(9.6007256 -0.28171796 -5.0649137e-17)
(9.4588591 -0.27253805 -4.7019774e-37)
(5.6371917 -0.17669468 -3.9031128e-22)
(-1.4731488 0.010931716 -1.0250684e-16)
(-5.0015927 0.11462232 5.1590501e-17)
(-2.5339102 0.065695903 -2.5865742e-17)
(-0.44345012 0.013693645 -7.9125893e-22)
(0.52795027 -0.010552934 -2.6022679e-17)
(0.51227777 -0.011765652 -5.2300116e-17)
(-0.39194845 0.0080638111 -4.7019774e-38)
(-0.34719377 0.0050635266 -1.1560235e-24)
(-0.20021166 0.0015211174 1.6456921e-37)
(-0.77432684 0.0084623114 -2.649924e-17)
(-1.740701 0.025213617 4.0485075e-22)
(-1.680645 0.025971302 -2.6666382e-17)
(-0.47379438 0.012270957 2.6739141e-17)
(0.75466615 -0.0042358262 -1.3448751e-17)
(-0.49105278 -0.0045405542 2.7049283e-17)
(-3.0480482 0.020295543 4.2041577e-22)
(-3.6300984 0.033210169 1.387414e-17)
(-2.2102198 0.031785659 -5.2827892e-34)
(0.70375803 0.0089873831 -1.3987806e-17)
(3.064499 -0.0026991165 4.7019774e-38)
(2.720153 -0.020740563 -4.2756683e-22)
(-1.5263071 -0.00084675046 4.2986644e-22)
(-4.5586885 -0.0087034822 1.2431799e-24)
(-4.5527246 0.0061550501 4.3735235e-22)
(-3.6250164 0.01312162 -8.9941854e-19)
(-2.0821889 0.0068136403 -1.7927193e-24)
(-1.0622152 0.0063488157 -4.4147477e-22)
(-0.66897361 0.0044935093 8.7039579e-25)
(-1.3926509 -0.0048874946 7.254639e-18)
(-2.4602349 -0.013975132 4.4508098e-22)
(-3.0448466 -0.020768339 4.4702659e-22)
(-3.2282818 -0.025397104 -4.4930266e-22)
(-3.168878 -0.026976719 1.4789961e-17)
(-3.1836418 -0.030920622 -9.4039548e-38)
(-3.3507864 -0.03784041 -1.4914781e-17)
(-3.4646256 -0.043475385 -4.5731141e-22)
(-3.4316904 -0.046585081 -4.5886917e-22)
(-3.4308309 -0.051056267 9.2215913e-22)
(-3.7071674 -0.061721571 -1.5173926e-17)
(-4.1685165 -0.076588967 -4.6511723e-22)
(-4.4887815 -0.087817165 3.0658489e-17)
(-4.6293552 -0.095829691 9.4039548e-38)
(-4.7544703 -0.10327176 -3.0965523e-17)
(-4.8511556 -0.11240345 -4.7487276e-22)
(-4.8372038 -0.11884666 -3.1266363e-17)
(-4.7381307 -0.12270437 -3.1402953e-17)
(-4.6615778 -0.12747592 -4.8104858e-22)
(-4.7632532 -0.1378164 4.8375787e-22)
(-5.0897924 -0.15583784 -3.185218e-17)
(-5.532602 -0.17795073 -4.7019774e-38)
(-5.9505343 -0.19957463 -4.9191116e-22)
(-6.1880566 -0.21530516 4.9453979e-22)
(-6.1678845 -0.22293207 3.2596166e-17)
(-6.0206503 -0.22594383 -4.7407381e-25)
(-5.9305679 -0.23105105 -4.7272724e-25)
(-6.0595173 -0.24687064 -5.0497757e-22)
(-6.384467 -0.26909578 6.6569971e-17)
(-6.6724145 -0.29021071 -6.6977204e-17)
(-6.7922519 -0.30631694 5.1238793e-22)
(-6.7734545 -0.31605565 -5.1689594e-22)
(-6.8144623 -0.32766101 1.880791e-37)
(-7.0301574 -0.34907145 -6.8524719e-17)
(-7.2353314 -0.37101604 -2.3509887e-38)
(-7.2994289 -0.38528548 -6.9369653e-17)
(-7.3308785 -0.39878659 -2.3509887e-38)
(-7.4438185 -0.41626267 -7.0196874e-17)
(-7.6341523 -0.43815792 -5.3886406e-22)
(-7.7653661 -0.45849989 7.1086691e-17)
(-7.8196533 -0.4738528 -5.4546528e-22)
(-7.9226727 -0.49247892 7.1961527e-17)
(-8.0972566 -0.51615711 1.4484763e-16)
(-8.2503377 -0.53910299 3.7615819e-37)
(-8.3690835 -0.56053862 7.3345036e-17)
(-8.5087956 -0.58382803 5.6284648e-22)
(-8.6890379 -0.6105715 -5.6703011e-22)
(-8.8726553 -0.63829291 -3.7615819e-37)
(-9.0193628 -0.66428223 7.5257429e-17)
(-9.1862526 -0.69220538 1.5149761e-16)
(-9.4023311 -0.72480706 7.6262447e-17)
(-9.5609999 -0.75370603 7.6779773e-17)
(-9.7097168 -0.78221294 5.4907132e-24)
(-9.9176481 -0.81622309 5.5937593e-39)
(-10.085489 -0.84779823 -3.2807946e-33)
(-10.23232 -0.87826377 6.0183169e-22)
(-10.417694 -0.91253454 -1.2128612e-21)
(-10.581704 -0.94566507 -8.0060157e-17)
(-10.731824 -0.97831807 1.1284746e-36)
(-10.907287 -1.0139087 6.5451525e-34)
(-11.066146 -1.0487271 -1.6368435e-16)
(-11.219665 -1.0836994 -8.2457972e-17)
(-11.383297 -1.1203378 6.3418887e-22)
(-11.534802 -1.1565812 8.3730473e-17)
(-11.688792 -1.1937117 -6.4407839e-22)
(-11.839391 -1.2312089 6.4863204e-22)
(-11.983026 -1.2688255 -5.3140517e-25)
(-12.136112 -1.3081864 8.642584e-17)
(-12.273235 -1.3465401 -6.6449868e-22)
(-12.409562 -1.3853133 1.3404896e-21)
(-12.554217 -1.425616 8.8584508e-17)
(-12.681281 -1.464625 8.9330352e-17)
(-12.810666 -1.5044205 -6.8758719e-22)
(-12.943936 -1.5452771 9.0867155e-17)
(-13.058959 -1.5846019 -6.9901509e-22)
(-13.178549 -1.6249855 -9.2459169e-17)
(-13.300775 -1.6662851 7.1192954e-22)
(-13.40976 -1.7065268 7.1778692e-22)
(-13.526867 -1.7483627 -9.4968774e-17)
(-13.64646 -1.7911021 -9.5839563e-17)
(-13.75446 -1.8329751 -4.7818636e-24)
(-13.872932 -1.8768309 -9.7623917e-17)
(-13.989166 -1.9210238 9.8545981e-17)
(-14.098441 -1.9653084 -9.9481504e-17)
(-14.218136 -2.0117975 -1.004391e-16)
(-14.323551 -2.0568252 7.7339177e-22)
(-14.427935 -2.1022051 -7.8158818e-22)
(-14.525109 -2.1470086 0)
(-14.613184 -2.1909098 -1.0444495e-16)
(-14.698655 -2.2348139 0)
(-14.777992 -2.2782789 8.1263521e-22)
(-14.851146 -2.3211812 -8.2168522e-22)
(-14.919738 -2.363785 8.2936883e-22)
(-14.982946 -2.4059143 -8.294992e-25)
(-15.047972 -2.4486852 -8.4759456e-22)
(-15.115774 -2.4923599 1.1221177e-16)
(-15.193663 -2.5380997 8.6473756e-22)
(-15.278435 -2.5855505 -1.1462312e-16)
(-15.373754 -2.6352926 1.7678832e-21)
(-15.476564 -2.6869351 -1.7871665e-21)
(-15.585372 -2.7402416 1.1841479e-16)
(-15.704228 -2.7966719 -1.1972787e-16)
(-15.824192 -2.8543277 2.4213577e-16)
(-15.947034 -2.9130893 -9.3354792e-22)
(-16.072072 -2.9728977 2.4766541e-16)
(-16.19647 -3.0331737 1.2525729e-16)
(-16.321087 -3.0941236 0)
(-16.442614 -3.1550987 1.2819759e-16)
(-16.560186 -3.2159332 -1.2971336e-16)
(-16.672447 -3.276347 1.3126337e-16)
(-16.779096 -3.3361998 0)
(-16.886494 -3.3967812 -3.0092655e-36)
(-16.990151 -3.457155 -1.361156e-16)
(-17.095711 -3.5184533 -1.3780273e-16)
(-17.196554 -3.5793305 -1.0651423e-21)
(-17.300666 -3.6414515 4.5917748e-41)
(-17.40346 -3.7038728 0)
(-17.511005 -3.7678832 2.1003549e-34)
(-17.627217 -3.8343754 -1.119265e-21)
(-17.750765 -3.903096 1.4624376e-24)
(-17.893427 -3.9767372 1.1502921e-21)
(-18.171209 -4.0955884 1.1640906e-21)
(-18.506782 -4.2559595 7.7358767e-17)
(-18.753304 -4.3943374 -7.8422152e-17)
(-18.925222 -4.5118898 -7.951406e-17)
(-19.021517 -4.6068939 8.0645344e-17)
(-19.096836 -4.6916485 8.1805088e-17)
(-19.111743 -4.7557847 -2.2675196e-27)
(-19.097979 -4.806564 4.7159275e-38)
(-19.033397 -4.8379723 -1.2798514e-40)
(-18.952899 -4.8586328 -6.1148276e-33)
(-18.860739 -4.8695344 -8.8044452e-17)
(-18.762764 -4.872435 -1.3642399e-21)
(-18.66184 -4.8679121 1.8148811e-16)
(-18.560021 -4.8570781 0)
(-18.453727 -4.8388791 1.4266617e-21)
(-18.353089 -4.8166221 -1.4499155e-21)
(-18.239591 -4.7854415 5.258045e-34)
(-18.159529 -4.7581055 1.4930017e-21)
(-18.076523 -4.7250845 -1.5176925e-21)
(-18.012989 -4.6928117 -1.008945e-16)
(-17.918635 -4.648215 -5.1518626e-33)
(-17.903568 -4.6201349 -2.7928546e-24)
(-17.447799 -4.4708732 1.60567e-21)
(-14.996197 -3.8187369 -1.634229e-21)
(-24.500251 -6.2348939 -1.0826711e-16)
(-5.4727505 1.3900738 5.972747e-17)
(-4.2168315 1.0757305 1.1766515e-16)
(-4.6165596 1.1845135 2.3177583e-16)
(-4.7521102 1.226813 1.141274e-16)
(-4.884518 1.2674613 0)
(-4.9877338 1.2997272 -1.6887997e-21)
(-5.0793153 1.3279477 1.663483e-21)
(-5.1674241 1.354119 -1.5580676e-24)
(-5.2531063 1.3783737 1.0572511e-16)
(-5.3387723 1.4011914 -1.5899973e-21)
(-5.426273 1.4229314 1.02547e-16)
(-5.5078033 1.4413981 1.540958e-21)
(-5.5873119 1.4574885 9.9487711e-17)
(-5.6661231 1.4714354 -1.9600769e-16)
(-5.7435885 1.4829588 9.654656e-17)
(-5.8197348 1.4919741 2.9028581e-21)
(-5.8941141 1.4982798 -1.4303607e-21)
(-5.9655553 1.5015318 1.8472163e-16)
(-6.0337352 1.5016113 -2.5939869e-33)
(-6.0980842 1.4983858 1.3688935e-21)
(-6.1561949 1.4912941 8.8454796e-17)
(-6.2067666 1.4801066 1.3306522e-21)
(-6.2484372 1.4646273 8.6012429e-17)
(-6.2729587 1.4431385 -1.2944484e-21)
(-6.2768252 1.4154541 -8.3704182e-17)
(-6.298269 1.4005713 6.0185311e-36)
(-6.3490709 1.3968961 8.149913e-17)
(-6.4048338 1.3941036 -8.043106e-17)
(-6.4569133 1.3902811 9.762953e-25)
(-6.5085227 1.3861473 -1.195533e-21)
(-6.5584146 1.3814327 -1.5472144e-16)
(-6.6083739 1.376534 1.1656494e-21)
(-6.6581133 1.3713824 -1.5084392e-16)
(-6.7068972 1.3658348 -3.0092655e-36)
(-6.7563854 1.3602276 3.0092655e-36)
(-6.8044686 1.3541424 -1.4532651e-16)
(-6.853098 1.3479634 1.4356385e-16)
(-6.8996464 1.3411837 1.4183689e-16)
(-6.9466089 1.3342987 1.4014458e-16)
(-6.9914792 1.3268173 2.1131757e-21)
(-7.0368316 1.3192478 1.3686322e-16)
(-7.0800813 1.3110965 1.3527648e-16)
(-7.1237509 1.3028463 2.6743408e-16)
(-7.1653289 1.2940296 1.3219163e-16)
(-7.2070332 1.2850685 9.969643e-22)
(-7.2476418 1.2759159 -2.5845757e-16)
(-7.2904956 1.2673699 1.9499276e-21)
(-7.3325321 1.2585706 -9.6436486e-22)
(-7.3752259 1.2497647 9.3792353e-33)
(-7.4162287 1.2405484 0)
(-7.4582778 1.2313918 -1.2232212e-16)
(-7.4987157 1.2218496 1.2102286e-16)
(-7.5398277 1.2122854 1.5046328e-36)
(-7.5791657 1.202332 1.2673354e-32)
(-7.6188779 1.1923129 4.0131675e-38)
(-7.656923 1.181923 1.5046328e-36)
(-7.694909 1.1714046 -1.1489825e-16)
(-7.7315904 1.1605771 8.6765481e-22)
(-7.7678126 1.1495684 1.1260901e-16)
(-7.8032158 1.1383288 4.7019774e-38)
(-7.8369018 1.12673 1.1040726e-16)
(-7.8704825 1.1150082 1.4105932e-37)
(-7.9015849 1.1028396 1.0828737e-16)
(-7.9328026 1.0907092 1.0725509e-16)
(-7.9632197 1.0786883 -1.0624435e-16)
(-7.9945391 1.0667528 -1.0525179e-16)
(-8.0247211 1.0546437 -7.9545541e-22)
(-8.0549769 1.0425043 -1.0332209e-16)
(-8.0841951 1.0301973 -1.0238443e-16)
(-8.1130024 1.0178023 1.0146393e-16)
(-8.1408639 1.0052537 1.5046328e-36)
(-8.168664 0.99266363 -9.9674587e-17)
(-8.1954549 0.97991301 1.9760807e-16)
(-8.2222789 0.96713007 7.4717885e-22)
(-8.24804 0.95418535 -7.4100135e-22)
(-8.2729186 0.94109941 7.3296387e-22)
(-8.2970145 0.92788947 -2.2291174e-25)
(-8.3196001 0.91447086 -9.4680321e-17)
(-8.3419473 0.90098984 9.3897232e-17)
(-8.36301 0.8873378 9.3130568e-17)
(-8.3836044 0.87373654 -1.4486626e-24)
(-8.404419 0.86024172 -9.1633202e-17)
(-8.4240363 0.84666122 1.8181086e-16)
(-8.4430972 0.83305859 -6.8799585e-22)
(-8.4618813 0.81946819 -1.7897603e-16)
(-8.4794424 0.80578503 8.8798352e-17)
(-8.4965213 0.7920986 7.5231638e-37)
(-8.5125774 0.77833533 1.7490533e-16)
(-8.5276173 0.76452486 -8.6797614e-17)
(-8.5426326 0.75072112 4.9163876e-33)
(-8.5560245 0.73682792 -6.5238137e-22)
(-8.5687628 0.72288051 8.4899778e-17)
(-8.5810914 0.70895578 -8.4287429e-17)
(-8.5917856 0.69489301 -1.6737349e-16)
(-8.6027409 0.68090838 1.5046328e-36)
(-8.6122001 0.66678742 3.7615819e-37)
(-8.620619 0.65262673 -8.1942418e-17)
(-8.6290161 0.63852549 -1.2417966e-21)
(-8.6358905 0.62444458 6.1676293e-22)
(-8.64283 0.61042836 6.1247468e-22)
(-8.6493062 0.5965066 -6.0855095e-22)
(-8.6546119 0.58256638 -7.9229568e-17)
(-8.6597848 0.56872489 7.8713753e-17)
(-8.6653911 0.55498816 3.7615819e-37)
(-8.6689998 0.54121277 1.5541588e-16)
(-8.6741559 0.52761304 -7.7216523e-17)
(-8.6783563 0.51403264 -7.6734032e-17)
(-8.6820418 0.50048635 -5.818717e-22)
(-8.6869246 0.48708155 9.1255977e-34)
(-8.6910755 0.47369511 -7.5329567e-17)
(-8.6944789 0.4602375 7.4876048e-17)
(-8.6984942 0.44667536 -5.6780436e-22)
(-8.6999408 0.43311271 7.3993916e-17)
(-8.7026948 0.41974148 -5.6127709e-22)