/*--------------------------------*- C++ -*----------------------------------*\
| =========                 |                                                 |
| \\      /  F ield         | OpenFOAM: The Open Source CFD Toolbox           |
|  \\    /   O peration     | Version:  2506                                  |
|   \\  /    A nd           | Website:  www.openfoam.com                      |
|    \\/     M anipulation  |                                                 |
\*---------------------------------------------------------------------------*/
FoamFile
{
    version     2.0;
    format      ascii;
    arch        "LSB;label=32;scalar=64";
    class       volScalarField;
    location    "2";
    object      T;
}
// * * * * * * * * * * * * * * * * * * * * * * * * * * * * * * * * * * * * * //

dimensions      [0 0 0 1 0 0 0];

internalField   nonuniform List<scalar> 
1376
(
245.58381
245.5861
245.58333
245.5841
245.58458
245.5824
245.58131
245.58173
245.57967
245.58006
245.57843
245.57733
245.57552
245.57368
245.57
245.56794
245.56652
245.56359
245.56066
245.55629
245.55418
245.55123
245.54854
245.54421
245.53808
245.53194
245.52983
245.52423
245.51938
245.51897
245.51869
245.516
245.51163
245.50716
245.50287
245.50078
245.50013
245.50245
245.49364
245.49489
245.50344
245.50001
245.45437
245.37277
245.34696
245.21348
244.97956
244.78356
244.19745
245.58422
245.58431
245.58307
245.58439
245.58465
245.58309
245.58183
245.58223
245.57995
245.58111
245.57962
245.57838
245.57641
245.57464
245.57197
245.56932
245.56801
245.56453
245.563
245.55925
245.55736
245.55544
245.55347
245.55038
245.54552
245.53869
245.53895
245.53464
245.5312
245.53226
245.5334
245.5352
245.53304
245.53242
245.53198
245.53457
245.54136
245.54533
245.55383
245.55154
245.56435
245.58186
245.55612
245.51361
245.42195
245.40324
245.26465
245.09065
244.44427
245.58412
245.58423
245.58334
245.58406
245.58476
245.58385
245.58209
245.58256
245.58083
245.58202
245.58096
245.57915
245.57781
245.57589
245.57431
245.57159
245.57042
245.5671
245.56649
245.56338
245.56191
245.56061
245.55906
245.55728
245.55337
245.54771
245.54723
245.54486
245.54526
245.54601
245.54824
245.5534
245.5551
245.55707
245.55934
245.56492
245.57674
245.59567
245.60191
245.61766
245.64515
245.67251
245.69275
245.68337
245.66393
245.63046
245.45461
245.38483
244.61333
245.5847
245.58541
245.58323
245.58395
245.58469
245.584
245.58273
245.58239
245.58168
245.5826
245.58211
245.57956
245.57864
245.57737
245.5761
245.57383
245.57306
245.5701
245.56942
245.56726
245.56615
245.56618
245.56441
245.56398
245.56185
245.55786
245.55495
245.55614
245.55905
245.55999
245.56338
245.57081
245.57628
245.58177
245.58723
245.5952
245.6122
245.63666
245.65978
245.68424
245.71183
245.75185
245.79156
245.80016
245.79089
245.78927
245.76988
245.71024
244.91323
245.58716
245.58503
245.58306
245.58418
245.58524
245.58509
245.58331
245.5822
245.58242
245.58298
245.58265
245.58115
245.57943
245.5786
245.57751
245.57607
245.57475
245.57199
245.57232
245.57115
245.57043
245.57144
245.57001
245.57076
245.57098
245.56789
245.5643
245.56723
245.57228
245.57484
245.57906
245.58803
245.59681
245.60633
245.61513
245.62423
245.64424
245.6725
245.70633
245.73312
245.77305
245.82692
245.86729
245.91029
245.96189
245.99907
245.98666
245.98327
245.30082
245.58911
245.58628
245.58417
245.58477
245.58588
245.58607
245.58398
245.58253
245.58312
245.58308
245.58359
245.58262
245.58086
245.58029
245.57939
245.57852
245.57651
245.57454
245.5756
245.57575
245.57553
245.57598
245.57568
245.57782
245.57988
245.57813
245.57475
245.57828
245.58517
245.58951
245.59483
245.6056
245.61743
245.63011
245.64307
245.65447
245.67535
245.71083
245.74986
245.78995
245.83675
245.89411
245.96219
246.03431
246.09153
246.15377
246.23323
246.2762
245.6609
245.58865
245.5863
245.58362
245.58508
245.58619
245.58597
245.58433
245.58321
245.58411
245.5837
245.58595
245.58495
245.58315
245.58264
245.582
245.58139
245.57964
245.57881
245.57937
245.58046
245.58065
245.58064
245.58164
245.58499
245.58824
245.58878
245.58576
245.58943
245.59777
245.60516
245.61168
245.62345
245.63792
245.65326
245.67085
245.68534
245.70801
245.74403
245.79146
245.8397
245.89452
245.96015
246.04479
246.11058
246.1945
246.32036
246.43806
246.53971
246.09884
245.58888
245.58581
245.58244
245.58572
245.58695
245.58676
245.58533
245.58364
245.58436
245.58488
245.58721
245.58683
245.58528
245.58421
245.58415
245.584
245.58284
245.58291
245.58357
245.58505
245.58584
245.5863
245.58836
245.59225
245.5968
245.59926
245.59744
245.60102
245.61073
245.6212
245.62912
245.64141
245.65838
245.67594
245.69735
245.7163
245.74086
245.77751
245.82973
245.88316
245.94598
246.02493
246.10422
246.2004
246.3296
246.46602
246.63153
246.79697
246.48565
245.5869
245.58724
245.58415
245.58739
245.58763
245.58725
245.58598
245.58455
245.58505
245.5858
245.58719
245.58795
245.58659
245.58544
245.58627
245.5857
245.58614
245.58772
245.58784
245.58938
245.59074
245.59228
245.59542
245.59994
245.60545
245.60913
245.60925
245.61295
245.62314
245.63639
245.64691
245.65959
245.67882
245.69872
245.72259
245.74671
245.7733
245.81241
245.86534
245.93167
245.99805
246.08033
246.18318
246.30547
246.42053
246.59258
246.811
247.02779
246.8823
245.58603
245.58789
245.58341
245.58678
245.58771
245.58754
245.58638
245.58568
245.58583
245.5868
245.5876
245.58824
245.58905
245.58783
245.58856
245.58925
245.5896
245.5915
245.59145
245.59373
245.59553
245.59764
245.60149
245.60692
245.61343
245.61874
245.62103
245.62453
245.6349
245.65049
245.66471
245.67823
245.69879
245.7215
245.74686
245.77576
245.80577
245.8452
245.90127
245.96895
246.04659
246.13623
246.25429
246.35906
246.51048
246.72371
246.9623
247.25529
247.23878
245.58745
245.58796
245.5829
245.58554
245.5873
245.58811
245.58762
245.58686
245.58694
245.5881
245.58883
245.58925
245.59024
245.58908
245.59033
245.5916
245.592
245.59402
245.59469
245.597
245.59965
245.60231
245.60671
245.6132
245.62094
245.62792
245.63245
245.63626
245.64669
245.66349
245.68134
245.69705
245.71825
245.7437
245.77057
245.8025
245.83666
245.87795
245.93525
246.00726
246.09117
246.18833
246.30002
246.43583
246.62185
246.83063
247.1172
247.4643
247.56678
245.5906
245.58966
245.5825
245.58466
245.58665
245.58818
245.58873
245.58804
245.58845
245.58941
245.58971
245.59051
245.59146
245.59068
245.59136
245.59289
245.59415
245.59589
245.59777
245.6003
245.60362
245.60684
245.61174
245.61915
245.62823
245.6368
245.64347
245.64824
245.65856
245.67581
245.69643
245.71523
245.7369
245.76441
245.79329
245.82746
245.86503
245.9097
245.96609
246.04275
246.13198
246.23638
246.35768
246.51823
246.68736
246.92591
247.23947
247.653
247.86185
245.59322
245.5914
245.58287
245.58551
245.58701
245.58864
245.59024
245.58968
245.59022
245.59025
245.59036
245.59185
245.59301
245.59299
245.59353
245.59505
245.59723
245.59905
245.60144
245.60434
245.60847
245.61251
245.61774
245.62558
245.6354
245.64538
245.65419
245.66056
245.6708
245.68791
245.70996
245.73188
245.75472
245.78339
245.81422
245.85012
245.89148
245.93878
245.99693
246.07424
246.16808
246.27679
246.41181
246.56437
246.75275
247.02713
247.36904
247.83168
248.11526
245.59555
245.59371
245.58367
245.58621
245.58761
245.58922
245.59111
245.59115
245.5912
245.59161
245.59199
245.59318
245.5945
245.59541
245.59642
245.5982
245.60068
245.603
245.60626
245.60988
245.61425
245.61879
245.62415
245.63244
245.64275
245.65374
245.66429
245.67262
245.68295
245.69961
245.72205
245.74643
245.77134
245.80059
245.83291
245.87054
245.91476
245.9657
246.0253
246.10245
246.20112
246.31776
246.45215
246.61492
246.83087
247.11147
247.47505
247.9683
248.33938
245.59703
245.59524
245.58392
245.58627
245.58764
245.59013
245.59224
245.59324
245.59255
245.59299
245.59344
245.59446
245.59593
245.59716
245.59844
245.60062
245.60377
245.60675
245.61026
245.61442
245.61915
245.62435
245.62998
245.63863
245.64927
245.66086
245.67265
245.68291
245.6939
245.71021
245.73245
245.75844
245.78603
245.81611
245.84935
245.88801
245.93504
245.98965
246.0507
246.12867
246.2291
246.34902
246.49099
246.66378
246.88451
247.17416
247.56062
248.10719
248.5287
245.59867
245.59657
245.58379
245.58638
245.58852
245.59156
245.59386
245.5944
245.59434
245.59481
245.59492
245.59568
245.59713
245.59873
245.60018
245.60244
245.60579
245.60922
245.61306
245.61783
245.62287
245.62848
245.6343
245.64324
245.65424
245.66616
245.6788
245.69067
245.70287
245.7192
245.74102
245.7678
245.79798
245.82961
245.8632
245.90242
245.95158
246.00904
246.07344
246.1505
246.25201
246.37608
246.52285
246.69997
246.92824
247.23531
247.64378
248.21527
248.68108
245.60088
245.59794
245.58398
245.58614
245.58845
245.59187
245.59418
245.59412
245.59536
245.59621
245.59582
245.59675
245.59844
245.60027
245.60206
245.60438
245.60768
245.61129
245.61532
245.62062
245.62596
245.63184
245.63794
245.64701
245.65819
245.67012
245.68328
245.6963
245.70982
245.72651
245.74779
245.77467
245.80666
245.84025
245.87409
245.91322
245.96356
246.02384
246.0903
246.16861
246.26979
246.39622
246.54602
246.72879
246.96486
247.28485
247.70536
248.28998
248.80133
245.60302
245.59945
245.58432
245.58659
245.58848
245.5921
245.59485
245.59465
245.59498
245.59546
245.59617
245.59773
245.59983
245.60209
245.6041
245.60647
245.6096
245.61312
245.61716
245.62286
245.62854
245.63454
245.64083
245.6499
245.66111
245.67285
245.68621
245.70006
245.71488
245.73225
245.75294
245.77927
245.81227
245.84781
245.88204
245.92044
245.97133
246.03396
246.10288
246.18204
246.28287
246.4101
246.56287
246.74942
246.99232
247.31868
247.74594
248.34787
248.88908
245.60434
245.60047
245.58506
245.58734
245.58878
245.59272
245.59534
245.59393
245.59405
245.59513
245.59591
245.59765
245.60026
245.60311
245.60552
245.60808
245.61117
245.61458
245.61847
245.62435
245.63028
245.63636
245.64283
245.65197
245.66315
245.67466
245.68819
245.70276
245.71877
245.73682
245.75691
245.78257
245.81619
245.85338
245.88797
245.92562
245.97683
246.04161
246.11266
246.19288
246.29354
246.42081
246.57587
246.76633
247.0138
247.34479
247.7761
248.38795
248.94102
245.60457
245.6009
245.5858
245.58812
245.58924
245.59145
245.59455
245.59366
245.59346
245.59461
245.59581
245.59793
245.60073
245.6037
245.60643
245.6091
245.61206
245.61526
245.61897
245.62502
245.63112
245.6372
245.64382
245.56013
245.56318
245.56786
245.5709
245.57167
245.57318
245.57482
245.57641
245.57754
245.57888
245.57829
245.57995
245.58097
245.57813
245.57108
245.4295
245.44974
245.46672
245.48042
245.49255
245.50295
245.5144
245.52417
245.53165
245.53827
245.54373
245.54958
245.55618
245.56107
245.56409
245.56799
245.57081
245.57142
245.57393
245.57503
245.57652
245.57804
245.57917
245.57861
245.58
245.5812
245.57789
245.57122
245.14044
245.17664
245.22757
245.27244
245.30201
245.33103
245.35618
245.38117
245.40576
245.42382
245.44232
245.45778
245.47109
245.48481
245.49728
245.50799
245.51866
245.52737
245.53314
245.54057
245.54553
245.55115
245.55929
245.5621
245.56419
245.56785
245.57076
245.5727
245.57499
245.57572
245.57672
245.57835
245.57924
245.57886
245.58023
245.58114
245.57828
245.57135
244.19359
244.43432
244.4331
244.77885
244.75123
244.88111
244.95915
245.0671
245.11629
245.16967
245.22854
245.2654
245.29719
245.32105
245.34827
245.37626
245.40119
245.42039
245.43574
245.45223
245.46458
245.47712
245.49052
245.50173
245.5116
245.52189
245.52948
245.53637
245.54334
245.54843
245.55263
245.5604
245.56252
245.56433
245.56896
245.57159
245.57312
245.57542
245.57658
245.57742
245.57864
245.57957
245.57896
245.58012
245.58137
245.5791
245.57132
244.05171
243.88031
244.24774
244.53195
244.46325
244.7729
244.78069
244.96127
245.02417
245.11117
245.17812
245.22779
245.25938
245.29432
245.31966
245.34689
245.37637
245.39769
245.41707
245.43346
245.44796
245.46285
245.47373
245.48673
245.49724
245.50691
245.51792
245.52611
245.53281
245.54019
245.54481
245.54926
245.55424
245.55981
245.56251
245.5648
245.56949
245.57223
245.57321
245.57573
245.57723
245.57791
245.57931
245.57968
245.57929
245.58048
245.5816
245.57971
245.57135
243.92387
243.9962
244.26272
244.69965
244.59383
244.84988
244.90862
245.04425
245.13879
245.19981
245.23367
245.26389
245.29918
245.32946
245.3542
245.37521
245.39856
245.41533
245.43352
245.44873
245.46098
245.47314
245.48183
245.49303
245.50284
245.51393
245.52386
245.531
245.53723
245.54297
245.54801
245.55175
245.55654
245.56175
245.56348
245.5663
245.56985
245.5723
245.57361
245.57582
245.57783
245.57818
245.57968
245.57976
245.57985
245.58113
245.58154
245.58029
245.5707
243.89772
244.02697
244.25634
244.85618
244.7319
244.95036
245.03473
245.11902
245.21163
245.25511
245.28482
245.3086
245.34454
245.36505
245.38193
245.40205
245.42041
245.43538
245.45263
245.46403
245.47354
245.48226
245.49039
245.50091
245.50773
245.51893
245.52826
245.53481
245.54099
245.54551
245.55025
245.55515
245.55965
245.56292
245.56433
245.56771
245.57097
245.57172
245.57403
245.57658
245.57832
245.57896
245.57981
245.58025
245.58066
245.58161
245.58169
245.58115
245.57005
243.92618
244.1622
244.48293
244.85404
244.82432
245.02224
245.10816
245.22431
245.28762
245.3024
245.33616
245.36177
245.38076
245.39904
245.41271
245.43013
245.44567
245.45644
245.46993
245.47876
245.4859
245.49192
245.50027
245.51034
245.51534
245.5256
245.53334
245.53858
245.54358
245.5476
245.55246
245.55727
245.56163
245.56364
245.56577
245.56957
245.57168
245.57333
245.57494
245.57679
245.57857
245.57963
245.58004
245.58054
245.58142
245.58212
245.58225
245.58261
245.57314
243.97719
244.29575
244.53063
244.94304
244.93438
245.14536
245.23421
245.30054
245.33989
245.37397
245.38538
245.40251
245.42214
245.43366
245.44386
245.45683
245.46641
245.47639
245.48712
245.49227
245.49718
245.50179
245.51016
245.51816
245.52308
245.53271
245.53865
245.54336
245.54723
245.55022
245.55539
245.55917
245.56253
245.56566
245.56769
245.57109
245.57304
245.57402
245.57624
245.57746
245.57875
245.5802
245.58044
245.58073
245.58198
245.58318
245.58288
245.58348
245.57636
244.25485
244.46199
244.5838
245.08991
245.16577
245.26831
245.35473
245.40181
245.41847
245.42775
245.42674
245.45141
245.45779
245.46695
245.47253
245.48207
245.48874
245.4963
245.50403
245.50529
245.50809
245.51257
245.52004
245.52512
245.52984
245.53819
245.54388
245.54751
245.55103
245.55344
245.55856
245.56171
245.5643
245.56702
245.56869
245.57225
245.5746
245.57544
245.57735
245.57872
245.57931
245.58124
245.58061
245.58161
245.58289
245.58368
245.58317
245.5857
245.57985
)
;

boundaryField
{
    Side
    {
        type            empty;
    }
    Inlet
    {
        type            totalTemperature;
        gamma           1.4;
        T0              uniform 250;
        value           nonuniform List<scalar> 
30
(
245.58606
245.58624
245.58644
245.58659
245.58668
245.58671
245.58661
245.58643
245.58636
245.58636
245.58642
245.58641
245.5863
245.58607
245.58575
245.58539
245.58502
245.5847
245.58449
245.58441
245.57981
245.58001
245.58023
245.58039
245.58045
245.58029
245.58065
245.582
245.58354
245.58558
)
;
    }
    Airfoil
    {
        type            zeroGradient;
    }
    Outlet
    {
        type            inletOutlet;
        inletValue      nonuniform List<scalar> 0();
        value           nonuniform List<scalar> 0();
    }
    procBoundary7to0
    {
        type            processor;
        value           nonuniform List<scalar> 
50
(
245.65309
245.66419
245.67543
245.68898
245.70403
245.72093
245.73939
245.75892
245.78392
245.81772
245.85576
245.89035
245.92732
245.97853
246.04465
246.11701
246.19794
246.29843
246.42516
246.58113
246.77366
247.02354
247.35562
247.78859
248.40687
248.96713
245.60394
245.60054
245.58611
245.58808
245.58909
245.59104
245.59431
245.59446
245.59448
245.59413
245.59553
245.59839
245.60081
245.60331
245.6061
245.60889
245.61178
245.61465
245.61811
245.62425
245.6303
245.63629
245.65309
245.64301
)
;
    }
    procBoundary7to8
    {
        type            processor;
        value           nonuniform List<scalar> 
53
(
245.55984
245.56293
245.56704
245.57074
245.57204
245.57294
245.57473
245.57587
245.57727
245.57865
245.57799
245.5798
245.5808
245.57834
245.57086
245.42048
245.44101
245.45294
245.47118
245.48888
245.50131
245.51155
245.5226
245.53124
245.53773
245.54539
245.54976
245.55522
245.55522
245.10121
245.1519
245.19622
245.23582
245.27391
245.30874
245.34159
245.36932
245.39198
245.40986
245.40986
244.14121
244.35461
244.34282
244.68721
244.67647
244.84323
244.90561
245.00131
245.08802
245.08802
244.03817
243.8368
243.8368
)
;
    }
}


// ************************************************************************* //
