/*--------------------------------*- C++ -*----------------------------------*\
| =========                 |                                                 |
| \\      /  F ield         | OpenFOAM: The Open Source CFD Toolbox           |
|  \\    /   O peration     | Version:  2506                                  |
|   \\  /    A nd           | Website:  www.openfoam.com                      |
|    \\/     M anipulation  |                                                 |
\*---------------------------------------------------------------------------*/
FoamFile
{
    version     2.0;
    format      ascii;
    arch        "LSB;label=32;scalar=64";
    class       volVectorField;
    location    "1.5";
    object      wallShearStress;
}
// * * * * * * * * * * * * * * * * * * * * * * * * * * * * * * * * * * * * * //

dimensions      [1 -1 -2 0 0 0 0];

internalField   uniform (0 0 0);

boundaryField
{
    Side
    {
        type            empty;
    }
    Inlet
    {
        type            calculated;
        value           uniform (0 0 0);
    }
    Airfoil
    {
        type            calculated;
        value           nonuniform List<vector> 
117
(
(-5.2581767 -2.0357963 9.5568252e-19)
(-5.0310284 -2.2374747 -5.7481425e-19)
(-4.8314539 -2.1545093 7.0547645e-19)
(-4.6012789 -2.3493622 -2.3511696e-18)
(-4.457891 -2.0475547 -4.4110299e-19)
(-4.174086 -2.157486 6.0156489e-19)
(-4.1085074 -1.8439584 1.5565131e-20)
(-3.844409 -1.8009256 8.0284091e-19)
(-3.7926404 -1.5492243 4.0531076e-19)
(-3.6865669 -1.4921359 7.8055687e-18)
(-3.7339295 -1.233998 2.3679873e-19)
(-3.601398 -1.0523477 1.2829256e-19)
(-3.6492988 -0.8865522 -1.0901636e-17)
(-3.6031461 -0.70148036 1.1718818e-17)
(-3.6111751 -0.56436077 -3.2734305e-19)
(-3.6301421 -0.4388929 1.2685269e-17)
(-3.6229613 -0.30501971 -1.3393818e-17)
(-3.5876504 -0.19972148 -3.796785e-20)
(-3.6260806 -0.11000754 -1.6087432e-18)
(-3.652573 -0.010281959 -1.4110808e-23)
(-3.6646487 0.100537 -1.8733835e-18)
(-3.5116319 0.17414539 -3.8474556e-20)
(-3.7230609 0.28831642 -2.682885e-17)
(-3.5394137 0.46300676 3.8926092e-17)
(-3.6388573 0.4290346 -2.4732073e-17)
(-3.6616706 0.81499901 2.3506653e-17)
(-3.5433588 0.73522519 -1.0143293e-17)
(-3.6915871 1.0361768 7.6124932e-19)
(-3.7770327 1.2717826 7.7037198e-34)
(-3.6324448 1.4506454 -8.0375348e-18)
(-3.8273376 1.476727 -1.7772278e-20)
(-3.9740726 1.8549351 1.288234e-17)
(-3.9406284 1.8723034 -1.0822267e-17)
(-4.3383986 1.9378289 8.2397972e-18)
(-4.4966973 2.2921612 -4.1963036e-18)
(-4.5875553 2.2289059 0)
(-4.9444674 2.1297586 -2.7518955e-18)
(-5.0433899 2.3153895 2.1239793e-18)
(-5.2315966 1.9417283 -9.0511171e-19)
(-5.9938331 1.0574008 -2.2593637e-18)
(-7.0039371 0.26865152 2.8076397e-18)
(-7.2996418 1.0201214 -1.3993085e-34)
(-7.4974598 0.44545043 1.8104643e-18)
(-7.5462978 1.0293475 -1.9159071e-18)
(-7.6767004 0.24132098 3.9645535e-18)
(-7.7123601 1.0151092 -1.2037062e-35)
(-7.9107866 -0.030992827 -6.0185311e-36)
(-7.8804429 1.0786706 1.6626276e-18)
(-7.9663241 -0.17177806 -5.7436939e-19)
(-7.9698552 0.7676538 -2.5338863e-21)
(-7.9202922 0.15914127 -1.2207318e-18)
(-8.0956209 0.21403072 1.8505906e-18)
(-8.0269148 0.080591698 6.6328744e-19)
(-7.778719 0.70993627 -6.4950979e-19)
(-7.8494807 -0.31226176 6.4789694e-19)
(-7.7633083 0.1905083 1.286727e-21)
(-7.5190959 0.0023525716 -3.1746077e-19)
(-7.5338047 -0.20970341 -3.3772122e-19)
(-7.5326978 -0.37136719 5.1375466e-19)
(-7.6667696 -0.96299467 -9.6295232e-20)
(-7.4037553 0.74362774 1.6339371e-36)
(-7.2940441 -1.2127242 3.7082244e-19)
(-7.3893531 -0.076794842 -1.7339017e-19)
(-7.0270143 -0.42068287 -3.9634622e-19)
(-6.9255765 -0.67150461 -2.1967545e-19)
(-6.8694543 -0.86327601 -1.0533539e-19)
(-6.8412491 -0.9052069 1.0854434e-19)
(-6.7237258 -0.9815791 -4.5806323e-19)
(-6.5419387 -0.96222376 -4.1747558e-19)
(-6.4345096 -1.2716993 -6.8862708e-19)
(-6.422606 -1.3281574 2.1194548e-19)
(-6.2667359 -1.2792864 6.7568226e-21)
(-6.0013747 -1.3629132 -6.0185311e-36)
(-5.9309562 -1.8004734 9.6001062e-19)
(-5.9481214 -1.7337265 -9.0943782e-19)
(-5.7505682 -1.7525311 -4.3318209e-19)
(-5.5657781 -1.8223385 1.4805428e-18)
(-5.426104 -1.9606227 -1.6560439e-18)
(-5.5069581 1.9053508 -1.2037062e-35)
(-5.6951507 1.8575062 6.0185311e-36)
(-5.9285086 1.7397025 4.9080728e-19)
(-5.9695175 1.9050833 -9.675976e-21)
(-5.8942035 1.6434945 -1.0428034e-18)
(-6.0627291 1.2490985 -5.2219664e-19)
(-6.302615 1.2338274 -2.2733941e-20)
(-6.3516235 1.371756 -4.22222e-19)
(-6.5341802 0.92514921 4.3078264e-19)
(-6.683913 1.2452956 4.1947373e-19)
(-6.6783947 1.0340103 -9.1334875e-21)
(-6.7580314 0.695743 -4.0695312e-19)
(-6.952999 0.67693602 -1.9614625e-19)
(-7.1157997 0.75515308 -1.8296065e-19)
(-7.0168195 0.82249004 -4.3809531e-21)
(-7.2430154 0.042986421 -9.7013305e-20)
(-7.4019106 0.89826368 3.5045501e-19)
(-7.2740655 0.072658662 -3.6993475e-19)
(-7.4936791 0.076900437 9.0358198e-20)
(-7.6287168 0.30067428 -6.6145492e-19)
(-7.7426219 -0.023857617 6.6515997e-19)
(-7.7132551 0.33879562 1.024356e-18)
(-7.7395269 -0.10509141 -6.7169232e-19)
(-7.7985792 -0.18905777 -6.3316234e-19)
(-8.0653532 -0.41679935 6.0209745e-19)
(-7.9659443 0.83104165 2.0312542e-35)
(-7.8932112 -1.440264 1.2393276e-18)
(-7.980174 0.81257776 -1.1851406e-18)
(-7.7918048 -1.2620962 1.1916957e-18)
(-7.9153501 0.31652141 -1.16964e-18)
(-7.7521243 -1.123654 5.5184851e-19)
(-7.7886609 -0.079336942 -2.6913377e-18)
(-7.6302455 -1.0393066 5.1914095e-19)
(-7.6499985 -0.37518867 2.0293624e-18)
(-7.5759185 -1.0242979 -1.9428869e-18)
(-7.4909667 -0.39432255 -9.2812648e-19)
(-7.2352476 -1.0730211 -2.6800299e-18)
(-6.956292 -0.15635815 -3.3710761e-18)
(-5.935238 -1.1223001 -7.613487e-19)
)
;
    }
    Outlet
    {
        type            calculated;
        value           uniform (0 0 0);
    }
}


// ************************************************************************* //
