/*--------------------------------*- C++ -*----------------------------------*\
| =========                 |                                                 |
| \\      /  F ield         | OpenFOAM: The Open Source CFD Toolbox           |
|  \\    /   O peration     | Version:  2506                                  |
|   \\  /    A nd           | Website:  www.openfoam.com                      |
|    \\/     M anipulation  |                                                 |
\*---------------------------------------------------------------------------*/
FoamFile
{
    version     2.0;
    format      ascii;
    arch        "LSB;label=32;scalar=64";
    class       volScalarField;
    location    "0.015";
    object      rho;
}
// * * * * * * * * * * * * * * * * * * * * * * * * * * * * * * * * * * * * * //

dimensions      [1 -3 0 0 0 0 0];

internalField   nonuniform List<scalar> 
192657
(
0.66454271
0.66690629
0.6651144
0.66635323
0.66558817
0.66570199
0.66542127
0.6653081
0.66520675
0.66516631
0.66518148
0.6651556
0.66475903
0.6634669
0.6607881
0.65731829
0.65500428
0.65542607
0.65922388
0.66418314
0.6665205
0.66506263
0.66310579
0.66395863
0.66417692
0.66181841
0.66156381
0.6616719
0.66057796
0.66015542
0.65959854
0.65923631
0.65904643
0.65858911
0.6581425
0.65765721
0.65708674
0.65654856
0.65606447
0.65548694
0.65483971
0.65418102
0.65340234
0.65261618
0.65188991
0.65111715
0.65021381
0.64929768
0.64845306
0.64744907
0.64643739
0.64549551
0.6443116
0.64319406
0.64223243
0.640983
0.63966185
0.63841717
0.63723274
0.63600025
0.63479529
0.63358554
0.63239407
0.63122688
0.63011233
0.62901372
0.62794221
0.6269573
0.62598337
0.62505641
0.62418335
0.62334841
0.62256273
0.62182593
0.62114532
0.62050636
0.61990782
0.61935346
0.61883588
0.61834343
0.61789246
0.6174543
0.61704146
0.61666872
0.61632605
0.61596427
0.61561653
0.61533446
0.61508511
0.61482205
0.61454418
0.61427683
0.61403095
0.61379191
0.61355627
0.61333848
0.61313561
0.61294383
0.61274997
0.61256009
0.61237732
0.61220355
0.61204444
0.611823
0.61061979
0.60729671
0.60499568
0.60371829
0.60295137
0.60247102
0.60216665
0.60197573
0.6018697
0.60182909
0.60183797
0.60188307
0.60195347
0.60204137
0.60214015
0.60224489
0.60235175
0.60245771
0.60256055
0.60265868
0.60275097
0.6028366
0.60291498
0.60298566
0.60304823
0.60310225
0.60314714
0.60318439
0.60321436
0.60323685
0.60325149
0.60325697
0.60324948
0.60322436
0.60318102
0.60312415
0.60305759
0.60298297
0.60290422
0.60282915
0.60276831
0.60272932
0.60271067
0.60270469
0.60270433
0.66454028
0.66690715
0.66511584
0.66635288
0.6655911
0.66570303
0.665422
0.66530858
0.66520708
0.66516643
0.66518223
0.66516002
0.66477195
0.66349348
0.6608288
0.6573579
0.65501984
0.65540316
0.65914952
0.66411908
0.66651535
0.66509933
0.6631138
0.66393461
0.66420166
0.66183992
0.66155789
0.66168547
0.66059237
0.66016442
0.65960926
0.65923907
0.65904542
0.6585971
0.65815928
0.65767992
0.65711348
0.6565743
0.65609079
0.65551286
0.65486998
0.65420728
0.65342787
0.65264828
0.65192941
0.651157
0.65024698
0.64934186
0.6484996
0.64748637
0.64649696
0.64554568
0.64435383
0.64326368
0.64228883
0.64101533
0.63969884
0.63846289
0.63727694
0.63603804
0.63482839
0.63361087
0.63241038
0.63123409
0.63011011
0.62900557
0.62792753
0.62692882
0.62594244
0.62500348
0.62411973
0.62327445
0.62247626
0.62173081
0.62103994
0.62039043
0.61978257
0.61922074
0.61869466
0.61819771
0.61774072
0.61729804
0.61688248
0.61650974
0.61616552
0.61579881
0.61545028
0.61516937
0.61492109
0.61465871
0.61438484
0.61413334
0.61391538
0.6137061
0.61349025
0.61328177
0.61310115
0.61293147
0.61276939
0.61261358
0.61245481
0.61230746
0.61216364
0.6119068
0.61029919
0.60684999
0.60473743
0.60344977
0.60253242
0.60184483
0.60131303
0.60088808
0.6005482
0.60027671
0.60006129
0.59989242
0.59976239
0.59966457
0.59959287
0.59954113
0.59950361
0.59947656
0.59945775
0.59944546
0.59943819
0.59943465
0.59943375
0.59943455
0.59943631
0.59943837
0.59944018
0.59944127
0.59944131
0.59944005
0.59943738
0.59943336
0.5994282
0.59942226
0.59941602
0.59940997
0.5994046
0.5994003
0.59939807
0.59939805
0.59939948
0.59940119
0.5994023
0.59940277
0.59940294
0.6645375
0.66690835
0.66511851
0.66635316
0.66559395
0.66570383
0.66542273
0.66530902
0.66520738
0.66516653
0.66518297
0.66516452
0.66478509
0.66352036
0.66087005
0.65739818
0.65503571
0.65537998
0.65907425
0.6640536
0.6665148
0.66513646
0.66312286
0.66391017
0.66422677
0.66186217
0.66155154
0.66169916
0.66060683
0.66017387
0.65962084
0.65924197
0.65904396
0.65860436
0.65817565
0.6577027
0.65713993
0.65660015
0.65611732
0.65553937
0.65490051
0.65423352
0.65345441
0.65268154
0.65197011
0.65119745
0.65028214
0.64938859
0.6485466
0.64752659
0.64655872
0.64559483
0.64439875
0.64333362
0.64234063
0.64104749
0.63973933
0.63851144
0.63732243
0.6360768
0.63486108
0.63363397
0.63242339
0.63123977
0.63010716
0.62899303
0.62790663
0.62689763
0.62590099
0.62494992
0.6240546
0.62319839
0.62239017
0.62163536
0.62093323
0.62027447
0.61965628
0.61908592
0.6185523
0.61805276
0.61759102
0.61714503
0.61672642
0.6163527
0.61601028
0.61564891
0.61530697
0.61503313
0.61479375
0.61454329
0.6142808
0.61403267
0.61381128
0.61360437
0.61340856
0.61323566
0.61308186
0.61294032
0.61280798
0.61267878
0.61256169
0.6124558
0.61235633
0.61222524
0.61084324
0.60742291
0.60539753
0.60419469
0.60336921
0.60277347
0.60233804
0.60201771
0.60178177
0.60160868
0.6014833
0.60139372
0.60133086
0.60128792
0.60126008
0.60124461
0.60124021
0.60124512
0.60125706
0.60127395
0.60129414
0.60131634
0.6013395
0.60136275
0.60138543
0.60140696
0.60142689
0.60144483
0.60146042
0.60147332
0.60148322
0.60148977
0.60149267
0.60149164
0.60148652
0.60147743
0.60146491
0.60145014
0.60143394
0.60141811
0.60140494
0.60139612
0.60139156
0.60138991
0.60138971
0.6645346
0.66690993
0.66511953
0.66635349
0.66559598
0.66570435
0.66542344
0.66530943
0.66520766
0.66516662
0.66518369
0.66516907
0.66479839
0.66354739
0.66091164
0.65743895
0.65505197
0.65535739
0.6589986
0.66398676
0.66651724
0.66517424
0.66313287
0.66388547
0.66425114
0.66188551
0.66154494
0.66171261
0.66062141
0.66018369
0.65963341
0.65924533
0.65904237
0.6586111
0.65819173
0.65772582
0.65716647
0.65662655
0.65614455
0.65556655
0.65493155
0.65425989
0.65348153
0.65271592
0.65201113
0.65123635
0.65031695
0.64943537
0.64859105
0.6475675
0.64662097
0.64564146
0.64444598
0.64340533
0.6423913
0.64108013
0.63978118
0.63856095
0.63736836
0.6361168
0.63489557
0.63366122
0.63244264
0.63125044
0.63010849
0.62898664
0.62789338
0.62686964
0.62586008
0.62489689
0.62399116
0.62312391
0.6223036
0.62153969
0.62082707
0.62015819
0.61953057
0.61895191
0.61841128
0.6179079
0.61744023
0.61699075
0.61657011
0.61619714
0.61585426
0.61548985
0.61514942
0.61487999
0.61464674
0.61440236
0.61415019
0.61392551
0.61373773
0.61355939
0.61337815
0.61321069
0.61307571
0.61295874
0.61284497
0.61274003
0.61264466
0.61256272
0.61248841
0.61227603
0.61097073
0.60755531
0.60547156
0.60421192
0.60333372
0.60268853
0.60220168
0.60182971
0.60154472
0.60132689
0.60116499
0.60104734
0.60096475
0.60090979
0.60087627
0.600859
0.60085362
0.60085683
0.60086642
0.60088079
0.60089857
0.60091858
0.60093982
0.60096152
0.60098307
0.60100398
0.60102392
0.6010426
0.60105987
0.60107563
0.60108986
0.60110263
0.60111405
0.60112426
0.60113341
0.60114162
0.6011489
0.60115507
0.60115974
0.60116261
0.60116372
0.60116372
0.60116342
0.60116327
0.6011633
0.66453133
0.66691208
0.6651189
0.66635376
0.66559724
0.66570481
0.66542419
0.66530984
0.66520795
0.66516671
0.6651844
0.66517371
0.66481208
0.66357525
0.66095473
0.65748147
0.65506916
0.65533429
0.65892058
0.66391597
0.66650944
0.66521357
0.66314413
0.66385982
0.66427562
0.66191029
0.66153791
0.66172626
0.66063631
0.66019407
0.65964703
0.65924914
0.6590407
0.65861733
0.65820741
0.65774926
0.65719316
0.65665349
0.65617218
0.65559447
0.65496311
0.65428647
0.65350977
0.65275169
0.65205387
0.65127585
0.65035412
0.64948484
0.64863672
0.64761231
0.6466854
0.64568789
0.64449704
0.64347777
0.64243868
0.64111402
0.63982767
0.63861462
0.63741697
0.63615914
0.63493114
0.63368786
0.6324608
0.63126148
0.63011084
0.62897882
0.62787698
0.62684184
0.62582138
0.62484611
0.62392901
0.6230507
0.6222209
0.62144669
0.62072213
0.62004392
0.61940568
0.61881832
0.61827162
0.61776525
0.6172923
0.61684083
0.61641774
0.61604489
0.61570459
0.61534682
0.61501277
0.61474925
0.61452369
0.61428954
0.61404526
0.61381928
0.61362516
0.61345174
0.61329327
0.6131564
0.61304013
0.61293778
0.61284239
0.61275744
0.61268064
0.61261497
0.61255722
0.61245839
0.61133217
0.60794509
0.60573564
0.60442588
0.60352979
0.6028882
0.60241456
0.60206276
0.60180096
0.60160822
0.60146672
0.60136328
0.60128918
0.6012382
0.60120578
0.60118839
0.60118332
0.60118787
0.60120011
0.6012181
0.60124017
0.6012649
0.60129112
0.60131793
0.60134469
0.60137089
0.60139609
0.60141991
0.60144204
0.6014622
0.60148017
0.60149576
0.60150879
0.60151915
0.60152677
0.60153171
0.60153421
0.60153469
0.60153371
0.60153195
0.60153011
0.60152879
0.60152812
0.60152793
0.60152795
0.66452777
0.66691462
0.66511771
0.66635402
0.66559779
0.66570528
0.66542487
0.66531023
0.66520822
0.66516679
0.6651851
0.6651784
0.66482595
0.66360336
0.66099829
0.65752462
0.65508693
0.65531189
0.65884223
0.6638441
0.66649133
0.66525301
0.66315627
0.6638338
0.66429908
0.66193602
0.66153064
0.6617397
0.66065145
0.66020489
0.65966158
0.65925334
0.65903895
0.65862282
0.65822266
0.65777306
0.65722009
0.65668112
0.65620049
0.65562329
0.65499494
0.6543132
0.6535391
0.65278828
0.65209694
0.65131319
0.6503912
0.64953394
0.6486801
0.64765827
0.64674932
0.64573225
0.64455072
0.64355047
0.64248488
0.64114911
0.63987555
0.63866874
0.63746581
0.63620242
0.63496833
0.63371864
0.63248501
0.63127731
0.63011704
0.62897626
0.62786736
0.6268169
0.62578256
0.62479556
0.62386809
0.62297869
0.62213718
0.62135288
0.62061785
0.61992956
0.61928137
0.61868514
0.6181324
0.61762123
0.61714224
0.61668726
0.61626124
0.61588816
0.61554676
0.61518587
0.61485318
0.61459424
0.61437507
0.6141468
0.61391275
0.6137086
0.61354253
0.61338571
0.61322719
0.61308786
0.61298149
0.6128901
0.61280713
0.61272676
0.61265148
0.61259491
0.61254684
0.61239753
0.61142281
0.60816995
0.60586149
0.60451669
0.60358732
0.60290981
0.60240736
0.60203005
0.60174636
0.60153289
0.60137103
0.60125105
0.60116453
0.60110447
0.60106514
0.60104201
0.60103156
0.60103143
0.60103896
0.6010522
0.60106956
0.60108983
0.60111197
0.60113503
0.60115858
0.60118219
0.60120546
0.60122804
0.60124966
0.60127013
0.60128933
0.60130722
0.60132386
0.60133929
0.60135355
0.60136662
0.60137838
0.60138861
0.60139704
0.60140341
0.60140763
0.60140998
0.60141108
0.6014115
0.60141163
0.66452442
0.66691677
0.66511668
0.6663533
0.66559899
0.66570572
0.66542562
0.66531064
0.66520851
0.66516688
0.66518577
0.66518317
0.66484024
0.66363244
0.66104363
0.65756988
0.65510599
0.65528911
0.65876123
0.66376838
0.66646973
0.66529366
0.66316977
0.66380658
0.66432249
0.66196344
0.66152307
0.66175333
0.66066705
0.66021631
0.65967718
0.659258
0.65903728
0.65862778
0.65823753
0.65779713
0.65724737
0.65670927
0.65622916
0.6556529
0.65502715
0.6543404
0.6535695
0.65282669
0.65214136
0.65135085
0.65043105
0.64958544
0.64872484
0.64770846
0.6468147
0.64577695
0.64460857
0.64362295
0.6425286
0.64118662
0.63992827
0.63872714
0.63751768
0.6362481
0.63500698
0.63374899
0.63250844
0.6312941
0.63012501
0.62897301
0.62785514
0.62679248
0.62574641
0.624748
0.6238091
0.62290888
0.62205797
0.6212621
0.62051445
0.61981618
0.61915677
0.61855204
0.61799368
0.61747754
0.61699255
0.61653533
0.61610595
0.61573225
0.6153923
0.61503626
0.61470594
0.6144475
0.61423093
0.6140075
0.61377474
0.61356291
0.61338733
0.613236
0.61309809
0.6129782
0.61287881
0.61279539
0.61271803
0.61264768
0.61258622
0.6125345
0.61249065
0.61240979
0.61156689
0.6084506
0.6059621
0.60455885
0.60360655
0.60291289
0.60239367
0.60200003
0.60169967
0.60147047
0.60129675
0.60116677
0.60107172
0.60100491
0.60096103
0.60093559
0.60092458
0.60092435
0.60093188
0.60094517
0.60096276
0.60098352
0.60100667
0.60103174
0.60105804
0.60108516
0.60111226
0.60113887
0.6011646
0.60118909
0.60121214
0.60123366
0.60125352
0.60127163
0.60128792
0.60130234
0.6013149
0.60132561
0.60133446
0.60134143
0.60134646
0.60134962
0.60135126
0.60135195
0.60135214
0.66452152
0.66691862
0.66511638
0.66635266
0.66560185
0.66570603
0.66542633
0.66531103
0.66520879
0.66516695
0.66518641
0.66518799
0.66485472
0.66366185
0.66108956
0.65761588
0.65512575
0.65526709
0.65867992
0.66369136
0.66645116
0.66533458
0.66318423
0.66377904
0.66434481
0.66199189
0.66151529
0.66176668
0.66068286
0.66022821
0.65969361
0.65926315
0.65903569
0.65863184
0.65825184
0.65782156
0.65727432
0.65673811
0.65625856
0.65568335
0.65505973
0.65436831
0.65360086
0.6528662
0.65218594
0.65138663
0.65047088
0.6496363
0.64876766
0.64776001
0.64687849
0.6458205
0.64466908
0.64369465
0.64257141
0.64122638
0.6399826
0.63878574
0.63756996
0.63629484
0.63504758
0.63378372
0.63253796
0.6313156
0.63013636
0.62897459
0.62784947
0.6267712
0.62571037
0.62470089
0.62375145
0.62284071
0.62197797
0.62117077
0.62041248
0.61970366
0.61903371
0.6184199
0.61785517
0.61733228
0.61684092
0.61637884
0.61594449
0.61556841
0.61522513
0.61486449
0.61453412
0.61427871
0.61406608
0.61384554
0.61361951
0.61342305
0.61326407
0.61311353
0.61296388
0.61283771
0.61274174
0.61265893
0.61258335
0.61251176
0.61244709
0.61239697
0.61235274
0.61224277
0.61155287
0.60865317
0.60600777
0.60454751
0.60355523
0.60282925
0.60228485
0.60187214
0.60155796
0.60131891
0.60113788
0.60100206
0.60090171
0.60082931
0.60077906
0.60074654
0.60072833
0.60072187
0.60072509
0.60073582
0.60075221
0.60077273
0.60079611
0.60082124
0.60084707
0.60087276
0.60089828
0.60092349
0.60094828
0.60097265
0.6009965
0.60101966
0.60104195
0.60106324
0.6010834
0.60110223
0.60111948
0.60113484
0.60114805
0.60115872
0.60116649
0.60117131
0.60117377
0.60117474
0.60117498
0.66451922
0.6669206
0.66511617
0.66635247
0.66560507
0.6657062
0.66542711
0.66531145
0.66520909
0.66516703
0.66518702
0.66519288
0.6648696
0.66369225
0.66113739
0.65766424
0.65514706
0.65524492
0.65859595
0.66360992
0.66643436
0.66537698
0.66320018
0.66375033
0.66436689
0.6620224
0.66150733
0.6617801
0.66069931
0.66024068
0.65971099
0.65926889
0.65903429
0.65863523
0.65826561
0.65784616
0.65730096
0.65676756
0.65628827
0.65571441
0.65509278
0.65439719
0.65363318
0.65290783
0.65223137
0.65142306
0.65051373
0.64968903
0.64881203
0.64781584
0.64694282
0.64586526
0.64473358
0.64376536
0.64261249
0.64126957
0.64004188
0.63884858
0.63762546
0.63634377
0.6350898
0.63381809
0.63256659
0.63133817
0.63014974
0.62897704
0.62784139
0.62675043
0.62567718
0.62465728
0.62369617
0.62277497
0.62190224
0.62108227
0.62031065
0.61959089
0.61890924
0.61828714
0.61771577
0.61718526
0.61668696
0.61622083
0.61578106
0.61540223
0.61505783
0.61469824
0.61436448
0.6141029
0.61388711
0.61366556
0.61343408
0.61322567
0.6130574
0.612914
0.61278032
0.61266115
0.61256297
0.6124812
0.61240603
0.61233491
0.61226969
0.61221478
0.61217242
0.61211205
0.61153642
0.60884428
0.60600032
0.60446447
0.60343171
0.60267987
0.60211724
0.60168994
0.60136271
0.6011113
0.60091857
0.60077198
0.60066208
0.60058157
0.6005247
0.60048686
0.60046428
0.60045388
0.60045315
0.60046008
0.600473
0.60049057
0.60051167
0.60053537
0.6005609
0.6005876
0.6006149
0.60064233
0.60066947
0.60069599
0.60072163
0.6007462
0.60076955
0.60079157
0.60081212
0.60083116
0.60084863
0.60086442
0.60087823
0.60088964
0.60089817
0.6009036
0.60090641
0.60090754
0.6009078
0.66451705
0.66692352
0.66511776
0.66635209
0.66560733
0.66570624
0.66542787
0.66531186
0.66520939
0.6651671
0.6651876
0.66519783
0.66488467
0.66372301
0.6611859
0.65771342
0.65516917
0.65522352
0.65851178
0.66352689
0.66641752
0.66541988
0.66321718
0.66372129
0.66438791
0.66205403
0.66149916
0.66179317
0.66071598
0.66025358
0.65972922
0.6592753
0.65903309
0.65863762
0.65827851
0.65787079
0.65732765
0.65679777
0.65631876
0.65574633
0.6551262
0.65442687
0.65366653
0.65295081
0.65227647
0.65145866
0.65055672
0.64974051
0.64885506
0.6478732
0.64700446
0.64590976
0.64480046
0.64383454
0.64265333
0.64131584
0.64010304
0.63891127
0.63768137
0.63639399
0.63513431
0.63385719
0.63260139
0.63136507
0.63016597
0.62898312
0.62783961
0.62673334
0.62564473
0.62461421
0.62364224
0.62271131
0.62182613
0.62099375
0.62021096
0.61947986
0.61878732
0.61815585
0.61757647
0.61703718
0.61653173
0.61605832
0.61561118
0.61522718
0.61487627
0.61451002
0.61417426
0.61391365
0.61369839
0.61347568
0.61324619
0.61304438
0.6128787
0.61272217
0.61257072
0.61244533
0.61234607
0.61225922
0.61217932
0.61210321
0.61203379
0.61197773
0.61192787
0.61183243
0.61138749
0.60899643
0.60599585
0.60437654
0.60329102
0.60250038
0.60190844
0.60145886
0.60111482
0.60085063
0.60064785
0.60049302
0.60037603
0.60028918
0.60022651
0.60018335
0.60015596
0.60014129
0.60013686
0.60014062
0.60015088
0.60016621
0.60018543
0.60020757
0.60023181
0.60025748
0.60028405
0.60031107
0.60033816
0.60036503
0.60039142
0.60041713
0.60044197
0.60046579
0.60048842
0.6005097
0.60052943
0.60054739
0.60056324
0.60057648
0.60058648
0.60059291
0.60059625
0.60059758
0.60059788
0.66451516
0.66692711
0.66511914
0.66635174
0.66560835
0.66570633
0.66542871
0.66531231
0.6652097
0.66516717
0.66518813
0.66520283
0.66490012
0.66375476
0.66123639
0.65776516
0.65519313
0.65520222
0.65842505
0.6634391
0.66639758
0.66546427
0.66323598
0.66369095
0.66440869
0.66208798
0.66149094
0.66180613
0.66073336
0.66026702
0.65974843
0.65928249
0.65903222
0.65863922
0.65829065
0.6578954
0.65735451
0.65682872
0.65634951
0.65577883
0.65516017
0.65445738
0.65370116
0.65299572
0.65232225
0.65149555
0.6506026
0.64979342
0.64890014
0.64793461
0.64706593
0.64595655
0.64487069
0.64390222
0.6426937
0.64136618
0.64016894
0.63897807
0.63774051
0.63644626
0.63518046
0.63389615
0.63263521
0.63139317
0.6301844
0.62898998
0.6278355
0.6267168
0.62561526
0.62457499
0.62359108
0.62264976
0.6217535
0.62090762
0.62011085
0.61936795
0.6186635
0.61802341
0.61743521
0.61688586
0.61637212
0.61589189
0.61543677
0.61504691
0.61469148
0.61432158
0.61397634
0.61370327
0.61347989
0.61325146
0.61301196
0.61279743
0.61262609
0.61247797
0.61233576
0.61220524
0.61209719
0.61200603
0.6119217
0.61184071
0.611765
0.61170032
0.61165301
0.61160042
0.61123167
0.60910378
0.60594629
0.60421999
0.60307953
0.6022552
0.60163991
0.60117227
0.6008131
0.60053567
0.60032103
0.60015546
0.60002873
0.59993307
0.59986245
0.59981214
0.59977835
0.59975803
0.59974864
0.59974812
0.59975474
0.59976707
0.59978387
0.59980413
0.599827
0.59985174
0.59987778
0.59990461
0.59993182
0.59995906
0.59998605
0.60001257
0.60003842
0.60006342
0.60008742
0.60011022
0.60013161
0.60015132
0.60016891
0.60018376
0.60019506
0.60020236
0.60020616
0.60020765
0.60020799
0.66451417
0.66693191
0.66511885
0.66635136
0.66560842
0.6657065
0.66542952
0.66531275
0.66521002
0.66516723
0.66518863
0.66520788
0.66491578
0.66378688
0.66128761
0.6578178
0.65521797
0.65518174
0.65833826
0.66334951
0.6663764
0.66550898
0.66325595
0.66366023
0.66442879
0.66212333
0.66148247
0.66181868
0.66075098
0.66028086
0.65976845
0.65929049
0.65903166
0.65863977
0.65830185
0.65791966
0.65738154
0.65686044
0.65638088
0.65581228
0.65519443
0.65448844
0.65373689
0.65304219
0.65236728
0.65153248
0.65064875
0.64984456
0.64894478
0.64799742
0.64712401
0.64600403
0.64494265
0.64396785
0.642735
0.64142025
0.64023662
0.63904424
0.63779985
0.63650022
0.63522929
0.63394021
0.63267524
0.63142528
0.63020529
0.6290009
0.62783702
0.62670432
0.62558742
0.62453639
0.62354118
0.62259056
0.62168106
0.62082213
0.62001341
0.61925838
0.61854282
0.61789261
0.61729414
0.61673444
0.61621207
0.61572184
0.6152571
0.61485905
0.61449372
0.614115
0.61376561
0.61349099
0.61326407
0.61303014
0.61278747
0.61256996
0.6123875
0.6122171
0.61205645
0.61192227
0.61180993
0.61171026
0.61161825
0.61152986
0.6114483
0.6113806
0.61131901
0.61123016
0.6109586
0.60917396
0.60593466
0.60407522
0.60286683
0.60199857
0.60135148
0.60085982
0.60048209
0.60019019
0.59996407
0.59978904
0.59965424
0.59955148
0.5994745
0.59941841
0.59937934
0.59935419
0.59934041
0.59933593
0.59933904
0.59934827
0.59936242
0.59938045
0.59940149
0.5994248
0.59944975
0.59947583
0.59950259
0.59952967
0.59955674
0.59958355
0.59960989
0.59963556
0.59966035
0.59968407
0.59970647
0.59972724
0.59974593
0.59976184
0.59977408
0.59978204
0.59978621
0.59978786
0.59978822
0.6645135
0.66693544
0.66511793
0.66635147
0.66560779
0.66570693
0.66543043
0.66531322
0.66521035
0.6651673
0.66518908
0.66521296
0.6649318
0.66381996
0.66134089
0.65787321
0.65524495
0.65516165
0.658249
0.6632548
0.66635178
0.6655549
0.66327799
0.66362833
0.66444905
0.66216127
0.66147419
0.66183094
0.66076927
0.66029526
0.6597894
0.65929952
0.65903157
0.65863952
0.65831226
0.6579434
0.65740865
0.65689281
0.65641239
0.65584636
0.65522878
0.65452033
0.65377409
0.65309037
0.65241295
0.65157078
0.65069751
0.64989699
0.64899225
0.64806353
0.64718169
0.64605467
0.64501721
0.64403168
0.64277703
0.64147872
0.64030869
0.63911436
0.63786231
0.63655629
0.63527969
0.63398431
0.63271412
0.63145863
0.63022859
0.62901247
0.62783835
0.6266923
0.62556263
0.62450175
0.62349453
0.62253292
0.62161109
0.62073842
0.61991527
0.61914803
0.61842056
0.61776057
0.61715076
0.61657918
0.61604675
0.61554674
0.61507145
0.61466397
0.61429057
0.61390351
0.6135392
0.61324703
0.61300821
0.61276546
0.61251083
0.6122828
0.61209936
0.6119368
0.61177711
0.61162761
0.61150258
0.61139494
0.61129499
0.61119884
0.61110824
0.61103014
0.61097287
0.61091754
0.61068345
0.60917008
0.60589494
0.60387194
0.60259516
0.60168715
0.60101198
0.60049879
0.60010376
0.59979739
0.59955889
0.59937309
0.59922873
0.59911736
0.59903255
0.5989693
0.59892367
0.59889254
0.59887336
0.59886402
0.59886281
0.59886828
0.59887918
0.59889448
0.59891328
0.59893482
0.59895845
0.59898362
0.59900986
0.59903676
0.59906399
0.59909125
0.5991183
0.59914489
0.59917079
0.59919575
0.59921951
0.5992417
0.59926178
0.59927896
0.59929223
0.59930088
0.5993054
0.59930718
0.59930757
0.66451098
0.66693739
0.66511738
0.66635054
0.66560688
0.66570761
0.66543134
0.66531369
0.66521068
0.66516736
0.66518949
0.66521807
0.66494805
0.66385344
0.66139496
0.65792957
0.65527285
0.65514237
0.65815971
0.66315803
0.66632597
0.66560116
0.66330149
0.66359609
0.66446925
0.66220073
0.66146573
0.66184272
0.66078787
0.66031003
0.6598115
0.65930958
0.65903193
0.65863833
0.65832174
0.6579663
0.65743597
0.65692576
0.6564444
0.6558814
0.65526347
0.65455302
0.65381239
0.65313979
0.65245779
0.65160937
0.65074659
0.64994751
0.64904025
0.64813033
0.64723594
0.64610667
0.64509276
0.64409337
0.64282118
0.64154127
0.64038231
0.63918358
0.6379248
0.6366145
0.63533323
0.63403377
0.63275909
0.63149557
0.63025404
0.62902791
0.62784407
0.62668425
0.62554033
0.62446785
0.62344901
0.62247774
0.62154202
0.62065597
0.61982012
0.61904014
0.61830136
0.6176299
0.61700778
0.61642481
0.6158817
0.61536932
0.61488264
0.61446419
0.61407791
0.6136801
0.61330933
0.61301256
0.61276577
0.61251303
0.61224972
0.61200921
0.61180363
0.61161516
0.61144066
0.61129076
0.61115923
0.61104166
0.61093282
0.61082776
0.61073002
0.61064666
0.61056931
0.61047983
0.61031029
0.60912035
0.60591229
0.60368851
0.60233198
0.60137517
0.60066427
0.60012401
0.59970822
0.59938572
0.59913445
0.59893827
0.5987852
0.59866626
0.59857467
0.59850523
0.59845388
0.59841743
0.5983933
0.59837939
0.59837396
0.59837558
0.59838303
0.59839526
0.59841138
0.59843062
0.59845232
0.59847591
0.59850089
0.59852683
0.59855336
0.59858016
0.59860696
0.59863348
0.59865949
0.59868472
0.59870888
0.59873159
0.5987523
0.59877016
0.59878406
0.5987932
0.59879799
0.59879988
0.59880029
0.66450709
0.66693717
0.66511639
0.66634922
0.66560883
0.66570853
0.66543235
0.66531419
0.66521104
0.66516742
0.66518986
0.66522318
0.66496464
0.66388785
0.66145116
0.65798889
0.65530316
0.65512368
0.65806806
0.66305579
0.66629613
0.66564867
0.66332779
0.66356236
0.66448984
0.66224279
0.66145768
0.66185412
0.66080723
0.66032533
0.65983513
0.65932095
0.65903284
0.65863647
0.65833044
0.6579882
0.65746363
0.65695924
0.6564766
0.65591704
0.65529854
0.65458658
0.65385213
0.65319087
0.6525026
0.6516497
0.65079786
0.64999933
0.64909186
0.64819955
0.64729
0.64616234
0.64517035
0.64415338
0.6428673
0.64160815
0.64046009
0.63925679
0.63799036
0.6366749
0.63538811
0.63408321
0.63280279
0.63153358
0.63028213
0.62904413
0.62784978
0.62667677
0.62552102
0.62443792
0.62340712
0.62242356
0.62147454
0.62057474
0.61972434
0.61893218
0.61818159
0.61749853
0.61686304
0.61626685
0.6157117
0.61518715
0.61468763
0.61425634
0.61385903
0.613449
0.61305932
0.61274165
0.6124807
0.61221742
0.61194209
0.61169424
0.61149085
0.61130665
0.61112387
0.61095177
0.610806
0.61067815
0.61055942
0.61044521
0.61033681
0.61024234
0.61017193
0.6101055
0.60994336
0.60897672
0.60590699
0.60345989
0.60202477
0.60102142
0.60027642
0.59971011
0.59927405
0.59893544
0.598671
0.5984638
0.59830128
0.59817403
0.59807497
0.59799867
0.59794095
0.59789854
0.59786882
0.59784972
0.5978395
0.59783675
0.59784026
0.59784899
0.59786206
0.59787869
0.5978982
0.59792001
0.59794361
0.59796855
0.59799442
0.59802088
0.59804764
0.59807439
0.59810085
0.59812673
0.5981517
0.59817533
0.598197
0.59821578
0.59823045
0.59824012
0.59824519
0.59824717
0.5982476
0.66450263
0.66693724
0.66511471
0.66634875
0.66561298
0.66570938
0.66543336
0.66531468
0.66521139
0.66516747
0.66519018
0.6652283
0.66498147
0.66392271
0.66150824
0.65804923
0.65533438
0.65510563
0.65797643
0.6629512
0.66626498
0.66569687
0.66335615
0.66352773
0.66451083
0.66228609
0.66144966
0.66186498
0.66082695
0.66034088
0.65985928
0.65933356
0.65903433
0.6586339
0.65833813
0.65800902
0.65749161
0.65699321
0.65650937
0.65595347
0.65533445
0.65462119
0.6538932
0.65324307
0.65254632
0.6516906
0.65084921
0.6500496
0.64914457
0.64826842
0.64734142
0.64621981
0.64524823
0.64421145
0.64291671
0.64167912
0.64053894
0.6393291
0.63805596
0.63673764
0.63544656
0.6341381
0.6328524
0.63157479
0.6303121
0.62906404
0.62786005
0.62667361
0.6255047
0.62440903
0.62336617
0.62237185
0.62140872
0.62049525
0.61963168
0.61882624
0.61806398
0.61736785
0.61671883
0.61611032
0.61554231
0.61500388
0.61449179
0.61404744
0.61363527
0.61321305
0.61281469
0.61248921
0.61221605
0.61193834
0.61164858
0.61137992
0.61114742
0.61093829
0.61074603
0.61057521
0.61042099
0.61028292
0.61015472
0.61003075
0.60991454
0.60981277
0.6097172
0.60962088
0.60949929
0.60878659
0.60595358
0.60326321
0.60173643
0.60067615
0.5998894
0.59929181
0.59883201
0.59847518
0.59819658
0.59797815
0.59780649
0.59767156
0.59756578
0.59748342
0.59742007
0.59737232
0.59733751
0.59731352
0.59729863
0.59729142
0.59729073
0.59729555
0.59730502
0.59731838
0.59733496
0.59735419
0.59737554
0.59739856
0.59742284
0.59744801
0.59747374
0.59749974
0.5975257
0.5975513
0.59757619
0.59759994
0.59762188
0.59764107
0.59765619
0.59766623
0.59767153
0.5976736
0.59767404
0.66449786
0.66693872
0.66511379
0.66634882
0.66561667
0.66570994
0.66543446
0.6653152
0.66521176
0.66516752
0.66519047
0.66523337
0.6649986
0.66395852
0.6615675
0.65811267
0.65536826
0.65508839
0.65788266
0.66284081
0.6662292
0.66574617
0.66338788
0.66349147
0.66453221
0.66233187
0.66144232
0.66187535
0.66084752
0.66035684
0.65988423
0.65934771
0.65903646
0.6586309
0.65834495
0.65802889
0.65752017
0.65702769
0.65654229
0.65599052
0.65537122
0.65465666
0.65393594
0.65329659
0.65258981
0.65173367
0.65090219
0.65010132
0.64920124
0.64833895
0.64739329
0.64628147
0.64532758
0.64426821
0.64296906
0.64175426
0.64062141
0.63940533
0.63812465
0.63680253
0.63550609
0.63419272
0.63290079
0.63161701
0.63034497
0.62908498
0.62786955
0.6266703
0.62549105
0.62438395
0.62332908
0.62232074
0.6213439
0.62041662
0.61953875
0.61872131
0.61794714
0.61723751
0.61657405
0.6159512
0.61536947
0.61481737
0.61429067
0.61383091
0.61340587
0.61296907
0.61254991
0.61220246
0.61191467
0.61162599
0.61132525
0.61105172
0.61082146
0.6106096
0.61039973
0.61020302
0.61003391
0.60988367
0.60974465
0.60961091
0.60948336
0.60937116
0.60928481
0.60920426
0.6090702
0.60850104
0.6059605
0.60304237
0.60141901
0.60030077
0.5994728
0.59884453
0.59836121
0.59798598
0.59769278
0.59746257
0.59728124
0.59713818
0.5970254
0.5969368
0.59686774
0.59681463
0.59677471
0.5967458
0.59672619
0.59671445
0.59670946
0.59671024
0.59671596
0.59672591
0.59673943
0.59675597
0.59677501
0.5967961
0.5968188
0.59684275
0.59686761
0.59689303
0.59691869
0.59694425
0.59696932
0.59699342
0.59701584
0.59703558
0.59705122
0.59706166
0.59706718
0.59706934
0.59706979
0.66449292
0.66694197
0.66511174
0.66634829
0.66561869
0.66571028
0.66543556
0.66531572
0.66521213
0.66516756
0.66519073
0.66523843
0.66501598
0.66399485
0.66162772
0.65817717
0.65540302
0.6550718
0.65778903
0.66272775
0.66619196
0.66579604
0.66342182
0.66345419
0.66455398
0.66237828
0.66143516
0.66188522
0.66086864
0.66037295
0.65990994
0.6593634
0.6590393
0.65862754
0.65835075
0.6580479
0.65754909
0.6570621
0.65657569
0.65602854
0.65540851
0.65469316
0.65398045
0.65335079
0.65263238
0.65177776
0.65095516
0.65015208
0.64925911
0.64840834
0.64744367
0.64634542
0.64540624
0.64432351
0.64302547
0.64183346
0.6407041
0.63948057
0.63819353
0.63686974
0.63556966
0.63425281
0.63295489
0.63166225
0.63037947
0.62910965
0.62788494
0.62667111
0.62548053
0.62436016
0.62329282
0.62227222
0.62128144
0.62034002
0.61944884
0.6186175
0.61783095
0.61710687
0.61642964
0.61579344
0.61519716
0.61463059
0.61409072
0.61361681
0.61317612
0.61272642
0.61229684
0.61193879
0.61163553
0.61132895
0.61100914
0.61070956
0.61044839
0.61021584
0.61000093
0.60980393
0.60962376
0.60946262
0.60931288
0.60916848
0.60903251
0.60891111
0.60879668
0.60869027
0.6085826
0.60818376
0.60599127
0.60287454
0.60112936
0.59994096
0.59906501
0.59840169
0.59789177
0.59749596
0.59718667
0.59694387
0.59675259
0.59660152
0.59648211
0.59638783
0.59631369
0.59625587
0.59621143
0.59617809
0.59615408
0.59613799
0.59612868
0.59612523
0.59612685
0.59613285
0.59614265
0.59615571
0.59617156
0.59618974
0.59620986
0.59623155
0.59625445