/*--------------------------------*- C++ -*----------------------------------*\
| =========                 |                                                 |
| \\      /  F ield         | OpenFOAM: The Open Source CFD Toolbox           |
|  \\    /   O peration     | Version:  2506                                  |
|   \\  /    A nd           | Website:  www.openfoam.com                      |
|    \\/     M anipulation  |                                                 |
\*---------------------------------------------------------------------------*/
FoamFile
{
    version     2.0;
    format      ascii;
    arch        "LSB;label=32;scalar=64";
    class       volScalarField;
    location    "2.997";
    object      p;
}
// * * * * * * * * * * * * * * * * * * * * * * * * * * * * * * * * * * * * * //

dimensions      [1 -1 -2 0 0 0 0];

internalField   nonuniform List<scalar> 
1375
(
47039.582
47040.108
47040.361
47040.747
47041.167
47041.659
47042.209
47042.829
47043.523
47039.569
47040.098
47040.352
47040.739
47041.159
47041.649
47042.198
47042.816
47043.508
47044.276
47039.557
47040.087
47040.343
47040.731
47041.15
47041.64
47042.188
47042.802
47043.493
47044.259
47039.549
47040.076
47040.336
47040.723
47041.142
47041.631
47042.178
47042.791
47043.477
47044.241
47039.546
47040.065
47040.327
47040.714
47041.133
47041.62
47042.165
47042.776
47043.458
47044.217
47039.549
47040.053
47040.317
47040.703
47041.122
47041.607
47042.149
47042.757
47043.435
47044.188
47039.554
47040.039
47040.305
47040.691
47041.109
47041.591
47042.13
47042.734
47043.408
47044.155
47039.562
47040.023
47040.292
47040.676
47041.093
47041.572
47042.108
47042.709
47043.377
47044.117
47039.571
47040.005
47040.277
47040.66
47041.076
47041.551
47042.084
47042.68
47043.341
47044.073
47039.58
47039.983
47040.261
47040.643
47041.055
47041.527
47042.056
47042.646
47043.3
47044.023
47039.588
47039.959
47040.242
47040.623
47041.032
47041.5
47042.025
47042.608
47043.254
47043.968
47039.59
47039.935
47040.223
47040.6
47041.006
47041.47
47041.989
47042.565
47043.202
47043.906
47044.689
47039.588
47039.911
47040.201
47040.574
47040.978
47041.437
47041.949
47042.517
47043.144
47043.837
47044.606
47039.582
47039.886
47040.178
47040.545
47040.946
47041.399
47041.904
47042.462
47043.078
47043.758
47044.511
47039.569
47039.859
47040.151
47040.513
47040.91
47041.357
47041.853
47042.401
47043.005
47043.67
47044.405
47039.55
47039.829
47040.122
47040.478
47040.87
47041.31
47041.796
47042.333
47042.923
47043.572
47044.286
47039.524
47039.797
47040.089
47040.439
47040.825
47041.256
47041.733
47042.256
47042.831
47043.461
47044.152
47039.494
47039.761
47040.053
47040.396
47040.775
47041.197
47041.661
47042.17
47042.727
47043.336
47044.002
47039.459
47039.723
47040.011
47040.347
47040.718
47041.129
47041.58
47042.073
47042.611
47043.197
47043.835
47039.421
47039.68
47039.965
47040.293
47040.655
47041.054
47041.49
47041.965
47042.481
47043.042
47043.649
47039.379
47039.633
47039.914
47040.233
47040.584
47040.969
47041.388
47041.844
47042.336
47042.869
47043.443
47039.333
47039.582
47039.856
47040.165
47040.504
47040.874
47041.275
47041.708
47042.175
47042.677
47043.215
47039.282
47039.524
47039.791
47040.089
47040.414
47040.767
47041.148
47041.558
47041.997
47042.465
47042.964
47039.226
47039.461
47039.719
47040.004
47040.314
47040.649
47041.008
47041.391
47041.8
47042.233
47042.69
47039.163
47039.39
47039.638
47039.909
47040.202
47040.517
47040.852
47041.208
47041.583
47041.978
47042.391
47039.094
47039.312
47039.548
47039.803
47040.078
47040.37
47040.68
47041.006
47041.347
47041.701
47042.068
47042.445
47039.018
47039.225
47039.447
47039.685
47039.94
47040.208
47040.491
47040.785
47041.089
47041.402
47041.722
47042.044
47038.934
47039.128
47039.335
47039.555
47039.787
47040.031
47040.284
47040.545
47040.812
47041.082
47041.352
47041.62
47038.841
47039.02
47039.21
47039.41
47039.619
47039.836
47040.059
47040.286
47040.514
47040.741
47040.963
47041.176
47038.737
47038.901
47039.072
47039.251
47039.436
47039.625
47039.817
47040.009
47040.198
47040.382
47040.556
47040.717
47038.621
47038.768
47038.919
47039.076
47039.235
47039.396
47039.557
47039.714
47039.864
47040.005
47040.133
47040.245
47038.494
47038.622
47038.753
47038.887
47039.021
47039.153
47039.282
47039.404
47039.517
47039.618
47039.703
47039.769
47039.812
47038.349
47038.458
47038.568
47038.678
47038.786
47038.89
47038.988
47039.077
47039.155
47039.218
47039.263
47039.287
47039.288
47038.194
47038.284
47038.373
47038.459
47038.542
47038.619
47038.688
47038.746
47038.79
47038.819
47038.829
47038.818
47038.783
47038.011
47038.081
47038.148
47038.212
47038.271
47038.322
47038.363
47038.393
47038.408
47038.407
47038.387
47038.346
47038.283
47038.195
47037.828
47037.88
47037.927
47037.969
47038.005
47038.032
47038.049
47038.053
47038.044
47038.018
47037.974
47037.911
47037.826
47037.719
47037.594
47037.625
47037.653
47037.675
47037.69
47037.696
47037.692
47037.675
47037.644
47037.598
47037.536
47037.456
47037.358
47037.24
47037.385
47037.403
47037.414
47037.419
47037.416
47037.404
47037.382
47037.348
47037.302
47037.242
47037.168
47037.079
47036.974
47036.851
47036.71
47037.087
47037.085
47037.078
47037.066
47037.047
47037.019
47036.982
47036.935
47036.877
47036.806
47036.724
47036.63
47036.521
47036.399
47036.262
47036.861
47036.854
47036.838
47036.816
47036.785
47036.747
47036.701
47036.646
47036.581
47036.507
47036.421
47036.326
47036.22
47036.104
47035.979
47035.845
47036.507
47036.478
47036.444
47036.406
47036.362
47036.313
47036.256
47036.193
47036.122
47036.045
47035.959
47035.866
47035.762
47035.651
47035.534
47035.411
47035.282
47036.304
47036.278
47036.244
47036.203
47036.155
47036.102
47036.043
47035.979
47035.911
47035.837
47035.759
47035.675
47035.585
47035.49
47035.391
47035.287
47035.18
47035.951
47035.903
47035.853
47035.799
47035.741
47035.679
47035.615
47035.548
47035.478
47035.405
47035.329
47035.249
47035.164
47035.076
47034.985
47034.892
47034.796
47034.699
47035.863
47035.827
47035.787
47035.743
47035.695
47035.641
47035.584
47035.526
47035.467
47035.406
47035.344
47035.281
47035.217
47035.149
47035.078
47035.006
47034.934
47034.86
47034.786
47035.625
47035.577
47035.529
47035.479
47035.429
47035.377
47035.324
47035.264
47035.199
47035.139
47035.08
47035.02
47034.96
47034.898
47034.834
47034.767
47034.699
47034.631
47034.562
47034.492
47035.84
47035.821
47035.796
47035.769
47035.739
47035.706
47035.671
47035.632
47035.59
47035.547
47035.505
47035.463
47035.421
47035.379
47035.335
47035.292
47035.249
47035.205
47035.162
47035.119
47035.076
47035.034
47035.581
47035.522
47035.468
47035.419
47035.372
47035.328
47035.283
47035.238
47035.192
47035.144
47035.096
47035.046
47034.996
47034.945
47034.892
47034.84
47034.788
47034.736
47034.681
47034.624
47034.568
47034.514
47034.464
47036.626
47036.686
47036.73
47036.762
47036.781
47036.792
47036.795
47036.792
47036.784
47036.771
47036.756
47036.739
47036.719
47036.697
47036.674
47036.65
47036.626
47036.6
47036.575
47036.549
47036.522
47036.495
47036.467
47036.44
47036.412
47034.974
47034.885
47034.801
47034.723
47034.65
47034.582
47034.517
47034.456
47034.398
47034.342
47034.287
47034.234
47034.181
47034.13
47034.079
47034.028
47033.979
47033.93
47033.882
47033.834
47033.788
47033.743
47033.7
47033.658
47033.618
47033.579
47033.542
47040.211
47040.202
47040.194
47040.181
47040.157
47040.12
47040.07
47040.009
47039.946
47039.882
47039.813
47039.741
47039.667
47039.597
47039.533
47039.473
47039.419
47039.368
47039.317
47039.266
47039.213
47039.158
47039.101
47039.042
47038.98
47038.915
47038.845
47038.77
47038.687
47038.596
47038.494
47038.381
47038.252
47038.113
47037.946
47037.776
47037.561
47037.358
47037.084
47036.859
47036.53
47036.323
47035.994
47035.895
47035.668
47035.856
47035.65
47036.564
47035.068
47039.475
47039.464
47039.452
47039.441
47039.434
47039.43
47039.428
47039.425
47039.416
47039.402
47039.386
47039.368
47039.346
47039.319
47039.285
47039.247
47039.205
47039.16
47039.114
47039.066
47039.017
47038.966
47038.914
47038.861
47038.804
47038.745
47038.682
47038.615
47038.541
47038.46
47038.369
47038.268
47038.151
47038.024
47037.872
47037.713
47037.512
47037.32
47037.06
47036.844
47036.53
47036.332
47036.013
47035.925
47035.694
47035.881
47035.685
47036.565
47035.128
47039.128
47039.116
47039.103
47039.091
47039.081
47039.072
47039.064
47039.055
47039.046
47039.036
47039.026
47039.015
47039.003
47038.989
47038.973
47038.954
47038.931
47038.904
47038.874
47038.841
47038.804
47038.765
47038.723
47038.679
47038.631
47038.58
47038.526
47038.467
47038.402
47038.33
47038.249
47038.158
47038.053
47037.936
47037.796
47037.648
47037.46
47037.277
47037.031
47036.824
47036.523
47036.337
47036.025
47035.953
47035.716
47035.91
47035.709
47036.585
47035.172
47039.13
47039.114
47039.098
47039.081
47039.064
47039.046
47039.027
47039.005
47038.983
47038.959
47038.934
47038.908
47038.881
47038.853
47038.824
47038.795
47038.766
47038.735
47038.703
47038.67
47038.635
47038.599
47038.561
47038.521
47038.479
47038.434
47038.386
47038.335
47038.278
47038.214
47038.142
47038.061
47037.966
47037.858
47037.729
47037.589
47037.414
47037.238
47037.004
47036.807
47036.518
47036.342
47036.037
47035.978
47035.739
47035.938
47035.732
47036.595
47035.213
47039.097
47039.082
47039.066
47039.05
47039.032
47039.014
47038.993
47038.969
47038.944
47038.917
47038.888
47038.857
47038.824
47038.79
47038.754
47038.716
47038.678
47038.638
47038.599
47038.558
47038.518
47038.477
47038.436
47038.395
47038.354
47038.311
47038.266
47038.219
47038.168
47038.111
47038.047
47037.974
47037.887
47037.788
47037.669
47037.537
47037.372
47037.204
47036.982
47036.792
47036.516
47036.348
47036.052
47036.002
47035.761
47035.966
47035.756
47036.599
47035.256
47038.989
47038.975
47038.961
47038.946
47038.93
47038.913
47038.893
47038.872
47038.848
47038.822
47038.794
47038.765
47038.733
47038.699
47038.663
47038.626
47038.586
47038.545
47038.503
47038.46
47038.417
47038.374
47038.33
47038.288
47038.245
47038.203
47038.16
47038.116
47038.069
47038.018
47037.96
47037.893
47037.814
47037.723
47037.612
47037.486
47037.331
47037.17
47036.96
47036.777
47036.514
47036.353
47036.067
47036.025
47035.782
47035.992
47035.776
47036.605
47035.297
47038.873
47038.86
47038.846
47038.832
47038.817
47038.8
47038.781
47038.76
47038.737
47038.712
47038.686
47038.656
47038.625
47038.592
47038.556
47038.519
47038.481
47038.44
47038.399
47038.357
47038.314
47038.271
47038.228
47038.185
47038.144
47038.103
47038.062
47038.02
47037.977
47037.93
47037.877
47037.816
47037.744
47037.659
47037.556
47037.437
47037.291
47037.137
47036.937
47036.761
47036.511
47036.358
47036.082
47036.047
47035.802
47036.017
47035.793
47036.616
47035.336
47038.77
47038.758
47038.745
47038.732
47038.717
47038.701
47038.682
47038.662
47038.639
47038.612
47038.584
47038.555
47038.523
47038.49
47038.454
47038.417
47038.378
47038.338
47038.296
47038.254
47038.211
47038.169
47038.127
47038.085
47038.045
47038.006
47037.967
47037.929
47037.889
47037.846
47037.798
47037.743
47037.677
47037.598
47037.501
47037.389
47037.251
47037.104
47036.915
47036.745
47036.508
47036.362
47036.097
47036.067
47035.822
47036.041
47035.808
47036.627
47035.372
47038.671
47038.66
47038.648
47038.635
47038.621
47038.605
47038.587
47038.566
47038.544
47038.52
47038.493
47038.464
47038.432
47038.398
47038.362
47038.324
47038.284
47038.243
47038.201
47038.158
47038.115
47038.072
47038.03
47037.989
47037.95
47037.913
47037.876
47037.84
47037.804
47037.765
47037.722
47037.671
47037.611
47037.538
47037.448
47037.343
47037.213
47037.072
47036.893
47036.731
47036.506
47036.366
47036.113
47036.086
47035.841
47036.062
47035.819
47036.639
47035.405
47038.567
47038.557
47038.546
47038.534
47038.521
47038.507
47038.49
47038.47
47038.449
47038.425
47038.399
47038.37
47038.339
47038.305
47038.27
47038.232
47038.192
47038.151
47038.108
47038.065
47038.022
47037.979
47037.938
47037.897
47037.859
47037.823
47037.788
47037.755
47037.721
47037.686
47037.647
47037.601
47037.546
47037.479
47037.396
47037.297
47037.175
47037.041
47036.873
47036.717
47036.505
47036.37
47036.128
47036.105
47035.861
47036.082
47035.829
47036.651
47035.434
47038.458
47038.449
47038.439
47038.428
47038.417
47038.403
47038.387
47038.368
47038.348
47038.325
47038.3
47038.272
47038.241
47038.208
47038.173
47038.136
47038.096
47038.056
47038.014
47037.971
47037.928
47037.886
47037.845
47037.806
47037.769
47037.734
47037.701
47037.67
47037.639
47037.607
47037.572
47037.531
47037.481
47037.419
47037.343
47037.251
47037.137
47037.011
47036.853
47036.705
47036.505
47036.376
47036.144
47036.124
47035.88
47036.101
47035.837
47036.661
47035.46
47038.346
47038.339
47038.329
47038.318
47038.306
47038.293
47038.278
47038.26
47038.24
47038.218
47038.193
47038.166
47038.137
47038.105
47038.07
47038.034
47037.995
47037.955
47037.914
47037.873
47037.831
47037.79
47037.75
47037.712
47037.676
47037.643
47037.612
47037.584
47037.556
47037.527
47037.496
47037.459
47037.414
47037.359
47037.289
47037.204
47037.099
47036.981
47036.834
47036.693
47036.505
47036.381
47036.161
47036.143
47035.899
47036.119
47035.844
47036.667
47035.485
47038.148
47038.128
47038.106
47038.082
47038.055
47038.026
47037.995
47037.962
47037.926
47037.889
47037.85
47037.81
47037.77
47037.729
47037.69
47037.651
47037.615
47037.581
47037.55
47037.522
47037.496
47037.471
47037.446
47037.418
47037.386
47037.346
47037.297
47037.234
47037.156
47037.06
47036.951
47036.814
47036.682
47036.506
47036.388
47036.177
47036.161
47035.918
47036.135
47035.85
47036.676
47035.51
47037.661
47037.622
47037.584
47037.548
47037.514
47037.482
47037.454
47037.428
47037.405
47037.383
47037.361
47037.338
47037.31
47037.276
47037.232
47037.177
47037.107
47037.02
47036.92
47036.794
47036.671
47036.507
47036.395
47036.194
47036.179
47035.935
47036.151
47035.856
47036.693
47035.533
47037.31
47037.292
47037.274
47037.255
47037.232
47037.203
47037.166
47037.117
47037.056
47036.978
47036.888
47036.774
47036.66
47036.507
47036.403
47036.211
47036.196
47035.953
47036.167
47035.86
47036.716
47035.544
47037.055
47037.002
47036.935
47036.854
47036.752
47036.648
47036.507
47036.41
47036.228
47036.214
47035.971
47036.184
47035.865
47036.733
47035.543
47036.729
47036.635
47036.507
47036.418
47036.245
47036.231
47035.989
47036.199
47035.871
47036.745
47035.544
47036.425
47036.262
47036.247
47036.006
47036.215
47035.878
47036.762
47035.55
47036.023
47036.232
47035.888
47036.784
47035.558
47035.899
47036.81
47035.566
47035.575
)
;

boundaryField
{
    Side
    {
        type            empty;
    }
    Inlet
    {
        type            totalPressure;
        rho             rho;
        psi             none;
        gamma           1;
        p0              uniform 50000;
        value           nonuniform List<scalar> 
48
(
47036.795
47036.782
47036.771
47036.76
47036.749
47036.737
47036.724
47036.711
47036.696
47036.681
47036.664
47036.646
47036.627
47036.607
47036.587
47036.566
47036.546
47036.525
47036.504
47036.483
47036.463
47036.442
47036.421
47036.4
47036.379
47036.358
47036.337
47036.803
47036.8
47036.796
47036.794
47036.795
47036.797
47036.8
47036.804
47036.808
47036.813
47036.818
47036.823
47036.824
47036.82
47036.817
47036.822
47036.835
47036.852
47036.869
47036.887
47036.905
)
;
    }
    Airfoil
    {
        type            zeroGradient;
    }
    Outlet
    {
        type            fixedValue;
        value           nonuniform List<scalar> 0();
    }
    procBoundary3to2
    {
        type            processor;
        value           nonuniform List<scalar> 
65
(
47045.138
47045.116
47045.092
47045.063
47045.028
47044.987
47044.941
47044.889
47044.83
47044.764
47044.764
47045.558
47045.457
47045.343
47045.215
47045.071
47044.909
47044.73
47044.529
47044.307
47044.061
47043.791
47043.494
47043.171
47042.821
47042.821
47042.829
47042.367
47041.882
47041.378
47040.862
47040.336
47040.336
47039.829
47039.262
47038.722
47038.722
47038.08
47037.589
47037.101
47037.101
47036.55
47036.112
47036.112
47035.702
47035.702
47035.148
47035.069
47035.069
47034.6
47034.6
47034.712
47034.712
47034.423
47034.423
47034.354
47034.994
47034.994
47034.416
47034.416
47034.369
47036.384
47036.384
47036.356
47033.508
)
;
    }
    procBoundary3to4
    {
        type            processor;
        value           nonuniform List<scalar> 
57
(
47038.221
47038.212
47038.204
47038.193
47038.18
47038.165
47038.165
47038.027
47038.008
47037.986
47037.963
47037.937
47037.909
47037.878
47037.846
47037.812
47037.776
47037.738
47037.7
47037.7
47037.546
47037.509
47037.474
47037.44
47037.408
47037.379
47037.353
47037.331
47037.331
47037.212
47037.198
47037.184
47037.169
47037.151
47037.128
47037.097
47037.097
47036.992
47036.947
47036.889
47036.818
47036.818
47036.704
47036.621
47036.506
47036.506
47036.431
47036.277
47036.262
47036.262
47036.04
47036.248
47036.248
47035.913
47036.836
47036.836
47035.586
)
;
    }
    procBoundary3to10
    {
        type            processor;
        value           nonuniform List<scalar> 
23
(
47039.591
47040.116
47040.367
47040.753
47041.17
47041.661
47042.21
47042.829
47044.297
47043.524
47044.297
47040.223
47039.487
47039.142
47039.145
47039.113
47039.005
47038.888
47038.785
47038.686
47038.581
47038.471
47038.359
)
;
    }
    procBoundary3to11
    {
        type            processor;
        value           uniform 47038.227;
    }
}


// ************************************************************************* //
