/*--------------------------------*- C++ -*----------------------------------*\
| =========                 |                                                 |
| \\      /  F ield         | OpenFOAM: The Open Source CFD Toolbox           |
|  \\    /   O peration     | Version:  2506                                  |
|   \\  /    A nd           | Website:  www.openfoam.com                      |
|    \\/     M anipulation  |                                                 |
\*---------------------------------------------------------------------------*/
FoamFile
{
    version     2.0;
    format      ascii;
    arch        "LSB;label=32;scalar=64";
    class       volScalarField;
    location    "0.021";
    object      rho;
}
// * * * * * * * * * * * * * * * * * * * * * * * * * * * * * * * * * * * * * //

dimensions      [1 -3 0 0 0 0 0];

internalField   nonuniform List<scalar> 
13761
(
0.53719785
0.53363467
0.5302072
0.55999424
0.55594593
0.55198212
0.54810557
0.54432468
0.54065631
0.53712027
0.53372211
0.53046199
0.57563533
0.57151038
0.56741501
0.56336243
0.55936975
0.55544963
0.5516216
0.54790219
0.54429836
0.54081064
0.5374497
0.53422563
0.53113851
0.59484423
0.59087446
0.58685892
0.58281688
0.57876636
0.57472695
0.5707149
0.5667508
0.56284819
0.55901765
0.55526318
0.55159489
0.54803138
0.54459164
0.54128079
0.53809812
0.53504763
0.60879033
0.60515479
0.60143407
0.59763813
0.5937801
0.5898758
0.58593968
0.58199517
0.57805783
0.57414223
0.57026091
0.56643017
0.56266398
0.55898062
0.55539572
0.55191513
0.5485403
0.54528332
0.54215535
0.53915488
0.53628259
0.62115468
0.61797241
0.61466272
0.61124268
0.60772339
0.60411807
0.6004351
0.59668722
0.59288973
0.58906215
0.58522147
0.58138478
0.57756752
0.57378954
0.57006368
0.56639838
0.562799
0.55927742
0.55585259
0.5525426
0.54935241
0.54628044
0.543332
0.54051082
0.53782163
0.63174534
0.62905732
0.62623831
0.62329263
0.62021881
0.61702362
0.61371807
0.61031247
0.60682247
0.60325582
0.59962523
0.59594637
0.59223285
0.58850634
0.58478112
0.58107159
0.57738927
0.57374953
0.57016675
0.56665776
0.56323695
0.55990955
0.55667821
0.55355552
0.55055299
0.54766832
0.54490312
0.54225873
0.53973246
0.64046743
0.63828582
0.63598429
0.63354522
0.63095341
0.62823768
0.62540132
0.62243965
0.61935721
0.61616704
0.612881
0.60951142
0.60606429
0.60255347
0.5989913
0.59539733
0.5917869
0.58817524
0.58457614
0.58100845
0.57748438
0.57401039
0.57059316
0.56724631
0.563988
0.56083499
0.55779253
0.55485813
0.55203767
0.54933564
0.54675639
0.54430355
0.54197762
0.64751504
0.6458074
0.64395977
0.64198906
0.63989503
0.63769284
0.63535129
0.63286165
0.63025257
0.62752125
0.62466856
0.62170215
0.61862924
0.61546104
0.61221065
0.60888433
0.60549403
0.60205504
0.59858042
0.5950895
0.59159523
0.588112
0.58465072
0.58122519
0.5778493
0.57453871
0.5713061
0.56815647
0.56509404
0.56213088
0.55927802
0.55653313
0.55389865
0.55137689
0.54896459
0.54666067
0.65299899
0.65169945
0.65027632
0.64876751
0.64713361
0.64536769
0.64348317
0.64148572
0.63937915
0.63712458
0.63473097
0.63222421
0.62960342
0.62686424
0.62401102
0.62105332
0.61800607
0.6148786
0.61167584
0.60841222
0.60509743
0.60175049
0.59838502
0.59501492
0.5916519
0.58831332
0.58501075
0.58174914
0.57853645
0.57538766
0.57231942
0.56934657
0.56647477
0.56370083
0.5610306
0.55846948
0.55602151
0.55369056
0.55147846
0.5493729
0.65789442
0.65710445
0.6561738
0.65514795
0.65403185
0.65279509
0.65144428
0.65000961
0.64845793
0.64677951
0.64498242
0.6430751
0.64106054
0.63889676
0.63660596
0.63420547
0.63168845
0.62905743
0.62631917
0.6234805
0.62055451
0.61754903
0.61447045
0.61132894
0.60813938
0.60491471
0.60167176
0.59842203
0.59517977
0.59195604
0.58876249
0.5856118
0.58251899
0.57949458
0.57654339
0.57367182
0.57089044
0.5682087
0.56562505
0.56314255
0.56076389
0.55848576
0.55630651
0.55424102
0.66096985
0.66046745
0.65996926
0.65935207
0.65869191
0.6579521
0.65707365
0.65610803
0.65505206
0.65387109
0.65258939
0.65123227
0.64976299
0.64815849
0.64644063
0.64462665
0.64269977
0.64062437
0.63843287
0.63613308
0.63372673
0.63120925
0.6285845
0.62586155
0.62305636
0.6201742
0.61722047
0.6142091
0.61114863
0.60805669
0.60494523
0.6018274
0.59871303
0.59561739
0.59255096
0.58951812
0.58652803
0.58359648
0.58073837
0.57796604
0.57528523
0.57269253
0.57019335
0.56779391
0.56549763
0.5633081
0.56122925
0.55925089
0.5573554
0.66234916
0.66222574
0.66233121
0.66249503
0.66234142
0.66202214
0.66161427
0.66115418
0.66069642
0.66010794
0.65950413
0.65880011
0.6579677
0.65706233
0.65605767
0.65494086
0.6537321
0.65245443
0.65105578
0.64952686
0.64789944
0.64617657
0.6443357
0.64235061
0.64025996
0.63806499
0.63576173
0.63335131
0.63083952
0.62823597
0.62555372
0.62279505
0.61996739
0.6170787
0.61414349
0.61117457
0.60818692
0.60519036
0.60219839
0.59922294
0.5962735
0.59336112
0.59050066
0.58770017
0.58496423
0.58230193
0.57972174
0.57723053
0.57482825
0.57251838
0.57030343
0.56818023
0.56614624
0.5642146
0.56240405
0.66363849
0.66343057
0.66327311
0.66413005
0.66482667
0.66466229
0.66370704
0.66336778
0.66290493
0.66275688
0.66264523
0.66276405
0.66293538
0.66283453
0.66257529
0.66218727
0.66177688
0.66135754
0.66082781
0.6602845
0.6596256
0.65885117
0.65800453
0.65706143
0.65600165
0.65486211
0.65365059
0.65231843
0.65086349
0.6493173
0.64767732
0.64591382
0.64402084
0.64203183
0.63993673
0.63774292
0.63544433
0.63304605
0.63055962
0.62799696
0.62535998
0.62265577
0.61989689
0.6170925
0.61425835
0.6114047
0.60854393
0.60568507
0.60284099
0.60001992
0.59722696
0.59447236
0.59177197
0.58913954
0.58658427
0.584111
0.58171713
0.57940767
0.57718922
0.57506432
0.57303602
0.57111054
0.56928049
0.56752476
0.65884815
0.66996561
0.66608434
0.66592581
0.66591741
0.6658757
0.66584826
0.66583931
0.66584864
0.66588159
0.66624029
0.66653032
0.66923594
0.67047997
0.67102213
0.66677031
0.66305044
0.66142825
0.66122888
0.66186269
0.6639908
0.66721602
0.6672086
0.66479571
0.66435031
0.66450406
0.66504062
0.66447921
0.66418662
0.66420515
0.66418516
0.66410792
0.66405663
0.66425227
0.66427314
0.66451855
0.66437034
0.6643334
0.66453445
0.66460468
0.66396182
0.66371684
0.66349508
0.66420698
0.66517051
0.66514909
0.66417441
0.66379981
0.66328424
0.66319936
0.66306991
0.66317865
0.66335826
0.66333955
0.66316644
0.66281492
0.66244682
0.6620605
0.66156864
0.66107766
0.66045306
0.65972941
0.65894278
0.65805015
0.6570527
0.6559826
0.65483511
0.65356466
0.6521835
0.65072355
0.64916752
0.64749169
0.6456955
0.64380197
0.64180826
0.6397167
0.63752428
0.63523768
0.63286896
0.63042764
0.62791361
0.62533522
0.62269869
0.62001837
0.61730625
0.6145762
0.61183644
0.6090991
0.60637676
0.60367729
0.6010106
0.59839137
0.59582506
0.59331582
0.59087552
0.58851067
0.58622492
0.58402013
0.58190005
0.57986652
0.57791694
0.57604792
0.57426937
0.57260216
0.65881499
0.66997049
0.66609466
0.66592452
0.66591708
0.66587472
0.66584696
0.66583784
0.66584723
0.66587923
0.66624283
0.66650647
0.66928042
0.67052493
0.67139467
0.66705947
0.66324489
0.66153076
0.66129823
0.66185662
0.66382325
0.66691185
0.66752318
0.66505525
0.66440918
0.66436416
0.66500729
0.664503
0.66424268
0.66429482
0.66432597
0.66423317
0.66422233
0.66441983
0.66449135
0.6646666
0.66456635
0.66453866
0.66472027
0.66484419
0.66428908
0.66402143
0.66373146
0.66430887
0.6654693
0.66561979
0.66464843
0.66422331
0.66369244
0.66362611
0.663473
0.66361018
0.66378937
0.66381623
0.66370157
0.66337859
0.66306252
0.66269587
0.6622541
0.66180924
0.66123575
0.66057714
0.65985614
0.65902168
0.6580887
0.65707876
0.65598603
0.65477206
0.65346979
0.65209211
0.6506141
0.64901433
0.6473079
0.64551118
0.64361834
0.64163435
0.6395503
0.63737552
0.63512414
0.63280016
0.63040479
0.62794643
0.62543632
0.62288524
0.62030695
0.61771035
0.61510609
0.61250389
0.60991438
0.60734238
0.60479465
0.60228234
0.59982056
0.59742297
0.59509536
0.59283994
0.59065616
0.58854923
0.58652545
0.58458625
0.58273416
0.58097744
0.57931226
0.57771427
0.65878507
0.66997473
0.66610393
0.66592375
0.66591675
0.66587371
0.66584572
0.66583652
0.66584601
0.66587726
0.66624627
0.66648539
0.66932644
0.67056919
0.67175484
0.66733752
0.66343318
0.66163309
0.66136955
0.66185887
0.66367127
0.66663657
0.66781001
0.66528458
0.66442924
0.66424872
0.66500512
0.66461669
0.66437552
0.66443359
0.66450418
0.66437575
0.6643762
0.66457301
0.66468445
0.66478661
0.66474562
0.66475183
0.66491837
0.66505625
0.66460234
0.66434222
0.663979
0.66444829
0.66569756
0.66607388
0.665114
0.6646598
0.66408949
0.66402932
0.6639042
0.66403693
0.6641832
0.66428255
0.66425372
0.66398639
0.66372095
0.66338225
0.66297932
0.66256232
0.66201547
0.66141698
0.66074812
0.65997013
0.65909425
0.65815155
0.65711311
0.65596647
0.65474583
0.6534454
0.65204361
0.65053288
0.64892471
0.64722026
0.64542661
0.64354167
0.64156198
0.63949862
0.63736111
0.63515329
0.63287786
0.63054245
0.62815347
0.62572478
0.62326662
0.62079192
0.61830794
0.61582542
0.61335565
0.610906
0.60848668
0.60611148
0.60378361
0.60150638
0.59929346
0.5971504
0.59507789
0.59307942
0.59115866
0.58931653
0.58755163
0.58586017
0.58424706
0.58273444
0.65875836
0.66997839
0.66611229
0.66592316
0.66591634
0.66587268
0.66584455
0.66583534
0.66584498
0.66587568
0.66625063
0.66646718
0.66937423
0.67061535
0.67210137
0.6676038
0.66361457
0.66173449
0.66144167
0.66186783
0.66353554
0.66639398
0.66805247
0.66548655
0.66443115
0.66417903
0.66505144
0.66482601
0.66458193
0.66462263
0.66471093
0.66452419
0.66453005
0.66471586
0.66485352
0.6648716
0.66491026
0.66497638
0.66513985
0.66524435
0.66490277
0.66466806
0.66424521
0.66462987
0.66588009
0.66650435
0.66560391
0.66509733
0.66448623
0.66446227
0.66432313
0.66442646
0.66458139
0.66476438
0.6647772
0.66454051
0.66432192
0.66400074
0.66363748
0.66326424
0.66275405
0.66222047
0.66160957
0.66088842
0.66008033
0.65919865
0.65821566
0.65713257
0.65598561
0.6547591
0.65343943
0.65200915
0.65048349
0.64886842
0.64717547
0.64539422
0.64351886
0.64156293
0.63953904
0.63744549
0.63528486
0.63306527
0.63079793
0.62849407
0.62616608
0.62382193
0.62146968
0.61912029
0.61678276
0.61445859
0.61215632
0.60988721
0.60766496
0.60550447
0.60340812
0.60137373
0.59940368
0.59750421
0.59568038
0.59393265
0.59226317
0.59068127
0.58918744
0.58775526
0.65873478
0.66998156
0.6661198
0.66592256
0.66591586
0.66587171
0.66584349
0.66583432
0.66584414
0.66587444
0.66625594
0.66645196
0.66942394
0.67066649
0.6724329
0.66785779
0.66378832
0.66183413
0.66151347
0.66188261
0.6634166
0.66618123
0.6682492
0.66566585
0.66443598
0.66416396
0.66514846
0.66511188
0.66484199
0.66485491
0.66491853
0.66468402
0.66468605
0.66484955
0.66500781
0.66494761
0.66505908
0.66519206
0.66537624
0.66541044
0.66519661
0.66498536
0.6645327
0.66484352
0.66603666
0.66690824
0.66608627
0.66550413
0.66490375
0.66487228
0.6647128
0.66483882
0.66499054
0.66522074
0.66526907
0.66511211
0.66494607
0.66465741
0.66434834
0.66399541
0.66352886
0.66303521
0.66247081
0.66179229
0.6610452
0.66022229
0.6592976
0.65828345
0.65721454
0.65606697
0.65482326
0.6534727
0.65203596
0.65051573
0.64892117
0.64723284
0.64545821
0.64361259
0.64169774
0.63971315
0.63766713
0.63556556
0.63341658
0.63123281
0.62902282
0.6267975
0.62456411
0.62233289
0.62011103
0.61790629
0.61573098
0.61359707
0.61150635
0.60946089
0.60747375
0.60555118
0.6036924
0.6019014
0.60018117
0.59853184
0.59695377
0.5954434
0.5939991
0.6587143
0.66998429
0.66612637
0.66592193
0.66591539
0.66587086
0.6658426
0.66583349
0.66584349
0.66587353
0.66626213
0.66643994
0.66947567
0.67072475
0.67274918
0.66809899
0.66395345
0.66193104
0.66158428
0.66190204
0.66331392
0.66599647
0.66840145
0.66582714
0.66445816
0.66420277
0.66528626
0.6654376
0.66513587
0.66509761
0.66514178
0.6648355
0.66482896
0.66497256
0.66516064
0.66503378
0.66520495
0.6654014
0.66562335
0.66556697
0.66547289
0.66530267
0.66483396
0.66506618
0.66617847
0.66727411
0.66654575
0.66590599
0.66531853
0.66525104
0.66513043
0.66526252
0.6653882
0.66567421
0.66576733
0.66566176
0.6655126
0.6652444
0.66498898
0.66466758
0.66425087
0.66382357
0.66329628
0.66267703
0.66198926
0.66122807
0.66036122
0.65941365
0.65841891
0.65733954
0.65616932
0.65489544
0.65354192
0.65211155
0.65060975
0.64901754
0.6473442
0.6455998
0.64378985
0.6419155
0.6399803
0.63799043
0.63595831
0.63389341
0.63180739
0.62970781
0.62760057
0.62549626
0.62340276
0.62132089
0.61926002
0.61723005
0.61524305
0.61331552
0.61144733
0.60963117
0.60787217
0.60617807
0.60455209
0.60299409
0.60150623
0.60009726
0.59877216
0.65869691
0.66998664
0.66613191
0.66592136
0.66591499
0.66587015
0.66584188
0.66583285
0.66584304
0.66587291
0.66626918
0.66643137
0.6695295
0.67079137
0.67305116
0.66832726
0.66410909
0.66202438
0.66165376
0.66192497
0.66322635
0.66583847
0.66851392
0.66597463
0.66450226
0.66429091
0.6654479
0.66576796
0.6654252
0.66534804
0.66533977
0.66498998
0.66496735
0.66508143
0.6653077
0.66513824
0.66534918
0.66562422
0.66587338
0.66571436
0.66573111
0.66563414
0.66516228
0.66529922
0.66631988
0.66759934
0.66699672
0.66631427
0.66572079
0.66564724
0.66554791
0.66565017
0.6658025
0.66612663
0.66622284
0.66618685
0.66608843
0.6658514
0.66565544
0.66538311
0.66501172
0.6646348
0.66413621
0.6635592
0.66292579
0.66221623
0.66140657
0.66053504
0.65961183
0.65860433
0.65750405
0.65630634
0.65503639
0.65369766
0.65228727
0.65078412
0.64920741
0.64756777
0.64586245
0.64409122
0.6422638
0.64038593
0.6384672
0.6365185
0.63454829
0.63256379
0.63057224
0.62858461
0.62660282
0.62463512
0.62269646
0.6207964
0.61893693
0.61711856
0.61535048
0.61364109
0.61199082
0.61040247
0.60887762
0.60741627
0.60602063
0.60468802
0.65868256
0.66998864
0.66613643
0.66592089
0.66591467
0.66586959
0.66584133
0.66583238
0.66584276
0.66587257
0.66627695
0.66642637
0.66958561
0.67086736
0.67333819
0.66854147
0.66425387
0.66211338
0.6617214
0.66195078
0.66315267
0.66570514
0.66859453
0.66611175
0.66456685
0.6644196
0.66560914
0.66606547
0.66567149
0.66557174
0.66552135
0.66514269
0.66508898
0.6651938
0.66546034
0.66525582
0.66548371
0.66585935
0.6661198
0.66585413
0.66596942
0.66596163
0.66551074
0.66553822
0.666489
0.66788742
0.6674602
0.66672953
0.66615117
0.66605156
0.66594285
0.66606561
0.66622664
0.66655367
0.66667856
0.66672142
0.66664217
0.66642623
0.66626037
0.66600977
0.66571032
0.66538861
0.66493932
0.66441689
0.66384423
0.66318801
0.66244204
0.66164083
0.66078226
0.65983374
0.65879521
0.65767186
0.65648641
0.65523823
0.65391109
0.6524971
0.65101686
0.64947221
0.64786239
0.64619553
0.64447447
0.6427042
0.64089773
0.63906233
0.63720845
0.6353426
0.63347119
0.63160165
0.62974033
0.62789157
0.62606435
0.62426572
0.62250616
0.6208024
0.61915342
0.61754847
0.61599379
0.61449808
0.61306286
0.61168811
0.6103763
0.60913344
0.65867114
0.66999031
0.66613991
0.66592054
0.66591444
0.66586918
0.66584094
0.66583208
0.66584266
0.66587247
0.66628534
0.66642526
0.66964436
0.67095347
0.67361206
0.6687417
0.66438704
0.66219757
0.66178707
0.66197907
0.66309234
0.66559493
0.66865083
0.66624116
0.66464794
0.66457585
0.66574478
0.66628593
0.66581558
0.66572126
0.66568764
0.66529262
0.66520881
0.66531408
0.66560727
0.66538447
0.66563589
0.66609948
0.66635789
0.66597927
0.66619438
0.66628756
0.66585348
0.66577122
0.66667663
0.66813426
0.66792007
0.66712536
0.66659396
0.6664237
0.66634544
0.66647692
0.66662933
0.66698197
0.6671517
0.66721765
0.66716368
0.66701032
0.66689792
0.66666967
0.66643428
0.66615803
0.66574675
0.66528162
0.6647607
0.66414576
0.66346257
0.66272883
0.66193018
0.66104231
0.6600704
0.65903024
0.65792879
0.65676115
0.65551266
0.65418604
0.65279901
0.65134994
0.64984041
0.64827351
0.64665354
0.64498879
0.64328902
0.6415637
0.6398221
0.63806779
0.63630691
0.6345506
0.63279821
0.63105841
0.62934635
0.62766935
0.62603142
0.62443171
0.62287302
0.6213662
0.61991533
0.61852076
0.6171822
0.61590044
0.61467896
0.65866263
0.66999167
0.66614239
0.66592032
0.6659143
0.66586893
0.6658407
0.66583193
0.66584273
0.66587259
0.66629431
0.66642825
0.66970585
0.67105019
0.67387058
0.66892669
0.66450774
0.66227661
0.66185051
0.66200946
0.66304474
0.66550516
0.66868885
0.66636495
0.66474116
0.66474501
0.66584742
0.66642323
0.6658529
0.66576769
0.66581756
0.66543904
0.66532496
0.66543952
0.66576406
0.665522
0.66578665
0.66634615
0.66658467
0.66609634
0.66640641
0.66662084
0.66618947
0.66600584
0.66688434
0.6683581
0.66835541
0.66751116
0.66704628
0.66678325
0.66676464
0.66686202
0.66705702
0.66743737
0.66759917
0.66771469
0.66770123
0.66759317
0.66750634
0.66728387
0.66708653
0.66684923
0.66649386
0.66610254
0.66563878
0.66508209
0.66446028
0.66379161
0.66304815
0.66221509
0.66131082
0.6603457
0.65931752
0.65822969
0.65706228
0.65582371
0.65452381
0.65316419
0.65174551
0.65027523
0.64875516
0.64719317
0.6456005
0.64398417
0.64235186
0.64070684
0.63905922
0.63741229
0.63577007
0.63414254
0.63253765
0.63095972
0.62941785
0.62792544
0.62648223
0.62507848
0.6237191
0.62241167
0.62115729
0.61995691
0.65865696
0.66999274
0.66614387
0.66592022
0.66591426
0.66586882
0.66584062
0.66583193
0.66584294
0.66587293
0.66630383
0.66643541
0.66977067
0.67115972
0.67411671
0.66909636
0.66461532
0.66235021
0.66191146
0.6620416
0.66300951
0.66543334
0.6687132
0.66648333
0.66484157
0.66491361
0.66592187
0.66650181
0.66582053
0.66573188
0.6658908
0.66555885
0.665445
0.66558003
0.66592427
0.66565907
0.66593812
0.66660158
0.66679833
0.66621588
0.66659425
0.66695897
0.66651604
0.66624695
0.66710685
0.66857714
0.66876443
0.66789457
0.6675075
0.66715021
0.66717859
0.66723684
0.66750256
0.66785422
0.66804699
0.66821572
0.66821022
0.66815508
0.66810717
0.66792462
0.66779092
0.66757235
0.66726245
0.66693691
0.66651789
0.66600253
0.66544031
0.66483112
0.66413608
0.6633694
0.6625343
0.66164397
0.66069421
0.65968365
0.65859009
0.65743072
0.65621905
0.65494929
0.65362451
0.65224955
0.65082519
0.64936251
0.64786979
0.64635628
0.64482898
0.64329159
0.64174897
0.64020854
0.63867221
0.63714989
0.63565282
0.63418665
0.63275762
0.63136419
0.63000395
0.62868851
0.62742544
0.62621304
0.62504966
0.65865411
0.66999352
0.66614438
0.66592022
0.66591432
0.66586886
0.66584067
0.66583207
0.66584331
0.66587348
0.66631389
0.66644694
0.66983809
0.67127878
0.67434819
0.66925128
0.66471039
0.66241802
0.66196968
0.66207562
0.66298511
0.66537696
0.66872717
0.66659781
0.66494657
0.66507368
0.66597385
0.66654386
0.66576736
0.6656637
0.66590145
0.66565898
0.66555785
0.66572546
0.66608432
0.66580288
0.666091
0.66684301
0.66699689
0.66635641
0.66678456
0.66729725
0.66683806
0.66649134
0.66733772
0.66879254
0.66915118
0.66827687
0.66794172
0.66753455
0.66757216
0.66763488
0.66793323
0.66829435
0.66852484
0.66870784
0.66871178
0.66873865
0.66871279
0.66855493
0.66845653
0.66824117
0.66797953
0.66771332
0.66734519
0.66688807
0.66639333
0.66583711
0.66519906
0.664492
0.66372113
0.66289992
0.66202066
0.66107872
0.66005868
0.65898576
0.65785566
0.65666896
0.65543233
0.65414681
0.65281445
0.65144795
0.65005656
0.64864705
0.64722356
0.64578637
0.64434765
0.64290878
0.64147348
0.64005429
0.63865731
0.63728698
0.63595117
0.63465636
0.63340365
0.63218873
0.63101369
0.62988283
0.62879817
0.65865397
0.66999413
0.66614394
0.66592031
0.66591447
0.66586903
0.66584087
0.66583236
0.66584384
0.66587427
0.66632442
0.66646324
0.66991121
0.67141384
0.67456663
0.66938832
0.66479088
0.66247912
0.66202478
0.6621109
0.66297006
0.66533385
0.66873369
0.66670605
0.66505405
0.66521843
0.6660123
0.66656739
0.66573106
0.66561215
0.66589759
0.66572081
0.66566178
0.66588014
0.66623837
0.66594672
0.66623998
0.66707356
0.6671797
0.66651919
0.66696842
0.66762547
0.66715543
0.66676538
0.66758318
0.66899432
0.66951745
0.66864431
0.66835405
0.66790999
0.6679793
0.66801655
0.66836259
0.66874174
0.66898719
0.66918114
0.66923362
0.66930515
0.66926769
0.6691707
0.66913512
0.66893831
0.66873541
0.66850757
0.66817493
0.6677693
0.66732934
0.66682222
0.66623558
0.66559127
0.66488871
0.6641367
0.66332973
0.66245684
0.66151227
0.6605129
0.65946277
0.65836281
0.65721241
0.65601266
0.65477076
0.65349884
0.65220176
0.65088806
0.64955897
0.64822243
0.64688356
0.64554335
0.64420848
0.6428903
0.64159515
0.64032766
0.63909305
0.63788999
0.63671634
0.63558192
0.63449408
0.63345091
0.65865656
0.66999435
0.66614257
0.66592052
0.66591472
0.66586934
0.66584121
0.66583278
0.66584453
0.66587532
0.66633558
0.66648394
0.6699855
0.67155744
0.67477062
0.66951114
0.66485907
0.66253416
0.66207724
0.66214761
0.66296266
0.66530186
0.66873522
0.66681095
0.6651658
0.66534176
0.66604319
0.66659999
0.66572749
0.6656013
0.66589709
0.66577182
0.66574489
0.66603825
0.66638835
0.66609872
0.66639181
0.66729573
0.66733364
0.66670017
0.66716368
0.66793531
0.667471
0.66705454
0.6678309
0.66919982
0.66986834
0.66899684
0.66873753
0.66827842
0.66839131
0.66839978
0.66880569
0.66917656
0.66943313
0.66966886
0.66974923
0.66984755
0.66983495
0.66979909
0.66978509
0.66959462
0.66943967
0.66924526
0.66894771
0.66861192
0.66823202
0.66777801
0.66724644
0.66666163
0.66602229
0.66533314
0.664593
0.66378133
0.66290374
0.66198107
0.66101093
0.65998796
0.6589175
0.6578022
0.65664734
0.65546418
0.65426155
0.65304324
0.65181207
0.65057035
0.64932491
0.64807732
0.64683661
0.64561253
0.6444081
0.64323003
0.64208539
0.64097434
0.63989798
0.63885766
0.63785371
0.65866177
0.6699943
0.66614028
0.66592082
0.66591506
0.66586979
0.66584169
0.66583335
0.66584538
0.66587664
0.66634728
0.66650941
0.67006456
0.67171675
0.67496118
0.66961686
0.66491371
0.66258333
0.66212736
0.66218461
0.66296092
0.66528225
0.66874025
0.66691061
0.6652784
0.66544794
0.66607589
0.66664935
0.66576419
0.66564508
0.66594052
0.66580583
0.66583181
0.66620239
0.66652722
0.66625348
0.66654601
0.66751662
0.66747059
0.66689613
0.66735915
0.6682163
0.66777053
0.66735226
0.66808542
0.66942118
0.67019662
0.6693443
0.66909505
0.66865824
0.66879636
0.66878893
0.66924792
0.66957498
0.66989724
0.67012395
0.67022825
0.67037965
0.67038141
0.67038887
0.67038576
0.67025502
0.67017838
0.67000049
0.66974286
0.6694695
0.66912838
0.66871372
0.66823279
0.66770859
0.66713293
0.66651142
0.66583407
0.66508223
0.6642763
0.66342893
0.66253385
0.66158829
0.66059755
0.65955987
0.65848799
0.65739424
0.65628013
0.65515108
0.65400567
0.65285384
0.65169986
0.6505448
0.64939768
0.64826708
0.64715855
0.64607693
0.64502154
0.64399126
0.64299046
0.64202605
0.65866957
0.66999397
0.66613709
0.66592124
0.66591549
0.66587037
0.6658423
0.66583406
0.66584639
0.66587829
0.66635957
0.66653984
0.67014712
0.67188673
0.67513599
0.66970621
0.66495582
0.66262634
0.66217452
0.66222138
0.66296346
0.66527414
0.66875276
0.66700694
0.66538707
0.66554038
0.66612125
0.66670637
0.66585812
0.66575274
0.66602287
0.66585078
0.66594733
0.66637586
0.66665199
0.66640363
0.66670466
0.66772738
0.66760536
0.66709393
0.66757202
0.6684923
0.66803882
0.66763432
0.66832668
0.66962959
0.67048042
0.66969555
0.66944575
0.669047
0.6691709
0.66918194
0.66965085
0.66998678
0.67035117
0.67054766
0.67073064
0.67089435
0.67090823
0.67099974
0.67100618
0.67091542
0.67088911
0.67070891
0.67048962
0.67027225
0.66997712
0.66961183
0.66919281
0.66872629
0.66821476
0.66764994
0.66702607
0.66633131
0.6655948
0.66481836
0.66399153
0.6631167
0.66219766
0.66123881
0.66025153
0.65924063
0.6582131
0.65716861
0.65611198
0.65505027
0.65398253
0.65291139
0.65185057
0.65080637
0.64978025
0.64877776
0.64780511
0.64686324
0.64595113
0.6586799
0.66999335
0.66613303
0.66592176
0.66591599
0.66587109
0.66584305
0.6658349
0.66584757
0.6658803
0.6663725
0.66657531
0.67023406
0.67207007
0.67529828
0.66977913
0.66498517
0.66266329
0.66221846
0.66225737
0.66297028
0.6652796
0.6687757
0.66709573
0.66548708
0.66562601
0.66618704
0.66676767
0.66599009
0.66593511
0.66613554
0.6659407
0.66608528
0.66655349
0.66677732
0.66656045
0.66686741
0.66791463
0.66774533
0.66730497
0.66779653
0.66875476
0.66829695
0.66791751
0.66856698
0.66983118
0.67072277
0.67003479
0.66977998
0.66941901
0.66953241
0.66956671
0.67003548
0.67039661
0.67077021
0.67097659
0.67122813
0.67135857
0.67144737
0.67158668
0.67156909
0.6715483
0.67157502
0.67142221
0.67126717
0.67109561
0.67083051
0.67050361
0.67013876
0.66972588
0.6692711
0.66876017
0.66818905
0.66755784
0.66689154
0.66618141
0.66542496
0.66462124
0.66377593
0.66289154
0.66197978
0.66105022
0.66010302
0.65914004
0.65816565
0.65718426
0.65619505
0.65520914
0.65423545
0.6532758
0.65233699
0.65142465
0.6505332
0.64966013
0.65869268
0.66999243
0.66612811
0.66592239
0.66591656
0.66587194
0.66584394
0.66583589
0.66584892
0.6658827
0.66638615
0.66661592
0.6703255
0.67226578
0.67544381
0.6698343
0.66500134
0.66269359
0.66225849
0.66229288
0.66298244
0.66529886
0.66881094
0.6671761
0.66557764
0.66570944
0.66627335
0.66683006
0.66614367
0.66617282
0.66631973
0.66606654
0.66623567
0.6667181
0.66689371
0.66672118
0.66705304
0.66809062
0.66788934
0.66751692
0.66801412
0.6690009
0.6685448
0.66820323
0.66881168
0.67003747
0.67094655
0.67037279
0.67012199
0.66979566
0.66990778
0.66995299
0.67042695
0.6708021
0.67118753
0.6714135
0.67170142
0.67183714
0.672002
0.67213184
0.67214287
0.67221553
0.67224817
0.67210782
0.67200745
0.67185697
0.67163163
0.67136184
0.6710529
0.67069426
0.67028932
0.66982695
0.6693071
0.66873763
0.66813456
0.66749041
0.66679406
0.66605384
0.66527519
0.66446298
0.66362974
0.66277797
0.66190938
0.66102392
0.66012798
0.65922475
0.65831704
0.65741137
0.65651499
0.65563327
0.65477086
0.65392716
0.65310623
0.65870788
0.66999122
0.66612236
0.66592311
0.6659172
0.66587292
0.66584497
0.66583704
0.66585046
0.66588554
0.66640063
0.66666162
0.67042193
0.67247354
0.6755754
0.66987271
0.66500555
0.66271808
0.66229511
0.66232887
0.66300187
0.66533186
0.66885974
0.66724475
0.66565814
0.66579126
0.66637595
0.66689595
0.66631005
0.6664332
0.6665626
0.66622831
0.66640645
0.66687429
0.66700244
0.66688242
0.66725371
0.66824694
0.66804501
0.66774025
0.66823175
0.66922987
0.66877756
0.66847747
0.66903501
0.67023727
0.67115994
0.67070196
0.67045025
0.67018084
0.67027504
0.67034424
0.67082702
0.67120589
0.67161198
0.67182908
0.67215614
0.67230737
0.67252262
0.67265923
0.67272455
0.67283753
0.6728526
0.67277166
0.67275064
0.6726266
0.67244496
0.67222182
0.67195186
0.67163821
0.67127545
0.6708656
0.67040045
0.6698942
0.66935597
0.66876838
0.66813449
0.66746219
0.66675263
0.66601035
0.66524818
0.66446976
0.66367266
0.66285935
0.66203905
0.66121125
0.66037416
0.65954227
0.65872293
0.65791864
0.65713316
0.6563692
0.65562563
0.65872549
0.66998971
0.66611582
0.66592387
0.66591789
0.665874
0.66584614
0.66583834
0.6658522
0.66588885
0.66641603
0.66671253
0.67052365
0.67269336
0.67568984
0.66989321
0.66499754
0.66273689
0.66232872
0.66236629
0.66302947
0.66537739
0.66892169
0.66729879
0.66572873
0.66587001
0.66648883
0.66696812
0.66646826
0.66667964
0.66683964
0.66642357
0.66659446
0.66702308
0.66711404
0.66704502
0.66746336
0.66838895
0.66820055
0.66796304
0.66846057
0.6694415
0.66900645
0.668748
0.66924956
0.67043176
0.67137148
0.67102134
0.67075196
0.67056161
0.67060427
0.67074781
0.67120638
0.67161553
0.67201718
0.67223713
0.67260487
0.67276106
0.67304522
0.67318031
0.6733027
0.67345512
0.67346679
0.67346429
0.67348322
0.67335301
0.6732088
0.6730345
0.6728096
0.67254398
0.6722313
0.67187228
0.67145705
0.67100733
0.67052196
0.6699918
0.66941689
0.6688048
0.66815479
0.66747862
0.66678774
0.66607975
0.6653515
0.66461109
0.663863
0.66309916
0.66233384
0.66157823
0.66083156
0.6600975
0.65938028
0.65867818
0.6587454
0.66998786
0.66610859
0.66592461
0.66591859
0.66587518
0.66584744
0.66583979
0.66585413
0.66589268
0.66643248
0.66676872
0.67063103
0.67292451
0.67578744
0.66989646
0.66497863
0.66275072
0.66236013
0.66240615
0.66306507
0.66543422
0.66899596
0.66733624
0.66579018
0.66594244
0.6666101
0.66704672
0.66660785
0.66689322
0.66712306
0.66664035
0.66679458
0.66716581
0.66723079
0.66720839
0.66768306
0.66852376
0.66835047
0.66818461
0.66869092
0.6696352
0.66922767
0.6690113
0.66945825
0.67062569
0.67159385
0.67134479
0.67106908
0.67095302
0.67090125
0.67112682
0.67156443
0.67203591
0.67239252
0.67267629
0.67302481
0.67321466
0.67355423
0.67366589
0.67386981
0.67402823
0.67405212
0.67412153
0.67415756
0.67406472
0.67398639
0.6738532
0.67366551
0.67343925
0.67316706
0.67285155
0.67248378
0.67209146
0.6716645
0.67118913
0.6706728
0.6701192
0.66953013
0.66892073
0.66829744
0.66765372
0.66699064
0.66631698
0.66562996
0.6649341
0.66424011
0.66355044
0.6628676
0.66220065
0.66155037
0.65876753
0.66998564
0.66610078
0.66592531
0.66591928
0.66587642
0.66584882
0.66584137
0.66585627
0.66589704
0.66645009
0.66683019
0.67074443
0.6731667
0.67586647
0.66988222
0.6649485
0.66276016
0.66238946
0.66244787
0.66310724
0.66550111
0.66907918
0.66735704
0.66584621
0.66600551
0.66674286
0.6671277
0.66671858
0.66706731
0.66738949
0.66686503
0.66700469
0.6672982
0.66735399
0.6673723
0.66791086
0.6686531
0.66849386
0.66840295
0.66891906
0.66982778
0.66943078
0.6692682
0.669655
0.67081099
0.67180886
0.67168036
0.67136792
0.67132837
0.67119685
0.6715036
0.6719072
0.6724416
0.67274814
0.67311661
0.67341004
0.67368014
0.67402337
0.67417323
0.67443956
0.6745557
0.67464742
0.67479751
0.67483959
0.67478009
0.67473032
0.67461712
0.67447124
0.67429182
0.67406746
0.67379319
0.67347744
0.67313992
0.67276148
0.67233566
0.67186979
0.6713671
0.67083683
0.67029301
0.66973083
0.66914803
0.66854708
0.66793561
0.66731298
0.6666794
0.66604668
0.6654188
0.66480367
0.66420358
0.65879182
0.66998301
0.66609241
0.66592604
0.66591988
0.66587763
0.66585025
0.66584306
0.6658586
0.66590198
0.66646897
0.66689696
0.67086423
0.67341937
0.67592594
0.66985077
0.66490789
0.66276548
0.66241648
0.66249024
0.66315485
0.6655771
0.66916516
0.66736458
0.6659023
0.66606081
0.66689208
0.66720387
0.66679947
0.66719209
0.66762973
0.66707888
0.6672247
0.66741814
0.66747695
0.66753611
0.66814311
0.66877348
0.66863188
0.66860978
0.66914051
0.67001217
0.66962504
0.66950896
0.66985623
0.6710021
0.672019
0.67199826
0.67166859
0.67166917
0.67150932
0.67186887
0.6722359
0.67283032
0.6731045
0.6735382
0.67378794
0.67417001
0.67447219
0.67467404
0.67497165
0.67507541
0.67525926
0.67542715
0.67543662
0.67544059
0.67545107
0.67537035
0.67527561
0.6751382