/*--------------------------------*- C++ -*----------------------------------*\
| =========                 |                                                 |
| \\      /  F ield         | OpenFOAM: The Open Source CFD Toolbox           |
|  \\    /   O peration     | Version:  2506                                  |
|   \\  /    A nd           | Website:  www.openfoam.com                      |
|    \\/     M anipulation  |                                                 |
\*---------------------------------------------------------------------------*/
FoamFile
{
    version     2.0;
    format      ascii;
    arch        "LSB;label=32;scalar=64";
    class       volScalarField;
    location    "0.016";
    object      p;
}
// * * * * * * * * * * * * * * * * * * * * * * * * * * * * * * * * * * * * * //

dimensions      [1 -1 -2 0 0 0 0];

internalField   nonuniform List<scalar> 
13761
(
45313.308
45313.284
45313.261
45313.238
45313.212
45313.185
45313.155
45313.122
45313.087
45313.047
45313.003
45312.955
45312.9
45312.84
45312.773
45312.697
45312.613
45312.519
45312.414
45312.298
45312.167
45312.022
45311.861
45311.681
45311.482
45311.261
45311.016
45310.745
45310.445
45310.114
45309.747
45309.341
45308.892
45308.396
45307.846
45307.237
45306.566
45305.833
45305.021
45304.125
45303.15
45302.106
45262.5
45262.505
45262.51
45262.515
45262.52
45262.526
45262.533
45262.54
45262.548
45262.558
45262.569
45262.582
45262.596
45262.612
45262.628
45262.644
45262.661
45262.678
45262.694
45262.708
45262.72
45262.729
45262.734
45262.733
45262.727
45262.712
45262.688
45262.652
45262.602
45262.536
45262.45
45262.34
45262.203
45262.034
45261.827
45261.576
45261.274
45260.914
45260.494
45345.007
45345.044
45345.078
45345.113
45345.151
45345.193
45345.239
45345.289
45345.345
45345.409
45345.481
45345.561
45345.65
45345.75
45345.859
45345.98
45346.111
45346.254
45346.409
45346.575
45346.754
45346.943
45347.145
45347.357
45347.58
45347.812
45348.053
45348.301
45348.555
45348.813
45349.072
45349.33
45349.583
45349.828
45350.059
45350.272
45519.385
45519.425
45519.462
45519.5
45519.543
45519.589
45519.64
45519.696
45519.76
45519.832
45519.913
45520.005
45520.109
45520.226
45520.356
45520.5
45520.66
45520.836
45521.028
45521.238
45521.465
45521.71
45521.973
45522.255
45522.555
45522.874
45523.212
45523.567
45523.94
45524.33
45524.734
45628.728
45628.751
45628.77
45628.791
45628.814
45628.84
45628.867
45628.898
45628.933
45628.973
45629.019
45629.072
45629.131
45629.199
45629.276
45629.362
45629.459
45629.566
45629.685
45629.816
45629.959
45630.116
45630.287
45630.471
45673.657
47830.005
47830.007
47830.008
47830.01
47830.012
47830.014
47830.017
47830.02
47830.024
47830.029
47830.035
47830.042
47830.049
47830.058
47830.068
47830.08
47830.093
47830.108
47830.124
47830.143
47830.164
47830.188
47830.214
47830.243
47830.276
47830.313
47830.354
47830.399
47830.45
47830.506
47830.568
47830.637
47830.714
47830.798
47830.892
47830.996
47831.111
47831.238
47831.378
47831.534
47831.705
47831.895
47832.105
47832.337
47832.594
47832.881
47833.201
47833.561
47833.981
47834.463
47835.004
47835.586
47836.219
47836.903
47837.644
47838.445
47839.312
47840.25
47841.263
47842.359
47843.542
47844.821
47846.201
47847.689
47849.295
47851.026
47852.89
47854.897
47857.055
47859.374
47861.864
47864.535
47822.157
47822.159
47822.16
47822.162
47822.164
47822.166
47822.169
47822.172
47822.176
47822.181
47822.187
47822.193
47822.201
47822.21
47822.22
47822.231
47822.244
47822.258
47822.275
47822.293
47822.314
47822.337
47822.363
47822.392
47822.425
47822.461
47822.501
47822.546
47822.595
47822.651
47822.712
47822.78
47822.855
47822.939
47823.031
47823.133
47823.246
47823.371
47823.51
47823.662
47823.831
47824.018
47824.224
47824.453
47824.706
47824.988
47825.303
47825.657
47826.07
47826.546
47827.081
47827.656
47828.283
47828.959
47829.692
47830.485
47831.343
47832.271
47833.274
47834.358
47835.53
47836.796
47838.162
47839.637
47841.228
47842.942
47844.79
47846.779
47848.918
47851.218
47853.687
47856.336
47859.175
47862.213
47865.459
47868.924
47872.615
47876.538
47880.702
47885.108
47889.76
47894.657
47814.369
47814.37
47814.372
47814.373
47814.375
47814.377
47814.38
47814.383
47814.387
47814.392
47814.398
47814.404
47814.412
47814.42
47814.43
47814.441
47814.454
47814.468
47814.485
47814.503
47814.523
47814.546
47814.572
47814.6
47814.632
47814.668
47814.708
47814.752
47814.801
47814.855
47814.915
47814.982
47815.057
47815.139
47815.23
47815.331
47815.442
47815.565
47815.701
47815.852
47816.018
47816.202
47816.405
47816.63
47816.88
47817.157
47817.467
47817.816
47818.222
47818.692
47819.22
47819.79
47820.41
47821.079
47821.805
47822.59
47823.439
47824.358
47825.351
47826.425
47827.586
47828.839
47830.193
47831.654
47833.231
47834.93
47836.761
47838.733
47840.855
47843.135
47845.585
47848.213
47851.03
47854.045
47857.269
47860.709
47864.374
47868.272
47872.409
47876.789
47881.415
47886.285
47891.396
47896.741
47902.305
47908.07
47914.012
47920.097
47806.631
47806.633
47806.634
47806.636
47806.638
47806.64
47806.643
47806.646
47806.65
47806.654
47806.66
47806.666
47806.674
47806.682
47806.692
47806.703
47806.715
47806.73
47806.746
47806.764
47806.784
47806.806
47806.832
47806.86
47806.891
47806.926
47806.966
47807.009
47807.057
47807.111
47807.171
47807.237
47807.31
47807.391
47807.481
47807.58
47807.69
47807.811
47807.945
47808.094
47808.258
47808.439
47808.639
47808.861
47809.107
47809.38
47809.685
47810.028
47810.429
47810.892
47811.415
47811.979
47812.593
47813.256
47813.975
47814.753
47815.594
47816.504
47817.488
47818.553
47819.703
47820.945
47822.287
47823.736
47825.299
47826.984
47828.8
47830.756
47832.86
47835.123
47837.554
47840.162
47842.958
47845.951
47849.152
47852.568
47856.209
47860.082
47864.193
47868.547
47873.146
47877.99
47883.076
47888.396
47893.938
47899.683
47905.609
47911.682
47917.862
47924.099
47930.332
47936.49
47798.938
47798.94
47798.941
47798.943
47798.945
47798.947
47798.949
47798.953
47798.956
47798.961
47798.966
47798.973
47798.98
47798.988
47798.998
47799.009
47799.021
47799.035
47799.051
47799.069
47799.089
47799.111
47799.136
47799.164
47799.195
47799.23
47799.268
47799.311
47799.359
47799.412
47799.47
47799.535
47799.608
47799.688
47799.776
47799.874
47799.982
47800.102
47800.235
47800.381
47800.542
47800.721
47800.918
47801.137
47801.379
47801.648
47801.949
47802.288
47802.682
47803.139
47803.658
47804.216
47804.825
47805.482
47806.195
47806.965
47807.8
47808.702
47809.678
47810.734
47811.875
47813.108
47814.439
47815.876
47817.427
47819.099
47820.902
47822.842
47824.931
47827.177
47829.59
47832.18
47834.956
47837.928
47841.106
47844.5
47848.117
47851.965
47856.05
47860.379
47864.952
47869.77
47874.831
47880.126
47885.645
47891.371
47897.279
47903.34
47909.514
47915.752
47921.995
47928.175
47934.208
47939.999
47945.438
47791.269
47791.27
47791.272
47791.273
47791.275
47791.277
47791.28
47791.283
47791.287
47791.291
47791.297
47791.303
47791.31
47791.318
47791.328
47791.339
47791.351
47791.365
47791.38
47791.398
47791.417
47791.439
47791.464
47791.491
47791.522
47791.556
47791.594
47791.637
47791.684
47791.736
47791.794
47791.859
47791.93
47792.009
47792.096
47792.193
47792.3
47792.419
47792.55
47792.694
47792.854
47793.03
47793.226
47793.442
47793.681
47793.947
47794.245
47794.579
47794.968
47795.421
47795.936
47796.49
47797.095
47797.747
47798.455
47799.221
47800.049
47800.946
47801.915
47802.964
47804.097
47805.321
47806.644
47808.071
47809.611
47811.272
47813.062
47814.99
47817.065
47819.296
47821.692
47824.264
47827.022
47829.974
47833.131
47836.502
47840.096
47843.92
47847.981
47852.284
47856.831
47861.624
47866.66
47871.931
47877.427
47883.133
47889.024
47895.072
47901.238
47907.476
47913.729
47919.929
47925.997
47931.84
47937.353
47942.414
47946.884
47783.626
47783.628
47783.629
47783.631
47783.633
47783.635
47783.638
47783.641
47783.645
47783.649
47783.655
47783.661
47783.668
47783.676
47783.686
47783.696
47783.709
47783.722
47783.738
47783.755
47783.775
47783.797
47783.821
47783.848
47783.879
47783.913
47783.951
47783.993
47784.039
47784.091
47784.149
47784.212
47784.283
47784.361
47784.448
47784.544
47784.65
47784.767
47784.896
47785.039
47785.197
47785.372
47785.565
47785.778
47786.015
47786.278
47786.572
47786.902
47787.286
47787.735
47788.246
47788.797
47789.398
47790.047
47790.751
47791.512
47792.337
47793.229
47794.193
47795.237
47796.364
47797.583
47798.898
47800.318
47801.85
47803.502
47805.281
47807.198
47809.26
47811.477
47813.859
47816.414
47819.154
47822.088
47825.225
47828.575
47832.146
47835.947
47839.984
47844.261
47848.784
47853.551
47858.562
47863.809
47869.283
47874.968
47880.842
47886.877
47893.035
47899.273
47905.534
47911.753
47917.854
47923.747
47929.33
47934.487
47939.084
47942.964
47945.945
47775.841
47775.843
47775.844
47775.846
47775.848
47775.85
47775.853
47775.856
47775.86
47775.864
47775.87
47775.876
47775.883
47775.892
47775.901
47775.912
47775.925
47775.939
47775.955
47775.973
47775.993
47776.015
47776.04
47776.068
47776.099
47776.134
47776.173
47776.216
47776.264
47776.317
47776.376
47776.441
47776.513
47776.594
47776.682
47776.78
47776.888
47777.008
47777.14
47777.286
47777.447
47777.625
47777.822
47778.039
47778.279
47778.545
47778.843
47779.177
47779.565
47780.019
47780.535
47781.092
47781.698
47782.351
47783.059
47783.824
47784.65
47785.543
47786.509
47787.551
47788.677
47789.893
47791.204
47792.619
47794.145
47795.789
47797.561
47799.467
47801.518
47803.723
47806.09
47808.631
47811.354
47814.27
47817.388
47820.717
47824.266
47828.044
47832.057
47836.31
47840.808
47845.55
47850.536
47855.76
47861.211
47866.876
47872.733
47878.755
47884.905
47891.142
47897.41
47903.647
47909.779
47915.72
47921.371
47926.621
47931.339
47935.378
47938.561
47940.666
47941.419
47768.283
47768.284
47768.285
47768.287
47768.289
47768.291
47768.294
47768.297
47768.301
47768.305
47768.31
47768.317
47768.324
47768.332
47768.342
47768.353
47768.365
47768.379
47768.395
47768.412
47768.432
47768.454
47768.479
47768.507
47768.538
47768.572
47768.611
47768.653
47768.7
47768.753
47768.811
47768.876
47768.947
47769.027
47769.114
47769.211
47769.318
47769.437
47769.567
47769.712
47769.871
47770.046
47770.24
47770.455
47770.692
47770.956
47771.25
47771.58
47771.964
47772.415
47772.93
47773.485
47774.091
47774.743
47775.45
47776.214
47777.039
47777.931
47778.895
47779.935
47781.058
47782.27
47783.578
47784.988
47786.507
47788.144
47789.907
47791.804
47793.844
47796.036
47798.39
47800.916
47803.622
47806.52
47809.619
47812.928
47816.456
47820.211
47824.2
47828.429
47832.902
47837.62
47842.582
47847.782
47853.212
47858.856
47864.696
47870.705
47876.848
47883.083
47889.358
47895.613
47901.775
47907.761
47913.478
47918.816
47923.653
47927.844
47931.222
47933.574
47934.632
47934.04
47760.904
47760.905
47760.906
47760.908
47760.91
47760.912
47760.914
47760.918
47760.921
47760.926
47760.931
47760.937
47760.944
47760.952
47760.962
47760.972
47760.984
47760.998
47761.014
47761.031
47761.05
47761.072
47761.096
47761.124
47761.154
47761.188
47761.226
47761.267
47761.314
47761.366
47761.423
47761.486
47761.557
47761.635
47761.721
47761.816
47761.921
47762.038
47762.166
47762.308
47762.464
47762.637
47762.827
47763.038
47763.271
47763.53
47763.819
47764.144
47764.521
47764.965
47765.474
47766.024
47766.623
47767.27
47767.97
47768.727
47769.547
47770.432
47771.388
47772.421
47773.537
47774.741
47776.04
47777.441
47778.952
47780.579
47782.331
47784.216
47786.243
47788.422
47790.761
47793.271
47795.961
47798.84
47801.919
47805.208
47808.714
47812.447
47816.413
47820.618
47825.067
47829.76
47834.698
47839.875
47845.283
47850.908
47856.731
47862.727
47868.862
47875.096
47881.378
47887.649
47893.841
47899.872
47905.651
47911.075
47916.026
47920.365
47923.931
47926.521
47927.876
47927.646
47925.4
47920.577
47753.652
47753.653
47753.655
47753.656
47753.658
47753.66
47753.663
47753.666
47753.669
47753.674
47753.679
47753.685
47753.692
47753.7
47753.709
47753.72
47753.731
47753.745
47753.76
47753.777
47753.796
47753.818
47753.842
47753.868
47753.898
47753.931
47753.968
47754.01
47754.055
47754.106
47754.162
47754.225
47754.294
47754.37
47754.455
47754.548
47754.652
47754.766
47754.892
47755.031
47755.185
47755.355
47755.542
47755.749
47755.977
47756.232
47756.515
47756.834
47757.205
47757.642
47758.144
47758.687
47759.279
47759.918
47760.611
47761.36
47762.17
47763.045
47763.992
47765.015
47766.12
47767.313
47768.6
47769.989
47771.487
47773.101
47774.839
47776.71
47778.722
47780.885
47783.208
47785.7
47788.371
47791.232
47794.291
47797.558
47801.042
47804.752
47808.695
47812.876
47817.301
47821.97
47826.884
47832.039
47837.425
47843.031
47848.838
47854.821
47860.949
47867.181
47873.47
47879.758
47885.977
47892.052
47897.892
47903.4
47908.46
47912.942
47916.69
47919.51
47921.152
47921.274
47919.45
47915.118
47907.631
47746.5
47746.501
47746.503
47746.504
47746.506
47746.508
47746.51
47746.513
47746.517
47746.521
47746.526
47746.532
47746.539
47746.547
47746.556
47746.566
47746.578
47746.591
47746.606
47746.623
47746.642
47746.663
47746.686
47746.712
47746.742
47746.774
47746.811
47746.851
47746.896
47746.946
47747.001
47747.063
47747.13
47747.206
47747.289
47747.381
47747.482
47747.594
47747.718
47747.855
47748.006
47748.172
47748.356
47748.559
47748.784
47749.033
47749.311
47749.625
47749.988
47750.418
47750.913
47751.449
47752.034
47752.666
47753.35
47754.09
47754.891
47755.756
47756.692
47757.704
47758.797
47759.977
47761.251
47762.626
47764.109
47765.708
47767.431
47769.285
47771.28
47773.426
47775.73
47778.203
47780.855
47783.694
47786.732
47789.978
47793.439
47797.126
47801.045
47805.203
47809.603
47814.249
47819.14
47824.272
47829.638
47835.225
47841.016
47846.987
47853.108
47859.339
47865.635
47871.939
47878.186
47884.303
47890.203
47895.791
47900.957
47905.577
47909.501
47912.542
47914.461
47914.925
47913.511
47909.658
47902.704
47892.181
47739.432
47739.433
47739.435
47739.436
47739.438
47739.44
47739.442
47739.445
47739.449
47739.453
47739.458
47739.464
47739.471
47739.478
47739.487
47739.497
47739.509
47739.522
47739.536
47739.553
47739.571
47739.592
47739.615
47739.641
47739.67
47739.702
47739.738
47739.777
47739.822
47739.871
47739.925
47739.985
47740.052
47740.126
47740.207
47740.298
47740.397
47740.508
47740.629
47740.763
47740.911
47741.075
47741.255
47741.454
47741.675
47741.919
47742.192
47742.499
47742.856
47743.278
47743.766
47744.296
47744.873
47745.497
47746.173
47746.903
47747.694
47748.55
47749.475
47750.475
47751.555
47752.723
47753.983
47755.344
47756.812
47758.395
47760.1
47761.938
47763.915
47766.041
47768.326
47770.779
47773.41
47776.228
47779.244
47782.467
47785.906
47789.569
47793.464
47797.598
47801.975
47806.597
47811.465
47816.575
47821.92
47827.489
47833.265
47839.225
47845.339
47851.57
47857.873
47864.193
47870.468
47876.626
47882.584
47888.25
47893.52
47898.272
47902.365
47905.62
47907.807
47908.6
47907.584
47904.199
47897.766
47887.79
47873.557
47732.433
47732.435
47732.436
47732.438
47732.439
47732.441
47732.444
47732.447
47732.45
47732.454
47732.459
47732.465
47732.472
47732.479
47732.488
47732.498
47732.509
47732.522
47732.536
47732.552
47732.57
47732.591
47732.614
47732.639
47732.667
47732.699
47732.734
47732.773
47732.816
47732.865
47732.918
47732.977
47733.043
47733.115
47733.196
47733.284
47733.382
47733.491
47733.61
47733.742
47733.887
47734.048
47734.225
47734.421
47734.637
47734.877
47735.144
47735.446
47735.795
47736.211
47736.692
47737.214
47737.784
47738.4
47739.068
47739.789
47740.571
47741.416
47742.33
47743.318
47744.387
47745.541
47746.788
47748.134
47749.586
47751.153
47752.842
47754.661
47756.62
47758.727
47760.992
47763.424
47766.034
47768.831
47771.824
47775.024
47778.44
47782.079
47785.951
47790.061
47794.414
47799.013
47803.858
47808.947
47814.272
47819.824
47825.585
47831.534
47837.643
47843.874
47850.184
47856.521
47862.823
47869.022
47875.037
47880.779
47886.149
47891.029
47895.286
47898.747
47901.19
47902.301
47901.671
47898.741
47892.818
47883.382
47869.665
47852.25
47725.496
47725.497
47725.498
47725.5
47725.502
47725.504
47725.506
47725.509
47725.512
47725.516
47725.521
47725.527
47725.533
47725.541
47725.549
47725.559
47725.57
47725.583
47725.597
47725.613
47725.631
47725.651
47725.673
47725.698
47725.726
47725.757
47725.792
47725.83
47725.873
47725.92
47725.973
47726.031
47726.095
47726.166
47726.245
47726.333
47726.429
47726.535
47726.653
47726.782
47726.925
47727.083
47727.256
47727.448
47727.661
47727.896
47728.159
47728.455
47728.797
47729.206
47729.679
47730.195
47730.758
47731.366
47732.025
47732.738
47733.51
47734.345
47735.249
47736.226
47737.282
47738.424
47739.657
47740.988
47742.426
47743.977
47745.649
47747.451
47749.391
47751.479
47753.724
47756.136
47758.724
47761.499
47764.47
47767.647
47771.04
47774.656
47778.504
47782.59
47786.92
47791.496
47796.319
47801.387
47806.694
47812.229
47817.976
47823.915
47830.019
47836.251
47842.569
47848.923
47855.253
47861.492
47867.563
47873.38
47878.846
47883.851
47888.264
47891.923
47894.614
47896.031
47895.772
47893.284
47887.861
47878.955
47865.75
47848.753
47828.749
47718.607
47718.608
47718.61
47718.611
47718.613
47718.615
47718.617
47718.62
47718.623
47718.627
47718.632
47718.637
47718.644
47718.651
47718.66
47718.669
47718.68
47718.693
47718.706
47718.722
47718.74
47718.759
47718.781
47718.806
47718.833
47718.864
47718.898
47718.936
47718.978
47719.024
47719.076
47719.133
47719.197
47719.267
47719.344
47719.43
47719.525
47719.63
47719.745
47719.872
47720.013
47720.168
47720.338
47720.527
47720.735
47720.966
47721.224
47721.515
47721.851
47722.253
47722.72
47723.229
47723.785
47724.386
47725.037
47725.742
47726.505
47727.33
47728.224
47729.19
47730.234
47731.363
47732.583
47733.901
47735.324
47736.859
47738.515
47740.3
47742.223
47744.292
47746.518
47748.91
47751.477
47754.231
47757.18
47760.335
47763.704
47767.297
47771.122
47775.185
47779.492
47784.046
47788.848
47793.896
47799.184
47804.703
47810.438
47816.368
47822.467
47828.701
47835.028
47841.4
47847.758
47854.037
47860.163
47866.053
47871.613
47876.738
47881.302
47885.151
47888.079
47889.79
47889.89
47887.829
47882.893
47874.509
47861.813
47845.233
47825.513
47804.192
47711.759
47711.76
47711.762
47711.763
47711.765
47711.767
47711.769
47711.772
47711.775
47711.779
47711.784
47711.789
47711.796
47711.803
47711.811
47711.821
47711.831
47711.844
47711.857
47711.873
47711.89
47711.909
47711.931
47711.955
47711.982
47712.012
47712.046
47712.083
47712.124
47712.17
47712.221
47712.277
47712.34
47712.409
47712.485
47712.569
47712.663
47712.765
47712.879
47713.004
47713.142
47713.294
47713.462
47713.648
47713.852
47714.079
47714.332
47714.618
47714.948
47715.343
47715.804
47716.308
47716.857
47717.45
47718.095
47718.791
47719.546
47720.362
47721.246
47722.201
47723.235
47724.353
47725.56
47726.865
47728.274
47729.795
47731.436
47733.204
47735.11
47737.162
47739.37
47741.742
47744.29
47747.023
47749.951
47753.084
47756.432
47760.003
47763.805
47767.845
47772.13
47776.662
47781.444
47786.472
47791.743
47797.247
47802.97
47808.892
47814.988
47821.225
47827.562
47833.952
47840.338
47846.658
47852.838
47858.799
47864.451
47869.692
47874.402
47878.433
47881.588
47883.581
47884.026
47882.378
47877.915
47870.043
47857.851
47841.69
47822.258
47801.048
47782.092
47704.94
47704.941
47704.942
47704.944
47704.945
47704.947
47704.95
47704.952
47704.956
47704.96
47704.964
47704.97
47704.976
47704.983
47704.991
47705.001
47705.011
47705.023
47705.037
47705.052
47705.069
47705.088
47705.11
47705.133
47705.16
47705.19
47705.223
47705.259
47705.3
47705.345
47705.395
47705.451
47705.512
47705.58
47705.655
47705.738
47705.83
47705.931
47706.043
47706.166
47706.302
47706.452
47706.617
47706.799
47707.001
47707.224
47707.473
47707.754
47708.078
47708.467
47708.922
47709.42
47709.963
47710.55
47711.188
47711.877
47712.624
47713.432
47714.307
47715.254
47716.277
47717.385
47718.581
47719.874
47721.271
47722.778
47724.405
47726.159
47728.049
47730.085
47732.276
47734.63
47737.16
47739.874
47742.782
47745.894
47749.221
47752.77
47756.551
47760.57
47764.833
47769.345
47774.106
47779.117
47784.371
47789.861
47795.573
47801.488
47807.582
47813.822
47820.17
47826.579
47832.995
47839.355
47845.59
47851.621
47857.362
47862.715
47867.565
47871.77
47875.142
47877.404
47878.18
47876.93
47872.927
47865.557
47853.864
47838.122
47818.984
47797.887
47779.023
47761.019
47698.136
47698.138
47698.139
47698.14
47698.142
47698.144
47698.146
47698.149
47698.152
47698.156
47698.161
47698.166
47698.172
47698.179
47698.187
47698.197
47698.207
47698.219
47698.232
47698.247
47698.264
47698.283
47698.304
47698.327
47698.354
47698.383
47698.415
47698.451
47698.491
47698.536
47698.585
47698.64
47698.7
47698.767
47698.841
47698.923
47699.014
47699.114
47699.224
47699.345
47699.479
47699.627
47699.789
47699.969
47700.167
47700.387
47700.632
47700.909
47701.229
47701.612
47702.062
47702.555
47703.094
47703.676
47704.308
47704.991
47705.731
47706.533
47707.4
47708.339
47709.354
47710.452
47711.64
47712.923
47714.308
47715.805
47717.419
47719.16
47721.037
47723.058
47725.233
47727.572
47730.084
47732.78
47735.67
47738.763
47742.07
47745.599
47749.359
47753.358
47757.601
47762.093
47766.836
47771.828
47777.067
47782.544
47788.247
47794.156
47800.249
47806.494
47812.854
47819.284
47825.729
47832.13
47838.419
47844.519
47850.347
47855.809
47860.793
47865.165
47868.744
47871.262
47872.354
47871.487
47867.929
47861.049
47849.85
47834.53
47815.69
47794.71
47775.928
47758.41
47730.787
47691.339
47691.341
47691.342
47691.343
47691.345
47691.347
47691.349
47691.352
47691.355
47691.359
47691.363
47691.369
47691.375
47691.382
47691.39
47691.399
47691.409
47691.421
47691.434
47691.449
47691.465
47691.484
47691.505
47691.528
47691.554
47691.583
47691.615
47691.65
47691.69
47691.734
47691.782
47691.836
47691.896
47691.962
47692.035
47692.116
47692.205
47692.304
47692.413
47692.533
47692.665
47692.81
47692.971
47693.148
47693.344
47693.561
47693.803
47694.076
47694.392
47694.771
47695.216
47695.705
47696.24
47696.817
47697.445
47698.123
47698.859
47699.655
47700.517
47701.45
47702.459
47703.551
47704.731
47706.006
47707.383
47708.87
47710.475
47712.206
47714.071
47716.08
47718.242
47720.566
47723.063
47725.743
47728.616
47731.691
47734.979
47738.489
47742.23
47746.209
47750.433
47754.906
47759.631
47764.608
47769.832
47775.297
47780.991
47786.896
47792.989
47799.241
47805.614
47812.065
47818.541
47824.983
47831.326
47837.494
47843.408
47848.974
47854.088
47858.618
47862.394
47865.156
47866.549
47866.048
47862.921
47856.519
47845.809
47830.911
47812.375
47791.518
47772.81
47755.764
47728.933
47692.432
47684.474
47684.476
47684.477
47684.479
47684.48
47684.482
47684.484
47684.487
47684.49
47684.494
47684.499
47684.504
47684.51
47684.517
47684.526
47684.535
47684.545
47684.557
47684.57
47684.585
47684.602
47684.621
47684.642
47684.665
47684.691
47684.72
47684.752
47684.788
47684.828
47684.872
47684.921
47684.975
47685.035
47685.102
47685.175
47685.256
47685.346
47685.445
47685.554
47685.674
47685.806
47685.952
47686.113
47686.29
47686.486
47686.703
47686.944
47687.216
47687.531
47687.909
47688.354
47688.843
47689.377
47689.955
47690.582
47691.26
47691.995
47692.79
47693.651
47694.581
47695.588
47696.676
47697.853
47699.123
47700.495
47701.976
47703.574
47705.296
47707.152
47709.151
47711.301
47713.613
47716.097
47718.762
47721.619
47724.678
47727.949
47731.441
47735.164
47739.124
47743.33
47747.785
47752.493
47757.454
47762.666
47768.12
47773.806
47779.708
47785.803
47792.062
47798.45
47804.923
47811.43
47817.915
47824.311
47830.548
47836.544
47842.213
47847.451
47852.132
47856.095
47859.088
47860.766
47860.616
47857.903
47851.968
47841.74
47827.265
47809.041
47788.313
47769.672
47753.085
47727.052
47691.055
47677.508
47677.509
47677.51
47677.512
47677.513
47677.515
47677.518
47677.52
47677.524
47677.528
47677.532
47677.538
47677.544
47677.551
47677.56
47677.569
47677.58
47677.592
47677.605
47677.621
47677.638
47677.657
47677.679
47677.703
47677.73
47677.759
47677.793
47677.83
47677.87
47677.916
47677.966
47678.022
47678.084
47678.152
47678.227
47678.31
47678.402
47678.503
47678.615
47678.738
47678.874
47679.023
47679.187
47679.368
47679.567
47679.787
47680.033
47680.31
47680.628
47681.012
47681.463
47681.96
47682.502
47683.087
47683.72
47684.404
47685.144
47685.943
47686.807
47687.741
47688.749
47689.838
47691.013
47692.282
47693.651
47695.128
47696.721
47698.437
47700.286
47702.275
47704.416
47706.717
47709.188
47711.839
47714.682
47717.725
47720.98
47724.455
47728.16
47732.103
47736.291
47740.73
47745.422
47750.369
47755.568
47761.013
47766.693
47772.592
47778.69
47784.958
47791.362
47797.859
47804.399
47810.926
47817.377
47823.68
47829.758
47835.525
47840.882
47845.708
47849.847
47853.059
47855.008
47855.191
47852.876
47847.394
47837.641
47823.59
47805.686
47785.096
47766.517
47750.374
47725.148
47689.674
47658.096
47670.834
47670.835
47670.836
47670.838
47670.839
47670.841
47670.844
47670.846
47670.849
47670.853
47670.858
47670.863
47670.869
47670.877
47670.885
47670.894
47670.904
47670.916
47670.93
47670.945
47670.962
47670.981
47671.002
47671.025
47671.051
47671.081
47671.113
47671.149
47671.19
47671.234
47671.283
47671.338
47671.398
47671.465
47671.539
47671.621
47671.711
47671.81
47671.919
47672.04
47672.172
47672.318
47672.479
47672.656
47672.852
47673.068
47673.308
47673.58
47673.893
47674.271
47674.719
47675.212
47675.751
47676.334
47676.965
47677.647
47678.385
47679.183
47680.045
47680.976
47681.982
47683.069
47684.241
47685.507
47686.872
47688.344
47689.931
47691.64
47693.48
47695.461
47697.591
47699.881
47702.34
47704.978
47707.807
47710.835
47714.073
47717.532
47721.221
47725.147
47729.318
47733.741
47738.418
47743.351
47748.539
47753.975
47759.65
47765.549
47771.651
47777.93
47784.35
47790.872
47797.446
47804.017
47810.522
47816.892
47823.05
47828.913
47834.385
47839.347
47843.653
47847.07
47849.274
47849.773
47847.84
47842.797
47833.513
47819.887
47802.31
47781.869
47763.348
47747.634
47723.22
47688.289
47656.986
47626.378
47664.311
47664.313
47664.314
47664.315
47664.317
47664.318
47664.321
47664.323
47664.326
47664.33
47664.335
47664.34
47664.346
47664.353
47664.361
47664.37
47664.38
47664.392
47664.405
47664.42
47664.436
47664.455
47664.476
47664.499
47664.525
47664.553
47664.585
47664.621
47664.66
47664.704
47664.752
47664.806
47664.865
47664.931
47665.004
47665.084
47665.172
47665.27
47665.377
47665.495
47665.626
47665.769
47665.927
47666.101
47666.293
47666.505
47666.741
47667.007
47667.315
47667.687
47668.128
47668.615
47669.148
47669.724
47670.349
47671.023
47671.754
47672.545
47673.399
47674.323
47675.321
47676.4
47677.564
47678.822
47680.178
47681.641
47683.218
47684.918
47686.748
47688.718
47690.836
47693.113
47695.559
47698.183
47700.996
47704.009
47707.232
47710.674
47714.346
47718.256
47722.411
47726.818
47731.481
47736.402
47741.579
47747.007
47752.679
47758.578
47764.686
47770.976
47777.415
47783.963
47790.573
47797.188
47803.748
47810.184
47816.421
47822.377
47827.958
47833.051
47837.513
47841.123
47843.566
47844.365
47842.796
47838.178
47829.354
47816.154
47798.914
47778.633
47760.166
47744.868
47721.269
47686.9
47655.878
47625.576
47657.911
47657.912
47657.913
47657.915
47657.916
47657.918
47657.92
47657.923
47657.926
47657.93
47657.934
47657.939
47657.945
47657.952
47657.96
47657.969
47657.979
47657.99
47658.003
47658.018
47658.034
47658.052
47658.072
47658.095
47658.12
47658.149
47658.18
47658.215
47658.254
47658.296
47658.344
47658.397
47658.455
47658.519
47658.59
47658.669
47658.756
47658.851
47658.957
47659.073
47659.201
47659.341
47659.496
47659.666
47659.854
47660.062
47660.293
47660.555
47660.856
47661.222
47661.656
47662.137
47662.663
47663.232
47663.849
47664.516
47665.238
47666.019
47666.865
47667.778
47668.766
47669.834
47670.987
47672.232
47673.577
47675.028
47676.592
47678.278
47680.095
47682.051
47684.155
47686.418
47688.848
47691.457
47694.254
47697.251
47700.457
47703.883
47707.538
47711.431
47715.57
47719.962
47724.612
47729.521
47734.688
47740.11
47745.779
47751.68
47757.795
47764.098
47770.557
47777.133
47783.778
47790.439
47797.055
47803.556
47809.871
47815.917
47821.604
47826.82
47831.429
47835.219
47837.886
47838.966
47837.744
47833.536
47825.164
47812.391
47795.496
47775.389
47756.976
47742.079
47719.299
47685.508
47654.77
47624.766
47598.678
47651.606
47651.607
47651.609
47651.61
47651.611
47651.613
47651.615
47651.618
47651.621
47651.624
47651.629
47651.634
47651.64
47651.646
47651.654
47651.663
47651.673
47651.684
47651.697
47651.711
47651.727
47651.745
47651.765
47651.787
47651.812
47651.84
47651.87
47651.905
47651.942
47651.985
47652.031
47652.083
47652.14
47652.203
47652.273
47652.35
47652.435
47652.529
47652.633
47652.746
47652.872
47653.01
47653.161
47653.328
47653.512
47653.716
47653.942
47654.198
47654.494
47654.853
47655.28
47655.755
47656.274
47656.835
47657.444
47658.103
47658.816
47659.588
47660.423
47661.326
47662.303
47663.359
47664.5
47665.732
47667.063
47668.5
47670.05
47671.721
47673.523
47675.463
47677.551
47679.797
47682.211
47684.802
47687.583
47690.562
47693.751
47697.159
47700.797
47704.674
47708.798
47713.175
47717.811
47722.709
47727.867
47733.284
47738.951
47744.855
47750.978
47757.295
47763.776
47770.38
47777.063
47783.771
47790.442
47797.01
47803.401
47809.535
47815.322
47820.655
47825.402
47829.359
47832.235
47833.579
47832.686
47828.872
47820.943
47808.597
47792.057
47772.139
47753.78
47739.269
47717.308
47684.114
47653.663
47623.946
47598.09
47645.383
47645.384
47645.385
47645.387
47645.388
47645.39
47645.392
47645.394
47645.397
47645.401
47645.405
47645.41
47645.416
47645.423
47645.43
47645.439
47645.448
47645.459
47645.472
47645.486
47645.502
47645.519
47645.539
47645.561
47645.585
47645.612
47645.643
47645.676
47645.713
47645.755
47645.801
47645.851
47645.907
47645.969
47646.038
47646.114
47646.197
47646.289
47646.391
47646.502
47646.625
47646.76
47646.909
47647.072
47647.253
47647.452
47647.674
47647.925
47648.214
47648.566
47648.986
47649.454
47649.966