/*--------------------------------*- C++ -*----------------------------------*\
| =========                 |                                                 |
| \\      /  F ield         | OpenFOAM: The Open Source CFD Toolbox           |
|  \\    /   O peration     | Version:  2506                                  |
|   \\  /    A nd           | Website:  www.openfoam.com                      |
|    \\/     M anipulation  |                                                 |
\*---------------------------------------------------------------------------*/
FoamFile
{
    version     2.0;
    format      ascii;
    arch        "LSB;label=32;scalar=64";
    class       volScalarField;
    location    "0.016";
    object      T;
}
// * * * * * * * * * * * * * * * * * * * * * * * * * * * * * * * * * * * * * //

dimensions      [0 0 0 1 0 0 0];

internalField   nonuniform List<scalar> 
13761
(
245.15824
245.15758
245.15636
245.15468
245.15312
245.15206
245.1523
245.15436
245.15875
245.16545
245.17436
245.18518
245.1977
245.21172
245.22717
245.24401
245.26225
245.28192
245.30305
245.32571
245.34996
245.37588
245.40351
245.43291
245.46412
245.49717
245.53207
245.56883
245.60746
245.64793
245.69024
245.73436
245.78027
245.82796
245.87741
245.92864
245.98166
246.03648
246.09317
246.1519
246.21296
246.2766
245.00812
245.0144
245.02784
245.04964
245.08037
245.12091
245.17088
245.22881
245.29116
245.35437
245.41574
245.47417
245.5294
245.58177
245.63177
245.67995
245.72683
245.77284
245.81835
245.86364
245.90898
245.95458
246.00058
246.0471
246.09423
246.14201
246.19047
246.23963
246.28946
246.33994
246.39103
246.44269
246.49487
246.54752
246.6006
246.65404
246.70769
246.76093
246.81373
245.74073
245.74577
245.75647
245.77381
245.7986
245.83166
245.873
245.92134
245.97393
246.02768
246.08035
246.13086
246.17893
246.22471
246.26857
246.31087
246.35197
246.39218
246.43172
246.47078
246.50949
246.54792
246.5861
246.62396
246.66142
246.69851
246.73521
246.77148
246.80728
246.84253
246.87715
246.91104
246.94405
246.97605
247.00688
247.03652
246.3901
246.39227
246.39722
246.40564
246.41858
246.4367
246.46037
246.48869
246.51994
246.55197
246.58328
246.61306
246.64111
246.66746
246.69231
246.71588
246.73835
246.75989
246.78062
246.80066
246.8201
246.83906
246.85769
246.87622
246.89478
246.91329
246.93166
246.94978
246.96751
246.98469
247.00113
246.70711
246.70819
246.71048
246.71419
246.71951
246.72657
246.73546
246.74594
246.7574
246.7691
246.7805
246.79132
246.80146
246.81093
246.81975
246.82795
246.83553
246.84246
246.84867
246.85408
246.85852
246.86181
246.86368
246.8638
246.75895
247.022
247.02191
247.02174
247.02149
247.02121
247.0209
247.02064
247.02043
247.02033
247.02031
247.02038
247.02052
247.02072
247.02096
247.02122
247.0215
247.02179
247.02206
247.02232
247.02255
247.02273
247.02286
247.02291
247.02288
247.02274
247.02249
247.02209
247.02152
247.02076
247.01977
247.01853
247.01698
247.01509
247.0128
247.01003
247.00671
247.00273
246.99795
246.9922
246.98522
246.97667
246.96602
246.95248
246.93464
246.90976
246.87192
246.80501
246.65077
246.24183
245.93674
245.85552
245.84577
245.84826
245.85166
245.85532
245.85828
245.86055
245.86183
245.86265
245.86349
245.86565
245.87064
245.87908
245.88948
245.8999
245.90899
245.91713
245.92621
245.93784
245.95276
245.96938
245.98462
247.00035
247.00049
247.00078
247.00124
247.00186
247.00261
247.00346
247.00434
247.0052
247.006
247.00674
247.00743
247.00805
247.00862
247.00915
247.00963
247.01007
247.01048
247.01083
247.01114
247.0114
247.0116
247.01174
247.01179
247.01175
247.01161
247.01134
247.01093
247.01035
247.00956
247.00854
247.00724
247.00563
247.00363
247.00119
246.99822
246.99461
246.99023
246.98491
246.97839
246.97032
246.96017
246.94709
246.92957
246.90499
246.86749
246.80115
246.64843
246.24431
245.93043
245.83991
245.82742
245.82945
245.83316
245.83652
245.8399
245.843
245.84535
245.84666
245.84739
245.84845
245.85115
245.85683
245.86582
245.87687
245.88804
245.89818
245.90783
245.91931
245.93398
245.95088
245.96725
245.97989
245.98708
245.98999
245.99067
245.99017
245.98982
245.99086
245.99494
246.00006
246.00419
246.97801
246.97823
246.97869
246.97942
246.98043
246.98172
246.98323
246.98487
246.98653
246.98813
246.98964
246.99105
246.99235
246.99355
246.99464
246.99563
246.99654
246.99735
246.99807
246.9987
246.99924
246.99968
247.00002
247.00025
247.00036
247.00035
247.00018
246.99985
246.99934
246.99861
246.99763
246.99637
246.99478
246.99281
246.99039
246.98745
246.98388
246.97956
246.97432
246.96792
246.96003
246.95014
246.93743
246.92054
246.89695
246.86115
246.79748
246.64793
246.2416
245.92051
245.8291
245.81581
245.81738
245.8209
245.8243
245.82759
245.83065
245.83355
245.83574
245.83702
245.83772
245.83908
245.84249
245.84912
245.85859
245.86901
245.87906
245.88909
245.90033
245.91409
245.93035
245.94697
245.96079
245.97003
245.97504
245.97705
245.97767
245.97781
245.97808
245.97949
245.9817
245.98469
245.99025
245.99906
246.00875
246.01433
246.01464
246.00835
246.97753
246.97756
246.97762
246.97775
246.97796
246.97827
246.97872
246.97927
246.97992
246.98062
246.98137
246.98213
246.98292
246.9837
246.98448
246.98525
246.986
246.98673
246.98742
246.98807
246.98868
246.98923
246.98971
246.99011
246.99042
246.99062
246.9907
246.99063
246.9904
246.98998
246.98933
246.98842
246.9872
246.98563
246.98364
246.98114
246.97805
246.97424
246.96955
246.96374
246.95649
246.94733
246.93549
246.91968
246.89754
246.86357
246.8032
246.66333
246.26428
245.91829
245.81093
245.79551
245.79735
245.801
245.80511
245.809
245.81287
245.8164
245.81985
245.82247
245.82416
245.82543
245.82782
245.83259
245.84044
245.85071
245.86189
245.8729
245.88417
245.89714
245.91248
245.9287
245.94331
245.9545
245.96146
245.96503
245.96689
245.9675
245.96701
245.96584
245.96568
245.96805
245.97564
245.98682
245.99786
246.003
246.00123
245.99171
245.98257
245.97324
245.96472
245.96043
246.95318
246.95337
246.95378
246.95443
246.95533
246.95647
246.95779
246.95924
246.96071
246.96216
246.96355
246.96488
246.96614
246.96734
246.96848
246.96956
246.97058
246.97156
246.97248
246.97335
246.97416
246.97491
246.9756
246.97621
246.97673
246.97716
246.97748
246.97767
246.97771
246.97757
246.97723
246.97665
246.97579
246.97459
246.973
246.97093
246.9683
246.96497
246.96078
246.9555
246.94881
246.94022
246.92899
246.91379
246.89206
246.85836
246.79838
246.66006
246.27214
245.91516
245.79696
245.77795
245.77941
245.78322
245.78673
245.79043
245.79445
245.79881
245.80298
245.80697
245.8102
245.81258
245.81477
245.81837
245.82529
245.83514
245.8462
245.85744
245.86868
245.88071
245.89403
245.90835
245.92244
245.93428
245.94263
245.94832
245.9515
245.95202
245.95017
245.94631
245.94395
245.94542
245.95437
245.9676
245.9798
245.98405
245.97973
245.96821
245.959
245.95209
245.94756
245.94546
245.95044
245.96535
245.99563
246.94894
246.949
246.94912
246.94934
246.94966
246.95009
246.95066
246.95132
246.95204
246.95281
246.9536
246.9544
246.95519
246.95599
246.95678
246.95756
246.95833
246.95908
246.9598
246.9605
246.96116
246.96178
246.96235
246.96287
246.9633
246.96366
246.96391
246.96405
246.96404
246.96387
246.9635
246.9629
246.96202
246.96083
246.95924
246.9572
246.95459
246.95132
246.9472
246.94202
246.93547
246.92708
246.91611
246.90131
246.8803
246.84813
246.7912
246.65652
246.26701
245.9053
245.78809
245.7684
245.76924
245.77297
245.77669
245.78011
245.78339
245.78701
245.79119
245.79555
245.79942
245.8027
245.80545
245.80889
245.81414
245.82206
245.83229
245.84335
245.8546
245.86579
245.87735
245.88976
245.90242
245.91385
245.92363
245.93108
245.93541
245.93628
245.93403
245.92824
245.92392
245.92412
245.93423
245.94972
245.96279
245.96634
245.96209
245.95091
245.94279
245.93923
245.93647
245.93487
245.93871
245.95107
245.97722
246.01221
246.04967
246.92911
246.92927
246.92962
246.93017
246.93095
246.93195
246.93315
246.93447
246.93584
246.93721
246.93855
246.93983
246.94107
246.94226
246.9434
246.94449
246.94555
246.94656
246.94752
246.94845
246.94932
246.95015
246.95091
246.95162
246.95225
246.9528
246.95325
246.95359
246.9538
246.95385
246.95372
246.95337
246.95276
246.95185
246.95058
246.94889
246.94668
246.94384
246.94021
246.93561
246.92974
246.92215
246.91218
246.89863
246.87932
246.84954
246.79598
246.66959
246.28831
245.90672
245.77209
245.75032
245.75146
245.7554
245.75961
245.76355
245.7672
245.77057
245.77459
245.77913
245.78394
245.7881
245.79166
245.79493
245.79931
245.80605
245.8153
245.82648
245.83771
245.84805
245.85789
245.86809
245.87881
245.88979
245.90053
245.90943
245.91461
245.91554
245.91241
245.90475
245.89847
245.89661
245.90752
245.92517
245.9394
245.94447
245.94214
245.93157
245.92519
245.92369
245.92172
245.92111
245.92366
245.93478
245.95767
245.99038
246.02721
246.0762
246.13468
246.91883
246.91889
246.91904
246.91929
246.91967
246.9202
246.9209
246.92172
246.92264
246.92361
246.92461
246.92563
246.92665
246.92767
246.92868
246.92969
246.93069
246.93167
246.93264
246.93359
246.93452
246.93541
246.93627
246.93709
246.93786
246.93857
246.93921
246.93975
246.94019
246.9405
246.94065
246.94062
246.94036
246.93982
246.93896
246.9377
246.93595
246.9336
246.93051
246.92647
246.92118
246.91422
246.9049
246.89206
246.87346
246.84396
246.7905
246.66518
246.30064
245.90616
245.75888
245.73123
245.73181
245.73611
245.74018
245.7443
245.74829
245.75243
245.7563
245.76104
245.76637
245.7717
245.77618
245.77981
245.78372
245.78925
245.7975
245.80774
245.81844
245.82846
245.83745
245.84573
245.85432
245.86449
245.87563
245.88595
245.89295
245.89465
245.8912
245.88258
245.87519
245.8727
245.8859
245.90645
245.92325
245.93082
245.9297
245.9212
245.91596
245.91399
245.91205
245.91084
245.91215
245.92232
245.94115
245.97069
246.00642
246.05662
246.11367
246.16962
246.22585
246.89911
246.89927
246.89961
246.90016
246.90092
246.9019
246.90306
246.90434
246.90567
246.907
246.90829
246.90955
246.91077
246.91194
246.91307
246.91417
246.91523
246.91625
246.91724
246.91818
246.91909
246.91996
246.92077
246.92154
246.92223
246.92286
246.9234
246.92385
246.92418
246.92438
246.92442
246.92427
246.9239
246.92326
246.9223
246.92097
246.91916
246.91679
246.91369
246.90967
246.90444
246.89757
246.88837
246.87565
246.85722
246.82825
246.77712
246.65754
246.29438
245.89648
245.75115
245.72263
245.72219
245.72594
245.73019
245.73401
245.73766
245.7412
245.7451
245.74929
245.75402
245.75942
245.76433
245.7683
245.77147
245.77538
245.7811
245.78881
245.79812
245.8072
245.81463
245.82046
245.82684
245.83526
245.84591
245.85781
245.86667
245.86886
245.8653
245.85621
245.84876
245.84782
245.86385
245.8872
245.9065
245.91501
245.91497
245.9085
245.90261
245.90005
245.89739
245.89573
245.89769
245.9068
245.92315
245.94982
245.98585
246.037
246.09269
246.14686
246.20314
246.26895
246.89311
246.89319
246.89335
246.89362
246.89401
246.89454
246.8952
246.89598
246.89683
246.89773
246.89866
246.8996
246.90054
246.90149
246.90244
246.90339
246.90433
246.90526
246.90618
246.90709
246.90798
246.90884
246.90967
246.91046
246.9112
246.91188
246.91249
246.91302
246.91343
246.91372
246.91387
246.91383
246.91358
246.91307
246.91226
246.91109
246.90947
246.90732
246.9045
246.90083
246.89605
246.8898
246.88145
246.86999
246.85344
246.82752
246.78059
246.66826
246.31584
245.90028
245.73845
245.70775
245.70724
245.71101
245.71507
245.7194
245.72355
245.72723
245.73086
245.73489
245.73973
245.7449
245.75016
245.75462
245.75812
245.76122
245.76497
245.77074
245.77805
245.78542
245.79122
245.79554
245.79974
245.80526
245.81464
245.82689
245.83742
245.84198
245.84067
245.83426
245.82934
245.83239
245.85156
245.87669
245.89594
245.90431
245.90492
245.89919
245.89328
245.89005
245.88609
245.88471
245.88708
245.89515
245.90837
245.93088
245.96742
246.01815
246.07212
246.12365
246.17906
246.24601
246.31571
246.364
246.86922
246.86939
246.86977
246.87037
246.87124
246.87236
246.87371
246.87521
246.87677
246.87834
246.87988
246.88137
246.88282
246.88422
246.88557
246.88689
246.88818
246.88943
246.89065
246.89184
246.89301
246.89415
246.89525
246.89632
246.89734
246.89832
246.89923
246.90008
246.90083
246.90148
246.90201
246.90237
246.90255
246.90249
246.90215
246.90146
246.90035
246.89871
246.89642
246.89329
246.88906
246.88336
246.87556
246.86465
246.84866
246.82327
246.77641
246.66463
246.32988
245.90798
245.72727
245.68845
245.68686
245.69082
245.69492
245.69925
245.70371
245.70837
245.71227
245.71604
245.72027
245.72544
245.73135
245.73697
245.74143
245.74438
245.74718
245.75057
245.7553
245.76067
245.76547
245.76915
245.77131
245.77457
245.78195
245.79364
245.8055
245.81284
245.81487
245.8127
245.81148
245.81863
245.83942
245.86425
245.88204
245.88926
245.88919
245.88381
245.87823
245.87426
245.86972
245.86883
245.87175
245.87966
245.8903
245.91021
245.94776
245.99866
246.05045
246.10003
246.15545
246.22419
246.29542
246.34528
246.36775
246.8599
246.86003
246.86029
246.86071
246.86129
246.86204
246.86295
246.86396
246.86503
246.86611
246.86719
246.86826
246.86931
246.87035
246.87138
246.87239
246.8734
246.87439
246.87537
246.87634
246.87729
246.87822
246.87914
246.88002
246.88088
246.88169
246.88246
246.88316
246.88379
246.88432
246.88474
246.88502
246.88513
246.88502
246.88466
246.88398
246.8829
246.88134
246.87915
246.87616
246.87212
246.86662
246.85907
246.8484
246.83262
246.8073
246.76066
246.65238
246.32234
245.89772
245.72105
245.68114
245.67829
245.68114
245.68491
245.6885
245.69214
245.69584
245.69967
245.70339
245.70721
245.71192
245.71722
245.72281
245.72717
245.72989
245.73101
245.73201
245.73356
245.73642
245.74044
245.74359
245.74537
245.74784
245.75335
245.76337
245.77608
245.787
245.79313
245.79592
245.79968
245.81065
245.8316
245.85468
245.86994
245.87545
245.87457
245.87058
245.86653
245.86218
245.85763
245.85718
245.86122
245.86822
245.87511
245.89196
245.93013
245.98001
246.02823
246.0755
246.12942
246.19896
246.27185
246.32342
246.34934
246.3763
246.85113
246.85119
246.85135
246.8516
246.85201
246.85257
246.85329
246.85415
246.8551
246.8561
246.85712
246.85815
246.85918
246.8602
246.86121
246.86221
246.86319
246.86416
246.8651
246.86603
246.86694
246.86782
246.86867
246.86948
246.87025
246.87097
246.87163
246.87222
246.87272
246.87312
246.87339
246.87352
246.87347
246.87322
246.87271
246.87189
246.8707
246.86905
246.86683
246.86387
246.85996
246.85475
246.8477
246.8379
246.82359
246.80095
246.75967
246.65956
246.33614
245.89956
245.71233
245.67186
245.66881
245.6715
245.67434
245.67727
245.68051
245.68367
245.687
245.69067
245.69446
245.69841
245.70302
245.70781
245.7122
245.71504
245.71609
245.71534
245.7141
245.71434
245.71608
245.71873
245.72123
245.72364
245.72795
245.73664
245.74933
245.76185
245.7718
245.77947
245.78737
245.80028
245.81977
245.84
245.85244
245.85598
245.85415
245.85149
245.84891
245.84515
245.84142
245.84147
245.84623
245.85135
245.85602
245.87111
245.91059
245.95908
246.00467
246.04964
246.10391
246.1754
246.24951
246.30222
246.33202
246.36528
246.39092
246.83764
246.83777
246.83805
246.8385
246.83912
246.83993
246.8409
246.84199
246.84314
246.84431
246.84547
246.84662
246.84776
246.84889
246.85
246.8511
246.85219
246.85328
246.85435
246.85542
246.85647
246.85752
246.85855
246.85955
246.86054
246.86148
246.86239
246.86324
246.86403
246.86473
246.86532
246.86579
246.8661
246.86621
246.86609
246.86568
246.8649
246.86368
246.86189
246.85938
246.85592
246.85116
246.84456
246.83519
246.82129
246.79897
246.7579
246.65867
246.35465
245.91652
245.70384
245.65464
245.65061
245.65373
245.65685
245.65977
245.66255
245.66626
245.66988
245.67323
245.67681
245.68048
245.68478
245.68982
245.69502
245.69884
245.69995
245.69897
245.69653
245.69471
245.69461
245.69676
245.70044
245.70383
245.70808
245.71524
245.72591
245.73902
245.75231
245.76413
245.77578
245.79016
245.80843
245.82555
245.835
245.83727
245.83624
245.83595
245.83539
245.83332
245.83034
245.83145
245.83614
245.83886
245.84037
245.85336
245.89386
245.93973
245.98138
246.02358
246.07715
246.14893
246.22372
246.27822
246.31344
246.35375
246.38352
246.36855
246.82594
246.82603
246.82622
246.82654
246.827
246.82764
246.82843
246.82934
246.83034
246.83137
246.83241
246.83345
246.83448
246.83551
246.83653
246.83755
246.83855
246.83955
246.84055
246.84153
246.84251
246.84348
246.84444
246.84538
246.8463
246.8472
246.84806
246.84888
246.84964
246.85034
246.85094
246.85143
246.85178
246.85195
246.85192
246.85161
246.85096
246.84989
246.84827
246.84595
246.84268
246.83812
246.8317
246.82246
246.80859
246.78615
246.74471
246.6468
246.34884
245.90822
245.6986
245.64623
245.64102
245.64332
245.64662
245.64919
245.65159
245.65391
245.65669
245.65994
245.66299
245.6666
245.67053
245.67531
245.68041
245.68432
245.68607
245.6855
245.6825
245.67842
245.67615
245.6775
245.68153
245.68561
245.68983
245.69532
245.70353
245.71549
245.72972
245.74471
245.76001
245.77587
245.79225
245.80557
245.81266
245.81472
245.81514
245.81661
245.8181
245.81751
245.81583
245.81828
245.82134
245.821
245.81989
245.83292
245.87457
245.9185
245.95683
245.99683
246.05066
246.12498
246.19996
246.25566
246.29616
246.34226
246.37478
246.36417
246.36031
246.81929
246.81942
246.81969
246.82012
246.82071
246.82146
246.82235
246.82333
246.82434
246.82535
246.82633
246.82729
246.82821
246.82911
246.82997
246.83082
246.83164
246.83244
246.83321
246.83397
246.83471
246.83542
246.8361
246.83675
246.83737
246.83795
246.83847
246.83893
246.83932
246.83962
246.83982
246.83988
246.83979
246.83952
246.83901
246.83824
246.83713
246.83562
246.8336
246.83094
246.82745
246.82283
246.81657
246.80784
246.79506
246.77476
246.73765
246.6474
246.35583
245.90656
245.69215
245.63989
245.63432
245.63652
245.63914
245.6411
245.64296
245.64442
245.64607
245.64818
245.65083
245.65354
245.65666
245.66021
245.66436
245.66879
245.67158
245.67195
245.66927
245.66498
245.66206
245.66152
245.66469
245.66954
245.67438
245.67901
245.6851
245.69467
245.70831
245.72544
245.74381
245.76168
245.77717
245.7885
245.79454
245.79726
245.79946
245.80323
245.80639
245.80661
245.80713
245.80993
245.81156
245.8073
245.80379
245.81761
245.8592
245.90029
245.93371
245.97109
246.0245
246.09883
246.17272
246.22997
246.27759
246.33011
246.36508
246.35816
246.35938
246.32861
246.81437
246.81443
246.81457
246.81481
246.81517
246.81569
246.81636
246.81715
246.81803
246.81895
246.8199
246.82086
246.82181
246.82277
246.82372
246.82466
246.8256
246.82653
246.82746
246.82837
246.82928
246.83017
246.83105
246.83191
246.83275
246.83356
246.83433
246.83505
246.83571
246.8363
246.83679
246.83717
246.83741
246.83748
246.83734
246.83693
246.83621
246.83509
246.83346
246.8312
246.8281
246.82385
246.818
246.8097
246.7974
246.77767
246.74118
246.65267
246.37498
245.92433
245.68473
245.62317
245.61622
245.61928
245.62254
245.62517
245.62679
245.62872
245.63055
245.63197
245.63375
245.63559
245.63758
245.64015
245.64377
245.64804
245.65208
245.65431
245.65357
245.65037
245.64661
245.64461
245.64705
245.65261
245.65825
245.66285
245.66814
245.67619
245.68904
245.70661
245.72659
245.74565
245.76076
245.77073
245.77589
245.77899
245.78298
245.78837
245.79201
245.79337
245.79489
245.79725
245.79761
245.78879
245.7846
245.79916
245.8413
245.87967
245.90962
245.94501
245.99918
246.07479
246.14834
246.20648
246.26093
246.31818
246.35445
246.35212
246.35749
246.31971
246.25341
246.80057
246.8007
246.80096
246.80138
246.80197
246.80275
246.80368
246.80474
246.80587
246.80702
246.80818
246.80932
246.81044
246.81154
246.81262
246.81368
246.81473
246.81577
246.81679
246.81781
246.81881
246.81981
246.82079
246.82176
246.82272
246.82365
246.82456
246.82543
246.82626
246.82703
246.82772
246.82831
246.82878
246.8291
246.82922
246.8291
246.82867
246.82785
246.82652
246.82453
246.82165
246.81757
246.8118
246.80346
246.79094
246.77066
246.7331
246.64311
246.36878
245.92259
245.67888
245.61076
245.60228
245.60478
245.60867
245.61192
245.61432
245.61591
245.61709
245.61855
245.61922
245.6203
245.62179
245.62355
245.62559
245.62809
245.63122
245.63395
245.6353
245.63406
245.63088
245.62879
245.63056
245.6362
245.64287
245.64919
245.65513
245.66322
245.67604
245.69391
245.71438
245.73373
245.74846
245.75745
245.76243
245.76693
245.77278
245.77891
245.78277
245.78425
245.78638
245.78916
245.78728
245.77509
245.77072
245.78717
245.82822
245.86206
245.88825
245.92142
245.97589
246.05022
246.12085
246.17984
246.24243
246.30519
246.34316
246.34458
246.3545
246.31125
246.23911
246.26038
246.8056
246.80557
246.80554
246.8055
246.80549
246.80553
246.80564
246.80584
246.80612
246.80647
246.80688
246.80733
246.80782
246.80833
246.80886
246.8094
246.80995
246.81051
246.81107
246.81163
246.81218
246.81272
246.81324
246.81375
246.81423
246.81469
246.81512
246.81551
246.81585
246.81614
246.81634
246.81646
246.81645
246.81631
246.81598
246.81543
246.81459
246.81341
246.81177
246.80953
246.8065
246.80237
246.79668
246.7886
246.77661
246.75735
246.72178
246.63588
246.36439
245.91506
245.67249
245.60544
245.59681
245.59912
245.60285
245.60568
245.60807
245.60937
245.61027
245.61075
245.6117
245.61261
245.61301
245.61294
245.61283
245.61365
245.61508
245.6173
245.619
245.61856
245.61623
245.61445
245.61492
245.61952
245.62678
245.63499
245.64326
245.65348
245.66701
245.68442
245.70427
245.72249
245.73585
245.74358
245.7481
245.75275
245.75937
245.76623
245.7699
245.77126
245.77377
245.77625
245.77211
245.75829
245.75415
245.77256
245.8109
245.84153
245.86515
245.89777
245.95293
246.02672
246.09531
246.15573
246.2254
246.29198
246.33083
246.33675
246.35021
246.30058
246.22504
246.25203
246.2922
246.79489
246.79504
246.79534
246.79582
246.79648
246.79733
246.79832
246.79939
246.80049
246.80157
246.80261
246.8036
246.80456
246.80548
246.80637
246.80724
246.80808
246.80891
246.80972
246.81051
246.81128
246.81203
246.81276
246.81347
246.81415
246.8148
246.81541
246.81597
246.81648
246.81691
246.81727
246.81752
246.81765
246.81763
246.81742
246.81698
246.81626
246.81518
246.81366
246.81155
246.80869
246.8048
246.79945
246.79188
246.78067
246.76264
246.72925
246.64797
246.38712
245.92629
245.66554
245.59136
245.58175
245.58511
245.58943
245.59301
245.59546
245.59747
245.59912
245.60016
245.6012
245.60175
245.60193
245.60166
245.60123
245.60099
245.60167
245.60289
245.60402
245.60417
245.60323
245.60172
245.60125
245.60506
245.61287
245.62276
245.63358
245.6457
245.66022
245.67766
245.69638
245.71329
245.7247
245.73112
245.73525
245.73998
245.74787
245.75542
245.75947
245.76135
245.76424
245.76621
245.76032
245.74603
245.74316
245.76327
245.79751
245.82409
245.8451
245.87748
245.9319
246.00287
246.06755
246.1287
246.20532
246.27673
246.31753
246.32799
246.34387
246.29032
246.21163
246.24347
246.29187
246.23147
246.79222
246.79225
246.79232
246.79247
246.79271
246.79308
246.79359
246.79423
246.79496
246.79577
246.79663
246.79753
246.79845
246.79939
246.80034
246.80132
246.8023
246.8033
246.8043
246.80531
246.80632
246.80734
246.80835
246.80936
246.81035
246.81132
246.81225
246.81314
246.81398
246.81474
246.81542
246.816
246.81645
246.81674
246.81683
246.81668
246.81624
246.81543
246.81416
246.81229
246.80962
246.80585
246.8005
246.79278
246.78115
246.76231
246.72743
246.64381
246.38636
245.93494
245.65881
245.57383
245.5621
245.56537
245.57071
245.57558
245.57952
245.58251
245.58463
245.58646
245.5873
245.58799
245.58872
245.58925
245.58944
245.58904
245.58873
245.58891
245.58958
245.5905
245.59033
245.58907
245.58832
245.59118
245.59827
245.60873
245.62183
245.63663
245.65323
245.671
245.68816
245.7021
245.71075
245.71538
245.71793
245.72234
245.73098
245.73916
245.74431
245.74731
245.75005
245.7512
245.74456
245.73097
245.73015
245.7503
245.77971
245.80233
245.82283
245.85604
245.91024
245.97841
246.04089
246.10434
246.18683
246.26137
246.30385
246.31846
246.33608
246.27861
246.19817
246.23548
246.29172
246.23183
246.78865
246.78874
246.78892
246.78921
246.78962
246.79016
246.79081
246.79154
246.7923
246.79307
246.79384
246.79459
246.79532
246.79604
246.79674
246.79743
246.79811
246.79878
246.79944
246.8001
246.80075
246.8014
246.80204
246.80268
246.80331
246.80392
246.80451
246.80508
246.80561
246.80609
246.80651
246.80685
246.80709
246.80719
246.80713
246.80684
246.80629
246.80538
246.80401
246.80204
246.79928
246.79541
246.78996
246.78213
246.77039
246.75144
246.71659
246.63377
246.37781
245.92353
245.65034
245.56479
245.55224
245.55468
245.55972
245.56447
245.56892
245.57226
245.57466
245.57595
245.57695
245.5775
245.57774
245.57775
245.57752
245.57742
245.57688
245.57665
245.57725
245.57808
245.57822
245.57789
245.57793
245.58007
245.58586
245.59613
245.6098
245.62622
245.64483
245.66338
245.6791
245.69038
245.69676
245.69893
245.69965
245.70447
245.71465
245.72532
245.73344
245.73831
245.74058
245.74021
245.73219
245.72068
245.72258
245.74134
245.76519
245.7837
245.80505
245.83883
245.89103
245.95418
246.01337
246.0782
246.16512
246.24306
246.2891
246.30771
246.32629
246.26701
246.18607
246.22731
246.29091
246.23161
246.15016
246.80226
246.80219
246.80205
246.80184
246.80159
246.80133
246.80109
246.80091
246.80082
246.80082
246.80091
246.80107
246.8013
246.80159
246.80192
246.80229
246.80269
246.80311
246.80355
246.80399
246.80443
246.80487
246.80531
246.80574
246.80616
246.80656
246.80694
246.80728
246.80759
246.80784
246.80803
246.80813
246.80813
246.80799
246.80768
246.80717
246.80639
246.80528
246.80373
246.80163
246.79879
246.79494
246.78965
246.78219
246.77117
246.75365
246.72164
246.64481
246.394
245.92829
245.64129
245.55149
245.53777
245.54101
245.54631
245.55121
245.55551
245.55906
245.56193
245.5637
245.56474
245.56495
245.5646
245.56427
245.56408
245.56384
245.56399
245.56413
245.5643
245.56448
245.565
245.56586
245.56681
245.56883
245.57364
245.58283
245.59676
245.61498
245.63495
245.65367
245.66852
245.67734
245.67999
245.67805
245.67732
245.68244
245.69468
245.70945
245.72114
245.72678
245.72828
245.72575
245.71658
245.70815
245.71164
245.72891
245.74704
245.76204
245.78477
245.82035
245.87016
245.92892
245.98592
246.054
246.14467
246.22505
246.27399
246.2956
246.31499
246.25512
246.17386
246.21982
246.29008
246.23121
246.15014
246.06815
246.79012
246.79018
246.79033
246.79058
246.79097
246.79151
246.7922
246.79301
246.79391
246.79485
246.7958
246.79677
246.79773
246.79868
246.79963
246.80056
246.80149
246.80241
246.80333
246.80424
246.80516
246.80608
246.807
246.8079
246.80879
246.80966
246.8105
246.8113
246.81206
246.81275
246.81338
246.81391
246.81432
246.8146
246.8147
246.81459
246.8142
246.81347
246.81231
246.81059
246.80812
246.80464
246.7997
246.79258
246.78185
246.76442
246.73193
246.65313
246.40809
245.94541
245.63356
245.52797
245.51073
245.51406
245.52075
245.52704
245.53244
245.53711
245.54081
245.54365
245.54515
245.54578
245.54583
245.54561
245.54568
245.54623
245.54679
245.54743
245.54769
245.54805
245.54912
245.55099
245.55336
245.55639
245.56194
245.57095
245.58433
245.60212
245.62264
245.64229
245.6567
245.66327
245.66305
245.65934
245.658
245.66362
245.67972
245.69924
245.71404
245.72071
245.7217
245.71602
245.70655
245.70028
245.70561
245.72034
245.73227
245.74463
245.7702
245.80653
245.85249
245.90516
245.95881
246.02897
246.12095
246.20328
246.25683
246.28221
246.30243
246.2434
246.16314
246.21271
246.28828
246.22984
246.15096
246.06926
246.78825
246.78832
246.78846
246.7887
246.78903
246.78948
246.79003
246.79066
246.79135
246.79207
246.79281
246.79357
246.79434
246.79513
246.79592
246.79673
246.79754
246.79837
246.79921
246.80006
246.8009
246.80175
246.80259
246.80344
246.80427
246.8051
246.80591
246.8067
246.80745
246.80815
246.8088
246.80936
246.80983
246.81016
246.81033
246.81029
246.80999
246.80935
246.80827
246.80662
246.8042
246.80072
246.79571
246.78839
246.77727
246.75912
246.72543
246.64511
246.3991
245.93825
245.62502
245.51307
245.49321
245.49535
245.50099
245.50718
245.51307
245.51831
245.52248
245.52536
245.52719
245.52787
245.52805
245.5277
245.52708
245.52691
245.52765
245.52895
245.53048
245.53211
245.53433
245.53704
245.54021
245.54494
245.55142
245.55959
245.57173
245.58889
245.60959
245.62931
245.64265
245.64726
245.64546
245.64063
245.63824
245.64517
245.66513
245.6871
245.70392
245.71173
245.71195
245.70372
245.69378
245.68885
245.69619
245.70777
245.7153
245.72562
245.75329
245.79018
245.83295
245.88
245.9317
246.00524
246.09815
246.18296
246.23974
246.26789
246.28863
246.23219
246.15268
246.20589
246.28632
246.22867
246.15081
246.06833
246.05608
246.79313
246.79317
246.79324
246.79337
246.79355
246.79381
246.79413
246.79451
246.79494
246.7954
246.79589
246.79639
246.79691
246.79744
246.79798
246.79853
246.79908
246.79965
246.80022
246.80079
246.80137
246.80194
246.8025
246.80304
246.80356
246.80406
246.80452
246.80494
246.80531
246.80563
246.80587
246.80603
246.80608
246.806
246.80575
246.80531
246.8046
246.80358
246.80214
246.80016
246.79746
246.79376
246.78862
246.7813
246.77038
246.75279
246.72028
246.64202
246.39564
245.93015
245.61502
245.50312
245.48224
245.48401
245.4894
245.49482
245.49979
245.5044
245.50835
245.51148
245.51357
245.51454
245.51399
245.51268
245.51143
245.51066
245.51125
245.51308
245.51547
245.51849
245.52145
245.52466
245.52934
245.53507
245.54126
245.54915
245.55985
245.5752
245.59498
245.61424
245.62688
245.63067
245.62906
245.62446
245.62266
245.63356
245.65548
245.67811
245.6965
245.70499
245.70487
245.69586
245.68628
245.68347
245.69123
245.69886
245.70257
245.71145
245.74234
245.77864
245.81725
245.85805
245.90688
245.98203
246.07328
246.15879
246.22006
246.25224
246.27435
246.22117
246.1432
246.20018
246.28329
246.22625
246.15074
246.06979
246.05598
246.79926
246.79928
246.79932
246.7994
246.79954
246.79975
246.80004
246.8004
246.80084
246.80132
246.80185
246.8024
246.80298
246.80358
246.80421
246.80485
246.8055
246.80617
246.80684
246.80753
246.80822
246.80892
246.80962
246.81031
246.811
246.81167
246.81231
246.81292
246.81347
246.81398
246.81441
246.81474
246.81497
246.81506
246.81497
246.81468
246.81413
246.81326
246.81198
246.81019
246.80771
246.80429
246.79956
246.79285
246.78289
246.76695
246.73753
246.66579