/*--------------------------------*- C++ -*----------------------------------*\
| =========                 |                                                 |
| \\      /  F ield         | OpenFOAM: The Open Source CFD Toolbox           |
|  \\    /   O peration     | Version:  2506                                  |
|   \\  /    A nd           | Website:  www.openfoam.com                      |
|    \\/     M anipulation  |                                                 |
\*---------------------------------------------------------------------------*/
FoamFile
{
    version     2.0;
    format      ascii;
    arch        "LSB;label=32;scalar=64";
    class       volScalarField;
    location    "0.0015";
    object      alphat;
}
// * * * * * * * * * * * * * * * * * * * * * * * * * * * * * * * * * * * * * //

dimensions      [1 -1 -1 0 0 0 0];

internalField   nonuniform List<scalar> 
13761
(
3.718691e-06
3.7831787e-06
3.8563632e-06
3.8888762e-06
3.8726745e-06
3.8126896e-06
3.7336141e-06
3.6941924e-06
3.7207504e-06
3.7820909e-06
3.8535427e-06
3.9293116e-06
3.7827713e-06
3.8327681e-06
3.8754712e-06
3.8997183e-06
3.8893695e-06
3.8350266e-06
3.7553771e-06
3.7059993e-06
3.7225303e-06
3.780486e-06
3.8502449e-06
3.9257406e-06
4.0014534e-06
3.5921816e-06
3.6364387e-06
3.6847167e-06
3.7354055e-06
3.7873851e-06
3.8377259e-06
3.8818625e-06
3.9087679e-06
3.9033385e-06
3.8542876e-06
3.7752884e-06
3.7179517e-06
3.7260161e-06
3.780124e-06
3.8479269e-06
3.9215813e-06
3.9975615e-06
3.5015078e-06
3.5272377e-06
3.5585887e-06
3.5963973e-06
3.6407148e-06
3.6891678e-06
3.739662e-06
3.7910276e-06
3.8421519e-06
3.8876385e-06
3.9172784e-06
3.9164314e-06
3.8725862e-06
3.794902e-06
3.7309957e-06
3.7297631e-06
3.7795342e-06
3.8455657e-06
3.9182487e-06
3.9932324e-06
4.0669442e-06
3.4539677e-06
3.4674022e-06
3.4848265e-06
3.5062066e-06
3.5323048e-06
3.5633952e-06
3.600306e-06
3.6445329e-06
3.6925771e-06
3.7429135e-06
3.7951856e-06
3.8468511e-06
3.8931161e-06
3.9248403e-06
3.9275278e-06
3.8880712e-06
3.8122834e-06
3.7433296e-06
3.7337691e-06
3.7795254e-06
3.8436811e-06
3.9149099e-06
3.9893434e-06
4.0636938e-06
4.1338368e-06
3.4421781e-06
3.4434866e-06
3.4493871e-06
3.4589526e-06
3.4720928e-06
3.4892636e-06
3.5106922e-06
3.5362261e-06
3.5672468e-06
3.6046979e-06
3.648956e-06
3.696708e-06
3.7472599e-06
3.7994235e-06
3.8509655e-06
3.8981768e-06
3.9317286e-06
3.9374565e-06
3.9022358e-06
3.828786e-06
3.7558389e-06
3.7380351e-06
3.7793672e-06
3.8417318e-06
3.91182e-06
3.9855062e-06
4.0588396e-06
4.1289819e-06
4.1957724e-06
3.4663532e-06
3.460575e-06
3.4524277e-06
3.4474627e-06
3.448593e-06
3.4543197e-06
3.4636781e-06
3.4768403e-06
3.494065e-06
3.5154122e-06
3.540993e-06
3.5723457e-06
3.6093322e-06
3.6527949e-06
3.7007847e-06
3.7514519e-06
3.8033155e-06
3.8552912e-06
3.9032368e-06
3.937918e-06
3.9461271e-06
3.9146124e-06
3.843313e-06
3.7672204e-06
3.7423295e-06
3.779563e-06
3.8400071e-06
3.9087392e-06
3.9816268e-06
4.0544268e-06
4.1235656e-06
4.1902859e-06
4.2553333e-06
3.4791012e-06
3.478413e-06
3.4750744e-06
3.4710524e-06
3.4656014e-06
3.457831e-06
3.4524713e-06
3.4535294e-06
3.4591782e-06
3.4684635e-06
3.4815133e-06
3.4985282e-06
3.5195375e-06
3.5454769e-06
3.576791e-06
3.6135938e-06
3.6572294e-06
3.7053989e-06
3.7555703e-06
3.8074913e-06
3.8601112e-06
3.9082113e-06
3.9434791e-06
3.9539696e-06
3.9257117e-06
3.8563994e-06
3.7778842e-06
3.7466088e-06
3.7797257e-06
3.838179e-06
3.9057188e-06
3.9776799e-06
4.0492983e-06
4.1175566e-06
4.1829291e-06
4.2478677e-06
3.4951349e-06
3.4755138e-06
3.4733459e-06
3.4825453e-06
3.482474e-06
3.4793301e-06
3.4756966e-06
3.4704197e-06
3.462944e-06
3.4574591e-06
3.4583919e-06
3.4639356e-06
3.4730559e-06
3.4860377e-06
3.5029572e-06
3.5243276e-06
3.5505493e-06
3.5816033e-06
3.6184597e-06
3.6619872e-06
3.7095683e-06
3.759675e-06
3.8120912e-06
3.8645842e-06
3.9123864e-06
3.9486209e-06
3.9611657e-06
3.935208e-06
3.8673797e-06
3.7870435e-06
3.7503559e-06
3.7797208e-06
3.8364671e-06
3.9026238e-06
3.9732286e-06
4.043845e-06
4.1113057e-06
4.1758259e-06
4.239282e-06
4.303325e-06
3.65852e-06
3.6569912e-06
3.6268366e-06
3.5593224e-06
3.4995721e-06
3.4796203e-06
3.4766039e-06
3.4858934e-06
3.4863247e-06
3.4834161e-06
3.480115e-06
3.4751676e-06
3.4679672e-06
3.4623101e-06
3.4631366e-06
3.4685821e-06
3.4776276e-06
3.4905215e-06
3.507494e-06
3.5288179e-06
3.5544655e-06
3.5856609e-06
3.6230561e-06
3.6662362e-06
3.7138125e-06
3.7644625e-06
3.8167318e-06
3.8685746e-06
3.9166915e-06
3.9538606e-06
3.9674976e-06
3.9430849e-06
3.8767051e-06
3.7951019e-06
3.7537051e-06
3.7793008e-06
3.8344403e-06
3.8992053e-06
3.9683853e-06
4.0377964e-06
4.1041771e-06
4.1679715e-06
4.2311127e-06
4.2936188e-06
3.6475677e-06
3.6402786e-06
3.6410967e-06
3.653251e-06
3.6631363e-06
3.6621384e-06
3.6323917e-06
3.5652696e-06
3.5040825e-06
3.4835223e-06
3.4797561e-06
3.4891811e-06
3.4901374e-06
3.4874323e-06
3.4844159e-06
3.4797702e-06
3.4728089e-06
3.4670103e-06
3.4677503e-06
3.4731007e-06
3.4820389e-06
3.494884e-06
3.5117621e-06
3.5328784e-06
3.5590487e-06
3.5908648e-06
3.6283799e-06
3.6707395e-06
3.718465e-06
3.7691552e-06
3.8208673e-06
3.8726378e-06
3.9211258e-06
3.9583258e-06
3.9724857e-06
3.9495706e-06
3.8843618e-06
3.8015431e-06
3.7561788e-06
3.7785333e-06
3.8321158e-06
3.8952635e-06
3.9628924e-06
4.0312037e-06
4.097765e-06
4.1613919e-06
4.2234552e-06
4.2853789e-06
4.3451516e-06
3.6473859e-06
3.7181929e-06
3.7094566e-06
3.6757024e-06
3.6560501e-06
3.6547781e-06
3.6520467e-06
3.644685e-06
3.6450683e-06
3.6568824e-06
3.6674133e-06
3.6666404e-06
3.6375168e-06
3.5710124e-06
3.5084134e-06
3.487391e-06
3.4830124e-06
3.4924343e-06
3.4938676e-06
3.4913569e-06
3.488571e-06
3.4842367e-06
3.477475e-06
3.4715442e-06
3.4722046e-06
3.4774855e-06
3.4863423e-06
3.4991455e-06
3.5160394e-06
3.5374258e-06
3.5638145e-06
3.5954454e-06
3.6322074e-06
3.6749716e-06
3.723033e-06
3.7734145e-06
3.8252636e-06
3.8772533e-06
3.9252594e-06
3.9621431e-06
3.9769485e-06
3.9551086e-06
3.8902568e-06
3.8062393e-06
3.7578838e-06
3.7772159e-06
3.8290383e-06
3.890579e-06
3.9570003e-06
4.0252317e-06
4.0911033e-06
4.1534603e-06
4.2141695e-06
4.2745495e-06
4.3330583e-06
3.4101426e-06
3.4127762e-06
3.4253803e-06
3.4701287e-06
3.5921108e-06
3.8196343e-06
3.9350328e-06
3.7401651e-06
3.6385346e-06
3.6499337e-06
3.720955e-06
3.7151703e-06
3.6804778e-06
3.6601671e-06
3.6586724e-06
3.6557735e-06
3.6484777e-06
3.6488317e-06
3.660526e-06
3.6714519e-06
3.6710349e-06
3.642416e-06
3.5764004e-06
3.5126617e-06
3.4911539e-06
3.4862417e-06
3.4956487e-06
3.4975211e-06
3.495202e-06
3.4926152e-06
3.4885205e-06
3.4819819e-06
3.4758893e-06
3.476496e-06
3.4817107e-06
3.4905266e-06
3.5032974e-06
3.5202153e-06
3.5416747e-06
3.5678376e-06
3.5994667e-06
3.6371552e-06
3.6806426e-06
3.7280308e-06
3.7779398e-06
3.8299191e-06
3.8813986e-06
3.9287379e-06
3.9657762e-06
3.9809277e-06
3.9590385e-06
3.893864e-06
3.8090204e-06
3.7587274e-06
3.7755841e-06
3.8257253e-06
3.8860786e-06
3.9518624e-06
4.0191011e-06
4.0838576e-06
4.1450522e-06
4.2046041e-06
4.2637451e-06
4.321049e-06
1.5158284e-05
3.391124e-06
3.4088352e-06
3.4095585e-06
3.4095567e-06
3.4095566e-06
3.4095566e-06
3.4095566e-06
3.4095566e-06
3.4095566e-06
3.4095566e-06
3.4095566e-06
3.4095565e-06
3.4095565e-06
3.4095565e-06
3.4095565e-06
3.4095565e-06
3.4095565e-06
3.4095565e-06
3.4095565e-06
3.4095565e-06
3.4095565e-06
3.4095565e-06
3.4095565e-06
3.4095565e-06
3.4095565e-06
3.4095565e-06
3.4095565e-06
3.4095565e-06
3.4095565e-06
3.4095565e-06
3.4095565e-06
3.4095565e-06
3.4095565e-06
3.4095565e-06
3.4095565e-06
3.4095565e-06
3.4095566e-06
3.4095565e-06
3.4095637e-06
3.4098667e-06
3.4125722e-06
3.4249883e-06
3.469006e-06
3.5895777e-06
3.8182035e-06
3.9434408e-06
3.7476531e-06
3.6423374e-06
3.6521563e-06
3.7231154e-06
3.7201087e-06
3.684528e-06
3.6635914e-06
3.6619514e-06
3.6594111e-06
3.6524313e-06
3.6526715e-06
3.6642244e-06
3.6754341e-06
3.675233e-06
3.6470805e-06
3.5815603e-06
3.5167614e-06
3.4947894e-06
3.4894509e-06
3.4988258e-06
3.5011033e-06
3.4989574e-06
3.496543e-06
3.4926152e-06
3.4863088e-06
3.4800427e-06
3.4806082e-06
3.4857833e-06
3.4945765e-06
3.507373e-06
3.5243432e-06
3.5459421e-06
3.5724779e-06
3.604521e-06
3.6423559e-06
3.6845892e-06
3.7319849e-06
3.782585e-06
3.8342895e-06
3.8850389e-06
3.9323186e-06
3.9695729e-06
3.9841934e-06
3.9614255e-06
3.8957207e-06
3.8101268e-06
3.758612e-06
3.7737018e-06
3.8225325e-06
3.8817872e-06
3.946504e-06
4.0127038e-06
4.076405e-06
4.1364708e-06
4.1946957e-06
4.2522679e-06
4.307675e-06
1.5216844e-05
3.390965e-06
3.4088434e-06
3.4095594e-06
3.4095568e-06
3.4095566e-06
3.4095566e-06
3.4095566e-06
3.4095566e-06
3.4095566e-06
3.4095566e-06
3.4095566e-06
3.4095566e-06
3.4095566e-06
3.4095566e-06
3.4095566e-06
3.4095566e-06
3.4095566e-06
3.4095566e-06
3.4095566e-06
3.4095566e-06
3.4095566e-06
3.4095566e-06
3.4095566e-06
3.4095566e-06
3.4095566e-06
3.4095566e-06
3.4095566e-06
3.4095566e-06
3.4095566e-06
3.4095566e-06
3.4095566e-06
3.4095566e-06
3.4095566e-06
3.4095566e-06
3.4095566e-06
3.4095566e-06
3.4095566e-06
3.4095567e-06
3.4095655e-06
3.409853e-06
3.4124736e-06
3.4246014e-06
3.4679108e-06
3.5871966e-06
3.8168026e-06
3.9508085e-06
3.7542236e-06
3.6454397e-06
3.6542422e-06
3.7253348e-06
3.7249897e-06
3.6885806e-06
3.6670531e-06
3.6653567e-06
3.6631056e-06
3.6563083e-06
3.6564208e-06
3.6678658e-06
3.6793098e-06
3.6792611e-06
3.6515576e-06
3.5864686e-06
3.520707e-06
3.4982918e-06
3.4926299e-06
3.5019602e-06
3.5045957e-06
3.5026047e-06
3.5003532e-06
3.496536e-06
3.4904348e-06
3.4840114e-06
3.4845181e-06
3.489689e-06
3.4985198e-06
3.5113264e-06
3.5283992e-06
3.5501696e-06
3.5767655e-06
3.6088869e-06
3.6465087e-06
3.6892312e-06
3.7373524e-06
3.7877616e-06
3.8386281e-06
3.8892112e-06
3.9364922e-06
3.9729964e-06
3.9864187e-06
3.9624713e-06
3.895653e-06
3.8088135e-06
3.75688e-06
3.7711047e-06
3.8189559e-06
3.8772137e-06
3.9408493e-06
4.0059822e-06
4.0687022e-06
4.1276228e-06
4.1843799e-06
4.2401661e-06
4.2938463e-06
1.5269984e-05
3.3908209e-06
3.4088331e-06
3.4095594e-06
3.4095568e-06
3.4095566e-06
3.4095566e-06
3.4095566e-06
3.4095566e-06
3.4095566e-06
3.4095566e-06
3.4095566e-06
3.4095566e-06
3.4095566e-06
3.4095566e-06
3.4095566e-06
3.4095566e-06
3.4095566e-06
3.4095566e-06
3.4095566e-06
3.4095566e-06
3.4095566e-06
3.4095566e-06
3.4095566e-06
3.4095566e-06
3.4095566e-06
3.4095566e-06
3.4095566e-06
3.4095566e-06
3.4095566e-06
3.4095566e-06
3.4095566e-06
3.4095566e-06
3.4095566e-06
3.4095566e-06
3.4095566e-06
3.4095566e-06
3.4095566e-06
3.4095567e-06
3.4095649e-06
3.40984e-06
3.4123898e-06
3.4242808e-06
3.4670171e-06
3.5852815e-06
3.8159606e-06
3.9577449e-06
3.7604985e-06
3.6486135e-06
3.6564685e-06
3.727721e-06
3.7296786e-06
3.6924932e-06
3.6704026e-06
3.6686917e-06
3.6667479e-06
3.6600875e-06
3.6601134e-06
3.6714945e-06
3.6831195e-06
3.6831666e-06
3.655865e-06
3.5911144e-06
3.5244752e-06
3.5016593e-06
3.4957568e-06
3.505068e-06
3.5079917e-06
3.5061291e-06
3.5040305e-06
3.5002994e-06
3.4943363e-06
3.487783e-06
3.48824e-06
3.4934279e-06
3.50232e-06
3.5151941e-06
3.5324248e-06
3.5543445e-06
3.5811557e-06
3.6135638e-06
3.6516838e-06
3.6947961e-06
3.7423724e-06
3.7915626e-06
3.8424602e-06
3.8932264e-06
3.9397972e-06
3.9756656e-06
3.9886595e-06
3.9637239e-06
3.8952208e-06
3.8071106e-06
3.754486e-06
3.7681473e-06
3.8152525e-06
3.8723718e-06
3.9348958e-06
3.999116e-06
4.0608084e-06
4.1183311e-06
4.1734544e-06
4.2275483e-06
4.2793001e-06
1.5317585e-05
3.3906917e-06
3.408824e-06
3.4095595e-06
3.4095568e-06
3.4095566e-06
3.4095566e-06
3.4095566e-06
3.4095566e-06
3.4095566e-06
3.4095566e-06
3.4095566e-06
3.4095566e-06
3.4095566e-06
3.4095566e-06
3.4095566e-06
3.4095566e-06
3.4095566e-06
3.4095566e-06
3.4095566e-06
3.4095566e-06
3.4095566e-06
3.4095566e-06
3.4095566e-06
3.4095566e-06
3.4095566e-06
3.4095566e-06
3.4095566e-06
3.4095566e-06
3.4095566e-06
3.4095566e-06
3.4095566e-06
3.4095566e-06
3.4095566e-06
3.4095566e-06
3.4095566e-06
3.4095566e-06
3.4095566e-06
3.4095567e-06
3.4095645e-06
3.4098296e-06
3.4123212e-06
3.4240194e-06
3.4663028e-06
3.5837942e-06
3.815627e-06
3.9641881e-06
3.7663233e-06
3.6516784e-06
3.6587253e-06
3.7302293e-06
3.7341646e-06
3.6962816e-06
3.6736775e-06
3.6720198e-06
3.67035e-06
3.6637681e-06
3.6637706e-06
3.6750988e-06
3.686862e-06
3.6869829e-06
3.6599956e-06
3.5954909e-06
3.5280546e-06
3.504905e-06
3.4988381e-06
3.5081395e-06
3.5112899e-06
3.5095346e-06
3.5075582e-06
3.5038982e-06
3.4979973e-06
3.4913443e-06
3.4917788e-06
3.4969797e-06
3.505958e-06
3.5189426e-06
3.5363688e-06
3.5584639e-06
3.5854786e-06
3.6180882e-06
3.6564407e-06
3.6990421e-06
3.7462238e-06
3.7961269e-06
3.8475432e-06
3.8976846e-06
3.9432709e-06
3.9779827e-06
3.9896116e-06
3.9627327e-06
3.8922458e-06
3.8025471e-06
3.7500731e-06
3.7646994e-06
3.8111594e-06
3.8672149e-06
3.9288567e-06
3.9922958e-06
4.0528387e-06
4.1088767e-06
4.1623548e-06
4.214606e-06
4.2641833e-06
1.5359649e-05
3.3905775e-06
3.4088159e-06
3.4095595e-06
3.4095568e-06
3.4095566e-06
3.4095566e-06
3.4095566e-06
3.4095566e-06
3.4095566e-06
3.4095566e-06
3.4095566e-06
3.4095566e-06
3.4095566e-06
3.4095566e-06
3.4095566e-06
3.4095566e-06
3.4095566e-06
3.4095566e-06
3.4095566e-06
3.4095566e-06
3.4095566e-06
3.4095566e-06
3.4095566e-06
3.4095566e-06
3.4095566e-06
3.4095566e-06
3.4095566e-06
3.4095566e-06
3.4095566e-06
3.4095566e-06
3.4095566e-06
3.4095566e-06
3.4095566e-06
3.4095566e-06
3.4095566e-06
3.4095566e-06
3.4095566e-06
3.4095567e-06
3.4095641e-06
3.4098213e-06
3.4122668e-06
3.4238148e-06
3.4657641e-06
3.5827378e-06
3.8158121e-06
3.9702483e-06
3.771697e-06
3.6546368e-06
3.6610306e-06
3.7328941e-06
3.7384434e-06
3.6999433e-06
3.6768764e-06
3.6753273e-06
3.6738664e-06
3.6673731e-06
3.6674006e-06
3.678662e-06
3.6905169e-06
3.6907175e-06
3.6639352e-06
3.5995884e-06
3.5314669e-06
3.508043e-06
3.5018751e-06
3.511178e-06
3.5144917e-06
3.5128019e-06
3.5109318e-06
3.5073197e-06
3.5014137e-06
3.4946739e-06
3.495117e-06
3.5003332e-06
3.5094246e-06
3.5225613e-06
3.5401966e-06
3.562547e-06
3.5897602e-06
3.6226849e-06
3.6612684e-06
3.7042698e-06
3.7517465e-06
3.8012356e-06
3.8513735e-06
3.9007883e-06
3.9460418e-06
3.9799684e-06
3.9897878e-06
3.9604687e-06
3.8877086e-06
3.7967982e-06
3.745584e-06
3.7608868e-06
3.8065641e-06
3.8616759e-06
3.9225495e-06
3.9851173e-06
4.0441747e-06
4.0984739e-06
4.1501723e-06
4.2006207e-06
1.5396184e-05
3.3904782e-06
3.4088089e-06
3.4095595e-06
3.4095568e-06
3.4095566e-06
3.4095566e-06
3.4095566e-06
3.4095566e-06
3.4095566e-06
3.4095566e-06
3.4095566e-06
3.4095566e-06
3.4095566e-06
3.4095566e-06
3.4095566e-06
3.4095566e-06
3.4095566e-06
3.4095566e-06
3.4095566e-06
3.4095566e-06
3.4095566e-06
3.4095566e-06
3.4095566e-06
3.4095566e-06
3.4095566e-06
3.4095566e-06
3.4095566e-06
3.4095566e-06
3.4095566e-06
3.4095566e-06
3.4095566e-06
3.4095566e-06
3.4095566e-06
3.4095566e-06
3.4095566e-06
3.4095566e-06
3.4095566e-06
3.4095567e-06
3.4095639e-06
3.409815e-06
3.4122261e-06
3.4236651e-06
3.465397e-06
3.582113e-06
3.8165132e-06
3.9759748e-06
3.7765925e-06
3.6574687e-06
3.6633774e-06
3.7357261e-06
3.7425064e-06
3.7034774e-06
3.6800061e-06
3.6786019e-06
3.6772865e-06
3.6709378e-06
3.6709876e-06
3.6821482e-06
3.6940656e-06
3.6943769e-06
3.6677928e-06
3.6034978e-06
3.5347377e-06
3.5110766e-06
3.5048733e-06
3.5141984e-06
3.5175881e-06
3.5159286e-06
3.514154e-06
3.510542e-06
3.5045876e-06
3.497758e-06
3.4982462e-06
3.5034868e-06
3.5127187e-06
3.5260596e-06
3.5439585e-06
3.5665096e-06
3.5940146e-06
3.6272779e-06
3.6660384e-06
3.7087022e-06
3.7554008e-06
3.804615e-06
3.8553132e-06
3.9051301e-06
3.9495943e-06
3.981511e-06
3.9888601e-06
3.9568298e-06
3.881058e-06
3.7889385e-06
3.7392252e-06
3.7560549e-06
3.8013631e-06
3.8557909e-06
3.9159048e-06
3.9772513e-06
4.0345286e-06
4.0871392e-06
4.1373441e-06
4.1861581e-06
1.5427216e-05
3.3903938e-06
3.4088029e-06
3.4095595e-06
3.4095568e-06
3.4095566e-06
3.4095566e-06
3.4095566e-06
3.4095566e-06
3.4095566e-06
3.4095566e-06
3.4095566e-06
3.4095566e-06
3.4095566e-06
3.4095566e-06
3.4095566e-06
3.4095566e-06
3.4095566e-06
3.4095566e-06
3.4095566e-06
3.4095566e-06
3.4095566e-06
3.4095566e-06
3.4095566e-06
3.4095566e-06
3.4095566e-06
3.4095566e-06
3.4095566e-06
3.4095566e-06
3.4095566e-06
3.4095566e-06
3.4095566e-06
3.4095566e-06
3.4095566e-06
3.4095566e-06
3.4095566e-06
3.4095566e-06
3.4095566e-06
3.4095567e-06
3.4095637e-06
3.4098106e-06
3.4121985e-06
3.4235688e-06
3.4651994e-06
3.581915e-06
3.8177683e-06
3.9814006e-06
3.7809842e-06
3.6601663e-06
3.6657718e-06
3.73874e-06
3.7463497e-06
3.7068855e-06
3.6830763e-06
3.6818234e-06
3.6806334e-06
3.6744598e-06
3.6744856e-06
3.6855318e-06
3.6975069e-06
3.6979727e-06
3.6715297e-06
3.6071349e-06
3.5378444e-06
3.5140299e-06
3.5078548e-06
3.5171877e-06
3.5205556e-06
3.5189114e-06
3.5172216e-06
3.5135513e-06
3.5075425e-06
3.5006058e-06
3.5011502e-06
3.5065004e-06
3.5158647e-06
3.5294579e-06
3.5475773e-06
3.5704085e-06
3.5982575e-06
3.6318707e-06
3.6708104e-06
3.7135816e-06
3.7603443e-06
3.8097698e-06
3.8603801e-06
3.9090121e-06
3.9517215e-06
3.9818778e-06
3.9870174e-06
3.9513712e-06
3.8715267e-06
3.7786296e-06
3.7318254e-06
3.7507636e-06
3.7956629e-06
3.8492278e-06
3.9084263e-06
3.9684701e-06
4.0241441e-06
4.0752682e-06
4.1239407e-06
1.5452781e-05
3.3903243e-06
3.4087979e-06
3.4095595e-06
3.4095568e-06
3.4095566e-06
3.4095566e-06
3.4095566e-06
3.4095566e-06
3.4095566e-06
3.4095566e-06
3.4095566e-06
3.4095566e-06
3.4095566e-06
3.4095566e-06
3.4095566e-06
3.4095566e-06
3.4095566e-06
3.4095566e-06
3.4095566e-06
3.4095566e-06
3.4095566e-06
3.4095566e-06
3.4095566e-06
3.4095566e-06
3.4095566e-06
3.4095566e-06
3.4095566e-06
3.4095566e-06
3.4095566e-06
3.4095566e-06
3.4095566e-06
3.4095566e-06
3.4095566e-06
3.4095566e-06
3.4095566e-06
3.4095566e-06
3.4095566e-06
3.4095567e-06
3.4095637e-06
3.409808e-06
3.4121836e-06
3.423525e-06
3.4651695e-06
3.5821372e-06
3.8196035e-06
3.9865249e-06
3.7848496e-06
3.6627247e-06
3.6682196e-06
3.7419471e-06
3.7499692e-06
3.7101758e-06
3.686091e-06
3.6849731e-06
3.6839366e-06
3.6779039e-06
3.6778454e-06
3.6888079e-06
3.7008751e-06
3.7015109e-06
3.6751636e-06
3.6105029e-06
3.5407974e-06
3.5169214e-06
3.5108157e-06
3.5201312e-06
3.5233934e-06
3.521741e-06
3.5200994e-06
3.5163587e-06
3.5102751e-06
3.5032351e-06
3.5039223e-06
3.5094125e-06
3.5189094e-06
3.5327165e-06
3.5510796e-06
3.5742061e-06
3.6024596e-06
3.6364722e-06
3.6754839e-06
3.7180551e-06
3.7643715e-06
3.8134019e-06
3.8635686e-06
3.9118415e-06
3.9539136e-06
3.9824851e-06
3.9844348e-06
3.9439671e-06
3.859768e-06
3.7662878e-06
3.7234361e-06
3.7447685e-06
3.7892096e-06
3.8420799e-06
3.900699e-06
3.9595561e-06
4.0135168e-06
4.0628281e-06
4.1097275e-06
1.5472928e-05
3.3902696e-06
3.4087939e-06
3.4095595e-06
3.4095568e-06
3.4095566e-06
3.4095566e-06
3.4095566e-06
3.4095566e-06
3.4095566e-06
3.4095566e-06
3.4095566e-06
3.4095566e-06
3.4095566e-06
3.4095566e-06
3.4095566e-06
3.4095566e-06
3.4095566e-06
3.4095566e-06
3.4095566e-06
3.4095566e-06
3.4095566e-06
3.4095566e-06
3.4095566e-06
3.4095566e-06
3.4095566e-06
3.4095566e-06
3.4095566e-06
3.4095566e-06
3.4095566e-06
3.4095566e-06
3.4095566e-06
3.4095566e-06
3.4095566e-06
3.4095566e-06
3.4095566e-06
3.4095566e-06
3.4095566e-06
3.4095567e-06
3.4095638e-06
3.409807e-06
3.4121813e-06
3.4235321e-06
3.4653049e-06
3.5827915e-06
3.822043e-06
3.991354e-06
3.7881794e-06
3.665144e-06
3.6707263e-06
3.7453558e-06
3.7533527e-06
3.7133378e-06
3.6890415e-06
3.6880477e-06
3.687211e-06
3.6812269e-06
3.6810315e-06
3.6920036e-06
3.7042069e-06
3.7050168e-06
3.6786509e-06
3.6135952e-06
3.5436046e-06
3.5197568e-06
3.5137543e-06
3.5230259e-06
3.5260964e-06
3.5244051e-06
3.5227922e-06
3.5189817e-06
3.5127548e-06
3.505685e-06
3.5065364e-06
3.5122154e-06
3.5218231e-06
3.5358478e-06
3.5544916e-06
3.5779565e-06
3.6066591e-06
3.6410542e-06
3.6801096e-06
3.7226346e-06
3.7692027e-06
3.8184974e-06
3.8683706e-06
3.9157063e-06
3.9560456e-06
3.9817348e-06
3.9794555e-06
3.9340179e-06
3.8455918e-06
3.7523595e-06
3.7145609e-06
3.7385587e-06
3.7826678e-06
3.8350988e-06
3.8931402e-06
3.9504396e-06
4.0022655e-06
4.0494931e-06
1.5487718e-05
3.3902294e-06
3.408791e-06
3.4095595e-06
3.4095568e-06
3.4095566e-06
3.4095566e-06
3.4095566e-06
3.4095566e-06
3.4095566e-06
3.4095566e-06
3.4095566e-06
3.4095566e-06
3.4095566e-06
3.4095566e-06
3.4095566e-06
3.4095566e-06
3.4095566e-06
3.4095566e-06
3.4095566e-06
3.4095566e-06
3.4095566e-06
3.4095566e-06
3.4095566e-06
3.4095566e-06
3.4095566e-06
3.4095566e-06
3.4095566e-06
3.4095566e-06
3.4095566e-06
3.4095566e-06
3.4095566e-06
3.4095566e-06
3.4095566e-06
3.4095566e-06
3.4095566e-06
3.4095566e-06
3.4095566e-06
3.4095566e-06
3.4095639e-06
3.4098076e-06
3.4121912e-06
3.4235904e-06
3.4656076e-06
3.5838887e-06
3.8250904e-06
3.9958682e-06
3.7909554e-06
3.6674187e-06
3.6732899e-06
3.7489688e-06
3.7564783e-06
3.7163568e-06
3.6919206e-06
3.6910724e-06
3.6904339e-06
3.6843872e-06
3.6840662e-06
3.6951695e-06
3.7075378e-06
3.7085089e-06
3.6820254e-06
3.6164225e-06
3.546266e-06
3.5225285e-06
3.516662e-06
3.5258642e-06
3.5286565e-06
3.5268981e-06
3.5252991e-06
3.5214063e-06
3.514995e-06
3.5079213e-06
3.5089811e-06
3.5148468e-06
3.5245864e-06
3.5388377e-06
3.5577882e-06
3.5816631e-06
3.6108724e-06
3.6455946e-06
3.6846778e-06
3.7271772e-06
3.7734823e-06
3.822324e-06
3.8716662e-06
3.9180457e-06
3.956637e-06
3.9796025e-06
3.9732842e-06
3.9227585e-06
3.8299866e-06
3.7377484e-06
3.7058346e-06
3.7321755e-06
3.7759759e-06
3.8281564e-06
3.8854745e-06
3.9408079e-06
3.9902508e-06
1.5497226e-05
3.3902036e-06
3.4087892e-06
3.4095595e-06
3.4095568e-06
3.4095566e-06
3.4095566e-06
3.4095566e-06
3.4095566e-06
3.4095566e-06
3.4095566e-06
3.4095566e-06
3.4095566e-06
3.4095566e-06
3.4095566e-06
3.4095566e-06
3.4095566e-06
3.4095566e-06
3.4095566e-06
3.4095566e-06
3.4095566e-06
3.4095566e-06
3.4095566e-06
3.4095566e-06
3.4095566e-06
3.4095566e-06
3.4095566e-06
3.4095566e-06
3.4095566e-06
3.4095566e-06
3.4095566e-06
3.4095566e-06
3.4095566e-06
3.4095566e-06
3.4095566e-06
3.4095566e-06
3.4095566e-06
3.4095566e-06
3.4095566e-06
3.4095639e-06
3.40981e-06
3.4122134e-06
3.4237e-06
3.4660774e-06
3.5854302e-06
3.8287704e-06
4.0000538e-06
3.7931506e-06
3.6695344e-06
3.6759009e-06
3.7527846e-06
3.7593346e-06
3.7192352e-06
3.6947412e-06
3.6940937e-06
3.6935472e-06
3.6873683e-06
3.6870183e-06
3.6983673e-06
3.7108796e-06
3.7119901e-06
3.6852692e-06
3.6189586e-06
3.5487415e-06
3.5251988e-06
3.5194993e-06
3.5286062e-06
3.5310631e-06
3.5292258e-06
3.5276011e-06
3.5236068e-06
3.5169713e-06
3.5099766e-06
3.5112367e-06
3.5172568e-06
3.5272051e-06
3.5417466e-06
3.5610223e-06
3.5853185e-06
3.6150831e-06
3.6501091e-06
3.689158e-06
3.731583e-06
3.7781126e-06
3.8270303e-06
3.8757016e-06
3.920752e-06
3.9572915e-06
3.9771338e-06
3.9661217e-06
3.909423e-06
3.8118097e-06
3.7215766e-06
3.6964333e-06
3.7252947e-06
3.769323e-06
3.8215975e-06
3.8779127e-06
3.9308418e-06
1.5501535e-05
3.390192e-06
3.4087883e-06
3.4095595e-06
3.4095568e-06
3.4095566e-06
3.4095566e-06
3.4095566e-06
3.4095566e-06
3.4095566e-06
3.4095566e-06
3.4095566e-06
3.4095566e-06
3.4095566e-06
3.4095566e-06
3.4095566e-06
3.4095566e-06
3.4095566e-06
3.4095566e-06
3.4095566e-06
3.4095566e-06
3.4095566e-06
3.4095566e-06
3.4095566e-06
3.4095566e-06
3.4095566e-06
3.4095566e-06
3.4095566e-06
3.4095566e-06
3.4095566e-06
3.4095566e-06
3.4095566e-06
3.4095566e-06
3.4095566e-06
3.4095566e-06
3.4095566e-06
3.4095566e-06
3.4095566e-06
3.4095566e-06
3.4095639e-06
3.4098144e-06
3.4122481e-06
3.4238615e-06
3.4667151e-06
3.5874082e-06
3.8330387e-06
4.0039442e-06
3.7948037e-06
3.6715329e-06
3.6785883e-06
3.7568234e-06
3.7619338e-06
3.7219865e-06
3.6975188e-06
3.6971418e-06
3.6964898e-06
3.6901722e-06
3.6899425e-06
3.7016055e-06
3.7142193e-06
3.7154037e-06
3.6883316e-06
3.6211549e-06
3.5509788e-06
3.5277046e-06
3.5222103e-06
3.5312151e-06
3.5332902e-06
3.531377e-06
3.5296916e-06
3.5255751e-06
3.5187171e-06
3.5118361e-06
3.5133007e-06
3.5195214e-06
3.5296887e-06
3.5445004e-06
3.5641592e-06
3.5890091e-06
3.6192885e-06
3.6544449e-06
3.6934722e-06
3.7359829e-06
3.7826141e-06
3.8311278e-06
3.8790987e-06
3.9227233e-06
3.9570494e-06
3.9734546e-06
3.9572345e-06
3.8939885e-06
3.7920834e-06
3.7054821e-06
3.687859e-06
3.7188362e-06
3.7628704e-06
3.8148032e-06
3.8694924e-06
3.9197075e-06
1.5500761e-05
3.3901943e-06
3.4087885e-06
3.4095595e-06
3.4095568e-06
3.4095566e-06
3.4095566e-06
3.4095566e-06
3.4095566e-06
3.4095566e-06
3.4095566e-06
3.4095566e-06
3.4095566e-06
3.4095566e-06
3.4095566e-06
3.4095566e-06
3.4095566e-06
3.4095566e-06
3.4095566e-06
3.4095566e-06
3.4095566e-06
3.4095566e-06
3.4095566e-06
3.4095566e-06
3.4095566e-06
3.4095566e-06
3.4095566e-06
3.4095566e-06
3.4095566e-06
3.4095566e-06
3.4095566e-06
3.4095566e-06
3.4095566e-06
3.4095566e-06
3.4095566e-06
3.4095566e-06
3.4095566e-06
3.4095566e-06
3.4095566e-06
3.4095639e-06
3.4098205e-06
3.4122955e-06
3.4240765e-06
3.467535e-06
3.5899471e-06
3.8379701e-06
4.0074098e-06
3.7958983e-06
3.6734162e-06
3.6813552e-06
3.7610966e-06
3.7642853e-06
3.7246137e-06
3.700247e-06
3.7002134e-06
3.6992681e-06
3.6928271e-06
3.6928619e-06
3.7048599e-06
3.7175236e-06
3.7186979e-06
3.6911667e-06
3.6229887e-06
3.5529636e-06
3.5300459e-06
3.5248116e-06
3.5337161e-06
3.5353707e-06
3.5333496e-06
3.5316013e-06
3.527358e-06
3.5202866e-06
3.513542e-06
3.515224e-06
3.521663e-06
3.5320434e-06
3.5471409e-06
3.5672818e-06
3.5927156e-06
3.6234014e-06
3.6586733e-06
3.6977274e-06
3.7404504e-06
3.7871988e-06
3.8356193e-06
3.8825753e-06
3.9245987e-06
3.9567153e-06
3.9693514e-06
3.9471254e-06
3.8764272e-06
3.7703111e-06
3.6885939e-06
3.6785889e-06
3.7113496e-06
3.7556169e-06
3.8073607e-06
3.8603318e-06
1.5494999e-05
3.3902103e-06
3.4087896e-06
3.4095595e-06
3.4095568e-06
3.4095566e-06
3.4095566e-06
3.4095566e-06
3.4095566e-06
3.4095566e-06
3.4095566e-06
3.4095566e-06
3.4095566e-06
3.4095566e-06
3.4095566e-06
3.4095566e-06
3.4095566e-06
3.4095566e-06
3.4095566e-06
3.4095566e-06
3.4095566e-06
3.4095566e-06
3.4095566e-06
3.4095566e-06
3.4095566e-06
3.4095566e-06
3.4095566e-06
3.4095566e-06
3.4095566e-06
3.4095566e-06
3.4095566e-06
3.4095566e-06
3.4095566e-06
3.4095566e-06
3.4095566e-06
3.4095566e-06
3.4095566e-06
3.4095566e-06
3.4095566e-06
3.4095641e-06
3.4098283e-06
3.4123556e-06
3.4243432e-06
3.4685165e-06
3.5928384e-06
3.8435216e-06
4.0106328e-06
3.7964186e-06
3.6752107e-06
3.6841623e-06
3.7655061e-06
3.7663574e-06
3.7270994e-06
3.702913e-06
3.703237e-06
3.7019502e-06
3.6954532e-06
3.6958069e-06
3.7081314e-06
3.7207752e-06
3.7218423e-06
3.6937846e-06
3.6244976e-06
3.5547634e-06
3.5322451e-06
3.5273713e-06
3.5361612e-06
3.5373368e-06
3.535184e-06
3.5333322e-06
3.5289345e-06
3.5216892e-06
3.5151144e-06
3.517009e-06
3.5236434e-06
3.5342162e-06
3.5497076e-06
3.570403e-06
3.5963807e-06
3.6274348e-06
3.6628887e-06
3.7020928e-06
3.7450246e-06
3.7917556e-06
3.8395005e-06
3.8853666e-06
3.925893e-06
3.9555151e-06
3.9637394e-06
3.934684e-06
3.8560374e-06
3.7465926e-06
3.6715983e-06
3.6694353e-06
3.7038877e-06
3.7487184e-06
3.8000662e-06
1.5484354e-05
3.3902396e-06
3.4087917e-06
3.4095595e-06
3.4095568e-06
3.4095566e-06
3.4095566e-06
3.4095566e-06
3.4095566e-06
3.4095566e-06
3.4095566e-06
3.4095566e-06
3.4095566e-06
3.4095566e-06
3.4095566e-06
3.4095566e-06
3.4095566e-06
3.4095566e-06
3.4095566e-06
3.4095566e-06
3.4095566e-06
3.4095566e-06
3.4095566e-06
3.4095566e-06
3.4095566e-06
3.4095566e-06
3.4095566e-06
3.4095566e-06
3.4095566e-06
3.4095566e-06
3.4095566e-06
3.4095566e-06
3.4095566e-06
3.4095566e-06
3.4095566e-06
3.4095566e-06
3.4095566e-06
3.4095566e-06
3.4095566e-06
3.4095644e-06
3.4098378e-06
3.4124289e-06
3.4246642e-06
3.4696735e-06
3.596206e-06
3.8496687e-06
4.0133146e-06
3.7964373e-06
3.6768601e-06
3.6870557e-06
3.7701918e-06
3.7681276e-06
3.7294127e-06
3.7054784e-06
3.7061607e-06
3.7046668e-06
3.6981317e-06
3.6987507e-06
3.7113851e-06
3.7239391e-06
3.7248199e-06
3.6961411e-06
3.6256609e-06
3.5563026e-06
3.5342398e-06
3.529803e-06
3.5384829e-06
3.5391574e-06
3.5368562e-06
3.5348593e-06
3.5303292e-06
3.5229272e-06
3.5165075e-06
3.5186094e-06
3.5254789e-06
3.5363585e-06
3.5522805e-06
3.5734834e-06
3.5999755e-06
3.6314269e-06
3.6671403e-06
3.706493e-06
3.7495977e-06
3.7961664e-06
3.8433103e-06
3.8881467e-06
3.9269692e-06
3.9537052e-06
3.9569786e-06
3.9202871e-06
3.8333966e-06
3.7220166e-06
3.655638e-06
3.6609045e-06
3.6964969e-06
3.7415815e-06
1.5468951e-05
3.3902818e-06
3.4087948e-06
3.4095595e-06
3.4095568e-06
3.4095566e-06
3.4095566e-06
3.4095566e-06
3.4095566e-06
3.4095566e-06
3.4095566e-06
3.4095566e-06
3.4095566e-06
3.4095566e-06
3.4095566e-06
3.4095566e-06
3.4095566e-06
3.4095566e-06
3.4095566e-06
3.4095566e-06
3.4095566e-06
3.4095566e-06
3.4095566e-06
3.4095566e-06
3.4095566e-06
3.4095566e-06
3.4095566e-06
3.4095566e-06
3.4095566e-06
3.4095566e-06
3.4095566e-06
3.4095566e-06
3.4095566e-06
3.4095566e-06
3.4095566e-06
3.4095566e-06
3.4095566e-06
3.4095566e-06
3.4095566e-06
3.4095648e-06
3.4098493e-06
3.412516e-06
3.4250413e-06
3.4710098e-06
3.6000327e-06
3.8563867e-06
4.0156134e-06
3.7960017e-06
3.6784314e-06
3.6900092e-06
3.7749583e-06
3.7696501e-06
3.7316049e-06
3.7080593e-06
3.7090297e-06
3.7074362e-06
3.7008098e-06
3.7016499e-06
3.7146091e-06
3.7269975e-06
3.7275928e-06
3.6982228e-06
3.6264681e-06
3.5575621e-06
3.5359456e-06
3.532079e-06
3.5406775e-06
3.5408258e-06
3.538347e-06
3.5362378e-06
3.5316065e-06
3.5239494e-06
3.5177114e-06
3.5200703e-06
3.5272439e-06
3.5384735e-06
3.5548427e-06
3.5765326e-06
3.6035634e-06
3.6354625e-06
3.6714158e-06
3.7108848e-06
3.7541206e-06
3.8004801e-06
3.8470056e-06
3.8906713e-06
3.9275885e-06
3.9509963e-06
3.9485895e-06
3.9034748e-06
3.8083375e-06
3.6967813e-06
3.6404774e-06
3.6524009e-06
3.688808e-06
1.5448922e-05
3.3903367e-06
3.4087987e-06
3.4095595e-06
3.4095568e-06
3.4095566e-06
3.4095566e-06
3.4095566e-06
3.4095566e-06
3.4095566e-06
3.4095566e-06
3.4095566e-06
3.4095566e-06
3.4095566e-06
3.4095566e-06
3.4095566e-06
3.4095566e-06
3.4095566e-06
3.4095566e-06
3.4095566e-06
3.4095566e-06
3.4095566e-06
3.4095566e-06
3.4095566e-06
3.4095566e-06
3.4095566e-06
3.4095566e-06
3.4095566e-06
3.4095566e-06
3.4095566e-06
3.4095566e-06
3.4095566e-06
3.4095566e-06
3.4095566e-06
3.4095566e-06
3.4095565e-06
3.4095566e-06
3.4095565e-06
3.4095565e-06
3.4095653e-06