/*--------------------------------*- C++ -*----------------------------------*\
| =========                 |                                                 |
| \\      /  F ield         | OpenFOAM: The Open Source CFD Toolbox           |
|  \\    /   O peration     | Version:  2506                                  |
|   \\  /    A nd           | Website:  www.openfoam.com                      |
|    \\/     M anipulation  |                                                 |
\*---------------------------------------------------------------------------*/
FoamFile
{
    version     2.0;
    format      ascii;
    arch        "LSB;label=32;scalar=64";
    class       volScalarField;
    location    "0.019";
    object      Ma;
}
// * * * * * * * * * * * * * * * * * * * * * * * * * * * * * * * * * * * * * //

dimensions      [0 0 0 0 0 0 0];

internalField   nonuniform List<scalar> 
13761
(
0.29995586
0.29995686
0.29995794
0.29995907
0.29996282
0.29996637
0.29996774
0.29996471
0.29935598
0.29995836
0.29935628
0.29995127
0.29935632
0.29994655
0.29935559
0.2999444
0.29935483
0.29994337
0.29935413
0.29994194
0.29935351
0.29994162
0.29935272
0.29994223
0.29989588
0.29935177
0.29994309
0.29989517
0.29935132
0.29994375
0.29989483
0.29935129
0.2999449
0.29989619
0.2993514
0.29994707
0.29990023
0.29935144
0.29994884
0.29990413
0.29935155
0.29994931
0.29990601
0.29935176
0.29994891
0.29947712
0.2999065
0.29935178
0.29994919
0.29948108
0.29990585
0.29935045
0.29995282
0.29948331
0.29990847
0.29934874
0.29996027
0.29948394
0.29991329
0.29934769
0.29996966
0.2994839
0.29991609
0.29934839
0.29997588
0.29948364
0.299912
0.29934985
0.29997842
0.29948358
0.29990498
0.29935154
0.2994833
0.29989858
0.29935329
0.29983438
0.29948294
0.29989387
0.29935552
0.29983567
0.2994829
0.29989189
0.29935759
0.29983686
0.29948263
0.29989202
0.29935947
0.29983822
0.29948037
0.2998932
0.29936152
0.29983969
0.29947816
0.29989327
0.29936331
0.29984119
0.29947745
0.29989282
0.29936417
0.2998426
0.29947987
0.29989406
0.29936428
0.29984394
0.29948375
0.29989572
0.29970589
0.29984508
0.29948774
0.29989692
0.29970519
0.29984628
0.29949038
0.29989858
0.29970424
0.29984753
0.29949179
0.29990076
0.29970387
0.29984892
0.29949219
0.299904
0.29970351
0.29985026
0.29949205
0.2999079
0.29970209
0.29985165
0.29949148
0.2999116
0.29970027
0.29985301
0.29949097
0.29991688
0.29994888
0.29969941
0.29985461
0.29949084
0.29992059
0.29994973
0.29970018
0.29985633
0.29949108
0.29995053
0.29970183
0.29985821
0.29949143
0.29995133
0.29970359
0.29985997
0.29949149
0.29995217
0.29970521
0.2998617
0.29949107
0.29995297
0.29970633
0.29986319
0.2994906
0.29995373
0.29970687
0.29986456
0.29949013
0.30030933
0.29995443
0.29970708
0.29986581
0.29948995
0.30030791
0.29995512
0.29970714
0.29986722
0.29948952
0.30030648
0.29995584
0.29970715
0.29986875
0.29948847
0.30030503
0.29995662
0.29970715
0.29987046
0.30030357
0.29995744
0.29970711
0.29987205
0.3003021
0.29995829
0.29970706
0.29987358
0.30030061
0.29995914
0.29970701
0.29987501
0.30120112
0.30029912
0.29995997
0.2997069
0.29987653
0.30120027
0.30029763
0.29996076
0.29970671
0.29987795
0.30119933
0.30029613
0.29996153
0.2997064
0.29987936
0.30119829
0.30029462
0.29996229
0.29970617
0.29988075
0.30119717
0.3002931
0.29996305
0.29970602
0.301196
0.30029157
0.29996381
0.29970585
0.30119476
0.30029002
0.29996459
0.29970569
0.30254536
0.30119345
0.30028845
0.29996538
0.29970539
0.30254721
0.30119207
0.30028684
0.29996618
0.29970485
0.30254894
0.30119062
0.30028519
0.29996697
0.29970427
0.30255056
0.3011891
0.3002835
0.29996774
0.29970382
0.30255206
0.30118751
0.30028176
0.29996849
0.29970341
0.30255346
0.30118587
0.30027998
0.29996922
0.29970315
0.30255475
0.30118418
0.30027816
0.29996995
0.30392754
0.30255594
0.30118243
0.3002763
0.29997074
0.3039388
0.30255702
0.30118062
0.30027443
0.29997158
0.30394994
0.30255799
0.30117878
0.30027255
0.29997242
0.30396096
0.30255884
0.3011769
0.30027069
0.29997318
0.30397186
0.30255957
0.30117495
0.30026887
0.29997388
0.30398262
0.30256015
0.30117295
0.30026708
0.29997451
0.30421052
0.30399326
0.3025606
0.30117092
0.3002653
0.29997509
0.30423634
0.30400374
0.30256089
0.30116885
0.30026346
0.29997563
0.3042621
0.30401408
0.30256105
0.30116674
0.30026155
0.30428779
0.30402427
0.30256107
0.30116457
0.3002596
0.30431344
0.30403432
0.30256099
0.30116236
0.30025764
0.30433903
0.3040442
0.30256079
0.30116009
0.30025567
0.30436458
0.30405393
0.30256049
0.3011578
0.30025371
0.30260817
0.30439004
0.30406349
0.30256007
0.30115545
0.30025176
0.30264503
0.30441541
0.30407291
0.30255952
0.30115306
0.3002498
0.30268203
0.30444067
0.30408218
0.30255884
0.30115062
0.30024781
0.30271909
0.30446583
0.30409133
0.30255802
0.30114814
0.30275632
0.30449089
0.30410034
0.30255707
0.3011456
0.30279367
0.30451589
0.30410921
0.30255598
0.30114303
0.29983868
0.30283119
0.30454082
0.30411794
0.30255476
0.3011404
0.29986271
0.30286881
0.3045657
0.30412652
0.30255341
0.30113772
0.29988785
0.30290659
0.30459052
0.30413492
0.30255191
0.30113498
0.2999131
0.30294446
0.30461529
0.30414315
0.30255029
0.30113219
0.29993918
0.30298249
0.30463997
0.30415121
0.30254851
0.30112934
0.29996532
0.30302062
0.30466457
0.3041591
0.30254662
0.29952565
0.29999211
0.3030589
0.30468906
0.30416684
0.30254459
0.29950863
0.30001906
0.30309727
0.30471342
0.30417443
0.30254245
0.29949281
0.30004663
0.30313576
0.30473765
0.30418185
0.30254019
0.29947702
0.30007445
0.30317434
0.30476176
0.30418911
0.30253782
0.29946163
0.30010282
0.30321302
0.30478575
0.30419618
0.30253532
0.30243278
0.29944601
0.30013144
0.30325179
0.30480965
0.30420308
0.30253271
0.30242564
0.29943069
0.30016047
0.30329067
0.30483343
0.30420981
0.30252997
0.30241757
0.29941473
0.30018957
0.3033296
0.3048571
0.30421636
0.30240953
0.29939771
0.30021889
0.30336863
0.30488066
0.30422273
0.30240065
0.29937918
0.30024832
0.30340774
0.30490411
0.30422892
0.30239156
0.29936038
0.30027813
0.30344695
0.30492743
0.30423492
0.30382925
0.30238145
0.29934277
0.30030828
0.30348621
0.30495065
0.30424077
0.30385548
0.30237073
0.29932717
0.30033887
0.30352555
0.30497376
0.30424645
0.30388065
0.30235894
0.29931295
0.30036973
0.30356494
0.30499676
0.30425198
0.30390655
0.30234657
0.29929934
0.30040089
0.30360438
0.30501963
0.30425734
0.30393136
0.30233331
0.29928571
0.30043225
0.30364386
0.30504239
0.30339636
0.30395628
0.3023195
0.29927224
0.3004639
0.30368339
0.305065
0.30340897
0.30398001
0.30230467
0.29925903
0.30049579
0.30372297
0.3050875
0.3034238
0.30400371
0.30228917
0.29924652
0.30052799
0.3037626
0.30510986
0.30343681
0.30402625
0.30227257
0.29923455
0.30056043
0.30380223
0.30513212
0.30345246
0.30404893
0.30225554
0.29922333
0.30059321
0.3038419
0.30515425
0.30408657
0.3034663
0.30407042
0.30223764
0.29921271
0.30062626
0.30388158
0.30517626
0.30409636
0.30348312
0.30409233
0.30221965
0.29920308
0.30065966
0.30392129
0.30410396
0.30349826
0.30411285
0.30220087
0.29919415
0.30069331
0.30396102
0.30411328
0.30351646
0.30413395
0.30218191
0.29918574
0.30072727
0.30400077
0.30602254
0.30411972
0.303533
0.30415372
0.30216197
0.29917743
0.30076148
0.30404048
0.30604132
0.3041284
0.30355238
0.30417437
0.30214163
0.29916966
0.30079604
0.30408015
0.30605818
0.30413392
0.30357006
0.30419371
0.30212026
0.2991625
0.30083089
0.30411977
0.30607734
0.30414184
0.3035902
0.30421393
0.30209854
0.29915599
0.30086613
0.30415935
0.30609386
0.3041465
0.30360865
0.30423261
0.30207599
0.29914986
0.30090171
0.30419889
0.30673904
0.3061131
0.30415342
0.3036293
0.30425173
0.30205312
0.29914427
0.30093772
0.30676867
0.30612909
0.30415726
0.30364846
0.30426927
0.30202948
0.29913934
0.3009741
0.30679908
0.30614814
0.30416322
0.30366978
0.30428705
0.30200546
0.29913537
0.3010109
0.30682821
0.30616334
0.30416641
0.30368999
0.30430349
0.3019807
0.29913218
0.30104804
0.30763384
0.30685849
0.30618214
0.30417143
0.30371243
0.30432008
0.30195549
0.29912973
0.30108555
0.30765503
0.30688694
0.30619656
0.30417377
0.30373414
0.30433553
0.30192951
0.29912782
0.30112339
0.30767535
0.30691701
0.30621517
0.30417758
0.30375791
0.30435096
0.3019029
0.29912651
0.30116159
0.30769614
0.30694449
0.30622895
0.30417883
0.30378104
0.3043653
0.30187544
0.29912569
0.30934596
0.30771494
0.30697431
0.30624762
0.30418166
0.3038058
0.30437946
0.30184741
0.29912546
0.30936688
0.30773524
0.30700057
0.30626124
0.30418227
0.30382986
0.30439271
0.30181888
0.29912573
0.30939802
0.30775296
0.30703012
0.30628022
0.30418464
0.30385517
0.30440566
0.30179036
0.29912652
0.30941993
0.30777247
0.30705504
0.30629379
0.30418494
0.30387969
0.30441772
0.30176211
0.29912774
0.31056913
0.30944831
0.30778958
0.30708433
0.30631288
0.30418713
0.30390507
0.30442935
0.30173448
0.29912942
0.3105936
0.30947156
0.3078079
0.30710782
0.30632614
0.30418727
0.30392978
0.30444021
0.30170725
0.29913141
0.31063227
0.30949722
0.30782463
0.30713652
0.30634503
0.30418933
0.30395536
0.30445063
0.30167999
0.31065485
0.30952134
0.30784126
0.3071584
0.30635786
0.3041892
0.30398078
0.3044604
0.30165181
0.31215877
0.31069371
0.30954463
0.30785765
0.30718618
0.30637641
0.30419068
0.30400732
0.30446975
0.3016222
0.31218254
0.31071456
0.30956869
0.30787235
0.3072064
0.30638863
0.30418968
0.30403411
0.30447853
0.30159101
0.31221887
0.310753
0.30959004
0.30788822
0.30723316
0.30640625
0.30418993
0.30406204
0.30448687
0.30155886
0.31224302
0.31077272
0.30961329
0.30790128
0.3072519
0.30641731
0.3041879
0.3040903
0.30449463
0.30152636
0.314016
0.31227792
0.31081009
0.30963312
0.30791664
0.30727785
0.30643334
0.30418714
0.30411943
0.30450194
0.30149408
0.31403849
0.31230129
0.31082961
0.30965537
0.30792855
0.30729532
0.30644292
0.30418454
0.30414877
0.30450876
0.31407505
0.31233595
0.31086521
0.30967408
0.30794357
0.30732059
0.30645711
0.30418294
0.30417869
0.3045152
0.31582004
0.31409564
0.31235759
0.31088543
0.30969561
0.3079547
0.30733718
0.30646535
0.30417958
0.3042087
0.30452131
0.31583802
0.31413211
0.31239286
0.31091861
0.30971354
0.30796957
0.30736193
0.30647774
0.30417672
0.30423904
0.30452713
0.3158797
0.31415277
0.31241225
0.31094019
0.30973466
0.30797994
0.30737798
0.30648474
0.30417223
0.3042694
0.30453255
0.31785822
0.31589941
0.31418787
0.31244852
0.31097059
0.3097521
0.30799496
0.30740247
0.30649531
0.30416791
0.30429982
0.30453749
0.3178952
0.31593779
0.31420898
0.31246545
0.31099389
0.30977278
0.30800438
0.30741838
0.30650115
0.30416234
0.30433004
0.31791854
0.3159593
0.31424218
0.3125025
0.31102153
0.30979005
0.30801972
0.30744279
0.30651001
0.30415701
0.30435999
0.32004672
0.3179579
0.31599451
0.31426316
0.31251717
0.31104654
0.30981001
0.30802798
0.3074587
0.30651488
0.30415114
0.30438956
0.32009089
0.31797619
0.31601808
0.31429522
0.31255431
0.31107163
0.30982752
0.30804386
0.30748304
0.30652245
0.3041458
0.30441865
0.32011621
0.31801767
0.31605007
0.31431487
0.31256745
0.3110981
0.30984647
0.30805104
0.30749887
0.30652678
0.30414053
0.30444727
0.32231779
0.32015759
0.31803165
0.31607522
0.31434701
0.31260357
0.31112094
0.30986465
0.30806778
0.30752311
0.30653353
0.30413592
0.30447543
0.32234877
0.32018129
0.31807444
0.31610372
0.31436419
0.31261635
0.31114858
0.30988228
0.30807403
0.30753897
0.30653763
0.30413165
0.30450329
0.32475541
0.32239862
0.32022104
0.31808549
0.31613031
0.31439723
0.31265017
0.31116957
0.30990119
0.30809161
0.30756318
0.30654377
0.30412797
0.32479988
0.32242635
0.32024336
0.31812818
0.31615607
0.31441107
0.31266391
0.31119805
0.30991721
0.30809714
0.30757919
0.30654761
0.30412479
0.32485017
0.32247414
0.32028013
0.31813808
0.31618352
0.3144456
0.31269418
0.31121752
0.30993667
0.30811549
0.30760335
0.30655303
0.30412209
0.3273452
0.32488739
0.32250063
0.32030227
0.31817962
0.31620743
0.31445645
0.31270985
0.31124633
0.30995083
0.30812035
0.30761952
0.30655644
0.3041198
0.32742338
0.32493954
0.32254469
0.32033501
0.31818994
0.31623603
0.31449214
0.3127357
0.31126462
0.30997065
0.30813898
0.30764334
0.30656094
0.3041178
0.32996517
0.32745298
0.32496883
0.32256991
0.32035863
0.31823014
0.31625913
0.31450029
0.31275388
0.31129309
0.30998307
0.30814323
0.30765964
0.30656362
0.30411615
0.33005907
0.32752198
0.32502212
0.32260912
0.32038636
0.31824128
0.31628796
0.31453634
0.31277483
0.31131053
0.31000309
0.30816168
0.30768292
0.30656692
0.33007946
0.32755348
0.32504448
0.32263309
0.32041206
0.31827904
0.31630896
0.31454318
0.31279536
0.3113381
0.31001405
0.30816542
0.3076994
0.30656865
0.33277971
0.33017441
0.32761385
0.32509728
0.32266893
0.32043438
0.31829055
0.31633792
0.31457832
0.31281128
0.31135525
0.31003424
0.30818325
0.30772209
0.30657067
0.3328104
0.33018827
0.32764479
0.32511606
0.32269055
0.32046281
0.31832564
0.31635633
0.31458424
0.31283399
0.31138155
0.31004406
0.30818684
0.30773883
0.30657143
0.33559479
0.33291053
0.33028088
0.32769913
0.32516537
0.32272455
0.32048005
0.31833792
0.31638601
0.31461692
0.31284564
0.31139893
0.31006425
0.3082039
0.30776089
0.30657229
0.33564508
0.33294193
0.33029023
0.32772758
0.325183
0.32274239
0.32051133
0.31837067
0.31640118
0.31462381
0.31286968
0.31142357
0.31007301
0.30820774
0.30777801
0.30657217
0.33846611
0.33574289
0.33303409
0.33037899
0.32777805
0.32522502
0.32277624
0.32052352
0.31838386
0.31643242
0.31465331
0.31287743
0.31144168
0.31009286
0.3082241
0.30779947
0.33851672
0.33578946
0.33306464
0.33038682
0.3278006
0.32524315
0.32278942
0.32055797
0.31841433
0.31644387
0.31466132
0.31290223
0.31146434
0.31010044
0.30822876
0.30781686
0.34140407
0.33862555
0.33588675
0.33315048
0.33046864
0.32784902
0.32527823
0.3228224
0.32056687
0.31842835
0.31647679
0.31468639
0.31290789
0.31148301
0.31011957
0.30824467
0.30783758
0.34434238
0.34146867
0.33867551
0.33592893
0.33317678
0.33047488
0.32786665
0.32529684
0.32283289
0.32060426
0.31845677
0.31648423
0.3146969
0.31293277
0.31150287
0.31012582
0.30825032
0.30785498
0.34445602
0.34157776
0.33878435
0.33602397
0.33326007
0.33054787
0.32791399
0.32532691
0.32286457
0.32060934
0.31847235
0.31651881
0.31471763
0.31293653
0.31152222
0.31014389
0.3082658
0.30787478
0.34745023
0.34452719
0.34164378
0.33883242
0.33606301
0.33327857
0.33055409
0.32792607
0.3253442
0.32287423
0.32064766
0.31849852
0.31652208
0.31473064
0.31296051
0.31153948
0.31014864
0.30827253
0.30789207
0.3505063
0.34757085
0.34464236
0.34175234
0.33894047
0.33615435
0.33336068
0.33061928
0.32797007
0.32537222
0.32290194
0.32065037
0.31851412
0.31655736
0.31474649
0.3129643
0.31155932
0.31016532
0.30828748
0.35058581
0.34764563
0.34471256
0.3418166
0.33898665
0.33618896
0.33336888
0.33062412
0.32797829
0.32538407
0.32291309
0.32068833
0.3185365
0.31655786
0.31476237
0.31298742
0.31157329
0.31016881
0.30829501
0.35363964
0.35071622
0.3477661
0.34482931
0.34192596
0.33909176
0.33627519
0.33345092
0.3306815
0.32801562
0.32541157
0.32293558
0.32068982
0.31855337
0.31659248
0.31477315
0.31299127
0.31159354
0.31018408
0.3083093
0.35661716
0.35372207
0.35079918
0.3478435
0.34489815
0.34198767
0.33913558
0.33630293
0.33344941
0.33068247
0.32802202
0.32541826
0.32294964
0.32072543
0.31857226
0.31659044
0.3147914
0.31301238
0.3116053
0.31018597
0.30831746
0.35966214
0.35678703
0.35386472
0.35093115
0.34796308
0.34501536
0.34209809
0.33923603
0.33638459
0.33352792
0.33073453
0.32805267
0.3254461
0.32296579
0.32072673
0.31859032
0.31662304
0.31479767
0.3130173
0.3116261
0.31019934
0.30833109
0.35973668
0.35687599
0.35394873
0.3510143
0.34804128
0.34508334
0.34215618
0.33927656
0.33640244
0.33351811
0.33073205
0.32806009
0.32544921
0.32298371
0.32075976
0.31860364
0.3166215
0.31481819
0.31303639
0.31163499
0.31020022
0.3626618
0.35992086
0.35704464
0.35408899
0.35114298
0.34815986
0.34520005
0.34226591
0.33937056
0.3364811
0.33359076
0.33078265
0.32808466
0.32547653
0.32299512
0.32076247
0.31862395
0.31665082
0.31482009
0.31304238
0.31165564
0.31021223
0.36549229
0.36274706
0.35999901
0.35713886
0.35417565
0.35122393
0.34823762
0.34526811
0.34231911
0.33940627
0.3364875
0.33357548
0.33077334
0.32809266
0.32547699
0.32301784
0.32079319
0.31863225
0.31664981
0.31484247
0.31305896
0.31166286
0.31021225
0.36832515
0.36568736
0.36295227
0.36017255
0.35730529
0.35431713
0.35134993
0.34835449
0.34538113
0.34242657
0.33949171
0.3365619
0.33364196
0.33081905
0.32811204
0.32550181
0.32302465
0.32079657
0.31865539
0.3166742
0.31484174
0.31306632
0.31168381
0.31022221
0.37335534
0.37096025
0.36850844
0.36582766
0.36304157
0.36025874
0.35739795
0.35440254
0.35143061
0.34843194
0.34545007
0.34247317
0.33951854
0.33655718
0.33362381
0.33080109
0.32811876
0.32550149
0.32305022
0.32082435
0.31865786
0.31667688
0.31486472
0.31307981
0.31168919
0.31022136
0.3758171
0.37363224
0.37118566
0.36868953
0.36604593
0.36324949
0.36042983
0.35756065
0.35454197
0.35155472
0.34854635
0.34555698
0.34257562
0.33959606
0.33662935
0.33368369
0.33084186
0.32813442
0.32552519
0.32305295
0.32082728
0.3186836
0.3166965
0.31486123
0.31308829
0.31170952
0.31022991
0.37819462
0.3760366
0.373801
0.37137552
0.36886822
0.3661768
0.36334767
0.36052005
0.35764656
0.3546243
0.35163544
0.34862271
0.34562333
0.34261309
0.33961444
0.33661431
0.33366136
0.33082235
0.32813901
0.32552523
0.32308006
0.32085268
0.31868158
0.31670229
0.31488458
0.31309871
0.3117136
0.38231376
0.38053681
0.37847468
0.37633272
0.37406547
0.37158629
0.36906279
0.36640756
0.36355377
0.36069047
0.35779784
0.35476395
0.35175635
0.34873308
0.34572307
0.34270917
0.33968487
0.33668162
0.33371393
0.33085747
0.32815299
0.3255457
0.32307887
0.32085458
0.31870872
0.3167152
0.31488084
0.31310811
0.31173319
0.38429147
0.38255532
0.38079643
0.37870951
0.37654461
0.37425624
0.37179061
0.36922582
0.36653047
0.3636645
0.360778
0.35787443
0.35484261
0.35183513
0.34880797
0.34578546
0.34273684
0.33969266
0.33665806
0.33368303
0.33083952
0.32815637
0.32554585
0.32310701
0.32087705
0.31870306
0.31672516
0.3149029
0.31311507
0.31173598
0.38791592
0.38631874
0.38465611
0.38286637
0.38110463
0.37900145
0.37684334
0.37450629
0.37199795
0.36944378
0.36675929
0.36386278
0.36094873
0.35801876
0.35498094
0.35195286
0.34891587
0.34587854
0.34282535
0.33975622
0.33671953
0.33372926
0.330865
0.32816987
0.32556483
0.32310346
0.32087946
0.31873117
0.3167336
0.31489825
0.31312564
0.31175443
0.39208117
0.39089636
0.38955174
0.38826025
0.38667367
0.38496563
0.38310682
0.3813541
0.37923154
0.37705539
0.37472323
0.3722029
0.36958763
0.36688061
0.36397962
0.3610312
0.35809013
0.35505708
0.35203231
0.34898652
0.34593377
0.34284364
0.33975225
0.33668779
0.33369373
0.33085224
0.32817115
0.32556688
0.32313267
0.32089883
0.31872331
0.31674741
0.31491816
0.31312962
0.31175633
0.39550984
0.39459601
0.39361865
0.39254218
0.39135179
0.38997985
0.38865477
0.38705672
0.38535179
0.38342966
0.38165565
0.37953554
0.37734084
0.37495858
0.37242334
0.36982493
0.36709396
0.36417359
0.36120283
0.35823282
0.35519373
0.35214753
0.34909222
0.34602089
0.34292367
0.33980937
0.33673739
0.33373703
0.33086753
0.32818333
0.32558551
0.32312722
0.32090198
0.31874935
0.31675018
0.31491521
0.31314034
0.39840255
0.39759611
0.39687279
0.39601097
0.39510908
0.3940699
0.39295388
0.39172322
0.39035045
0.38899903
0.38739012
0.38569032
0.38370513
0.38190254
0.37976848
0.37756399
0.37518766
0.37260998
0.36995673
0.36721625
0.36428991
0.36128473
0.35830268
0.35526962
0.35222314
0.3491545
0.346065
0.34293039
0.3397929
0.33669814
0.33369632
0.33086351
0.32818276
0.325589
0.32315816
0.32091646
0.31874089
0.3167672
0.3149331
0.31314111
0.40204413
0.40162649
0.40114284
0.40064254
0.40016026
0.39952345
0.39892452
0.39814239
0.39737125
0.39647723
0.39553416
0.39455044
0.39341762
0.39218402
0.3907793
0.38939381
0.38776644
0.38610864
0.38406913
0.38220959
0.38007527
0.37783215
0.37542109
0.37284903
0.37019678
0.36741612
0.36447817
0.36145743
0.35844983
0.35540332
0.35233468
0.34925512
0.34614549
0.34299765
0.33983856
0.33673977
0.33373693
0.3308682
0.32819512
0.32560414
0.32315041
0.32092291
0.31876571
0.31676646
0.31493117
0.31315304
0.40500954
0.40481161
0.40462149
0.4044351
0.40419086
0.40397921
0.40366118
0.40331053
0.40301924
0.40262465
0.40221341
0.40171376
0.4012071
0.4007073
0.40004569
0.39944839
0.39863615
0.39789495
0.3970085
0.39604685
0.39497657
0.39381342
0.39255185
0.39115039
0.38974938
0.38808632
0.38644262
0.38437414
0.38246043
0.38032044
0.37807505
0.37563616
0.37301845
0.3703253
0.36753886
0.36458502
0.36154258
0.35851584
0.35548016
0.35240724
0.34930347
0.34617019
0.34298882
0.339811
0.33669894
0.33369252
0.33087199
0.32819399
0.32560732
0.32318108
0.32093139
0.31875855
0.31678542
0.31494513
0.3131521
0.0050152079
0.015489909
0.026880132
0.039240604
0.052506444
0.066326728
0.079957876
0.092599979
0.10384508
0.11369268
0.12233344
0.12998574
0.1368359
0.14303447
0.14870094
0.15392928
0.15879422
0.1633554
0.16766005
0.17174775
0.17565323
0.17940519
0.18302786
0.18654276
0.18996799
0.19331936
0.19661056
0.19985314
0.20305711
0.2062308
0.20938095
0.21251301
0.21563106
0.21873835
0.22183782
0.22493188
0.22802293
0.23111388
0.2342086
0.23731259
0.24043374
0.24358291
0.24677471
0.25002853
0.25336907
0.25682741
0.26044227
0.26426172
0.26834915
0.27280607
0.27787799
0.28450773
0.29553939
0.31189022
0.33674724
0.36692662
0.38939749
0.40071115
0.40464046
0.4058468
0.40608745
0.40612836
0.40619594
0.40613441
0.40586877
0.4058119
0.40597876
0.40601603
0.40575223
0.40561853
0.40561177
0.40542017
0.40523856
0.40507289
0.40479124
0.40456451
0.40426695
0.4039263
0.40362947
0.40322089
0.40279709
0.4022928
0.40177683
0.40126697
0.40060072
0.39999569
0.39919335
0.39837532
0.39745523
0.39647688
0.39547034
0.39428785
0.39301782
0.39158388
0.39015979
0.38847105
0.38684638
0.38475666
0.38277419
0.38061434
0.37833548
0.37587571
0.37327343
0.37055668
0.36772785
0.364769
0.36171818
0.35866063
0.35560798
0.3525112
0.34939594
0.34623966
0.34304073
0.33984917
0.33673459
0.33373132
0.33086646
0.32820839
0.32561838
0.32316985
0.3209401
0.31877872
0.31678085
0.31494591
0.31316401
0.0050614585
0.015633985
0.027131925
0.039610076
0.052999927
0.066939447
0.08067004
0.09338628
0.10468624
0.11457723
0.12325492
0.13094028
0.13782101
0.14404843
0.14974254
0.15499765
0.1598887
0.16447548
0.16880529
0.17291779
0.17684775
0.18062389
0.18427049
0.18780907
0.19125779
0.19463249
0.19794689
0.20121258
0.20443961
0.20763637
0.21080964
0.21396491
0.2171063
0.22023707
0.22336021
0.22647815
0.22959329
0.23270856
0.2358278
0.23895649
0.24210253
0.24527686
0.24849429
0.25177442
0.25514225
0.25862927
0.26227481
0.26612792
0.27025361
0.27475628
0.27988488
0.28659936
0.29781727
0.31482992
0.34053958
0.3699918
0.39115628
0.40159644
0.40591573
0.40705132
0.40720137
0.40714174
0.40714927
0.40708649
0.40680183
0.40675829
0.40694306
0.40690287
0.40658316
0.40645152
0.40636847
0.40610848
0.40593058
0.40573419
0.4054592
0.40523146
0.40490002
0.40452148
0.40423714
0.40381839
0.4033702
0.40286787
0.40233821
0.40182139
0.40112068
0.40050139
0.39969153
0.39892164
0.39799928
0.39699234
0.39589112
0.39467987
0.39339159
0.39196622
0.39052321
0.38878881
0.38717338
0.38510418
0.38304569
0.38087283
0.37858445
0.37606656
0.37343132
0.3706878
0.36784814
0.36486599
0.36180825
0.35872483
0.35568341
0.35257507
0.34942769
0.34624606
0.34302137
0.33981614
0.33669201
0.33368638
0.33087784
0.32820596
0.32562382
0.32320033
0.32094215
0.31877393
0.31680139
0.31495744
0.005122457
0.015820093
0.027451619
0.04007146
0.053606422
0.067681152
0.081519737
0.094311564
0.10566349
0.11559339
0.12430353
0.13201821
0.13892674
0.14518125
0.15090218
0.15618403
0.16110191
0.16571564
0.17007256
0.1742123
0.17816965
0.18197333
0.18564763
0.18921407
0.19269084
0.1960938
0.1994367
0.20273119
0.20598737
0.20921365
0.21241689
0.21560261
0.21877496
0.22193727
0.22509254
0.22824326
0.23139184
0.23454123
0.23769528
0.24085946
0.24404168
0.24725299
0.25050824
0.25382711
0.25723462
0.26076229
0.26444929
0.26834414
0.27251034
0.27704803
0.28219149
0.28884918
0.29978676
0.31652606
0.34220474
0.37119852
0.39219845
0.40288924
0.40652455
0.40748991
0.40761578
0.40761329
0.40773536
0.40766485
0.40741479
0.40738513
0.40751142
0.40745367
0.40714247
0.40699051
0.40691238
0.40671767
0.4065106
0.40633977
0.40604995
0.40581199
0.40548652
0.4051384
0.40483304
0.40440124
0.40397123
0.4034516
0.40290498
0.4023745
0.401683
0.40105109
0.40022607
0.3993868
0.39845842
0.39744156
0.39640673
0.39517112
0.39386935
0.39240298
0.39095244
0.38918901
0.38754868
0.38551216
0.38337353
0.38115838
0.37885185
0.37632133
0.37368995
0.3709037
0.36803424
0.36504853
0.36198381
0.35887331
0.35580498
0.35267306
0.34950792
0.34630903
0.34306306
0.33984754
0.33672345
0.33372185
0.33086549
0.32822214
0.3256307
0.32318626
0.32095465
0.31879033
0.31679478
0.3149605
0.0051787728
0.015995543
0.02775798
0.040520399
0.054205285
0.068424436
0.082384459
0.09526768
0.10668709
0.11666945
0.12542322
0.13317626
0.14011985
0.14640735
0.15215992
0.15747255
0.16242064
0.16706423
0.17145076
0.17561995
0.17960663
0.18343957
0.18714308
0.19073872
0.1942447
0.19767692
0.20104916
0.20437312
0.20765891
0.210915
0.21414825
0.21736424
0.22056711
0.22376019
0.22694652
0.23012855
0.23330873
0.23649001
0.23967636
0.24287333
0.24608887
0.24933407
0.2526239
0.25597822
0.25942239
0.26298831
0.26671571
0.27065387
0.27486736
0.27945824
0.28466391
0.29140326
0.30239845
0.319128
0.3451309
0.37448749
0.39469986
0.40394854
0.40712706
0.4080335
0.4081602
0.40816811
0.40819767
0.40811669
0.40785346
0.40780176
0.40797542
0.40798839
0.40769846
0.40758336
0.40756814
0.40732922
0.40716031
0.40696795
0.40666571
0.40641699
0.40610018
0.40573524
0.40545372
0.40500844
0.40454743
0.40403636
0.40347485
0.40294437
0.40221816
0.40155339
0.40072223
0.39992787
0.39899636
0.39796532
0.39683099
0.39557043
0.3942608
0.39279684
0.3913226
0.38952268
0.38786341
0.38586469
0.38366668
0.38142463
0.37909262
0.37649052
0.3738437
0.37104017
0.36815273
0.36513912
0.36207613
0.35893954
0.35587176
0.35272963
0.34952925
0.34629855
0.34303881
0.33980919
0.33667806
0.33367964
0.3308823
0.32821539
0.3256407
0.32321551
0.32095008
0.31878878
0.31681545
0.31496828
0.005224613
0.016137601
0.028005288
0.040882013
0.054686528
0.069019521
0.0830733
0.096025829
0.10749645
0.11751943
0.12630787
0.13409203
0.14106446
0.14737922
0.15315791
0.15849585
0.16346865
0.16813653
0.17254701
0.1767399
0.18075008
0.18460636
0.18833306
0.19195181
0.1954808
0.19893598
0.20233116
0.20567806
0.20898684
0.212266
0.21552245
0.21876178
0.2219882
0.22520505
0.22841539
0.23162172
0.23482647
0.23803259
0.24124399
0.24446617
0.24770719
0.25097826
0.25429452
0.257676
0.26114826
0.26474352
0.26850202
0.2724738
0.27672468
0.2813585
0.28661354
0.29341187
0.30453153
0.32197038
0.34852121
0.37691248
0.39602539
0.40501363
0.40842579
0.40922398
0.4092789
0.40918024
0.4091931
0.40910566
0.40882043
0.40880406
0.40896685
0.40887781
0.40853315
0.40838623
0.40827567
0.40803445
0.40782786
0.40762862
0.40733396
0.40708359
0.40672703
0.40635133
0.40603843
0.40559462
0.40515727
0.40462657
0.40404237
0.4034929
0.40277184
0.40211671
0.40127258
0.40040627
0.39946843
0.39842515
0.39736222
0.39606896
0.39473973
0.39324186
0.39175908
0.38992607
0.38822064
0.38624633
0.38399641
0.38171405
0.37937206
0.37675538
0.37409672
0.37124291
0.36833704
0.36532377
0.36225439
0.35908572
0.35598639
0.35281779
0.34959723
0.34635491
0.34307208
0.3398341
0.33670784
0.33371024
0.33086646
0.32823317
0.32564264
0.32320043
0.32096498
0.31879887
0.31680704
0.3149742
0.0052884728
0.0163326
0.028340392
0.041365636
0.055321747
0.069794828
0.083959066
0.096987864
0.10851027
0.11857151
0.12739145
0.13520386
0.14220298
0.14854375
0.15434823
0.15971199
0.16471078
0.16940488
0.17384187
0.17806156
0.18209889
0.18598267
0.18973725
0.19338426
0.19694193
0.20042623
0.203851
0.20722799
0.2105674
0.21387775
0.21716597
0.22043769
0.22369711
0.2269476
0.23019223
0.23343348
0.23667382
0.23991618
0.24316447
0.24642431
0.24970382
0.25301423
0.25637069
0.25979329
0.26330764
0.26694602
0.27074854
0.2747648
0.27905912
0.28373113
0.28900429
0.29574663
0.30654645
0.32351624
0.34979494
0.3781773
0.39719591
0.40613721
0.40883382
0.40949267
0.40956295
0.40958038
0.40970075
0.40961572
0.40937429
0.4093423
0.40945013
0.40937733
0.40905773
0.40890561
0.40885377
0.40863688
0.40842325
0.40823986
0.40791881
0.40765518
0.40733478
0.40695875
0.40665041
0.40619325
0.40573761
0.40521448
0.40462439
0.40408053
0.40332093
0.40262655
0.40179579
0.40096271
0.39999728
0.39893152
0.39778226
0.39648454
0.3951481
0.3936397
0.39213155
0.39027324
0.38853209
0.38657304
0.38431543
0.38197841
0.37959458
0.37691402
0.37425625
0.37138501
0.36844726
0.3654146
0.36234475
0.3591516
0.35604746
0.35286016
0.34960804
0.34633159
0.34304435
0.3397924
0.33665997
0.33367518
0.33088679
0.32822214
0.32565491
0.3232275
0.3209557
0.3188004
0.3168264
0.31497914
0.0053415916
0.016498771
0.028631476
0.041793346
0.055893255
0.070504271
0.084783712
0.097899006
0.10948553
0.11959681
0.12845832
0.1363071
0.14333933
0.1497111
0.15554526
0.16093787
0.16596504
0.17068726
0.17515226
0.17939994
0.1834653
0.18737722
0.19116005
0.19483546
0.1984217
0.20193473
0.20538842
0.2087945
0.21216317
0.21550295
0.21882076
0.22212221
0.22541146
0.22869187
0.23196648
0.23523779
0.23850825
0.24178093
0.24505986
0.24835068
0.25166149
0.25500359
0.25839231
0.26184798
0.26539661
0.26907096
0.27291191
0.27697014
0.2813118
0.28603992
0.2913844
0.29823086
0.30919748
0.32634087
0.35341395
0.38158114
0.39951439
0.40694782
0.40953337
0.41021495
0.41026297
0.41023803
0.41024002
0.41013501
0.40986246
0.40983163
0.41001755
0.40998991
0.40966712
0.40955789
0.40951549
0.40927683
0.4090843
0.40885885
0.40855666
0.40829775
0.40796418
0.40756959
0.40725736
0.40679736
0.40632983
0.4058092
0.40521021
0.40464224
0.40388907
0.40319673
0.40234888
0.40146625
0.40050822
0.39941967
0.39831809
0.39697153
0.39562287
0.39408476
0.39256487
0.39067701
0.38887854
0.38691283
0.38466591
0.38227951
0.37988612
0.37718267
0.37449954
0.37158966
0.36863742
0.36560146
0.36252303
0.35929244
0.35615409
0.35293458
0.34966363
0.3463808
0.34306802
0.33981544
0.33669143
0.33369864
0.33087077
0.32824277
0.32564983
0.32321098
0.32097206
0.31880526
0.31681844
0.0053870649
0.016638992