/*--------------------------------*- C++ -*----------------------------------*\
| =========                 |                                                 |
| \\      /  F ield         | OpenFOAM: The Open Source CFD Toolbox           |
|  \\    /   O peration     | Version:  2506                                  |
|   \\  /    A nd           | Website:  www.openfoam.com                      |
|    \\/     M anipulation  |                                                 |
\*---------------------------------------------------------------------------*/
FoamFile
{
    version     2.0;
    format      ascii;
    arch        "LSB;label=32;scalar=64";
    class       volScalarField;
    location    "0.0275";
    object      Co;
}
// * * * * * * * * * * * * * * * * * * * * * * * * * * * * * * * * * * * * * //

dimensions      [0 0 0 0 0 0 0];

internalField   nonuniform List<scalar> 
13761
(
0.00010819606
0.00021179352
0.00031099215
0.00040680158
0.00049927466
0.00059516186
0.00070141262
0.00080228985
0.00089791539
0.00098776241
0.001070276
0.001145535
0.001213698
0.001274194
0.001326994
0.0013721187
0.001409595
0.0014398871
0.001463759
0.0014807819
0.0014909219
0.0014951506
0.0014933827
0.0014857882
0.0014730383
0.0014549523
0.0014320889
0.0014044623
0.0013721634
0.0013352176
0.0012935204
0.0012467539
0.0011946818
0.0011366716
0.0010722723
0.0010013514
0.00092382058
0.00084008448
0.00075088023
0.00065735271
0.00056095656
0.00046354838
0.00036724005
0.00027434499
0.00024082601
0.00025679164
0.00025824723
0.00023550643
0.00018081016
0.00017802966
0.0002867773
0.00042361188
0.00058865404
0.00078756041
0.0010256652
0.0013029626
0.0016162177
0.0019615572
0.0023355423
0.0027354061
0.0031565976
0.003594682
0.0040454058
0.0045055364
0.0049724627
0.0054438675
0.005917196
0.006389259
0.0068558557
0.0073117315
0.0077507647
0.008166327
0.0085520982
0.0089027959
0.0092150926
0.0094881792
0.0097241899
0.0099276381
0.010104554
0.010261363
0.010403729
0.010536001
0.010661518
0.01077701
0.010883377
0.010981316
0.011070331
0.011149489
0.011218109
0.011275651
0.011321974
0.011357129
0.011381337
0.011394873
0.011398023
0.01139105
0.011374105
0.011347249
0.011310664
0.011264574
0.011208892
0.011143281
0.011067427
0.010981075
0.010883928
0.010775645
0.010655888
0.010524323
0.010380604
0.010224482
0.010055846
0.009874647
0.0096808167
0.0094743311
0.009255351
0.0090243393
0.0087821271
0.0085297696
0.0082683709
0.007998985
0.0077226323
0.0074403873
0.0071534478
0.0068632353
0.0065715211
0.0062802089
0.0059909234
0.005705453
0.0054242268
0.0051488863
0.0048802285
0.0046185548
0.0043661548
0.0041210474
0.0038860067
0.0036608211
0.0034387495
0.0032332762
9.7653251e-06
3.1743529e-05
5.9159353e-05
9.1579666e-05
0.00012835008
0.00016869997
0.00021184414
0.00025674659
0.0003023055
0.0003472026
0.00038979212
0.00042882173
0.00046334763
0.00049277866
0.00051721701
0.0005371699
0.00055329348
0.00056630909
0.00057689429
0.00058525029
0.0005915813
0.00059631044
0.00059950598
0.00060126931
0.00060184442
0.00060120112
0.00059953757
0.00059690225
0.00059338365
0.00058908708
0.00058411021
0.00057851915
0.00057242659
0.00056578121
0.00055852815
0.00055061132
0.00054178029
0.00053172673
0.00051997183
0.00050590456
0.0004887257
0.00046755419
0.0004413673
0.00040910972
0.00036975168
0.00032241187
0.00026649026
0.00020155017
0.00012686899
0.00010243895
0.00019053348
0.00030602427
0.00044689396
0.00061711717
0.00081957723
0.0010527457
0.0013134663
0.0015990626
0.0019073273
0.0022360618
0.0025814144
0.0029397132
0.0033078863
0.0036846293
0.0040682673
0.0044563602
0.004846466
0.005235449
0.0056193017
0.0059931647
0.0063515348
0.0066917186
0.0070111088
0.0073037588
0.0075653414
0.0077950647
0.0079946033
0.0081675876
0.0083189249
0.0084538725
0.0085770809
0.0086921434
0.0088019131
0.0089035242
0.0089978132
0.009085408
0.00916594
0.0092386556
0.0093030549
0.0093587659
0.0094057291
0.0094440542
0.0094739885
0.0094958203
0.0095098519
0.0095163359
0.0095154354
0.0095072341
0.0094919188
0.0094696785
0.0094404287
0.0094038748
0.0093597291
0.0093077453
0.0092476231
0.0091790044
0.00910152
0.0090147808
0.0089183808
0.0088119573
0.0086952515
0.0085680414
0.0084300715
0.0082810959
0.0081210087
0.0079499689
0.0077684523
0.0075771308
0.00737671
0.0071678779
0.0069513046
0.0067277186
0.0064979859
0.0062632101
0.0060248452
0.0057845082
0.005543625
0.005303774
0.0050653404
0.0048298767
0.0045981122
0.0043704896
0.0041492135
0.0039324438
0.0037231391
0.0035210986
0.0033199056
0.0031329031
6.5784464e-06
1.985933e-05
3.3923547e-05
4.8601859e-05
6.3762124e-05
7.9270918e-05
9.4984737e-05
0.00011071806
0.00012625454
0.00014131502
0.00015553323
0.0001684918
0.00017973147
0.0001888617
0.00019572648
0.00020043673
0.00020329102
0.00020465026
0.00020485163
0.00020415212
0.00020275589
0.00020082341
0.00019846528
0.00019576551
0.00019439965
0.00019601603
0.00019905846
0.00020198124
0.00020479846
0.00020753007
0.0002102027
0.00021284988
0.00021551992
0.00021826307
0.00022114269
0.00022424374
0.00022765784
0.00023149992
0.00023589719
0.00024099193
0.00024691915
0.00025380222
0.00026168146
0.00027042378
0.00027952172
0.00028761
0.00029159755
0.00028517157
0.00025802532
0.00022632145
0.00032728369
0.00044059795
0.00056761001
0.00071293027
0.00088019423
0.0010710711
0.0012861275
0.0015253853
0.0017880695
0.0020726309
0.0023759498
0.0026945415
0.0030250461
0.0033648187
0.0037116266
0.0040633686
0.0044176206
0.00477138
0.0051208715
0.005461557
0.0057883163
0.0060959162
0.0063793697
0.0066382585
0.0068757423
0.007088601
0.0072739677
0.0074350863
0.0075763861
0.0077026443
0.0078180966
0.0079260227
0.0080290891
0.0081245645
0.0082132811
0.0082958447
0.0083719421
0.0084409042
0.008502337
0.0085559414
0.0086017216
0.0086398157
0.0086705178
0.0086941303
0.0087109618
0.0087212779
0.0087252381
0.0087229594
0.00871463
0.0087004178
0.0086802413
0.008653832
0.0086209334
0.0085813032
0.0085346547
0.0084806447
0.0084189029
0.0083490357
0.0082706221
0.0081832888
0.0080867435
0.0079807064
0.0078648611
0.0077388931
0.0076026182
0.0074560847
0.0072996285
0.0071337733
0.0069590685
0.0067760433
0.0065852185
0.006387172
0.0061826129
0.0059724949
0.0057581172
0.0055409465
0.0053223033
0.005103636
0.004885287
0.004668738
0.0044546347
0.0042434975
0.0040374337
0.0038346245
0.0036381618
0.0034477626
0.0032571395
0.0030796025
5.7482771e-06
1.7128957e-05
2.8750271e-05
4.0783212e-05
5.3241887e-05
6.5918914e-05
7.8695407e-05
9.1427741e-05
0.0001039489
0.00011604961
0.00012747376
0.00013791518
0.00014703969
0.00015495105
0.00016219473
0.00016863226
0.00017400403
0.00017855087
0.00018250098
0.00018603753
0.00018930067
0.00019240188
0.00019542162
0.00019842506
0.00020147323
0.00020461133
0.00020789301
0.0002113645
0.00021507498
0.00021907643
0.00022342396
0.00022817173
0.00023338375
0.00023910781
0.0002453972
0.00025231548
0.00025990291
0.00026820217
0.00027722884
0.00028697098
0.00029734722
0.00030819599
0.00031916381
0.00032957661
0.00033816366
0.00034242853
0.00033771154
0.00031615551
0.00026786336
0.00018660918
0.00026840573
0.00037838765
0.00050743078
0.00065658098
0.00082668844
0.001017555
0.0012284585
0.0014584862
0.001706517
0.0019713248
0.0022512517
0.0025445221
0.0028491342
0.0031631375
0.0034845878
0.0038114695
0.0041414102
0.0044714746
0.0047979961
0.0051166097
0.005422419
0.0057103689
0.0059757018
0.0062147379
0.0064252344
0.0066168192
0.0067922878
0.0069462635
0.0070815084
0.0072024666
0.0073131137
0.0074165285
0.0075152574
0.0076066539
0.0076915545
0.0077705564
0.0078434048
0.0079094946
0.0079685026
0.0080201858
0.0080646141
0.0081019736
0.0081325685
0.0081567299
0.0081747811
0.0081869846
0.0081935186
0.0081945046
0.0081901404
0.0081805858
0.0081657516
0.0081453902
0.0081192664
0.0080871504
0.0080487558
0.0080037521
0.0079517836
0.0078924609
0.0078253593
0.0077500953
0.0076663662
0.0075738694
0.007472253
0.0073611709
0.0072403841
0.0071098778
0.0069699121
0.0068209085
0.0066633183
0.0064975713
0.0063240859
0.0061433379
0.0059559344
0.0057627189
0.0055648813
0.0053637868
0.0051606761
0.0049568914
0.0047527384
0.0045496416
0.0043481635
0.0041488934
0.0039538418
0.0037611821
0.0035741342
0.0033923078
0.0032094956
6.1475022e-06
1.9167139e-05
3.4147685e-05
5.1028189e-05
6.968414e-05
8.9983485e-05
0.00011181052
0.0001349805
0.00015929521
0.00018448552
0.00021012397
0.00023580443
0.00026103613
0.00028526449
0.00030812748
0.00032947114
0.00034931468
0.0003678098
0.00038517573
0.00040142599
0.00041660408
0.00043091681
0.00044437215
0.00045701179
0.00046898512
0.00048025516
0.00049095883
0.00050111623
0.00051078744
0.00052004551
0.00052896554
0.00053760355
0.00054607992
0.00055439567
0.0005625887
0.0005707791
0.00057897639
0.00058724667
0.00059559746
0.00060402288
0.00061240233
0.00062057925
0.00062813486
0.00063428752
0.00063757608
0.00063503378
0.00062128367
0.00058783658
0.00052549824
0.00043106685
0.00047970711
0.00056420834
0.00066341353
0.00078027601
0.00091677976
0.0010739736
0.0012524444
0.0014523534
0.0016730792
0.0019130712
0.0021699125
0.0024410391
0.0027241077
0.0030170883
0.0033180578
0.0036250112
0.0039355988
0.004246914
0.0045553604
0.0048566817
0.0051461092
0.0054187139
0.0056699009
0.005896031
0.0060949069
0.0062664789
0.0064202588
0.0065644914
0.0066956344
0.0068129489
0.0069202211
0.0070203908
0.0071159043
0.0072041967
0.0072861214
0.0073622764
0.0074324481
0.0074960909
0.0075529528
0.0076028585
0.0076459214
0.007682364
0.0077125311
0.0077367615
0.0077553896
0.0077686918
0.0077768475
0.0077799971
0.0077783363
0.0077720134
0.007760939
0.0077448754
0.007723604
0.0076969062
0.0076645118
0.0076260968
0.0075813105
0.0075297672
0.0074710533
0.0074047863
0.0073306485
0.0072483237
0.0071574468
0.0070576439
0.0069486447
0.0068303892
0.0067030812
0.0065670764
0.0064227437
0.0062704373
0.0061104986
0.0059433267
0.0057694452
0.0055896181
0.0054049459
0.0052167016
0.0050260703
0.0048342985
0.0046416569
0.0044495242
0.0042583794
0.0040688724
0.0038829204
0.0036986786
0.0035194866
0.0033448404
0.0031685924
6.7843045e-06
2.1070826e-05
3.7288146e-05
5.5348149e-05
7.5152014e-05
9.659951e-05
0.00011960691
0.00014402113
0.00016966701
0.00019628831
0.0002234548
0.00025073267
0.00027759651
0.00030345382
0.00032791647
0.00035081769
0.00037216404
0.00039211085
0.00041088917
0.00042852184
0.00044506859
0.00046075359
0.00047559774
0.00048965154
0.00050307819
0.00051584312
0.00052809106
0.00053984686
0.00055116813
0.0005621297
0.00057280091
0.00058323273
0.00059353457
0.0006036898
0.00061371721
0.00062370923
0.0006336411
0.00064353148
0.00065332073
0.00066291217
0.00067204727
0.00068037462
0.00068717924
0.00069123765
0.00069044225
0.0006809617
0.00065661848
0.00060923445
0.00053244809
0.00042681063
0.00045758827
0.00054481046
0.00064849192
0.00076971629
0.000909045
0.0010665193
0.0012419273
0.001434895
0.0016447754
0.0018706658
0.0021113196
0.0023652209
0.0026307608
0.0029063332
0.0031902447
0.0034805983
0.0037750975
0.0040708761
0.0043643967
0.0046514709
0.0049274233
0.0051874225
0.005426961
0.0056424565
0.0058317614
0.0059946458
0.0061327824
0.0062576764
0.0063795889
0.0064943673
0.0065992219
0.0066969799
0.0067900079
0.0068758345
0.0069553243
0.0070290816
0.0070969432
0.0071584198
0.007213328
0.0072615494
0.0073032495
0.0073386899
0.0073682393
0.0073922639
0.0074111067
0.0074250415
0.0074342565
0.0074389051
0.0074391889
0.007435237
0.0074269559
0.0074141257
0.0073965415
0.0073739945
0.0073462136
0.0073128876
0.0072736794
0.0072282064
0.0071760583
0.0071168611
0.007050293
0.0069760288
0.0068936899
0.0068028841
0.0067033205
0.0065949103
0.0064778126
0.006352327
0.0062187675
0.0060774223
0.0059285713
0.0057725554
0.005609829
0.0054410847
0.0052673536
0.0050898368
0.0049096621
0.0047279971
0.0045450844
0.0043622516
0.0041799017
0.0039987437
0.0038206019
0.0036436095
0.0034712199
0.0033028095
0.0031322802
7.7564928e-06
2.4420406e-05
4.394929e-05
6.6268002e-05
9.1249526e-05
0.00011875953
0.00014869368
0.00018084498
0.00021498842
0.00025078027
0.00028763739
0.00032501036
0.00036224465
0.00039857743
0.00043347257
0.00046663281
0.00049795288
0.00052751403
0.00055554963
0.000581988
0.00060683753
0.00063038608
0.00065261376
0.00067356079
0.00069344373
0.00071217633
0.00072995132
0.00074677061
0.00076269546
0.00077779927
0.00079215988
0.00080581021
0.00081888438
0.00083130884
0.00084307664
0.00085427759
0.0008648284
0.00087470992
0.0008837852
0.00089186608
0.00089854066
0.00090328048
0.00090508625
0.00090234048
0.00089241192
0.00087080259
0.00083095402
0.00076560638
0.0006714043
0.00055226765
0.00056293822
0.00063768978
0.00072721226
0.00083314261
0.00095648454
0.001097822
0.0012574468
0.0014352434
0.0016304842
0.0018419041
0.0020679765
0.0023071284
0.0025578722
0.0028187651
0.0030882584
0.0033645553
0.0036454238
0.0039280513
0.0042089509
0.0044839943
0.0047485737
0.0049979276
0.0052276183
0.0054340952
0.0056152223
0.005770703
0.0059021217
0.0060127871
0.0061184644
0.0062267763
0.0063298599
0.006425754
0.00651677
0.0066005329
0.0066779188
0.0067495498
0.0068153133
0.0068747793
0.0069278335
0.00697441
0.0070147269
0.0070490872
0.007077887
0.0071015051
0.0071202961
0.0071345407
0.0071444312
0.0071501326
0.0071518433
0.0071496745
0.0071435309
0.0071332086
0.0071185094
0.0070992305
0.0070751147
0.0070458538
0.0070111181
0.0069705378
0.0069237053
0.0068702465
0.0068098456
0.0067421703
0.0066668307
0.0065834292
0.0064916579
0.0063914022
0.006282789
0.0061660754
0.0060415221
0.0059093726
0.0057698556
0.0056232595
0.0054699834
0.0053106642
0.0051462695
0.0049779341
0.0048067484
0.0046338013
0.0044593054
0.004284551
0.0041098653
0.0039360129
0.0037647273
0.0035941165
0.0034277449
0.0032648653
8.6823519e-06
2.7270188e-05
4.8880239e-05
7.3440769e-05
0.00010084014
0.00013096176
0.00016371699
0.00019890499
0.00023629241
0.00027551321
0.00031591815
0.00035688866
0.00039768628
0.00043749058
0.00047573024
0.00051206613
0.00054638656
0.0005787703
0.00060946338
0.00063839898
0.0006655978
0.00069136777
0.00071569386
0.00073861749
0.00076036638
0.00078084246
0.00080024483
0.00081856638
0.00083586066
0.00085219173
0.00086762915
0.00088218836
0.00089599123
0.00090893756
0.00092099074
0.00093221854
0.00094248972
0.00095174093
0.0009597716
0.00096630756
0.00097082155
0.00097263001
0.00097050773
0.00096252122
0.00094561784
0.00091492155
0.00086415886
0.00078786413
0.00068592289
0.00056381434
0.00056480377
0.00064218485
0.0007341645
0.00084158688
0.00096489199
0.0011042449
0.0012596489
0.0014309159
0.0016175642
0.0018187867
0.0020335588
0.0022607459
0.002499212
0.0027477742
0.0030050651
0.0032694065
0.0035386477
0.0038100356
0.004080137
0.0043448763
0.0045997037
0.0048399152
0.0050611136
0.0052597751
0.0054337646
0.0055827426
0.0057082209
0.0058133678
0.0059026686
0.0059977593
0.0060995663
0.0061939873
0.0062833364
0.0063653161
0.0064408221
0.0065105091
0.0065743129
0.0066318655
0.0066831164
0.0067280662
0.00676698
0.0068001999
0.0068281472
0.0068512163
0.006869773
0.0068840968
0.0068943878
0.0069008224
0.0069035891
0.0069027855
0.0068983097
0.0068899691
0.0068775814
0.0068609432
0.0068398029
0.006813865
0.0067828027
0.0067462513
0.0067038136
0.0066551216
0.0065998589
0.0065376905
0.0064682223
0.0063910452
0.006305841
0.0062124807
0.0061110629
0.0060018093
0.0058849431
0.0057606612
0.0056291533
0.0054906639
0.0053455445
0.0051943831
0.0050380944
0.0048777614
0.004714431
0.0045491248
0.0043820352
0.0042144111
0.0040465073
0.003879145
0.0037139684
0.0035490579
0.0033880863
0.0032301803
9.8589426e-06
3.1039715e-05
5.5766382e-05
8.3969324e-05
0.00011552915
0.00015031561
0.00018823143
0.00022904699
0.0002724793
0.00031807873
0.00036506254
0.00041268714
0.00046010221
0.00050637055
0.00055085366
0.00059315656
0.00063311629
0.00067079886
0.00070646826
0.00074003779
0.0007715231
0.00080127524
0.00082927316
0.00085555991
0.00088039164
0.0009036493
0.00092554767
0.00094607706
0.0009652783
0.00098321682
0.00099995041
0.0010154886
0.0010299451
0.0010431879
0.0010551514
0.001065887
0.0010752176
0.001083032
0.0010890679
0.0010929598
0.0010940558
0.001091515
0.0010838927
0.0010689926
0.0010435284
0.001002568
0.00094036398
0.00085325091
0.00074359788
0.00061783032
0.00060210231
0.00067669457
0.00076479953
0.00086741401
0.00098515029
0.0011183413
0.0012670458
0.0014309891
0.0016095659
0.0018019433
0.0020072032
0.0022243917
0.0024525779
0.0026907627
0.0029377216
0.0031918828
0.0034511704
0.003712891
0.0039736656
0.0042294696
0.0044758032
0.0047080038
0.0049217085
0.005113413
0.0052809774
0.0054240305
0.0055440253
0.0056440429
0.005728195
0.0058084187
0.0058982837
0.0059915989
0.0060795807
0.0061600343
0.006233872
0.0063017806
0.0063637598
0.0064195049
0.0064690298
0.0065123975
0.0065499268
0.0065819924
0.0066090446
0.0066314972
0.0066497155
0.0066639839
0.0066745065
0.0066814656
0.0066850451
0.0066853168
0.0066821829
0.0066754632
0.0066649777
0.0066505302
0.0066318735
0.0066087167
0.0065807433
0.0065475953
0.0065088799
0.0064642371
0.0064133515
0.0063558856
0.0062914407
0.0062196044
0.0061400503
0.0060526349
0.0059574397
0.0058546551
0.0057444665
0.0056270407
0.0055025285
0.0053711383
0.0052331803
0.0050892018
0.004940071
0.0047868198
0.0046304672
0.0044719691
0.0043114933
0.0041502552
0.0039884423
0.0038269276
0.0036672685
0.0035075207
0.0033514601
0.0031980867
1.0990301e-05
3.4521157e-05
6.1807202e-05
9.2789351e-05
0.00012735135
0.00016537589
0.00020676804
0.00025128202
0.0002986016
0.00034820471
0.00039921388
0.00045077378
0.0005019648
0.00055180921
0.00059964932
0.0006450811
0.00068792943
0.00072826611
0.0007663593
0.0008021381
0.00083562716
0.00086720474
0.00089685291
0.000924626
0.00095078661
0.00097521408
0.00099812366
0.0010194987
0.0010393784
0.0010578207
0.0010748744
0.0010905368
0.0011049166
0.0011178598
0.0011292853
0.0011392248
0.001147475
0.0011538937
0.0011581748
0.0011598972
0.0011583344
0.0011525471
0.0011409612
0.0011212215
0.0010898948
0.0010420654
0.00097268435
0.00088002862
0.00076850354
0.00064456381
0.0006097758
0.00068660907
0.00077611925
0.00087907135
0.00099590818
0.0011268479
0.0012719277
0.0014309543
0.0016034656
0.0017888204
0.0019863241
0.0021952467
0.0024148594
0.0026443297
0.0028825587
0.0031280659
0.003378846
0.0036322601
0.0038849773
0.0041330206
0.0043719306
0.0045970762
0.0048041182
0.0049895624
0.005151266
0.0052888341
0.0054036804
0.0054988269
0.0055783111
0.0056465381
0.0057236152
0.0058128216
0.005899656
0.0059787668
0.0060510748
0.0061173176
0.0061775549
0.0062315484
0.0062793888
0.0063212004
0.0063573488
0.0063882523
0.0064143791
0.0064361575
0.0064539604
0.0064680694
0.0064786952
0.0064860269
0.0064902298
0.0064913622
0.0064893245
0.0064839424
0.0064750492
0.0064624497
0.0064458951
0.0064251047
0.0063997698
0.0063695364
0.0063340189
0.0062928633
0.0062457575
0.0061923623
0.0061322787
0.0060650901
0.0059904638
0.0059082473
0.0058185035
0.0057213988
0.0056170913
0.0055057144
0.0053873877
0.0052622894
0.0051306954
0.0049931143
0.004850375
0.004703467
0.0045533792
0.0044010073
0.0042465017
0.0040910443
0.0039347556
0.0037785633
0.0036239386
0.00346891
0.0033173567
1.218e-05
3.8218685e-05
6.82981e-05
0.00010236158
0.00014029267
0.00018196255
0.00022726536
0.0002759212
0.00032755782
0.00038155228
0.00043690278
0.00049264356
0.0005477795
0.00060130486
0.00065256855
0.00070116707
0.00074691626
0.00078988641
0.00083035983
0.0008682825
0.00090368675
0.00093698273
0.00096816245
0.00099728538
0.0010246304
0.0010500746
0.0010738425
0.0010959105
0.00111632
0.0011351246
0.0011523709
0.0011680453
0.0011822567
0.0011948367
0.0012056895
0.0012148374
0.0012220532
0.001227174
0.0012298576
0.0012296432
0.0012257376
0.0012171244
0.0012021268
0.0011782675
0.0011420287
0.0010886246
0.0010137895
0.00091748962
0.00080549558
0.00068369262
0.00062023794
0.00069811673
0.00078791047
0.00089033447
0.0010058115
0.0011345204
0.0012764399
0.0014313535
0.0015988457
0.0017783931
0.0019694672
0.0021715138
0.0023839665
0.0026061276
0.0028369987
0.0030751765
0.0033187123
0.0035650159
0.0038107983
0.0040521188
0.0042845444
0.0045034676
0.0047045611
0.0048843341
0.0050406424
0.0051730749
0.0052830177
0.0053734612
0.0054484021
0.005512138
0.0055754894
0.0056535837
0.0057394121
0.0058172921
0.0058881518
0.005952782
0.0060113137
0.0060635872
0.0061097604
0.0061500228
0.0061847876
0.0062145096
0.0062396825
0.0062607466
0.0062780729
0.006291944
0.0063025746
0.0063101546
0.00631484
0.0063166652
0.0063155281
0.0063112684
0.0063037211
0.0062926913
0.0062779384
0.0062591865
0.0062361306
0.0062084232
0.0061756858
0.0061375706
0.0060937691
0.0060439428
0.0059876881
0.0059245864
0.0058543037
0.0057766796
0.0056917646
0.0055997027
0.0055006224
0.0053946337
0.0052818318
0.005162367
0.0050364804
0.0049046511
0.0047676724
0.004626493
0.0044820775
0.0043352686
0.0041861968
0.0040360128
0.0038847754
0.0037334642
0.0035834662
0.003432785
0.0032853994
1.3520812e-05
4.2282943e-05
7.5247897e-05
0.00011236027
0.00015350992
0.00019857412
0.00024744259
0.00029980897
0.00035524049
0.00041302118
0.00047201834
0.00053116647
0.00058943116
0.00064581239
0.00069968955
0.00075067987
0.00079861235
0.00084356672
0.00088581694
0.0009253259
0.00096214415
0.00099668719
0.0010289721
0.001059062
0.0010872452
0.0011134012
0.0011377604
0.0011602989
0.001181052
0.0012000773
0.0012174179
0.0012330548
0.0012470928
0.0012593572
0.0012697408
0.0012782603
0.0012846745
0.001288804
0.0012902833
0.0012886251
0.0012829968
0.0012723343
0.0012548982
0.0012281557
0.0011885756
0.0011315688
0.001053595
0.00095597695
0.00084532368
0.00072650638
0.00062579236
0.00070537108
0.00079614406
0.00089875896
0.0010135837
0.0011407585
0.0012802398
0.0014318285
0.0015951841
0.0017699076
0.0019556255
0.0021519351
0.0023584039
0.0025744423
0.0027991323
0.0030311303
0.0032685339
0.0035087905
0.0037486419
0.003984169
0.0042109523
0.0044243941
0.0046201687
0.0047947844
0.0049460923
0.0050736693
0.0051788917
0.005264741
0.0053351994
0.0053945371
0.005446665
0.0055134154
0.0055958347
0.0056725344
0.0057419773
0.0058050079
0.0058618387
0.0059123863
0.0059568814
0.0059955816
0.0060289493
0.0060574729
0.0060816652
0.0061019745
0.0061187763
0.0061323501
0.0061429104
0.0061506462
0.0061556948
0.0061580752
0.0061576839
0.006154368
0.0061479673
0.0061382894
0.0061250951
0.0061081123
0.0060870446
0.0060615488
0.0060312504
0.0059958101
0.0059549233
0.0059082479
0.0058553829
0.0057959104
0.0057294905
0.0056559599
0.0055753555
0.0054878029
0.0053934127
0.005292268
0.0051844374
0.0050700496
0.0049493218
0.0048227013
0.0046909498
0.0045549844
0.0044157449
0.004274019
0.0041299241
0.0039845837
0.0038379944
0.0036911875
0.0035454675
0.0033988133
0.0032553012
1.4707478e-05
4.5973431e-05
8.1727093e-05
0.00012191076
0.00016640043
0.00021506316
0.00026775952
0.00032413796
0.00038367756
0.00044553157
0.00050842689
0.00057118569
0.00063271933
0.00069204952
0.00074859716
0.00080202159
0.00085216565
0.00089912432
0.00094319282
0.00098432431
0.0010225978
0.0010584387
0.0010918727
0.001122977
0.0011520485
0.0011789638
0.0012039614
0.0012270177
0.0012481714
0.0012674763
0.0012849708
0.0013006404
0.0013145846
0.0013266222
0.0013366407
0.0013446491
0.0013503962
0.0013536896
0.0013541484
0.001351265
0.0013441848
0.0013318208
0.0013124142
0.0012834355
0.0012414148
0.0011819687
0.0011021004
0.0010040182
0.00089458085
0.00077825142
0.00065674591
0.00071184339
0.00080328269
0.00090590795
0.0010200238
0.0011457321
0.0012829789
0.0014315965
0.001591322
0.0017618711
0.0019430022
0.0021344353
0.0023358444
0.0025467238
0.0027662158
0.00299302
0.0032252675
0.0034604316
0.0036952683
0.0039258686
0.0041478148
0.0043564964
0.004547573
0.0047175458
0.0048642576
0.0049872817
0.0050879977
0.0051693894
0.0052354517
0.0052904723
0.005338283
0.0053941978
0.0054678923
0.0055433396
0.0056112965
0.0056726464
0.0057276966
0.0057764441
0.0058191926
0.0058562684
0.0058881786
0.0059154458
0.0059385998
0.0059580957
0.0059743028
0.0059874975
0.0059978972
0.006005687
0.0060109843
0.0060137869
0.0060139924
0.0060114575
0.0060060253
0.0059975011
0.0059856446
0.0059701944
0.005950858
0.0059272934
0.0058991354
0.0058660509
0.005827738
0.0057838572
0.0057340024
0.0056777555
0.0056147795
0.0055449067
0.0054681647
0.0053846629
0.0052944881
0.0051977047
0.0050943643
0.0049845713
0.004868518
0.0047466289
0.0046196358
0.0044884237
0.0043539162
0.0042168507
0.0040773285
0.0039364458
0.0037941416
0.003651499
0.0035097417
0.0033668256
0.0032269225
1.6157411e-05
5.0414112e-05
8.9418064e-05
0.00013311073
0.00018136463
0.00023403999
0.00029098154
0.00035178393
0.00041584047
0.00048216261
0.00054930038
0.00061595821
0.00068099367
0.00074343944
0.00080276739
0.00085869136
0.00091109472
0.0009600943
0.0010060121
0.001048816
0.0010885912
0.0011257888
0.0011604392
0.0011926254
0.0012226531
0.0012504042
0.0012761182
0.0012997684
0.0013213965
0.0013410597
0.0013587909
0.0013745716
0.0013885043
0.0014003998
0.0014101377
0.0014177222
0.0014228916
0.001425445
0.0014249885
0.0014210016
0.0014126185
0.0013987545
0.0013776748
0.001346918
0.0013031663
0.0012422778
0.0011614812
0.0010632325
0.00095487812
0.0008409553
0.00072088046
0.00071915477
0.0008109846
0.00091344631
0.001026776
0.0011510393
0.0012861828
0.0014320842
0.0015885653
0.0017554497
0.0019326114
0.0021198715
0.0023169875
0.0025235179
0.0027386467
0.0029611054
0.0031890445
0.0034199464
0.0036505714
0.0038770035
0.0040948034
0.0042993338
0.0044862274
0.0046519615
0.0047943683
0.0049130296
0.0050093417
0.0050863139
0.005147972
0.0051986443
0.0052421715
0.0052876064
0.005352953
0.0054270708
0.0054934752
0.0055530749
0.0056062703
0.0056531572
0.0056941069
0.0057295158
0.0057599343
0.005785914
0.0058079985
0.0058266448
0.0058422185
0.0058549914
0.0058651777
0.0058729548
0.0058784175
0.0058815458
0.0058822379
0.0058803597
0.0058757536
0.0058682241
0.0058575369
0.0058434297
0.0058256164
0.0058037614
0.0057775028
0.005746513
0.0057104949
0.0056691083
0.0056219494
0.005568601
0.0055087221
0.0054421421
0.0053688851
0.0052890444
0.0052026889
0.0051098651
0.0050106038
0.0049049947
0.0047932074
0.0046756431
0.0045530086
0.004426162
0.0042960069
0.0041632343
0.0040279342
0.0038911765
0.0037528453
0.0036140743
0.0034760067
0.0033365769
1.7486847e-05
5.4601495e-05
9.6890327e-05
0.00014428743
0.00019664664
0.00025379683
0.00031554944
0.00038142741
0.00045071035
0.0005222387
0.00059435177
0.00066559366
0.00073474747
0.00080083933
0.00086337915
0.00092213666
0.0009770492
0.0010282856
0.0010762173
0.001120837
0.0011622579
0.0012009582
0.0012369743
0.0012704049
0.001301553
0.0013303049
0.0013568963
0.0013813003
0.0014035537
0.0014237102
0.001441807
0.0014578201
0.001471847
0.0014836961
0.0014932394
0.0015004772
0.0015051382
0.0015070126
0.001505695
0.0015006624
0.0014910412
0.0014757657
0.0014531521
0.001420856
0.0013757758
0.0013139971
0.0012328257
0.0011347609
0.0010275885
0.000915884
0.00079866855
0.00072839038
0.00082040232
0.00092247477
0.0010348714
0.0011576287
0.001290707
0.0014340435
0.0015875511
0.0017511562
0.0019248358
0.0021084942
0.0023019533
0.002504818
0.0027163012
0.002935151
0.0031595243
0.0033869028
0.0036140331
0.003836974
0.0040512451
0.0042521614
0.0044353083
0.0045971306
0.0047354514
0.0048498628
0.0049417961
0.0050143087
0.005071486
0.0051177139
0.0051568868
0.0051922356
0.0052493116
0.0053216962
0.0053864506
0.0054442151
0.0054954807
0.0055404461
0.0055795546
0.0056132653
0.0056421675
0.0056668451
0.0056878481
0.0057056306
0.0057205529
0.005732879
0.0057428164
0.0057505334
0.0057561027
0.0057594865
0.0057605858
0.0057592694
0.0057553813
0.0057487262
0.0057390681
0.0057261521
0.0057096945
0.0056893637
0.0056648047
0.0056356969
0.005601744
0.0055626073
0.0055178822
0.0054671508
0.0054100774
0.00534649
0.0052764022
0.0051998955
0.0051170229
0.0050278164
0.0049322903
0.0048305148
0.0047226434
0.0046090571
0.0044904393
0.004367622
0.0042414943
0.0041127021
0.0039813231
0.0038484049
0.0037137765
0.0035786226
0.0034440083
0.0033078473
1.9290103e-05
6.0117928e-05
0.00010646462
0.00015825559
0.00021533948
0.00027754795
0.00034467651
0.00041620081
0.00049129461
0.00056864795
0.00064639252
0.00072289369
0.00079683045
0.00086718374
0.00093348191
0.00099552782
0.0010533104
0.0011070519
0.0011571773
0.0012037099
0.0012468058
0.0012869987
0.001324354
0.0013589787
0.0013912097
0.001420923
0.0014483692
0.0014735125
0.0014963935
0.0015170533
0.0015355315
0.0015517941
0.0015659403
0.0015777587
0.0015871151
0.0015940037
0.0015981403
0.0015993085
0.0015970925
0.0015909637
0.001580049
0.0015633117
0.0015391353
0.0015053189
0.0014590322
0.0013967083
0.0013158344
0.0012186147
0.0011127278
0.0010030387
0.00088849775
0.00077546635
0.00083196075
0.00093326326
0.0010444391
0.001165508
0.0012964552
0.0014372845
0.001587997
0.0017486135
0.0019192001
0.0020997278
0.002290068
0.0024898581
0.002698326
0.0029142268
0.0031357128
0.0033602485
0.0035845509
0.003804635
0.0040159571
0.0042137601
0.0043935648
0.0045517708
0.0046861875
0.0047964314
0.0048839854
0.0049519761
0.0050045752
0.0050462432
0.0050809527
0.0051118837
0.005160427
0.0052260128
0.0052889679
0.0053447843
0.0053940194
0.005436987
0.005474195
0.0055061699
0.0055335348
0.0055568927
0.0055768011
0.0055937107
0.0056079682
0.0056198286
0.0056294931
0.005637112
0.0056427387
0.0056463202
0.0056477547
0.0056469196
0.0056436599
0.0056377744
0.0056290301
0.0056171753
0.0056019299
0.0055829671
0.0055599387
0.005532528
0.0055004423
0.0054633437
0.0054208272
0.005372477
0.0053179571
0.0052570959
0.005189904
0.0051164498
0.0050367722
0.0049508863
0.0048587923
0.0047605482
0.0046562871
0.004546375
0.0044314745
0.0043123934
0.0041900077
0.0040649195
0.0039371968
0.0038078646
0.0036767004
0.0035449389
0.0034135669
0.0032804801
2.0965439e-05
6.5363243e-05
0.00011577404
0.00017211202
0.00023421095
0.00030187864
0.00037487877
0.00045264121
0.00053426883
0.00061829465
0.00070262226
0.00078538123
0.0008650666
0.00094053901
0.0010113079
0.0010772204
0.0011383179
0.0011949071
0.0012474976
0.0012961416
0.0013410402
0.0013827999
0.0014215186
0.0014573425
0.0014906468
0.0015213112
0.0015496144
0.0015755117
0.0015990416
0.0016202392
0.0016391389
0.0016556902
0.001669992