/*--------------------------------*- C++ -*----------------------------------*\
| =========                 |                                                 |
| \\      /  F ield         | OpenFOAM: The Open Source CFD Toolbox           |
|  \\    /   O peration     | Version:  2506                                  |
|   \\  /    A nd           | Website:  www.openfoam.com                      |
|    \\/     M anipulation  |                                                 |
\*---------------------------------------------------------------------------*/
FoamFile
{
    version     2.0;
    format      ascii;
    arch        "LSB;label=32;scalar=64";
    class       volVectorField;
    location    "0.0205";
    object      wallShearStress;
}
// * * * * * * * * * * * * * * * * * * * * * * * * * * * * * * * * * * * * * //

dimensions      [1 -1 -2 0 0 0 0];

internalField   uniform (0 0 0);

boundaryField
{
    Side
    {
        type            empty;
    }
    Inlet
    {
        type            calculated;
        value           uniform (0 0 0);
    }
    Airfoil
    {
        type            calculated;
        value           nonuniform List<vector> 
65
(
(-7.0434856 -0.86794274 4.5706096e-39)
(-6.9099523 -0.85337818 -4.3664443e-33)
(-6.8254292 -0.84433874 2.905684e-16)
(-6.6879715 -0.83102468 -2.8652678e-26)
(-6.389115 -0.79477728 -4.0524216e-26)
(-6.0797475 -0.75877057 -7.0046896e-23)
(-5.9393862 -0.74381813 2.9494116e-16)
(-5.8814188 -0.74008 2.9636226e-16)
(-5.5608682 -0.69966961 -7.1019601e-23)
(-4.8463867 -0.61240156 -2.9888916e-16)
(-3.4925134 -0.44418926 -7.1551556e-23)
(-2.3083443 -0.29219444 7.1931503e-23)
(-2.2205435 -0.28674686 -1.5197893e-16)
(-2.9275645 -0.3796372 1.5336502e-16)
(-3.8249194 -0.4944356 1.4748179e-22)
(-4.5157025 -0.58632708 -1.4907575e-22)
(-4.9509211 -0.64223917 1.0640011e-32)
(-5.2773194 -0.68537474 1.5805658e-16)
(-5.3499862 -0.69740191 -1.5918463e-16)
(-5.1192631 -0.6693879 -1.6029648e-16)
(-4.5365283 -0.59442782 1.6133485e-16)
(-3.1648822 -0.41827018 -1.6232533e-16)
(-2.0502528 -0.26807312 1.6367791e-16)
(-2.1371567 -0.28409356 1.6551023e-16)
(-2.9748238 -0.39861515 1.7404943e-23)
(-4.114739 -0.55133951 -1.6210195e-22)
(-5.1285609 -0.68934715 1.6380504e-22)
(-5.750155 -0.77316711 0)
(-6.0585345 -0.81522214 -1.757258e-16)
(-6.1168122 -0.824357 2.6194633e-26)
(-5.9767188 -0.80592614 -3.5826212e-16)
(-5.8106588 -0.78506791 -1.7243587e-22)
(-5.6317525 -0.76288105 -1.7411089e-22)
(-5.4524374 -0.74103135 -1.8441835e-16)
(-5.3244387 -0.72623962 -9.6296497e-35)
(-5.1782108 -0.70877242 1.8862176e-16)
(-4.9442185 -0.67834963 0)
(-4.7647435 -0.6546385 0)
(-4.6996572 -0.64637863 1.9555462e-16)
(-4.7155562 -0.65013607 1.5046328e-36)
(-4.4669423 -0.61372228 -1.9121866e-22)
(-3.6014771 -0.49576492 2.0323918e-16)
(-2.2445958 -0.3091228 -2.0618371e-16)
(-0.84388796 -0.11296845 -2.1090919e-22)
(0.16370077 0.021271451 2.0271692e-22)
(0.64147429 0.087766422 2.2466823e-33)
(0.51525485 0.069789017 -2.1035532e-22)
(-0.14523887 -0.023486577 2.3042685e-22)
(-1.0849615 -0.15672515 -1.1481898e-16)
(-2.0577941 -0.29501019 2.3469972e-16)
(-2.9177627 -0.41824933 1.200658e-16)
(-3.5703502 -0.51057114 7.640149e-33)
(-4.0099482 -0.57235466 1.2590953e-16)
(-4.271371 -0.60986675 1.2916045e-16)
(-4.4083256 -0.62944548 -1.3264941e-16)
(-4.5250082 -0.64792906 1.3653538e-16)
(-4.6473687 -0.66678245 1.2391442e-25)
(-4.693654 -0.67418228 -2.7038251e-33)
(-4.7356285 -0.67940425 -1.5073104e-16)
(-4.6228954 -0.66369945 -5.975008e-22)
(-4.3187799 -0.62075814 6.2435204e-22)
(-3.8245146 -0.54991483 8.5893732e-17)
(-3.4160272 -0.48841395 0)
(-2.8826238 -0.41362837 -9.748929e-17)
(-3.3610536 -0.47962476 1.6951764e-21)
)
;
    }
    Outlet
    {
        type            calculated;
        value           nonuniform List<vector> 0();
    }
    procBoundary5to4
    {
        type            processor;
        value           uniform (0 0 0);
    }
    procBoundary5to6
    {
        type            processor;
        value           uniform (0 0 0);
    }
    procBoundary5to12
    {
        type            processor;
        value           uniform (0 0 0);
    }
    procBoundary5to13
    {
        type            processor;
        value           uniform (0 0 0);
    }
}


// ************************************************************************* //
