0 	38239.956
0.0023115 	45022.548
0.009234 	48756.806
0.0207225 	49938.857
0.036708 	50063.773
0.05709 	49836.969
0.0817455 	49485.241
0.11052 	49188.893
0.143238 	48901.569
0.1796955 	48643.084
0.2196705 	48419.363
0.262914 	48226.56
0.3091605 	48059.925
0.3581265 	47916.869
0.4095075 	47797.111
0.462987 	47700.306
0.518238 	47623.114
0.5749155 	47561.01
0.6326745 	47507.826
0.691155 	47458.96
0.75 	47412.498
0.808845 	47370.009
0.8673255 	47332.969
0.9250845 	47300.872
0.981762 	47274.581
1.037013 	47256.406
1.0904925 	47246.79
1.1418735 	47241.554
1.1908395 	47238.461
1.237086 	47237.844
1.2803295 	47240.351
1.3203045 	47246.394
1.356762 	47256.69
1.38948 	47269.983
1.4182545 	47284.192
1.44291 	47296.436
1.463292 	47303.222
1.4792775 	47299.552
1.4976885 	47250.37
1.5 	47215.443
