/*--------------------------------*- C++ -*----------------------------------*\
| =========                 |                                                 |
| \\      /  F ield         | OpenFOAM: The Open Source CFD Toolbox           |
|  \\    /   O peration     | Version:  2506                                  |
|   \\  /    A nd           | Website:  www.openfoam.com                      |
|    \\/     M anipulation  |                                                 |
\*---------------------------------------------------------------------------*/
FoamFile
{
    version     2.0;
    format      ascii;
    arch        "LSB;label=32;scalar=64";
    class       volScalarField;
    location    "2.998";
    object      p;
}
// * * * * * * * * * * * * * * * * * * * * * * * * * * * * * * * * * * * * * //

dimensions      [1 -1 -2 0 0 0 0];

internalField   nonuniform List<scalar> 
19257
(
47045.11
47040.855
47039.054
47038.628
47037.624
47036.935
47036.368
47035.801
47035.225
47034.616
47033.947
47033.199
47032.358
47031.411
47030.346
47029.151
47027.814
47026.327
47024.681
47022.872
47020.9
47018.769
47016.489
47014.076
47011.556
47008.96
47006.328
47003.708
47001.16
46998.741
46996.528
46994.574
46993.047
46992.023
46991.46
46991.258
46991.355
46991.548
46991.481
46990.465
46987.328
46981.283
46963.555
46954.495
46864.735
46895.088
46572.113
46695.276
46007.353
47046.097
47039.728
47039.071
47038.811
47037.882
47037.186
47036.659
47036.13
47035.595
47035.043
47034.444
47033.779
47033.037
47032.207
47031.28
47030.247
47029.101
47027.837
47026.452
47024.949
47023.332
47021.614
47019.812
47017.953
47016.071
47014.211
47012.425
47010.779
47009.349
47008.218
47007.492
47007.254
47007.712
47009.014
47011.193
47014.238
47018.211
47023.084
47028.723
47034.745
47040.498
47044.874
47044.017
47042.496
46998.904
47009.816
46774.926
46867.54
46132.084
47046.843
47039.083
47038.856
47039.002
47038.154
47037.448
47036.966
47036.487
47036
47035.51
47034.99
47034.416
47033.781
47033.077
47032.297
47031.437
47030.492
47029.461
47028.348
47027.159
47025.906
47024.607
47023.287
47021.981
47020.732
47019.594
47018.632
47017.925
47017.566
47017.656
47018.325
47019.683
47021.971
47025.396
47030.06
47036.029
47043.469
47052.506
47063.208
47075.479
47089.075
47103.236
47116.044
47127.547
47116.897
47130.229
46967.684
47039.787
46333.919
47047.57
47038.845
47038.551
47039.183
47038.454
47037.729
47037.291
47036.876
47036.447
47036.026
47035.591
47035.12
47034.602
47034.035
47033.414
47032.738
47032.007
47031.223
47030.395
47029.534
47028.656
47027.788
47026.959
47026.212
47025.598
47025.179
47025.031
47025.244
47025.924
47027.19
47029.189
47032.057
47036.057
47041.454
47048.406
47057.046
47067.627
47080.409
47095.639
47113.479
47134.045
47157.048
47181.688
47207.156
47222.118
47247.75
47151.578
47219.706
46571.591
47048.386
47038.847
47038.209
47039.338
47038.783
47038.035
47037.633
47037.294
47036.934
47036.589
47036.248
47035.889
47035.5
47035.081
47034.631
47034.151
47033.646
47033.122
47032.591
47032.07
47031.581
47031.153
47030.825
47030.644
47030.668
47030.967
47031.627
47032.746
47034.441
47036.846
47040.124
47044.434
47050.05
47057.295
47066.374
47077.478
47090.931
47107.109
47126.417
47149.24
47176.019
47206.916
47242.008
47280.729
47317.202
47360.783
47325.443
47397.63
46839.307
47049.325
47038.999
47037.87
47039.452
47039.122
47038.369
47037.996
47037.739
47037.462
47037.2
47036.962
47036.724
47036.475
47036.215
47035.946
47035.675
47035.407
47035.155
47034.934
47034.766
47034.676
47034.7
47034.881
47035.273
47035.939
47036.957
47038.419
47040.433
47043.125
47046.642
47051.157
47056.854
47064.014
47073.003
47084.078
47097.479
47113.585
47132.873
47155.887
47183.205
47215.553
47253.504
47297.885
47348.696
47403.837
47467.185
47484.702
47570.76
47128.01
47050.399
47039.272
47037.586
47039.525
47039.456
47038.728
47038.379
47038.211
47038.028
47037.86
47037.731
47037.623
47037.522
47037.431
47037.355
47037.302
47037.283
47037.313
47037.412
47037.606
47037.925
47038.409
47039.106
47040.075
47041.386
47043.122
47045.381
47048.278
47051.95
47056.552
47062.269
47069.305
47077.948
47088.593
47101.553
47117.11
47135.687
47157.846
47184.253
47215.656
47253.027
47297.309
47349.971
47411.672
47483.227
47566.099
47629.501
47738.151
47427.254
47051.645
47039.66
47037.321
47039.566
47039.795
47039.115
47038.787
47038.706
47038.63
47038.564
47038.55
47038.578
47038.635
47038.721
47038.845
47039.019
47039.256
47039.577
47040.004
47040.566
47041.3
47042.249
47043.465
47045.013
47046.966
47049.414
47052.461
47056.229
47060.86
47066.521
47073.405
47081.733
47091.801
47104.024
47118.769
47136.358
47157.248
47182.075
47211.608
47246.747
47288.675
47338.665
47398.735
47470.213
47556.253
47657.494
47760.968
47898.113
47725.93
47053.133
47040.335
47037.024
47039.526
47040.145
47039.541
47039.222
47039.223
47039.263
47039.309
47039.413
47039.582
47039.801
47040.07
47040.4
47040.805
47041.304
47041.92
47042.678
47043.612
47044.761
47046.174
47047.908
47050.029
47052.618
47055.767
47059.587
47064.206
47069.772
47076.46
47084.473
47094.045
47105.478
47119.203
47135.639
47155.144
47178.204
47205.514
47237.938
47276.507
47322.586
47377.744
47444.458
47524.717
47623.546
47741.685
47880.316
48048.464
48014.92
47054.802
47041.31
47036.844
47039.423
47040.454
47039.994
47039.686
47039.757
47039.915
47040.082
47040.31
47040.621
47041.004
47041.458
47041.995
47042.634
47043.395
47044.305
47045.393
47046.696
47048.257
47050.128
47052.369
47055.053
47058.262
47062.095
47066.666
47072.108
47078.577
47086.253
47095.348
47106.11
47118.843
47133.992
47152.023
47173.329
47198.419
47228.041
47263.137
47304.857
47354.723
47414.566
47487.249
47575.395
47685.508
47819.009
47988.26
48187.792
48287.761
47056.676
47042.42
47036.757
47039.316
47040.721
47040.446
47040.165
47040.297
47040.573
47040.868
47041.224
47041.675
47042.221
47042.859
47043.602
47044.471
47045.49
47046.688
47048.099
47049.762
47051.724
47054.039
47056.772
47059.998
47063.805
47068.294
47073.585
47079.814
47087.143
47095.76
47105.882
47117.768
47131.729
47148.217
47167.74
47190.726
47217.706
47249.467
47287.025
47331.631
47384.945
47449.028
47527.068
47622.286
47742.333
47889.685
48085.343
48315.487
48539.809
47058.738
47043.678
47036.749
47039.186
47040.937
47040.861
47040.636
47040.826
47041.216
47041.644
47042.13
47042.721
47043.424
47044.241
47045.184
47046.275
47047.543
47049.019
47050.74
47052.747
47055.091
47057.829
47061.029
47064.77
47069.142
47074.251
47080.219
47087.189
47095.325
47104.823
47115.905
47128.841
47143.944
47161.676
47182.579
47207.115
47235.834
47269.56
47309.366
47356.596
47413.028
47480.929
47563.755
47665.284
47794.036
47953.794
48171.99
48430.894
48766.194
47060.936
47045.058
47036.808
47039.04
47041.123
47041.239
47041.072
47041.318
47041.821
47042.384
47043.002
47043.728
47044.582
47045.57
47046.702
47048.004
47049.505
47051.242
47053.252
47055.581
47058.281
47061.413
47065.048
47069.266
47074.161
47079.843
47086.437
47094.089
47102.969
47113.276
47125.24
47139.138
47155.287
47174.156
47196.313
47222.256
47252.554
47288.057
47329.891
47379.477
47438.699
47510.001
47597.064
47704.175
47840.5
48011.273
48248.504
48533.572
48962.267
47063.188
47046.494
47036.916
47038.867
47041.271
47041.629
47041.486
47041.764
47042.37
47043.064
47043.811
47044.665
47045.661
47046.806
47048.113
47049.608
47051.324
47053.298
47055.572
47058.193
47061.217
47064.706
47068.733
47073.383
47078.751
47084.949
47092.107
47100.373
47109.921
47120.954
47133.708
47148.467
47165.551
47185.436
47208.71
47235.904
47267.607
47304.688
47348.318
47399.983
47461.661
47535.943
47626.703
47738.682
47881.512
48061.958
48315.018
48623.326
49127.859
47065.406
47047.904
47037.008
47038.671
47041.374
47041.994
47041.889
47042.176
47042.856
47043.667
47044.532
47045.504
47046.625
47047.911
47049.375
47051.041
47052.947
47055.13
47057.636
47060.515
47063.822
47067.624
47071.996
47077.023
47082.804
47089.454
47097.103
47105.905
47116.035
47127.7
47141.141
47156.646
47174.545
47195.311
47219.552
47247.829
47280.748
47319.196
47364.374
47417.829
47481.614
47558.45
47652.365
47768.498
47916.81
48105.608
48371.532
48700.349
49268.162
47067.5
47049.184
47037.037
47038.406
47041.411
47042.303
47042.25
47042.533
47043.266
47044.175
47045.145
47046.218
47047.446
47048.851
47050.447
47052.26
47054.325
47056.686
47059.387
47062.482
47066.028
47070.093
47074.753
47080.096
47086.224
47093.251
47101.312
47110.562
47121.179
47133.372
47147.388
47163.516
47182.096
47203.598
47228.645
47257.822
47291.756
47331.341
47377.808
47432.75
47498.281
47577.229
47673.746
47793.307
47946.099
48141.914
48417.96
48765.166
49383.083
47069.458
47050.249
47036.99
47038.004
47041.335
47042.533
47042.556
47042.831
47043.597
47044.581
47045.635
47046.787
47048.097
47049.595
47051.296
47053.225
47055.418
47057.918
47060.774
47064.039
47067.774
47072.046
47076.933
47082.526
47088.927
47096.252
47104.638
47114.24
47125.241
47137.851
47152.319
47168.94
47188.056
47210.141
47235.822
47265.706
47300.438
47340.922
47388.403
47444.513
47511.416
47592.019
47690.57
47812.814
47969.08
48170.517
48454.171
48817.753
49469.502
47071.172
47050.872
47036.734
47037.685
47041.293
47042.706
47042.774
47043.052
47043.842
47044.877
47045.988
47047.194
47048.56
47050.121
47051.895
47053.906
47056.19
47058.79
47061.756
47065.143
47069.011
47073.431
47078.481
47084.252
47090.847
47098.385
47107.003
47116.857
47128.133
47141.041
47155.834
47172.807
47192.308
47214.813
47240.949
47271.34
47306.645
47347.775
47395.986
47452.935
47520.821
47602.61
47702.612
47826.772
47985.492
48191.059
48479.931
48857.528
49528.101
47072.225
47051.261
47036.48
47037.257
47041.193
47042.851
47042.953
47043.197
47043.983
47045.047
47046.192
47047.426
47048.817
47050.41
47052.224
47054.282
47056.617
47059.274
47062.303
47065.76
47069.705
47074.21
47079.354
47085.228
47091.936
47099.598
47108.351
47118.353
47129.79
47142.874
47157.857
47175.039
47194.769
47217.522
47243.928
47274.62
47310.269
47351.785
47400.433
47457.884
47526.358
47608.854
47709.716
47835.014
47995.155
48203.249
48495.006
48882.874
49561.079
47072.394
47051.024
47036.272
47037.201
47041.155
47042.859
47042.994
47043.237
47044.016
47045.084
47046.237
47047.471
47048.86
47050.453
47052.272
47054.338
47056.684
47059.354
47062.398
47065.871
47069.835
47074.36
47079.527
47085.427
47092.165
47099.86
47108.65
47118.693
47130.175
47143.309
47158.348
47175.59
47195.388
47218.218
47244.707
47275.493
47311.249
47352.889
47401.68
47459.296
47527.963
47610.693
47711.837
47837.507
47998.095
48207.014
48499.6
48891.263
49570.903
47071.298
47051.398
47036.327
47036.746
47040.872
47042.764
47042.952
47043.187
47043.949
47044.998
47046.125
47047.329
47048.687
47050.249
47052.038
47054.074
47056.389
47059.026
47062.035
47065.47
47069.393
47073.875
47078.994
47084.843
47091.526
47099.163
47107.89
47117.866
47129.276
47142.334
47157.292
47174.448
47194.153
47216.884
47243.269
47273.942
47309.572
47351.073
47399.711
47457.156
47525.627
47608.124
47708.986
47834.276
47994.389
48202.403
48493.989
48881.378
49558.707
47069.888
47050.154
47036.261
47037.144
47040.981
47042.603
47042.723
47042.991
47043.761
47044.772
47045.842
47046.989
47048.292
47049.796
47051.522
47053.491
47055.734
47058.295
47061.221
47064.565
47068.389
47072.762
47077.763
47083.485
47090.03
47097.517
47106.082
47115.885
47127.108
47139.964
47154.704
47171.626
47191.078
47213.536
47239.63
47269.982
47305.251
47346.35
47394.541
47451.477
47519.359
47601.149
47701.15
47825.294
47983.956
48189.368
48477.883
48854.707
49523.253
47067.747
47049.813
47036.16
47036.954
47040.896
47042.392
47042.432
47042.715
47043.47
47044.414
47045.398
47046.465
47047.688
47049.106
47050.738
47052.603
47054.737
47057.178
47059.974
47063.175
47066.842
47071.045
47075.86
47081.38
47087.705
47094.954
47103.262
47112.786
47123.707
47136.239
47150.629
47167.172
47186.213
47208.228
47233.845
47263.669
47298.345
47338.783
47386.233
47442.324
47509.221
47589.827
47688.379
47810.602
47966.784
48168
48451.111
48813.76
49462.115
47065.784
47048.03
47036.104
47037.482
47040.912
47042.068
47042.072
47042.359
47043.073
47043.927
47044.809
47045.775
47046.895
47048.2
47049.706
47051.437
47053.424
47055.705
47058.325
47061.334
47064.791
47068.764
47073.328
47078.574
47084.601
47091.527
47099.485
47108.63
47119.142
47131.23
47145.14
47161.165
47179.643
47201.052
47226.012
47255.105
47288.963
47328.487
47374.911
47429.828
47495.353
47574.307
47670.83
47790.37
47943.055
48138.599
48413.917
48760.095
49373.089
47063.291
47046.94
47036.191
47037.623
47040.69
47041.605
47041.6
47041.903
47042.565
47043.316
47044.084
47044.936
47045.932
47047.1
47048.456
47050.022
47051.829
47053.914
47056.318
47059.089
47062.286
47065.973
47070.226
47075.131
47080.788
47087.311
47094.832
47103.503
47113.501
47125.033
47138.342
47153.716
47171.487
47192.134
47216.263
47244.432
47277.255
47315.624
47360.747
47414.172
47477.951
47554.8
47648.73
47764.849
47913.038
48101.529
48366.531
48694.265
49256.105
47061.01
47045.39
47036.056
47037.931
47040.58
47041.148
47041.103
47041.398
47041.979
47042.608
47043.248
47043.97
47044.827
47045.839
47047.021
47048.397
47049.996
47051.851
47054.003
47056.496
47059.387
47062.739
47066.625
47071.13
47076.35
47082.397
47089.401
47097.51
47106.9
47117.772
47130.365
47144.963
47161.893
47181.632
47204.767
47231.828
47263.411
47300.396
47343.958
47395.587
47457.26
47531.565
47622.356
47734.335
47877.036
48057.15
48309.099
48616.213
49114.138
47058.707
47043.896
47036.023
47038.203
47040.394
47040.677
47040.608
47040.873
47041.343
47041.828
47042.327
47042.907
47043.609
47044.449
47045.44
47046.606
47047.973
47049.571
47051.439
47053.62
47056.166
47059.14
47062.611
47066.662
47071.386
47076.893
47083.308
47090.777
47099.472
47109.59
47121.364
47135.072
47151.036
47169.731
47191.72
47217.501
47247.655
47283.041
47324.794
47374.337
47433.559
47504.896
47592.01
47699.147
47835.346
48005.779
48241.717
48525.482
48946.156
47056.475
47042.528
47036.008
47038.358
47040.138
47040.2
47040.077
47040.298
47040.652
47040.991
47041.344
47041.775
47042.313
47042.968
47043.756
47044.695
47045.811
47047.131
47048.69
47050.53
47052.701
47055.26
47058.277
47061.828
47066.006
47070.916
47076.681
47083.442
47091.366
47100.646
47111.509
47124.224
47139.112
47156.64
47177.343
47201.686
47230.233
47263.819
47303.527
47350.707
47407.142
47475.096
47558
47659.592
47788.237
47947.663
48164.392
48421.934
48747.57
47054.409
47041.253
47035.982
47038.417
47039.834
47039.692
47039.528
47039.693
47039.926
47040.118
47040.325
47040.603
47040.97
47041.434
47042.01
47042.713
47043.565
47044.591
47045.823
47047.301
47049.071
47051.188
47053.717
47056.734
47060.324
47064.591
47069.654
47075.649
47082.738
47091.109
47100.981
47112.615
47126.328
47142.58
47161.869
47184.627
47211.403
47242.999
47280.439
47324.985
47378.305
47442.463
47520.617
47615.948
47735.923
47882.973
48077.003
48305.81
48519.209
47052.487
47040.135
47036.025
47038.451
47039.5
47039.185
47038.989
47039.083
47039.185
47039.232
47039.296
47039.42
47039.614
47039.885
47040.243
47040.704
47041.284
47042.007
47042.901
47044.002
47045.354
47047.009
47049.028
47051.481
47054.453
47058.042
47062.361
47067.543
47073.744
47081.146
47089.96
47100.436
47112.888
47127.766
47145.525
47166.564
47191.416
47220.841
47255.795
47297.443
47347.319
47407.259
47480.101
47568.427
47678.528
47811.781
47979.283
48177.606
48265.785
47050.729
47039.215
47036.182
47038.465
47039.134
47038.696
47038.474
47038.478
47038.444
47038.353
47038.279
47038.251
47038.274
47038.352
47038.495
47038.712
47039.018
47039.432
47039.982
47040.699
47041.624
47042.804
47044.297
47046.169
47048.5
47051.383
47054.928
47059.261
47064.533
47070.917
47078.617
47087.869
47098.985
47112.401
47128.524
47147.72
47170.501
47197.578
47229.83
47268.31
47314.4
47369.68
47436.605
47517.129
47616.04
47734.014
47870.846
48037.981
47992.052
47049.158
47038.587
47036.421
47038.428
47038.752
47038.236
47037.982
47037.883
47037.715
47037.497
47037.292
47037.119
47036.976
47036.866
47036.795
47036.771
47036.805
47036.913
47037.118
47037.45
47037.944
47038.644
47039.603
47040.883
47042.559
47044.72
47047.468
47050.926
47055.236
47060.563
47067.103
47075.076
47084.789
47096.662
47111.048
47128.281
47148.846
47173.396
47202.72
47237.746
47279.68
47329.819
47390.161
47462.008
47548.273
47649.456
47751.195
47887.544
47702.721
47047.837
47038.212
47036.618
47038.32
47038.369
47037.8
47037.509
47037.303
47037.011
47036.678
47036.352
47036.04
47035.738
47035.448
47035.171
47034.912
47034.679
47034.486
47034.351
47034.3
47034.366
47034.587
47035.01
47035.695
47036.71
47038.138
47040.076
47042.639
47045.962
47050.201
47055.542
47062.186
47070.436
47080.685
47093.236
47108.386
47126.584
47148.415
47174.566
47205.821
47243.187
47287.639
47340.646
47402.838
47474.841
47557.767
47619.696
47727.887
47404.367
47046.709
47037.934
47036.801
47038.164
47037.977
47037.386
47037.055
47036.745
47036.344
47035.908
47035.47
47035.027
47034.576
47034.114
47033.64
47033.155
47032.665
47032.178
47031.712
47031.287
47030.931
47030.678
47030.57
47030.661
47031.014
47031.705
47032.824
47034.48
47036.797
47039.92
47044.026
47049.294
47056.024
47064.566
47075.177
47088.113
47103.779
47122.675
47145.373
47172.495
47204.814
47242.951
47287.757
47339.194
47395.14
47458.611
47475.226
47561.243
47106.34
47045.721
47037.76
47037.005
47037.973
47037.596
47037.003
47036.624
47036.216
47035.72
47035.193
47034.652
47034.089
47033.498
47032.875
47032.214
47031.514
47030.777
47030.009
47029.223
47028.434
47027.666
47026.948
47026.317
47025.819
47025.513
47025.466
47025.762
47026.499
47027.793
47029.775
47032.609
47036.454
47041.598
47048.34
47056.897
47067.472
47080.413
47096.123
47115.04
47137.599
47164.307
47195.389
47231.001
47270.467
47308.365
47351.927
47316.881
47389.13
46819.721
47044.886
47037.716
47037.213
47037.763
47037.245
47036.654
47036.218
47035.72
47035.145
47034.538
47033.903
47033.229
47032.51
47031.736
47030.9
47029.996
47029.025
47027.988
47026.894
47025.755
47024.587
47023.416
47022.27
47021.192
47020.23
47019.447
47018.916
47018.724
47018.976
47019.789
47021.31
47023.675
47027.152
47031.992
47038.359
47046.398
47056.384
47068.605
47083.346
47100.825
47121.253
47144.403
47169.693
47195.889
47213.495
47238.297
47145.62
47211.936
46555.339
47044.197
47037.844
47037.386
47037.546
47036.931
47036.335
47035.836
47035.262
47034.621
47033.943
47033.222
47032.447
47031.609
47030.696
47029.696
47028.601
47027.408
47026.116
47024.728
47023.251
47021.697
47020.083
47018.434
47016.782
47015.17
47013.649
47012.284
47011.15
47010.337
47009.944
47010.099
47010.915
47012.627
47015.439
47019.447
47024.734
47031.482
47039.845
47049.932
47061.71
47075.074
47089.271
47102.989
47114.753
47109.458
47118.621
46967.515
47033.918
46321.944
47043.517
47038.289
47037.488
47037.335
47036.651
47036.038
47035.479
47034.843
47034.147
47033.405
47032.608
47031.743
47030.796
47029.753
47028.601
47027.327
47025.926
47024.392
47022.724
47020.922
47018.994
47016.949
47014.806
47012.587
47010.327
47008.066
47005.858
47003.762
47001.853
47000.209
46998.932
46998.112
46997.942
46998.568
47000.012
47002.282
47005.446
47009.503
47014.363
47019.685
47025.075
47029.097
47029.893
47026.318
46994.908
46991.939
46784.491
46860.701
46127.245
47042.902
47038.988
47037.42
47037.145
47036.39
47035.758
47035.146
47034.46
47033.717
47032.919
47032.052
47031.104
47030.057
47028.894
47027.599
47026.157
47024.558
47022.793
47020.854
47018.739
47016.445
47013.977
47011.343
47008.558
47005.645
47002.632
46999.559
46996.468
46993.415
46990.453
46987.652
46985.08
46982.873
46981.106
46979.726
46978.65
46977.814
46977.033
46976.013
46974.025
46970.517
46963.231
46949.571
46931.656
46870.189
46865.363
46604.888
46689.225
46007.081
47429.421
47440.635
47408.53
47376.526
47339.954
47305.126
47271.023
47239.131
47209.512
47182.706
47158.394
47136.889
47117.683
47100.97
47086.188
47073.549
47062.662
47053.632
47046.075
47040.013
47035.156
47031.452
47028.688
47026.768
47025.537
47024.881
47024.681
47024.838
47025.259
47025.87
47026.604
47027.41
47028.241
47029.073
47029.867
47030.632
47031.318
47031.994
47032.56
47033.203
47033.705
47034.432
47034.955
47035.759
47036.155
47036.547
47036.576
47036.637
47037.648
47246.342
47261.975
47249.837
47245.507
47229.956
47214.469
47196.122
47177.431
47158.307
47139.986
47122.319
47106.248
47091.307
47078.255
47066.436
47056.397
47047.651
47040.572
47034.7
47030.175
47026.669
47024.192
47022.513
47021.556
47021.167
47021.243
47021.673
47022.367
47023.244
47024.236
47025.286
47026.353
47027.398
47028.404
47029.339
47030.217
47030.993
47031.737
47032.357
47033.034
47033.56
47034.296
47034.826
47035.644
47036.071
47036.519
47036.61
47036.844
47037.425
47093.704
47117.187
47116.334
47125.769
47123.357
47121.685
47115.602
47108.412
47099.251
47089.693
47079.362
47069.666
47059.959
47051.495
47043.457
47036.77
47030.77
47026.128
47022.323
47019.64
47017.714
47016.631
47016.158
47016.247
47016.757
47017.602
47018.685
47019.929
47021.264
47022.637
47024.001
47025.325
47026.58
47027.755
47028.827
47029.814
47030.678
47031.489
47032.16
47032.871
47033.42
47034.166
47034.699
47035.527
47035.98
47036.482
47036.627
47036.969
47036.78
46981.773
47006.852
47008.045
47025.333
47029.803
47036.671
47038.532
47039.788
47038.596
47036.728
47033.23
47029.873
47025.579
47022.057
47018.174
47015.268
47012.404
47010.547
47009.087
47008.481
47008.317
47008.769
47009.606
47010.817
47012.279
47013.929
47015.687
47017.493
47019.295
47021.052
47022.731
47024.311
47025.774
47027.117
47028.324
47029.418
47030.367
47031.246
47031.967
47032.713
47033.283
47034.039
47034.575
47035.409
47035.883
47036.434
47036.625
47037.044
47036.336
46889.239
46915.79
46918.511
46939.615
46946.575
46959.49
46966.982
46974.649
46979.651
46984.22
46986.651
46989.13
46989.956
46991.327
46991.629
46992.657
46993.098
46994.223
46995.274
46996.897
46998.619
47000.703
47002.924
47005.311
47007.763
47010.242
47012.691
47015.069
47017.342
47019.484
47021.476
47023.311
47024.979
47026.487
47027.827
47029.028
47030.062
47031.006
47031.777
47032.558
47033.15
47033.916
47034.452
47035.29
47035.781
47036.376
47036.611
47037.06
47036.458
46809.085
46837.151
46840.79
46864.886
46874.131
46890.787
46901.318
46914.021
46923.76
46933.684
46941.099
46948.809
46954.297
46960.314
46964.621
46969.559
46973.321
46977.508
46981.143
46985.076
46988.754
46992.528
46996.177
46999.772
47003.238
47006.561
47009.709
47012.663
47015.407
47017.933
47020.238
47022.324
47024.195
47025.866
47027.337
47028.642
47029.759
47030.769
47031.59
47032.407
47033.021
47033.797
47034.331
47035.171
47035.674
47036.306
47036.587
47037.061
47036.549
46737.614
46767.342
46771.116
46797.972
46808.333
46828.38
46841.816
46858.295
46871.341
46885.785
46897.253
46909.675
46919.357
46929.721
46937.759
46946.481
46953.473
46960.716
46966.934
46973.196
46978.853
46984.338
46989.434
46994.25
46998.736
47002.907
47006.755
47010.284
47013.496
47016.404
47019.017
47021.352
47023.423
47025.254
47026.854
47028.262
47029.461
47030.535
47031.405
47032.258
47032.895
47033.681
47034.213
47035.053
47035.562
47036.228
47036.554
47036.965
47036.379
46671.991
46703.613
46707.319
46736.997
46748.033
46771.267
46786.911
46806.635
46822.698
46840.893
46855.551
46872.262
46885.544
46900
46911.505
46923.845
46933.906
46944.129
46952.872
46961.431
46969.046
46976.23
46982.764
46988.795
46994.295
46999.307
47003.848
47007.944
47011.619
47014.901
47017.817
47020.396
47022.663
47024.652
47026.377
47027.886
47029.166
47030.303
47031.223
47032.112
47032.772
47033.569
47034.098
47034.935
47035.446
47036.143
47036.514
47036.807
47036.159
46610.748
46644.7
46648.265
46680.915
46692.44
46718.72
46735.875
46758.84
46777.36
46799.109
46817.029
46837.236
46853.352
46871.695
46886.372
46902.117
46915.021
46928.084
46939.23
46949.998
46959.506
46968.338
46976.271
46983.483
46989.971
46995.803
47001.018
47005.666
47009.791
47013.437
47016.647
47019.463
47021.921
47024.062
47025.91
47027.517
47028.876
47030.076
47031.045
47031.97
47032.653
47033.461
47033.987
47034.82
47035.329
47036.052
47036.468
47036.568
47035.731
46553.02
46589.466
46592.885
46628.727
46640.647
46670.014
46688.577
46714.651
46735.259
46760.355
46780.661
46804.425
46823.481
46845.197
46862.627
46881.528
46897.043
46912.77
46926.174
46939.032
46950.341
46960.744
46970.017
46978.362
46985.8
46992.419
46998.283
47003.463
47008.021
47012.019
47015.512
47018.557
47021.198
47023.487
47025.454
47027.156
47028.592
47029.853
47030.87
47031.831
47032.538
47033.358
47033.881
47034.708
47035.21
47035.955
47036.411
47036.43
47036.143
46497.599
46536.844
46539.999
46579.416
46591.69
46624.316
46644.152
46673.399
46695.859
46724.244
46746.777
46773.935
46795.427
46820.387
46840.303
46862.15
46880.051
46898.263
46913.775
46928.593
46941.598
46953.485
46964.029
46973.451
46981.793
46989.164
46995.649
47001.338
47006.311
47010.646
47014.412
47017.676
47020.495
47022.926
47025.008
47026.802
47028.313
47029.633
47030.698
47031.695
47032.426
47033.259
47033.78
47034.601
47035.09
47035.854
47036.34
47036.371
47036.629
46443.589
46486.454
46489.162
46532.59
46545.23
46581.35
46602.362
46634.944
46659.05
46690.767
46715.251
46745.71
46769.379
46797.433
46819.565
46844.161
46864.213
46884.717
46902.168
46918.796
46933.374
46946.639
46958.369
46968.798
46977.988
46986.066
46993.137
46999.306
47004.672
47009.327
47013.353
47016.827
47019.815
47022.382
47024.575
47026.458
47028.041
47029.419
47030.531
47031.563
47032.319
47033.166
47033.685
47034.5
47034.972
47035.749
47036.255
47036.338
47036.826
46390.98
46438.544
46440.59
46488.404
46501.38
46541.263
46563.303
46599.444
46624.98
46660.136
46686.318
46720.033
46745.567
46776.582
46800.653
46827.797
46849.751
46872.336
46891.53
46909.793
46925.796
46940.309
46953.12
46964.468
46974.437
46983.166
46990.777
46997.392
47003.124
47008.077
47012.345
47016.016
47019.164
47021.861
47024.157
47026.125
47027.777
47029.211
47030.369
47031.436
47032.216
47033.079
47033.597
47034.405
47034.859
47035.642
47036.159
47036.306
47036.893
46340.481
46392.778
46394.141
46446.669
46460.02
46503.887
46526.885
46566.798
46593.601
46632.281
46659.951
46696.869
46724.033
46757.854
46783.628
46813.101
46836.738
46861.185
46881.929
46901.64
46918.914
46934.54
46948.318
46960.492
46971.163
46980.481
46988.583
46995.606
47001.673
47006.901
47011.394
47015.248
47018.545
47021.363
47023.758
47025.806
47027.524
47029.011
47030.213
47031.314
47032.119
47032.997
47033.517
47034.319
47034.753
47035.536
47036.054
47036.266
47036.916
46291.122
46348.837
46349.467
46407.011
46420.817
46468.978
46492.878
46536.873
46564.716
46607.05
46635.992
46676.123
46704.685
46741.201
46768.453
46800.062
46825.173
46851.274
46873.38
46894.355
46912.748
46929.347
46943.978
46956.882
46968.176
46978.02
46986.564
46993.954
47000.325
47005.804
47010.503
47014.526
47017.96
47020.89
47023.378
47025.501
47027.282
47028.819
47030.064
47031.198
47032.029
47032.922
47033.446
47034.243
47034.656
47035.433
47035.942
47036.219
47036.907
46242.644
46306.943
46306.936
46369.569
46383.869
46436.774
46461.379
46509.796
46538.409
46584.554
46614.534
46657.928
46687.641
46726.756
46755.24
46788.795
46815.162
46842.694
46865.968
46888.014
46907.362
46924.789
46940.149
46953.678
46965.51
46975.81
46984.739
46992.452
46999.093
47004.796
47009.68
47013.855
47017.415
47020.448
47023.021
47025.213
47027.052
47028.637
47029.922
47031.088
47031.944
47032.854
47033.384
47034.177
47034.569
47035.336
47035.829
47036.164
47036.863
46196.958
46266.517
46266.397
46334.622
46349.26
46407.55
46432.253
46485.468
46514.746
46564.933
46595.713
46642.432
46673.022
46714.639
46744.102
46779.396
46806.795
46835.521
46859.763
46882.681
46902.812
46920.912
46936.871
46950.916
46963.194
46973.876
46983.13
46991.119
46997.991
47003.888
47008.934
47013.244
47016.915
47020.041
47022.691
47024.946
47026.839
47028.467
47029.791
47030.986
47031.868
47032.794
47033.33
47034.122
47034.495
47035.248
47035.719
47036.102
47036.788
46153.7
46226.55
46227.274
46302.193
46316.78
46381.063
46405.282
46463.708
46493.783
46548.248
46579.577
46629.666
46660.851
46704.843
46735.066
46771.858
46800.086
46829.755
46854.776
46878.365
46899.112
46917.732
46934.158
46948.609
46961.241
46972.229
46981.747
46989.963
46997.028
47003.088
47008.272
47012.697
47016.465
47019.672
47022.39
47024.701
47026.643
47028.31
47029.67
47030.893
47031.799
47032.741
47033.287
47034.078
47034.435
47035.174
47035.618
47036.037
47036.685
46109.03
46190.689
46189.949
46272.53
46286.011
46356.915
46381.414
46445.245
46475.681
46534.706
46566.177
46619.729
46651.184
46697.377
46728.169
46766.176
46795.057
46825.421
46851.021
46875.081
46896.275
46915.263
46932.024
46946.768
46959.664
46970.883
46980.601
46988.993
46996.21
47002.401
47007.698
47012.219
47016.07
47019.345
47022.122
47024.482
47026.467
47028.169
47029.562
47030.809
47031.741
47032.697
47033.255
47034.046
47034.392
47035.115
47035.531
47035.972
47036.567
46067.281
46156.996
46154.423
46246.165
46257.527
46335.551
46361.143
46430.515
46460.575
46524.585
46555.652
46612.676
46644.203
46692.279
46723.448
46762.379
46791.749
46822.564
46848.528
46872.853
46894.324
46913.527
46930.491
46945.417
46958.482
46969.852
46979.707
46988.222
46995.55
47001.84
47007.222
47011.818
47015.734
47019.065
47021.891
47024.292
47026.314
47028.046
47029.468
47030.738
47031.692
47032.662
47033.232
47034.028
47034.362
47035.077
47035.463
47035.91
47036.448
46027.059
46125.744
46121.302
46222.94
46232.419
46318.143
46343.905
46419.535
46448.622
46517.916
46548.243
46608.378
46640.013
46689.69
46720.778
46760.61
46790.131
46821.192
46847.305
46871.691
46893.271
46912.54
46929.575
46944.573
46957.705
46969.151
46979.078
46987.664
46995.059
47001.412
47006.852
47011.502
47015.465
47018.838
47021.701
47024.136
47026.187
47027.944
47029.391
47030.68
47031.653
47032.642
47033.216
47034.029
47034.343
47035.063
47035.416
47035.857
47036.344
45988.261
46098.043