/*--------------------------------*- C++ -*----------------------------------*\
| =========                 |                                                 |
| \\      /  F ield         | OpenFOAM: The Open Source CFD Toolbox           |
|  \\    /   O peration     | Version:  2506                                  |
|   \\  /    A nd           | Website:  www.openfoam.com                      |
|    \\/     M anipulation  |                                                 |
\*---------------------------------------------------------------------------*/
FoamFile
{
    version     2.0;
    format      ascii;
    arch        "LSB;label=32;scalar=64";
    class       volScalarField;
    location    "1.3";
    object      k;
}
// * * * * * * * * * * * * * * * * * * * * * * * * * * * * * * * * * * * * * //

dimensions      [0 2 -2 0 0 0 0];

internalField   nonuniform List<scalar> 
1375
(
7.6431589
7.6032394
7.5668916
7.5340669
7.5048459
7.4792175
7.4569886
7.4380392
7.4244915
7.4128125
7.4139611
7.4189362
7.4292286
7.4454577
7.4684464
7.4998093
7.5415283
7.5965672
7.6695184
7.769447
7.8910754
8.0299494
8.194295
8.4267633
9.0472075
9.3539084
11.720358
11.196134
10.74641
10.360276
10.026316
9.7352662
9.4800347
9.2549816
9.0556241
8.8783088
8.7200371
8.5783528
8.4511304
8.3366076
8.2331948
8.139624
8.0548834
7.9779538
7.9079721
7.8443053
7.7862789
7.7334146
7.6853051
7.6415414
7.6016987
7.565418
7.532632
7.5033808
7.4776678
7.4553202
7.4362085
7.4224256
7.4100884
7.4107991
7.4155427
7.4256696
7.4417029
7.4644624
7.495477
7.5367225
7.5910905
7.6631915
7.7617592
7.8839091
8.0236495
8.1885229
8.4185682
9.0296068
9.3502435
11.716107
11.186567
10.733518
10.345369
10.010294
9.7188091
9.4635823
9.2388181
9.0399624
8.863328
8.7058497
8.5649898
8.4385887
8.3248689
8.2222412
8.1294329
8.0454242
7.9691742
7.8998283
7.8367638
7.7793068
7.7269784
7.6793597
7.6360481
7.596601
7.5606759
7.5282083
7.499223
7.4737154
7.4515176
7.4325163
7.4187687
7.4062146
7.4067185
7.4114043
7.4214598
7.4373635
7.4600057
7.4908252
7.5316138
7.5857282
7.6568951
7.7543496
7.8776996
8.0189653
8.1852012
8.4153553
9.0107952
9.3446915
11.709036
11.170444
10.711689
10.32014
9.9832579
9.6910685
9.4359229
9.211723
9.0138029
8.8383102
8.6821024
8.5425649
8.4175075
8.3051163
8.2037858
8.112238
8.0294405
7.9543213
7.886063
7.8240406
7.7675795
7.7161913
7.6694385
7.6269258
7.5881933
7.5529405
7.5211264
7.4927929
7.4679133
7.4463295
7.427994
7.4149171
7.4033222
7.4043829
7.4095382
7.4199404
7.4361595
7.4590658
7.4901773
7.5315747
7.5852757
7.6578413
7.7550791
7.877118
8.017533
8.1839721
8.4129009
9.0102793
9.3424624
11.699211
11.147819
10.681098
10.284925
9.9457466
9.6527674
9.3977935
9.1745082
8.9779449
8.8040445
8.6495629
8.5118315
8.3886261
8.2780744
8.1785373
8.0887304
8.0075849
7.9340072
7.8672488
7.8066559
7.7515413
7.70141
7.6558374
7.6144355
7.576721
7.5424422
7.5115669
7.4841567
7.4601527
7.4394282
7.4220734
7.4098911
7.3999581
7.4018255
7.4078931
7.4190915
7.4362113
7.4600256
7.4919781
7.5336118
7.5896331
7.6614552
7.761977
7.8831598
8.0220823
8.1865363
8.415307
9.0233208
9.3449197
11.686673
11.11881
10.64209
10.240248
9.8983331
9.604537
9.349999
9.1279941
8.9332146
8.7613839
8.6091197
8.4736945
8.3528367
8.2446067
8.1473277
8.0597089
7.9806241
7.9089757
7.8440759
7.7852296
7.7317781
7.6832264
7.6391403
7.5991039
7.5626279
7.5295416
7.4998361
7.4735826
7.4506485
7.4309689
7.4147502
7.4035969
7.3956122
7.3983825
7.4056519
7.4179298
7.4360168
7.4610333
7.4939119
7.537502
7.5940642
7.6697237
7.769805
7.8923969
8.0312848
8.1942888
8.4228272
9.0343739
9.3507862
11.671521
11.083572
10.594955
10.186714
9.841899
9.5474242
9.2936855
9.0733984
8.8808667
8.7115956
8.5620424
8.4293922
8.3113231
8.2058217
8.111188
8.0261109
7.9494073
7.8800191
7.8173035
7.7605064
7.7089821
7.6622366
7.6198513
7.5813684
7.5463244
7.5146227
7.4862447
7.4612648
7.4395089
7.4209836
7.4060156
7.3959444
7.3901081
7.3940569
7.4026402
7.4162879
7.4356566
7.4617971
7.4961412
7.5417972
7.599181
7.6751675
7.7757544
7.9022835
8.0426752
8.2059661
8.434565
9.0568854
9.361049
11.653742
11.042225
10.540011
10.124779
9.7771254
9.4823826
9.2299367
9.0119087
8.8221317
8.6558828
8.5095345
8.3801094
8.2652135
8.162793
8.0711424
7.9889119
7.914892
7.8480586
7.7877586
7.7332193
7.6838179
7.6390637
7.5985256
7.5617315
7.5282885
7.4981286
7.4712442
7.4476589
7.4271701
7.4099471
7.3964524
7.3874064
7.3842911
7.3892358
7.3991162
7.4143322
7.4352699
7.4629594
7.4987649
7.544454
7.6053322
7.6832572
7.7944117
7.9193142
8.057636
8.2203109
8.4467408
9.0884937
9.3754591
11.633307
10.994983
10.47803
10.055687
9.7053803
9.4107816
9.1601305
8.9448129
8.7583191
8.5955826
8.4528623
8.327066
8.2157055
8.1166935
8.0282895
7.9491481
7.8780324
7.8139418
7.7562259
7.7041125
7.6569812
7.6143939
7.575879
7.5408861
7.5091282
7.480598
7.4553255
7.4332531
7.4141869
7.3983603
7.3865026
7.3779373
7.3784817
7.3842569
7.3955104
7.4122548
7.4349523
7.4633493
7.5022061
7.5500748
7.6107552
7.6912905
7.8008162
7.9325792
8.0746383
8.2366455
8.465765
9.1319358
9.3956546
11.610022
10.941651
10.409053
9.9798762
9.6276639
9.3339205
9.0857165
8.8736806
8.690921
8.5321744
8.3934516
8.2715684
8.1640135
8.0686219
7.9836553
7.9077692
7.8396981
7.7784882
7.7234808
7.6739468
7.6292316
7.588832
7.5522451
7.5190855
7.4891623
7.4623994
7.4388392
7.4182942
7.4006534
7.3863069
7.3761451
7.3689384
7.3714222
7.379306
7.3921566
7.410368
7.4342365
7.4670719
7.5043208
7.554499
7.6203377
7.7051572
7.8114345
7.9454954
8.0915493
8.2564822
8.4863308
9.1722935
9.4202903
11.583758
10.882861
10.334292
9.8987114
9.5453469
9.2532597
9.0081387
8.7999745
8.6213883
8.4669604
8.3325011
8.2147667
8.1112054
8.0195796
7.9382076
7.8656646
7.8006968
7.7424607
7.6902721
7.6433287
7.6009652
7.5627667
7.5282926
7.4971419
7.4690702
7.4440799
7.422146
7.4030824
7.3869872
7.3741591
7.3656409
7.3606223
7.3642731
7.3741904
7.3888573
7.4088088
7.435513
7.4664497
7.5109262
7.5609914
7.626091
7.711422
7.8247366
7.9624299
8.1102084
8.2764299
8.5123195
9.2462226
9.4532665
11.554254
10.818685
10.254415
9.8134464
9.4598695
9.170216
8.9288016
8.7249667
8.5509607
8.401159
8.2712076
8.1577719
8.0582859
7.9705295
7.8927992
7.8236275
7.761798
7.7065614
7.6571537
7.6127789
7.5728952
7.5369801
7.5045365
7.475314
7.4490213
7.4257497
7.4055476
7.3881083
7.3734834
7.3621855
7.3554307
7.3527004
7.357488
7.3692579
7.3860079
7.4079687
7.4346569
7.4721185
7.5115948
7.5677386
7.6413452
7.7249394
7.8442098
7.9808708
8.1305928
8.2998719
8.5369307
9.3082488
9.493089
11.521681
10.750009
10.17072
9.725402
9.3726151
9.0861606
8.8490571
8.6499777
8.4808223
8.3358398
8.2105173
8.1014774
8.0060718
7.9222041
7.8480685
7.7822443
7.7235769
7.6713153
7.6246951
7.5828768
7.5453315
7.5115372
7.4810537
7.4536465
7.4291845
7.4078206
7.3891792
7.3730654
7.3600039
7.350508
7.3450409
7.3452758
7.3511828
7.3645949
7.3832794
7.4071121
7.4374074
7.4714052
7.5215824
7.5805214
7.6430639
7.738647
7.8558921
8.0000859
8.1530885
8.3250433
8.5761736
9.418459
9.5444783
11.485572
10.676863
10.083953
9.6358214
9.2849523
9.0023975
8.770095
8.5760665
8.4119605
8.2718737
8.1512022
8.0465821
7.955243
7.87521
7.8046073
7.7420441
7.6865186
7.6371499
7.5931831
7.5538534
7.5184995
7.486729
7.4583515
7.4329031
7.4101107
7.3902832
7.3731542
7.3586672
7.347164
7.3392402
7.3352546
7.3374817
7.3455498
7.3603839
7.3813202
7.4072541
7.4368455
7.4777544
7.5220195
7.5819084
7.6685625
7.7549209
7.8706733
8.0204593
8.1792526
8.3558533
8.6091569
9.5340598
9.60994
11.446165
10.600112
9.9952413
9.5459074
9.1980447
8.9200821
8.6929664
8.5041889
8.3452385
8.2100372
8.0939645
7.9936765
7.9063199
7.830017
7.762822
7.7034338
7.6509432
7.6043508
7.562891
7.5259946
7.4927859
7.4629377
7.4364747
7.4128199
7.3916779
7.3734802
7.3579706
7.3448765
7.3347294
7.3284368
7.3262283
7.3301107
7.3401914
7.3569687
7.379871
7.4063762
7.4409164
7.4792269
7.5334819
7.6029619
7.6652172
7.7674243
7.8988854
8.0471765
8.2065175
8.3885023
8.66586
9.6723943
9.6934567
11.404875
10.521977
9.9065359
9.4572012
9.1131415
8.8402638
8.6185964
8.4351428
8.2813084
8.1508872
8.0393337
7.9432353
7.859753
7.7869782
7.723044
7.6667304
7.6170682
7.5731137
7.5341464
7.4994047
7.4681552
7.4403054
7.4156158
7.3935782
7.3741175
7.3574242
7.3432695
7.3314511
7.3228828
7.3183224
7.3178568
7.322785
7.3353075
7.3543298
7.3780372
7.4073854
7.4426024
7.4830024
7.533594
7.6002381
7.6951681
7.8023116
7.9147624
8.0665972
8.2435807
8.4318553
8.7248021
9.8812505
9.8061095
11.358501
10.440146
9.8175871
9.3701449
9.0307792
8.7634183
8.5473419
8.3692404
8.2204699
8.0947132
7.9875619
7.8954307
7.8156693
7.7462558
7.6853972
7.6320093
7.5850493
7.543597
7.506831
7.4741408
7.4447707
7.4187376
7.3956844
7.3752121
7.3574519
7.3420729
7.3288611
7.3184608
7.3119607
7.3086841
7.3096731
7.3160998
7.3312778
7.3519829
7.376941
7.408744
7.4439297
7.487459
7.5474192
7.6241955
7.6901599
7.8186051
7.9540333
8.105711
8.272155
8.4781888
8.7851143
10.03883
9.9497109
11.317486
10.364702
9.7337582
9.2879523
8.9533142
8.691398
8.4806833
8.3077044
8.1636919
8.0422896
7.9392052
7.8508296
7.7744726
7.708172
7.6501817
7.5994817
7.5549883
7.5158414
7.4811197
7.4502789
7.4226963
7.3984525
7.3769604
7.3577341
7.341414
7.3274191
7.3152781
7.3063597
7.3016393
7.2991364
7.3011012
7.3095096
7.3277155
7.349904
7.3769692
7.4093752
7.4476955
7.4957191
7.5501983
7.6230308
7.7286892
7.8519518
7.9553898
8.1257357
8.3235734
8.5386673
8.8259389
10.18051
10.136166
11.240355
10.262286
9.6401696
9.2024081
8.8749072
8.6196585
8.4150313
8.2475705
8.108544
7.9916469
7.8926437
7.8079264
7.7349398
7.6716808
7.6164942
7.5683839
7.5262308
7.4891939
7.4563667
7.4273296
7.4014924
7.3787508
7.3588204
7.3411669
7.3258486
7.3130879
7.3024051
7.294658
7.2913333
7.2898496
7.2930969
7.3037039
7.3245446
7.3485733
7.376543
7.4111608
7.4494794
7.4999139
7.5587511
7.6417038
7.736576
7.8755645
7.9960427
8.1830079
8.3649726
8.6145693
8.9196245
10.485475
10.379615
11.258785
10.230455
9.5863008
9.1451134
8.8187877
8.5661108
8.3645386
8.2002623
8.0643746
7.9505031
7.8543552
7.7722857
7.7017129
7.6407107
7.5876797
7.5415491
7.5012816
7.4658981
7.4346067
7.4069468
7.3825714
7.3610236
7.3422234
7.3257896
7.311392
7.2996505
7.2902856
7.2838584
7.2813192
7.2808756
7.2847315
7.2972216
7.3205967
7.3467155
7.3768322
7.4103254
7.4575592
7.5083624
7.5743439
7.6521466
7.7809062
7.9204563
8.0399331
8.1816398
8.433821
8.7237004
8.9285303
10.520537
10.684582
10.990296
10.68404
9.1242465
8.7938833
8.4550806
8.2183945
8.0774342
7.9867887
7.8061563
7.6894575
7.5957531
7.5229714
7.4638435
7.4171018
7.3784027
7.3483866
7.3208328
7.2944744
7.2783204
7.2725363
7.2717975
7.2725232
7.2772839
7.2852111
7.2956826
7.3090398
7.3238961
7.3412454
7.3610928
7.3836997
7.409494
7.4386901
7.4718018
7.5095062
7.5528225
7.602682
7.6602631
7.7269768
7.8046278
7.89575
8.0038095
8.1330222
8.2894629
8.4816956
8.7229965
9.034977
9.4572434
10.076369
11.069054
11.278
10.855468
9.1875105
8.8701105
8.5842512
8.3121641
8.1593143
8.0270263
7.8072441
7.7140528
7.5973125
7.5309801
7.4711438
7.4230308
7.3821481
7.3490814
7.3207236
7.2924392
7.2722791
7.26398
7.2624884
7.2615673
7.2647669
7.2710243
7.280388
7.2923563
7.3057509
7.321608
7.3398438
7.3607139
7.3845627
7.4116151
7.4424335
7.4776587
7.5181042
7.5647672
7.6188998
7.6817064
7.7549376
7.8410384
7.9432758
8.0657544
8.2143088
8.397141
8.6269576
8.9244584
9.3274951
9.9193511
10.869919
11.613958
10.944163
9.3240695
9.1147678
8.6324917
8.388661
8.1530247
8.0942357
7.8438638
7.723883
7.607459
7.5402629
7.4785036
7.428509
7.3855017
7.3503342
7.3205963
7.2894351
7.2658788
7.2556316
7.2534679
7.2510683
7.2524751
7.2573134
7.2653169
7.2759753
7.2881211
7.3024955
7.3190396
7.3382944
7.3603993
7.3854588
7.4141792
7.446899
7.4847192
7.5283637
7.5791594
7.6382492
7.707315
7.788713
7.8854819
8.001649
8.1428413
8.3168776
8.5359212
8.8198993
9.2050026
9.7709337
10.681564
11.982074
11.101761
9.3348101
9.1886799
8.6289437
8.4815223
8.1807672
8.1677487
7.9055467
7.7491659
7.6343804
7.5571117
7.4916049
7.4368768
7.3897396
7.3526854
7.3208475
7.2894337
7.2626873
7.2488735
7.2440448
7.2405376
7.2407581
7.2436261
7.2506026
7.2599643
7.2707677
7.2840161
7.2989945
7.316628
7.3369568
7.3601442
7.3868057
7.417282
7.4526386
7.4934053
7.541055
7.5966317
7.6618106
7.7387912
7.83048
7.9407659
8.0750573
8.2409202
8.4499775
8.7213856
9.0899609
9.6321261
10.50672
12.376208
11.019509
9.3580221
9.2167506
8.6475712
8.5175609
8.1781926
8.1620333
7.9683685
7.7825988
7.6477895
7.5680334
7.4946967
7.4414564
7.394451
7.3543426
7.321458
7.2890154
7.2583575
7.2409749
7.2329798
7.2298604
7.2291304
7.2308225
7.2363279
7.2441258
7.2543439
7.2661726
7.2800615
7.295621
7.3143628
7.3356197
7.3603309
7.3887659
7.4217479
7.4598773
7.5045308
7.5568122
7.6183673
7.6911752
7.7781264
7.8829054
8.0107585
8.1690222
8.3687924
8.6285554
8.9818677
9.5022575
10.34387
12.81159
11.002624
9.4211928
9.2845306
8.686984
8.5380542
8.2346945
8.1715207
7.9730912
7.8269839
7.678498
7.5829983
7.5091686
7.44724
7.3985454
7.3569735
7.3202977
7.2857546
7.2532417
7.234334
7.2235895
7.2206699
7.2183014
7.218547
7.22247
7.2294022
7.238105
7.2484492
7.2611242
7.2751374
7.2923868
7.3119196
7.3348907
7.3612354
7.3919599
7.4276731
7.4695579
7.5187608
7.5768066
7.6457449
7.7282552
7.8278684
7.9497449
8.1009431
8.2920771
8.541065
8.8802358
9.3805687
10.192341
8.7492716
8.6721257
8.3442738
8.259464
8.0060096
7.8623009
7.6814675
7.6221377
7.5227408
7.4617981
7.4075894
7.3602342
7.3240331
7.2878495
7.2547477
7.2286814
7.2154715
7.2101488
7.2081497
7.2056829
7.2086624
7.2142332
7.2216678
7.2312644
7.2425228
7.2552384
7.2708712
7.2889477
7.3102246
7.3348035
7.3633171
7.3966726
7.4360005
7.4822406
7.5370267
7.6023407
7.680693
7.77552
7.8918088
8.036374
8.2195278
8.4585489
8.7846484
9.2663734
10.051077
7.5321443
7.4704149
7.4113498
7.363988
7.3241301
7.285502
7.2513061
7.2223408
7.2029709
7.1991856
7.1959911
7.1952565
7.1949177
7.1992455
7.206172
7.2147874
7.2254806
7.2360618
7.2501924
7.266698
7.2863769
7.3091977
7.3356562
7.3668303
7.4037286
7.4471956
7.4989285
7.560819
7.6352965
7.7256459
7.8366669
7.9750709
8.1508041
8.3805644
8.6945765
9.1592628
9.9190613
7.1857633
7.1836241
7.1825348
7.185672
7.1909422
7.1982732
7.208125
7.2175544
7.2301519
7.2452219
7.2632751
7.2843132
7.3089244
7.3380702
7.3726253
7.4135189
7.4624056
7.5211112
7.5919306
7.6780767
7.7842493
7.9168799
8.0856517
8.306802
8.6096527
9.0584786
9.7959017
7.2831428
7.3103151
7.3426502
7.3811456
7.427385
7.4830921
7.5504802
7.6326885
7.7343244
7.8615494
8.0238297
8.2370108
8.5295068
8.9636711
9.680178
)
;

boundaryField
{
    Side
    {
        type            empty;
    }
    Inlet
    {
        type            turbulentIntensityKineticEnergyInlet;
        intensity       0.03;
        value           nonuniform List<scalar> 
29
(
12.004658
12.004087
12.003256
12.002308
12.001408
12.000696
12.000232
11.999994
11.999825
11.999609
11.999489
11.999623
11.999313
11.999177
11.999315
11.999286
11.999646
12.000301
12.001031
12.003082
12.008345
12.012083
12.015872
12.016046
12.014941
12.014651
12.015676
12.017169
12.017899
)
;
    }
    Airfoil
    {
        type            kqRWallFunction;
        value           nonuniform List<scalar> 
26
(
9.3539084
9.3502435
9.3446915
9.3424624
9.3449197
9.3507862
9.361049
9.3754591
9.3956546
9.4202903
9.4532665
9.493089
9.5444783
9.60994
9.6934567
9.8061095
9.9497109
10.136166
10.379615
10.684582
10.990296
11.278
11.613958
11.982074
12.376208
12.81159
)
;
    }
    Outlet
    {
        type            inletOutlet;
        inletValue      nonuniform List<scalar> 0();
        value           nonuniform List<scalar> 0();
    }
    procBoundary0to1
    {
        type            processor;
        value           nonuniform List<scalar> 
53
(
13.296099
11.069016
9.5887541
9.4336169
9.4336169
8.8118019
8.7346083
8.3476396
8.2605961
8.0090933
7.8946512
7.7172617
7.6362665
7.6362665
7.5542396
7.4722312
7.4154086
7.3642027
7.3218018
7.2831834
7.245717
7.2159674
7.2001128
7.1897825
7.1897825
7.1772211
7.1699577
7.1710768
7.1720194
7.1756571
7.1822183
7.1904342
7.1992609
7.2104735
7.2243919
7.2407962
7.2603627
7.2603627
7.2582292
7.2835069
7.3137479
7.3500128
7.3937878
7.4466524
7.5108072
7.5893352
7.686708
7.8088974
7.965134
8.1708887
8.4537804
8.8742962
9.5721747
)
;
    }
    procBoundary0to7
    {
        type            processor;
        value           nonuniform List<scalar> 
50
(
7.6416334
7.6017818
7.5654743
7.5326722
7.5034912
7.4778686
7.4556039
7.4365972
7.4229606
7.4109466
7.4117574
7.4165455
7.4266801
7.4426987
7.4653683
7.4962775
7.5374193
7.5916647
7.6634882
7.7620421
7.8840419
8.0236722
8.1884438
8.4186308
9.0289596
9.3498883
11.721742
11.199147
10.750377
10.364753
10.03101
9.7400307
9.4846752
9.2594125
9.0598359
8.8823424
8.7238936
8.5820121
8.4545725
8.3398134
8.236157
8.1423519
8.0573956
7.9802866
7.9101626
7.8463659
7.7882094
7.7352258
7.687014
7.687014
)
;
    }
}


// ************************************************************************* //
