/*--------------------------------*- C++ -*----------------------------------*\
| =========                 |                                                 |
| \\      /  F ield         | OpenFOAM: The Open Source CFD Toolbox           |
|  \\    /   O peration     | Version:  2506                                  |
|   \\  /    A nd           | Website:  www.openfoam.com                      |
|    \\/     M anipulation  |                                                 |
\*---------------------------------------------------------------------------*/
FoamFile
{
    version     2.0;
    format      ascii;
    arch        "LSB;label=32;scalar=64";
    class       volScalarField;
    location    "1.3";
    object      p;
}
// * * * * * * * * * * * * * * * * * * * * * * * * * * * * * * * * * * * * * //

dimensions      [1 -1 -2 0 0 0 0];

internalField   nonuniform List<scalar> 
1375
(
47091.994
47099.32
47105.611
47112.361
47121.299
47133.408
47147.584
47162.315
47178.281
47197.932
47222.653
47251.281
47282.566
47318.174
47359.901
47407.925
47463.375
47528.847
47606.673
47702.307
47825.208
47985.833
48198.26
48487.324
48896.88
49469.052
47073.695
47057.096
47045.018
47041.163
47043.474
47045.786
47047.201
47048.29
47048.026
47048.206
47049.102
47050.888
47053.032
47054.658
47056.554
47058.912
47061.333
47063.978
47067.694
47072.084
47075.012
47078.691
47084.784
47091.941
47099.306
47105.413
47111.569
47120.686
47133.507
47147.808
47162.052
47177.483
47197.324
47222.307
47250.581
47281.671
47317.524
47359.524
47407.544
47462.584
47527.548
47605.528
47701.84
47825.006
47984.935
48196.021
48483.558
48890.625
49460.147
47072.999
47056.383
47046.27
47042.125
47043.465
47045.551
47046.863
47047.778
47048.287
47048.115
47048.946
47050.878
47052.949
47054.409
47056.078
47058.258
47060.76
47063.531
47067.196
47071.321
47073.976
47077.75
47083.85
47090.929
47098.187
47103.971
47109.568
47118.992
47132.403
47146.56
47160.137
47175.143
47195.308
47220.353
47248.012
47278.693
47314.621
47356.725
47404.404
47458.726
47522.957
47600.828
47697.402
47820.14
47978.23
48186.216
48469.431
48868.855
49428.052
47071.638
47056.014
47045.131
47042.957
47044.14
47045.723
47046.756
47047.125
47047.733
47047.871
47048.669
47050.771
47052.729
47053.797
47055.256
47057.355
47059.867
47062.585
47066.118
47069.855
47072.125
47075.915
47081.893
47088.836
47095.853
47101.203
47106.488
47116.342
47129.866
47143.371
47156.058
47170.819
47191.203
47215.698
47242.393
47272.504
47308.19
47349.904
47396.636
47449.729
47512.874
47590.063
47685.849
47806.681
47961.35
48164.03
48440.128
48827.327
49365.354
47069.944
47054.911
47044.592
47043.599
47045.036
47046.366
47047.056
47047.041
47047.54
47047.446
47048.185
47050.264
47051.93
47052.631
47053.906
47055.896
47058.329
47061.013
47064.502
47067.807
47069.775
47073.594
47079.486
47086.234
47092.805
47097.558
47102.644
47112.811
47125.978
47138.45
47150.244
47164.971
47185.202
47208.44
47234.048
47263.572
47298.675
47339.402
47384.486
47436.223
47497.921
47573.63
47667.934
47785.054
47935.05
48132.157
48395.699
48767.245
49274.93
47067.96
47053.651
47044.421
47043.931
47045.932
47047.059
47047.348
47047.373
47047.234
47047.071
47047.842
47049.655
47050.808
47051.212
47052.371
47054.228
47056.64
47059.366
47062.782
47065.58
47067.383
47071.226
47076.967
47083.209
47089.024
47092.936
47097.905
47108.243
47120.815
47132.204
47143.227
47158.024
47177.542
47199.108
47223.779
47252.721
47286.983
47326.113
47369.325
47419.322
47479.393
47553.699
47644.797
47757.427
47902.13
48090.77
48342.228
48689.81
49158.041
47065.747
47052.48
47044.237
47044.085
47046.01
47047.212
47047.207
47047.182
47046.809
47046.811
47047.681
47049.23
47049.627
47049.876
47051.133
47053.01
47055.35
47057.894
47060.928
47063.029
47064.709
47068.492
47073.904
47079.375
47084.245
47087.312
47092.487
47102.864
47114.605
47124.831
47135.326
47150.064
47168.244
47188.089
47212.103
47240.486
47273.438
47310.421
47351.831
47399.986
47458.749
47530.398
47616.997
47725.675
47864.091
48043.476
48280.685
48603.121
49019.255
47063.91
47051.62
47044.648
47044.276
47045.7
47046.693
47046.639
47046.466
47046.213
47046.265
47047.263
47048.561
47048.44
47048.776
47049.933
47051.747
47053.913
47056.135
47058.403
47059.72
47061.319
47065.106
47070.251
47074.924
47078.698
47081.107
47086.681
47096.793
47107.431
47116.483
47126.723
47140.981
47157.334
47175.747
47199.359
47226.989
47257.979
47292.876
47332.238
47378.994
47435.59
47503.7
47585.814
47689.084
47819.974
47991.648
48212.123
48495.698
48857.689
47061.618
47049.955
47044.073
47043.795
47044.749
47045.177
47045.81
47045.759
47045.482
47045.603
47046.627
47047.441
47046.908
47047.349
47048.438
47050.181
47052.108
47053.983
47055.579
47056.173
47057.697
47061.559
47066.443
47070.194
47072.86
47074.872
47080.609
47090.063
47099.432
47107.531
47117.524
47130.686
47145.024
47162.518
47185.83
47212.182
47240.925
47273.585
47310.993
47356.24
47409.102
47473.567
47551.33
47647.025
47773.836
47932.321
48135.807
48381.268
48670.178
47059.845
47049.245
47043.687
47043.604
47044.574
47043.799
47044.667
47044.887
47044.608
47044.767
47045.632
47045.764
47045.177
47045.669
47046.695
47048.431
47050.223
47051.452
47052.348
47052.449
47054.154
47058.121
47062.45
47065.168
47067.08
47068.915
47074.33
47082.825
47090.855
47098.205
47107.571
47119.105
47131.695
47148.776
47171.7
47196.133
47222.297
47252.401
47288.152
47330.283
47380.55
47439.52
47512.614
47602.497
47723.459
47870.39
48044.103
48252.453
48462.257
47057.81
47048.972
47043.8
47044.153
47044.988
47043.549
47043.604
47043.711
47043.394
47043.998
47044.557
47044.039
47043.82
47044.202
47045.219
47046.735
47048.204
47048.711
47048.793
47048.702
47050.721
47054.52
47058.009
47059.875
47061.387
47063.097
47067.798
47075.273
47082.017
47088.537
47096.786
47106.529
47117.964
47135
47156.906
47178.925
47202.162
47230.198
47263.919
47303.124
47350.356
47404.294
47469.689
47557.775
47666.708
47803.65
47953.71
48108.973
48226.189
47056.999
47047.475
47042.381
47042.716
47043.89
47043.078
47042.346
47042.388
47042.335
47042.66
47042.946
47042.502
47042.718
47043.226
47043.596
47044.791
47045.589
47045.858
47045.393
47045.119
47047.294
47050.867
47053.2
47054.229
47055.28
47056.961
47060.98
47067.476
47072.99
47078.286
47085.27
47093.562
47104.329
47121.235
47141.331
47160.197
47180.537
47206.846
47238.609
47274.892
47315.84
47367.977
47426.491
47508.69
47606.691
47723.732
47857.521
47963.092
47971.234
47055.801
47045.623
47041.047
47041.24
47042.03
47042.011
47041.295
47041.194
47041.439
47041.329
47041.408
47041.169
47041.42
47041.658
47042.115
47043.183
47042.749
47042.682
47042.404
47041.781
47043.773
47046.995
47048.415
47049.009
47048.954
47050.1
47053.828
47059.673
47063.792
47067.393
47073.45
47080.827
47091.189
47107.182
47124.664
47140.405
47158.712
47182.946
47211.534
47244.257
47280.477
47323.701
47383.059
47457.227
47547.092
47635.776
47741.175
47805.849
47687.097
47054.089
47045.412
47041.433
47041.676
47041.572
47041.067
47040.49
47040.432
47040.624
47040.299
47040.469
47040.008
47040.147
47040.236
47040.599
47041.482
47040.305
47039.599
47039.51
47038.702
47040.727
47042.919
47043.849
47044.331
47043.191
47043.248
47046.76
47051.708
47054.264
47056.466
47061.877
47068.489
47078.338
47092.676
47106.884
47119.648
47136.504
47159.513
47184.871
47212.068
47247.017
47285.504
47338.579
47406.774
47480.885
47549.228
47624.544
47647.265
47386.642
47052.252
47044.537
47040.575
47041.154
47041.376
47040.353
47039.698
47039.927
47039.754
47039.603
47039.626
47039.323
47038.48
47039.052
47039.108
47039.568
47037.977
47036.862
47036.798
47036.423
47037.895
47039.281
47039.387
47039.442
47037.536
47036.471
47040.001
47043.712
47044.404
47046.033
47050.853
47056.402
47065.227
47077.194
47088.325
47098.728
47114.404
47134.708
47156.197
47180.352
47207.574
47241.68
47290.332
47347.123
47402.689
47433.966
47475.117
47490.281
47086.93
47051.238
47043.199
47039.759
47040.421
47040.608
47039.712
47038.933
47039.449
47039.153
47038.875
47038.404
47038.051
47037.182
47037.743
47038.313
47037.732
47035.76
47034.801
47034.116
47034.577
47034.842
47035.587
47035.046
47034.279
47031.828
47029.877
47032.857
47035.6
47034.539
47036.451
47040.183
47044.261
47051.632
47061.313
47069.768
47079.012
47092.79
47109.678
47126.845
47146.685
47172.11
47203.079
47242.892
47288.189
47315.919
47319.898
47325.634
47323.157
46775.362
47051.614
47043.127
47040.171
47040.303
47039.793
47039.1
47038.461
47038.94
47038.667
47038.264
47037.41
47036.681
47036.543
47036.475
47036.939
47035.691
47033.387
47032.86
47031.813
47032.548
47032.102
47032.428
47030.73
47028.863
47025.964
47024.306
47026.09
47026.928
47025.538
47027.426
47029.439
47031.929
47037.585
47044.908
47051.577
47059.698
47070.908
47084.291
47096.627
47111.943
47128.197
47150.48
47183.99
47212.975
47218.718
47171.671
47135.922
47171.794
46517.68
47050.491
47043.066
47040.633
47040.052
47039.289
47038.56
47038.026
47038.55
47037.995
47037.979
47036.845
47036.038
47035.834
47035.843
47035.674
47033.556
47031.072
47030.688
47029.946
47030.623
47029.758
47029.469
47026.751
47023.824
47020.476
47018.682
47020.155
47018.765
47017.16
47018.096
47018.31
47019.281
47023.365
47028.436
47034.481
47040.025
47047.222
47055.108
47063.553
47072.75
47094.676
47104.064
47125.699
47125.941
47090.989
47041.76
46944.286
47009.06
46248.226
47048.523
47042.298
47040.051
47039.865
47038.867
47037.843
47037.655
47038.108
47037.321
47037.171
47036.306
47035.622
47035.441
47035.653
47035.054
47031.932
47029.441
47028.884
47028.36
47028.662
47027.692
47026.206
47022.601
47018.82
47015.02
47013.106
47014.077
47011.393
47009.717
47008.25
47006.83
47007.064
47008.784
47012.743
47017.456
47019.847
47021.545
47027.529
47028.05
47030.66
47038.412
47043.649
47045.685
47033.469
46991.149
46902.163
46747.45
46809.708
46126.777
47048.265
47042.162
47039.533
47039.742
47038.45
47037.369
47037.326
47037.552
47036.762
47036.004
47035.472
47034.937
47035.053
47034.654
47033.819
47031.055
47028.431
47027.48
47026.989
47026.763
47025.437
47022.592
47018.164
47013.904
47009.585
47007.958
47008.064
47004.421
47001.89
46998.373
46995.205
46994.864
46994.587
46996.558
46997.83
46996.831
46993.817
46994.584
46990.756
46982.469
47004.258
47003.153
46973.635
46921.882
46821.524
46744.375
46606.881
46654.698
46016.425
45940.798
46425.514
46439.532
46808.991
46748.764
46859.139
46932.454
46910.271
46906.242
46951.84
46953.826
46958.986
46965.933
46971.936
46979.202
46980.516
46980.37
46982.87
46984.585
46988.57
46993.939
46997.551
47002.326
47003.434
47004.557
47009.576
47013.903
47018.926
47023.11
47024.993
47025.837
47026.167
47027.326
47029.088
47031.873
47033.589
47034.411
47034.389
47034.44
47035.85
47036.645
47037.192
47037.196
47037.086
47037.898
47039.829
47039.44
47043.243
47047.385
45911.15
46464.389
46250.954
46721.474
46709.791
46793.413
46789.984
46820.004
46850.61
46895.531
46912.724
46929.06
46937.51
46946.842
46957.692
46964.349
46966.992
46971.094
46974.725
46979.001
46985.506
46990.404
46996.67
46999.286
47000.056
47005.383
47009.899
47015.329
47020.649
47022.928
47024.496
47024.847
47025.467
47027.183
47030.708
47032.963
47033.861
47033.603
47033.874
47036.095
47036.362
47036.977
47037.19
47036.685
47037.524
47039.435
47039.224
47042.897
47043.254
45847.148
46473.109
46199.976
46539.108
46537.998
46709.578
46667.182
46773.049
46879.64
46847.444
46870.203
46892.704
46908.49
46921.886
46935.894
46945.322
46951.138
46958.024
46964.305
46969.506
46977.06
46983.185
46990.722
46994.818
46995.584
47000.937
47006.188
47011.24
47017.861
47020.743
47022.928
47023.347
47024.342
47026.745
47029.698
47032.303
47033.531
47033.759
47033.972
47034.779
47035.904
47036.485
47037.06
47036.638
47037.439
47039.092
47038.935
47041.083
47039.597
45779.413
46363.006
46170.429
46529.034
46433.404
46599.095
46626.59
46756.454
46804.538
46808.164
46840.567
46856.491
46873.683
46893.611
46912.696
46926.837
46936.594
46945.147
46953.769
46960.236
46969.223
46976.038
46984.04
46990.097
46991.244
46996.132
47002.367
47007.356
47014.899
47018.49
47021.124
47022.23
47023.592
47026.315
47028.663
47031.208
47032.851
47033.689
47034.134
47033.873
47035.064
47035.934
47036.956
47036.984
47037.207
47038.942
47038.575
47040.903
47038.965
45713.281
46250.789
46109.887
46492.522
46310.855
46560.216
46612.471
46713.674
46714.312
46758.804
46795.485
46823.599
46848.726
46866.577
46886.134
46906.03
46919.748
46932.202
46942.84
46950.894
46960.383
46968.363
46977.414
46985.515
46987.633
46992.06
46998.861
47004.089
47011.571
47016.246
47019.592
47021.896
47022.893
47025.248
47027.251
47029.79
47032.342
47033.502
47033.552
47033.337
47034.397
47035.816
47037.032
47037.335
47036.701
47038.703
47038.291
47040.504
47038.138
45762.391
46124.882
46029.775
46391.471
46259.006
46525.818
46532.521
46660.464
46691.324
46730.349
46754.704
46785.18
46814.951
46843.732
46866.719
46884.789
46902.756
46917.712
46930.254
46940.606
46952.288
46962.051
46971.678
46981.486
46985.15
46989.216
46995.54
47001.005
47008.152
47013.765
47017.98
47021.274
47022.295
47023.942
47026.323
47028.743
47031.732
47033.176
47033.167
47033
47034.177
47035.982
47036.768
47037.19
47036.344
47038.382
47038.02
47040.028
47038.136
46227.876
46469.187
46383.673
46622.247
46649.334
46689.464
46733.484
46761.729
46787.901
46813.45
46838.276
46865.948
46886.635
46904.837
46920.133
46932.151
46944.436
46955.414
46965.761
46976.894
46981.869
46985.966
46991.888
46998.022
47005.151
47011.56
47015.645
47019.386
47021.679
47022.474
47025.752
47028.627
47030.846
47032.581
47033.212
47033.436
47034.241
47035.383
47036.213
47036.849
47036.543
47038.317
47037.821
47039.98
47038.325
46770.486
46793.317
46822.41
46845.293
46866.577
46890.572
46909.102
46923.774
46935.906
46947.904
46959.428
46971.358
46977.706
46983.139
46989.268
46995.37
47002.567
47009.454
47013.616
47017.978
47020.513
47021.981
47025.339
47028.194
47030.358
47032.015
47033.328
47033.372
47034.229
47035.054
47035.904
47036.944
47036.954
47038.414
47037.778
47040.256
47038.344
46954.459
46967.532
46975.068
46981.525
46988.388
46993.856
47000.12
47007.068
47012.179
47017.323
47019.846
47022.067
47024.922
47027.589
47030.009
47031.745
47033.128
47033.387
47034.146
47035.278
47036.241
47037.068
47036.931
47038.425
47037.776
47040.715
47038.189
47024.272
47027.025
47029.536
47031.53
47032.857
47033.576
47034.185
47035.233
47036.373
47037.174
47036.752
47038.387
47037.709
47041.306
47037.694
)
;

boundaryField
{
    Side
    {
        type            empty;
    }
    Inlet
    {
        type            totalPressure;
        rho             rho;
        psi             none;
        gamma           1;
        p0              uniform 50000;
        value           nonuniform List<scalar> 
29
(
47043.452
47043.583
47043.776
47044.003
47044.236
47044.448
47044.626
47044.754
47044.851
47044.888
47044.949
47044.976
47044.916
47044.874
47044.926
47044.948
47044.832
47044.745
47044.547
47043.916
47042.383
47041.121
47040.257
47040.364
47040.589
47040.554
47040.419
47040.279
47040.223
)
;
    }
    Airfoil
    {
        type            zeroGradient;
    }
    Outlet
    {
        type            fixedValue;
        value           nonuniform List<scalar> 0();
    }
    procBoundary0to1
    {
        type            processor;
        value           nonuniform List<scalar> 
53
(
45772.442
46106.668
46023.85
46353.546
46353.546
46244.985
46453.253
46416.587
46558.282
46532.276
46630.444
46681.999
46733.468
46733.468
46727.48
46772.56
46805.396
46830.281
46854.919
46875.88
46896.478
46913.617
46928.285
46941.489
46941.489
46949.361
46963.699
46972.614
46978.7
46986.839
46993.308
46998.768
47005.687
47011.022
47016.359
47019.454
47021.646
47021.646
47023.622
47026.582
47029.204
47031.33
47032.661
47033.687
47034.323
47035.107
47036.232
47037.214
47036.664
47038.307
47037.593
47041.741
47037.313
)
;
    }
    procBoundary0to7
    {
        type            processor;
        value           nonuniform List<scalar> 
50
(
47091.492
47098.705
47105.146
47112.406
47121.211
47132.739
47146.696
47161.747
47178.243
47197.821
47222.315
47251.174
47282.407
47317.652
47359.088
47407.016
47462.797
47528.674
47606.254
47701.189
47823.599
47984.466
48197.381
48486.419
48894.114
49461.722
47073.753
47057.077
47044.435
47040.48
47043.044
47046.029
47047.989
47048.193
47047.872
47048.406
47049.347
47051.128
47053.169
47054.65
47056.656
47059.154
47061.554
47064.201
47068.015
47072.528
47075.59
47079.129
47084.962
47084.962
)
;
    }
}


// ************************************************************************* //
