/*--------------------------------*- C++ -*----------------------------------*\
| =========                 |                                                 |
| \\      /  F ield         | OpenFOAM: The Open Source CFD Toolbox           |
|  \\    /   O peration     | Version:  2506                                  |
|   \\  /    A nd           | Website:  www.openfoam.com                      |
|    \\/     M anipulation  |                                                 |
\*---------------------------------------------------------------------------*/
FoamFile
{
    version     2.0;
    format      ascii;
    arch        "LSB;label=32;scalar=64";
    class       volScalarField;
    location    "0.0145";
    object      T;
}
// * * * * * * * * * * * * * * * * * * * * * * * * * * * * * * * * * * * * * //

dimensions      [0 0 0 1 0 0 0];

internalField   nonuniform List<scalar> 
192657
(
245.41771
245.63557
245.58112
245.63856
245.60752
245.57355
245.54048
245.51609
245.50034
245.49173
245.49554
245.52211
245.60162
245.76161
245.94614
245.85435
245.48253
245.12254
245.05245
245.22875
245.42063
245.38158
245.36569
245.34118
245.34468
245.35591
245.3494
245.34905
245.3544
245.36897
245.39898
245.43331
245.47842
245.51556
245.53366
245.54938
245.56336
245.54872
245.52722
245.52432
245.50586
245.48503
245.46866
245.46072
245.43865
245.41165
245.40176
245.38611
245.37157
245.3647
245.3519
245.33534
245.32151
245.30265
245.27677
245.25114
245.22701
245.19846
245.16439
245.12921
245.0937
245.05542
245.01667
244.97353
244.93134
244.89266
244.84919
244.80408
244.75891
244.71237
244.6688
244.63004
244.593
244.55512
244.51784
244.48185
244.44867
244.42051
244.39461
244.36892
244.3438
244.31869
244.29362
244.27057
244.25072
244.23271
244.21487
244.19711
244.17985
244.16296
244.14634
244.13043
244.11573
244.10255
244.09055
244.07944
244.06944
244.05996
244.05017
244.03985
244.02932
244.01824
244.00609
243.9939
243.98157
243.96898
243.94397
244.04066
244.30378
244.55179
244.73083
244.86782
244.97522
245.05897
245.1238
245.17351
245.21118
245.23928
245.25967
245.27397
245.28342
245.28896
245.29187
245.29318
245.29367
245.29395
245.29431
245.29506
245.2966
245.29931
245.30285
245.30707
245.3121
245.31816
245.32551
245.33444
245.34523
245.35815
245.37329
245.39061
245.40981
245.43019
245.45033
245.46816
245.48152
245.48957
245.49335
245.49462
245.49482
245.41776
245.63539
245.58127
245.63858
245.60768
245.57367
245.54059
245.51617
245.50039
245.49174
245.49546
245.5218
245.60088
245.76055
245.94603
245.85747
245.48617
245.12498
245.05239
245.22608
245.41843
245.38208
245.36632
245.34114
245.34448
245.35608
245.34965
245.34918
245.3544
245.36874
245.39868
245.43316
245.47824
245.51554
245.53357
245.55032
245.56427
245.55047
245.53023
245.5283
245.50907
245.48938
245.47404
245.46508
245.44159
245.41568
245.4065
245.39109
245.37715
245.37091
245.35847
245.34245
245.32919
245.31053
245.28523
245.26028
245.23657
245.20855
245.17529
245.14057
245.10494
245.06739
245.02873
244.98533
244.94412
244.90503
244.86121
244.81652
244.77094
244.72421
244.68093
244.64217
244.60473
244.56664
244.5292
244.49277
244.45953
244.43126
244.40484
244.37895
244.35382
244.32844
244.30331
244.2807
244.26134
244.24347
244.22579
244.20852
244.19184
244.1753
244.15883
244.14329
244.12964
244.11792
244.10779
244.09899
244.09106
244.08338
244.0753
244.06642
244.05679
244.04695
244.03773
244.02916
244.02122
244.01585
244.03873
244.16993
244.46187
244.72195
244.92303
245.08716
245.22397
245.3386
245.43463
245.51504
245.58244
245.6392
245.68729
245.72804
245.76263
245.79207
245.81724
245.83892
245.85776
245.87434
245.88919
245.90265
245.91497
245.92634
245.93696
245.94699
245.95657
245.96576
245.97461
245.9831
245.99117
245.99869
246.00553
246.01153
246.01655
246.02052
246.02346
246.02538
246.02644
246.02692
246.02711
246.02716
246.02715
245.41783
245.63513
245.58125
245.63855
245.60784
245.5738
245.5407
245.51625
245.50044
245.49175
245.49537
245.5215
245.60017
245.7596
245.94599
245.86061
245.48986
245.12741
245.05157
245.22332
245.41619
245.38258
245.36697
245.34111
245.34428
245.35627
245.34989
245.34934
245.35439
245.36846
245.39833
245.43299
245.47802
245.51548
245.53341
245.55125
245.56516
245.55227
245.53335
245.53232
245.51235
245.49389
245.47939
245.46932
245.44454
245.41988
245.41133
245.39614
245.38285
245.3772
245.36511
245.34959
245.33685
245.31845
245.29373
245.26934
245.24606
245.21869
245.18604
245.15177
245.1163
245.07974
245.04117
244.99769
244.95738
244.91804
244.87378
244.82945
244.78361
244.73671
244.69364
244.65477
244.61699
244.57878
244.54107
244.5041
244.47082
244.44242
244.41563
244.38974
244.3646
244.339
244.31392
244.29178
244.27278
244.25503
244.23763
244.22099
244.20512
244.18953
244.17426
244.1601
244.14759
244.13688
244.12798
244.12079
244.11485
244.10944
244.10373
244.09759
244.09135
244.08523
244.0793
244.07384
244.06896
244.0633
244.05978
244.16928
244.46344
244.72181
244.92166
245.08405
245.21817
245.32951
245.4221
245.49916
245.56316
245.61611
245.65974
245.69565
245.7252
245.74959
245.76977
245.78657
245.80064
245.81254
245.82273
245.83159
245.83943
245.84653
245.85309
245.8593
245.86533
245.87131
245.8774
245.88372
245.89039
245.89748
245.90503
245.91294
245.92099
245.9288
245.93583
245.94163
245.94582
245.94833
245.94952
245.94992
245.94997
245.41792
245.63478
245.58117
245.6385
245.608
245.57392
245.54082
245.51633
245.5005
245.49175
245.49528
245.52117
245.59941
245.75854
245.94587
245.864
245.49378
245.12996
245.05082
245.22048
245.41383
245.38309
245.36765
245.34109
245.34407
245.35642
245.35012
245.34947
245.35436
245.36818
245.39795
245.43281
245.47779
245.51543
245.53326
245.55216
245.56605
245.55411
245.53655
245.53628
245.51556
245.49851
245.48464
245.47344
245.44752
245.42423
245.41625
245.40128
245.38864
245.38359
245.37184
245.35685
245.34462
245.32651
245.30242
245.27861
245.25591
245.2292
245.19715
245.16316
245.12797
245.09223
245.0533
245.0102
244.97082
244.93063
244.88654
244.84251
244.79611
244.74931
244.70654
244.6675
244.62937
244.59104
244.55302
244.51565
244.48241
244.45367
244.42643
244.40049
244.37523
244.3494
244.32457
244.30301
244.2844
244.26688
244.24999
244.23412
244.21892
244.20375
244.1889
244.17551
244.16444
244.15566
244.14877
244.14353
244.13949
244.13584
244.13184
244.12746
244.12302
244.11879
244.11507
244.11205
244.10963
244.11134
244.1291
244.24221
244.53677
244.80521
245.01217
245.18086
245.32069
245.43698
245.53373
245.6142
245.68116
245.7368
245.78298
245.82129
245.85309
245.8795
245.90146
245.91976
245.93508
245.94796
245.95887
245.96821
245.97628
245.98337
245.98967
245.99535
246.00055
246.00533
246.00976
246.01386
246.01765
246.02112
246.02429
246.02718
246.02982
246.03226
246.03451
246.03649
246.03805
246.03904
246.03953
246.03968
246.03968
245.41801
245.63449
245.58136
245.63845
245.60815
245.57404
245.54092
245.51641
245.50055
245.49176
245.49519
245.52087
245.59871
245.75759
245.94583
245.86732
245.49756
245.13234
245.05071
245.2178
245.41152
245.38359
245.36835
245.34107
245.34393
245.3566
245.35037
245.34961
245.35432
245.36792
245.39755
245.43264
245.47758
245.51537
245.53305
245.55304
245.56693
245.55596
245.53981
245.54023
245.51885
245.50326
245.48981
245.47744
245.45056
245.42871
245.42126
245.40649
245.39451
245.39004
245.37863
245.36412
245.35234
245.3346
245.31108
245.28778
245.2657
245.23969
245.20797
245.17434
245.1398
245.10492
245.06579
245.02323
244.98448
244.94379
244.89973
244.85582
244.8091
244.76237
244.71977
244.6805
244.6421
244.60369
244.56522
244.52742
244.49418
244.46516
244.43767
244.41178
244.38634
244.36032
244.33572
244.31459
244.29618
244.27884
244.26242
244.24726
244.23284
244.21858
244.2049
244.19273
244.18257
244.17453
244.1687
244.16486
244.16228
244.16004
244.15744
244.15455
244.15177
244.14925
244.14711
244.14538
244.1442
244.14136
244.14723
244.24756
244.53898
244.81156
245.02135
245.19255
245.33469
245.45324
245.55219
245.63466
245.70317
245.76002
245.80712
245.84607
245.87822
245.90474
245.92663
245.9447
245.95964
245.97203
245.98234
245.99097
245.99825
246.00447
246.00986
246.01463
246.01898
246.02304
246.02695
246.0308
246.03465
246.03851
246.04236
246.04615
246.0498
246.0532
246.05622
246.05869
246.06046
246.06149
246.06195
246.06208
246.06207
245.41811
245.63434
245.58186
245.63842
245.60832
245.57417
245.54104
245.51649
245.5006
245.49177
245.4951
245.52054
245.59793
245.7565
245.94568
245.87091
245.50172
245.13507
245.0508
245.21486
245.40899
245.3841
245.36908
245.34114
245.34372
245.35677
245.35063
245.34976
245.35428
245.36764
245.39711
245.43246
245.47735
245.51529
245.53286
245.5539
245.5678
245.55785
245.5432
245.54412
245.5221
245.5081
245.49486
245.48128
245.4537
245.43339
245.42638
245.41181
245.40048
245.39656
245.3855
245.37151
245.36017
245.34284
245.31989
245.29721
245.2759
245.25045
245.21907
245.18587
245.15203
245.11767
245.07812
245.03651
244.9982
244.95665
244.91318
244.86925
244.82202
244.77565
244.73325
244.69371
244.65509
244.61654
244.57759
244.53951
244.50626
244.47677
244.44895
244.42299
244.39724
244.37105
244.34681
244.3261
244.30789
244.2908
244.27496
244.26043
244.24638
244.23229
244.21886
244.20736
244.19844
244.19189
244.18739
244.18463
244.18296
244.18147
244.17961
244.17751
244.17555
244.17383
244.1725
244.17164
244.1712
244.17481
244.18496
244.26903
244.54704
244.82349
245.03767
245.21125
245.35513
245.47514
245.57565
245.65983
245.73019
245.78904
245.8382
245.8792
245.91332
245.94168
245.96525
245.98484
246.00116
246.01479
246.02618
246.03571
246.04368
246.05035
246.05596
246.06069
246.06469
246.06808
246.07097
246.07345
246.07559
246.07747
246.07915
246.08069
246.08213
246.08349
246.08473
246.08578
246.08655
246.087
246.08717
246.08719
246.08716
245.41822
245.63423
245.58211
245.63842
245.60848
245.57428
245.54115
245.51657
245.50065
245.49178
245.495
245.52022
245.5972
245.7555
245.94565
245.87445
245.50571
245.13764
245.05047
245.21202
245.40649
245.38464
245.3698
245.3412
245.34357
245.35696
245.35092
245.34992
245.35421
245.36738
245.39667
245.43224
245.47713
245.5152
245.53259
245.55471
245.56866
245.55975
245.54659
245.54798
245.52547
245.51303
245.49982
245.48501
245.457
245.43821
245.43159
245.41718
245.40654
245.40315
245.39241
245.3789
245.36799
245.3511
245.32866
245.30659
245.28605
245.26111
245.22994
245.19731
245.16445
245.13053
245.09093
245.05029
245.01205
244.97015
244.92702
244.88287
244.83549
244.78939
244.747
244.70719
244.66842
244.62972
244.59021
244.55187
244.51854
244.48867
244.46071
244.43468
244.4086
244.38229
244.35826
244.3377
244.31945
244.3025
244.28708
244.27304
244.25946
244.246
244.23339
244.22257
244.21391
244.20752
244.20352
244.20145
244.20038
244.19938
244.19806
244.19657
244.1953
244.19428
244.19347
244.19287
244.19258
244.19021
244.19875
244.27044
244.53051
244.82139
245.03985
245.21547
245.36108
245.48305
245.58583
245.67195
245.74398
245.80419
245.85448
245.89648
245.93147
245.96055
245.98469
246.00467
246.02114
246.03467
246.04579
246.05488
246.0623
246.06838
246.07339
246.07758
246.08113
246.08417
246.08684
246.0892
246.09135
246.09332
246.09515
246.09685
246.09843
246.09986
246.10111
246.1021
246.10278
246.10313
246.10325
246.10325
246.10321
245.41833
245.63396
245.58221
245.63844
245.60865
245.57442
245.54127
245.51666
245.50071
245.49179
245.49491
245.51988
245.59639
245.75435
245.94542
245.87823
245.51011
245.14057
245.05015
245.20897
245.40374
245.38521
245.37053
245.34131
245.34329
245.35713
245.35123
245.35007
245.35414
245.36709
245.39619
245.432
245.47689
245.51507
245.53231
245.55551
245.5695
245.56168
245.5501
245.55176
245.52885
245.51796
245.50463
245.48858
245.46043
245.44319
245.43688
245.42266
245.41271
245.40981
245.39936
245.38638
245.37592
245.3595
245.33758
245.31625
245.29654
245.27196
245.24112
245.20922
245.17722
245.14341
245.10373
245.06423
245.02586
244.98346
244.94106
244.89661
244.84898
244.80334
244.76097
244.72092
244.68205
244.64306
244.603
244.56452
244.53106
244.50068
244.47248
244.44621
244.41967
244.39324
244.36946
244.34902
244.33075
244.31398
244.29894
244.28514
244.27152
244.25788
244.24527
244.23487
244.22707
244.22158
244.21812
244.21633
244.21538
244.21439
244.21314
244.21178
244.21061
244.20961
244.2088
244.20832
244.20824
244.21075
244.21719
244.27419
244.5074
244.79906
245.02424
245.20598
245.35695
245.48319
245.58815
245.67593
245.74974
245.8118
245.86372
245.90706
245.94317
245.97331
245.9984
246.01926
246.03659
246.05095
246.06279
246.07256
246.08063
246.08728
246.09276
246.09727
246.10099
246.10405
246.10654
246.10857
246.11022
246.11156
246.11265
246.11355
246.1143
246.11492
246.11542
246.11579
246.11601
246.11609
246.11607
246.11601
246.11597
245.41838
245.63355
245.58197
245.63841
245.60882
245.57454
245.54138
245.51674
245.50076
245.4918
245.49481
245.51955
245.59562
245.75328
245.94531
245.882
245.51435
245.14331
245.05005
245.20604
245.40102
245.3858
245.37125
245.34148
245.343
245.35729
245.35155
245.35021
245.35407
245.3668
245.39572
245.43172
245.47666
245.51492
245.53198
245.55624
245.57036
245.56365
245.5536
245.55544
245.53237
245.52298
245.50934
245.49206
245.46407
245.44831
245.44224
245.42819
245.41898
245.41653
245.40633
245.39384
245.38385
245.3679
245.34645
245.3259
245.30695
245.28266
245.25224
245.22116
245.19009
245.15638
245.11714
245.07856
245.03978
244.99749
244.95541
244.91053
244.86307
244.81774
244.7752
244.73496
244.69602
244.65674
244.61613
244.57751
244.54382
244.51305
244.48474
244.4582
244.43125
244.40473
244.38095
244.3603
244.34178
244.32504
244.3102
244.29652
244.28303
244.26973
244.25751
244.24719
244.23904
244.23326
244.22984
244.22815
244.22718
244.22614
244.22491
244.22364
244.22259
244.22171
244.22087
244.22018
244.21951
244.21781
244.22291
244.26906
244.47794
244.77878
245.00981
245.19448
245.34736
245.4754
245.58326
245.67415
245.75043
245.8142
245.86761
245.91237
245.95
245.98143
246.00751
246.02907
246.04683
246.06142
246.07339
246.0832
246.09126
246.09787
246.10327
246.10767
246.11122
246.11406
246.11633
246.11814
246.1196
246.12077
246.12171
246.12246
246.12304
246.12347
246.12375
246.12391
246.12394
246.12389
246.12381
246.12373
246.12368
245.41836
245.63305
245.5817
245.63832
245.60901
245.57468
245.54152
245.51684
245.50082
245.49181
245.49471
245.5192
245.59476
245.75206
245.94502
245.88598
245.51902
245.1465
245.05004
245.20288
245.39805
245.38639
245.37199
245.34169
245.34264
245.35742
245.35187
245.35035
245.35397
245.36648
245.39522
245.4314
245.47638
245.5147
245.53164
245.55701
245.5712
245.56563
245.5572
245.55907
245.53601
245.52797
245.51385
245.4954
245.46784
245.45357
245.44765
245.43381
245.42538
245.42332
245.41332
245.40138
245.39189
245.37641
245.35549
245.33584
245.31759
245.29355
245.26376
245.23359
245.20321
245.16944
245.13063
245.09288
245.05365
245.01141
244.9699
244.92462
244.87724
244.83229
244.78963
244.74927
244.71026
244.67053
244.62942
244.59076
244.55678
244.52552
244.49696
244.46997
244.44253
244.41589
244.39211
244.37126
244.35255
244.33584
244.32104
244.30717
244.29327
244.27954
244.26714
244.25706
244.24944
244.24396
244.24044
244.23841
244.23702
244.23553
244.23394
244.2324
244.23103
244.22977
244.22858
244.2277
244.22754
244.22891
244.23258
244.26832
244.44423
244.74523
244.98381
245.17377
245.33081
245.46215
245.57247
245.66536
245.74369
245.80977
245.8654
245.91206
245.95094
245.98334
246.01043
246.03307
246.05185
246.06734
246.08003
246.09036
246.09869
246.10538
246.11071
246.11493
246.11825
246.12087
246.12294
246.12457
246.12583
246.1268
246.12751
246.12801
246.12833
246.1285
246.12853
246.12846
246.12832
246.12816
246.12801
246.1279
246.12785
245.41843
245.63253
245.58197
245.63821
245.60919
245.57481
245.54163
245.51693
245.50088
245.49182
245.49461
245.51885
245.59395
245.75092
245.94486
245.88995
245.5235
245.14947
245.04988
245.19987
245.39515
245.38698
245.37272
245.34191
245.34241
245.35751
245.35221
245.35048
245.35387
245.36615
245.39473
245.43106
245.47613
245.51444
245.53125
245.55769
245.57207
245.56766
245.56079
245.56257
245.53981
245.533
245.51823
245.49868
245.47184
245.45894
245.4531
245.43949
245.43186
245.43016
245.42032
245.4089
245.39995
245.38492
245.36451
245.34575
245.32811
245.30435
245.27537
245.24604
245.21632
245.18263
245.14474
245.10748
245.0677
245.02608
244.98462
244.93894
244.89202
244.84723
244.80435
244.76394
244.72485
244.68468
244.64314
244.60439
244.57002
244.5384
244.50966
244.48223
244.45438
244.42759
244.40354
244.3822
244.36311
244.34627
244.33136
244.31728
244.30324
244.28956
244.27713
244.26655
244.25808
244.25201
244.24819
244.24584
244.24404
244.24219
244.24033
244.23859
244.23704
244.23557
244.23411
244.23278
244.23156
244.2288
244.23154
244.2576
244.40992
244.70843
244.95534
245.15002
245.31031
245.44432
245.55703
245.65213
245.73255
245.80061
245.85818
245.90683
245.94786
245.9823
246.011
246.03476
246.0544
246.07058
246.08387
246.09474
246.10364
246.11084
246.11661
246.12116
246.12471
246.12741
246.12942
246.13087
246.13186
246.1325
246.13287
246.13302
246.13302
246.13292
246.13273
246.13248
246.13222
246.13199
246.13181
246.13169
246.13164
245.41852
245.63218
245.5824
245.63814
245.60938
245.57496
245.54177
245.51703
245.50094
245.49184
245.49451
245.51848
245.59306
245.74961
245.94447
245.89415
245.52843
245.15292
245.04982
245.19657
245.39191
245.38759
245.37348
245.34221
245.34228
245.35756
245.35253
245.3506
245.35374
245.36579
245.39424
245.43067
245.47585
245.51411
245.53087
245.55838
245.57292
245.5697
245.56444
245.56605
245.54379
245.53801
245.52239
245.50185
245.47598
245.46441
245.45863
245.44524
245.43844
245.43706
245.42733
245.4165
245.4081
245.3935
245.37373
245.3559
245.33878
245.31544
245.28741
245.25884
245.2296
245.196
245.15891
245.12191
245.08181
245.04067
244.99944
244.95351
244.9069
244.8623
244.81927
244.7789
244.73965
244.69892
244.65704
244.61823
244.58346
244.5514
244.52232
244.4943
244.46597
244.43899
244.41468
244.39294
244.37352
244.3565
244.34126
244.32662
244.31191
244.29764
244.2849
244.27438
244.2661
244.25979
244.25533
244.25224
244.24969
244.24717
244.24475
244.24252
244.24042
244.2384
244.23648
244.23481
244.23427
244.23559
244.23638
244.2533
244.37496
244.66362
244.9206
245.12147
245.28619
245.42379
245.5395
245.63708
245.71947
245.78914
245.84808
245.89794
245.94006
245.97558
246.00544
246.03046
246.05134
246.06866
246.08294
246.09462
246.10405
246.11162
246.11763
246.12236
246.12603
246.12884
246.13094
246.13245
246.13346
246.13408
246.13439
246.13444
246.13431
246.13405
246.1337
246.1333
246.13291
246.1326
246.13238
246.13225
246.13219
245.41848
245.63186
245.58268
245.6381
245.60956
245.5751
245.5419
245.51712
245.50101
245.49185
245.4944
245.51812
245.59219
245.74838
245.94423
245.89835
245.5332
245.15613
245.04971
245.19347
245.38872
245.38829
245.37425
245.34248
245.34208
245.3576
245.35286
245.35072
245.35361
245.36546
245.39377
245.43025
245.47558
245.51375
245.53049
245.55898
245.57377
245.57181
245.56809
245.56939
245.54793
245.543
245.52641
245.50501
245.48035
245.47001
245.46422
245.45107
245.44509
245.44398
245.43435
245.4241
245.41626
245.40211
245.38293
245.36597
245.34934
245.32654
245.29952
245.27159
245.24283
245.2096
245.17358
245.13656
245.0962
245.05597
245.01445
244.96835
244.92234
244.8777
244.83454
244.79424
244.75481
244.71359
244.67144
244.63248
244.5972
244.56482
244.53544
244.50689
244.47818
244.45094
244.42612
244.40374
244.3839
244.36654
244.35089
244.33574
244.32066
244.30614
244.29291
244.28138
244.27192
244.26486
244.25993
244.25627
244.25312
244.25011
244.24729
244.2447
244.24223
244.23996
244.23784
244.23557
244.23317
244.23108
244.23175
244.24475
244.34284
244.6153
244.88214
245.08854
245.25685
245.39728
245.51543
245.61523
245.69976
245.77148
245.8324
245.88414
245.92806
245.96527
245.99668
246.02311
246.04523
246.06366
246.07893
246.0915
246.10177
246.11008
246.11674
246.12198
246.12604
246.12908
246.1313
246.13285
246.13384
246.13439
246.13458
246.1345
246.13419
246.13374
246.1332
246.13264
246.13214
246.13176
246.13151
246.13137
246.13131
245.41849
245.63136
245.58259
245.63812
245.60975
245.57526
245.54205
245.51722
245.50107
245.49187
245.4943
245.51773
245.59125
245.74698
245.94374
245.90272
245.53841
245.15987
245.0498
245.1901
245.3852
245.38897
245.37503
245.34286
245.34177
245.35753
245.35319
245.35083
245.35347
245.36512
245.39327
245.42979
245.47531
245.51332
245.5301
245.55955
245.57464
245.57391
245.57174
245.57273
245.55228
245.54794
245.53018
245.50813
245.48491
245.47568
245.46991
245.45701
245.45182
245.45095
245.4414
245.4318
245.42451
245.41078
245.39233
245.37623
245.36006
245.338
245.31198
245.28454
245.25623
245.22343
245.18819
245.15101
245.11081
245.07115
245.02956
244.98352
244.93789
244.89323
244.85005
244.80987
244.77012
244.72837
244.68602
244.64692
244.61117
244.5784
244.54856
244.51937
244.49021
244.46265
244.43738
244.41452
244.39426
244.37648
244.36016
244.34418
244.32826
244.31303
244.29937
244.28774
244.27809
244.27032
244.26438
244.25977
244.25575
244.25198
244.24855
244.24541
244.24242
244.23911
244.23607
244.23363
244.23194
244.23239
244.23154
244.23851
244.31224
244.56178
244.83912
245.05257
245.22567
245.36985
245.49104
245.59332
245.6799
245.75336
245.8158
245.86893
245.91415
245.95259
245.98521
246.01279
246.03601
246.05545
246.07163
246.08501
246.09598
246.10489
246.11205
246.11773
246.12215
246.12553
246.12802
246.12979
246.13095
246.13162
246.13189
246.13184
246.13155
246.13108
246.13051
246.1299
246.12936
246.12894
246.12867
246.12853
246.12847
245.41858
245.63082
245.58305
245.63816
245.60995
245.57541
245.54218
245.51732
245.50114
245.49189
245.49419
245.51735
245.59034
245.74565
245.9434
245.90721
245.54344
245.16334
245.04976
245.18685
245.38175
245.38961
245.37587
245.34322
245.34141
245.35752
245.35352
245.35095
245.35334
245.36482
245.39282
245.4293
245.47501
245.51289
245.52974
245.56004
245.57548
245.5761
245.57541
245.57596
245.5568
245.55281
245.53382
245.51133
245.48972
245.48149
245.4757
245.46306
245.4586
245.4579
245.44848
245.43951
245.43278
245.41951
245.40171
245.38639
245.37073
245.34955
245.32434
245.2974
245.26962
245.23753
245.20315
245.16572
245.12577
245.08694
245.04489
244.99899
244.9539
244.90908
244.86597
244.82586
244.78583
244.74365
244.70115
244.66176
244.62545
244.59237
244.56214
244.53241
244.5029
244.47493
244.44901
244.42548
244.40477
244.38647
244.36948
244.35281
244.33634
244.32057
244.30598
244.29293
244.28195
244.27342
244.26691
244.2616
244.25692
244.25262
244.24882
244.24545
244.24151
244.23766
244.23419
244.23098
244.22792
244.22444
244.22377
244.22984
244.28585
244.50766
244.79302
245.01341
245.19104
245.33873
245.46283
245.5676
245.65636
245.73176
245.79597
245.85075
245.89754
245.93749
245.97157
246.00056
246.02512
246.04583
246.06318
246.07761
246.08952
246.09925
246.10712
246.11338
246.11829
246.12204
246.12482
246.12678
246.12807
246.12881
246.1291
246.12903
246.12868
246.12814
246.12749
246.12681
246.12621
246.12576
246.12548
246.12533
246.12527
245.41863
245.63044
245.58361
245.63823
245.61015
245.57558
245.54234
245.51744
245.50121
245.49191
245.49407
245.51695
245.58936
245.74416
245.94279
245.91176
245.54895
245.16739
245.04999
245.18344
245.37792
245.39018
245.37675
245.34364
245.34102
245.35735
245.35383
245.35107
245.3532
245.36452
245.39235
245.42879
245.4747
245.51242
245.52937
245.56047
245.57635
245.57828
245.57904
245.57926
245.5615
245.55761
245.53723
245.51463
245.49474
245.48743
245.48161
245.46926
245.46545
245.46488
245.45561
245.44732
245.44114
245.42831
245.41126
245.39671
245.38163
245.36141
245.33692
245.31042
245.28325
245.25183
245.21793
245.1803
245.14104
245.10255
245.06032
245.01483
244.97
244.92508
244.88215
244.84211
244.80164
244.75906
244.71645
244.67679
244.64001
244.60657
244.57578
244.54542
244.51547
244.48706
244.46058
244.43657
244.4154
244.39648
244.37863
244.36101
244.34364
244.32708
244.31197
244.29863
244.28713
244.27749
244.26974
244.26339
244.25778
244.25282
244.24805
244.24358
244.2393
244.23488
244.23067
244.22716
244.22465
244.22369
244.22181
244.22359
244.2624
244.4526
244.7428
244.97159
245.15472
245.30649
245.4338
245.54118
245.63206
245.70924
245.77496
245.83108
245.87908
245.9202
245.9554
245.98551
246.01118
246.03299
246.0514
246.06684
246.07969
246.09028
246.09893
246.1059
246.11142
246.1157
246.11894
246.1213
246.12291
246.12391
246.1244
246.12448
246.12425
246.12378
246.12316
246.1225
246.1219
246.12145
246.12117
246.12102
246.12096
245.4187
245.62998
245.58388
245.63829
245.61035
245.57574
245.54248
245.51754
245.50128
245.49193
245.49396
245.51655
245.58839
245.74273
245.94236
245.91651
245.55429
245.17117
245.05004
245.18007
245.37411
245.39066
245.37767
245.34406
245.34062
245.35727
245.35414
245.3512
245.35308
245.36423
245.39193
245.42829
245.47433
245.51193
245.52904
245.56084
245.57719
245.58053
245.5827
245.58249
245.56631
245.56227
245.5405
245.51815
245.50005
245.49356
245.48763
245.4756
245.47237
245.47184
245.46279
245.45515
245.44953
245.43718
245.4208
245.40696
245.39257
245.37333
245.34926
245.32341
245.29696
245.26636
245.23296
245.19525
245.15666
245.11867
245.07603
245.03098
244.98649
244.94144
244.89876
244.85871
244.81792
244.77503
244.7323
244.69219
244.65489
244.62114
244.5899
244.55904
244.52873
244.4998
244.47262
244.44798
244.42635
244.40682
244.3882
244.36984
244.35183
244.33449
244.31809
244.30311
244.29027
244.27993
244.27153
244.26436
244.25801
244.25235
244.24717
244.24218
244.23712
244.23208
244.22732
244.22305
244.21891
244.21475
244.21296
244.2147
244.24304
244.40098
244.68984
244.92755
245.11625
245.27206
245.40262
245.5127
245.60588
245.68501
245.75243
245.81005
245.85942
245.90183
245.93828
245.96961
245.9965
246.01949
246.03906
246.05562
246.06951
246.08106
246.09057
246.0983
246.10449
246.10934
246.11305
246.11579
246.11771
246.11894
246.11961
246.11982
246.11966
246.11924
246.11865
246.11801
246.11743
246.117
246.11674
246.1166
246.11655
245.41883
245.62953
245.58384
245.63832
245.61054
245.57592
245.54265
245.51766
245.50136
245.49195
245.49385
245.51614
245.58736
245.74114
245.94163
245.92124
245.56009
245.17557
245.05043
245.17659
245.36997
245.3908
245.37859
245.34456
245.34026
245.35703
245.35441
245.35135
245.35294
245.36393
245.39151
245.42776
245.47391
245.51144
245.52869
245.56115
245.57811
245.58276
245.58629
245.58579
245.57132
245.56681
245.54359
245.52189
245.5056
245.49982
245.49376
245.48206
245.47938
245.47883
245.47002
245.46308
245.45805
245.44612
245.43047
245.41739
245.4038
245.3854
245.36175
245.33666
245.31094
245.28103
245.24778
245.21021
245.17258
245.13456
245.09189
245.04747
245.00305
244.95799
244.91564
244.87552
244.83429
244.79115
244.7483
244.70782
244.67011
244.63599
244.60416
244.57273
244.54196
244.51249
244.48474
244.45965
244.43752
244.41729
244.39778
244.37853
244.35968
244.34159
244.32468
244.3093
244.29567
244.28395
244.27419
244.26596
244.25867
244.25213
244.24617
244.24029
244.23436
244.22858
244.22319
244.21866
244.2153
244.21342
244.21035
244.20904
244.22638
244.35253
244.6334
244.88154
245.07664
245.2369
245.37094
245.48385
245.57932
245.66034
245.7293
245.78822
245.83872
245.88214
245.91956
245.95185
245.97969
246.00367
246.02426
246.04184
246.05676
246.06932
246.07979
246.08842
246.09544
246.10104
246.10542
246.10874
246.11116
246.11282
246.11383
246.11431
246.11437
246.11409
246.1136
246.113
246.11243
246.11198
246.1117
246.11156
246.11151
245.41883
245.62909
245.58387
245.63826
245.61072
245.5761
245.54281
245.51778
245.50144
245.49198
245.49373
245.51572
245.58634
245.7396
245.94108
245.92622
245.56579
245.17966
245.05061
245.17312
245.3659
245.39104
245.37953
245.34503
245.33983
245.35686
245.35466
245.35151
245.35283
245.36368
245.39116
245.42724
245.47342
245.51095
245.52839
245.56142
245.579
245.585
245.58991
245.58912
245.57638
245.57119
245.54658
245.526
245.51144
245.50628
245.49999
245.48865
245.48648
245.48582
245.47732
245.47105
245.4666
245.45514
245.44014
245.42784
245.41511
245.39744
245.37406
245.34998
245.32505
245.29586
245.26288
245.22565
245.18878
245.15089
245.10812
245.06426
245.01998
244.97497
244.93293
244.89268
244.85118
244.80786
244.76481
244.7238
244.68564
244.65122
244.61892
244.58704
244.55589
244.52584
244.49744
244.47179
244.44916
244.4283
244.40808
244.38818
244.36871
244.34971
244.33138
244.3144
244.29966
244.28737
244.27693
244.26778
244.25966
244.25212
244.24567
244.23907
244.23258
244.22619
244.22012
244.2147
244.20956
244.20454
244.20183
244.20116
244.21337
244.31104
244.5758
244.83445
245.03609
245.20082
245.33841
245.45428
245.55225
245.63534
245.70604
245.76641
245.81815
245.86266
245.90108
245.93431
245.96311
245.98805
246.00962
246.0282
246.04413
246.05769
246.06913
246.07868
246.08655
246.09293
246.098
246.10194
246.1049
246.10701
246.1084
246.10918
246.10948
246.1094
246.10905
246.10856
246.10806
246.10768
246.10743
246.1073
246.10725
245.4188
245.62844
245.58392
245.63816
245.61086
245.57631
245.54298
245.5179
245.50152
245.49201
245.49361
245.51529
245.58526
245.73789
245.94024
245.93111
245.57191
245.18443
245.05119
245.16958
245.36148
245.39118
245.38044
245.34559
245.33938
245.35653
245.35487
245.35167
245.35273
245.36342
245.39081
245.4267
245.47288
245.51047
245.52805
245.56164
245.57996
245.58723
245.59347
245.59251
245.58158
245.57545
245.54949
245.53044
245.5175
245.51284
245.50631
245.4953
245.49365
245.49284
245.48467
245.47914
245.47527
245.46423
245.44995
245.43851
245.4267
245.40952
245.38659
245.3637
245.3394
245.31076
245.27782
245.2412
245.20518
245.16702
245.12453
245.08134
245.03697
244.99215
244.95046
244.91004
244.86819
244.82473
244.78147
244.74004
244.70158
244.66678
244.63388
244.60149
244.56985
244.53923
244.51031
244.48427
244.46112
244.43955
244.41855
244.39794
244.37777
244.35818
244.33947
244.32213
244.30651
244.29283
244.28115
244.27106
244.26206
244.254
244.24589
244.23852
244.2313
244.22393
244.21731
244.21171
244.20766
244.2047
244.20058
244.19732
244.20283
244.27538
244.51733
244.78639
244.99526