/*--------------------------------*- C++ -*----------------------------------*\
| =========                 |                                                 |
| \\      /  F ield         | OpenFOAM: The Open Source CFD Toolbox           |
|  \\    /   O peration     | Version:  2506                                  |
|   \\  /    A nd           | Website:  www.openfoam.com                      |
|    \\/     M anipulation  |                                                 |
\*---------------------------------------------------------------------------*/
FoamFile
{
    version     2.0;
    format      ascii;
    arch        "LSB;label=32;scalar=64";
    class       volScalarField;
    location    "0.0145";
    object      yPlus;
}
// * * * * * * * * * * * * * * * * * * * * * * * * * * * * * * * * * * * * * //

dimensions      [0 0 0 0 0 0 0];

internalField   uniform 0;

boundaryField
{
    Side
    {
        type            empty;
    }
    Inlet
    {
        type            calculated;
        value           uniform 0;
    }
    Airfoil
    {
        type            calculated;
        value           nonuniform List<scalar> 
1047
(
0.73256462
0.62714643
0.63822632
0.61945091
0.61671427
0.60854361
0.60671399
0.6032305
0.60174052
0.60120714
0.60110172
0.60196532
0.60310141
0.6050134
0.60714438
0.60998722
0.61307017
0.61679545
0.62077039
0.62536572
0.63021667
0.63562397
0.64124384
0.64724757
0.65388521
0.65960859
0.66104089
0.6605556
0.66109536
0.66233153
0.66363018
0.66520688
0.66681003
0.66857333
0.67032985
0.67221817
0.67408045
0.67606118
0.67801055
0.68007237
0.68209836
0.68423498
0.68634626
0.6885616
0.69075048
0.6930364
0.69530142
0.69765479
0.6999993
0.70243537
0.70491176
0.70753345
0.71014671
0.71282055
0.71549601
0.71823138
0.72097155
0.72376022
0.72655412
0.7294014
0.73227259
0.73520642
0.73818651
0.74124515
0.74436018
0.74755593
0.75078903
0.75407646
0.75738243
0.76073392
0.76412034
0.76756881
0.77109056
0.77468714
0.7783221
0.78203264
0.78578625
0.78963579
0.79353134
0.79748533
0.80147452
0.80541201
0.8094654
0.81338586
0.81761295
0.82146804
0.82610321
0.82961387
0.8346712
0.83819126
0.84323199
0.8470535
0.85194866
0.85576582
0.86035431
0.8642654
0.86882736
0.87265291
0.87718567
0.88077181
0.88532425
0.8886598
0.89336649
0.89638421
0.90102717
0.90300724
0.90707162
0.90875694
0.91111274
0.91313494
0.9151641
0.91587513
0.91451499
0.91260862
0.90902982
0.9045908
0.89895071
0.89161946
0.8838283
0.87493174
0.86445075
0.85410688
0.84248193
0.83151743
0.81874976
0.80705679
0.79353619
0.78033561
0.76698002
0.75310266
0.73931899
0.72492017
0.71038251
0.69531683
0.67997623
0.66414505
0.64797155
0.63141791
0.61455875
0.59703908
0.57872168
0.5600002
0.54108692
0.52210673
0.5028969
0.48373054
0.46436289
0.44491716
0.42550827
0.40594181
0.38656635
0.36728032
0.34803904
0.32928903
0.30977239
0.28952491
0.26954287
0.25005377
0.22990206
0.21012433
0.18787341
0.16878184
0.14144852
0.12077419
0.052188023
0.09189478
0.10154062
0.13029236
0.14214536
0.16026096
0.17218034
0.18595636
0.19607882
0.20643109
0.21501896
0.2230658
0.23024763
0.23685145
0.24283946
0.2484671
0.25366135
0.25861962
0.2633507
0.26797095
0.27245635
0.27684725
0.28110878
0.28526637
0.28929295
0.29319214
0.29694381
0.30055403
0.3040177
0.30734676
0.31054122
0.31362471
0.31658129
0.31943912
0.32217638
0.32486442
0.32746244
0.33001069
0.33246192
0.33488088
0.33723571
0.33950963
0.34172606
0.34389405
0.34604866
0.34813736
0.35017059
0.35216884
0.35413649
0.35607723
0.35798116
0.35988192
0.36174133
0.36363316
0.36550484
0.36747811
0.36946573
0.37178121
0.37455524
0.37636519
0.3761984
0.37544005
0.37501704
0.37484622
0.37485736
0.37505866
0.37533572
0.37576088
0.37624405
0.37688121
0.37758829
0.37847521
0.37943841
0.3806155
0.38189939
0.3832395
0.38508199
0.38761074
0.39055798
0.39402115
0.39830652
0.40411733
0.41314436
0.41138031
0.47035898
0.31549597
0.084748797
0.1967621
0.14254897
0.05082151
0.13929807
0.18181597
0.21495821
0.23734641
0.24877456
0.24613092
0.23594516
0.22230953
0.21045233
0.19910804
0.18968674
0.18468512
0.18027296
0.17674698
0.17203547
0.15993208
0.13635621
0.09556861
0.040708865
0.11048507
0.1447505
0.16503336
0.1743539
0.16570814
0.12460699
0.044255627
0.038796148
0.079886168
0.13476233
0.15408813
0.12679951
0.11625093
0.21855046
0.24954656
0.2468338
0.22869861
0.20472103
0.17558543
0.13943377
0.092843013
0.054119305
0.096905874
0.18906304
0.24557329
0.26144923
0.25997167
0.233585
0.18747941
0.12602903
0.040271231
0.089686524
0.10462556
0.22007455
0.26896818
0.27380097
0.2685903
0.26477607
0.26392722
0.26461058
0.26101558
0.25364084
0.24406212
0.22974594
0.20871914
0.18250652
0.16253096
0.17307722
0.20868219
0.23561852
0.2443704
0.2299913
0.19477276
0.15748729
0.13764827
0.18264217
0.23998502
0.2659442
0.27446349
0.26289618
0.23579245
0.2005788
0.15844412
0.1270341
0.16427342
0.23683104
0.27698609
0.28812137
0.28686709
0.27772277
0.26669139
0.2516107
0.22307544
0.17143287
0.087969181
0.061650781
0.08007559
0.18437577
0.23837935
0.2574317
0.24637186
0.19788439
0.11748116
0.057665348
0.03640981
0.17464555
0.25693755
0.28763938
0.29567801
0.29324854
0.2926456
0.29724362
0.30147785
0.30284765
0.30538499
0.3093724
0.31283845
0.31092682
0.30376275
0.29079464
0.27056799
0.23822707
0.19160257
0.14497178
0.14614596
0.21237217
0.27568116
0.30230182
0.3127761
0.31050462
0.29309281
0.26611107
0.23503284
0.20815012
0.20381834
0.25206886
0.29777592
0.31358651
0.31827557
0.30427241
0.27983418
0.24651695
0.20225326
0.16360056
0.19339487
0.2617459
0.30477503
0.32442235
0.30926582
0.26147179
0.1951773
0.10620047
0.046370594
0.20497393
0.2993623
0.32912975
0.3360867
0.3208593
0.29977608
0.27048692
0.21667114
0.10757374
0.1561035
0.23549824
0.19826395
0.16334225
0.27717318
0.3107636
0.30733903
0.29788793
0.27458828
0.22158717
0.12208001
0.099879782
0.052879252
0.21811596
0.28931514
0.3048503
0.30890166
0.27275926
0.19919666
0.076174921
0.21838876
0.2473396
0.14710451
0.31399361
0.31968591
0.30605004
0.26231253
0.20274959
0.12303323
0.076233088
0.20707208
0.29668494
0.32658672
0.33676864
0.31250676
0.26923436
0.20598886
0.11208615
0.047835658
0.19327378
0.2818729
0.30897787
0.32263856
0.30295855
0.27150287
0.24696304
0.23048784
0.23866377
0.2626559
0.28284284
0.29581532
0.30346559
0.30621305
0.30349333
0.29719964
0.29360641
0.29225746
0.29689418
0.30554919
0.31152664
0.31466584
0.31430397
0.31207067
0.31067856
0.31335226
0.31941588
0.3248323
0.32769755
0.32810606
0.32794945
0.32886558
0.33247346
0.3367655
0.33897255
0.33938532
0.34038833
0.34342955
0.34663507
0.34840458
0.3500704
0.35241884
0.35453732
0.35661838
0.35912789
0.36102145
0.36291104
0.36567408
0.36789569
0.369675
0.37217796
0.37472183
0.37654299
0.37862834
0.38127552
0.38321636
0.38492192
0.38742772
0.3897417
0.39139408
0.39369167
0.39642972
0.39808593
0.39991826
0.40277406
0.40488263
0.4065043
0.40907333
0.4113649
0.41291583
0.41511615
0.41740203
0.41903179
0.42112803
0.42340503
0.42513717
0.42723479
0.42946264
0.43121955
0.43330672
0.43547629
0.43724059
0.43927918
0.4414238
0.44316271
0.44503324
0.44718317
0.44895095
0.45078502
0.45296956
0.45470311
0.45653825
0.45869205
0.46034066
0.46222031
0.4642033
0.46574788
0.46767231
0.46944055
0.47098199
0.47295507
0.47460733
0.47625895
0.47812188
0.47967238
0.48137824
0.48315265
0.4847694
0.48658482
0.48839961
0.49013159
0.49207039
0.49398178
0.49571309
0.4975569
0.49914157
0.50052345
0.50195386
0.5030824
0.50423232
0.50536484
0.50631785
0.50763366
0.50895787
0.51040792
0.51209311
0.51374254
0.51575077
0.51786395
0.52008822
0.52247862
0.52479823
0.52710019
0.5291776
0.53100584
0.53263719
0.53400116
0.5352061
0.53624706
0.5371571
0.53799198
0.53875859
0.53952704
0.54034179
0.54121809
0.54217465
0.54321096
0.54432668
0.54555562
0.5469008
0.54831363
0.5497195
0.55115454
0.55258778
0.55402895
0.55547935
0.55691144
0.55835636
0.55977604
0.56120462
0.5626026
0.56398564
0.56535195
0.56671705
0.56811466
0.5695442
0.57107262
0.57259698
0.57438744
0.5780999
0.58285655
0.58558684
0.5884269
0.58912013
0.59037445
0.59046055
0.5906918
0.59012468
0.58947082
0.58832215
0.58709948
0.58549225
0.58380221
0.58190956
0.58003812
0.57774174
0.57583749
0.57386464
0.57214019
0.56983021
0.56813342
0.55948226
0.51993734
0.64669009
0.42487673
0.35518608
0.37696396
0.38339631
0.38777696
0.3910009
0.39373826
0.39630406
0.39865848
0.40100232
0.40326445
0.4052823
0.40722124
0.40907275
0.41081341
0.41243949
0.41391666
0.41523506
0.41634446
0.41724773
0.41788763
0.41820523
0.41812248
0.41743093
0.41590519
0.41508339
0.41551938
0.4160882
0.41663506
0.4171598
0.41767467
0.41817987
0.41866505
0.41917825
0.41966809
0.42020805
0.42071169
0.42126468
0.421779
0.42232926
0.42282575
0.42333753
0.42376906
0.42419188
0.42449825
0.42480213
0.42503833
0.42528817
0.42544271
0.42557569
0.42566479
0.42570338
0.42574999
0.42573147
0.42573029
0.4256803
0.42564607
0.42557085
0.42551389
0.42541858
0.42535098
0.42523869
0.42514245
0.42502057
0.42494194
0.42487771
0.4247984
0.42475257
0.42468662
0.42464612
0.42460607
0.42454106
0.42449716
0.424422
0.42432972
0.4242362
0.42409085
0.42397038
0.4237726
0.42358064
0.42338496
0.42312647
0.42294223
0.4226579
0.42242386
0.42215292
0.42188903
0.42164909
0.4213989
0.42118204
0.42096404
0.42074792
0.42051538
0.42030907
0.42002121
0.41980242
0.41949717
0.41922368
0.41892799
0.4186255
0.41831708
0.41801515
0.41769073
0.41736694
0.41708114
0.41671554
0.41640435
0.4160597
0.41571451
0.41536481
0.41502535
0.41459068
0.41424975
0.41378578
0.41336608
0.41295896
0.41249262
0.4120292
0.41162942
0.41110149
0.41065026
0.41020515
0.40967702
0.40916821
0.40876642
0.40815844
0.40763999
0.40712533
0.40650409
0.40591032
0.40542049
0.40478391
0.40418755
0.4037
0.40308114
0.40245243
0.40196111
0.40142675
0.40081478
0.40034579
0.39975842
0.39905798
0.39846886
0.39797477
0.39725501
0.39661794
0.39611555
0.39547968
0.39469871
0.39416926
0.39365569
0.39289552
0.39217967
0.39164336
0.39089527
0.38999639
0.38933812
0.38870446
0.38780318
0.38695605
0.38635557
0.38565553
0.38478746
0.38412296
0.38353164
0.38272043
0.38195918
0.38143705
0.38072159
0.37971327
0.37891071
0.37848974
0.37779502
0.37672832
0.37588086
0.37546518
0.37485878
0.37387383
0.37300261
0.37242842
0.37170525
0.37071941
0.36980677
0.36909212
0.36820598
0.36715936
0.3663202
0.36574914
0.3649811
0.36392779
0.36314715
0.36279985
0.36220125
0.3610089
0.35990555
0.3593806
0.35897677
0.35816815
0.35730403
0.35674
0.35616236
0.35523514
0.35426515
0.35369295
0.35322372
0.35228587
0.35096802
0.34997915
0.34938512
0.34860113
0.34729613
0.34613002
0.3455129
0.3449661
0.34388128
0.34280838
0.34239339
0.34216385
0.34147975
0.34036501
0.33935263
0.33864709
0.33795846
0.33669002
0.33532996
0.33456408
0.33422316
0.33391222
0.33271109
0.33109163
0.33011938
0.32963048
0.32912249
0.3279341
0.32593691
0.32446664
0.32379058
0.32334688
0.32257243
0.32079032
0.31903197
0.31822777
0.31789854
0.31755196
0.31628614
0.3142387
0.31307555
0.31286401
0.31273834
0.31215816
0.31033662
0.3075649
0.30628971
0.30726613
0.30900635
0.30871631
0.30565384
0.30012801
0.29472142
0.2954484
0.30301091
0.31214653
0.31356872
0.30457605
0.2920821
0.27841788
0.27537309
0.28921709
0.3052019
0.31506158
0.3197011
0.3247957
0.32338589
0.31050779
0.29071844
0.26264931
0.25093052
0.27084984
0.29470115
0.30176884
0.29348519
0.28111358
0.27099125
0.27430294
0.2943949
0.31111878
0.3180886
0.3199612
0.3203959
0.3169648
0.30734995
0.28657551
0.25709993
0.25088382
0.27471476
0.29914798
0.31542533
0.32300618
0.32559416
0.32069053
0.30946019
0.28082873
0.23961131
0.23020593
0.26264402
0.29655717
0.31515602
0.31559642
0.30378171
0.28877456
0.2716594
0.26489893
0.27237579
0.27932786
0.27831128
0.27334887
0.26863999
0.2737142
0.28807608
0.30521279
0.30763608
0.28613018
0.24956127
0.21526993
0.22872775
0.27164678
0.30316318
0.31642717
0.31972364
0.32135602
0.31092746
0.28924043
0.2406133
0.20434412
0.23151774
0.26985977
0.29807956
0.31202468
0.31815979
0.31944206
0.31053755
0.28375804
0.21334114
0.15981452
0.20058765
0.25503098
0.29045735
0.30538018
0.3127401
0.31591832
0.31084639
0.29493261
0.25278604
0.20858181
0.20503959
0.23241629
0.25720337
0.26743408
0.26811627
0.26688889
0.26667569
0.27401035
0.28282913
0.28239116
0.26821341
0.23894368
0.21421271
0.21825946
0.2402328
0.26223893
0.28101153
0.28799048
0.27921169
0.26305286
0.24593082
0.23835699
0.24078769
0.24503184
0.24797505
0.24964176
0.25228517
0.25271152
0.24837669
0.23041733
0.17014274
0.070643349
0.063105847
0.15366362
0.21769283
0.25382532
0.27340931
0.2925051
0.30848204
0.31974362
0.31843762
0.30738352
0.27069416
0.24543893
0.14546391
)
;
    }
    Outlet
    {
        type            calculated;
        value           uniform 0;
    }
}


// ************************************************************************* //
