/*--------------------------------*- C++ -*----------------------------------*\
| =========                 |                                                 |
| \\      /  F ield         | OpenFOAM: The Open Source CFD Toolbox           |
|  \\    /   O peration     | Version:  2506                                  |
|   \\  /    A nd           | Website:  www.openfoam.com                      |
|    \\/     M anipulation  |                                                 |
\*---------------------------------------------------------------------------*/
FoamFile
{
    version     2.0;
    format      ascii;
    arch        "LSB;label=32;scalar=64";
    class       volScalarField;
    location    "2.9";
    object      nut;
}
// * * * * * * * * * * * * * * * * * * * * * * * * * * * * * * * * * * * * * //

dimensions      [0 2 -1 0 0 0 0];

internalField   nonuniform List<scalar> 
1376
(
0.039930509
0.046379598
0.057014349
0.070489884
0.086105424
0.10269601
0.11897137
0.040630233
0.047392113
0.058465455
0.072375461
0.088318747
0.10507194
0.12134953
0.13624542
0.14926301
0.16018288
0.16896481
0.17574566
0.18075085
0.18390128
0.18575348
0.18662956
0.18685465
0.18670862
0.18639844
0.041359815
0.048449441
0.059961864
0.07428218
0.090510684
0.10738397
0.1236349
0.13839232
0.1511878
0.16182323
0.17028226
0.17673458
0.18138115
0.18423329
0.18584519
0.1865547
0.18668348
0.18649541
0.18617571
0.18583211
0.18552585
0.1853199
0.18520529
0.18508652
0.18500389
0.18495986
0.18494108
0.0421269
0.049571699
0.061543464
0.076273284
0.092765652
0.10972798
0.12592034
0.14050991
0.1530574
0.16338815
0.17151206
0.17763298
0.18192722
0.18450064
0.18589465
0.18645755
0.1865044
0.18628212
0.18595531
0.18561736
0.18533126
0.18516373
0.18504902
0.18493149
0.18486085
0.18482441
0.18481068
0.18481346
0.18482753
0.18484882
0.18487591
0.1849088
0.18494748
0.18499212
0.042920436
0.050744787
0.063202475
0.078358264
0.095117853
0.1121611
0.12827591
0.14266861
0.15493276
0.16492356
0.17268378
0.17845834
0.18239488
0.18470356
0.18590004
0.18633612
0.1863155
0.18606652
0.18573481
0.18540501
0.18514883
0.18501094
0.18488853
0.18477907
0.18471935
0.18468979
0.18468089
0.18468683
0.18470283
0.18472574
0.18475468
0.18478964
0.18483022
0.18487652
0.184929
0.18498864
0.18505631
0.18513305
0.043713899
0.051933977
0.064901498
0.080508253
0.097555997
0.11469181
0.13072643
0.14490404
0.15685472
0.16647042
0.17383475
0.17924333
0.18280989
0.18485869
0.18587054
0.18619398
0.1861168
0.18584688
0.18551318
0.18519754
0.1849788
0.18485715
0.18472515
0.18462962
0.18457954
0.18455628
0.18455185
0.18456081
0.18457887
0.18460357
0.18463434
0.18467114
0.18471348
0.18476137
0.18481523
0.18487623
0.18494531
0.18502356
0.18511272
0.18521532
0.185334
0.18547273
0.044467528
0.053075544
0.066557453
0.082630867
0.099989078
0.11723789
0.13320345
0.14716485
0.15879046
0.16801331
0.17496367
0.17999625
0.18318794
0.18497928
0.18581515
0.18603564
0.1859094
0.18562301
0.18529143
0.1849966
0.18481856
0.18469715
0.18456451
0.1844833
0.18444165
0.18442417
0.18442392
0.18443572
0.18445576
0.18448214
0.18451479
0.1845533
0.18459715
0.18464647
0.18470173
0.18476401
0.18483437
0.18491403
0.18500458
0.18510862
0.18522883
0.18536899
0.18553423
0.18573176
0.045149974
0.054109278
0.068078669
0.084605734
0.102275
0.11964535
0.13555318
0.14931008
0.16062212
0.16946344
0.17601148
0.18068239
0.18351742
0.18506381
0.18573628
0.18586378
0.18569481
0.18539547
0.18507063
0.18480767
0.18466249
0.18453258
0.18440835
0.18434015
0.18430593
0.18429355
0.18429684
0.18431121
0.18433337
0.18436174
0.18439604
0.18443606
0.18448144
0.18453205
0.18458851
0.18465194
0.1847236
0.18480458
0.18489647
0.18500186
0.18512351
0.18526502
0.18543147
0.18563005
0.18587289
0.18618248
0.045758583
0.055015438
0.06941593
0.086348365
0.10429554
0.12177068
0.13761962
0.15118597
0.16221192
0.17070916
0.17689695
0.18124712
0.18377073
0.18510133
0.18563189
0.18567981
0.18547507
0.18516697
0.18485589
0.18463278
0.18450668
0.18436563
0.18425708
0.18419986
0.18417212
0.18416435
0.184171
0.18418779
0.18421187
0.184242
0.18427793
0.18431946
0.1843662
0.18441811
0.18447572
0.18454025
0.18461308
0.18469523
0.18478841
0.18489518
0.18501813
0.18516085
0.18532847
0.185528
0.18577196
0.18608313
0.18648348
0.18681068
0.046317532
0.055816989
0.070577949
0.087841522
0.10600321
0.12354093
0.13931431
0.15269959
0.16347289
0.17167779
0.17756665
0.18165218
0.18392743
0.18508385
0.18550104
0.185486
0.18525375
0.18494244
0.18465178
0.18447048
0.18434605
0.18420248
0.18411051
0.18406244
0.18404046
0.18403675
0.18404623
0.1840651
0.18409094
0.18412278
0.18416036
0.18420336
0.18425136
0.1843045
0.18436334
0.18442902
0.18450292
0.18458619
0.1846806
0.18478861
0.18491274
0.1850566
0.18522524
0.18542573
0.18567081
0.18598346
0.18638345
0.18669676
0.18388417
0.046869484
0.056583886
0.071646237
0.089163195
0.10746153
0.12500099
0.14066492
0.15386516
0.16440999
0.17236894
0.17802286
0.1818957
0.18398779
0.18501392
0.18534721
0.18528595
0.18503437
0.18472538
0.18446291
0.18431562
0.18418194
0.18404532
0.18396786
0.18392744
0.18391045
0.1839103
0.18392233
0.18394312
0.18397063
0.18400407
0.18404316
0.18408754
0.18413686
0.18419122
0.18425121
0.18431801
0.18439301
0.18447744
0.18457298
0.18468205
0.18480737
0.18495235
0.18512189
0.18532333
0.18556945
0.1858835
0.18628287
0.18658149
0.18360289
0.047452561
0.057396273
0.072730813
0.090440583
0.10880121
0.12627574
0.14178416
0.15477925
0.16510186
0.17284409
0.17830546
0.18200982
0.18396897
0.18490166
0.18517605
0.18508284
0.1848193
0.18451875
0.18429002
0.18416322
0.18401713
0.18389375
0.18382803
0.1837942
0.1837817
0.18378479
0.1837992
0.18382179
0.1838509
0.18388584
0.18392629
0.18397189
0.18402242
0.18407804
0.18413928
0.1842073
0.18428341
0.18436891
0.1844655
0.18457566
0.1847021
0.18484806
0.18501854
0.18522081
0.18546789
0.18578326
0.18618179
0.18646482
0.18331117
0.04808169
0.058299004
0.073908216
0.091778464
0.11014682
0.12749825
0.14280255
0.15556129
0.16565081
0.17318469
0.17847323
0.1820364
0.18389422
0.18475897
0.1849924
0.18487807
0.18460965
0.18432412
0.18413039
0.18400842
0.18385425
0.1837465
0.18369029
0.1836623
0.18365393
0.1836601
0.18367678
0.18370115
0.18373175
0.18376807
0.18380978
0.18385653
0.18390815
0.18396491
0.18402745
0.18409675
0.18417402
0.1842606
0.18435822
0.18446941
0.18459683
0.18474381
0.18491519
0.18511821
0.1853661
0.1856827
0.18608016
0.18634671
0.18300899
0.048751355
0.059293982
0.075203382
0.093231338
0.1115822
0.12877312
0.14383437
0.15632385
0.1661577
0.17347271
0.17858811
0.18201763
0.1837869
0.18459674
0.18479957
0.18467175
0.18440524
0.18413975
0.18397868
0.18384979
0.18369583
0.18360262
0.1835542
0.18353148
0.18352704
0.18353614
0.18355506
0.18358121
0.18361325
0.18365084
0.18369368
0.18374145
0.18379406
0.18385189
0.18391564
0.18398621
0.18406465
0.18415232
0.18425101
0.18436321
0.1844916
0.18463959
0.18481182
0.18501552
0.18526409
0.18558172
0.18597786
0.18622705
0.1826961
0.049447829
0.060353827
0.076599922
0.094808809
0.11314954
0.13017248
0.14497209
0.15716635
0.16671604
0.17378636
0.17871145
0.18199499
0.18367055
0.18442589
0.18460062
0.18446303
0.18420349
0.1839647
0.18382965
0.18368809
0.18354218
0.18346172
0.18341989
0.18340186
0.18340098
0.18341286
0.18343399
0.18346193
0.18349544
0.1835342
0.18357803
0.18362671
0.18368024
0.18373905
0.18380391
0.18387567
0.18395528
0.18404404
0.18414381
0.18425702
0.18438637
0.18453528
0.1847083
0.18491264
0.18516182
0.18548029
0.18587476
0.18610566
0.18237223
0.050160407
0.061442409
0.078064963
0.096500278
0.1148702
0.13175012
0.1462935
0.15817804
0.16741339
0.17420203
0.17890567
0.18200747
0.18356959
0.18425888
0.18440045
0.18425293
0.18400459
0.18379814
0.18367907
0.18352369
0.18339278
0.1833234
0.18328755
0.1832737
0.18327598
0.18329042
0.18331364
0.18334327
0.18337815
0.18341803
0.18346283
0.18351238
0.18356676
0.18362649
0.18369234
0.18376517
0.18384589
0.18393573
0.18403655
0.18415072
0.184281
0.18443075
0.18460455
0.1848095
0.18505928
0.18537837
0.18577083
0.18598246
0.18203696
0.050885269
0.062526714
0.079558837
0.098278343
0.11674189
0.13353245
0.14784884
0.15942295
0.16831673
0.17478188
0.1792237
0.18208735
0.18350625
0.18410813
0.18420527
0.18404501
0.18381129
0.1836393
0.18352177
0.18335936
0.18324693
0.18318736
0.18315707
0.18314708
0.18315236
0.18316909
0.18319409
0.18322525
0.18326147
0.18330244
0.18334809
0.18339845
0.18345368
0.18351425
0.18358097
0.18365474
0.18373643
0.18382727
0.18392912
0.18404428
0.18417548
0.18432596
0.18450041
0.18470598
0.18495641
0.18527597
0.18566601
0.18585736
0.1816898
0.051626688
0.063593701
0.08105235
0.10010628
0.11873075
0.13549648
0.14962932
0.16090526
0.16943958
0.17554401
0.17968263
0.1822487
0.1834914
0.1839816
0.18402119
0.18384438
0.18362579
0.18348553
0.18335688
0.18319852
0.18310386
0.18305316
0.18302829
0.18302207
0.18303008
0.18304886
0.18307556
0.18310812
0.18314545
0.18318729
0.18323374
0.18328487
0.18334091
0.18340228
0.18346983
0.18354442
0.18362697
0.18371872
0.18382157
0.18393777
0.18406984
0.18422092
0.18439584
0.18460201
0.18485322
0.18517315
0.18556031
0.18573028
0.18132974
0.052392182
0.064655861
0.082536428
0.1019457
0.12077281
0.13756245
0.15155126
0.16254793
0.1707187
0.17644046
0.18024722
0.18247647
0.18351704
0.18387763
0.18385008
0.18365383
0.18345187
0.18333407
0.18318804
0.18304233
0.18296305
0.18292041
0.18290078
0.1828982
0.18290884
0.18292961
0.18295788
0.18299168
0.18303011
0.18307281
0.18311994
0.18317176
0.18322852
0.18329067
0.18335897
0.18343429
0.18351758
0.18361017
0.18371393
0.18383105
0.18396391
0.18411567
0.18429106
0.18449763
0.18474961
0.18506991
0.18545382
0.18560106
0.18095553
0.053180623
0.065732596
0.084011301
0.1037562
0.12278103
0.13960437
0.15346657
0.16420114
0.17201979
0.17736204
0.18083532
0.18272482
0.18355684
0.18378442
0.1836886
0.18347449
0.18329208
0.18318162
0.18301897
0.18289116
0.18282449
0.18278909
0.18277441
0.18277535
0.18278847
0.182811
0.18284065
0.18287566
0.18291509
0.18295867
0.18300659
0.18305909
0.18311651
0.18317935
0.18324832
0.18332431
0.18340833
0.1835017
0.18360625
0.18372415
0.18385779
0.18401022
0.18418603
0.18439291
0.18464544
0.18496621
0.18534664
0.18546949
0.18056626
0.05397817
0.066833606
0.0854757
0.1055029
0.1246753
0.14149829
0.15522084
0.1657008
0.17319
0.17818171
0.18135041
0.18293474
0.18357676
0.1836853
0.18353076
0.1833057
0.18314349
0.18302536
0.18285503
0.18274477
0.18268803
0.18265893
0.18264886
0.18265315
0.18266871
0.18269298
0.18272389
0.18276001
0.18280042
0.18284489
0.18289351
0.18294664
0.18300472
0.18306827
0.18313792
0.18321453
0.1832992
0.18339326
0.18349852
0.18361708
0.18375136
0.18390445
0.18408073
0.18428787
0.18454083
0.18486205
0.1852388
0.18533534
0.18016179
0.05476703
0.067962343
0.08693307
0.10717293
0.1264145
0.1431715
0.15671632
0.16693742
0.17412308
0.17880824
0.18172254
0.1830604
0.18355005
0.18356668
0.18337109
0.18314407
0.18300065
0.18286678
0.18269802
0.18260293
0.18255403
0.1825303
0.18252434
0.18253175
0.18254957
0.18257544
0.18260755
0.18264465
0.18268599
0.18273124
0.18278055
0.1828344
0.18289322
0.18295746
0.18302775
0.18310494
0.18319014
0.18328481
0.18339071
0.18350983
0.18364464
0.18379825
0.18397496
0.18418244
0.18443591
0.18475745
0.18513029
0.1851984
0.17974258
0.05552939
0.069107546
0.088379773
0.10876746
0.12799947
0.14461971
0.15794145
0.16789255
0.17479652
0.17922659
0.18192925
0.18308714
0.1834675
0.18342302
0.18320568
0.1829867
0.18285965
0.1827075
0.1825476
0.18246511
0.18242256
0.18240342
0.18240104
0.18241122
0.18243103
0.18245831
0.18249148
0.18252947
0.18257165
0.18261775
0.18266789
0.18272239
0.18278177
0.18284664
0.18291759
0.18299542
0.18308117
0.18317636
0.18328277
0.18340235
0.18353758
0.18369158
0.18386872
0.18407662
0.18433068
0.18465255
0.18502107
0.18505874
0.17930912
0.056246623
0.070233389
0.089790845
0.11028299
0.12945034
0.1458829
0.1589482
0.16862063
0.17526011
0.17947621
0.18199949
0.18303078
0.18333765
0.18325759
0.18303479
0.18283372
0.1827163
0.18254849
0.18240255
0.18233058
0.18229346
0.18227831
0.18227905
0.18229162
0.18231315
0.18234166
0.18237579
0.1824146
0.18245753
0.18250436
0.18255516
0.18261036
0.18267047
0.18273599
0.18280756
0.18288598
0.18297227
0.18306796
0.18317476
0.1832947
0.1834303
0.18358456
0.18376195
0.18397034
0.18422509
0.18454731
0.18491125
0.18491668
0.17886197
0.056907986
0.071299568
0.091136646
0.11171891
0.1308016
0.14702707
0.1598231
0.16921497
0.17560177
0.17962548
0.18198914
0.18292431
0.1831792
0.18307944
0.18286219
0.18268458
0.18256959
0.18238966
0.18226169
0.18219861
0.18216642
0.18215487
0.18215837
0.18217303
0.18219606
0.18222565
0.18226062
0.18230017
0.18234381
0.18239132
0.1824428
0.18249864
0.18255936
0.18262554
0.1826977
0.18277664
0.18286346
0.18295957
0.18306674
0.18318703
0.18332285
0.1834773
0.18365484
0.18386359
0.18411912
0.18444168
0.18480077
0.18477254
0.17840174
0.13210064
0.14812581
0.16065598
0.16976939
0.17590782
0.17974434
0.18195181
0.18280087
0.18301125
0.18289859
0.18269244
0.18253901
0.18241698
0.18223409
0.18212391
0.18206861
0.18204109
0.18203288
0.18203887
0.18205539
0.18207981
0.18211037
0.18214608
0.1821863
0.18223061
0.18227882
0.18233094
0.18238736
0.18244866
0.18251535
0.18258803
0.18266748
0.18275479
0.18285131
0.18295879
0.18307933
0.18321536
0.1833699
0.18354749
0.18375647
0.18401274
0.18433562
0.18468958
0.18462645
0.17792852
0.18192154
0.18268196
0.18284639
0.18272189
0.18252791
0.18239564
0.18225951
0.18208261
0.18198851
0.18194028
0.18191725
0.18191217
0.18192039
0.18193856
0.18196425
0.18199587
0.1820324
0.18207325
0.18211813
0.18216688
0.1822196
0.18227661
0.1823384
0.18240553
0.18247864
0.18255854
0.18264628
0.18274322
0.18285101
0.18297172
0.18310787
0.1832625
0.18344003
0.18364912
0.18390604
0.18422912
0.18457761
0.18447809
0.17744238
0.18225371
0.18209907
0.18193518
0.18185484
0.18181314
0.18179456
0.18179263
0.18180302
0.1818227
0.18184953
0.18188201
0.18191928
0.18196083
0.18200634
0.18205564
0.18210887
0.18216635
0.18222854
0.18229605
0.18236954
0.18244983
0.18253797
0.18263527
0.18274333
0.1828642
0.1830004
0.18315499
0.18333247
0.18354163
0.18379911
0.18412221
0.18446483
0.18432679
0.17694258
0.18168704
0.18167279
0.18167396
0.1816865
0.18170766
0.18173556
0.1817689
0.18180688
0.18184901
0.18189504
0.18194488
0.18199862
0.18205652
0.18211903
0.18218681
0.18226062
0.18234129
0.1824298
0.1825274
0.18263568
0.18275668
0.18289289
0.18304734
0.18322468
0.18343395
0.18369196
0.18401491
0.18435108
0.18417178
0.1764281
0.18159329
0.18162223
0.18165637
0.181695
0.18173769
0.18178421
0.18183449
0.18188864
0.18194695
0.1820098
0.18207782
0.18215183
0.18223277
0.18232163
0.18241956
0.18252806
0.18264913
0.18278527
0.1829395
0.18311662
0.18332595
0.18358452
0.18390715
0.1842363
0.18401249
0.17589792
0.18162671
0.1816737
0.18172442
0.18177895
0.18183754
0.18190068
0.18196898
0.18204322
0.18212435
0.18221346
0.18231166
0.18242039
0.18254153
0.18267752
0.18283145
0.18300824
0.18321754
0.1834766
0.18379876
0.18412034
0.18384882
0.17535137
0.18166935
0.18172828
0.18179168
0.18186022
0.1819347
0.18201607
0.18210536
0.18220373
0.18231261
0.18243381
0.18256961
0.18272317
0.18289955
0.18310868
0.18336807
0.18368954
0.18400306
0.18368083
0.1747883
0.18175154
0.18182625
0.18190783
0.18199733
0.18209584
0.18220481
0.18232597
0.18246156
0.18261468
0.18279056
0.18299947
0.18325897
0.18357947
0.18388441
0.18350835
0.17420905
0.18179972
0.18188936
0.18198802
0.18209703
0.18221812
0.18235345
0.18250608
0.1826814
0.18289002
0.18314947
0.18346867
0.18376438
0.18333111
0.17361407
0.18198932
0.18211032
0.18224536
0.18239749
0.1825722
0.18278048
0.18303979
0.18335735
0.18364308
0.18314871
0.17300386
0.1821373
0.18228893
0.18246305
0.18267101
0.18293012
0.18324572
0.18352057
0.18296051
0.17237906
0.18235396
0.18256175
0.18282058
0.18313389
0.18339688
0.18276572
0.17175382
0.18245265
0.18271119
0.18302191
0.18327198
0.182564
0.17109899
0.18290973
0.18314558
0.18235614
0.17061152
0.1830177
0.18214003
0.17017319
0.16902427
0.040021101
)
;

boundaryField
{
    Side
    {
        type            empty;
    }
    Inlet
    {
        type            calculated;
        value           nonuniform List<scalar> 
32
(
0.19920322
0.19920484
0.19920533
0.19920473
0.19920444
0.19920465
0.19920441
0.19920402
0.19920311
0.19920094
0.19919737
0.19919351
0.19919124
0.19919072
0.19919038
0.1991899
0.19919006
0.19919127
0.19919371
0.19919616
0.19919767
0.1991983
0.19919772
0.19919742
0.19919827
0.19919973
0.19920117
0.1992022
0.1992031
0.19920429
0.19920587
0.19920828
)
;
    }
    Airfoil
    {
        type            nutkWallFunction;
        blending        stepwise;
        value           nonuniform List<scalar> 0();
    }
    Outlet
    {
        type            calculated;
        value           nonuniform List<scalar> 0();
    }
    procBoundary11to3
    {
        type            processor;
        value           uniform 0.039332856;
    }
    procBoundary11to4
    {
        type            processor;
        value           nonuniform List<scalar> 
26
(
0.040719799
0.041436876
0.042175893
0.042934279
0.04369765
0.044448425
0.045173964
0.045869679
0.046542868
0.047196561
0.047825361
0.048426656
0.049008813
0.049595069
0.05022218
0.050927003
0.051724156
0.052589212
0.053469077
0.054302635
0.055038
0.055650696
0.056158029
0.056611725
0.046554673
0.040719799
)
;
    }
    procBoundary11to10
    {
        type            processor;
        value           nonuniform List<scalar> 
58
(
0.039240259
0.045367967
0.05553782
0.06853175
0.083763309
0.10014873
0.1164076
0.13399368
0.13399368
0.14723421
0.15844766
0.1675663
0.17468859
0.18006533
0.18353043
0.18563713
0.18669186
0.18702263
0.18692445
0.18662545
0.18605026
0.18605026
0.1857286
0.18548597
0.18535623
0.18524366
0.18514897
0.18509649
0.18507239
0.18494058
0.18494058
0.18495281
0.18497253
0.18499776
0.18502865
0.18506526
0.18510802
0.18504307
0.18504307
0.18510121
0.18516736
0.18524249
0.18522076
0.18522076
0.18532189
0.18543898
0.18557616
0.18563669
0.18563669
0.18583309
0.18597351
0.18597351
0.18628145
0.18658291
0.18658291
0.18692333
0.18415453
0.18415453
)
;
    }
    procBoundary11to12
    {
        type            processor;
        value           nonuniform List<scalar> 
65
(
0.057516592
0.072286917
0.092408304
0.11309222
0.11309222
0.13338592
0.14923266
0.16150873
0.17034655
0.17623471
0.17987935
0.17987935
0.18190843
0.18257406
0.18268888
0.18255165
0.18236815
0.18236815
0.18210999
0.1819375
0.18179152
0.18172268
0.18172268
0.1815619
0.18155176
0.18155594
0.18157064
0.18157064
0.18147943
0.18150935
0.18154422
0.18158347
0.18158347
0.18151592
0.18156332
0.18161443
0.18161443
0.18155984
0.18161903
0.18168273
0.18168273
0.18164293
0.18171791
0.18171791
0.1816917
0.18178152
0.18188028
0.18188028
0.18188166
0.18200252
0.18200252
0.18202917
0.18218026
0.18218026
0.18224507
0.18224507
0.18234361
0.18260194
0.18260194
0.18279732
0.18279732
0.18288867
0.18191161
0.18191161
0.16814419
)
;
    }
}


// ************************************************************************* //
