/*--------------------------------*- C++ -*----------------------------------*\
| =========                 |                                                 |
| \\      /  F ield         | OpenFOAM: The Open Source CFD Toolbox           |
|  \\    /   O peration     | Version:  2506                                  |
|   \\  /    A nd           | Website:  www.openfoam.com                      |
|    \\/     M anipulation  |                                                 |
\*---------------------------------------------------------------------------*/
FoamFile
{
    version     2.0;
    format      ascii;
    arch        "LSB;label=32;scalar=64";
    class       volScalarField;
    location    "0.0265";
    object      k;
}
// * * * * * * * * * * * * * * * * * * * * * * * * * * * * * * * * * * * * * //

dimensions      [0 2 -2 0 0 0 0];

internalField   nonuniform List<scalar> 
13761
(
0.0593735
0.059503999
0.059306989
0.059205322
0.059213371
0.058962072
0.058821085
0.058881112
0.058814869
0.058783697
0.058876591
0.058997343
0.058955532
0.05853367
0.057812094
0.056967583
0.056515269
0.056557931
0.056771919
0.056946943
0.05690817
0.056929628
0.057180483
0.057617923
0.058013648
0.05843672
0.059126465
0.059737553
0.060162841
0.060617321
0.061139066
0.061638369
0.06181985
0.061053877
0.059794014
0.059501878
0.060974217
0.063236111
0.063935503
0.063825324
0.064616884
0.066274496
0.067751042
0.068897356
0.070020576
0.070954805
0.071611785
0.072287269
0.073189581
0.074216439
0.07518663
0.076118061
0.077230483
0.07870852
0.080529877
0.082436853
0.084184118
0.085580331
0.087295724
0.20075229
11.812466
50.043981
84.645
111.83627
133.79847
151.75874
166.31662
177.96475
186.98262
193.85318
198.99488
202.55662
204.74249
205.75729
205.77673
205.00412
203.52305
201.44734
198.87639
195.89585
192.57507
188.96715
185.13266
181.12518
176.95664
172.64135
168.18804
163.59197
158.83713
153.89204
148.7048
143.20123
137.28981
130.84967
123.66882
115.32888
105.13339
92.079641
74.979761
53.35333
29.983932
11.907669
3.0448884
0.49882917
0.83770294
0.059375864
0.059513084
0.059316611
0.059213231
0.059223323
0.058974132
0.058829248
0.05888956
0.058825357
0.058789004
0.058876794
0.058995685
0.058953871
0.058531822
0.057811324
0.056966151
0.05651099
0.056549386
0.056749002
0.056912837
0.056862356
0.05687633
0.057110308
0.057527909
0.057910648
0.058329181
0.05901726
0.059625606
0.060041904
0.060476557
0.060966586
0.061435312
0.061582595
0.060806
0.059506083
0.059177723
0.06047111
0.062683895
0.063408247
0.063372917
0.064119458
0.065795497
0.067350409
0.068576272
0.069748113
0.070776148
0.071544594
0.072288667
0.073221545
0.074291446
0.075320407
0.076307615
0.077470255
0.07899978
0.080849371
0.082757458
0.084459906
0.085886221
0.095924644
0.7856184
14.864208
55.284721
89.279654
116.22627
138.22966
156.21881
170.76284
182.34839
191.44515
198.38063
203.44966
206.8924
208.91365
209.70848
209.45963
208.3676
206.52464
204.05284
201.0533
197.61111
193.80236
189.69278
185.30826
180.66251
175.81361
170.79639
165.62983
160.32159
154.87063
149.26445
143.47132
137.43137
131.04221
124.13201
116.42365
107.48364
96.644301
82.9539
65.480017
44.452245
23.555803
8.9280988
2.2324645
0.3414103
0.44550802
0.059522392
0.059326461
0.059221061
0.059233165
0.058986701
0.058837372
0.058897693
0.058835609
0.058798997
0.058881503
0.058996591
0.058961608
0.058550181
0.05784426
0.057006053
0.056542912
0.056569203
0.05674722
0.056906392
0.056849436
0.056859186
0.057077248
0.057477736
0.05785129
0.058268397
0.058962849
0.059584714
0.06001461
0.060459186
0.060945962
0.061413148
0.061561525
0.060806855
0.059493682
0.059136428
0.06031506
0.062506425
0.063271707
0.063265787
0.063937633
0.065594689
0.067185109
0.068437582
0.06962142
0.070696928
0.071505064
0.072266591
0.073220166
0.074325002
0.075414213
0.076448009
0.077622
0.07915056
0.080986321
0.082881194
0.084565838
0.085956813
0.093235213
0.62467079
13.08661
54.555152
88.777995
115.94817
138.23235
156.36488
171.01446
182.73741
191.93852
198.93727
204.06174
207.56317
209.63119
210.45042
210.18462
209.02532
207.11441
204.57498
201.49975
197.96663
194.04394
189.79315
185.27355
180.53524
175.6035
170.49813
165.23066
159.80023
154.19207
148.38085
142.33072
135.9746
129.20408
121.85024
113.65202
104.2058
92.913284
78.998969
61.713121
41.457066
21.804719
8.2456589
2.0647044
0.32504591
0.47919881
0.059531502
0.059336516
0.059229177
0.059242989
0.05899961
0.058845911
0.058906294
0.058846285
0.058809077
0.05889037
0.059003677
0.058976915
0.058573868
0.057879104
0.057048475
0.056583483
0.056607699
0.056758945
0.05690578
0.056845685
0.056853155
0.057056038
0.05743912
0.057802091
0.058215435
0.058915876
0.059555133
0.060003549
0.060459607
0.060949187
0.061432973
0.061618399
0.061002436
0.059676989
0.059229808
0.060281454
0.062458018
0.063260021
0.063282588
0.063911459
0.065561468
0.067162814
0.068424121
0.069610923
0.070708216
0.071575373
0.072373914
0.073341504
0.074500043
0.075659055
0.07673222
0.077911314
0.079427468
0.08123854
0.083115024
0.084778533
0.086144985
0.092017857
0.49956678
11.160105
51.414161
86.504403
113.95216
136.65286
155.37761
170.60505
182.76123
192.18716
199.35659
204.64499
208.35767
210.68398
211.80128
211.85427
211.00362
209.35789
207.02871
204.11529
200.70729
196.88003
192.69469
188.20263
183.44796
178.46695
173.289
167.9351
162.41704
156.74122
150.89318
144.81928
138.43133
131.61498
124.18646
115.86228
106.21547
94.598433
80.183984
62.31079
41.563924
21.687265
8.1539358
2.0353802
0.31250217
0.41510425
0.059539459
0.059346329
0.05923729
0.059252651
0.059012631
0.058854499
0.058914737
0.058857082
0.058818847
0.058898785
0.05901242
0.058992084
0.058597867
0.057914417
0.057090516
0.056622078
0.056643613
0.056787637
0.056911088
0.056845463
0.056852017
0.057042164
0.057408082
0.057759008
0.058165195
0.058867978
0.059524432
0.059994173
0.060470633
0.060975465
0.061487727
0.061716149
0.061218373
0.059918101
0.059421843
0.060276175
0.062438396
0.063337302
0.063474191
0.063946528
0.065579431
0.067216774
0.068515898
0.06971836
0.070896233
0.071865189
0.072703523
0.07367148
0.074843568
0.076031907
0.077133945
0.078317517
0.079813173
0.081597474
0.083452771
0.085100722
0.086452095
0.091167163
0.39986336
9.2894213
47.865344
83.965262
111.72817
134.85638
153.90625
169.39669
181.79125
191.51252
198.95844
204.46965
208.3543
210.84755
212.12986
212.34205
211.61379
210.06719
207.82311
204.98592
201.64421
197.86849
193.71208
189.22251
184.4439
179.41441
174.16368
168.70919
163.05608
157.20062
151.1268
144.80015
138.16021
131.084
123.38675
114.8052
104.93132
93.177686
78.773336
61.05719
40.602185
21.122072
7.9270073
1.977746
0.30439757
0.40889719
0.059545915
0.059355676
0.059245491
0.059262248
0.059025736
0.058863183
0.058923147
0.058867815
0.058828549
0.058906771
0.059020352
0.059006944
0.05862321
0.05795216
0.057135536
0.056663108
0.056680768
0.056817732
0.056921348
0.056849957
0.056853459
0.057032846
0.057382544
0.057720813
0.05811754
0.058819041
0.059490705
0.059981995
0.060479589
0.061003399
0.06153498
0.061797257
0.061404005
0.0601346
0.059592226
0.060277073
0.062421638
0.063462574
0.063688554
0.064072038
0.065672413
0.067352024
0.068699354
0.069934291
0.071169429
0.072200583
0.073073984
0.074047167
0.07522807
0.076448576
0.077591151
0.078788608
0.080266615
0.082025953
0.083864222
0.085508152
0.086843942
0.090549211
0.31452987
7.4401835
43.41115
80.940122
108.98638
132.45908
151.91214
167.82951
180.67516
190.87008
198.77161
204.65104
208.76303
211.42856
212.84608
213.19943
212.64235
211.29857
209.27072
206.64484
203.48524
199.84978
195.79916
191.38904
186.66714
181.67489
176.44332
170.98766
165.31219
159.41406
153.27668
146.86076
140.09604
132.86965
125.0054
116.219
106.09671
94.050216
79.317595
61.284359
40.595263
21.030647
7.8701499
1.9607448
0.29860446
0.38242996
0.059550099
0.059364544
0.059253828
0.059271837
0.059038924
0.058871952
0.058931485
0.058878541
0.058838011
0.05891454
0.059028149
0.059021511
0.058648218
0.057989365
0.057179803
0.056703165
0.056717806
0.056847502
0.056929983
0.056857637
0.056858905
0.057025719
0.057360054
0.057685185
0.058070389
0.058766864
0.059451555
0.059963792
0.060482913
0.061025005
0.061579269
0.061879239
0.061593914
0.060369505
0.059769424
0.06029329
0.062397918
0.063565951
0.063874879
0.064211699
0.065774099
0.067470334
0.068864965
0.070140646
0.07142432
0.072522823
0.073442641
0.07442796
0.07562047
0.076878273
0.078068921
0.07928858
0.080751164
0.082485602
0.084307571
0.085952724
0.087280152
0.090143464
0.24772495
5.8432554
38.754066
77.579168
106.05255
130.04222
149.97014
166.27687
179.42092
189.85141
197.97457
204.13507
208.61351
211.63951
213.39095
214.03179
213.69618
212.50394
210.56137
207.96635
204.80923
201.17337
197.12927
192.73143
188.02011
183.01979
177.75048
172.23216
166.47584
160.48183
154.23589
147.70342
140.81854
133.46905
125.47816
116.57563
106.35405
94.219481
79.414763
61.310441
40.56517
20.987561
7.8462305
1.953738
0.29662168
0.37449465
0.059373289
0.059262316
0.059281409
0.059052243
0.058880806
0.058939677
0.058889271
0.058847418
0.058921958
0.059035688
0.05903526
0.05867286
0.058026302
0.057223682
0.056742449
0.056753992
0.056878429
0.056937562
0.056864482
0.056864378
0.057019764
0.057339785
0.057651481
0.058023317
0.058710967
0.05940587
0.059937736
0.060482769
0.061038604
0.061618943
0.061961092
0.061778923
0.060621179
0.059962204
0.060339018
0.06236398
0.063659655
0.064057864
0.06435996
0.065866464
0.067568626
0.069012708
0.070335304
0.071672132
0.072848959
0.07382455
0.074825671
0.076028227
0.077317962
0.078555797
0.079804285
0.081256085
0.082965494
0.084772461
0.086424848
0.08774718
0.089942373
0.19329061
4.3579699
33.818385
73.871618
102.7959
127.25598
147.67764
164.47382
178.0795
188.92212
197.39382
203.83962
208.55449
211.78193
213.74536
214.60232
214.49773
213.54732
211.85109
209.49449
206.55214
203.09038
199.16912
194.84271
190.16054
185.16551
179.89472
174.37614
168.62301
162.63357
156.38643
149.83113
142.88599
135.43011
127.28151
118.17031
107.69831
95.286992
80.196142
61.830237
40.858304
21.114966
7.8869421
1.9627376
0.29636627
0.36445257
0.059382655
0.059270829
0.059290924
0.059065717
0.058889749
0.05894762
0.058899974
0.058856805
0.058929195
0.059043053
0.059048239
0.058697023
0.058062755
0.057266932
0.056780796
0.056789337
0.056910379
0.056945165
0.056871065
0.056869419
0.057014649
0.057321647
0.057619938
0.057977033
0.058652423
0.05935445
0.059904059
0.060469545
0.061044422
0.061649699
0.062038511
0.061950146
0.060881382
0.060163411
0.060408296
0.062319714
0.063740076
0.064234418
0.064531891
0.065959635
0.067657135
0.069151602
0.070526275
0.071915267
0.073172368
0.074212052
0.075234009
0.076441481
0.077756649
0.079040293
0.080323931
0.081771448
0.083457899
0.085250259
0.086908584
0.088238556
0.090073051
0.15697842
3.1971604
28.901027
69.750262
99.354226
124.38581
145.34104
162.60228
176.60541
187.79468
196.58121
203.32301
208.3204
211.81987
214.03572
215.11962
215.22592
214.4683
212.94838
210.75426
207.96287
204.64181
200.85037
196.64016
192.05587
187.13425
181.90526
176.3901
170.59879
164.53143
158.17324
151.48605
144.40092
136.80628
128.52731
119.29615
108.70971
96.178879
80.943581
62.393257
41.215197
21.286982
7.9467155
1.976719
0.29733393
0.35880333
0.059393422
0.059279045
0.059300412
0.059079369
0.058898796
0.058955257
0.058910586
0.05886615
0.058936349
0.059050228
0.059060491
0.058720821
0.058098831
0.057309722
0.056818359
0.056823557
0.056943589
0.056953993
0.05687815
0.056874387
0.057010322
0.057305677
0.057590863
0.057932185
0.058592231
0.059298104
0.059863175
0.060444584
0.061045415
0.0616701
0.062111842
0.062106669
0.061151116
0.060373133
0.060494078
0.062267925
0.063799942
0.064399003
0.064723655
0.06605413
0.067734695
0.069275959
0.070705865
0.072147381
0.073485943
0.074597317
0.07564652
0.076855222
0.078190485
0.079516143
0.080838957
0.082290753
0.08395637
0.085734432
0.087402794
0.088745785
0.090310243
0.13094656
2.2306289
24.04818
65.224923
95.688634
121.28395
142.8023
160.5919
175.06501
186.65814
195.7875
202.82376
208.08251
211.82563
214.25514
215.56196
215.88524
215.34047
214.02379
212.02029
209.40378
206.2395
202.58549
198.4932
194.00801
189.16785
184.00389
178.53819
172.78089
166.73124
160.37265
153.66434
146.53412
138.8667
130.48378
121.11609
110.36202
97.635765
82.181396
63.383104
41.913473
21.672425
8.0950482
2.0135364
0.3017353
0.35713409
0.059405031
0.059286725
0.059309938
0.059093232
0.058907986
0.058962593
0.058921047
0.058875417
0.058943411
0.059057139
0.059072082
0.058744225
0.058134589
0.057352227
0.056855261
0.056856193
0.056978374
0.056966054
0.056886481
0.056879143
0.057006805
0.057291922
0.057564649
0.057889462
0.058531386
0.059237791
0.059816146
0.060414449
0.061036721
0.061680521
0.062180429
0.0622482
0.061428649
0.060590859
0.060600865
0.062215416
0.063837766
0.064551454
0.064929515
0.066151945
0.067804284
0.069385105
0.070869965
0.072365314
0.073786356
0.074978026
0.076063801
0.07727145
0.078618907
0.07998144
0.081345244
0.082809318
0.084459089
0.08622264
0.08789711
0.089262663
0.090667611
0.11534084
1.5327398
19.49439
60.237665
91.846944
118.03806
140.14557
158.47301
173.41437
185.40683
194.87665
202.20746
207.7271
211.70741
214.3718
215.89364
216.42359
216.08384
214.96528
213.15198
210.71529
207.71772
204.2147
200.2555
195.88387
191.1367
186.04469
180.62992
174.90291
168.86349
162.49567
155.75916
148.58201
140.84881
132.38073
122.90738
112.02319
99.136921
83.485706
64.442534
42.667125
22.08944
8.2555918
2.0533715
0.30665101
0.3564829
0.059293967
0.059319446
0.059107338
0.058917368
0.058969683
0.058931361
0.058884615
0.058950302
0.059063778
0.059083056
0.058767209
0.058170017
0.057394581
0.056891622
0.05688705
0.057014161
0.056983258
0.056896757
0.056883609
0.057004093
0.057280332
0.057541453
0.057849276
0.058470859
0.059174892
0.059764526
0.060377845
0.061016675
0.061684035
0.062240683
0.062377329
0.061710595
0.060817709
0.060733168
0.062168117
0.063855638
0.064691664
0.06514412
0.066257411
0.067870136
0.069480402
0.07101833
0.072569947
0.074072057
0.075350288
0.07648321
0.077691247
0.079042946
0.080436027
0.081840014
0.083324513
0.084964669
0.086715207
0.088398427
0.089790668
0.091091267
0.1053712
1.0119878
15.323032
54.87274
87.877501
114.64714
137.37121
156.28051
171.73377
184.15794
193.98533
201.61362
207.387
211.59204
214.45727
216.17903
216.9007
216.75524
215.82867
214.20457
211.95175
209.12973
205.79107
201.98243
197.74535
193.11507
188.12108
182.78467
177.11592
171.11436
164.76389
158.02409
150.82283
143.04435
134.50889
124.94267
113.93805
100.89995
85.055997
65.758691
43.637976
22.64517
8.4742557
2.1082214
0.31397975
0.35960686
0.059301211
0.059328738
0.059121704
0.058926982
0.058976576
0.058941555
0.058893752
0.058957006
0.059070179
0.059093479
0.058789736
0.058205035
0.057436798
0.056927556
0.056916421
0.057049447
0.057006006
0.056908766
0.05688776
0.057002035
0.057270679
0.057521248
0.057812056
0.058411755
0.059110971
0.059709754
0.060336445
0.06099422
0.061683965
0.062290171
0.062495413
0.061988949
0.061061279
0.060890566
0.062130825
0.063860555
0.064819734
0.065360466
0.066376555
0.067938269
0.069565336
0.071151079
0.072759731
0.074340399
0.075710681
0.076903177
0.07811684
0.079464253
0.08088074
0.082321956
0.083831486
0.085470452
0.087210754
0.088900105
0.090326622
0.091576264
0.10006315
0.66537365
11.674528
49.149365
83.750785
111.10239
134.47483
153.99468
169.98331
182.85692
193.05339
200.98363
207.00766
211.42822
214.49302
216.39718
217.2972
217.3295
216.58273
215.13957
213.0669
210.42155
207.25302
203.60483
199.51572
195.01854
190.14082
184.90239
179.31222
173.36898
167.05581
160.33159
153.12335
145.31375
136.71989
127.06656
115.94336
102.75029
86.705142
67.140272
44.65678
23.228883
8.7041058
2.1658842
0.32173811
0.36329639
0.05930914
0.059337542
0.0591363
0.058936813
0.058983341
0.058951651
0.05890286
0.058963567
0.059076414
0.059103408
0.058811829
0.058239663
0.05747885
0.056963167
0.056944609
0.057083318
0.057033083
0.056921879
0.056891616
0.057000426
0.057262626
0.057503856
0.057778146
0.05835496
0.059047154
0.059652716
0.06029098
0.060966392
0.06167127
0.062328383
0.06260302
0.062256415
0.061327605
0.061073445
0.062106662
0.063847033
0.064933449
0.065571777
0.066512914
0.068012493
0.069642844
0.071269811
0.072935346
0.074590636
0.076054811
0.077318254
0.078548004
0.079886498
0.081316939
0.082790626
0.084328092
0.085973572
0.087709613
0.089408852
0.090870201
0.092091101
0.097081762
0.43212056
8.5958634
43.231427
79.503661
107.46098
131.51732
151.68827
168.25015
181.60368
192.18943
200.43055
206.70345
211.32783
214.56554
216.63005
217.68296
217.86548
217.27603
215.99496
214.08878
211.61238
208.6123
205.12871
201.197
196.84692
192.10333
186.98387
181.49576
175.63625
169.38725
162.7065
155.51918
147.70552
139.08144
129.36945
118.15536
104.83219
88.603342
68.771495
45.892238
23.953598
8.9936059
2.238968
0.3319204
0.37047604
0.059318489
0.059345661
0.059151032
0.058946886
0.058990052
0.058961635
0.05891196
0.058970032
0.059082555
0.059112891
0.058833576
0.058273888
0.057520723
0.056998533
0.056971761
0.057115367
0.057063435
0.056935972
0.056895253
0.056999019
0.057255828
0.057489173
0.057747844
0.058301025
0.05898417
0.059594039
0.060241556
0.060933327
0.061653137
0.062354517
0.062702454
0.062507866
0.061615698
0.061284138
0.06209624
0.063795359
0.065027227
0.065773165
0.066669723
0.06809833
0.069717788
0.071376509
0.073095175
0.074820453
0.076379049
0.07772516
0.078984732
0.080312278
0.081747004
0.083246772
0.084810413
0.086469034
0.088207835
0.089918325
0.091419605
0.092642689
0.09583916
0.28891883
6.1065955
37.200401
75.023848
103.66178
128.44383
149.30124
166.47062
180.33571
191.33717
199.90773
206.4386
211.26681
214.67007
216.87513
218.05804
218.36542
217.90765
216.76496
215.00552
212.68346
209.84304
206.52121
202.74968
198.5545
193.95701
188.97162
183.60275
177.84512
171.67829
165.05714
157.90443
150.09883
141.45403
131.68957
120.38703
106.93239
90.515412
70.411304
47.133114
24.682495
9.2851778
2.3125937
0.34222307
0.37804834
0.05932882
0.059353145
0.059165731
0.058957249
0.058996761
0.058971497
0.058921076
0.058976422
0.059088645
0.059121935
0.05885508
0.05830773
0.057562409
0.057033717
0.05699804
0.057145409
0.057096655
0.056951683
0.056898945
0.056997694
0.057250082
0.057477128
0.057721219
0.058250299
0.058922746
0.059534603
0.060189063
0.060896097
0.061631816
0.062368607
0.062797431
0.062738774
0.061922145
0.06152275
0.062096504
0.063747159
0.065095904
0.065960472
0.066844602
0.068197822
0.069793896
0.071474399
0.073240218
0.075029565
0.07667981
0.078117343
0.079423074
0.080745588
0.082175142
0.083692296
0.085279144
0.086953373
0.088702775
0.090430866
0.091970618
0.093210435
0.095374176
0.20157679
4.185285
31.272639
70.329315
99.789414
125.33359
146.91183
164.72446
179.13598
190.58331
199.50572
206.30748
211.33776
214.89553
217.22022
218.50398
218.90303
218.54132
217.50184
215.85681
213.66129
210.95853
207.78314
204.16352
200.12198
195.676
190.83623
185.6035
179.96885
173.90844
167.37487
160.28879
152.52632
143.89803
134.11944
122.76631
109.21499
92.636949
72.270881
48.571801
25.544299
9.6340896
2.4011379
0.35486163
0.38891204
0.059360458
0.05918016
0.058967925
0.059003419
0.058981246
0.05893021
0.058982747
0.059094665
0.059130548
0.058876391
0.058341205
0.057603864
0.057068747
0.057023595
0.057173332
0.057132353
0.056969854
0.056903263
0.056996474
0.05724534
0.05746768
0.057698272
0.058203181
0.05886368
0.059475417
0.060134218
0.060854275
0.061603549
0.062373095
0.062889352
0.062944923
0.062241182
0.061785436
0.06213762
0.063709393
0.065139248
0.066130881
0.067034628
0.068315808
0.06987664
0.071566704
0.073370078
0.075216666
0.076955148
0.078491614
0.079859981
0.081188004
0.082606093
0.084130629
0.085733578
0.087422664
0.08918787
0.090939078
0.092522532
0.093799963
0.095468217
0.15239839
2.7636775
25.575056
65.290887
95.780468
122.11037
144.44034
162.93127
177.9283
189.86104
199.17177
206.27831
211.52426
215.24005
217.67806
219.04547
219.51057
219.21241
218.24013
216.67251
214.56786
211.97033
208.91371
205.42418
201.52086
197.21728
192.51984
187.42521
181.92045
175.97812
169.54703
162.54419
154.84175
146.24612
136.46771
125.07598
111.43749
94.706442
74.087627
49.981465
26.392947
9.9790566
2.4888089
0.36746854
0.40034327
0.05936843
0.059194086
0.058978937
0.059009982
0.058990922
0.058939387
0.058989
0.059100556
0.05913878
0.058897492
0.058374327
0.05764502
0.057103674
0.057048561
0.057199148
0.057169947
0.0569912
0.056909259
0.056995508
0.057241616
0.057460678
0.057678871
0.058159963
0.058807546
0.05941739
0.060077815
0.06080841
0.061569995
0.062370376
0.062971616
0.063126639
0.062566284
0.062065728
0.062238998
0.063683584
0.065162818
0.066281188
0.067232059
0.068452562
0.069969267
0.071657242
0.073487262
0.075382757
0.077203097
0.078841222
0.080288652
0.081640662
0.083045708
0.084566955
0.086178262
0.087877295
0.089659901
0.091440073
0.093068286
0.0943961
0.09580934
0.1252576
1.767231
20.318397
59.959071
91.730785
118.86292
141.97027
161.17232
176.79192
189.24847
198.98325
206.41351
211.90634
215.79115
218.34117
219.77867
220.28567
220.01674
219.07073
217.53509
215.47499
212.93874
209.96196
206.57057
202.78192
198.60652
194.047
189.09574
183.73518
177.93314
171.63366
164.74894
157.14612
148.62611
138.89286
127.50736
113.82358
96.973402
76.118686
51.589573
27.37877
10.384324
2.5922705
0.38255543
0.41529172
0.059377857
0.059207476
0.058990264
0.059016477
0.059000557
0.058948613
0.058995158
0.059106267
0.059146708
0.058918308
0.058407065
0.057685862
0.057138543
0.05707295
0.057223149
0.057208608
0.057016128
0.056918186
0.056994864
0.057238867
0.057455944
0.057662922
0.058120814
0.058754674
0.05936121
0.060020521
0.060759127
0.061532451
0.062348287
0.063034409
0.063288631
0.06289067
0.062356581
0.062377994
0.063672842
0.065173924
0.066409059
0.06743079
0.068610001
0.070075921
0.071749302
0.073593681
0.075529124
0.077424586
0.079165448
0.080705461
0.082100462
0.083499499
0.085008153
0.086616807
0.08831917
0.090115621
0.09192803
0.093607927
0.094997415
0.096299506
0.1114381
1.0967899
15.611679
54.265508
87.568639
115.50529
139.41726
159.3645
175.64606
188.66742
198.86581
206.6795
212.45391
216.5386
219.22049
220.73596
221.2804
221.02345
220.07476
218.53376
216.47496
213.95371
211.01029
207.67296
203.95932
199.87839
195.42989
190.60229
185.37331
179.70552
173.5374
166.77532
159.28025
150.84641
141.17025
129.80355
116.08743
99.132348
78.060149
53.134779
28.332932
10.778834
2.6932046
0.39744368
0.43110996
0.059388153
0.059220611
0.059001747
0.059022992
0.059010162
0.058957907
0.059001223
0.059111769
0.059154399
0.058938715
0.058439378
0.057726396
0.057173399
0.057096683
0.057245981
0.057247287
0.057044692
0.056930768
0.056994557
0.057236994
0.057453248
0.057650397
0.05808586
0.058705373
0.0593076
0.059963307
0.060707216
0.061491739
0.062322663
0.063077187
0.063435376
0.063207002
0.062656066
0.062563398
0.063673992
0.065179175
0.06651171
0.067621081
0.06878385
0.070198492
0.071847424
0.073694929
0.075660585
0.077621684
0.079461003
0.081103683
0.082564444
0.083971787
0.085461917
0.087058686
0.088754957
0.090557792
0.09240053
0.094133483
0.095596447
0.096860949
0.10466702
0.67182418
11.589793
48.339196
83.36921
112.12176
136.86721
157.59328
174.57313
188.20185
198.91934
207.12001
213.21214
217.53158
220.37399
221.9872
222.57802
222.33009
221.36337
219.78998
217.6953
215.14418
212.1846
208.85047
205.16285
201.13211
196.75746
192.02525
186.90974
181.3689
175.33578
168.71055
161.34725
153.03224
143.45263
132.14853
118.44473
101.42502
80.162509
54.840466
29.404843
11.227079
2.8084037
0.41463692
0.45055844
0.059234093
0.059013164
0.059029636
0.059019717
0.058967276
0.059007232
0.059117052
0.05916191
0.058958595
0.058471248
0.057766589
0.057208292
0.057119699
0.057268321
0.057284916
0.057076579
0.056946897
0.056994554
0.057235897
0.057452248
0.057641356
0.058055296
0.058659981
0.059257195
0.059907223
0.060653746
0.061448311
0.062294212
0.06310241
0.063571002
0.063502245
0.062970906
0.062798054
0.06370639
0.065180516
0.066589303
0.067796795
0.068971325
0.070339982
0.071955889
0.073795838
0.075782054
0.077799375
0.079731542
0.081481582
0.083025974
0.084462902
0.085936798
0.08751112
0.089191831
0.090991499
0.092859202
0.094647323
0.096184542
0.097444723
0.10172727
0.41327087
8.2830362
42.218839
79.029702
108.62349
134.23467
155.7765
173.48983
187.75923
199.03277
207.68614
214.13369
218.72695
221.7688
223.51531
224.18083
223.96124
222.98393
221.37237
219.22226
216.60856
213.58869
210.2048
206.48454
202.44305
198.0822
193.38906
188.33664
182.88
176.94774
170.43427
163.18654
154.98251
145.49927
134.26457
120.58646
103.52274
82.100482
56.426817
30.412341
11.651805
2.917922
0.43127208
0.4711534
0.059248596
0.059024346
0.059036373
0.059029228
0.058976777
0.059013238
0.059122123
0.059169287
0.058977917
0.058502681
0.057806396
0.057243239
0.057142285
0.057290006
0.05732101
0.05711129
0.056966137
0.056995809
0.057235452
0.057452253
0.057635544
0.058029096
0.058618636
0.059210368
0.05985318
0.060599775
0.061402432
0.062260464
0.063113401
0.063697201
0.063765591
0.063303987
0.063071944
0.063784375
0.065178717
0.066644448
0.067950552
0.069163825
0.07050055
0.072079469
0.073902928
0.075899751
0.077961449
0.079975815
0.081834202
0.083479456
0.084969433
0.086438156
0.087984614
0.089640244
0.091426288
0.093306807
0.095143137
0.096765752
0.098066868
0.10061787
0.26591469
5.7082086
36.122985
74.590661
105.08337
131.60351
153.99807
172.48171
187.42779
199.26613
208.39146
215.22525
220.12559
223.40251
225.31903
226.0941
225.9336
224.96972
223.33466
221.13229
218.44631
215.3432
211.87422
208.07563
203.97023
199.56618
194.85511
189.8127
184.39459
178.52786
172.10335
164.96227
156.87454
147.50641
136.37111
122.75642
105.68861
84.140243
58.128596
31.512478
12.121136
3.0395398
0.44995716
0.49546972
0.059263552
0.059035242
0.059042919
0.059038696
0.058986426
0.059019272
0.059127037
0.059176554
0.058996761
0.058533701
0.057845836
0.057278259
0.057164769
0.057310668
0.057355472
0.057148298
0.056988087
0.057001094
0.057235509
0.057453086
0.05763235
0.058007005
0.058581166
0.059167002
0.059801509
0.060545888
0.061354872
0.062223872
0.063116543
0.063806653
0.063995938
0.063646668
0.063378013
0.063891234
0.065192276
0.066684223
0.068080316
0.069353984
0.070678182
0.072219955
0.074019463
0.076017824
0.078113445
0.080200075
0.082162877
0.083917393
0.085484409
0.086968557
0.088486835
0.090110729
0.091873438
0.093754982
0.095631501
0.097320488
0.098670671
0.10060943
0.18529946
3.7964394
30.196307
69.955398
101.43658
128.89345
152.17435
171.45368
187.0942
199.54625
209.17697
216.42384
221.66056
225.20546
227.32844
228.25212
228.1887
227.27488
225.6473
223.41541
220.66845
217.4794
213.90676
209.99473
205.77441
201.2622
196.45742
191.34239
185.87787
179.99409
173.58266
166.48286
158.45957
149.17038
138.11548
124.56334
107.51005
85.877142
59.598703
32.477708
12.537776
3.1480909
0.46715108
0.52089448
0.059046065
0.059048959
0.059048109
0.058996232
0.059025365
0.059131873
0.059183726
0.059015235
0.058564326
0.057884921
0.057313368
0.057187351
0.057330171
0.057388264
0.057187024
0.057012315
0.057010133
0.057236205
0.057454531
0.05763105
0.057988707
0.058547421
0.059127019
0.059752586
0.060492773
0.0613064
0.062184975
0.063112376
0.063889764
0.064201734
0.063989927
0.063712919
0.06402979
0.065239995
0.066716346
0.068184235
0.069531461
0.070866791
0.072378328
0.074149806
0.076141801
0.078259852
0.080405779
0.082466549
0.084337213
0.086000388
0.087525468
0.089027652
0.090615241
0.092345582
0.094212309
0.096113531
0.097879586
0.099309281
0.10074349
0.14423264
2.4624581
24.705259
65.202331
97.792749
126.21296
150.40342
170.50332
186.86339
199.91782
210.05936
217.73703
223.32886
227.16252
229.51605
230.61966
230.68505
229.86007
228.28096
226.06085
223.29204
220.05059
216.39874
212.3853
208.04708
203.40721
198.47261
193.23378
187.65966
181.68841
175.21837
168.09325
160.07885
150.82871
139.83281
126.34088
109.3162
87.622858
61.100415
33.479981
12.975502
3.2627342
0.48556006
0.54947516
0.059057444
0.059054382
0.059057449
0.059006169
0.059031501
0.059136719
0.059190832
0.059033385
0.05859455
0.057923662
0.057348549
0.057210223
0.057348588
0.057419335
0.057226742
0.057038738
0.057021481
0.057238059
0.0574564
0.057631004
0.057974226
0.058517611
0.059090694
0.059707152
0.060441643
0.061258215
0.062144109
0.063085904
0.06394781
0.064390463
0.064324639
0.064069085
0.064213108
0.065314946
0.066750459
0.068267326
0.06969149
0.071059329
0.072553195
0.074296372
0.076276209
0.078408516
0.080603749
0.082752284
0.084737159
0.086511459
0.08810476
0.089610786
0.091164124
0.092856293
0.094698801
0.09660856
0.098416023
0.099917824
0.10128785
0.12387554
1.5778414
19.804977
60.319423
94.152053
123.53217
148.6385
169.56232
186.61961
200.33484
211.01997
219.13799
225.09304
229.22326
231.81648
233.11279
233.32386
232.61079
231.11102
228.93873
226.18922
222.93974
219.25316
215.17893
210.75486
206.00595
200.94214
195.55857
189.83055
183.70326
177.08301
169.82229
161.69581
152.36549
141.32489
127.81766
110.7848
89.040952
62.336612
34.321464
13.349248
3.3615431
0.50221411
0.57975355
0.05907005
0.05905935
0.059066662
0.059016219
0.059037636
0.059141651
0.059197908
0.05905119
0.058624296
0.057962052
0.057383797
0.0572335
0.057365986
0.057448643
0.057266612
0.057068002
0.057034857
0.057241116
0.057458922
0.057632679
0.057963546
0.058492049
0.059058484
0.059666042
0.060393765
0.061211417
0.062102945
0.063056574
0.063985247
0.064565537
0.06464122
0.064434695
0.064449355
0.06541463
0.066795003
0.068335461
0.069831501
0.071249914
0.07274404
0.074463447
0.076427217
0.078564951
0.080797418
0.083023079
0.08511934
0.087012943
0.088697622
0.090235903
0.091764855
0.093415279
0.095222127
0.097124937
0.09898205
0.10056527
0.10189227
0.11468036
1.0277777
15.675353
55.472884
90.687281
121.02098
147.05226
168.85051
186.67298
200.91454
212.11519
220.675
226.99132
231.41099
234.23388
235.7123
236.06235
235.4576
234.04005
231.92822
229.2188
225.99226
222.31244
218.22872
213.77793
208.98357
203.85382