/*--------------------------------*- C++ -*----------------------------------*\
| =========                 |                                                 |
| \\      /  F ield         | OpenFOAM: The Open Source CFD Toolbox           |
|  \\    /   O peration     | Version:  2506                                  |
|   \\  /    A nd           | Website:  www.openfoam.com                      |
|    \\/     M anipulation  |                                                 |
\*---------------------------------------------------------------------------*/
FoamFile
{
    version     2.0;
    format      ascii;
    arch        "LSB;label=32;scalar=64";
    class       volScalarField;
    location    "0.0085";
    object      p;
}
// * * * * * * * * * * * * * * * * * * * * * * * * * * * * * * * * * * * * * //

dimensions      [1 -1 -2 0 0 0 0];

internalField   nonuniform List<scalar> 
13761
(
46954.61
46954.738
46954.801
46954.806
46954.79
46954.779
46954.763
46954.746
47083.824
46954.746
47083.844
46954.761
47083.867
46954.799
47083.872
46954.868
47083.861
46954.943
47083.851
46955.003
47083.848
46955.002
47083.849
46954.938
46985.093
47083.865
46954.861
46985.093
47083.881
46954.814
46985.124
47083.9
46954.84
46985.161
47083.936
46954.879
46985.19
47083.971
46954.883
46985.193
47083.99
46954.88
46985.204
47084
46954.877
46996.359
46985.229
47084.011
46954.874
46996.403
46985.21
47084.027
46954.876
46996.459
46985.159
47084.046
46954.893
46996.484
46985.139
47084.07
46954.925
46996.484
46985.161
47084.096
46954.968
46996.47
46985.177
47084.124
46954.976
46996.465
46985.174
47084.123
46996.465
46985.205
47084.042
46975.347
46996.476
46985.234
47083.942
46975.351
46996.496
46985.219
47083.885
46975.353
46996.524
46985.189
47083.871
46975.353
46996.56
46985.22
47083.859
46975.352
46996.597
46985.286
47083.832
46975.344
46996.618
46985.331
47083.808
46975.339
46996.65
46985.358
47083.822
46975.318
46996.694
46985.382
46973.18
46975.303
46996.711
46985.41
46973.184
46975.307
46996.703
46985.442
46973.186
46975.331
46996.68
46985.478
46973.186
46975.362
46996.669
46985.499
46973.187
46975.386
46996.67
46985.506
46973.189
46975.403
46996.681
46985.482
46973.192
46975.413
46996.702
46985.407
46970.775
46973.196
46975.417
46996.723
46985.354
46970.776
46973.2
46975.418
46996.751
46970.777
46973.206
46975.413
46996.771
46970.778
46973.212
46975.406
46996.819
46970.779
46973.219
46975.388
46996.876
46970.78
46973.226
46975.368
46996.896
46970.782
46973.231
46975.358
46996.886
46970.264
46970.783
46973.232
46975.374
46996.854
46970.264
46970.784
46973.232
46975.407
46996.827
46970.265
46970.785
46973.231
46975.441
46996.816
46970.265
46970.786
46973.231
46975.468
46970.265
46970.787
46973.231
46975.487
46970.265
46970.788
46973.232
46975.499
46970.266
46970.79
46973.234
46975.506
46970.057
46970.266
46970.791
46973.237
46975.508
46970.058
46970.266
46970.792
46973.242
46975.506
46970.058
46970.266
46970.793
46973.247
46975.496
46970.058
46970.266
46970.794
46973.254
46975.482
46970.058
46970.267
46970.796
46973.262
46970.058
46970.267
46970.797
46973.268
46970.058
46970.267
46970.798
46973.269
46970.012
46970.058
46970.267
46970.799
46973.269
46970.012
46970.058
46970.268
46970.8
46973.268
46970.012
46970.058
46970.268
46970.802
46973.267
46970.012
46970.059
46970.268
46970.803
46973.267
46970.012
46970.059
46970.269
46970.804
46973.267
46970.012
46970.059
46970.269
46970.805
46973.268
46970.012
46970.059
46970.269
46970.806
46970.002
46970.012
46970.059
46970.27
46970.808
46970.002
46970.012
46970.059
46970.27
46970.809
46970.002
46970.012
46970.059
46970.27
46970.81
46970.002
46970.012
46970.059
46970.27
46970.811
46970.002
46970.012
46970.059
46970.271
46970.813
46970.002
46970.012
46970.06
46970.271
46970.814
46970.001
46970.002
46970.012
46970.06
46970.271
46970.815
46970.001
46970.002
46970.012
46970.06
46970.272
46970.816
46970.001
46970.002
46970.012
46970.06
46970.272
46970.001
46970.002
46970.012
46970.06
46970.272
46970.001
46970.002
46970.012
46970.06
46970.273
46970.001
46970.002
46970.012
46970.06
46970.273
46970.001
46970.003
46970.012
46970.061
46970.274
46969.992
46970.001
46970.003
46970.012
46970.061
46970.274
46969.993
46970.001
46970.003
46970.012
46970.061
46970.274
46969.994
46970.001
46970.003
46970.012
46970.061
46970.275
46969.995
46970.001
46970.003
46970.013
46970.061
46969.996
46970.001
46970.003
46970.013
46970.061
46969.997
46970.001
46970.003
46970.013
46970.061
46969.722
46969.997
46970.001
46970.003
46970.013
46970.061
46969.737
46969.998
46970.001
46970.003
46970.013
46970.062
46969.751
46969.999
46970.001
46970.003
46970.013
46970.062
46969.765
46969.999
46970.001
46970.003
46970.013
46970.062
46969.778
46970
46970.001
46970.003
46970.013
46970.062
46969.791
46970.001
46970.001
46970.003
46970.013
46967.48
46969.804
46970.001
46970.001
46970.003
46970.013
46967.572
46969.816
46970.002
46970.001
46970.003
46970.013
46967.663
46969.828
46970.002
46970.001
46970.003
46970.013
46967.752
46969.84
46970.003
46970.001
46970.003
46970.013
46967.84
46969.851
46970.003
46970.001
46970.003
46970.013
46956.933
46967.927
46969.862
46970.003
46970.001
46970.003
46970.013
46957.322
46968.011
46969.873
46970.004
46970.001
46970.003
46970.013
46957.706
46968.095
46969.883
46970.004
46970.001
46970.003
46958.084
46968.176
46969.893
46970.005
46970.001
46970.003
46958.456
46968.257
46969.903
46970.005
46970.001
46970.003
46958.823
46968.335
46969.912
46970.005
46970.001
46970.003
46923.605
46959.183
46968.413
46969.921
46970.005
46970.001
46970.003
46924.662
46959.538
46968.489
46969.93
46970.006
46970.001
46970.003
46925.711
46959.887
46968.563
46969.938
46970.006
46970.001
46970.003
46926.753
46960.23
46968.636
46969.947
46970.006
46970.001
46970.003
46927.788
46960.567
46968.707
46969.954
46970.006
46970.001
46843.697
46928.815
46960.898
46968.777
46969.962
46970.006
46970.001
46846.044
46929.835
46961.225
46968.845
46969.969
46970.007
46970.001
46848.375
46930.847
46961.545
46968.912
46969.976
46970.007
46970.001
46850.689
46931.851
46961.861
46968.978
46969.983
46970.007
46970.001
46852.985
46932.848
46962.171
46969.042
46969.989
46970.007
46970.001
46678.595
46855.265
46933.836
46962.477
46969.105
46969.995
46970.007
46970.001
46683.024
46857.527
46934.816
46962.777
46969.166
46970.001
46970.007
46687.432
46859.772
46935.787
46963.072
46969.226
46970.007
46970.007
46691.817
46861.998
46936.75
46963.362
46969.284
46970.012
46970.007
46389.673
46696.18
46864.207
46937.705
46963.647
46969.341
46970.017
46970.007
46396.435
46700.519
46866.397
46938.651
46963.928
46969.397
46970.022
46970.007
46403.181
46704.833
46868.569
46939.589
46964.203
46969.451
46970.026
46970.007
46409.909
46709.123
46870.723
46940.518
46964.474
46969.504
46970.031
46970.008
46416.62
46713.389
46872.858
46941.439
46964.739
46969.555
46970.035
46970.008
46009.593
46423.313
46717.629
46874.975
46942.351
46965
46969.605
46970.038
46017.656
46429.986
46721.845
46877.073
46943.254
46965.257
46969.654
46970.042
46025.726
46436.64
46726.036
46879.153
46944.149
46965.508
46969.701
46970.046
46033.802
46443.274
46730.202
46881.214
46945.034
46965.755
46969.747
46970.049
45636.991
46041.881
46449.887
46734.342
46883.257
46945.911
46965.997
46969.792
46970.052
45644.096
46049.963
46456.477
46738.456
46885.281
46946.779
46966.235
46969.835
46970.055
45651.259
46058.048
46463.045
46742.545
46887.287
46947.638
46966.468
46969.878
46970.057
45658.476
46066.135
46469.591
46746.608
46889.274
46948.488
46966.696
46969.918
45438.032
45665.745
46074.225
46476.114
46750.644
46891.242
46949.328
46966.92
46969.958
45441.824
45673.061
46082.316
46482.615
46754.654
46893.192
46950.159
46967.14
46969.996
45445.733
45680.42
46090.408
46489.093
46758.638
46895.124
46950.98
46967.354
46970.033
45449.757
45687.819
46098.5
46495.547
46762.594
46897.038
46951.791
46967.565
46970.068
45453.784
45453.893
45695.254
46106.588
46501.979
46766.524
46898.934
46952.592
46967.771
46970.103
45453.797
45458.14
45702.724
46114.672
46508.386
46770.426
46900.813
46953.381
46967.972
46970.136
45454.052
45462.493
45710.227
46122.751
46514.77
46774.301
46902.675
46954.16
46968.169
45454.528
45466.949
45717.762
46130.824
46521.128
46778.147
46904.522
46954.926
46968.362
45570.111
45455.217
45471.503
45725.328
46138.891
46527.461
46781.965
46906.354
46955.68
46968.551
45563.887
45456.111
45476.152
45732.924
46146.954
46533.768
46785.754
46908.172
46956.421
46968.735
45558.061
45457.221
45480.893
45740.548
46155.011
46540.047
46789.515
46909.976
46957.147
46968.915
45552.62
45458.544
45485.722
45748.198
46163.062
46546.299
46793.246
46911.768
46957.859
46969.091
45714.517
45547.561
45460.061
45490.636
45755.873
46171.106
46552.522
46796.948
46913.548
46958.555
46969.263
45698.992
45542.882
45461.759
45495.632
45763.57
46179.142
46558.715
46800.621
46915.316
46959.236
45683.98
45538.581
45463.645
45500.707
45771.289
46187.168
46564.877
46804.264
46917.072
46959.902
46028.303
45669.51
45534.66
45465.686
45505.857
45779.029
46195.183
46571.01
46807.878
46918.817
46960.553
46003.171
45655.605
45531.126
45467.856
45511.079
45786.789
46203.184
46577.113
46811.461
46920.549
46961.189
45978.306
45642.281
45527.988
45470.143
45516.369
45794.57
46211.171
46583.185
46815.014
46922.268
46961.812
46512.194
45953.706
45629.552
45525.242
45472.538
45521.725
45802.369
46219.143
46589.227
46818.537
46923.973
46962.421
46487.292
45929.371
45617.421
45522.876
45475.037
45527.143
45810.185
46227.1
46595.238
46822.03
46925.664
46461.693
45905.312
45605.883
45520.872
45477.643
45532.623
45818.016
46235.04
46601.219
46825.493
46927.342
46693.448
46435.517
45881.554
45594.931
45519.213
45480.357
45538.161
45825.859
46242.966
46607.168
46828.924
46929.004
46693.056
46408.874
45858.139
45584.503
45517.925
45483.182
45543.756
45833.713
46250.876
46613.084
46832.325
46930.653
46691.249
46381.851
45835.126
45574.514
45517.037
45486.118
45549.405
45841.575
46258.771
46618.969
46835.695
46932.286
46438.542
46687.967
46354.52
45812.57
45564.964
45516.511
45489.167
45555.107
45849.445
46266.65
46624.82
46839.033
46933.905
46449.43
46683.079
46326.942
45790.517
45555.891
45516.276
45492.326
45560.858
45857.325
46274.511
46630.638
46842.34
46935.508
46308.872
46460.275
46676.501
46299.154
45769.015
45547.3
45516.325
45495.595
45566.658
45865.213
46282.354
46636.422
46845.615
46306.838
46471.066
46668.191
46271.184
45748.106
45539.187
45516.648
45498.97
45572.503
45873.111
46290.178
46642.171
46848.858
46305.547
46481.813
46658.143
46243.061
45727.818
45531.555
45517.197
45502.451
45578.392
45881.019
46297.982
46647.887
46852.07
46344.388
46304.951
46492.516
46646.375
46214.814
45708.169
45524.414
45517.973
45506.034
45584.321
45888.934
46305.765
46653.567
46855.251
46336.683
46305.137
46503.151
46632.924
46186.475
45689.168
45517.772
45518.944
45509.714
45590.289
45896.855
46313.526
46659.213
46858.399
46395.711
46329.443
46306.138
46513.672
46617.832
46158.076
45670.817
45511.636
45520.096
45513.486
45596.296
45904.78
46321.266
46664.823
46861.517
46390.792
46322.444
46308.023
46524.011
46601.148
46129.65
45653.114
45505.993
45521.422
45517.347
45602.339
45912.707
46328.983
46670.399
46384.805
46315.382
46311.169
46534.084
46582.931
46101.236
45636.057
45500.818
45522.919
45521.296
45608.418
45920.634
46336.676
46675.94
46362.003
46377.79
46308.083
46315.473
46543.776
46563.272
46072.876
45619.657
45496.069
45524.607
45525.332
45614.53
45928.559
46344.346
46681.446
46359.372
46369.985
46300.65
46320.828
46552.892
46542.31
46044.62
45603.924
45491.711
45526.472
45529.451
45620.676
45936.482
46351.992
46686.916
46306.699
46356.876
46361.617
46293.257
46327.194
46561.234
46520.102
46016.572
45588.86
45487.729
45528.522
45533.652
45626.852
45944.403
46359.614
46692.351
46303.783
46354.548
46352.848
46286.004
46334.47
46568.603
46496.749
45988.809
45574.448
45484.126
45530.756
45537.929
45633.055
45952.32
46367.211
46697.749
46271.547
46301.111
46352.463
46343.794
46278.963
46342.5
46574.837
46472.362
45961.407
45560.665
45480.915
45533.163
45542.281
45639.283
45960.234
46374.784
46267.352
46298.668
46350.672
46334.589
46272.2
46351.16
46579.728
46447.02
45934.453
45547.493
45478.1
45535.733
45546.703
45645.535
45968.143
46382.331
46229.176
46263.218
46296.389
46349.17
46325.395
46265.779
46360.382
46583.111
46420.808
45908.014
45534.927
45475.666
45538.463
45551.188
45651.807
45976.049
46389.851
46190.283
46224.975
46259.1
46294.174
46347.901
46316.362
46259.76
46370.124
46585.04
46393.802
45882.146
45522.958
45473.597
45541.351
45555.732
45658.099
45983.951
46397.342
46186.753
46221.029
46254.947
46291.912
46346.75
46307.607
46254.214
46380.356
46585.371
46366.074
45856.899
45511.58
45471.875
45544.398
45560.328
45664.41
45991.848
46404.805
46143.919
46183.321
46217.34
46250.725
46289.507
46345.549
46299.203
46249.22
46391.069
46583.605
46337.697
45832.317
45500.785
45470.48
45547.6
45564.973
45670.74
45999.741
46412.238
46089.372
46139.398
46179.932
46213.885
46246.437
46286.901
46344.083
46291.16
46244.904
46402.259
46580.062
46308.743
45808.429
45490.557
45469.411
45550.951
45569.664
45677.09
46007.628
46083.894
46134.734
46176.531
46210.613
46242.129
46284.08
46342.112
46283.405
46241.424
46413.908
46574.678
46279.312
45785.233
45480.879
45468.666
45554.446
45574.4
45683.46
46015.507
46027.666
46078.328
46129.917
46173.085
46207.441
46237.868
46281.075
46339.427
46275.784
46238.936
46425.989
46567.359
46249.523
45762.699
45471.741
45468.246
45558.077
45579.177
45689.849
46023.378
45977.376
46022.173
46072.676
46124.993
46169.598
46204.271
46233.715
46277.95
46335.907
46268.086
46237.61
46438.476
46558.046
46219.47
45740.809
45463.135
45468.113
45561.835
45583.993
45696.258
46031.239
45928.681
45972.249
46016.799
46067.038
46120.041
46166.086
46201.019
46229.711
46274.787
46331.563
46260.106
46237.329
46451.347
46546.683
46189.224
45719.556
45455.052
45468.335
45565.715
45588.846
45702.684
46039.089
45923.309
45967.245
46011.517
46061.556
46115.167
46162.532
46197.644
46225.894
46271.668
46326.504
46251.722
46238.521
46464.58
46533.213
46158.857
45698.935
45447.481
45468.854
45569.709
45593.734
45709.125
45872.307
45918.026
45962.307
46006.355
46056.313
46110.5
46158.884
46194.158
46222.315
46268.682
46320.853
46242.939
46241.2
46478.114
46517.623
46128.44
45678.948
45440.406
45469.693
45573.809
45598.651
45715.579
45819.05
45866.323
45912.846
45957.373
46001.447
46051.434
46106.154
46155.07
46190.62
46219.042
46265.934
46314.693
46233.894
46245.002
46491.761
46500.011
46098.038
45659.604
45433.814
45470.848
45578.009
45603.595
45722.043
45764.645
45812.338
45860.338
45907.514
45952.401
45996.86
46047.094
46102.129
46151.023
46187.107
46216.133
46263.531
46308.059
46224.727
46249.838
46505.168
46480.54
46067.732
45640.925
45427.693
45472.326
45582.306
45608.561
45728.516
45664.144
45710.024
45757.4
45805.57
45854.314
45901.938
45947.513
45992.648
46043.386
46098.282
46146.714
46183.657
46213.604
46261.56
46300.982
46215.554
46255.756
46518.032
46459.259
46037.646
45622.935
45422.033
45474.077
45586.696
45613.547
45734.994
45611.276
45655.904
45702.335
45750.071
45798.943
45848.208
45896.279
45942.839
45988.951
46040.243
46094.389
46142.214
46180.24
46211.403
46260.049
46293.508
46206.516
46262.736
46530.005
46436.36
46007.811
45605.658
45416.83
45476.106
45591.174
45618.55
45741.479
45559.264
45602.505
45647.701
45694.518
45742.868
45792.442
45841.895
45890.675
45938.435
45985.863
46037.419
46090.227
46137.706
46176.777
46209.431
46258.939
46285.707
46197.782
46270.713
46540.697
46412.025
45978.287
45589.115
45412.084
45478.411
45595.737
45623.57
45469.113
45508.167
45549.856
45593.646
45639.347
45686.708
45735.86
45785.754
45835.496
45885.261
45934.5
45983.284
46034.495
46085.69
46133.377
46173.213
46207.569
46258.088
46277.655
46189.533
46279.637
46549.858
46386.3
45949.176
45573.321
45407.795
45480.973
45600.379
45628.603
45420.906
45458.17
45497.942
45540.256
45584.601
45630.815
45679.042
45728.781
45778.884
45829.367
45880.285
45931.244
45980.899
46031.014
46080.911
46129.304
46169.551
46205.716
46257.303
46269.42
46181.945
46289.518
46557.358
46359.244
45920.529
45558.282
45403.958
45483.776
45605.092
45633.649
45341.78
45374.168
45409.278
45447.155
45487.611
45530.372
45575.269
45622.324
45671.334
45721.467
45772.159
45823.696
45876.019
45928.527
45978.201
46026.721
46076.261
46125.417
46165.824
46203.799
46256.392
46261.027
46175.178
46300.4
46562.957
46330.98
45892.386
45543.998
45400.573
45486.809
45609.87
45638.706
45245.837
45271.29
45298.964
45329.126
45362.011
45397.729
45436.073
45476.921
45520.23
45565.846
45613.821
45663.364
45714.077
45765.834
45818.674
45872.589
45925.914
45974.626
46021.732
46072.079
46121.58
46162.05
46201.787
46255.187
46252.463
46169.374
46312.319
46566.473
46301.624
45864.816
45530.457
45397.631
45490.062
45614.707
45643.771
45166.543
45186.643
45208.273
45232.139
45257.938
45286.116
45316.716
45349.975
45386.047
45424.773
45465.982
45509.944
45556.456
45605.026
45655.187
45706.965
45760.155
45814.625
45869.813
45922.834
45969.856
46016.601
46068.407
46117.71
46158.227
46199.678
46253.568
46243.686
46164.651
46325.299
46568.118
46271.333
45837.854
45517.64
45395.129
45493.524
45619.596
45100.49
45115.968
45133.186
45152.108
45172.351
45194.428
45218.632
45244.793
45273.387
45304.333
45337.931
45374.197
45413.233
45455.061
45499.717
45546.864
45595.942
45647.144
45700.5
45755.444
45811.529
45867.118
45918.704
45964.06
46012.012
46064.996
46113.846
46154.375
46197.495
46251.465
46234.67
46161.09
46339.352
46566.976
46240.312
45811.502
45505.527
45393.067
45497.18
45624.535
45013.445
45023.127
45033.648
45044.983
45057.195
45070.49
45085.013
45100.981
45118.596
45137.599
45158.065
45180.693
45205.286
45231.823
45260.681
45291.814
45325.674
45362.308
45401.843
45444.323
45489.533
45537.035
45587.002
45639.72
45694.964
45751.781
45808.841
45863.695
45913.244
45958.165
46008.178
46061.494
46110.104
46150.569
46195.277
46248.857
46225.423
46158.769
46354.489
46562.944
46208.712
45785.801
45494.1
45391.442
45501.017
45629.518
44938.375
44942.943
44947.833
44953.187
44958.994
44965.227
44971.99
44979.452
44987.677
44996.742
45006.613
45017.205
45028.609
45040.962
45054.568
45069.525
45085.924
45103.783
45123.003
45143.956
45166.997
45191.805
45218.681
45247.747
45279.199
45313.46
45350.681
45390.888
45433.802
45479.33
45527.491
45578.801
45633.3
45690.44
45748.716
45805.758
45858.934
45906.819
45953.168
46004.839
46057.755
46106.566
46146.919
46193.073
46245.759
46215.985
46157.662
46370.698
46556.172
46176.625
45760.822
45483.342
45390.24
45505.024
45634.541
44878.414
44878.409
44878.405
44878.4
44878.396
44878.391
44878.386
44878.382
44878.378
44878.375
44878.372
44878.37
44878.368
44878.367
44878.366
44878.366
44878.367
44878.369
44878.371
44878.375
44878.38
44878.386
44878.395
44878.405
44878.417
44878.431
44878.448
44878.468
44878.492
44878.519
44878.551
44878.587
44878.63
44878.679
44878.734
44878.798
44878.869
44878.949
44879.037
44879.133
44879.236
44879.345
44879.46
44879.58
44879.707
44879.843
44879.991
44880.157
44880.341
44880.54
44880.758
44881.069
44881.491
44882.139
44882.932
44884.01
44885.367
44886.766
44887.76
44888.802
44890.189
44891.984
44894.141
44896.587
44899.234
44902.089
44905.197
44908.548
44912.17
44916.087
44920.346
44924.905
44929.848
44935.301
44941.141
44947.452
44954.377
44962.015
44970.455
44979.653
44989.596
45000.308
45011.943
45024.693
45038.758
45054.078
45070.71
45088.719
45108.303
45129.83
45153.176
45178.168
45205.367
45234.786
45266.822
45301.775
45339.63
45380.308
45423.556
45469.593
45518.911
45571.76
45627.972
45686.614
45745.404
45801.421
45852.643
45900.689
45949.551
46001.385
46053.914
46103.223
46143.52
46190.919
46242.208
46206.441
46157.369
46387.931
46546.491
46144.145
45736.611
45473.242
45389.457
45509.196
45639.599
44859.951
44859.945
44859.94
44859.935
44859.93
44859.925
44859.92
44859.915
44859.911
44859.907
44859.903
44859.9
44859.898
44859.895
44859.894
44859.893
44859.892
44859.892
44859.893
44859.894
44859.897
44859.9
44859.904
44859.91
44859.918
44859.927
44859.939
44859.953
44859.97
44859.991
44860.015
44860.045
44860.079
44860.12
44860.167
44860.22
44860.281
44860.35
44860.427
44860.511
44860.603
44860.702
44860.807
44860.918
44861.035
44861.159
44861.294
44861.443
44861.609
44861.795
44862.012
44862.32
44862.748
44863.353
44864.099
44865.071
44866.178
44867.421
44868.886
44870.44
44872.118
44873.97
44876.018
44878.281
44880.799
44883.579
44886.632
44889.989
44893.623
44897.56
44901.831
44906.475
44911.519
44917.011
44922.977
44929.487
44936.619
44944.427
44952.998
44962.284
44972.319
44983.243
44995.254
45008.496
45022.93
45038.489
45055.329
45073.64
45093.673
45115.559
45139.124
45164.549
45192.293
45222.366
45255.155
45290.82
45329.203
45370.236
45414.056
45461.114
45511.689
45565.941
45623.399
45682.649
45740.849
45795.297
45845.709
45895.802
45946.574
45997.517
46050.197
46100.037
46140.414
46188.828
46238.245
46196.906
46158.566
46406.086
46533.832
46111.376
45713.191
45463.792
45389.072
45513.525
44837.948
44837.942
44837.937
44837.932
44837.927
44837.922
44837.917
44837.912
44837.908
44837.904
44837.9
44837.897
44837.894
44837.892
44837.89
44837.889
44837.889
44837.889
44837.889
44837.891
44837.893
44837.896
44837.901
44837.906
44837.914
44837.923
44837.934
44837.948
44837.964
44837.984
44838.008
44838.036
44838.069
44838.107
44838.15
44838.2
44838.257
44838.32
44838.389
44838.465
44838.547
44838.633
44838.722
44838.814
44838.909
44839.01
44839.118
44839.236
44839.367
44839.507
44839.659
44839.869
44840.206
44840.72
44841.497
44842.607
44843.964
44845.516
44847.335
44849.353
44851.446
44853.593
44855.901
44858.407
44861.12
44864.069
44867.249
44870.694
44874.453
44878.524
44882.919
44887.691
44892.901
44898.508
44904.656
44911.399
44918.754
44926.768
44935.493
44944.922
44955.191
44966.435
44978.849
44992.428
45007.044
45022.801
45039.953
45058.735
45079.241
45101.39
45125.304
45151.47
45180.01
45210.943
45244.467
45280.656
45319.551
45361.242
45405.985
45454.15
45505.763
45560.916
45618.746
45677.437
45734.324
45787.62
45839.419
45892.805
45943.554
45993.419
46046.665
46096.997
46137.604
46186.779
46233.913
46187.498
46160.86
46424.984
46518.266
46078.414
45690.576
45454.984
45388.97
45518.001
44819.541
44819.536
44819.532
44819.527
44819.522
44819.517
44819.512
44819.508
44819.504
44819.5
44819.497
44819.495
44819.493
44819.492
44819.491
44819.491
44819.492
44819.494
44819.496
44819.5
44819.505
44819.512
44819.52
44819.531
44819.543
44819.558
44819.576
44819.597
44819.621
44819.65
44819.684
44819.723
44819.768
44819.82
44819.879
44819.946
44820.022
44820.106
44820.2
44820.302
44820.412
44820.53
44820.654
44820.785
44820.923
44821.071
44821.232
44821.411
44821.61
44821.826
44822.063
44822.383
44822.824
44823.469
44824.303
44825.408
44826.701
44828.153
44829.602
44831.145
44832.965
44835.046
44837.338
44839.837
44842.545
44845.484
44848.669
44852.107
44855.861
44859.953
44864.404
44869.239
44874.517
44880.252
44886.546
44893.476
44901.032
44909.235
44918.143
44927.821
44938.43
44950.038
44962.781
44976.555
44991.377
45007.462
45025.056
45044.324
45065.254
45087.865
45112.516
45139.561
45168.853
45200.546
45234.735
45271.535
45311.148
45353.726
45399.36
45448.249
45500.461
45555.685
45612.848
45670.237
45725.878
45780.022
45835.066
45890.35
45939.903
45989.496
46043.19
46094.107
46135.086
46184.73
46229.248
46178.342
46164.268
46444.322
46499.952
46045.351
45668.777
45446.81
45389.34
45522.615
44800.1
44800.095
44800.09
44800.085
44800.079
44800.074
44800.069
44800.064
44800.06
44800.056
44800.053
44800.05
44800.047
44800.046
44800.044
44800.044
44800.044
44800.044
44800.046
44800.048
44800.052
44800.057
44800.063
44800.071
44800.081
44800.093
44800.107
44800.124
44800.145
44800.17
44800.2
44800.234
44800.275
44800.322
44800.376
44800.438
44800.508
44800.587
44800.675
44800.772
44800.878
44800.992
44801.114
44801.244
44801.382
44801.529
44801.689
44801.867
44802.066
44802.29
44802.55
44802.899
44803.389
44804.059
44804.919
44805.998
44807.275
44808.694
44810.323
44812.067
44813.949
44816.037
44818.323
44820.803
44823.511
44826.467
44829.684
44833.208
44837.05
44841.221
44845.792
44850.811
44856.282
44862.284
44868.817
44875.933
44883.713
44892.147
44901.318
44911.291
44922.211
44934.131
44947.089
44961.073
44976.27
44992.872
45011.036
45030.797
45052.169
45075.453
45101.009
45128.803
45158.711
45191.098
45225.94
45263.559
45304.009
45347.228
45393.321
45442.48
45494.569
45548.986
45604.834
45661.03
45716.917
45773.84
45832.379
45887.463
45935.954
45985.944
46039.642
46091.324
46132.848
46182.631
46224.262
46169.553
46168.815
46463.649
46479.129
46012.277
45647.806
45439.26
45390.065
45527.356
44778.269
44778.264
44778.259
44778.254
44778.249
44778.244
44778.24
44778.235
44778.232
44778.228
44778.226
44778.223
44778.222
44778.221
44778.22
44778.22
44778.221
44778.223
44778.226
44778.23
44778.236
44778.243
44778.251
44778.262
44778.274
44778.289
44778.307
44778.328
44778.353
44778.382
44778.416
44778.456
44778.501
44778.553
44778.613
44778.68
44778.756
44778.84
44778.934
44779.036
44779.146
44779.263
44779.386
44779.516
44779.652
44779.796
44779.952
44780.124
44780.314
44780.519
44780.74
44781.028
44781.444
44782.067
44782.993
44784.285
44785.798
44787.5
44789.437
44791.584
44793.816
44796.123
44798.607
44801.292
44804.188
44807.329
44810.756
44814.477
44818.531
44822.935
44827.746
44833.029
44838.729
44844.95
44851.701
44859.006
44866.993
44875.641
44885.055
44895.303
44906.507
44918.705
44931.904
44946.259
44961.956
44979.125
44997.828
45018.064
45039.977
45063.993
45090.249
45118.592
45149.151
45182.216
45217.715
45256.087
45297.048
45340.523
45386.647
45435.553
45486.837
45540.051
45594.78
45650.985
45709.328
45769.95
45829.689
45883.738
45932.312
45982.609
46036.009
46088.556
46130.859
46180.462
46218.906
46161.2
46174.659
46482.392
46456.073
45979.295
45627.675
45432.327
45391.13
45532.214
44761.205
44761.2
44761.195
44761.191
44761.187
44761.182
44761.178
44761.174
44761.17
44761.168
44761.165
44761.163
44761.162
44761.162
44761.162
44761.163
44761.166
44761.169
44761.174
44761.18
44761.188
44761.198
44761.211
44761.225
44761.243
44761.263
44761.287
44761.315
44761.347
44761.383
44761.426
44761.474
44761.53
44761.593
44761.665
44761.746
44761.837
44761.939
44762.05
44762.172
44762.304
44762.446
44762.596
44762.755
44762.924
44763.106
44763.304
44763.524
44763.768
44764.034
44764.326
44764.71
44765.215
44765.954
44766.881
44768.116
44769.551
44771.138
44772.751
44774.472
44776.475
44778.73
44781.174
44783.856
44786.792
44789.979
44793.459
44797.243
44801.347
44805.85
44810.761
44816.091
44821.89
44828.199
44835.038
44842.491
44850.602
44859.418
44869.06
44879.588
44891.071
44903.582
44917.147
44931.979
44948.148
44965.75
44984.806
45005.432
45027.915
45052.579
45079.312
45108.177
45139.433
45172.985
45208.999
45247.713
45288.756
45332.231
45378.07
45426.283
45476.683
45529.138
45584.063
45642.405
45704.125
45766.942
45826.091
45879.602
45929.277
45979.22
46032.339
46085.714
46129.057
46178.262
46213.055
46153.223
46182.143
46500.019
46430.911
45946.555
45608.392
45426.005
45392.509
44743.044
44743.039
44743.035
44743.03
44743.025
44743.02
44743.015
44743.011
44743.006
44743.003
44742.999
44742.996
44742.994
44742.992
44742.991
44742.99
44742.991
44742.992
44742.995
44742.999
44743.005
44743.013
44743.023
44743.035
44743.05
44743.068
44743.088
44743.113
44743.142
44743.175
44743.214
44743.259
44743.311
44743.37
44743.437
44743.514
44743.6
44743.697
44743.804
44743.923
44744.052
44744.191
44744.34
44744.498
44744.668
44744.85
44745.048
44745.266
44745.51
44745.783
44746.093
44746.493
44747.044
44747.784
44748.731
44749.911
44751.298
44752.833
44754.614
44756.531
44758.587
44760.844
44763.346
44766.073
44769.064
44772.356
44775.93
44779.826
44784.057
44788.655
44793.651
44799.05
44804.925
44811.324
44818.285
44825.913
44834.178
44843.211
44853.067
44863.807
44875.513
44888.273
44902.144
44917.306
44933.762
44951.619
44970.93
44991.924
45014.905
45040.018
45067.137
45096.49
45128.222
45162.246
45198.532
45237.093
45278.036
45321.326
45366.786
45414.543
45464.793
45517.991
45575.132
45636.393
45700.558
45763.181
45821.449
45875.94
45926.54
45975.718
46028.635
46082.756
46127.379
46176.139
46206.519
46145.646
46191.469
46515.99
46403.819
45914.185
45589.961
45420.297
45394.212
44723.713
44723.709
44723.704
44723.7
44723.695
44723.69
44723.685
44723.681
44723.677
44723.673
44723.669
44723.666
44723.664
44723.662
44723.661
44723.661
44723.661
44723.664
44723.667
44723.672
44723.68
44723.689
44723.701
44723.715
44723.733
44723.753
44723.777
44723.805
44723.837
44723.874
44723.917
44723.966
44724.022
44724.086
44724.159
44724.24
44724.332
44724.434
44724.547
44724.671
44724.805
44724.949
44725.102
44725.266
44725.44
44725.628
44725.835
44726.064
44726.319
44726.597
44726.9
44727.282
44727.804
44728.559
44729.596
44730.921
44732.474
44734.178
44736.021
44738.08
44740.337
44742.751
44745.376
44748.268
44751.379
44754.737
44758.375
44762.293
44766.576
44771.22
44776.253
44781.732
44787.673
44794.153
44801.228
44808.938
44817.324
44826.5
44836.468
44847.312
44859.114
44871.954
44885.932
44901.174
44917.714
44935.705
44955.258
44976.638
45000.004
45025.348
45052.73
45082.399
45114.356
45148.499
45185.023
45223.716
45264.666
45307.925
45353.515
45401.889
45453.557
45509.19
45568.991
45632.437
45696.461
45758.108
45816.653
45872.849
45923.69
45972.229
46024.844
46079.655
46125.77
46174.191
46199.153
46138.703
46202.605
46529.83
46374.958
45882.31
45572.379
45415.207
45396.219
44708.189
44708.184
44708.18
44708.176
44708.171
44708.166
44708.162
44708.157
44708.153
44708.15
44708.147
44708.144
44708.142
44708.141
44708.141
44708.141
44708.143
44708.146
44708.151
44708.158
44708.166
44708.177
44708.19
44708.206
44708.224
44708.246
44708.272
44708.301
44708.336
44708.375
44708.42
44708.471
44708.53
44708.596
44708.672
44708.757
44708.852