/*--------------------------------*- C++ -*----------------------------------*\
| =========                 |                                                 |
| \\      /  F ield         | OpenFOAM: The Open Source CFD Toolbox           |
|  \\    /   O peration     | Version:  2506                                  |
|   \\  /    A nd           | Website:  www.openfoam.com                      |
|    \\/     M anipulation  |                                                 |
\*---------------------------------------------------------------------------*/
FoamFile
{
    version     2.0;
    format      ascii;
    arch        "LSB;label=32;scalar=64";
    class       volScalarField;
    location    "0.0085";
    object      T;
}
// * * * * * * * * * * * * * * * * * * * * * * * * * * * * * * * * * * * * * //

dimensions      [0 0 0 1 0 0 0];

internalField   nonuniform List<scalar> 
13761
(
245.48585
245.48588
245.48591
245.48594
245.48597
245.486
245.48604
245.48607
245.64765
245.4861
245.64764
245.48614
245.64764
245.48617
245.64764
245.48621
245.64764
245.48624
245.64763
245.48628
245.64763
245.48631
245.64763
245.48635
245.49821
245.64763
245.48639
245.49822
245.64763
245.48643
245.49824
245.64763
245.48646
245.49826
245.64763
245.4865
245.49827
245.64763
245.48654
245.49829
245.64763
245.48658
245.4983
245.64763
245.48662
245.52218
245.49832
245.64763
245.48666
245.5222
245.49833
245.64763
245.4867
245.52222
245.49835
245.64763
245.48674
245.52224
245.49837
245.64763
245.48678
245.52225
245.49839
245.64763
245.48682
245.52227
245.4984
245.64763
245.48686
245.52229
245.49842
245.64763
245.52231
245.49844
245.64764
245.48537
245.52233
245.49846
245.64764
245.48537
245.52234
245.49847
245.64764
245.48538
245.52236
245.49849
245.64764
245.48539
245.52238
245.49851
245.64765
245.48539
245.5224
245.49853
245.64765
245.4854
245.52242
245.49855
245.64766
245.48541
245.52244
245.49857
245.64766
245.48541
245.52245
245.49859
245.48552
245.48542
245.52247
245.49861
245.48552
245.48543
245.52249
245.49863
245.48553
245.48543
245.52251
245.49865
245.48553
245.48544
245.52253
245.49867
245.48554
245.48544
245.52255
245.49869
245.48554
245.48545
245.52257
245.49871
245.48554
245.48546
245.52258
245.49873
245.48078
245.48555
245.48546
245.5226
245.49875
245.48079
245.48555
245.48547
245.52262
245.48079
245.48556
245.48548
245.52264
245.48079
245.48556
245.48548
245.52266
245.48079
245.48557
245.48549
245.52268
245.48079
245.48557
245.4855
245.5227
245.48079
245.48558
245.4855
245.52272
245.48052
245.48079
245.48558
245.48551
245.52273
245.48052
245.48079
245.48559
245.48552
245.52275
245.48052
245.4808
245.48559
245.48552
245.52277
245.48052
245.4808
245.4856
245.48553
245.48053
245.4808
245.4856
245.48554
245.48053
245.4808
245.48561
245.48554
245.48053
245.4808
245.48561
245.48555
245.48008
245.48053
245.4808
245.48562
245.48556
245.48008
245.48053
245.4808
245.48562
245.48556
245.48008
245.48053
245.48081
245.48563
245.48557
245.48008
245.48053
245.48081
245.48563
245.48558
245.48008
245.48053
245.48081
245.48564
245.48008
245.48053
245.48081
245.48564
245.48008
245.48053
245.48081
245.48565
245.48004
245.48008
245.48053
245.48081
245.48565
245.48004
245.48008
245.48053
245.48081
245.48566
245.48004
245.48008
245.48053
245.48081
245.48566
245.48004
245.48008
245.48054
245.48082
245.48567
245.48004
245.48008
245.48054
245.48082
245.48567
245.48004
245.48008
245.48054
245.48082
245.48568
245.48004
245.48009
245.48054
245.48082
245.47998
245.48004
245.48009
245.48054
245.48082
245.47998
245.48004
245.48009
245.48054
245.48082
245.47998
245.48004
245.48009
245.48054
245.48082
245.47998
245.48004
245.48009
245.48054
245.48083
245.47998
245.48004
245.48009
245.48054
245.48083
245.47998
245.48004
245.48009
245.48054
245.48083
245.47979
245.47998
245.48004
245.48009
245.48054
245.48083
245.47979
245.47998
245.48004
245.48009
245.48054
245.48083
245.4798
245.47998
245.48004
245.48009
245.48054
245.4798
245.47998
245.48004
245.48009
245.48055
245.47981
245.47998
245.48004
245.48009
245.48055
245.47981
245.47998
245.48004
245.48009
245.48055
245.47981
245.47998
245.48004
245.48009
245.48055
245.47881
245.47982
245.47998
245.48004
245.48009
245.48055
245.47883
245.47982
245.47998
245.48004
245.48009
245.48055
245.47886
245.47982
245.47998
245.48004
245.48009
245.48055
245.47888
245.47983
245.47998
245.48004
245.48009
245.4789
245.47983
245.47998
245.48004
245.48009
245.47892
245.47983
245.47999
245.48004
245.48009
245.47426
245.47894
245.47984
245.47999
245.48004
245.48009
245.47436
245.47896
245.47984
245.47999
245.48004
245.48009
245.47446
245.47898
245.47984
245.47999
245.48004
245.48009
245.47456
245.47899
245.47985
245.47999
245.48004
245.48009
245.47465
245.47901
245.47985
245.47999
245.48004
245.48009
245.47475
245.47903
245.47985
245.47999
245.48004
245.45668
245.47484
245.47905
245.47986
245.47999
245.48004
245.45707
245.47493
245.47907
245.47986
245.47999
245.48004
245.45745
245.47503
245.47909
245.47986
245.47999
245.48004
245.45782
245.47512
245.47911
245.47987
245.47999
245.48004
245.4582
245.47521
245.47912
245.47987
245.47999
245.48004
245.40089
245.45857
245.4753
245.47914
245.47987
245.47999
245.48004
245.40207
245.45893
245.47539
245.47916
245.47987
245.47999
245.48004
245.40323
245.4593
245.47547
245.47918
245.47988
245.47999
245.40439
245.45966
245.47556
245.47919
245.47988
245.47999
245.40554
245.46001
245.47564
245.47921
245.47988
245.47999
245.40669
245.46036
245.47573
245.47923
245.47989
245.47999
245.26759
245.40782
245.46071
245.47581
245.47924
245.47989
245.47999
245.27039
245.40894
245.46106
245.47589
245.47926
245.47989
245.47999
245.27315
245.41006
245.4614
245.47598
245.47927
245.47989
245.47999
245.27591
245.41117
245.46174
245.47606
245.47929
245.4799
245.47999
245.27865
245.41227
245.46207
245.47614
245.47931
245.4799
245.006
245.28137
245.41335
245.4624
245.47621
245.47932
245.4799
245.0114
245.28407
245.41443
245.46273
245.47629
245.47934
245.4799
245.01675
245.28676
245.4155
245.46305
245.47637
245.47935
245.47991
245.02209
245.28943
245.41657
245.46337
245.47644
245.47937
245.47991
245.0274
245.29208
245.41762
245.46369
245.47652
245.47938
245.47991
244.59275
245.03268
245.29471
245.41866
245.464
245.47659
245.47939
245.47991
244.60129
245.03794
245.29733
245.41969
245.46431
245.47666
245.47941
244.60978
245.04317
245.29993
245.42072
245.46462
245.47674
245.47942
244.61825
245.04837
245.30251
245.42173
245.46492
245.47681
245.47944
244.05715
244.62669
245.05355
245.30507
245.42274
245.46521
245.47688
245.47945
244.06816
244.63511
245.0587
245.30761
245.42373
245.46551
245.47694
245.47946
244.07914
244.64349
245.06382
245.31014
245.42472
245.4658
245.47701
245.47947
244.0901
244.65184
245.06891
245.31265
245.42569
245.46609
245.47708
245.47949
244.10105
244.66016
245.07398
245.31513
245.42666
245.46637
245.47714
245.4795
243.54439
244.11198
244.66845
245.07902
245.3176
245.42761
245.46665
245.47721
243.55556
244.1229
244.67671
245.08402
245.32005
245.42856
245.46692
245.47727
243.56674
244.1338
244.68494
245.089
245.32248
245.42949
245.4672
245.47733
243.57794
244.14468
244.69313
245.09395
245.3249
245.43042
245.46746
245.4774
243.20103
243.58916
244.15554
244.70129
245.09887
245.32729
245.43133
245.46773
245.47746
243.20919
243.60041
244.16638
244.70942
245.10376
245.32966
245.43224
245.46799
245.47752
243.21744
243.61168
244.1772
244.71752
245.10862
245.33202
245.43314
245.46825
245.47758
243.22579
243.62296
244.188
244.72558
245.11346
245.33435
245.43402
245.4685
243.13518
243.23422
243.63426
244.19878
244.7336
245.11826
245.33667
245.4349
245.46875
243.13789
243.24274
243.64557
244.20953
244.74159
245.12303
245.33896
245.43577
245.469
243.1408
243.25135
243.6569
244.22026
244.74955
245.12777
245.34124
245.43662
245.46924
243.1439
243.26004
243.66824
244.23097
244.75746
245.13247
245.34349
245.43747
245.46948
243.27708
243.14718
243.26881
243.67959
244.24164
244.76534
245.13715
245.34573
245.43831
245.46972
243.2729
243.15065
243.27766
243.69095
244.25229
244.77319
245.1418
245.34794
245.43913
245.46995
243.26911
243.1543
243.28658
243.70231
244.26292
244.78099
245.14641
245.35014
245.43995
243.26568
243.15812
243.29557
243.71368
244.27351
244.78876
245.15099
245.35231
245.44075
243.53597
243.26261
243.16211
243.30463
243.72506
244.28408
244.79649
245.15554
245.35447
245.44155
243.52108
243.25989
243.16628
243.31376
243.73644
244.29461
244.80418
245.16006
245.3566
245.44234
243.50685
243.2575
243.1706
243.32295
243.74782
244.30512
244.81183
245.16455
245.35872
245.44311
243.49323
243.25545
243.17509
243.3322
243.7592
244.31559
244.81945
245.169
245.36081
245.44388
243.92125
243.48023
243.25372
243.17974
243.34151
243.77058
244.32604
244.82702
245.17342
245.36289
245.44464
243.89227
243.46784
243.2523
243.18454
243.35087
243.78196
244.33645
244.83456
245.17781
245.36494
243.86401
243.45605
243.25119
243.18949
243.36029
243.79334
244.34683
244.84205
245.18216
245.36697
244.53106
243.83645
243.44486
243.25037
243.19458
243.36976
243.80471
244.35717
244.84951
245.18648
245.36899
244.49208
243.80959
243.43425
243.24984
243.19981
243.37927
243.81607
244.36748
244.85692
245.19077
245.37098
244.45321
243.78346
243.42422
243.24959
243.20517
243.38883
243.82743
244.37776
244.86428
245.19503
245.37295
245.13383
244.41443
243.75807
243.41475
243.24961
243.21067
243.39844
243.83878
244.388
244.87161
245.19925
245.3749
245.10408
244.37581
243.73343
243.40583
243.24989
243.21628
243.40808
243.85012
244.3982
244.87889
245.20344
245.07306
244.33739
243.70954
243.39745
243.25043
243.22202
243.41777
243.86145
244.40837
244.88613
245.20759
245.23359
245.04079
244.29924
243.68641
243.3896
243.25122
243.22788
243.42749
243.87277
244.4185
244.89332
245.21171
245.23036
245.00738
244.26141
243.66405
243.38226
243.25225
243.23384
243.43724
243.88408
244.42859
244.90048
245.2158
245.22612
244.97293
244.22395
243.64246
243.37543
243.25351
243.23992
243.44703
243.89538
244.43864
244.90759
245.21986
245.09563
245.22076
244.93753
244.18691
243.62163
243.36908
243.25501
243.2461
243.45686
243.90666
244.44865
244.91466
245.22388
245.09151
245.21418
244.90128
244.15033
243.60157
243.36321
243.25672
243.25238
243.46671
243.91793
244.45861
244.92169
245.22787
245.14173
245.08765
245.20628
244.86427
244.11427
243.58227
243.3578
243.25866
243.25876
243.47659
243.92917
244.46854
244.92867
245.12953
245.08405
245.19698
244.82657
244.07876
243.56373
243.35284
243.26081
243.26523
243.48649
243.9404
244.47842
244.93561
245.11744
245.08068
245.1862
244.78828
244.04385
243.54595
243.34832
243.26316
243.27179
243.49642
243.9516
244.48826
244.94251
245.21981
245.10548
245.07751
245.17387
244.74947
244.00958
243.5289
243.34423
243.26572
243.27845
243.50637
243.96278
244.49807
244.94936
245.20805
245.09369
245.07452
245.15995
244.71023
243.97598
243.5126
243.34054
243.26848
243.28518
243.51634
243.97393
244.50783
244.95617
245.205
245.19581
245.08211
245.07167
245.14438
244.67063
243.94307
243.49702
243.33726
243.27143
243.292
243.52632
243.98506
244.51755
244.96293
245.20049
245.18306
245.07076
245.06892
245.12713
244.63076
243.9109
243.48215
243.33436
243.27456
243.29889
243.53631
243.99617
244.52722
245.19554
245.16987
245.05967
245.06623
245.10816
244.59069
243.87947
243.46798
243.33185
243.27788
243.30585
243.54632
244.00725
244.53686
245.11377
245.19003
245.15626
245.04888
245.06356
245.08747
244.55049
243.84883
243.45449
243.3297
243.28137
243.31289
243.55633
244.01832
244.54645
245.10897
245.18389
245.14227
245.03841
245.06086
245.06504
244.51024
243.81898
243.44168
243.32792
243.28504
243.31999
243.56635
244.02935
244.556
245.04181
245.10456
245.17706
245.12792
245.0283
245.05807
245.04088
244.47
243.78995
243.42952
243.32648
243.28888
243.32714
243.57638
244.04037
244.5655
245.03202
245.10046
245.16948
245.11325
245.01858
245.05511
245.01502
244.42985
243.76175
243.41801
243.3254
243.29287
243.33435
243.58642
244.05136
244.57497
245.00012
245.02292
245.09658
245.1611
245.09827
245.00928
245.05191
244.98749
244.38985
243.73439
243.40712
243.32464
243.29702
243.34162
243.59646
244.06232
244.98697
245.0145
245.09283
245.1519
245.08302
245.00044
245.04837
244.95835
244.35007
243.70787
243.39685
243.32422
243.30132
243.34893
243.60652
244.07326
244.9432
244.97425
245.00676
245.0891
245.14187
245.06756
244.99205
245.04437
244.92771
244.31056
243.68222
243.38717
243.32411
243.30576
243.35629
243.61658
244.08417
244.8748
244.92871
244.96199
244.99966
245.08529
245.13102
245.05192
244.98413
245.03978
244.89564
244.27139
243.65743
243.37808
243.32431
243.31033
243.36369
243.62664
244.09505
244.85924
244.91446
244.95023
244.99317
245.08128
245.11935
245.0362
244.97664
245.03445
244.86229
244.23261
243.6335
243.36956
243.32482
243.31504
243.37113
243.63671
244.1059
244.78022
244.84387
244.90049
244.93901
244.98723
245.07697
245.10691
245.02045
244.96957
245.02823
244.82778
244.19428
243.61043
243.3616
243.32563
243.31986
243.37862
243.64677
244.11672
244.69104
244.76339
244.82868
244.88685
244.92835
244.98176
245.07224
245.09374
245.00475
244.9629
245.02096
244.79222
244.15644
243.58823
243.35418
243.32672
243.32481
243.38616
243.65684
244.67269
244.74674
244.81372
244.87357
244.91828
244.97668
245.06701
245.07988
244.98917
244.9566
245.01252
244.75576
244.11915
243.56688
243.34728
243.32809
243.32987
243.39373
243.66691
244.57197
244.65452
244.73029
244.79901
244.86071
244.90881
244.97191
245.06117
245.06539
244.97378
244.95065
245.00276
244.71851
244.08245
243.54637
243.34091
243.32972
243.33504
243.40133
243.67697
244.4623
244.55239
244.63655
244.71405
244.78457
244.8483
244.89994
244.96733
245.05466
245.05032
244.95863
244.94503
244.99156
244.68058
244.04638
243.52671
243.33503
243.33162
243.34033
243.40897
243.68703
244.34497
244.44126
244.533
244.61878
244.69803
244.77044
244.83639
244.89164
244.96283
245.04742
245.03473
244.94379
244.9397
244.97882
244.64209
244.01098
243.50789
243.32965
243.33377
243.34571
243.41664
243.69708
244.32242
244.42041
244.51381
244.60123
244.68227
244.75666
244.825
244.8839
244.9583
245.03941
245.0187
244.92932
244.93463
244.96444
244.60314
243.9763
243.48989
243.32475
243.33616
243.35119
243.42433
244.197
244.30007
244.39977
244.49483
244.58392
244.6668
244.74325
244.81417
244.87666
244.95363
245.03058
245.00228
244.91525
244.9298
244.94834
244.56381
243.94236
243.47269
243.32031
243.3388
243.35677
243.43205
244.06541
244.17313
244.27792
244.37933
244.47607
244.56687
244.65164
244.73027
244.8039
244.86986
244.94871
245.02092
244.98553
244.90165
244.92517
244.93046
244.5242
243.9092
243.4563
243.31633
243.34166
243.36244
243.43979
243.92863
244.04006
244.14946
244.25598
244.35911
244.45756
244.5501
244.63682
244.71774
244.7942
244.86344
244.94343
245.01044
244.96852
244.88854
244.9207
244.91074
244.48441
243.87685
243.4407
243.3128
243.34475
243.36819
243.44756
243.67487
243.78797
243.90186
244.01491
244.12601
244.23427
244.33913
244.4393
244.53364
244.62238
244.7057
244.78506
244.8573
244.93769
244.99914
244.9513
244.87598
244.91633
244.88915
244.4445
243.84533
243.42586
243.3097
243.34806
243.37403
243.45534
243.53328
243.64535
243.75988
243.87528
243.98998
244.10278
244.21279
244.3194
244.42133
244.51751
244.60837
244.69417
244.77647
244.85135
244.9314
244.98705
244.93393
244.86399
244.91201
244.86569
244.40456
243.81467
243.41178
243.30703
243.35157
243.37994
243.46315
243.3931
243.50266
243.61605
243.732
243.84893
243.96528
244.07978
244.19155
244.29995
244.40365
244.50175
244.59481
244.68317
244.76837
244.8455
244.9245
244.97419
244.91646
244.85259
244.90764
244.84038
244.36466
243.78489
243.39844
243.30479
243.35528
243.38592
243.15209
243.25479
243.36146
243.47225
243.58697
243.70435
243.82281
243.94082
244.05704
244.17059
244.28078
244.38631
244.48639
244.58173
244.67272
244.76072
244.83962
244.91691
244.96062
244.89896
244.84181
244.90313
244.81327
244.32487
243.75601
243.38583
243.30295
243.35919
243.39197
243.01856
243.11839
243.2222
243.33004
243.44208
243.55812
243.67694
243.79694
243.91661
244.03457
244.14991
244.26193
244.36933
244.47146
244.56918
244.66282
244.75345
244.83361
244.9086
244.94638
244.88149
244.83165
244.89835
244.78443
244.28526
243.72804
243.37393
243.30152
243.36327
243.39808
242.79491
242.88725
242.98395
243.08487
243.18983
243.29886
243.41215
243.52953
243.64979
243.77133
243.89268
244.01239
244.12953
244.24341
244.35274
244.457
244.55717
244.65345
244.74648
244.82737
244.89953
244.93152
244.86413
244.8221
244.89314
244.75396
244.24589
243.70098
243.36273
243.30048
243.36753
243.40426
242.5054
242.58532
242.66966
242.75848
242.85178
242.94951
243.05155
243.15768
243.26794
243.38249
243.50121
243.62292
243.746
243.86904
243.99052
244.10949
244.22527
244.33658
244.44304
244.54572
244.64459
244.73972
244.82079
244.88968
244.91611
244.84695
244.81313
244.88734
244.722
244.20683
243.67486
243.35221
243.29981
243.37195
243.41049
242.25123
242.31869
242.39051
242.46671
242.54735
242.6325
242.7222
242.81647
242.91527
243.01846
243.12578
243.23727
243.3531
243.47316
243.59632
243.72097
243.84572
243.96899
244.08981
244.20754
244.32087
244.42961
244.53485
244.6362
244.73307
244.81378
244.87907
244.90022
244.83002
244.80474
244.88079
244.68868
244.16813
243.64967
243.34236
243.29952
243.37653
242.0337
242.08831
242.14737
242.2109
242.27886
242.35126
242.42813
242.50951
242.59548
242.68609
242.78135
242.88123
242.98558
243.09413
243.20687
243.324
243.44541
243.57004
243.69626
243.82273
243.94781
244.07052
244.19024
244.30567
244.41673
244.52454
244.62822
244.72643
244.80625
244.8677
244.8839
244.81341
244.79689
244.87328
244.65413
244.12985
243.62542
243.33316
243.29959
243.38127
241.75112
241.78176
241.81593
241.85385
241.89576
241.94184
241.99229
242.0472
242.10665
242.17062
242.23911
242.31212
242.38966
242.47181
242.55862
242.65016
242.74643
242.84741
242.95295
243.06274
243.17676
243.2952
243.41798
243.54408
243.67189
243.8001
243.92703
244.05166
244.17341
244.29099
244.40443
244.51478
244.62059
244.71969
244.79814
244.85559
244.86723
244.79719
244.78956
244.86467
244.6185
244.09205
243.60211
243.3246
243.30001
243.38614
241.55557
241.56452
241.57488
241.58693
241.60094
241.61717
241.63585
241.65721
241.68146
241.70883
241.73953
241.77378
241.81183
241.8539
241.9002
241.9509
242.00615
242.06598
242.13042
242.19946
242.27308
242.35133
242.43426
242.52194
242.61442
242.71172
242.81382
242.92056
243.03162
243.14695
243.26671
243.39087
243.51847
243.64789
243.77787
243.90668
244.03326
244.1571
244.27687
244.39271
244.50555
244.61323
244.71274
244.78937
244.84279
244.85027
244.78141
244.78273
244.85477
244.58192
244.05477
243.57974
243.31666
243.30076
243.39116
244.83046
244.83058
244.83088
244.83142
244.83228
244.83353
244.83524
244.83742
244.84002
244.84297
244.84619
244.84965
244.85333
244.8572
244.86128
244.86556
244.87005
244.87478
244.87975
244.88499
244.89052
244.89636
244.90256
244.90913
244.91611
244.92354
244.93145
244.93988
244.94887
244.95845
244.96867
244.97957
244.99119
245.00358
245.01677
245.03083
245.04581
245.06177
245.07877
245.09691
245.11626
245.13694
245.15909
245.18286
245.20844
245.23606
245.26599
245.29848
245.33334
245.36715
245.36903
245.25394
245.01278
244.64494
244.11009
243.42257
242.7117
242.1335
241.76004
241.56684
241.48787
241.46482
241.46342
241.4685
241.47483
241.48108
241.48711
241.49314
241.49942
241.50625
241.51392
241.52273
241.53296
241.54489
241.55881
241.57495
241.59358
241.6149
241.63915
241.66654
241.69729
241.73164
241.76982
241.81206
241.85859
241.90957
241.96515
242.0254
242.09032
242.15991
242.23418
242.31315
242.39689
242.48545
242.5789
242.67725
242.78048
242.88843
243.00079
243.11745
243.23857
243.36413
243.49323
243.62429
243.75607
243.88679
244.01537
244.14133
244.26333
244.38158
244.49679
244.60603
244.70547
244.77991
244.82935
244.83309
244.76613
244.77635
244.84343
244.54454
244.01808
243.55831
243.30932
243.30185
243.3963
244.80438
244.80449
244.80478
244.80529
244.80611
244.80732
244.80899
244.81112
244.81367
244.81658
244.81977
244.8232
244.82686
244.83074
244.83482
244.83912
244.84365
244.84841
244.85344
244.85873
244.86434
244.87027
244.87655
244.88323
244.89033
244.89789
244.90594
244.91452
244.92367
244.93343
244.94384
244.95494
244.96678
244.97939
244.99283
245.00715
245.02241
245.03865
245.05597
245.07442
245.09412
245.11516
245.13769
245.16185
245.18784
245.21589
245.24625
245.27913
245.31434
245.34846
245.35164
245.23723
244.99001
244.60946
244.05934
243.36075
242.64766
242.07457
241.70852
241.5212
241.44554
241.42387
241.42285
241.42792
241.43412
241.44021
241.44607
241.45193
241.45805
241.46473
241.47225
241.48092
241.49102
241.50285
241.51667
241.53274
241.5513
241.5726
241.59685
241.62427
241.65509
241.68954
241.72786
241.77028
241.81704
241.86831
241.92425
241.98491
242.05032
242.12049
242.19542
242.27513
242.35969
242.44917
242.54361
242.64302
242.7474
242.85659
242.97026
243.08828
243.21078
243.33777
243.4684
243.60113
243.73473
243.8674
243.998
244.12613
244.25039
244.37101
244.48844
244.59891
244.69779
244.76973
244.8153
244.81576
244.75138
244.77038
244.83053
244.50647
243.98202
243.53781
243.30257
243.30324
244.77653
244.77665
244.77693
244.77745
244.77827
244.77948
244.78116
244.7833
244.78587
244.78879
244.79201
244.79548
244.79917
244.80309
244.80722
244.81157
244.81616
244.82099
244.82608
244.83146
244.83714
244.84316
244.84955
244.85633
244.86354
244.87122
244.8794
244.88812
244.89742
244.90734
244.91792
244.9292
244.94123
244.95405
244.96771
244.98226
244.99776
245.01427
245.03187
245.05062
245.07064
245.09202
245.11489
245.13943
245.16582
245.19427
245.22504
245.25832
245.29387
245.3283
245.33279
245.21927
244.96601
244.57227
244.00629
243.29658
242.58191
242.01475
241.65667
241.47546
241.40317
241.38289
241.38225
241.3873
241.39338
241.39931
241.40502
241.41071
241.41668
241.4232
241.43058
241.43911
241.4491
241.46082
241.47455
241.49055
241.50906
241.53033
241.55458
241.58204
241.61293
241.64749
241.68596
241.72858
241.77558
241.82715
241.88344
241.94454
242.01047
242.08122
242.15682
242.23729
242.3227
242.41311
242.50856
242.60907
242.71461
242.82506
242.94007
243.05947
243.18339
243.31183
243.44402
243.57844
243.7139
243.84855
243.98121
244.11153
244.23805
244.36098
244.48044
244.59174
244.68962
244.75883
244.80072
244.79835
244.73721
244.7648
244.81594
244.46783
243.94664
243.51823
243.2964
243.30495
244.74818
244.74829
244.74857
244.74908
244.7499
244.7511
244.75277
244.75491
244.75747
244.76039
244.76361
244.76708
244.77079
244.77472
244.77887
244.78325
244.78787
244.79273
244.79787
244.8033
244.80904
244.81513
244.82159
244.82845
244.83575
244.84352
244.8518
244.86063
244.87006
244.88011
244.89083
244.90227
244.91447
244.92747
244.94133
244.9561
244.97183
244.98859
245.00645
245.02549
245.04581
245.06751
245.09074
245.11564
245.14242
245.17128
245.20246
245.23614
245.27205
245.30683
245.31262
245.2002
244.94093
244.53349
243.95099
243.23011
242.5145
241.9541
241.60455
241.4297
241.36084
241.34193
241.34166
241.34671
241.35265
241.35843
241.36398
241.36953
241.37534
241.38171
241.38895
241.39735
241.40722
241.41884
241.43249
241.44842
241.46688
241.48813
241.51239
241.53989
241.57085
241.60553
241.64415
241.68697
241.73423
241.78611
241.84278
241.90432
241.97077
242.04213
242.11841
242.19966
242.28593
242.37729
242.47378
242.5754
242.68214
242.79386
242.91023
243.03105
243.15642
243.28634
243.42012
243.55626
243.6936
243.83027
243.96502
244.09755
244.22631
244.35145
244.4727
244.58443
244.68086
244.7472
244.78567
244.78092
244.72363
244.75953
244.79956
244.42875
243.912
243.49955
243.29078
243.30694
244.71874
244.71885
244.71913
244.71963
244.72045
244.72166
244.72333
244.72547
244.72803
244.73095
244.73417
244.73765
244.74136
244.7453
244.74947
244.75387
244.75851
244.76341
244.76858
244.77405
244.77984
244.78598
244.7925
244.79943
244.8068
244.81466
244.82303
244.83196
244.8415
244.85167
244.86253
244.87411
244.88647
244.89965
244.91369
244.92867
244.94462
244.96162
244.97974
244.99906
245.01968
245.04172
245.06529
245.09057
245.11775
245.14702
245.17863
245.21274
245.24903
245.28418
245.29129
245.18014
244.91489
244.49324
243.89351
243.16136
242.44546
241.89268
241.55223
241.38398
241.31859
241.30106
241.30115
241.30618
241.31201
241.31763
241.32303
241.32841
241.33407
241.3403
241.34739
241.35567
241.36542
241.37694
241.39051
241.40637
241.42479
241.44602
241.47029
241.49783
241.52888
241.56368
241.60247
241.6455
241.69302
241.74522
241.80228
241.86428
241.93126
242.00324
242.08023
242.16227
242.24942
242.34175
242.43931
242.54207
242.65001
242.76303
242.88079
243.00306
243.12991
243.26135
243.39674
243.53464
243.6739
243.81261
243.94946
244.08419
244.21515
244.34236
244.46511
244.57687
244.67147
244.73486
244.7702
244.76354
244.71067
244.75453
244.78134
244.38933
243.87814
243.48178
243.28571
243.30921
244.68859
244.6887
244.68897
244.68946
244.69026
244.69145
244.6931
244.69521
244.69775
244.70064
244.70384
244.7073
244.71099
244.71492
244.71909
244.72349
244.72813
244.73304
244.73824
244.74373
244.74955
244.75573
244.76229
244.76928
244.77671
244.78464
244.7931
244.80212
244.81176
244.82204
244.83303
244.84475
244.85726
244.87061
244.88484
244.90002
244.9162
244.93344
244.95183
244.97144
244.99237
245.01473
245.03867
245.06434
245.09193
245.12164
245.1537
245.18826
245.22497
245.26053
245.26894
245.15923
244.88803
244.45163
243.83391
243.09035
242.37484
241.83054
241.49979
241.33838
241.27652
241.26035
241.26079
241.2658
241.27149
241.27696
241.28219
241.28742
241.29292
241.299
241.30596
241.3141
241.32373
241.33515
241.34864
241.36444
241.38282
241.40403
241.42832
241.45591
241.48705
241.52198
241.56094
241.6042
241.65199
241.70453
241.76198
241.82445
241.89198
241.96459
242.0423
242.12514
242.21319
242.30652
242.40516
242.50909
242.61827
242.73261
242.85178
242.97553
243.1039
243.2369
243.37394
243.51362
243.65481
243.79558
243.93454
244.07146
244.20455
244.33364
244.45758
244.56895
244.6614
244.72186
244.75439
244.74627
244.69834
244.74972
244.76121
244.34967
243.8451
243.46488
243.28116
243.31176
244.65724
244.65735
244.65761
244.6581
244.65889
244.66006
244.66168
244.66378
244.66629
244.66917
244.67234
244.67578
244.67946
244.68338
244.68754
244.69194
244.69659
244.70152
244.70673
244.71225
244.7181
244.72432
244.73093
244.73797
244.74547
244.75347
244.76201
244.77112
244.78086
244.79127
244.80238
244.81425
244.82692
244.84044
244.85486
244.87025
244.88666
244.90415
244.92281
244.94272
244.96398
244.9867
245.01101
245.03709
245.06511
245.09529
245.12783
245.16287
245.20003
245.23603
245.24574
245.13757
244.86047
244.40876
243.77225
243.01714
242.30268
241.76776
241.44731
241.29298
241.23468
241.21987
241.22063
241.2256
241.23115
241.23646
241.24152
241.24658
241.25193
241.25785
241.26466
241.27267
241.28219
241.2935
241.30691
241.32265
241.34099
241.36219
241.3865
241.41416
241.4454
241.48047
241.51962
241.5631
241.61118
241.66406
241.72193
241.78488
241.85298
241.92623
242.00466
242.08833
242.1773
242.27164
242.37138
242.47651
242.58696
242.70264
242.82325
242.94851
243.07844
243.21302
243.35174
243.49323
243.63637
243.77921
243.92027
244.05932
244.19444
244.32521
244.45
244.56056
244.6506
244.70824
244.7383
244.72916
244.68663
244.74501
244.73917
244.30988
243.81293
243.44884
243.27713
244.62497
244.62507
244.62532
244.62579
244.62656
244.62771
244.6293
244.63137
244.63385
244.63669
244.63983
244.64324
244.64691
244.65081
244.65496
244.65936
244.66402
244.66895
244.67418
244.67973
244.68561
244.69187
244.69853
244.70562
244.71318
244.72125
244.72988
244.73909
244.74893
244.75946
244.7707
244.78272
244.79555
244.80926
244.82388
244.83949
244.85614
244.8739
244.89285
244.91307
244.93467
244.95776
244.98248
245.00899
245.03747
245.06814
245.10119
245.13674
245.17438
245.21085
245.22179
245.11525
244.83231
244.36476
243.70866
242.94183
242.22907
241.7044
241.39483
241.2478
241.19311
241.17963
241.1807
241.18562
241.19102
241.19615
241.20104
241.20593
241.2111
241.21687
241.22354
241.23142
241.24081
241.25202
241.26535
241.28104
241.29935
241.32054
241.34488
241.37261
241.40396
241.43918
241.47852
241.52226
241.57063
241.62388
241.68217
241.74562
241.81428
241.88819
241.96737
242.05187
242.14177
242.23714
242.33802
242.44436
242.55611
242.67316
242.79523
242.92204
243.05356
243.18977
243.33018
243.47351
243.61861
243.76351
243.90664
244.04776
244.18476
244.31698
244.44225
244.55164
244.63908
244.69405
244.722
244.71227
244.67556
244.74029
244.71521
244.27005
243.78165
243.43364
243.27359
244.59162
244.59172
244.59196
244.59242
244.59316
244.59429
244.59586
244.59789
244.60035
244.60316
244.60628
244.60968
244.61333
244.61723
244.62137
244.62577
244.63044
244.63539
244.64064
244.64622
244.65214
244.65844
244.66515
244.6723
244.67993
244.68808
244.69679
244.70611
244.71607
244.72672
244.7381
244.75028
244.76329
244.77718
244.79202
244.80786
244.82476
244.8428
244.86205
244.8826
244.90456
244.92804
244.95317
244.98013
245.0091
245.04027
245.07385
245.10993
245.14806
245.18499
245.1971
245.09221
244.80347
244.3196
243.64314
242.86443
242.15401
241.64044
241.3423
241.20281
241.15178
241.13962
241.14099
241.14585
241.15109
241.15604
241.16075
241.16547
241.17048
241.17609
241.18261
241.19035
241.19963
241.21074
241.22398
241.23963
241.25791
241.27911
241.30349
241.3313
241.36277
241.39815
241.43771
241.48171
241.53039
241.58401
241.64274
241.7067
241.77596
241.85054
241.93047
242.01583
242.10667
242.20308
242.30511
242.4127
242.52578
242.64423
242.76778
242.89617
243.02931
243.16717
243.30932
243.45448
243.60154
243.74849
243.89364
244.03673
244.17545
244.30883
244.43423
244.5421
244.62683
244.67937
244.70554
244.69564
244.6651
244.73544
244.68939
244.23026
243.7513
243.41928
243.27053
244.55694
244.55703
244.55727
244.55771
244.55843
244.55953
244.56108
244.56308
244.56551
244.56829
244.57139
244.57477
244.5784
244.58229
244.58644
244.59084
244.59552
244.60049
244.60577
244.61138
244.61734
244.62369
244.63046
244.63768
244.64539
244.65363
244.66245
244.67187
244.68196
244.69275
244.70429