/*--------------------------------*- C++ -*----------------------------------*\
| =========                 |                                                 |
| \\      /  F ield         | OpenFOAM: The Open Source CFD Toolbox           |
|  \\    /   O peration     | Version:  2506                                  |
|   \\  /    A nd           | Website:  www.openfoam.com                      |
|    \\/     M anipulation  |                                                 |
\*---------------------------------------------------------------------------*/
FoamFile
{
    version     2.0;
    format      ascii;
    arch        "LSB;label=32;scalar=64";
    class       volScalarField;
    location    "0.0205";
    object      alphat;
}
// * * * * * * * * * * * * * * * * * * * * * * * * * * * * * * * * * * * * * //

dimensions      [1 -1 -1 0 0 0 0];

internalField   nonuniform List<scalar> 
13761
(
2.4917585e-06
2.4917625e-06
2.4917735e-06
2.4917867e-06
2.4917966e-06
2.4918143e-06
2.4918289e-06
2.4918511e-06
2.4400403e-06
2.4918696e-06
2.4400447e-06
2.4918943e-06
2.4400503e-06
2.4919195e-06
2.4400576e-06
2.4919384e-06
2.4400668e-06
2.4919611e-06
2.4400781e-06
2.4919763e-06
2.4400915e-06
2.4919948e-06
2.4401069e-06
2.4920056e-06
2.4346014e-06
2.4401238e-06
2.4920198e-06
2.4346035e-06
2.4401417e-06
2.4920324e-06
2.434607e-06
2.4401596e-06
2.4920379e-06
2.434612e-06
2.4401767e-06
2.492048e-06
2.4346189e-06
2.4401924e-06
2.492053e-06
2.4346278e-06
2.4402062e-06
2.4920655e-06
2.4346387e-06
2.4402179e-06
2.4920751e-06
2.4398575e-06
2.4346516e-06
2.4402276e-06
2.4920915e-06
2.4398606e-06
2.4346661e-06
2.4402354e-06
2.4921064e-06
2.4398646e-06
2.4346816e-06
2.4402414e-06
2.4921113e-06
2.4398699e-06
2.4346974e-06
2.4402456e-06
2.4921232e-06
2.4398765e-06
2.4347126e-06
2.4402483e-06
2.4921548e-06
2.439885e-06
2.4347266e-06
2.4402504e-06
2.4922302e-06
2.4398953e-06
2.4347389e-06
2.440253e-06
2.4399076e-06
2.4347495e-06
2.4402576e-06
2.4348306e-06
2.4399217e-06
2.4347583e-06
2.4402645e-06
2.4348378e-06
2.4399375e-06
2.4347654e-06
2.4402721e-06
2.4348461e-06
2.4399543e-06
2.4347709e-06
2.4402777e-06
2.4348559e-06
2.4399713e-06
2.4347747e-06
2.4402806e-06
2.4348673e-06
2.4399877e-06
2.4347766e-06
2.4402905e-06
2.4348807e-06
2.4400029e-06
2.4347771e-06
2.4403336e-06
2.4348959e-06
2.4400164e-06
2.434777e-06
2.4404185e-06
2.434913e-06
2.4400279e-06
2.4347776e-06
2.4361239e-06
2.4349314e-06
2.4400376e-06
2.4347801e-06
2.436139e-06
2.4349511e-06
2.4400456e-06
2.4347843e-06
2.4361552e-06
2.4349711e-06
2.4400521e-06
2.4347884e-06
2.4361727e-06
2.4349906e-06
2.4400572e-06
2.4347898e-06
2.4361919e-06
2.435009e-06
2.4400608e-06
2.4347887e-06
2.436213e-06
2.4350256e-06
2.440063e-06
2.4347959e-06
2.4362359e-06
2.4350403e-06
2.4400646e-06
2.4348379e-06
2.4290443e-06
2.4362604e-06
2.435053e-06
2.4400665e-06
2.4349192e-06
2.4290725e-06
2.4362869e-06
2.435064e-06
2.4400701e-06
2.4291016e-06
2.4363145e-06
2.4350734e-06
2.4400762e-06
2.4291319e-06
2.4363426e-06
2.4350816e-06
2.4400841e-06
2.4291635e-06
2.4363705e-06
2.4350885e-06
2.4400913e-06
2.4291968e-06
2.4363975e-06
2.4350943e-06
2.4400955e-06
2.4292318e-06
2.436423e-06
2.4350993e-06
2.4400974e-06
2.4225066e-06
2.4292684e-06
2.4364468e-06
2.4351044e-06
2.4401091e-06
2.422545e-06
2.4293075e-06
2.4364687e-06
2.4351108e-06
2.4401569e-06
2.4225844e-06
2.4293482e-06
2.4364891e-06
2.4351197e-06
2.4402412e-06
2.422625e-06
2.4293902e-06
2.4365081e-06
2.4351316e-06
2.422667e-06
2.4294329e-06
2.436526e-06
2.435145e-06
2.4227107e-06
2.4294756e-06
2.4365429e-06
2.4351574e-06
2.4227561e-06
2.4295177e-06
2.4365586e-06
2.4351663e-06
2.412584e-06
2.4228031e-06
2.4295586e-06
2.4365732e-06
2.4351735e-06
2.4126127e-06
2.4228527e-06
2.429598e-06
2.4365871e-06
2.4351919e-06
2.4126425e-06
2.4229041e-06
2.4296358e-06
2.4366011e-06
2.4352475e-06
2.4126736e-06
2.4229569e-06
2.4296721e-06
2.4366165e-06
2.4353367e-06
2.4127062e-06
2.4230106e-06
2.4297073e-06
2.4366344e-06
2.4127406e-06
2.4230645e-06
2.4297414e-06
2.4366547e-06
2.4127767e-06
2.4231179e-06
2.4297747e-06
2.4366759e-06
2.4080697e-06
2.4128146e-06
2.4231704e-06
2.4298071e-06
2.4366952e-06
2.4080506e-06
2.4128553e-06
2.4232214e-06
2.4298382e-06
2.4367107e-06
2.4080325e-06
2.412898e-06
2.4232708e-06
2.4298682e-06
2.436725e-06
2.4080157e-06
2.4129423e-06
2.4233188e-06
2.4298974e-06
2.4367522e-06
2.4080003e-06
2.4129878e-06
2.4233654e-06
2.4299269e-06
2.4368175e-06
2.4079867e-06
2.4130338e-06
2.4234112e-06
2.4299579e-06
2.4369137e-06
2.4079748e-06
2.4130798e-06
2.4234562e-06
2.4299912e-06
2.4129743e-06
2.4079645e-06
2.4131252e-06
2.4235005e-06
2.4300266e-06
2.4128764e-06
2.4079572e-06
2.4131696e-06
2.4235441e-06
2.4300621e-06
2.4127792e-06
2.4079518e-06
2.4132127e-06
2.4235868e-06
2.4300951e-06
2.4126831e-06
2.4079482e-06
2.4132546e-06
2.4236289e-06
2.4301243e-06
2.4125883e-06
2.4079458e-06
2.4132955e-06
2.4236711e-06
2.4301531e-06
2.4124948e-06
2.4079441e-06
2.4133357e-06
2.4237144e-06
2.4301962e-06
2.4313297e-06
2.4124024e-06
2.4079426e-06
2.4133755e-06
2.4237601e-06
2.4302782e-06
2.4311804e-06
2.4123129e-06
2.4079405e-06
2.4134149e-06
2.4238087e-06
2.4303884e-06
2.4310309e-06
2.4122253e-06
2.4079375e-06
2.4134539e-06
2.4238593e-06
2.4308817e-06
2.4121396e-06
2.4079333e-06
2.4134923e-06
2.4239097e-06
2.4307328e-06
2.4120555e-06
2.4079278e-06
2.4135299e-06
2.4239571e-06
2.4305847e-06
2.4119726e-06
2.4079212e-06
2.4135669e-06
2.4240008e-06
2.4304371e-06
2.4118905e-06
2.4079139e-06
2.4136043e-06
2.4240449e-06
2.4485527e-06
2.4302899e-06
2.4118085e-06
2.4079061e-06
2.4136431e-06
2.424105e-06
2.4485155e-06
2.4301449e-06
2.4117261e-06
2.407898e-06
2.4136845e-06
2.4242046e-06
2.4484768e-06
2.430001e-06
2.4116428e-06
2.4078898e-06
2.4137286e-06
2.4243293e-06
2.4484369e-06
2.429858e-06
2.4115583e-06
2.4078812e-06
2.4137742e-06
2.4483959e-06
2.4297154e-06
2.4114726e-06
2.4078721e-06
2.4138191e-06
2.4483537e-06
2.4295728e-06
2.4113856e-06
2.4078626e-06
2.4138609e-06
2.4411322e-06
2.4483099e-06
2.4294296e-06
2.4112979e-06
2.4078533e-06
2.4138993e-06
2.4412529e-06
2.4482668e-06
2.4292854e-06
2.4112096e-06
2.4078451e-06
2.4139393e-06
2.4413749e-06
2.4482232e-06
2.4291394e-06
2.4111211e-06
2.4078393e-06
2.413997e-06
2.4414982e-06
2.4481789e-06
2.4289915e-06
2.4110324e-06
2.4078366e-06
2.4140946e-06
2.4416231e-06
2.4481337e-06
2.4288415e-06
2.4109435e-06
2.4078367e-06
2.4142144e-06
2.4417493e-06
2.4480874e-06
2.4286894e-06
2.4108541e-06
2.4078382e-06
2.4247326e-06
2.4418766e-06
2.4480396e-06
2.4285355e-06
2.4107641e-06
2.4078384e-06
2.4247968e-06
2.4420072e-06
2.4479895e-06
2.4283801e-06
2.4106735e-06
2.4078352e-06
2.4248628e-06
2.44214e-06
2.4479368e-06
2.4282236e-06
2.4105832e-06
2.4078288e-06
2.4249307e-06
2.4422747e-06
2.4478808e-06
2.4280662e-06
2.4104941e-06
2.4078252e-06
2.4250001e-06
2.4424113e-06
2.4478212e-06
2.4279079e-06
2.4104073e-06
2.4078409e-06
2.4227062e-06
2.425071e-06
2.4425494e-06
2.4477578e-06
2.4277486e-06
2.4103235e-06
2.4078968e-06
2.4226731e-06
2.4251459e-06
2.4426886e-06
2.4476906e-06
2.4275879e-06
2.4102421e-06
2.4079717e-06
2.4226405e-06
2.4252235e-06
2.4428283e-06
2.4476198e-06
2.427426e-06
2.4101612e-06
2.4226086e-06
2.4253037e-06
2.442968e-06
2.4475458e-06
2.4272632e-06
2.4100786e-06
2.4225777e-06
2.4253867e-06
2.4431071e-06
2.447469e-06
2.4271005e-06
2.4099924e-06
2.4225472e-06
2.4254722e-06
2.4432451e-06
2.4473896e-06
2.4269389e-06
2.4099035e-06
2.427833e-06
2.4225171e-06
2.42556e-06
2.4433819e-06
2.4473076e-06
2.4267794e-06
2.4098185e-06
2.4278116e-06
2.4224904e-06
2.4256497e-06
2.4435173e-06
2.447223e-06
2.4266223e-06
2.4097543e-06
2.4277905e-06
2.4224653e-06
2.425741e-06
2.4436515e-06
2.4471355e-06
2.4264666e-06
2.4097305e-06
2.4277697e-06
2.422442e-06
2.4258332e-06
2.4437847e-06
2.447045e-06
2.4263101e-06
2.409722e-06
2.4277488e-06
2.4224205e-06
2.4259258e-06
2.4439171e-06
2.4469514e-06
2.4261506e-06
2.4233348e-06
2.4277276e-06
2.4224007e-06
2.4260185e-06
2.4440491e-06
2.4468553e-06
2.4259864e-06
2.42338e-06
2.4277093e-06
2.4223824e-06
2.4261109e-06
2.4441807e-06
2.4467577e-06
2.4258191e-06
2.423426e-06
2.4276921e-06
2.4223653e-06
2.4262031e-06
2.4443117e-06
2.4466598e-06
2.425656e-06
2.4234728e-06
2.4276759e-06
2.4223489e-06
2.4262952e-06
2.4444417e-06
2.4465623e-06
2.4255146e-06
2.42352e-06
2.4276609e-06
2.4223327e-06
2.4263874e-06
2.4445703e-06
2.4464652e-06
2.425413e-06
2.4178598e-06
2.4235673e-06
2.4276468e-06
2.4223164e-06
2.4264802e-06
2.4446971e-06
2.4463672e-06
2.4253227e-06
2.4178741e-06
2.4236182e-06
2.4276336e-06
2.4222994e-06
2.4265738e-06
2.4448223e-06
2.4462663e-06
2.4178888e-06
2.4236705e-06
2.4276208e-06
2.4222815e-06
2.4266686e-06
2.4449464e-06
2.4461603e-06
2.4179036e-06
2.4237243e-06
2.427608e-06
2.4222626e-06
2.4267644e-06
2.4450704e-06
2.4460482e-06
2.4180967e-06
2.4179182e-06
2.4237799e-06
2.4275947e-06
2.4222428e-06
2.4268613e-06
2.4451952e-06
2.4459321e-06
2.4180825e-06
2.4179361e-06
2.4238371e-06
2.4275804e-06
2.4222223e-06
2.4269588e-06
2.4453214e-06
2.4458198e-06
2.4180684e-06
2.417955e-06
2.4238958e-06
2.4275647e-06
2.4222016e-06
2.4270567e-06
2.4454487e-06
2.445729e-06
2.4180546e-06
2.4179753e-06
2.4239558e-06
2.4275472e-06
2.422181e-06
2.4271551e-06
2.4455754e-06
2.4456766e-06
2.4180408e-06
2.4179971e-06
2.4240167e-06
2.4275278e-06
2.4221608e-06
2.4272542e-06
2.4456993e-06
2.4456306e-06
2.4163607e-06
2.4180265e-06
2.4180204e-06
2.4240782e-06
2.4275064e-06
2.4221411e-06
2.427355e-06
2.4458185e-06
2.416372e-06
2.4180154e-06
2.4180452e-06
2.4241397e-06
2.4274834e-06
2.4221218e-06
2.4274585e-06
2.4459325e-06
2.4163836e-06
2.4180052e-06
2.4180715e-06
2.4242007e-06
2.4274589e-06
2.4221026e-06
2.4275657e-06
2.4460434e-06
2.4163954e-06
2.4179961e-06
2.4180992e-06
2.4242607e-06
2.4274333e-06
2.4220831e-06
2.4276768e-06
2.4461595e-06
2.4134593e-06
2.4164071e-06
2.4179883e-06
2.4181278e-06
2.4243195e-06
2.4274068e-06
2.4220631e-06
2.4277911e-06
2.4462984e-06
2.4134576e-06
2.416422e-06
2.417982e-06
2.4181571e-06
2.4243768e-06
2.4273797e-06
2.4220427e-06
2.4279068e-06
2.4464753e-06
2.4134566e-06
2.416438e-06
2.417977e-06
2.4181865e-06
2.4244326e-06
2.4273519e-06
2.4220224e-06
2.4280217e-06
2.4466556e-06
2.4134565e-06
2.4164553e-06
2.4179733e-06
2.4182156e-06
2.4244871e-06
2.4273231e-06
2.4220031e-06
2.4281343e-06
2.4123922e-06
2.4134566e-06
2.416474e-06
2.4179708e-06
2.4182439e-06
2.4245407e-06
2.4272929e-06
2.4219859e-06
2.4282445e-06
2.4123803e-06
2.4134602e-06
2.4164944e-06
2.4179692e-06
2.4182712e-06
2.4245936e-06
2.4272611e-06
2.4219716e-06
2.4283553e-06
2.412369e-06
2.4134653e-06
2.4165165e-06
2.4179681e-06
2.4182973e-06
2.4246462e-06
2.4272276e-06
2.4219602e-06
2.4284755e-06
2.4123584e-06
2.413472e-06
2.4165404e-06
2.417967e-06
2.418322e-06
2.4246988e-06
2.4271925e-06
2.4219508e-06
2.4286225e-06
2.4110688e-06
2.4123478e-06
2.4134806e-06
2.4165659e-06
2.4179656e-06
2.4183457e-06
2.4247514e-06
2.4271566e-06
2.4219414e-06
2.4288096e-06
2.4110615e-06
2.4123404e-06
2.4134911e-06
2.4165929e-06
2.4179633e-06
2.4183685e-06
2.4248038e-06
2.4271209e-06
2.4219303e-06
2.4290004e-06
2.411055e-06
2.4123341e-06
2.4135036e-06
2.4166211e-06
2.4179599e-06
2.4183909e-06
2.4248557e-06
2.4270862e-06
2.4219161e-06
2.411049e-06
2.4123292e-06
2.4135181e-06
2.4166502e-06
2.4179552e-06
2.4184132e-06
2.4249066e-06
2.4270531e-06
2.4218994e-06
2.4092698e-06
2.411043e-06
2.4123257e-06
2.4135346e-06
2.4166797e-06
2.4179491e-06
2.4184358e-06
2.4249563e-06
2.427021e-06
2.4218833e-06
2.409255e-06
2.4110403e-06
2.4123237e-06
2.4135528e-06
2.4167091e-06
2.4179417e-06
2.4184586e-06
2.4250049e-06
2.4269887e-06
2.4218771e-06
2.4092412e-06
2.4110386e-06
2.4123235e-06
2.4135724e-06
2.416738e-06
2.4179334e-06
2.4184818e-06
2.4250527e-06
2.4269542e-06
2.4218982e-06
2.409228e-06
2.4110382e-06
2.412325e-06
2.4135932e-06
2.416766e-06
2.4179244e-06
2.418505e-06
2.4251006e-06
2.4269155e-06
2.4219576e-06
2.4074431e-06
2.4092149e-06
2.4110392e-06
2.4123283e-06
2.4136146e-06
2.416793e-06
2.4179152e-06
2.4185279e-06
2.4251495e-06
2.426872e-06
2.4220156e-06
2.4074233e-06
2.4092052e-06
2.4110417e-06
2.4123332e-06
2.4136361e-06
2.4168189e-06
2.417906e-06
2.4185502e-06
2.4252005e-06
2.4268244e-06
2.4074045e-06
2.4091968e-06
2.4110458e-06
2.4123395e-06
2.4136574e-06
2.4168438e-06
2.4178971e-06
2.4185717e-06
2.4252537e-06
2.4267765e-06
2.405424e-06
2.4073858e-06
2.4091898e-06
2.4110517e-06
2.412347e-06
2.413678e-06
2.4168679e-06
2.4178886e-06
2.4185927e-06
2.4253084e-06
2.4267383e-06
2.405395e-06
2.4073711e-06
2.4091844e-06
2.4110592e-06
2.4123552e-06
2.4136976e-06
2.4168916e-06
2.4178802e-06
2.4186138e-06
2.4253632e-06
2.4267269e-06
2.4053672e-06
2.4073579e-06
2.4091807e-06
2.4110683e-06
2.4123637e-06
2.4137163e-06
2.4169153e-06
2.4178717e-06
2.418636e-06
2.4254163e-06
2.4267512e-06
2.4034594e-06
2.4053395e-06
2.4073463e-06
2.4091788e-06
2.4110788e-06
2.412372e-06
2.413734e-06
2.4169393e-06
2.4178627e-06
2.4186601e-06
2.4254661e-06
2.4267683e-06
2.403407e-06
2.4053161e-06
2.4073365e-06
2.4091788e-06
2.4110904e-06
2.4123798e-06
2.4137509e-06
2.4169638e-06
2.4178531e-06
2.4186869e-06
2.4255122e-06
2.4033562e-06
2.4052942e-06
2.4073286e-06
2.4091807e-06
2.4111028e-06
2.4123865e-06
2.4137672e-06
2.4169889e-06
2.4178429e-06
2.4187163e-06
2.4255556e-06
2.4017636e-06
2.403306e-06
2.405274e-06
2.4073226e-06
2.4091844e-06
2.4111155e-06
2.412392e-06
2.4137834e-06
2.4170144e-06
2.4178326e-06
2.4187471e-06
2.4256005e-06
2.4016953e-06
2.4032609e-06
2.4052557e-06
2.4073188e-06
2.4091897e-06
2.4111281e-06
2.4123962e-06
2.4137996e-06
2.41704e-06
2.4178227e-06
2.4187778e-06
2.4256569e-06
2.4016261e-06
2.403218e-06
2.4052394e-06
2.407317e-06
2.4091963e-06
2.4111402e-06
2.4123992e-06
2.4138163e-06
2.4170652e-06
2.4178144e-06
2.4188067e-06
2.4257418e-06
2.3998477e-06
2.4015549e-06
2.4031775e-06
2.4052252e-06
2.4073174e-06
2.4092039e-06
2.4111514e-06
2.412401e-06
2.4138334e-06
2.4170897e-06
2.4178084e-06
2.4188324e-06
2.4258615e-06
2.3998064e-06
2.4014874e-06
2.4031395e-06
2.4052132e-06
2.4073197e-06
2.409212e-06
2.4111614e-06
2.4124022e-06
2.413851e-06
2.4171132e-06
2.4178049e-06
2.4188551e-06
2.4259708e-06
2.397214e-06
2.3997587e-06
2.4014204e-06
2.4031041e-06
2.4052037e-06
2.4073237e-06
2.4092202e-06
2.4111703e-06
2.4124029e-06
2.4138688e-06
2.417136e-06
2.4178034e-06
2.4188762e-06
2.3972804e-06
2.3997101e-06
2.4013543e-06
2.4030714e-06
2.4051966e-06
2.4073292e-06
2.4092282e-06
2.411178e-06
2.4124036e-06
2.4138867e-06
2.4171585e-06
2.4178027e-06
2.4189002e-06
2.3973356e-06
2.399657e-06
2.4012893e-06
2.4030417e-06
2.4051919e-06
2.4073358e-06
2.4092354e-06
2.4111848e-06
2.4124046e-06
2.4139042e-06
2.4171816e-06
2.4178009e-06
2.4189377e-06
2.3937452e-06
2.3973781e-06
2.3995996e-06
2.4012259e-06
2.4030148e-06
2.4051895e-06
2.407343e-06
2.4092418e-06
2.4111908e-06
2.4124061e-06
2.4139213e-06
2.4172061e-06
2.4177965e-06
2.4190052e-06
2.3938411e-06
2.3974146e-06
2.3995387e-06
2.4011645e-06
2.402991e-06
2.4051892e-06
2.4073505e-06
2.4092472e-06
2.4111966e-06
2.4124079e-06
2.4139381e-06
2.4172329e-06
2.4177885e-06
2.4191067e-06
2.3909798e-06
2.3939457e-06
2.3974405e-06
2.3994745e-06
2.4011053e-06
2.40297e-06
2.4051907e-06
2.4073577e-06
2.4092517e-06
2.4112025e-06
2.4124101e-06
2.413955e-06
2.4172618e-06
2.4177775e-06
2.4191943e-06
2.390942e-06
2.3940636e-06
2.3974564e-06
2.3994077e-06
2.4010487e-06
2.4029518e-06
2.4051936e-06
2.4073644e-06
2.4092555e-06
2.4112087e-06
2.4124122e-06
2.4139727e-06
2.4172922e-06
2.4177652e-06
2.3909124e-06
2.3941871e-06
2.3974625e-06
2.3993388e-06
2.4009949e-06
2.4029362e-06
2.4051975e-06
2.4073703e-06
2.4092587e-06
2.4112156e-06
2.4124139e-06
2.413992e-06
2.4173226e-06
2.4177566e-06
2.3883556e-06
2.3908921e-06
2.3943135e-06
2.3974595e-06
2.3992682e-06
2.4009441e-06
2.4029229e-06
2.4052019e-06
2.4073753e-06
2.4092619e-06
2.4112231e-06
2.412415e-06
2.4140137e-06
2.4173514e-06
2.4177627e-06
2.388284e-06
2.3908901e-06
2.3944403e-06
2.3974479e-06
2.3991966e-06
2.4008963e-06
2.4029114e-06
2.4052065e-06
2.4073795e-06
2.4092652e-06
2.4112312e-06
2.4124153e-06
2.4140379e-06
2.4173772e-06
2.4177996e-06
2.3845258e-06
2.3882138e-06
2.3909024e-06
2.3945646e-06
2.3974283e-06
2.3991244e-06
2.4008515e-06
2.4029014e-06
2.4052109e-06
2.4073829e-06
2.4092691e-06
2.4112397e-06
2.4124149e-06
2.4140644e-06
2.4173994e-06
2.4178682e-06
2.3844921e-06
2.3881533e-06
2.3909302e-06
2.3946843e-06
2.3974012e-06
2.3990521e-06
2.4008095e-06
2.4028925e-06
2.4052148e-06
2.407386e-06
2.4092738e-06
2.4112481e-06
2.4124146e-06
2.4140919e-06
2.4174186e-06
2.4179178e-06
2.3785868e-06
2.3844561e-06
2.3880978e-06
2.3909745e-06
2.3947973e-06
2.3973671e-06
2.39898e-06
2.4007702e-06
2.4028842e-06
2.4052183e-06
2.4073889e-06
2.4092793e-06
2.4112561e-06
2.4124151e-06
2.4141187e-06
2.4174369e-06
2.3786249e-06
2.3844253e-06
2.3880483e-06
2.3910355e-06
2.3949018e-06
2.3973266e-06
2.3989084e-06
2.4007332e-06
2.4028763e-06
2.4052214e-06
2.407392e-06
2.4092856e-06
2.4112637e-06
2.4124171e-06
2.4141432e-06
2.4174595e-06
2.3698239e-06
2.3786623e-06
2.3843942e-06
2.3880055e-06
2.3911135e-06
2.3949965e-06
2.3972799e-06
2.3988374e-06
2.4006981e-06
2.4028686e-06
2.4052242e-06
2.4073958e-06
2.4092924e-06
2.4112709e-06
2.4124214e-06
2.4141644e-06
2.4174979e-06
2.3575711e-06
2.3699893e-06
2.3787071e-06
2.3843627e-06
2.3879703e-06
2.3912082e-06
2.3950802e-06
2.3972275e-06
2.3987671e-06
2.4006646e-06
2.4028609e-06
2.405227e-06
2.4074003e-06
2.4092995e-06
2.411278e-06
2.412428e-06
2.4141822e-06
2.4175675e-06
2.3579438e-06
2.3701639e-06
2.3787535e-06
2.3843311e-06
2.3879436e-06
2.3913186e-06
2.395152e-06
2.3971696e-06
2.3986975e-06
2.4006324e-06
2.4028533e-06
2.4052303e-06
2.4074057e-06
2.4093065e-06
2.4112858e-06
2.4124362e-06
2.4141977e-06
2.4176656e-06
2.3444507e-06
2.3583164e-06
2.3703412e-06
2.3788014e-06
2.3842998e-06
2.3879265e-06
2.3914434e-06
2.3952112e-06
2.3971065e-06
2.3986285e-06
2.4006012e-06
2.4028458e-06
2.4052343e-06
2.407412e-06
2.4093132e-06
2.411295e-06
2.4124448e-06
2.4142132e-06
2.4177394e-06
2.3335088e-06
2.345065e-06
2.3586973e-06
2.370521e-06
2.3788507e-06
2.3842696e-06
2.3879201e-06
2.3915807e-06
2.3952576e-06
2.3970385e-06
2.3985601e-06
2.4005709e-06
2.4028389e-06
2.4052393e-06
2.407419e-06
2.4093196e-06
2.4113065e-06
2.4124521e-06
2.4142349e-06
2.3342677e-06
2.3456842e-06
2.3590801e-06
2.3707034e-06
2.3789013e-06
2.3842414e-06
2.3879255e-06
2.3917279e-06
2.3952909e-06
2.3969656e-06
2.3984921e-06
2.4005414e-06
2.4028326e-06
2.4052457e-06
2.4074265e-06
2.4093258e-06
2.4113204e-06
2.4124569e-06
2.4142746e-06
2.3285243e-06
2.3350161e-06
2.3463016e-06
2.3594648e-06
2.370888e-06
2.3789531e-06
2.3842162e-06
2.387944e-06
2.3918819e-06
2.3953113e-06
2.3968881e-06
2.3984245e-06
2.4005129e-06
2.4028274e-06
2.4052535e-06
2.407434e-06
2.4093325e-06
2.4113367e-06
2.4124585e-06
2.4143467e-06
2.3252846e-06
2.3291279e-06
2.3357634e-06
2.3469174e-06
2.3598511e-06
2.3710748e-06
2.3790057e-06
2.3841953e-06
2.3879769e-06
2.3920393e-06
2.3953188e-06
2.3968062e-06
2.3983574e-06
2.4004855e-06
2.4028236e-06
2.4052627e-06
2.4074413e-06
2.4093404e-06
2.4113542e-06
2.412457e-06
2.4144451e-06
2.3194565e-06
2.3255278e-06
2.3297279e-06
2.3365034e-06
2.3475315e-06
2.3602391e-06
2.3712636e-06
2.3790591e-06
2.3841798e-06
2.3880251e-06
2.3921965e-06
2.3953138e-06
2.3967202e-06
2.3982909e-06
2.4004595e-06
2.4028214e-06
2.4052732e-06
2.4074483e-06
2.4093502e-06
2.4113716e-06
2.4124538e-06
2.4145149e-06
2.319492e-06
2.3257774e-06
2.3303181e-06
2.3372362e-06
2.3481439e-06
2.3606287e-06
2.3714543e-06
2.3791131e-06
2.3841707e-06
2.3880896e-06
2.3923502e-06
2.3952964e-06
2.3966304e-06
2.3982254e-06
2.4004354e-06
2.4028209e-06
2.4052845e-06
2.407455e-06
2.4093626e-06
2.4113873e-06
2.4124515e-06
2.311151e-06
2.3195385e-06
2.3260268e-06
2.3308995e-06
2.3379623e-06
2.3487547e-06
2.3610196e-06
2.3716467e-06
2.3791677e-06
2.3841692e-06
2.3881707e-06
2.3924969e-06
2.3952671e-06
2.3965374e-06
2.398161e-06
2.4004134e-06
2.4028222e-06
2.4052964e-06
2.407462e-06
2.4093774e-06
2.4114003e-06
2.4124565e-06
2.304014e-06
2.311352e-06
2.319605e-06
2.3262771e-06
2.3314733e-06
2.3386822e-06
2.349364e-06
2.3614119e-06
2.3718406e-06
2.3792228e-06
2.3841761e-06
2.3882685e-06
2.3926337e-06
2.3952262e-06
2.3964416e-06
2.3980984e-06
2.4003939e-06
2.4028252e-06
2.4053085e-06
2.4074698e-06
2.4093941e-06
2.4114103e-06
2.4124811e-06
2.2987896e-06
2.304406e-06
2.3115677e-06
2.319683e-06
2.3265291e-06
2.3320409e-06
2.3393963e-06
2.3499719e-06
2.3618055e-06
2.3720356e-06
2.3792787e-06
2.3841922e-06
2.3883824e-06
2.3927579e-06
2.3951743e-06
2.3963439e-06
2.3980378e-06
2.4003772e-06
2.4028297e-06
2.4053206e-06
2.4074791e-06
2.4094116e-06
2.4114177e-06
2.412538e-06
2.2868157e-06
2.2925593e-06
2.2990506e-06
2.3048028e-06
2.3117901e-06
2.3197718e-06
2.3267835e-06
2.3326031e-06
2.3401052e-06
2.3505784e-06
2.3622003e-06
2.3722315e-06
2.3793356e-06
2.3842182e-06
2.3885114e-06
2.3928675e-06
2.3951119e-06
2.3962449e-06
2.3979797e-06
2.4003633e-06
2.4028354e-06
2.4053326e-06
2.4074907e-06
2.4094283e-06
2.4114239e-06
2.4126173e-06
2.2843619e-06
2.2869454e-06
2.2926894e-06
2.2993138e-06
2.3051961e-06
2.3120192e-06
2.319871e-06
2.3270408e-06
2.3331611e-06
2.3408093e-06
2.3511838e-06
2.3625962e-06
2.3724278e-06
2.3793937e-06
2.3842547e-06
2.3886538e-06
2.3929608e-06
2.3950398e-06
2.3961455e-06
2.3979245e-06
2.4003523e-06
2.402842e-06
2.405345e-06
2.4075047e-06
2.4094429e-06
2.4114321e-06
2.4126629e-06
2.2847542e-06
2.2845245e-06
2.2870923e-06
2.2928242e-06
2.2995719e-06
2.3055859e-06
2.312255e-06
2.3199807e-06
2.3273013e-06
2.3337158e-06
2.341509e-06
2.3517879e-06
2.3629928e-06
2.3726242e-06
2.3794536e-06
2.3843023e-06
2.3888074e-06
2.3930366e-06
2.394959e-06
2.3960465e-06
2.3978726e-06
2.400344e-06
2.4028494e-06
2.4053582e-06
2.407521e-06
2.4094546e-06
2.411449e-06
2.2905189e-06
2.2865538e-06
2.2848415e-06
2.2847035e-06
2.2872476e-06
2.2929634e-06
2.2998264e-06
2.3059722e-06
2.3124975e-06
2.320101e-06
2.3275654e-06
2.3342678e-06
2.3422049e-06
2.352391e-06
2.36339e-06
2.3728203e-06
2.3795156e-06
2.3843615e-06
2.3889695e-06
2.3930942e-06
2.3948703e-06
2.3959486e-06
2.3978241e-06
2.4003382e-06
2.4028575e-06
2.4053729e-06
2.4075384e-06
2.4094635e-06
2.411487e-06
2.2970348e-06
2.2903228e-06
2.2865163e-06
2.2849377e-06
2.2848889e-06
2.2874114e-06
2.2931074e-06
2.3000789e-06
2.3063554e-06
2.3127469e-06
2.3202319e-06
2.3278334e-06
2.3348179e-06
2.3428972e-06
2.3529929e-06
2.3637872e-06
2.3730156e-06
2.3795804e-06
2.3844328e-06
2.3891373e-06
2.3931335e-06
2.3947749e-06
2.3958526e-06
2.3977791e-06
2.4003345e-06
2.4028665e-06
2.4053898e-06
2.4075559e-06
2.4094703e-06
2.4115572e-06
2.316509e-06
2.3055055e-06
2.2966354e-06
2.2901278e-06
2.2864731e-06
2.2850322e-06
2.2850797e-06
2.2875841e-06
2.2932565e-06
2.3003313e-06
2.3067358e-06
2.3130034e-06
2.3203737e-06
2.3281058e-06
2.3353665e-06
2.3435865e-06
2.3535935e-06
2.3641839e-06
2.3732099e-06
2.3796487e-06
2.3845167e-06
2.3893073e-06
2.3931548e-06
2.3946738e-06
2.3957591e-06
2.3977375e-06
2.4003326e-06
2.4028768e-06
2.4054095e-06
2.4075719e-06
2.4094765e-06
2.4116459e-06
2.3746617e-06
2.3482611e-06
2.3291486e-06
2.3155987e-06
2.3048632e-06
2.2962326e-06
2.2899232e-06
2.2864231e-06
2.2851241e-06
2.2852752e-06
2.2877658e-06
2.2934112e-06
2.3005851e-06
2.3071139e-06
2.3132671e-06
2.3205264e-06
2.3283828e-06
2.3359142e-06
2.3442728e-06
2.3541928e-06
2.3645795e-06
2.3734027e-06
2.3797212e-06
2.3846133e-06
2.3894761e-06
2.3931589e-06
2.3945683e-06
2.3956686e-06
2.3976993e-06
2.4003321e-06
2.4028892e-06
2.4054317e-06
2.4075853e-06
2.4094856e-06
2.4116971e-06
2.4318679e-06
2.4154194e-06
2.3988345e-06
2.3726622e-06
2.3467168e-06
2.327941e-06
2.3146787e-06
2.3042032e-06
2.2958155e-06
2.289708e-06
2.2863658e-06
2.2852127e-06
2.2854749e-06
2.2879568e-06
2.2935723e-06
2.3008417e-06
2.30749e-06
2.3135384e-06
2.3206899e-06
2.3286649e-06
2.3364612e-06
2.3449566e-06
2.3547903e-06
2.3649733e-06
2.373594e-06
2.3797985e-06
2.384723e-06
2.3896405e-06
2.3931468e-06
2.3944595e-06
2.3955813e-06
2.3976641e-06
2.4003329e-06
2.4029042e-06
2.405456e-06
2.4075958e-06
2.4095049e-06
2.4698381e-06
2.488444e-06
2.4620869e-06
2.4291628e-06
2.4127339e-06
2.3963521e-06
2.3706428e-06
2.3451445e-06
2.3267099e-06
2.3137379e-06
2.3035255e-06
2.2953837e-06
2.289482e-06
2.2863006e-06
2.2852976e-06
2.2856782e-06
2.2881577e-06
2.2937405e-06
2.3011019e-06
2.3078647e-06
2.3138174e-06
2.3208641e-06
2.3289523e-06
2.3370079e-06
2.3456378e-06
2.3553857e-06
2.3653645e-06
2.3737837e-06
2.3798816e-06
2.3848457e-06
2.3897972e-06
2.3931197e-06
2.3943483e-06
2.3954974e-06
2.3976317e-06
2.400335e-06
2.4029223e-06
2.4054812e-06
2.4076036e-06
2.4095467e-06
2.3156943e-06
2.3104926e-06
2.3368896e-06
2.3642599e-06
2.3820598e-06
2.416847e-06
2.4660539e-06
2.4846824e-06
2.4589714e-06
2.4264324e-06
2.4100151e-06
2.3938355e-06
2.3685906e-06
2.3435442e-06
2.3254553e-06
2.3127769e-06
2.3028304e-06
2.2949376e-06
2.289245e-06
2.2862273e-06
2.2853786e-06
2.2858851e-06
2.2883685e-06
2.2939168e-06
2.3013665e-06
2.3082384e-06
2.3141043e-06
2.3210487e-06
2.3292451e-06
2.3375546e-06
2.3463165e-06
2.3559783e-06
2.3657524e-06
2.3739717e-06
2.3799713e-06
2.384981e-06
2.3899434e-06
2.3930792e-06
2.3942358e-06
2.3954169e-06
2.3976017e-06
2.4003387e-06
2.4029436e-06
2.4055059e-06
2.4076098e-06
2.40962e-06
2.4038994e-06
2.360317e-06
2.3143946e-06
2.2839107e-06
2.2781308e-06
2.2864205e-06
2.3040478e-06
2.330774e-06
2.3363294e-06
2.3139134e-06
2.3087305e-06
2.3346827e-06
2.3617702e-06
2.3794364e-06
2.413715e-06
2.4622316e-06
2.4808651e-06
2.4558047e-06
2.4236627e-06
2.4072633e-06
2.3912851e-06
2.3665059e-06
2.341916e-06
2.3241778e-06
2.311796e-06
2.3021186e-06
2.2944774e-06
2.2889971e-06
2.2861462e-06
2.2854559e-06
2.2860954e-06
2.2885896e-06
2.2941018e-06
2.301636e-06
2.3086118e-06
2.3143993e-06
2.3212435e-06
2.3295435e-06
2.3381015e-06
2.3469926e-06
2.3565675e-06
2.3661363e-06
2.3741585e-06
2.3800686e-06
2.3851281e-06
2.3900768e-06
2.3930265e-06
2.3941227e-06
2.3953397e-06
2.3975741e-06
2.4003446e-06
2.4029676e-06
2.4055287e-06
2.4076159e-06
2.4097079e-06
1.6652313e-11
7.0451945e-11
1.425876e-09
1.3278032e-08
7.3141902e-08
2.8877693e-07
8.9772133e-07
2.3037866e-06
5.0185105e-06
9.4988973e-06
1.6014292e-05
2.4634112e-05
3.5288849e-05
4.7850351e-05
6.2191236e-05
7.8217296e-05
9.5882979e-05
0.00011519087
0.00013617965
0.00015892225
0.00018352048
0.00021007904
0.00023869527
0.00026945627
0.00030242238
0.00033762861
0.00037508103
0.00041475403
0.00045659285
0.00050050685
0.00054636014
0.00059395824
0.00064302145
0.00069315904
0.0007438319
0.00079429158
0.00084352168
0.00089016678
0.00093245266
0.00096810368
0.00099426376
0.0010074249
0.0010033918
0.00097730719
0.00092380209
0.00083739776
0.00071345407
0.00055049043
0.00035581295
0.00015676807
4.3768487e-05
1.3769078e-05
7.032472e-06
5.0903974e-06
4.0966855e-06
3.3508017e-06
2.8072067e-06
2.5070364e-06
2.3929449e-06
2.3421285e-06
2.3117868e-06
2.3182403e-06
2.3258113e-06
2.2980363e-06
2.2809105e-06
2.3242173e-06
2.406629e-06
2.4634183e-06
2.465156e-06
2.4357589e-06
2.4007876e-06
2.3579305e-06
2.3125836e-06
2.2822587e-06
2.2763521e-06
2.2844748e-06
2.3018646e-06
2.3282561e-06
2.3339818e-06
2.3121061e-06
2.3069294e-06
2.3324333e-06
2.3592337e-06
2.3767654e-06
2.4105335e-06
2.4583556e-06
2.4769915e-06
2.4525868e-06
2.4208544e-06
2.4044792e-06
2.3887013e-06
2.3643887e-06
2.3402603e-06
2.3228777e-06
2.3107962e-06
2.3013908e-06
2.2940039e-06
2.288739e-06
2.2860575e-06
2.2855295e-06
2.2863089e-06
2.288821e-06
2.2942962e-06
2.3019106e-06
2.3089855e-06
2.3147024e-06
2.3214481e-06
2.3298475e-06
2.3386486e-06
2.3476659e-06
2.3571525e-06
2.3665156e-06
2.3743444e-06
2.3801745e-06
2.385286e-06
2.3901953e-06
2.3929631e-06
2.3940097e-06
2.3952657e-06
2.3975488e-06
2.4003534e-06
2.4029935e-06
2.4055487e-06
2.4076257e-06
2.4097549e-06
1.8070424e-11
7.4309143e-11
1.4936865e-09
1.390487e-08
7.6558857e-08
3.0186284e-07
9.3579453e-07
2.3907501e-06
5.1779121e-06
9.7409053e-06
1.6332312e-05
2.5012642e-05
3.5712979e-05
4.8310891e-05
6.268548e-05
7.8747548e-05
9.6454534e-05
0.00011581034
0.00013685382
0.00015965757
0.00018432297
0.00021095444
0.00023964935
0.00027049527
0.00030355324
0.00033885926
0.00037642043
0.00041621215
0.00045818055
0.00050223572
0.00054824229
0.00059600631
0.00064524863
0.00069557931
0.00074646058
0.00079714596
0.00084662201
0.00089353743
0.00093612361
0.00097211225
0.00099865665
0.0010122603
0.0010087415
0.00098325747
0.00093045055
0.00084483878
0.00072173209
0.00055946968
0.00036485558
0.00016414822
4.6414351e-05
1.4369527e-05
7.1673408e-06
5.1231872e-06
4.0963188e-06
3.3375997e-06
2.7937657e-06
2.4993781e-06
2.3903454e-06
2.3408316e-06
2.3090666e-06
2.3143387e-06
2.3224863e-06
2.2958233e-06
2.2786711e-06
2.3208905e-06
2.4022741e-06
2.4588953e-06
2.4610826e-06
2.4321188e-06
2.397667e-06
2.3555142e-06
2.3107522e-06
2.2805926e-06
2.2745515e-06
2.2824979e-06
2.2996449e-06
2.3256964e-06
2.3315881e-06
2.3102565e-06
2.305091e-06
2.3301428e-06
2.3566514e-06
2.3740474e-06
2.4073024e-06
2.4544257e-06
2.4730615e-06
2.4493179e-06
2.4180077e-06
2.4016631e-06
2.3860845e-06
2.3622395e-06
2.3385773e-06
2.3215558e-06
2.3097783e-06
2.3006482e-06
2.2935181e-06
2.2884712e-06
2.2859616e-06
2.2855999e-06
2.2865254e-06
2.2890628e-06
2.2945005e-06
2.3021906e-06
2.3093601e-06
2.3150134e-06
2.3216621e-06
2.3301572e-06
2.339196e-06
2.3483359e-06
2.3577326e-06
2.36689e-06
2.3745301e-06
2.38029e-06
2.3854531e-06
2.3902977e-06
2.3928903e-06
2.3938974e-06
2.3951945e-06
2.3975263e-06
2.4003656e-06
2.4030199e-06
2.4055659e-06
2.4076472e-06
1.9568303e-11
7.8390851e-11
1.5654968e-09
1.456849e-08
8.0172103e-08
3.1566086e-07
9.7572956e-07
2.4812824e-06
5.3424723e-06
9.9889839e-06
1.6656866e-05
2.5398267e-05
3.6145136e-05
4.8780792e-05
6.3190784e-05
7.9290916e-05
9.7041667e-05
0.0001164483
0.0001375499
0.0001604187
0.00018515563
0.00021186479
0.00024064354
0.00027157979
0.00030473526
0.00034014682
0.00037782257
0.00041773885
0.00045984264
0.00050404466
0.00055021011
0.00059814546
0.00064757212
0.00069810095
0.00074919548
0.00080011126
0.00084983778
0.00089702792
0.00093991868
0.00097624905
0.0010031815
0.001017231
0.0010142288
0.00098934618
0.00093723642
0.00085241465
0.00073014386
0.00056859301
0.00037408742
0.00017183974