/*--------------------------------*- C++ -*----------------------------------*\
| =========                 |                                                 |
| \\      /  F ield         | OpenFOAM: The Open Source CFD Toolbox           |
|  \\    /   O peration     | Version:  2506                                  |
|   \\  /    A nd           | Website:  www.openfoam.com                      |
|    \\/     M anipulation  |                                                 |
\*---------------------------------------------------------------------------*/
FoamFile
{
    version     2.0;
    format      ascii;
    arch        "LSB;label=32;scalar=64";
    class       volVectorField;
    location    "2.35";
    object      wallShearStress;
}
// * * * * * * * * * * * * * * * * * * * * * * * * * * * * * * * * * * * * * //

dimensions      [1 -1 -2 0 0 0 0];

internalField   uniform (0 0 0);

boundaryField
{
    Side
    {
        type            empty;
    }
    Inlet
    {
        type            calculated;
        value           uniform (0 0 0);
    }
    Airfoil
    {
        type            calculated;
        value           nonuniform List<vector> 
26
(
(-3.6772179 -0.0052945901 -6.792079e-24)
(-3.638037 0.10118911 -1.8608009e-18)
(-3.6018349 0.19777854 -3.739794e-20)
(-3.6152045 0.29428248 -2.6606086e-17)
(-3.6390284 0.41445578 3.8672203e-17)
(-3.6364237 0.56774865 -2.4662958e-17)
(-3.5985578 0.69195474 2.3285923e-17)
(-3.6665387 0.88122017 -1.0121486e-17)
(-3.5914476 1.0503276 7.6251301e-19)
(-3.7593878 1.2184505 0)
(-3.6707148 1.50472 -7.9564905e-18)
(-3.8175488 1.5164079 -1.4828177e-20)
(-3.8378037 1.8317232 1.2729171e-17)
(-4.1175132 1.8039893 -1.0597614e-17)
(-4.1971832 2.1831102 8.302655e-18)
(-4.4293119 2.0421183 -4.2099207e-18)
(-4.6605967 2.3031148 -9.6296497e-35)
(-4.783122 2.2455489 -2.7321208e-18)
(-5.0650375 2.1002628 2.1624533e-18)
(-5.27045 2.1099 -8.899244e-19)
(-5.3301875 1.9526915 1.8055593e-34)
(-5.5586964 1.8295371 6.0185311e-36)
(-5.7080959 1.7944007 4.8195561e-19)
(-5.9719122 1.601221 -3.6686112e-21)
(-5.9048799 1.8492989 -9.3446253e-19)
(-6.2255261 1.0047641 -5.1390891e-19)
)
;
    }
    Outlet
    {
        type            calculated;
        value           nonuniform List<vector> 0();
    }
    procBoundary0to1
    {
        type            processor;
        value           uniform (0 0 0);
    }
    procBoundary0to7
    {
        type            processor;
        value           uniform (0 0 0);
    }
}


// ************************************************************************* //
