/*--------------------------------*- C++ -*----------------------------------*\
| =========                 |                                                 |
| \\      /  F ield         | OpenFOAM: The Open Source CFD Toolbox           |
|  \\    /   O peration     | Version:  2506                                  |
|   \\  /    A nd           | Website:  www.openfoam.com                      |
|    \\/     M anipulation  |                                                 |
\*---------------------------------------------------------------------------*/
FoamFile
{
    version     2.0;
    format      ascii;
    arch        "LSB;label=32;scalar=64";
    class       surfaceScalarField;
    location    "0.00014";
    object      phi;
}
// * * * * * * * * * * * * * * * * * * * * * * * * * * * * * * * * * * * * * //

dimensions      [1 0 -1 0 0 0 0];

oriented        oriented;

internalField   nonuniform List<scalar> 
27179
(
-0.10997684
-0.0002072917
-0.1273214
-0.00028159885
-0.12902075
-0.00030838809
-0.12847051
-0.00033378344
-0.12748082
-0.00036108591
-0.12636303
-0.00039107831
-0.12516233
-0.000423841
-0.12371216
-0.0004601284
-0.12158403
-0.00050020734
-0.11846282
-0.00054374671
-0.11424087
-0.00059147046
-0.10925566
-0.00064316133
-0.10427217
-0.00069868869
-0.099108724
-0.00075910396
-0.093997675
-0.00082548446
-0.089211046
-0.00089812403
-0.084191173
-0.00097768702
-0.077082768
-0.0010655618
-0.066533343
-0.0011638736
-0.051360507
-0.0012758243
-0.032418877
-0.001404952
-0.013144448
-0.0015496939
0.0025126818
-0.0017072957
0.018747338
-0.0018735742
0.034860336
-0.0020670373
0.046139731
-0.0022648249
0.05514875
-0.0024810739
0.064693452
-0.0027045368
0.07498638
-0.0029582082
0.087122833
-0.0032225268
0.10167524
-0.003530179
0.11551293
-0.0038603858
0.12384684
-0.0042383688
0.11949522
-0.0046046711
0.10644163
-0.0049864276
0.086502573
-0.0053520848
0.078113822
-0.0057269612
0.082727594
-0.0062131036
0.093232441
-0.006792361
0.097886771
0.088838699
-0.10851513
-0.0002074395
-0.12599909
-0.00028181721
-0.12778625
-0.00030877299
-0.12726511
-0.00033454212
-0.12627458
-0.00036250457
-0.12517587
-0.00039262658
-0.12388142
-0.00042551606
-0.12232907
-0.00046179919
-0.12008362
-0.00050165494
-0.11706386
-0.00054488449
-0.11300573
-0.0005923819
-0.10817228
-0.0006439836
-0.10324282
-0.00069960508
-0.09797468
-0.00076012609
-0.092690563
-0.00082667165
-0.087651622
-0.00089955791
-0.082278527
-0.00097954907
-0.074984676
-0.001067904
-0.064501611
-0.0011665147
-0.049664805
-0.0012783882
-0.031365657
-0.0014065946
-0.012773371
-0.0015499385
0.0026135083
-0.0017066309
0.018688005
-0.0018747537
0.034525303
-0.0020692693
0.045634327
-0.00226756
0.054332534
-0.002485444
0.063305325
-0.0027109702
0.073079417
-0.0029666442
0.085097012
-0.0032331628
0.099639465
-0.0035412062
0.11367918
-0.0038717083
0.12238338
-0.0042495907
0.11824312
-0.0046177076
0.10579795
-0.0050008525
0.086711587
-0.0053703105
0.078531882
0.082632231
-0.10963577
-0.00020699838
-0.12711428
-0.00028220167
-0.12895859
-0.0003094777
-0.12855203
-0.00033570225
-0.12787116
-0.00036406732
-0.12674461
-0.00039467806
-0.12553977
-0.00042819228
-0.12392845
-0.00046467785
-0.12189616
-0.00050454846
-0.11912721
-0.00054786422
-0.11552399
-0.00059544386
-0.11118648
-0.00064717481
-0.1069252
-0.00070304707
-0.10249797
-0.00076367203
-0.097564523
-0.00083028885
-0.092174181
-0.00090347061
-0.086057384
-0.00098417948
-0.078276614
-0.0010733471
-0.067964264
-0.0011724916
-0.054160693
-0.0012843075
-0.037559447
-0.0014116564
-0.020207344
-0.0015533857
-0.0041712452
-0.001709375
0.013705625
-0.0018771916
0.030470779
-0.002072321
0.042543337
-0.002270689
0.053025245
-0.0024905827
0.063928938
-0.0027178017
0.075734653
-0.0029752189
0.088876053
-0.0032443714
0.10361733
-0.0035550514
0.11699297
0.12481354
0.12047084
0.10835413
-0.10580904
-0.00020951356
-0.12343455
-0.00028577496
-0.12553849
-0.00031284325
-0.12541801
-0.00033864195
-0.12505473
-0.00036618861
-0.12402823
-0.00039426206
-0.12283542
-0.00042598307
-0.12122613
-0.00046211754
-0.11920805
-0.00050287501
-0.11652152
-0.00054823744
-0.11311022
-0.00059727453
-0.10912536
-0.00064956596
-0.10509893
-0.00070533508
-0.10071584
-0.00076584792
-0.095735484
-0.0008325718
-0.090107626
-0.00090533997
-0.083474373
-0.00098442884
-0.075180514
-0.001072447
-0.064784182
-0.001172052
-0.051434253
-0.001286276
-0.035631858
-0.0014191442
-0.019124334
-0.0015677635
-0.0038993695
-0.0017271617
0.013376857
-0.0018981901
0.030120862
0.042767555
0.053752637
0.064243744
0.075285102
0.088097752
-0.12047178
-0.00021422707
-0.13737089
-0.13859738
-0.13768839
-0.13609102
-0.13447738
-0.13279744
-0.13139877
-0.12884452
-0.12484006
-0.11910437
-0.11293079
-0.10681645
-0.10079366
-0.095550632
-0.091823652
-0.088595123
-0.082762209
-0.071483936
-0.053687486
-0.029580491
-0.005335655
0.014973977
0.013016567
7.2770144e-07
0.028589442
2.914314e-06
0.042218187
5.6582155e-06
0.055878448
8.8681422e-06
0.067345473
1.2679269e-05
0.078333395
1.6723137e-05
0.092241215
2.140188e-05
0.10628254
2.8361224e-05
0.12557975
3.5796268e-05
0.14541468
4.6833312e-05
0.16655695
5.8127926e-05
0.18454763
7.2418365e-05
0.19687185
8.5647521e-05
0.20177594
0.00010032744
0.20018215
0.00010922078
0.19613707
0.00011699666
0.19178208
0.00012153938
0.19435805
0.0001302146
0.19952857
0.0001436947
0.20791328
0.00016120103
0.21612231
0.0001841783
0.22238574
0.0002050141
0.22420433
0.00022802983
0.22159509
0.00024622328
0.21758095
0.00026364933
0.21271023
0.00027905256
0.2088381
0.00029615155
0.20459642
0.00031745281
0.2010994
0.00033722794
0.19622451
0.00035898129
0.18818209
0.0003751381
0.17388168
0.00038819073
0.15211199
0.0003739554
0.14850835
0.00036549155
0.16043119
0.00040876658
0.17932595
0.00049708796
0.19346718
0.00061779311
0.19666566
0.00069165708
0.18624937
0.00072845606
0.16498838
0.00077304187
0.14421021
0.00076842349
0.14507775
0.0011102285
0.13604435
0.0014370737
-0.0069113141
0.0022997053
-0.14496138
0.0059755293
-0.14359203
0.010048401
-0.14395634
0.012306236
-0.14035536
0.01332312
-0.12785791
0.014670205
-0.10531664
0.015954414
-0.05074648
0.017814329
-0.0014031537
0.020045626
0.053298665
0.021849049
0.12030003
0.024548676
0.1651522
0.025898381
0.19283612
0.028233722
0.19647501
0.032865539
0.050094708
0.039790098
-0.19205954
0.036263076
-0.16367602
0.032594381
-0.02668519
0.035363549
0.12791329
0.044620418
0.21839699
0.052228983
0.27948142
0.05847095
0.31056053
0.064371172
0.30923744
0.069880262
0.1881457
0.075052041
0.0036646374
0.072215624
-0.064833863
0.072884729
-0.064880701
0.07907708
-0.064902464
0.085798195
0.093090901
0.012365903
9.6282547e-07
0.027091659
3.4036662e-06
0.039683173
6.1211649e-06
0.052300086
9.3558825e-06
0.063912828
1.3165205e-05
0.075269019
1.7444469e-05
0.091517844
2.2250252e-05
0.10854936
2.9870231e-05
0.1309229
3.7529115e-05
0.15348231
4.9292416e-05
0.17710125
6.0570895e-05
0.19889048
7.5853097e-05
0.21600691
8.9448228e-05
0.22521063
0.00010556397
0.22358138
0.00011466709
0.21859673
0.00012257287
0.21086117
0.0001270449
0.20907621
0.00013525194
0.2134929
0.00014915984
0.2211354
0.00016688461
0.22935511
0.0001899856
0.2351459
0.00021153074
0.23671291
0.0002347176
0.23405896
0.00025329795
0.22973705
0.000270972
0.2247881
0.00028727444
0.22090427
0.00030497448
0.21650956
0.00032603504
0.21305571
0.00034583638
0.20812676
0.00036858407
0.20032148
0.00038575832
0.18637872
0.00040161102
0.16486952
0.00038983204
0.16179381
0.00038657452
0.17401018
0.00043410614
0.19290388
0.00051695883
0.20678403
0.00063666595
0.21026162
0.00071216715
0.20118308
0.00076028651
0.18422035
0.0007811541
0.17259936
0.00074709599
0.17695388
0.00081927686
0.18471347
0.00089851974
0.19015272
0.0010746553
0.065742018
0.0013007462
-0.10160323
0.0077103538
-0.14435553
0.012305839
-0.14067271
0.01331911
-0.12822376
0.014664674
-0.10570471
0.01595016
-0.051133575
0.017805864
-0.0016685714
0.02003841
0.053198675
0.021842564
0.12013557
0.024544246
0.16517209
0.025900254
0.19300347
0.028236383
0.1967253
0.032849712
0.051681033
0.039747547
-0.19085682
0.036291822
-0.16418712
0.032603865
-0.026898026
0.035372643
0.12782319
0.044608355
0.21819238
0.052207055
0.28001003
0.058470507
0.31134589
0.06438455
0.3097289
0.069890888
0.18746981
0.075047591
0.002789835
0.072160175
-0.064860661
0.072902693
-0.064903421
0.079096866
-0.06492521
0.085819657
-0.064948526
0.09311419
-0.064973788
0.1010294
-0.065001196
0.10961645
-0.065030979
0.11893414
-0.065063279
0.12904347
-0.065098292
0.14001153
-0.065136272
0.15191246
-0.065177492
0.16482542
-0.065222219
0.17883556
-0.065270752
0.19403594
0.21052888
0.01299977
9.8065581e-07
0.027738086
3.4756745e-06
0.040574629
6.323783e-06
0.052943486
9.6612522e-06
0.063850212
1.3564593e-05
0.074407527
1.7776952e-05
0.08941326
2.2551517e-05
0.10518233
2.9965824e-05
0.12586577
3.7621501e-05
0.1467528
4.9219109e-05
0.16912001
6.06434e-05
0.19050504
7.5828193e-05
0.20745467
8.9625814e-05
0.21600624
0.00010535241
0.2141981
0.00011430002
0.20891629
0.00012207147
0.20115694
0.00012633487
0.19975296
0.000134586
0.20455899
0.00014850287
0.21311525
0.00016638106
0.22224694
0.00018951983
0.22888767
0.00021110061
0.23050365
0.00023425353
0.22752518
0.00025275192
0.22293321
0.00027045239
0.2181637
0.00028660405
0.21446337
0.00030411729
0.21039327
0.00032517391
0.20691038
0.00034500834
0.20216107
0.00036772729
0.19458287
0.00038535476
0.18071002
0.00040148013
0.15931899
0.00038956544
0.15569751
0.00038569949
0.16753461
0.00043321578
0.18624139
0.00051559815
0.20010103
0.00063542587
0.20386462
0.00071147505
0.19492752
0.00075960218
0.17776369
0.00078113744
0.16609325
0.00074639989
0.17047676
0.00081354607
0.17880351
0.00091578982
0.18755821
0.0010704426
0.096630709
0.0011673886
-0.069835594
0.0057706075
-0.14464952
0.012296338
-0.14098738
0.01331534
-0.12847983
0.014659554
-0.10592925
0.015945458
-0.051396746
0.017798435
-0.0018612308
0.020029222
0.053159855
0.02183562
0.12003642
0.024538394
0.16523902
0.025900299
0.19320352
0.028239699
0.19696701
0.032835446
0.052796165
0.039708007
-0.19014065
0.036316723
-0.16469518
0.03260582
-0.027093981
0.035371424
0.12777808
0.044602127
0.21810922
0.052179919
0.28058396
0.058459074
0.31214927
0.06438448
0.31024695
0.06989499
0.18686307
0.075039872
0.0019721583
0.072106886
-0.064884473
0.072920748
-0.064924567
0.07911665
-0.064946367
0.085841115
-0.064969682
0.09313748
-0.064994934
0.10105466
-0.065022336
0.10964387
-0.065052127
0.11896389
-0.065084418
0.12907574
-0.065119412
0.14004654
-0.065157389
0.15195045
-0.065198612
0.16486665
-0.065243341
0.17888029
-0.065291859
0.19408446
-0.065344516
0.21058153
-0.065401643
0.22848142
-0.065463627
0.24790146
-0.065530879
0.26897351
-0.065603837
0.29183562
-0.065683006
0.31664172
0.34355592
0.01323883
1.0056004e-06
0.028396565
3.5293871e-06
0.041720425
6.3902214e-06
0.054843746
9.7130672e-06
0.066552164
1.3641211e-05
0.077798047
1.7957872e-05
0.093451054
2.2861556e-05
0.10980558
3.0536928e-05
0.13170803
3.8457302e-05
0.15392619
5.043526e-05
0.17746673
6.2167713e-05
0.19914536
7.7652615e-05
0.21575604
9.163207e-05
0.2239096
0.00010769031
0.22202078
0.00011685713
0.21658957
0.00012487874
0.20859278
0.00012936541
0.20704665
0.0001374042
0.21158424
0.00015135284
0.21959499
0.00016906871
0.22818049
0.0001919949
0.23428396
0.00021342457
0.23586561
0.00023671205
0.23305083
0.00025555482
0.22856555
0.00027376096
0.22360977
0.00029077522
0.21979046
0.00030872734
0.21555383
0.00032989779
0.2121302
0.00034952594
0.20736766
0.00037243211
0.19976099
0.00039060501
0.18588101
0.00040741335
0.16439498
0.00039669967
0.16098125
0.00039316911
0.17291074
0.00044050633
0.19162983
0.00052336624
0.20545311
0.00064371699
0.20909138
0.00072051169
0.2001632
0.00076944338
0.1832766
0.00079267596
0.17163328
0.00075995906
0.17588989
0.00082785785
0.18389333
0.00092943925
0.19244297
0.0010864781
0.13073036
0.0011839419
-0.0351997
0.0044119815
-0.14483742
0.012288221
-0.141264
0.013312635
-0.12880303
0.014655204
-0.1062839
0.015941115
-0.051752482
0.017791645
-0.0020950919
0.020022403
0.053081837
0.021830799
0.1199194
0.024535139
0.16529508
0.025901266
0.19338634
0.028241785
0.19719322
0.032820604
0.054115091
0.03966848
-0.18916969
0.036342243
-0.16518618
0.032611571
-0.027286055
0.035374038
0.12773555
0.044596319
0.21799869
0.052159039
0.28112315
0.058453808
0.31291258
0.064391931
0.31072432
0.069905006
0.1862487
0.075037549
0.001172081
0.072057531
-0.064905756
0.072938885
-0.064944158
0.079136425
-0.064965937
0.085862579
-0.064989242
0.09316076
-0.065014501
0.10107993
-0.065041893
0.10967128
-0.065071673
0.11899363
-0.065103967
0.12910801
-0.065138964
0.14008155
-0.065176936
0.15198843
-0.065218147
0.16490786
-0.065262866
0.17892501
-0.065311386
0.19413298
-0.065364037
0.21063418
-0.065421159
0.22853854
-0.065483134
0.24796344
-0.065550366
0.26904074
-0.065623327
0.29190858
-0.065702482
0.31672088
-0.065788367
0.3436418
-0.065881567
0.37285101
-0.065982688
0.40454303
-0.066092393
0.43892917
0.47623805
0.013005986
1.044765e-06
0.02783038
3.6424834e-06
0.040706939
6.6471922e-06
0.053293867
1.000511e-05
0.064707994
1.4121829e-05
0.075874122
1.8328493e-05
0.092001317
2.3608744e-05
0.10888641
3.1017851e-05
0.13120848
3.9597097e-05
0.15353078
5.1106665e-05
0.17699873
6.3303804e-05
0.19897396
7.6774606e-05
0.21646281
9.0029773e-05
0.22562196
0.00010343049
0.22383817
0.00011233227
0.21861332
0.0001199678
0.2105113
0.00012602689
0.20844479
0.00013529133
0.21284373
0.00014961585
0.22061779
0.00016765154
0.2290548
0.0001902626
0.23513421
0.00021150029
0.23673604
0.00023451831
0.23394305
0.00025325033
0.22954965
0.00027126535
0.22456021
0.00028813344
0.22068417
0.00030600308
0.21641264
0.00032683367
0.21299135
0.00034564998
0.20826682
0.00036763834
0.20065947
0.00038507789
0.1867639
0.00040094953
0.16521925
0.00038803703
0.161771
0.00038266771
0.17374821
0.0004298537
0.19254001
0.00051392557
0.20635461
0.00063586621
0.21003666
0.00071215915
0.20117894
0.00075978552
0.18440071
0.0007811169
0.17277892
0.00074648123
0.17699479
0.00081385294
0.18496887
0.00091532083
0.19349611
0.0010696538
0.14567535
0.0011672163
-0.019204041
0.0051017792
-0.14509677
0.012290033
-0.14156642
0.013310419
-0.12909504
0.014651378
-0.10656933
0.015937496
-0.052059219
0.01778526
-0.0023133451
0.020015477
0.053013169
0.021826353
0.11982289
0.024532681
0.16537448
0.025903464
0.19359499
0.028245379
0.19743771
0.032808552
0.055232629
0.039632265
-0.18842413
0.036373837
-0.1656709
0.032621189
-0.027460173
0.035382147
0.12770958
0.044594768
0.21793382
0.052139082
0.28168636
0.058450734
0.31368943
0.064400619
0.31121971
0.069917022
0.18567629
0.075036561
0.00040896599
0.072008588
-0.064924508
0.072957083
-0.064962133
0.0791562
-0.064983897
0.085884038
-0.065007195
0.09318404
-0.065032452
0.10110519
-0.065059843
0.10969869
-0.065089618
0.11902336
-0.065121911
0.12914028
-0.065156903
0.14011656
-0.065194865
0.15202641
-0.065236074
0.16494907
-0.065280786
0.17896972
-0.065329308
0.1941815
-0.065381946
0.21068681
-0.065439059
0.22859565
-0.065501023
0.2480254
-0.065568263
0.26910798
-0.065641205
0.29198153
-0.065720353
0.31680003
-0.065806231
0.34372768
-0.065899414
0.37294418
-0.066000523
0.40464412
-0.066110218
0.43903886
-0.066229232
0.47635707
-0.066358351
0.516847
-0.066498456
0.56077839
0.60844459
0.012850075
1.0060274e-06
0.028266625
3.5782104e-06
0.041738655
6.6130061e-06
0.055530669
1.0033942e-05
0.067358433
1.4370017e-05
0.079198427
1.8530765e-05
0.095030979
2.4018199e-05
0.1121073
3.093778e-05
0.13468723
3.9748563e-05
0.15628735
5.0674837e-05
0.17517081
6.3285575e-05
0.18899326
7.5592141e-05
0.19753961
8.8276924e-05
0.19925798
9.8166777e-05
0.19783463
0.00010618885
0.19537939
0.000113246
0.19548471
0.00012050881
0.19919679
0.00013209917
0.20594006
0.00014676363
0.21511698
0.0001653903
0.22372153
0.0001878949
0.22958584
0.00020902744
0.23105187
0.00023163213
0.22835415
0.00025005804
0.22390678
0.0002677785
0.21893341
0.00028430565
0.21501218
0.00030182166
0.21055209
0.00032229978
0.20682963
0.00034067012
0.20169845
0.00036211335
0.19371345
0.00037942182
0.17873734
0.000394676
0.15571543
0.00038026034
0.15195341
0.00037332421
0.16514928
0.0004203129
0.18548538
0.00050464468
0.20015311
0.00062689225
0.20388059
0.00070230292
0.19471591
0.00074893529
0.17724373
0.0007689542
0.16498601
0.00073256906
0.16937133
0.00079898044
0.17785891
0.00090041587
0.18675475
0.0010507669
0.10520087
0.0011481231
-0.060500902
0.0063474909
-0.14547944
0.012293205
-0.14186791
0.013308448
-0.12944348
0.014647418
-0.10692689
0.015934114
-0.052407838
0.0177801
-0.0025516777
0.020011552
0.052928231
0.021823261
0.11969616
0.024531554
0.16541373
0.025906698
0.19376349
0.028249474
0.19764831
0.032797102
0.056646611
0.039596902
-0.18733297
0.036400115
-0.16614424
0.032629608
-0.027640573
0.03538845
0.12765893
0.04459353
0.2178148
0.052120453
0.28221493
0.058447134
0.31442708
0.06440951
0.31165259
0.069926503
0.18502133
0.075032008
-0.00040884892
0.07195765
-0.0649407
0.072975327
-0.064978414
0.079175971
-0.065000169
0.085905493
-0.065023468
0.09320732
-0.065048719
0.10113045
-0.065076106
0.10972609
-0.065105886
0.1190531
-0.065138173
0.12917254
-0.065173156
0.14015156
-0.065211126
0.1520644
-0.065252324
0.16499028
-0.065297034
0.17901443
-0.065345538
0.19423001
-0.065398179
0.21073945
-0.065455289
0.22865276
-0.06551725
0.24808737
-0.065584475
0.26917521
-0.065657415
0.29205447
-0.065736556
0.31687917
-0.065822423
0.34381355
-0.065915597
0.37303735
-0.066016696
0.40474521
-0.066126385
0.43914855
-0.066245384
0.47647607
-0.066374492
0.51697611
-0.066514574
0.56091848
-0.066666569
0.60859659
-0.066831489
0.66032682
0.71645429
0.013760604
9.7631781e-07
0.030136331
3.5635463e-06
0.044462474
6.70765e-06
0.059072716
1.0281744e-05
0.071253909
1.4719856e-05
0.08314958
1.9022312e-05
0.098137774
2.4474093e-05
0.11407253
3.1330876e-05
0.13613144
3.9920148e-05
0.15831861
5.0965612e-05
0.17930763
6.3818301e-05
0.19571171
7.7075819e-05
0.20635269
9.0629881e-05
0.2090005
0.00010175002
0.20711107
0.00011003959
0.20275247
0.00011740424
0.19938685
0.00012293844
0.20223574
0.00013446829
0.20817701
0.00014877779
0.21741717
0.00016735972
0.22605864
0.00018998817
0.23204236
0.00021124724
0.23346157
0.00023392119
0.23063988
0.00025249153
0.2261643
0.00027041933
0.22127315
0.00028714594
0.21739385
0.00030464987
0.21299709
0.00032560882
0.20932108
0.00034469584
0.20437987
0.00036683364
0.19668288
0.00038436996
0.18218448
0.00040016585
0.15980224
0.00038713122
0.15597812
0.00038174295
0.16856546
0.00042926789
0.18819247
0.00051300356
0.20235374
0.00063406499
0.20610088
0.00071017332
0.19715153
0.00075826133
0.17993304
0.00077999539
0.16793503
0.00074572556
0.17217784
0.00081273306
0.1804251
0.00091416663
0.18907147
0.0010661737
0.10095837
0.0011634411
-0.066510169
0.0058170989
-0.14579036
0.012290571
-0.14219737
0.013307641
-0.12977767
0.014644524
-0.10720134
0.015932816
-0.052662212
0.017778112
-0.0027045573
0.020009717
0.052916898
0.021821618
0.11962973
0.024531006
0.16549515
0.025910017
0.19397306
0.028255573
0.19789719
0.032789613
0.057669053
0.039564928
-0.18668154
0.036435753
-0.16660874
0.032644409
-0.027798944
0.035402703
0.12762475
0.044603953
0.21775662
0.052110805
0.28278621
0.058453213
0.31519931
0.06442344
0.3121197
0.069939217
0.18439504
0.075029337
-0.0012169355
0.071907839
-0.064953256
0.072993562
-0.064991183
0.079195749
-0.065012933
0.085926945
-0.065036228
0.093230595
-0.065061475
0.1011557
-0.065088867
0.10975349
-0.065118635
0.11908283
-0.065150918
0.12920479
-0.065185908
0.14018656
-0.065223862
0.15210237
-0.065265066
0.16503148
-0.065309767
0.17905913
-0.065358279
0.19427852
-0.065410913
0.21079208
-0.065468017
0.22870986
-0.065529972
0.24814932
-0.065597189
0.26924243
-0.065670123
0.29212741
-0.065749254
0.31695831
-0.065835122
0.34389941
-0.065928283
0.37313051
-0.066029371
0.40484629
-0.066139053
0.43925822
-0.066258043
0.47659506
-0.066387142
0.51710522
-0.066527212
0.56105856
-0.0666792
0.60874858
-0.066844106
0.66049173
-0.067023027
0.71663321
-0.067217163
0.77754634
0.84363758
0.013817395
9.8763334e-07
0.030517461
3.5719213e-06
0.045130033
6.6058348e-06
0.060307341
1.0073579e-05
0.073254544
1.4291897e-05
0.085847887
1.8658849e-05
0.1014345
2.3878116e-05
0.11769164
3.1251284e-05
0.14019926
3.961926e-05
0.16322139
5.1365512e-05
0.18596593
6.3857638e-05
0.20441673
7.856416e-05
0.21632213
9.2640335e-05
0.21983238
0.00010717416
0.21775553
0.00011635955
0.21229501
0.00012437145
0.20670831
0.00012884178
0.20912046
0.00013776997
0.21432966
0.00015175407
0.22281816
0.00016968596
0.2310606
0.00019243794
0.23678719
0.00021380603
0.23822805
0.00023675284
0.23555449
0.00025565469
0.23126841
0.00027398496
0.22637367
0.00029132824
0.22244464
0.00030950606
0.21797103
0.00033063907
0.21434238
0.00034973133
0.2094253
0.00037221273
0.2017361
0.00039077369
0.18749794
0.00040790544
0.16542644
0.00039681863
0.16180896
0.00039309789
0.1741852
0.00044065716
0.19348457
0.00052370404
0.20750273
0.00064395367
0.21134055
0.00072126536
0.20251747
0.00077061164
0.18565376
0.00079472311
0.17386867
0.00076351716
0.1780283
0.00083157386
0.18600322
0.00093231543
0.19445709
0.0010879866
0.12722888
0.0011859577
-0.040722277
0.0042572624
-0.14595158
0.012284707
-0.14251218
0.013306927
-0.13015494
0.014640931
-0.10750936
0.015933288
-0.052955198
0.01777487
-0.0028927804
0.020007244
0.052868915
0.02182057
0.1194871
0.024531338
0.16551039
0.025915301
0.19412757
0.028263118
0.1981119
0.032781309
0.059135501
0.039532093
-0.18550791
0.036473477
-0.16704845
0.032661163
-0.027974219
0.035422199
0.12753848
0.044617685
0.21759095
0.052105694
0.28328465
0.058468415
0.31591207
0.064451326
0.31252404
0.069961017
0.18373298
0.075033508
-0.0020132127
0.071861079
-0.064947046
0.073011798
-0.064985112
0.079215521
-0.065006844
0.0859484
-0.065030149
0.093253877
-0.065055398
0.10118095
-0.065082785
0.1097809
-0.065112556
0.11911256
-0.065144848
0.12923706
-0.065179829
0.14022156
-0.065217792
0.15214035
-0.065258994
0.16507269
-0.065303706
0.17910384
-0.065352209
0.19432702
-0.065404842
0.21084471
-0.065461952
0.22876697
-0.06552391
0.24821128
-0.065591132
0.26930965
-0.065664067
0.29220035
-0.0657432
0.31703744
-0.065829076
0.34398529
-0.065922242
0.37322367
-0.066023335
0.40494737
-0.066133011
0.43936789
-0.066252007
0.47671406
-0.066381109
0.51723433
-0.066521192
0.56119865
-0.066673183
0.60890058
-0.066838092
0.66065663
-0.067017029
0.71681215
-0.067211164
0.77774048
-0.067421803
0.84384822
-0.067650351
0.91557439
0.99339808
0.013367024
9.9443363e-07
0.028609222
3.5233317e-06
0.041773436
6.3831393e-06
0.054817579
9.7143914e-06
0.066590909
1.3659123e-05
0.07807151
1.8047645e-05
0.094636957
2.3015536e-05
0.11224971
3.097602e-05
0.13556549
3.9184328e-05
0.15890766
5.1670637e-05
0.1830447
6.3759508e-05
0.20559316
7.9717217e-05
0.22340019
9.3964641e-05
0.23228368
0.00011056526
0.23016122
0.00011995125
0.22423271
0.00012801205
0.21494732
0.00013233976
0.21197561
0.00013949475
0.21644762
0.00015352609
0.22424711
0.00017129045
0.23275932
0.00019450066
0.23870183
0.00021625687
0.24016915
0.00023943169
0.23740129
0.00025850157
0.23304544
0.00027700509
0.22824263
0.00029427595
0.22438839
0.00031254865
0.22001097
0.00033412708
0.21643687
0.00035393338
0.21166942
0.00037701671
0.20422621
0.00039567086
0.19038126
0.00041319857
0.16880913
0.00040294747
0.16513448
0.00040026595
0.1770724
0.00044836357
0.19584652
0.00053173983
0.2095274
0.00065172981
0.2134646
0.00072985083
0.20484465
0.00078023513
0.18825656
0.00080592043
0.17672873
0.00077648521
0.18081357
0.00084536692
0.18864401
0.00094591917
0.19698109
0.0011025409
0.15879689
0.0012026487
-0.0064595328
0.0028008635
-0.14608469
0.012163892
-0.14280881
0.013305854
-0.13045815
0.01463755
-0.10771799
0.015933101
-0.053192779
0.017770731
-0.0030556108
0.020000486
0.052830198
0.021818271
0.11934517
0.024530268
0.16552153
0.025919988
0.19427673
0.028271376
0.19830783
0.032773576
0.060389259
0.039499611
-0.18454457
0.036515377
-0.1674733
0.032678714
-0.028133168
0.035444178
0.12745078
0.044632685
0.21744715
0.052100474
0.28378252
0.05848466
0.31661139
0.064479327
0.31291525
0.069985442
0.18308025
0.075040122
-0.0027896195
0.071814347
-0.064935997
0.073030042
-0.064974299
0.079235304
-0.064996001
0.085969855
-0.065019314
0.093277156
-0.065044563
0.10120621
-0.065071948
0.1098083
-0.065101728
0.1191423
-0.065134017
0.12926932
-0.065169008
0.14025657
-0.065206964
0.15217832
-0.06524817
0.1651139
-0.065292878
0.17914855
-0.06534139
0.19437554
-0.065394032
0.21089735
-0.065451137
0.22882407
-0.065513096
0.24827324
-0.06558033
0.26937689
-0.065653268
0.29227329
-0.065732414
0.31711659
-0.065818281
0.34407115
-0.065911463
0.37331685
-0.066012559
0.40504846
-0.066122251
0.43947757
-0.066241251
0.47683306
-0.066370367
0.51736346
-0.066510452
0.56133874
-0.066662453
0.60905258
-0.06682738
0.66082156
-0.067006319
0.71699109
-0.067200473
0.77793463
-0.067411129
0.84405888
-0.067639694
0.91580296
-0.067887681
0.99364607
1.0781054
0.013167446
9.9495261e-07
0.028360846
3.4947751e-06
0.041512209
6.2956687e-06
0.054714306
9.5751534e-06
0.066788003
1.3450552e-05
0.07860961
1.7820483e-05
0.095524694
2.2781417e-05
0.11349197
3.0911147e-05
0.13731769
3.9127227e-05
0.16130602
5.1776991e-05
0.18593401
6.3712838e-05
0.20863006
7.9697463e-05
0.22638559
9.3728505e-05
0.23521889
0.00011070918
0.23303651
0.00012016541
0.22695192
0.00012824497
0.21733003
0.00013255735
0.21399646
0.00013910566
0.21847129
0.00015306802
0.22637744
0.00017073586
0.23495003
0.00019406611
0.24080667
0.00021596416
0.24233907
0.00023925681
0.23965064
0.00025832123
0.2352319
0.00027664641
0.23037239
0.00029366587
0.22652574
0.00031199307
0.22210666
0.00033360699
0.21851816
0.00035350667
0.21363204
0.00037677365
0.20602953
0.00039535501
0.19212295
0.00041266338
0.17052514
0.00040244168
0.16692828
0.00039962824
0.17895385
0.00044763162
0.19782182
0.00053062015
0.21154154
0.00064984704
0.21556242
0.00072813747
0.20699103
0.00077862101
0.1904856
0.00080443846
0.17895361
0.00077526272
0.18300339
0.00084400824
0.19075961
0.00094473523
0.19906056
0.0010991477
0.18115848
0.0012006594
0.01725332
0.0026259144
-0.14292639
0.012170172
-0.14306766
0.01330423
-0.13078937
0.01463341
-0.10802627
0.01593006
-0.05349008
0.01776564
-0.0032366276
0.019995444
0.05277156
0.021814495
0.1191704
0.024528422
0.16549705
0.02592352
0.19439018
0.0282775
0.19847533
0.032762722
0.06196628
0.039463974
-0.18319514
0.036550211
-0.16787859
0.032691065
-0.028296626
0.03545978
0.12733124
0.044637811
0.21722902
0.052086662
0.28422765
0.058491341
0.31725109
0.064500714
0.31321777
0.070004648
0.18231638
0.075041502
-0.0036250545
0.07176409
-0.064924642
0.073048292
-0.064963217
0.079255077
-0.064984907
0.085991313
-0.065008215
0.093300438
-0.065033462
0.10123147
-0.065060862
0.10983571
-0.065090635
0.11917203
-0.06512293
0.12930159
-0.065157915
0.14029157
-0.065195889
0.15221632
-0.065237092
0.1651551
-0.065281806
0.17919327
-0.06533032
0.19442405
-0.065382962
0.21094998
-0.065440077
0.22888119
-0.065502042
0.24833521
-0.065569272
0.26944412
-0.065642222
0.29234624
-0.065721368
0.31719574
-0.065807248
0.34415703
-0.065900425
0.37341002
-0.066001537
0.40514956
-0.066111233
0.43958726
-0.066230244
0.47695208
-0.066359366
0.51749259
-0.066499465
0.56147884
-0.066651472
0.60920459
-0.066816413
0.6609865
-0.066995366
0.71717004
-0.067189536
0.77812881
-0.067400206
0.84426955
-0.067628781
0.91603153
-0.067876783
0.99389407
-0.068145868
1.0783745
-0.068437829
1.1700352
1.2694874
0.012637994
9.6389354e-07
0.027167042
3.4296229e-06
0.039628124
6.198429e-06
0.051976107
9.447704e-06
0.063444926
1.3290582e-05
0.074935051
1.764691e-05
0.092337426
2.2588314e-05
0.11087068
3.0762291e-05
0.13472718
3.8934997e-05
0.15830994
5.1639822e-05
0.18185371
6.3528564e-05
0.20410152
7.9580134e-05
0.22240315
9.3585745e-05
0.232357
0.00011066217
0.23028905
0.00012012641
0.22440559
0.00012818156
0.21457731
0.00013246588
0.21050301
0.00013901545
0.21494434
0.00015303422
0.22295028
0.00017081017
0.23198762
0.00019420233
0.23826121
0.00021608304
0.23980817
0.00023926653
0.23691023
0.00025830567
0.23225997
0.00027672212
0.22730911
0.0002938283
0.22354452
0.00031198497
0.21936004
0.00033368116
0.21590132
0.00035365598
0.21117781
0.00037691132
0.20361677
0.00039530117
0.18969829
0.000412462
0.16811395
0.00040189168
0.16425301
0.00039871619
0.17613116
0.00044681356
0.19493027
0.00053020496
0.20862428
0.00064981865
0.21275397
0.00072842531
0.20427075
0.00077898083
0.18769544
0.00080492697
0.17614442
0.00077542507
0.18020016
0.00084392669
0.18809202
0.0009447008
0.19645865
0.0010991978
0.16512123
0.0012005363
0.0013060249
0.0027712752
-0.14636173
0.01223438
-0.14333018
0.013302076
-0.13107207
0.014628822
-0.10825716
0.015926721
-0.053724433
0.017759969
-0.0033864607
0.019988959
0.05273195
0.021809591
0.11902448
0.024524888
0.16549942
0.02592515
0.19452832
0.028282361
0.19865649
0.032751845
0.063240683
0.03942854
-0.1821801
0.036584953
-0.16828269
0.032701623
-0.028442986
0.035470386
0.12723073
0.044643152
0.21706801
0.052072357
0.28470972
0.05849464
0.31790767
0.064514797
0.3135211
0.070018629
0.1815329
0.075038012
-0.0044768231
0.071711233
-0.064913118
0.073066539
-0.064951875
0.07927485
-0.064973543
0.086012769
-0.064996856
0.093323726
-0.065022109
0.10125673
-0.065049501
0.10986312
-0.065079279
0.11920177
-0.065111575
0.12933385
-0.065146575
0.14032658
-0.065184536
0.15225429
-0.065225749
0.16519632
-0.065270469
0.17923799
-0.065318984
0.19447257
-0.065371626
0.21100262
-0.065428751
0.22893831
-0.065490721
0.24839718
-0.065557958
0.26951136
-0.065630907
0.2924192
-0.065710061
0.3172749
-0.065795948
0.34424291
-0.065889135
0.3735032
-0.065990242
0.40525066
-0.066099953
0.43969697
-0.066218972
0.4770711
-0.0663481
0.51762172
-0.066488211
0.56161896
-0.066640234
0.60935661
-0.066805176
0.66115144
-0.066984151
0.71734901
-0.067178327
0.77832298
-0.067389011
0.84448023
-0.067617613
0.91626013
-0.067865631
0.99414209
-0.068134735
1.0786436
-0.068426714
1.1703272
-0.068743508
1.2698042
1.377737
0.012958603
9.7975891e-07
0.027870593
3.448497e-06