/*--------------------------------*- C++ -*----------------------------------*\
| =========                 |                                                 |
| \\      /  F ield         | OpenFOAM: The Open Source CFD Toolbox           |
|  \\    /   O peration     | Version:  2506                                  |
|   \\  /    A nd           | Website:  www.openfoam.com                      |
|    \\/     M anipulation  |                                                 |
\*---------------------------------------------------------------------------*/
FoamFile
{
    version     2.0;
    format      ascii;
    arch        "LSB;label=32;scalar=64";
    class       volScalarField;
    location    "2.4";
    object      omega;
}
// * * * * * * * * * * * * * * * * * * * * * * * * * * * * * * * * * * * * * //

dimensions      [0 0 -1 0 0 0 0];

internalField   nonuniform List<scalar> 
1375
(
75.302447
67.06636
57.937487
50.085399
44.081075
39.645309
77.073553
72.725777
64.735031
55.965489
48.476292
42.770887
38.562856
35.4321
33.054725
31.220391
29.797815
28.701884
27.871313
27.254929
26.808406
26.493362
26.276909
26.132606
26.040507
74.455063
70.19914
62.449799
54.043285
46.91504
41.501421
37.513459
34.550243
32.305348
30.579675
29.248108
28.228591
27.461161
26.895647
26.488967
26.20422
26.010264
25.882473
25.802694
25.758546
25.74069
25.737619
25.743997
25.761766
25.787568
25.819692
25.857292
71.915884
67.690619
60.156649
52.114936
45.355015
40.238369
36.473662
33.680387
31.570182
29.955004
28.715548
27.772514
27.067178
26.550733
26.181808
25.925324
25.752096
25.639417
25.57097
25.535696
25.523977
25.523354
25.533767
25.554796
25.583234
25.617661
25.657328
25.70198
25.751703
25.806881
25.867984
25.935553
26.010375
26.093591
69.49521
65.237996
57.886965
50.200382
43.80695
38.987725
35.447502
32.825595
30.851362
29.347505
28.200244
27.332897
26.688076
26.218683
25.885416
25.655275
25.501198
25.402504
25.3447
25.317603
25.31041
25.31258
25.326946
25.350911
25.381785
25.418364
25.459981
25.506433
25.557881
25.61476
25.677555
25.746801
25.823263
25.908087
26.002761
26.108982
26.228712
26.364439
67.231009
62.90778
55.715449
48.362617
42.317782
37.783524
34.459711
32.003594
30.16097
28.764661
27.706112
26.911141
26.323755
25.898676
25.598732
25.393056
25.256753
25.171181
25.123457
25.103653
25.099785
25.105395
25.123376
25.149995
25.183108
25.221684
25.265123
25.313256
25.366297
25.424726
25.489056
25.559839
25.637841
25.724197
25.82042
25.928238
26.049589
26.186893
26.343257
26.522619
26.73001
65.138313
60.752228
53.709652
46.663691
40.937297
36.663893
33.538903
31.235301
29.513584
28.215863
27.238503
26.509724
25.974918
25.590475
25.321126
25.137971
25.018167
24.944976
24.906769
24.893433
24.892073
24.901708
24.922925
24.951955
24.987109
25.027499
25.072607
25.122296
25.17681
25.236659
25.302388
25.374597
25.454061
25.541899
25.639614
25.748938
25.871789
26.010542
26.168232
26.348805
26.557291
26.800308
27.086903
27.429967
63.206435
58.785779
51.895619
45.130964
39.689986
35.649206
32.701278
30.533068
28.918138
27.707107
26.801025
26.130486
25.642247
25.294096
25.052303
24.889647
24.785126
24.723682
24.694419
24.686154
24.687496
24.701349
24.725456
24.756682
24.793689
24.835723
24.882352
24.933479
24.989371
25.050543
25.117585
25.191117
25.271957
25.361225
25.460371
25.571101
25.695322
25.835369
25.994247
26.175919
26.385411
26.629234
26.916264
27.25916
27.675746
28.190026
61.412548
56.996386
50.26697
43.762251
38.576384
34.741169
31.948786
29.898749
28.376305
27.239849
26.394883
25.774365
25.326398
25.009943
24.792487
24.648219
24.557739
24.507289
24.485999
24.481451
24.486368
24.504124
24.530831
24.564065
24.602758
24.646283
24.694301
24.74677
24.803971
24.866408
24.93468
25.009465
25.091612
25.182232
25.282736
25.394769
25.52023
25.661443
25.821386
26.004034
26.214418
26.458932
26.746245
27.088799
27.504152
28.015652
28.66386
29.644109
59.732989
55.354524
48.792073
42.530222
37.575395
33.924012
31.269712
29.323799
27.882131
26.810241
26.017869
25.440299
25.027005
24.738016
24.541848
24.41392
24.336179
24.295718
24.281262
24.279472
24.288647
24.309866
24.338937
24.37402
24.414254
24.459143
24.50844
24.562166
24.620612
24.684267
24.753729
24.829715
24.913096
25.004982
25.106753
25.220001
25.3466
25.488863
25.649766
25.83326
26.044365
26.289396
26.576816
26.918868
27.332817
27.841375
28.484212
29.460472
33.021818
58.152748
53.835044
47.440877
41.406266
36.662522
33.177531
30.647658
28.795199
27.425662
26.411071
25.665104
25.125256
24.742357
24.477469
24.30007
24.186726
24.12053
24.08899
24.079818
24.080597
24.094233
24.118465
24.149684
24.18647
24.228131
24.274287
24.324786
24.379705
24.439344
24.504174
24.574787
24.651906
24.736439
24.829507
24.932452
25.046828
25.174478
25.317702
25.479451
25.663651
25.875282
26.120609
26.407947
26.74936
27.16178
27.667206
28.304466
29.276661
32.901566
56.662979
52.420029
46.191633
40.36948
35.819617
32.486468
30.069912
28.302498
26.998526
26.035912
25.331912
24.826038
24.470419
24.227114
24.066555
23.966406
23.910686
23.886812
23.881309
23.88536
23.903001
23.929849
23.963017
24.001374
24.044363
24.091707
24.143337
24.199385
24.260159
24.326114
24.397827
24.476029
24.561649
24.655812
24.759827
24.875231
25.003857
25.147958
25.310445
25.495195
25.707153
25.952551
26.239626
26.580294
26.991079
27.49316
28.124612
29.092673
32.783552
55.252658
51.088212
45.021442
39.400152
35.031077
31.838672
29.526958
27.838198
26.59483
25.680192
25.014826
24.540106
24.209399
23.985753
23.84056
23.752509
23.706229
23.688739
23.685911
23.693765
23.714821
23.743948
23.77888
23.818684
23.862913
23.911374
23.96407
24.021176
24.083015
24.15003
24.222791
24.302025
24.388662
24.483826
24.588825
24.705164
24.834658
24.979525
25.142648
25.327825
25.539939
25.785209
26.071873
26.411699
26.820741
27.319258
27.944683
28.908636
32.66824
53.905493
49.811016
43.901201
38.474321
34.278776
31.220767
29.008926
27.394997
26.209179
25.339939
24.710925
24.265314
23.957731
23.752259
23.62128
23.544391
23.506585
23.49448
23.493695
23.505643
23.529563
23.56068
23.597203
23.63834
23.683725
23.733235
23.786929
23.845021
23.907848
23.975848
24.049587
24.129788
24.217368
24.313444
24.41932
24.536484
24.666734
24.812266
24.97593
25.161432
25.373585
25.618593
25.90473
26.243607
26.650764
27.145505
27.764751
28.724819
32.556058
52.604287
48.55987
42.801871
37.567823
33.544057
30.618638
28.505192
26.964964
25.835752
25.010977
24.417279
23.999626
23.713989
23.52562
23.407976
23.341512
23.311362
23.303263
23.304879
23.320757
23.347086
23.37995
23.417908
23.460275
23.506739
23.557229
23.611849
23.670844
23.734575
23.80348
23.878116
23.959203
24.047647
24.144543
24.251178
24.369045
24.49994
24.646047
24.810169
24.995929
25.20805
25.452729
25.738242
26.076041
26.481125
26.971886
27.584879
28.541512
32.447306
51.340071
47.322969
41.710274
36.668322
32.816248
30.023365
28.008367
26.542077
25.469774
24.68966
24.131216
23.74115
23.476867
23.304939
23.200012
23.143341
23.119926
23.114773
23.119521
23.138863
23.16726
23.201679
23.240938
23.284437
23.331909
23.383314
23.438786
23.498599
23.563134
23.632845
23.708293
23.790183
23.879401
23.977017
24.0843
24.202756
24.33419
24.480788
24.6453
24.831261
25.043317
25.287634
25.572443
25.909016
26.311805
26.798388
27.405113
28.358909
32.342006
50.113693
46.104356
40.629563
35.77711
32.095216
29.433819
27.516763
26.124372
25.109266
24.374199
23.851248
23.488735
23.245525
23.089627
22.99694
22.949404
22.931815
22.929012
22.937465
22.959783
22.990001
23.025819
23.066256
23.110794
23.159198
23.211449
23.267702
23.328253
23.393499
23.463915
23.540071
23.62267
23.712571
23.810814
23.91865
24.037593
24.16947
24.316471
24.4813
24.667416
24.879386
25.123308
25.407333
25.742524
26.142793
26.625009
27.22547
28.177043
32.23992
48.935
44.922205
39.577976
34.908554
31.391192
28.856871
27.034754
25.714462
24.755625
24.065167
23.577443
23.242203
23.01972
22.879444
22.798481
22.759372
22.746904
22.746027
22.758512
22.783349
22.815198
22.852293
22.893807
22.939297
22.988561
23.041589
23.098557
23.159775
23.225652
23.29668
23.373448
23.456657
23.547147
23.64593
23.75424
23.873591
24.005821
24.153132
24.318196
24.504405
24.716249
24.959731
25.242881
25.576531
25.974087
26.451763
27.045944
27.995737
32.140496
47.819828
43.80653
38.58557
34.085652
30.720008
28.303228
26.569683
25.317439
24.412292
23.764723
23.311005
23.002123
22.799652
22.674393
22.604561
22.573178
22.564669
22.566108
22.582497
22.609474
22.642788
22.681051
22.723557
22.76991
22.819945
22.873683
22.931304
22.993125
23.059563
23.131126
23.208421
23.292152
23.383147
23.482395
23.59111
23.7108
23.843307
23.990834
24.156032
24.34225
24.553897
24.796866
25.079033
25.410991
25.805684
26.278667
26.86651
27.814649
32.043086
46.781168
42.784186
37.678969
33.328366
30.095239
27.782255
26.128379
24.938413
24.083004
23.475451
23.053576
22.769435
22.585788
22.474659
22.415182
22.390594
22.38502
22.38951
22.409278
22.438085
22.472715
22.512037
22.555433
22.602564
22.653302
22.707685
22.765904
22.828271
22.895213
22.967249
23.044997
23.129175
23.220607
23.320252
23.429313
23.549284
23.681994
23.829638
23.994858
24.180975
24.392322
24.634674
24.915738
25.245877
25.637594
26.105768
26.687154
27.633451
31.947294
45.820981
41.863398
36.865954
32.64258
29.52138
27.297728
25.714131
24.58024
23.770156
23.199232
22.806504
22.545
22.378602
22.280423
22.230278
22.211443
22.208149
22.216181
22.238736
22.269114
22.304915
22.345185
22.389379
22.437209
22.488576
22.543544
22.602309
22.665183
22.732585
22.805038
22.883178
22.967738
23.059537
23.159529
23.268892
23.389084
23.521924
23.669592
23.834718
24.020604
24.231523
24.473131
24.75297
25.081179
25.46983
25.933107
26.507888
27.452014
31.853188
44.929293
41.030661
36.132921
32.018694
28.993001
26.846948
25.325776
24.242573
23.473834
22.936344
22.570092
22.329049
22.178198
22.091622
22.04963
22.035614
22.034203
22.045936
22.070757
22.102489
22.139316
22.180417
22.225312
22.273755
22.325683
22.381177
22.440442
22.503783
22.57161
22.644446
22.72294
22.807826
22.899933
23.000221
23.109833
23.230201
23.363113
23.510719
23.675643
23.861168
24.071512
24.312235
24.590731
24.916912
25.302402
25.760681
26.32876
27.270472
31.761674
44.090304
40.263145
35.45817
31.4409
28.499926
26.423432
24.959
23.922398
23.191884
22.685261
22.343295
22.120871
21.984063
21.907847
21.872968
21.862859
21.863176
21.878566
21.905228
21.938125
21.975843
22.017663
22.063162
22.112136
22.164554
22.220518
22.280238
22.344009
22.412233
22.485426
22.564235
22.649405
22.741775
22.842296
22.952103
23.072603
23.205528
23.353001
23.51763
23.702675
23.912305
24.152001
24.429044
24.753101
25.135313
25.588479
26.149813
27.089135
31.673989
43.287343
39.537604
34.82159
30.895456
28.03376
26.022084
24.610417
23.617163
22.922212
22.444243
22.124705
21.919373
21.795369
21.728496
21.699813
21.692578
21.695214
21.713822
21.742021
21.775941
21.814434
21.85687
21.902882
21.95231
22.00515
22.061526
22.12165
22.185811
22.254401
22.327925
22.407021
22.492435
22.585013
22.685713
22.795663
22.916226
23.049103
23.196382
23.360639
23.545106
23.753902
23.992447
24.267928
24.589762
24.96856
25.416494
25.971075
26.908392
31.591024
42.504691
38.830845
34.203898
30.36956
27.587
25.63862
24.277416
23.324993
22.663224
22.21185
21.913066
21.72352
21.611306
21.552921
21.529589
21.524554
21.530097
21.551456
21.581007
21.615858
21.655044
21.698014
21.744463
21.794271
21.847464
21.904182
21.964647
22.02915
22.098069
22.171896
22.251247
22.336865
22.429598
22.530412
22.640431
22.760997
22.893769
23.040795
23.204616
23.388425
23.596292
23.833579
24.107395
24.426901
24.802157
25.244726
25.792566
26.728479
31.513363
27.153595
25.269181
23.957489
23.044103
22.413505
21.986893
21.70736
21.532481
21.431221
21.380586
21.361899
21.358707
21.367576
21.391267
21.422051
21.457775
21.497605
21.541063
21.5879
21.638035
21.691519
21.748513
21.809249
21.874024
21.943213
22.017298
22.09687
22.182651
22.275485
22.376342
22.486351
22.606847
22.739451
22.886166
23.049495
23.232581
23.439442
23.675391
23.94745
24.264519
24.6361
25.07317
25.61427
26.549452
31.441534
21.768653
21.506988
21.345775
21.25471
21.211136
21.196563
21.195053
21.207464
21.233136
21.265062
21.301613
21.342055
21.385978
21.433178
21.483604
21.537334
21.594543
21.65548
21.720453
21.789842
21.864117
21.943853
22.029751
22.122633
22.223471
22.333392
22.453731
22.58609
22.732434
22.895215
23.077521
23.283317
23.517864
23.788087
24.10261
24.470381
24.901814
25.436161
26.371292
31.375994
21.033641
21.049663
21.07701
21.109993
21.14733
21.188361
21.232726
21.280268
21.330964
21.384903
21.442276
21.503352
21.568453
21.637965
21.712356
21.79219
21.878142
21.971013
22.071765
22.181528
22.301631
22.433663
22.579565
22.741738
22.923212
23.127894
23.360983
23.629289
23.941156
24.304978
24.730632
25.258238
26.193977
31.317115
20.9949
21.036478
21.081266
21.12913
21.180071
21.234199
21.291708
21.352872
21.418031
21.487588
21.562012
21.641868
21.727803
21.820605
21.921208
22.030737
22.150532
22.282169
22.427556
22.589053
22.769635
22.973153
23.204726
23.471037
23.780127
24.139854
24.559608
25.080554
26.017642
31.264968
21.030891
21.085168
21.14277
21.203988
21.269162
21.3387
21.413085
21.492876
21.57872
21.671385
21.771779
21.88102
22.000434
22.131597
22.276405
22.437165
22.616795
22.819088
23.049078
23.313308
23.619497
23.974981
24.388741
24.903186
25.842593
31.219457
21.121781
21.191252
21.265535
21.345198
21.430894
21.523362
21.623496
21.732392
21.851365
21.981986
22.126132
22.286083
22.464699
22.665708
22.894046
23.1561
23.459265
23.81037
24.21807
24.726243
25.669164
31.180384
21.19883
21.284311
21.376528
21.476362
21.584869
21.70335
21.833363
21.976773
22.135831
22.313358
22.513016
22.739636
22.999425
23.299454
23.646055
24.047659
24.549822
25.497442
31.147143
21.330386
21.438469
21.556411
21.68576
21.828361
21.986449
22.162805
22.361028
22.585858
22.843303
23.140099
23.482109
23.877594
24.37393
25.327128
31.119281
21.41057
21.539206
21.680933
21.83797
22.013068
22.209773
22.43273
22.687758
22.981248
23.318598
23.707935
24.198495
25.157704
31.096309
21.690416
21.864164
22.059267
22.280274
22.532806
22.822915
23.155542
23.538703
24.023423
24.988731
31.078718
21.909527
22.128499
22.378453
22.665095
22.992938
23.369883
23.848671
24.820143
31.06734
22.224671
22.50775
22.830725
23.201417
23.674293
24.652348
31.062601
22.350828
22.668821
23.033231
23.500391
24.485939
31.041045
22.865276
23.327007
24.321552
31.067727
23.154128
24.159335
31.106747
23.998784
31.104921
)
;

boundaryField
{
    Side
    {
        type            empty;
    }
    Inlet
    {
        type            fixedValue;
        value           uniform 60.24606;
    }
    Airfoil
    {
        type            omegaWallFunction;
        blending        binomial;
        n               2;
        value           nonuniform List<scalar> 0();
    }
    Outlet
    {
        type            inletOutlet;
        inletValue      nonuniform List<scalar> 0();
        value           nonuniform List<scalar> 0();
    }
    procBoundary4to3
    {
        type            processor;
        value           nonuniform List<scalar> 
57
(
78.025414
69.569709
60.076583
51.832892
45.49513
40.80272
36.34122
36.34122
33.828083
31.883401
30.3688
29.195367
28.300048
27.630707
27.142057
26.794477
26.553496
26.390965
26.285257
25.986696
25.986696
25.961593
25.955126
25.957837
25.971933
25.994851
26.024525
26.059956
25.900038
25.900038
25.947911
26.001233
26.060482
26.126239
26.199291
26.28076
26.186631
26.186631
26.291162
26.409167
26.543199
26.519315
26.519315
26.697326
26.903533
26.972139
26.972139
27.258186
27.601224
27.847587
27.847587
28.364502
28.843473
28.843473
29.827674
33.143946
33.143946
)
;
    }
    procBoundary4to5
    {
        type            processor;
        value           nonuniform List<scalar> 
64
(
38.127755
33.592443
29.854389
29.854389
26.732788
24.912784
23.649661
22.773625
22.172286
22.172286
21.556919
21.311828
21.163316
21.081683
21.044539
21.033611
21.033611
20.874942
20.894163
20.922917
20.956848
20.956848
20.844352
20.886417
20.931581
20.979734
20.979734
20.883355
20.937753
20.995421
21.056646
21.056646
20.975838
21.045197
21.119339
21.119339
21.053751
21.138981
21.230906
21.230906
21.185594
21.293199
21.293199
21.265827
21.393707
21.534516
21.534516
21.543774
21.71611
21.71611
21.760556
21.977396
21.977396
22.071441
22.071441
22.194308
22.507181
22.507181
22.697543
22.697543
22.981704
22.981704
23.83953
31.062847
)
;
    }
    procBoundary4to11
    {
        type            processor;
        value           nonuniform List<scalar> 
26
(
77.195435
74.49449
71.923185
69.532473
67.341544
65.332095
63.464383
61.698545
60.010028
58.390783
56.843475
55.373909
53.985041
52.674635
51.435153
50.260502
49.146497
48.087848
47.077961
46.110805
45.180606
44.281365
43.40909
42.563572
79.761725
79.761725
)
;
    }
    procBoundary4to12
    {
        type            processor;
        value           uniform 41.732143;
    }
}


// ************************************************************************* //
