/*--------------------------------*- C++ -*----------------------------------*\
| =========                 |                                                 |
| \\      /  F ield         | OpenFOAM: The Open Source CFD Toolbox           |
|  \\    /   O peration     | Version:  2506                                  |
|   \\  /    A nd           | Website:  www.openfoam.com                      |
|    \\/     M anipulation  |                                                 |
\*---------------------------------------------------------------------------*/
FoamFile
{
    version     2.0;
    format      ascii;
    arch        "LSB;label=32;scalar=64";
    class       volScalarField;
    location    "0.022";
    object      Co;
}
// * * * * * * * * * * * * * * * * * * * * * * * * * * * * * * * * * * * * * //

dimensions      [0 0 0 0 0 0 0];

internalField   nonuniform List<scalar> 
192657
(
0.0010695532
0.0011566364
0.0012458412
0.0013397616
0.0014445653
0.0015511123
0.0016721771
0.0018000058
0.0019457115
0.0021022939
0.0022632128
0.0024071371
0.0025372171
0.0026863027
0.0029058289
0.0031371217
0.0033250851
0.0035355522
0.0037963074
0.0040324482
0.0042808259
0.004565316
0.0048362256
0.0051323009
0.005437119
0.0057465749
0.0060771161
0.0064232606
0.0067795381
0.0071331913
0.0074839542
0.0078448657
0.0082305952
0.0086176394
0.0090370018
0.009438066
0.0098407832
0.010264799
0.010662846
0.011079028
0.011516272
0.011954427
0.012393245
0.012851104
0.013297314
0.013753524
0.014214786
0.014676597
0.015133459
0.015597026
0.016051972
0.016515302
0.016976269
0.017425381
0.01788511
0.018324026
0.018768969
0.019200036
0.019618346
0.020032489
0.020428435
0.020812292
0.021184266
0.021535797
0.021871285
0.022193675
0.022491432
0.022774035
0.023041196
0.023288351
0.023516333
0.023730934
0.023930417
0.024109629
0.024271549
0.024419856
0.024553378
0.024672559
0.024780201
0.024906711
0.025055186
0.025197543
0.02533569
0.025471271
0.025604299
0.025736055
0.025867838
0.026000275
0.026133765
0.02626852
0.026404874
0.026544321
0.026688981
0.026839821
0.026996299
0.027158568
0.0273282
0.027506986
0.027696031
0.027892135
0.028085086
0.028241183
0.028348392
0.028295784
0.027677427
0.026682929
0.025837539
0.025093846
0.024429869
0.023832471
0.023287594
0.022785367
0.022319335
0.021884963
0.021478172
0.021096255
0.020735584
0.020393274
0.020067108
0.019753891
0.019451298
0.019156853
0.018868025
0.018582413
0.01829807
0.018011538
0.017721519
0.017424131
0.017116763
0.016797346
0.016460732
0.016104184
0.015725652
0.015319304
0.014879443
0.014400656
0.01387712
0.013302143
0.01266846
0.011963537
0.011170561
0.010268899
0.0092273833
0.0080082693
0.006595709
0.0050488404
0.0034923676
0.0020172696
0.00065789565
0.0010338267
0.001118309
0.0012048685
0.0012960911
0.0013979195
0.0015015205
0.0016192543
0.0017436428
0.0018855118
0.002038148
0.0021952936
0.0023362539
0.0024636929
0.0026094848
0.0028238593
0.0030509442
0.0032357939
0.0034424156
0.0036987782
0.0039318021
0.0041765563
0.0044574481
0.0047255129
0.0050185689
0.0053209486
0.0056280594
0.0059562807
0.006300604
0.0066561303
0.0070099759
0.0073611583
0.0077219647
0.0081073904
0.0084951214
0.0089158659
0.0093194615
0.009724841
0.010151881
0.010553484
0.010973218
0.011415048
0.011858054
0.012301883
0.012764684
0.013216633
0.013678597
0.014146085
0.014613829
0.015077128
0.015547661
0.016009453
0.016479908
0.01694822
0.017404955
0.017872401
0.018319326
0.018772351
0.019211806
0.019638936
0.020061903
0.020466328
0.020859181
0.0212403
0.021601148
0.02194596
0.02227767
0.022584996
0.022876984
0.023153781
0.023410473
0.023647899
0.02387204
0.024080992
0.024269712
0.024441334
0.024599356
0.024742741
0.02487201
0.024987231
0.025089794
0.025179859
0.025257299
0.025354921
0.02547999
0.025601976
0.025721089
0.025838291
0.02595452
0.026070179
0.026185772
0.026301674
0.026418435
0.026535664
0.026652881
0.026771047
0.0268911
0.02701385
0.027139052
0.027265966
0.027398331
0.027541798
0.027686776
0.027855556
0.027922134
0.02735218
0.026297677
0.025441654
0.024724231
0.024110155
0.023575667
0.023103851
0.022682501
0.022301536
0.021953023
0.021630396
0.021328768
0.021043147
0.020770068
0.02050743
0.020252469
0.020003457
0.019758396
0.019515258
0.019272231
0.01902809
0.018779786
0.018527009
0.018266217
0.017995545
0.017713756
0.017415377
0.017098001
0.016760112
0.016394738
0.015994814
0.015552952
0.015059772
0.01450292
0.013868295
0.013134211
0.012273356
0.011257287
0.01004803
0.0086107384
0.0069542134
0.0051835606
0.0034703917
0.0019316129
0.00060748186
0.00099932141
0.0010812632
0.0011652577
0.0012538388
0.001352756
0.0014534707
0.0015679449
0.0016889543
0.001827051
0.0019757978
0.0021292098
0.0022672193
0.002392005
0.0025345091
0.0027437581
0.0029666185
0.0031483158
0.0033510426
0.0036029519
0.0038327673
0.004073798
0.0043509699
0.0046160375
0.0049059043
0.0052056547
0.0055102292
0.0058359258
0.0061781925
0.006532668
0.0068864111
0.0072378819
0.0075983995
0.0079832542
0.0083712696
0.0087930861
0.0091989957
0.0096068073
0.010036643
0.010441614
0.010865081
0.011311219
0.011758267
0.012206939
0.012674502
0.013132048
0.013599672
0.014073317
0.0145469
0.015016549
0.015493969
0.015962524
0.016440089
0.016915734
0.017380064
0.017855247
0.018310124
0.018771361
0.01921913
0.019654962
0.020086745
0.020499689
0.020901695
0.021292002
0.021662146
0.02201634
0.022357383
0.022674229
0.02297561
0.023262123
0.023528498
0.023775406
0.024009212
0.024227776
0.024426003
0.024607285
0.024775169
0.024928507
0.025067919
0.025193288
0.025306316
0.025407311
0.025495986
0.02557428
0.02564206
0.025699809
0.025748686
0.025820607
0.025921874
0.026021292
0.026117614
0.026210926
0.026302592
0.026393946
0.026484921
0.026574059
0.026660895
0.026746
0.026829923
0.026913198
0.026993147
0.027064658
0.027123117
0.027174077
0.027096676
0.026410702
0.025291301
0.024358764
0.023545315
0.022817858
0.022156442
0.021549652
0.020988702
0.020466815
0.019979419
0.019522685
0.019093356
0.018688103
0.01830422
0.01793957
0.017591398
0.017257132
0.016934291
0.016620562
0.01631382
0.016012258
0.015713433
0.015415963
0.015117294
0.014815431
0.014508591
0.014193431
0.013867536
0.01352867
0.013172635
0.012794931
0.012390566
0.011953403
0.011475645
0.010947715
0.010355776
0.0096807277
0.008897943
0.007974516
0.0068772667
0.0056059383
0.0042409941
0.0029058753
0.0016688862
0.00053976635
0.00096599647
0.0010454596
0.0011269703
0.0012129621
0.001309033
0.0014069185
0.0015182071
0.001635901
0.0017702914
0.0019152081
0.0020649285
0.002200004
0.002322131
0.0024613564
0.0026655184
0.0028841421
0.0030626563
0.0032614516
0.0035088516
0.003735378
0.0039725973
0.0042459315
0.0045078663
0.0047943977
0.0050913584
0.0053932288
0.0057161757
0.0060560968
0.0064092607
0.0067626517
0.0071141535
0.0074742746
0.0078582876
0.0082463645
0.0086689402
0.009076836
0.0094868564
0.009919277
0.010327443
0.010754316
0.011204424
0.011655296
0.01210862
0.012580749
0.01304376
0.013516908
0.013996539
0.014475861
0.014951804
0.015436059
0.015911359
0.016395969
0.016878883
0.017350781
0.017833639
0.01829649
0.018765761
0.019221919
0.019666269
0.020107061
0.020528532
0.020939526
0.021338893
0.021718295
0.022081794
0.022432104
0.022758439
0.023069099
0.023365183
0.023640924
0.023897116
0.024140232
0.024367978
0.024575383
0.024765974
0.02494304
0.025105611
0.025254375
0.025389429
0.025512016
0.025622759
0.025721513
0.025810029
0.025888767
0.025957884
0.02601855
0.026072123
0.026118819
0.026158806
0.026192311
0.026219766
0.026247204
0.026295522
0.026361293
0.02642333
0.026482018
0.02653847
0.026592664
0.026642708
0.026690247
0.026739792
0.026788126
0.026817968
0.02674141
0.02609353
0.024986734
0.024069551
0.023276545
0.022564743
0.021917936
0.021325484
0.020779907
0.020276357
0.019810079
0.0193762
0.018970185
0.01858786
0.018225676
0.017880655
0.017549456
0.017229653
0.016919273
0.016616231
0.01631859
0.016024751
0.015732465
0.01544056
0.015146594
0.014848722
0.014545315
0.014233063
0.013909689
0.013573153
0.013219262
0.012843484
0.012440782
0.012004881
0.011527711
0.010999359
0.010405268
0.0097254564
0.0089350769
0.0080015818
0.0068919545
0.0056074024
0.0042300276
0.0028851073
0.0016458615
0.00052846507
0.00093381115
0.001010861
0.0010899597
0.0011734176
0.0012667115
0.001361823
0.0014699981
0.001584441
0.0017151921
0.0018563408
0.002002418
0.0021345856
0.0022540538
0.0023900083
0.0025891208
0.002803506
0.0029788189
0.0031736482
0.0034164946
0.0036396641
0.0038729894
0.0041423819
0.0044010555
0.0046841002
0.0049780975
0.0052770925
0.005597103
0.0059344655
0.0062860106
0.0066387692
0.0069901639
0.0073495909
0.0077326294
0.0081203807
0.0085433823
0.008953044
0.009365025
0.0097997846
0.010211139
0.010641085
0.011094599
0.011549062
0.012006855
0.012483348
0.01295167
0.013430215
0.013915726
0.014400685
0.014882829
0.015373825
0.015855769
0.016347388
0.016837553
0.017316976
0.017807503
0.018278261
0.018755696
0.019220118
0.019673038
0.020122854
0.020553112
0.020972881
0.021381396
0.021770027
0.022142868
0.022502505
0.022838305
0.023158302
0.023464024
0.023749303
0.024014813
0.024267317
0.024504405
0.024721041
0.024920928
0.025107413
0.025279403
0.025437667
0.025582036
0.025714157
0.025834579
0.025943434
0.026042216
0.026131286
0.026211056
0.026282892
0.026347915
0.026406871
0.026459917
0.026507041
0.02654858
0.026585464
0.026618273
0.026647063
0.026671943
0.026694111
0.026714741
0.026733865
0.026750943
0.026767031
0.026786835
0.026809091
0.026808624
0.026682521
0.02593539
0.02461987
0.023592338
0.022759144
0.02201543
0.021341695
0.020724925
0.020155943
0.019627557
0.019134171
0.018671487
0.018236408
0.017826348
0.017438841
0.017071652
0.016722352
0.016388529
0.016067499
0.015756574
0.015453594
0.015156751
0.014863981
0.014573804
0.014283972
0.01399252
0.013697687
0.013396766
0.013087502
0.012767706
0.012433834
0.012081857
0.011707081
0.01130364
0.010863959
0.010378434
0.009833391
0.0092096471
0.008481673
0.0076152823
0.0065753759
0.0053613648
0.004053626
0.0027731993
0.001588254
0.00051146451
0.00090272782
0.00097743319
0.0010541771
0.0011351649
0.0012257521
0.0013181463
0.0014232789
0.0015345372
0.0016617181
0.0017991624
0.0019416446
0.002070929
0.0021877424
0.0023204091
0.0025145597
0.0027247055
0.0028968021
0.003087646
0.0033258998
0.0035456503
0.0037750144
0.004040368
0.0042956661
0.004575097
0.0048659882
0.0051619632
0.0054788326
0.0058133676
0.0061630247
0.0065149093
0.006865943
0.0072245435
0.0076063886
0.0079935985
0.008416721
0.0088278
0.0092415057
0.0096783795
0.01009286
0.010525606
0.010982001
0.011439831
0.01190188
0.01238252
0.012855994
0.013339784
0.013830987
0.014321472
0.01480974
0.015307412
0.015795974
0.016294532
0.016791873
0.017278781
0.017776921
0.018255608
0.018741032
0.019213818
0.0196752
0.02013381
0.020573183
0.021001607
0.021419155
0.021816989
0.022199137
0.02256804
0.02291327
0.023242491
0.023557725
0.023852245
0.024126942
0.024388588
0.024634615
0.024860196
0.025069085
0.025264339
0.025445055
0.025612048
0.025765298
0.025906166
0.026035396
0.026153078
0.026260678
0.026358899
0.026447994
0.026529234
0.026603736
0.026672218
0.026734881
0.026791915
0.02684392
0.026892263
0.026937481
0.026979908
0.027019331
0.027055523
0.027089763
0.02712254
0.027154049
0.02718378
0.027204811
0.027223308
0.027232563
0.027125167
0.026430161
0.025065444
0.023874051
0.022855998
0.021963527
0.021222462
0.020597095
0.020022927
0.019492365
0.018999194
0.018538382
0.018106019
0.017698575
0.01731316
0.016947381
0.016598801
0.016265003
0.015943649
0.015632782
0.015330568
0.015035192
0.014744422
0.014456432
0.01416887
0.013879888
0.013587833
0.01329016
0.012984687
0.012669187
0.012340062
0.011993119
0.011623455
0.011224935
0.010789697
0.010307826
0.0097653873
0.0091431561
0.0084156863
0.0075495079
0.0065110772
0.005301436
0.0040020465
0.0027334455
0.0015627461
0.00050218526
0.00087270815
0.00094513915
0.0010195808
0.0010981641
0.0011861119
0.0012758494
0.0013780085
0.0014861482
0.0016098279
0.0017436334
0.0018825751
0.0020090098
0.0021231788
0.0022525751
0.0024418088
0.0026477245
0.0028166043
0.0030034441
0.0032370769
0.0034533589
0.0036786987
0.0039399285
0.004191746
0.0044674303
0.004755062
0.0050478696
0.0053614257
0.005692943
0.0060404207
0.0063911297
0.006741674
0.0070992449
0.0074796831
0.007866011
0.0082889031
0.0087011724
0.0091163412
0.0095550669
0.009972363
0.010407568
0.01086658
0.011327533
0.011793636
0.0122782
0.012756655
0.013245529
0.013742294
0.014238198
0.014732482
0.015236724
0.015731795
0.016237231
0.016741726
0.017236064
0.017741796
0.018228342
0.018721896
0.019202904
0.019672812
0.020140203
0.020588751
0.021025871
0.021452538
0.021859541
0.022251018
0.022629266
0.022983941
0.023322489
0.023647273
0.023951213
0.024235119
0.024505931
0.024761097
0.024995726
0.025213621
0.025417936
0.025607633
0.0257836
0.025945554
0.026095201
0.026233094
0.026359739
0.026476493
0.026583704
0.026681942
0.026772579
0.02685687
0.026935479
0.027008776
0.027076784
0.027139802
0.027198702
0.027253956
0.027305767
0.027354346
0.02740111
0.027447196
0.027492637
0.02753756
0.027583276
0.027630923
0.027682365
0.027720338
0.027657952
0.027076767
0.025748118
0.024524654
0.023490105
0.022564114
0.021721379
0.020946811
0.020229957
0.019562793
0.01893911
0.018354106
0.017816786
0.017359688
0.016965587
0.016590334
0.016231425
0.015886721
0.015554422
0.015232981
0.014920695
0.014615928
0.014316922
0.014022185
0.01373014
0.013439243
0.01314779
0.012853428
0.012553705
0.012245977
0.011926805
0.011592206
0.011237448
0.010856665
0.01044229
0.0099845425
0.0094697635
0.0088786361
0.0081848103
0.0073539812
0.0063516533
0.0051778455
0.0039131939
0.0026765549
0.0015330162
0.00049317993
0.0008437158
0.00091394241
0.00098613781
0.0010623788
0.001147749
0.0012348917
0.001334149
0.0014392374
0.0015594871
0.0016897204
0.0018251748
0.0019487911
0.0020603288
0.0021865558
0.0023708584
0.0025725561
0.0027382174
0.002921049
0.0031500398
0.0033628067
0.003584074
0.0038411023
0.0040893459
0.004361175
0.0046454244
0.004934946
0.0052450055
0.0055732583
0.0059183049
0.0062675922
0.0066173895
0.0069738698
0.0073526313
0.0077378896
0.0081602586
0.0085733503
0.0089897356
0.0094300765
0.0098498381
0.0102872
0.010748601
0.011212453
0.011682374
0.012170622
0.012653872
0.013147663
0.013649785
0.014150977
0.014651184
0.015161915
0.015663455
0.016175685
0.016687246
0.017188959
0.017702233
0.018196663
0.018698161
0.019187507
0.019665844
0.020141926
0.020599681
0.021045759
0.021481209
0.021897357
0.022298154
0.022685698
0.023049775
0.023397532
0.023731767
0.02404485
0.024337893
0.024617727
0.024881652
0.025125068
0.025351742
0.025564527
0.025762598
0.025946837
0.026117092
0.026274866
0.026420934
0.02655558
0.026680099
0.026795212
0.026901308
0.026999553
0.027091325
0.027177238
0.027257472
0.027332399
0.027402851
0.027470118
0.027534846
0.027597371
0.027657321
0.027714583
0.027770697
0.027826303
0.027881267
0.027935045
0.027982877
0.02803009
0.028071532
0.028029581
0.027520879
0.026234571
0.024978362
0.023931136
0.02299512
0.022142267
0.021357251
0.020630186
0.019953611
0.01932139
0.01872821
0.018169559
0.017641535
0.017140885
0.016664963
0.016211537
0.015808222
0.015465402
0.015147318
0.014838613
0.014537501
0.014242306
0.013951613
0.013663878
0.013377272
0.013089875
0.012799318
0.0125031
0.01219865
0.011882698
0.011551317
0.011199728
0.0108219
0.010410072
0.0099542551
0.0094407182
0.0088502663
0.008156874
0.0073265972
0.0063252157
0.0051530725
0.0038913925
0.0026593663
0.0015218098
0.00048898859
0.00081571455
0.00088380358
0.00095381419
0.0010277746
0.0011106275
0.0011952392
0.0012916615
0.0013937651
0.0015106556
0.0016373848
0.00176941
0.001890247
0.0019991724
0.0021223311
0.0023016817
0.0024991802
0.0026616365
0.0028404574
0.003064794
0.0032740093
0.003491161
0.003743921
0.0039885079
0.0042563689
0.0045371022
0.0048232072
0.005129622
0.0054544443
0.005796803
0.0061443541
0.0064932685
0.0068484915
0.0072253599
0.007609252
0.008030727
0.0084444097
0.0088617355
0.0093034159
0.009725347
0.010164515
0.010628034
0.01109453
0.011568046
0.012059737
0.012547591
0.013046109
0.013553432
0.014059793
0.014565799
0.015082901
0.01559079
0.016109728
0.016628323
0.017137352
0.017658131
0.018160367
0.018669955
0.019167492
0.019654318
0.020139112
0.020605843
0.021061199
0.021505517
0.021930779
0.022340902
0.022737819
0.023111348
0.023468463
0.023812164
0.024134565
0.024436755
0.024725579
0.024998479
0.025250812
0.025486268
0.025707825
0.025914524
0.026107324
0.026285857
0.026451862
0.026605872
0.0267487
0.026881527
0.027004763
0.027119082
0.027225702
0.027326147
0.02742103
0.027510587
0.027594902
0.027674534
0.027750347
0.027822865
0.027892395
0.02795912
0.028024573
0.028089931
0.028155327
0.028221515
0.028290072
0.028362512
0.028438753
0.028505407
0.028499423
0.028089895
0.026872318
0.025575628
0.024507267
0.023555964
0.022690311
0.021894038
0.021156537
0.020469843
0.01982767
0.019224758
0.018656797
0.018119922
0.01761086
0.017126858
0.016665347
0.016224099
0.015801112
0.015394589
0.015002914
0.014624645
0.014258333
0.013902642
0.013556137
0.013217212
0.012895605
0.012595708
0.012300103
0.011997124
0.011683891
0.011356692
0.011010886
0.010640616
0.010238259
0.0097937971
0.009293628
0.008718613
0.0080423624
0.0072305227
0.0062481779
0.0050945174
0.0038499606
0.0026332162
0.0015084304
0.00048493081
0.0007886693
0.00085468314
0.00092257222
0.00099431462
0.0010747176
0.0011568663
0.0012505086
0.0013496949
0.0014632984
0.0015865925
0.001715246
0.0018333392
0.0019396737
0.0020597966
0.0022342652
0.0024275841
0.0025868478
0.0027616687
0.0029813448
0.0031869745
0.0033999822
0.0036484147
0.0038892724
0.0041530754
0.004430189
0.0047127761
0.0050153944
0.0053365618
0.005676
0.0060216093
0.0063693482
0.0067232348
0.0070980236
0.00748035
0.0079006521
0.0083145442
0.0087325549
0.0091753286
0.0095990773
0.010039746
0.010505149
0.010974059
0.011450913
0.011945788
0.012438032
0.012941094
0.013453398
0.013964773
0.014476465
0.014999841
0.015514018
0.016039571
0.016565094
0.017081372
0.017609602
0.018119665
0.018637142
0.019142995
0.019638207
0.020131644
0.02060739
0.021071978
0.021525102
0.021959469
0.02237892
0.022785172
0.023168112
0.023534452
0.023887541
0.024219015
0.024530326
0.024828085
0.02510962
0.025370632
0.025614705
0.025844523
0.026059375
0.026260141
0.026446557
0.026620254
0.026782063
0.026932408
0.027072358
0.027202703
0.027323981
0.027437194
0.027543867
0.027644838
0.027740123
0.027829989
0.027915546
0.027998075
0.028078347
0.028156849
0.028233158
0.02830739
0.028381186
0.028455077
0.028528837
0.028601902
0.028672218
0.028743706
0.028816142
0.028836988
0.028503231
0.027373392
0.026049108
0.024967884
0.024007758
0.023133683
0.022329333
0.021584241
0.020890455
0.020241553
0.019632034
0.01905736
0.01851344
0.017996911
0.01750502
0.017035186
0.016585228
0.016153179
0.015737237
0.015335736
0.014947163
0.014569888
0.014202509
0.013843393
0.013490923
0.013143458
0.012798992
0.012455343
0.012110117
0.011760345
0.011402292
0.011031261
0.010641264
0.010224459
0.0097704613
0.0092652362
0.008690773
0.0080194808
0.0072134624
0.0062365886
0.0050870675
0.0038450643
0.0026300986
0.0015077196
0.00048527906
0.00076254696
0.00082655084
0.00089237426
0.00096195957
0.0010399834
0.0011197366
0.0012106533
0.0013069883
0.0014173761
0.0015373047
0.001662648
0.0017780405
0.0018818112
0.0019988912
0.0021685768
0.0023577438
0.0025138422
0.0026846736
0.0028996889
0.0031017109
0.0033105509
0.003554606
0.0037916716
0.0040513239
0.0043247028
0.004603658
0.0049023585
0.0052197277
0.0055560143
0.0058994087
0.0062457977
0.006598167
0.0069707591
0.0073512083
0.007769959
0.0081838336
0.0086022391
0.0090458185
0.0094711002
0.0099129167
0.010379933
0.010850988
0.011330937
0.011828733
0.012325166
0.012832548
0.013349652
0.013865912
0.014383146
0.014912659
0.015432988
0.015965055
0.016497459
0.017020923
0.017556548
0.018074342
0.018599853
0.019113866
0.019617522
0.020119628
0.020604324
0.021078222
0.021540461
0.021983786
0.022412549
0.02282819
0.02322061
0.023596375
0.023958852
0.024299565
0.024619994
0.024926614
0.025217
0.025486834
0.02573951
0.025977855
0.026201049
0.026410061
0.026604447
0.026785994
0.026955271
0.027113277
0.027260956
0.027398867
0.027527828
0.027648884
0.027763576
0.027872693
0.0279765
0.028074918
0.028168693
0.028258805
0.028345875
0.028430344
0.028512381
0.028593496
0.028675045
0.028757455
0.028841935
0.02892998
0.029022711
0.029115557
0.029205546
0.029251776
0.02900242
0.027972217
0.026618385
0.025512325
0.02453583
0.023648054
0.022831708
0.022075784
0.021372011
0.020713785
0.020095437
0.019512315
0.018960139
0.018435399
0.017935241
0.017456913
0.016998144
0.016556896
0.016131333
0.01571979
0.015320805
0.014932713
0.014554197
0.014183554
0.013819167
0.013459396
0.013102043
0.012744897
0.012385573
0.012020924
0.011647142
0.011259539
0.010852191
0.010417388
0.0099450027
0.0094210969
0.0088259998
0.0081325285
0.0073051205
0.0063072959
0.0051372423
0.0038771142
0.0026490132
0.0015170509
0.000487516
0.00073731782
0.00079937948
0.0008631841
0.00093066499
0.0010063845
0.0010838073
0.0011720602
0.0012656105
0.0013728548
0.0014894882
0.0016115816
0.0017243127
0.0018255476
0.00193961
0.0021046016
0.0022896454
0.0024426023
0.0026094658
0.0028198265
0.0030182223
0.0032228829
0.0034625186
0.0036957391
0.0039511676
0.0042207273
0.0044959738
0.0047906296
0.0051039974
0.0054369085
0.0057779201
0.0061226717
0.0064734031
0.006843795
0.0072220423
0.0076390072
0.0080524766
0.0084710136
0.0089151469
0.0093416082
0.0097842629
0.010252654
0.010725615
0.011208383
0.011708828
0.012209215
0.012720713
0.013242377
0.013763349
0.014285991
0.014821521
0.015347918
0.0158864
0.016425561
0.01695613
0.017499091
0.018024628
0.018557956
0.019080251
0.019592243
0.02010295
0.02059658
0.021079615
0.021551262
0.022003344
0.022441435
0.022866444
0.023268299
0.023653334
0.024025125
0.024374873
0.024704432
0.025019935
0.025318883
0.025597326
0.025858498
0.026104947
0.026336161
0.026552945
0.026754928
0.026943859
0.027120692
0.027285932
0.02744041
0.027584971
0.027720327
0.027847472
0.027967841
0.028082438
0.028191475
0.02829508
0.028394299
0.028490334
0.028584172
0.028676384
0.028766691
0.028855425
0.028944052
0.029033057
0.029122557
0.029212732
0.029303401
0.02939408
0.029490505
0.02956116
0.029382917
0.028471041
0.027109271
0.02598491
0.024998726
0.024102414
0.023278182
0.022514885
0.021804243
0.021139592
0.020515126
0.019926054
0.019367909
0.018837048
0.018330523
0.017845444
0.017379465
0.016930476
0.016496597
0.016076151
0.015667696
0.015269526
0.014880418
0.01449865
0.014122658
0.013750886
0.013381091
0.013011123
0.012638698
0.012260618
0.011873043
0.011471299
0.011049453
0.010599789
0.010112224
0.0095727893
0.0089617612
0.0082519634
0.0074076508
0.0063918944
0.0052023232
0.0039218935
0.0026756485
0.001529783
0.00049083546
0.00071295358
0.0007731344
0.0008349719
0.00090039826
0.00097388062
0.0010490354
0.0011346926
0.0012255241
0.0013296963
0.0014431047
0.0015620118
0.0016721275
0.0017708607
0.0018819493
0.0020423064
0.0022232625
0.0023731152
0.002536031
0.0027417506
0.0029365123
0.0031369849
0.003372169
0.0036015005
0.0038526297
0.0041182749
0.0043897193
0.0046802319
0.0049894752
0.0053187992
0.0056571568
0.0060001087
0.0063490257
0.0067171825
0.0070928851
0.0075077093
0.0079205558
0.0083389215
0.0087833133
0.0092106804
0.0096538206
0.010123313
0.010597901
0.011083232
0.011586043
0.012090168
0.012605534
0.013131554
0.013657088
0.014184971
0.014726363
0.015258672
0.015803454
0.01634931
0.016886914
0.017437138
0.017970302
0.018511581
0.019041983
0.019562369
0.020081717
0.020584296
0.021076324
0.021557664
0.022018534
0.022465938
0.02290033
0.023311686
0.023706227
0.024087332
0.024446266
0.024784947
0.025109232
0.025416941
0.025704132
0.025973766
0.02622853
0.026467838
0.026692617
0.02690235
0.02709886
0.027282849
0.02745539
0.027617173
0.02776892
0.02791154
0.028046105
0.028174067
0.028296143
0.028412865
0.02852427
0.028631103
0.028734283
0.028834632
0.028932564
0.029028241
0.029123253
0.029218989
0.029316102
0.029415625
0.029518767
0.029626502
0.029733166
0.029843242
0.029930126
0.029818818
0.029025159
0.027666505
0.026511581
0.025508922
0.024599148
0.02376317
0.022989374
0.02226931
0.021596171
0.020963968
0.020367745
0.019802802
0.019265313
0.018752192
0.018260362
0.017787341
0.017330913
0.016889109
0.016460193
0.016042712
0.015634893
0.015235575
0.014842974
0.014455546
0.014071802
0.013689424
0.013306313
0.012920287
0.012528095
0.01212588
0.011708997
0.011271566
0.010805899
0.010301998
0.0097458725
0.0091177277
0.0083904131
0.0075279423
0.0064927397
0.0052815865
0.0039780657
0.0027104261
0.0015472983
0.00049571446
0.00068942647
0.00074777094
0.00080771294
0.00087114647
0.00094244069
0.0010153773
0.0010985153
0.0011866951
0.0012878671
0.0013981211
0.0015139042
0.0016214473
0.0017177122
0.0018258782
0.0019816729
0.0021585763
0.0023053604
0.0024643584
0.0026654584
0.0028565779
0.0030528657
0.0032835732
0.0035089799
0.0037557539
0.0040174178
0.0042850102
0.0045712757
0.0048762126
0.0052017396
0.0055372917
0.0058781661
0.0062251404
0.0065909193
0.0069639364
0.0073764342
0.0077882706
0.0082061975
0.0086505934
0.0090785099
0.0095218156
0.0099921785
0.010468143
0.010955747
0.011460644
0.011968245
0.012487255
0.01301737
0.013547277
0.014080247
0.014627355
0.015165477
0.015716443
0.016268854
0.016813397
0.01737081
0.017911611
0.018460608
0.018999227
0.0195279
0.020055807
0.020567321
0.021068268
0.021559239
0.02202892
0.022485659
0.022929432
0.023350244
0.023754098
0.024144445
0.024512404
0.024860231
0.02519337
0.025509608
0.025805356
0.026083386
0.026346133
0.026593368
0.02682578
0.02704291
0.027246578
0.027437925
0.027617492
0.027785921
0.027944098
0.028092771
0.028233117
0.028366561
0.028493991
0.028615779
0.028732204
0.02884427
0.02895289
0.029059273
0.02916399
0.029266773
0.029368412
0.029470111
0.029572377
0.029675512
0.02977998
0.029886265
0.029991286
0.030106066
0.030212308
0.030160564
0.029498905
0.028170459
0.026988852
0.025975636
0.025057057
0.024212882
0.023431452
0.022704398
0.022024934
0.021387
0.020785525
0.020215629
0.019673305
0.019155326
0.018658432
0.018180008
0.017717716
0.017269495
0.016833548
0.016408397
0.015992198
0.015583837
0.015181485
0.014783624
0.014388829
0.013994722
0.013599264
0.013200371
0.012794758
0.012378575
0.011947213
0.01149483
0.011013797
0.010494183
0.0099219817
0.009277358
0.0085331487
0.0076531274
0.0065989996
0.005366427
0.0040393212
0.0027492173
0.0015674453
0.00050154773
0.00066670851
0.00072324971
0.00078137049
0.00084288008
0.00091203551
0.00098280234
0.0010634925
0.0011490872
0.0012473298
0.0013544998
0.0014672234
0.0015722424
0.0016660785
0.0017713705
0.001922667
0.0020955573
0.0022393226
0.0023944303
0.0025909356
0.0027784151
0.0029705259
0.0031967406
0.003418195
0.0036605565
0.0039181607
0.0041818292
0.0044637712
0.0047642995
0.0050858515
0.005418341
0.0057569379
0.0061018331
0.0064650485
0.0068352625
0.0072450863
0.0076557016
0.008072879
0.0085169823
0.0089455954
0.0093887913
0.0098592622
0.010336319
0.010825926
0.01133261
0.011843455
0.012365843
0.012899813
0.01343393
0.013971801
0.014524446
0.01506821
0.015625222
0.01618411
0.016735511
0.017300026
0.017848331
0.018405163
0.018951801
0.019488824
0.020025329
0.020545773
0.021055659
0.021556366
0.022035187
0.022501005
0.022954123
0.023384436
0.023797871
0.024197468
0.024574581
0.02493154
0.025273414
0.025598342
0.025902765
0.026189151
0.026460023
0.026715119
0.026955299
0.027179988
0.027391026
0.02758931
0.02777589
0.027951225
0.028116277
0.028271852
0.028419124
0.028559631
0.028693918
0.028822514
0.028945733
0.029064563
0.029179805
0.029292403
0.029402816
0.029510893
0.029618311
0.029726604
0.029836673
0.029949545
0.030066043
0.030186651
0.030304815
0.030425834
0.030540554
0.030539187
0.029996441
0.028718487
0.02750123
0.026471786
0.025540223
0.024684455
0.023892626
0.023156325
0.022468737
0.021823691
0.021215976
0.020640485
0.020093008
0.01957013
0.019068361
0.018584907
0.018117257
0.017663215
0.017220879
0.016788707
0.016364762
0.015947937
0.015536336
0.015128462
0.014722933
0.014317311
0.013909626
0.013497892
0.013078811
0.012648562
0.012202591
0.011735096
0.011238473
0.010702864
0.010114231
0.0094526612
0.0086909803
0.0077926316
0.0067184972
0.0054629252
0.0041099851
0.0027947465
0.0015915773
0.0005086945
0.00064477322
0.00069954767
0.00075590958
0.00081556473
0.00088263419
0.00095128498
0.0010295913
0.0011126675
0.0012080519
0.0013122086
0.0014219366
0.0015244758
0.001615921
0.00171839
0.001865269
0.0020341842
0.0021749816
0.0023262308
0.0025181734
0.0027020163
0.0028899671
0.0031116798
0.0033291628
0.0035670727
0.0038205647
0.0040802734
0.0043578228
0.0046537859
0.0049711733
0.005300459
0.0056364966
0.005979186
0.0063397668
0.0067070218
0.0071140457
0.0075230506
0.0079392106
0.0083827637
0.0088118057
0.0092546438
0.0097248294
0.010202727
0.01069403
0.011202214
0.011716016
0.012241541
0.012779097
0.01331721
0.013859806
0.014417816
0.014967103
0.015530029
0.016095237
0.016653378
0.017224907
0.017780717
0.018345141
0.018899904
0.019445164
0.019990169
0.020519524
0.021038267
0.021548353
0.022036646
0.022511499
0.022973999
0.023413767
0.02383655
0.024245316
0.024631455
0.024997557
0.025348255
0.025681696
0.025994614
0.026289303
0.02656805
0.026830979
0.027078643
0.027310541
0.027528521
0.027733934
0.027927325
0.02810916
0.028280475
0.028441919
0.028594763
0.028740576
0.028880198
0.029013961
0.029142148
0.029265874
0.029385914
0.029503574
0.029619589
0.029733548
0.029846439
0.029959298
0.030072662
0.03018738
0.030304228
0.030424146
0.030546726
0.030671943
0.030797661
0.030840303
0.030423133
0.02922236
0.027974783
0.026933956
0.025993327
0.025128844
0.024328858
0.023585128
0.022890967
0.02224021
0.021627601
0.02104788
0.02049667
0.019970384
0.019465307
0.018978455
0.018507139
0.018048996
0.017601993
0.017164496
0.016734446
0.016310739
0.015891412
0.015474962
0.015060051
0.014644191
0.014225452
0.013801944
0.013370355
0.012926865
0.012466936
0.011984806
0.011472898
0.010921412
0.010316307
0.0096376337
0.008858189
0.0079411366
0.0068465098