/*--------------------------------*- C++ -*----------------------------------*\
| =========                 |                                                 |
| \\      /  F ield         | OpenFOAM: The Open Source CFD Toolbox           |
|  \\    /   O peration     | Version:  2506                                  |
|   \\  /    A nd           | Website:  www.openfoam.com                      |
|    \\/     M anipulation  |                                                 |
\*---------------------------------------------------------------------------*/
FoamFile
{
    version     2.0;
    format      ascii;
    arch        "LSB;label=32;scalar=64";
    class       volScalarField;
    location    "0.022";
    object      Co;
}
// * * * * * * * * * * * * * * * * * * * * * * * * * * * * * * * * * * * * * //

dimensions      [0 0 0 0 0 0 0];

internalField   nonuniform List<scalar> 
192657
(
0.0015183152
0.0016386338
0.0017680493
0.001899871
0.0020476346
0.0021987675
0.0023636443
0.0025360198
0.0027180375
0.0029128242
0.0031296818
0.0033637987
0.0036054613
0.0038425362
0.004077133
0.0043525108
0.0046493672
0.0049404998
0.0052333946
0.0055640904
0.0058963567
0.0062316109
0.0065857911
0.0069497314
0.007321406
0.0077013515
0.0080882092
0.0084829389
0.0088851896
0.0092884417
0.0096933372
0.010100559
0.010507197
0.010914349
0.011319572
0.011719927
0.012115379
0.012503396
0.012887688
0.013262588
0.013632775
0.013996185
0.01434698
0.014691016
0.01502524
0.01534691
0.015660705
0.015966461
0.016261414
0.016546968
0.016825986
0.017100432
0.017365348
0.017622115
0.017874065
0.018123544
0.01836788
0.018604335
0.018835361
0.019063168
0.019287014
0.019507999
0.019723782
0.019930199
0.0201314
0.0203309
0.020524852
0.020711994
0.020893901
0.021069242
0.021235978
0.021396749
0.021555026
0.021710209
0.021858905
0.021999923
0.022135888
0.022269036
0.022399266
0.022525761
0.02264903
0.02277136
0.022894688
0.023018171
0.023140133
0.023260568
0.023381146
0.023504045
0.023630536
0.023761132
0.023896032
0.024035094
0.024178472
0.024326849
0.024481156
0.024642369
0.02481109
0.024987556
0.025172269
0.02536596
0.025569102
0.025780088
0.025994474
0.026206179
0.026409694
0.02659362
0.026754204
0.026850063
0.026809937
0.026661754
0.026480387
0.026267154
0.02602611
0.025769236
0.025501329
0.025226601
0.024946854
0.024663716
0.0243787
0.024091522
0.023801972
0.023509005
0.02321125
0.02290722
0.022595707
0.022273543
0.021939801
0.021590426
0.021222656
0.02083415
0.020418793
0.019973058
0.019494175
0.018975155
0.018409337
0.017790537
0.017111936
0.016365501
0.015541264
0.014624257
0.013594302
0.012427523
0.011090436
0.0095490981
0.0078081233
0.0059549647
0.004120699
0.0023873637
0.00078144504
0.0014673749
0.0015840659
0.0017096273
0.0018376511
0.0019812066
0.0021281209
0.0022884948
0.0024563143
0.0026336441
0.0028235082
0.0030350375
0.0032636476
0.0034999844
0.0037321982
0.0039621732
0.0042319384
0.0045234346
0.004809843
0.0050981898
0.0054239865
0.0057519606
0.0060834043
0.006433929
0.0067946762
0.0071636707
0.0075414187
0.0079266466
0.0083203529
0.0087221107
0.0091254623
0.0095312073
0.009939997
0.010348764
0.010758608
0.011167156
0.011571457
0.011971348
0.012364289
0.01275387
0.013134266
0.013510282
0.013879688
0.014236873
0.014587518
0.01492826
0.015256497
0.015576848
0.015888966
0.016190145
0.016481729
0.016766645
0.017046665
0.01731682
0.017578688
0.017835441
0.018089474
0.01833796
0.018578262
0.018812931
0.019044137
0.019271137
0.019495077
0.019713378
0.01992201
0.020125419
0.020326772
0.020522164
0.020710542
0.020893388
0.021069194
0.021236043
0.021396694
0.021554466
0.021708619
0.021855665
0.021994538
0.022127896
0.022257832
0.02238415
0.022505924
0.022623644
0.022739631
0.022855633
0.022970515
0.023082528
0.023191656
0.023299387
0.023407545
0.023517065
0.023628185
0.023740706
0.023854081
0.023968316
0.024083979
0.024201575
0.02432138
0.024443252
0.024566333
0.024689382
0.024811027
0.024931171
0.025051678
0.025175944
0.025307633
0.025449315
0.025593859
0.02574011
0.025851932
0.025846103
0.025756034
0.025658847
0.025550835
0.025432112
0.025304179
0.025167349
0.025022101
0.024867608
0.024704106
0.024532726
0.024353091
0.024165101
0.023967951
0.023760599
0.02354204
0.023311732
0.023066891
0.022807653
0.022530325
0.022232969
0.021914272
0.021567949
0.021191118
0.020781836
0.020331681
0.019831846
0.019272798
0.01864227
0.017924264
0.017100874
0.016146195
0.015027128
0.013710968
0.012158049
0.010342259
0.0083024813
0.006177946
0.0041468732
0.0023184445
0.00073298278
0.001418176
0.001531333
0.0016531592
0.0017774508
0.0019169035
0.0020596792
0.0022156329
0.0023789735
0.0025516854
0.0027366907
0.0029429531
0.0031661072
0.0033971464
0.0036244989
0.0038498319
0.0041139623
0.004400055
0.0046816546
0.0049653511
0.0052861246
0.0056096613
0.0059370968
0.0062837732
0.0066410985
0.007007137
0.0073824058
0.0077657094
0.0081580768
0.0085589998
0.0089621286
0.0093683849
0.0097783829
0.010188956
0.010601158
0.011012703
0.011420675
0.011824704
0.012222347
0.01261696
0.013002683
0.013384348
0.013759633
0.014123085
0.014480273
0.014827495
0.015162276
0.015489201
0.015807729
0.016115207
0.016412912
0.016703843
0.016989583
0.017265127
0.017532233
0.017793945
0.018052717
0.018305533
0.018549915
0.01878849
0.019023328
0.019253712
0.01948084
0.019701883
0.019913006
0.020118931
0.020322443
0.020519605
0.020709559
0.020893723
0.021070383
0.021237773
0.021398734
0.02155645
0.021710053
0.021855939
0.021993201
0.022124502
0.022251811
0.022374845
0.022492561
0.022605459
0.022715918
0.022825482
0.022932721
0.023035813
0.023134703
0.023230833
0.023325933
0.02342078
0.023515405
0.023609357
0.023701837
0.023792428
0.023881289
0.023968824
0.024055357
0.024140553
0.024223409
0.024302994
0.024378589
0.024449476
0.024514045
0.024569269
0.024610102
0.024627818
0.02463089
0.02463561
0.024607908
0.024450853
0.024211833
0.023958191
0.023690046
0.02340972
0.023120613
0.022825796
0.022527924
0.022228391
0.021928624
0.021629691
0.021330967
0.021031594
0.020730471
0.020426391
0.020118104
0.019804447
0.019483396
0.019153853
0.018813369
0.018459954
0.018091736
0.017705126
0.01729738
0.016865837
0.016405717
0.015911807
0.015378282
0.014798045
0.014162154
0.013459632
0.012674798
0.011786033
0.010765504
0.0095784034
0.0081977971
0.0066463592
0.0050271432
0.0034589086
0.0019976395
0.00064983434
0.0013706546
0.0014803793
0.0015985731
0.0017192226
0.0018546384
0.001993377
0.0021449995
0.0023039406
0.0024721075
0.0026523226
0.0028533839
0.0030711377
0.0032969177
0.0035194133
0.0037400942
0.0039985784
0.004279233
0.0045559525
0.0048349077
0.0051505475
0.0054695131
0.0057927671
0.0061354054
0.0064890878
0.0068519253
0.0072244483
0.0076055405
0.0079962635
0.0083960393
0.0087986095
0.009205035
0.0096159194
0.010027958
0.010442196
0.010856435
0.011267768
0.011675648
0.012077726
0.012477182
0.012868026
0.013255185
0.013636164
0.014005779
0.014369412
0.014723051
0.015064369
0.015397864
0.015722814
0.016036632
0.016340519
0.016637536
0.016929065
0.017210094
0.017482575
0.01774939
0.018013025
0.018270318
0.018518898
0.018761477
0.019000065
0.019233991
0.019464467
0.019688416
0.019902209
0.020110786
0.020316606
0.020515715
0.020707424
0.020893066
0.021070788
0.021238931
0.021400411
0.021558317
0.021711641
0.021856677
0.021992668
0.022122257
0.022247323
0.022367477
0.022481566
0.022590102
0.022695514
0.022799146
0.022899362
0.022994338
0.023084008
0.023169673
0.023252827
0.023334086
0.023413427
0.023490306
0.023563904
0.023634015
0.023700874
0.023764644
0.023825302
0.023882419
0.023935109
0.023982495
0.024023958
0.024059955
0.024092498
0.024125128
0.024161916
0.024206513
0.024261687
0.024308323
0.024302495
0.024158678
0.023934678
0.023697623
0.02344707
0.023185337
0.022915438
0.022639843
0.022360774
0.022079622
0.021797515
0.021514811
0.021230481
0.020943894
0.020654272
0.0203607
0.020062155
0.019757693
0.019445488
0.019124638
0.018792875
0.018448438
0.018089691
0.017713183
0.017316355
0.01689676
0.016449584
0.015969354
0.015449785
0.014883025
0.014259046
0.013565645
0.012785616
0.011895709
0.010867256
0.0096655439
0.0082649756
0.0066910079
0.0050487411
0.0034597245
0.001986405
0.00064232229
0.0013247492
0.0014311458
0.0015457989
0.0016628846
0.0017943271
0.0019291492
0.0020765356
0.0022311589
0.0023948569
0.0025703525
0.0027662825
0.0029786978
0.0031992612
0.0034169168
0.0036329431
0.0038857751
0.004160969
0.00443275
0.0047068882
0.0050172934
0.0053315568
0.0056504827
0.0059889058
0.0063387385
0.0066981419
0.007067665
0.0074462714
0.007835051
0.0082333608
0.0086350599
0.0090413285
0.0094527457
0.0098659221
0.010281861
0.010698452
0.011112862
0.011524275
0.011930553
0.012334563
0.012730337
0.013122779
0.013509309
0.013884938
0.014254915
0.014614906
0.01496271
0.015302764
0.015634162
0.015954366
0.016264505
0.0165677
0.016865151
0.01715181
0.017429787
0.017701846
0.017970519
0.018232448
0.018485435
0.018732273
0.018974844
0.019212538
0.019446583
0.019673642
0.019890367
0.020101891
0.020310307
0.020511671
0.020705465
0.020892949
0.021072094
0.021241384
0.021403784
0.021562305
0.021715789
0.021860434
0.02199565
0.02212406
0.022247454
0.022365359
0.02247651
0.022581477
0.022682748
0.022781452
0.022875754
0.022963829
0.023045627
0.023122498
0.023196023
0.023266897
0.023334938
0.023399318
0.023459016
0.023513606
0.023563333
0.023608763
0.023650271
0.023687586
0.02371998
0.023746896
0.023768139
0.023783627
0.023791806
0.023790471
0.023779541
0.023759224
0.023735691
0.02372144
0.023685599
0.02352544
0.023279719
0.023018962
0.022745058
0.022461119
0.022170541
0.021876018
0.021579571
0.021282392
0.020984904
0.020687286
0.020389191
0.020090163
0.019789535
0.019486457
0.019179968
0.018869081
0.018552265
0.018228459
0.017895857
0.017552766
0.01719749
0.016827265
0.016439615
0.016032054
0.015600719
0.015141117
0.014647915
0.014114288
0.013531186
0.012886785
0.012164151
0.011339373
0.010381511
0.0092538137
0.007928866
0.0064306814
0.0048624157
0.0033411463
0.0019248423
0.00062387802
0.0012804018
0.0013835723
0.001494775
0.0016083737
0.0017359252
0.001866939
0.0020101852
0.0021605739
0.0023198813
0.0024907323
0.002681605
0.0028887476
0.0031041375
0.0033169796
0.0035283597
0.0037755461
0.0040452654
0.0043120587
0.004581324
0.0048864013
0.0051958434
0.0055103095
0.0058443527
0.0061901423
0.0065458921
0.0069121732
0.0072880307
0.0076745814
0.0080711307
0.0084716376
0.0088774151
0.0092890463
0.009703025
0.010120331
0.010538967
0.010956123
0.011370776
0.011780959
0.01218931
0.012589781
0.012987332
0.013379199
0.013760705
0.014136899
0.014503147
0.014857401
0.015203986
0.015541817
0.015868431
0.01618486
0.016494287
0.016797704
0.017090066
0.017373659
0.017651095
0.017924918
0.01819162
0.018449127
0.018700315
0.018946976
0.019188575
0.019426333
0.019656664
0.019876485
0.020091078
0.020302235
0.020506015
0.02070205
0.02089152
0.021072285
0.021242911
0.021406432
0.021565806
0.021719703
0.021864251
0.021999017
0.022126575
0.022248669
0.022364709
0.022473342
0.022575202
0.022672819
0.022767122
0.022856174
0.022938213
0.023013224
0.023082538
0.023147635
0.02320894
0.023266207
0.02331876
0.023365948
0.023407804
0.023444769
0.023477243
0.023505467
0.023529266
0.023548074
0.023561463
0.023569317
0.023573023
0.023575676
0.023581706
0.023594587
0.023611999
0.023625174
0.023625082
0.023579224
0.023415473
0.023161624
0.022893762
0.022614536
0.022326409
0.022032508
0.021735377
0.021436899
0.021138017
0.020839002
0.020540009
0.020240741
0.019940761
0.019639391
0.019335817
0.019029112
0.018718343
0.018402212
0.018079815
0.017749514
0.017409613
0.017058307
0.01669282
0.016310516
0.015908652
0.015483157
0.0150292
0.014540986
0.014011223
0.01343056
0.012787101
0.012064296
0.011239252
0.010282298
0.0091579981
0.0078401914
0.006353722
0.0048013531
0.0032980758
0.0018997496
0.00061549434
0.0012375565
0.0013375842
0.0014454325
0.0015556449
0.0016794064
0.0018066916
0.0019458908
0.0020921295
0.0022471262
0.0024134098
0.0025993019
0.0028012419
0.0030115133
0.0032195738
0.0034263215
0.0036678719
0.0039321137
0.0041938849
0.0044582283
0.0047579012
0.0050624279
0.0053723023
0.0057018136
0.0060433809
0.006395272
0.0067580839
0.0071309411
0.0075149859
0.0079094737
0.0083084907
0.0087134636
0.0091249613
0.0095394128
0.0099577548
0.010378083
0.010797693
0.011215254
0.011629088
0.012041468
0.012446423
0.012848849
0.01324588
0.013633086
0.014015367
0.014387777
0.014748403
0.01510148
0.015445744
0.015778785
0.016101554
0.01641728
0.01672678
0.017024985
0.017314297
0.017597236
0.017876374
0.018147989
0.018410209
0.018665991
0.018916971
0.019162696
0.01940438
0.019638183
0.019861352
0.020079303
0.020293473
0.020499963
0.020698565
0.020890373
0.021073098
0.021245428
0.021410448
0.021571075
0.021725791
0.021870681
0.022005465
0.022132687
0.022254038
0.022368841
0.022475658
0.022575237
0.022670142
0.022761097
0.022846062
0.022923336
0.022992996
0.023056525
0.023115257
0.023169721
0.023219872
0.023264986
0.023304267
0.02333755
0.023365321
0.023388397
0.023407419
0.023422347
0.023432716
0.023438388
0.023439309
0.023435425
0.023426266
0.023411179
0.023389985
0.023364082
0.023340616
0.023325789
0.02329875
0.023166448
0.022924821
0.022660283
0.022381037
0.022090162
0.021791018
0.021486418
0.021178436
0.02086852
0.020557646
0.020246487
0.019935327
0.019624198
0.019312866
0.019000876
0.018687516
0.018371945
0.018052994
0.017729399
0.017399393
0.0170611
0.01671267
0.016351666
0.015975547
0.015581585
0.015166066
0.014724333
0.014250611
0.013737657
0.013176071
0.012553631
0.011853549
0.011052586
0.010120367
0.0090209824
0.0077279484
0.0062659524
0.0047375106
0.0032564534
0.001877352
0.00060844647
0.0011961743
0.0012931485
0.0013977259
0.0015046474
0.0016247305
0.0017483543
0.0018835974
0.002025772
0.0021765402
0.0023383359
0.0025193281
0.0027161396
0.0029213527
0.0031246646
0.003326802
0.0035627395
0.0038215079
0.0040782311
0.0043376057
0.0046318217
0.0049313483
0.0052365138
0.0055613543
0.0058985343
0.0062463747
0.0066055018
0.0069751222
0.0073563974
0.007748548
0.008145773
0.0085496179
0.0089606702
0.0093752693
0.0097943099
0.01021602
0.010637743
0.011057914
0.011475082
0.011891259
0.01230044
0.012707547
0.013109507
0.013502245
0.013890455
0.014268903
0.014635835
0.014995353
0.015346011
0.015685484
0.016014609
0.016336668
0.016652273
0.016956372
0.017251504
0.017540068
0.01782462
0.018101273
0.018368316
0.01862878
0.018884182
0.01913415
0.019379889
0.019617324
0.019843993
0.020065412
0.020282739
0.020492085
0.020693394
0.020887681
0.021072552
0.021246765
0.021413486
0.0215756
0.021731379
0.021876893
0.022012005
0.022139206
0.022260173
0.022374097
0.022479501
0.022577234
0.022669896
0.022758021
0.022839534
0.022912853
0.022978115
0.023036572
0.023089563
0.023137903
0.023181521
0.023219738
0.023252051
0.023278733
0.023300379
0.023317561
0.023330905
0.023340421
0.023345758
0.023346757
0.023343551
0.023337919
0.023332942
0.023330794
0.023330397
0.023329169
0.023329016
0.023348257
0.023374816
0.023280843
0.023037179
0.022755221
0.022453705
0.022135562
0.021804788
0.021464893
0.021118764
0.020786078
0.020473702
0.020164556
0.0198555
0.019546379
0.019236781
0.018926092
0.01861354
0.018298251
0.017979066
0.017654691
0.017323607
0.016984233
0.016634872
0.016273236
0.015896722
0.015502445
0.015086638
0.01464468
0.014171005
0.013658564
0.013098158
0.012477744
0.011780773
0.010984169
0.010057444
0.0089645562
0.0076789055
0.0062252697
0.0047062984
0.0032352121
0.0018655531
0.00060462431
0.0011562196
0.0012502355
0.0013516231
0.0014553215
0.0015718433
0.0016918755
0.001823251
0.0019614477
0.0021080706
0.0022654603
0.002441634
0.0026333941
0.0028336139
0.0030322205
0.0032297761
0.0034601264
0.0037134347
0.003965099
0.0042194602
0.0045081805
0.0048026272
0.0051029896
0.0054230345
0.0057556761
0.0060992882
0.0064545291
0.0068206862
0.0071989393
0.0075884747
0.0079836264
0.0083860453
0.0087963155
0.0092107346
0.0096301508
0.010052885
0.010476428
0.010898864
0.011319098
0.01173874
0.012151915
0.012563444
0.012970137
0.013368208
0.013762187
0.014146549
0.014519684
0.014885573
0.015242601
0.015588495
0.015924003
0.016252439
0.016574248
0.01688437
0.017185413
0.017479718
0.017769833
0.018051653
0.018323698
0.018589073
0.01884912
0.019103549
0.019353556
0.019594819
0.019825236
0.020050408
0.020271154
0.020483646
0.020687985
0.02088509
0.021072432
0.021248876
0.021417662
0.021581643
0.021738869
0.021885434
0.022021324
0.022149006
0.022270128
0.022383791
0.022488473
0.022585175
0.02267651
0.022762843
0.022842022
0.022912597
0.022974674
0.02302966
0.023079255
0.023124205
0.023164378
0.023199054
0.023227609
0.023250229
0.02326772
0.023281005
0.023291004
0.023297591
0.023300362
0.023304609
0.023326926
0.023365446
0.023407041
0.023453663
0.023504149
0.023555576
0.023604585
0.023644682
0.023662703
0.023576698
0.023338337
0.023056585
0.022757209
0.022441687
0.022113418
0.021775683
0.021431169
0.021081834
0.020729125
0.020374241
0.020018063
0.019661241
0.019304127
0.018946827
0.018589246
0.0182311
0.017871802
0.017525231
0.017190064
0.016847233
0.016494985
0.016131253
0.015753552
0.015359094
0.014944478
0.014505402
0.014036392
0.013530375
0.012978018
0.012367039
0.011680776
0.010896032
0.0099819299
0.0089020984
0.0076295361
0.0061884577
0.0046810844
0.0032200667
0.0018583052
0.00060255174
0.0011176451
0.0012087851
0.0013070723
0.0014076167
0.0015206833
0.0016372036
0.0017647975
0.0018991028
0.0020416649
0.0021947323
0.0023661733
0.0025529626
0.0027482561
0.0029422033
0.0031352115
0.0033600126
0.0036078813
0.00385448
0.0041038159
0.0043869923
0.0046762941
0.0049717707
0.0052869075
0.0056148722
0.0059540924
0.0063052574
0.0066677398
0.0070427313
0.0074293975
0.0078221959
0.0082228798
0.0086320675
0.0090459954
0.0094654497
0.0098888995
0.010313913
0.010738318
0.011161282
0.011584138
0.012001032
0.012416767
0.012827951
0.013231149
0.013630716
0.014020839
0.014400078
0.014772264
0.015135601
0.015487899
0.015829785
0.016164611
0.016492626
0.016808803
0.017115836
0.017415988
0.017711751
0.017998849
0.018276009
0.01854638
0.018811167
0.019070161
0.019324556
0.019569804
0.019804109
0.02003314
0.020257443
0.020473218
0.020680719
0.020880784
0.021070776
0.021249625
0.021420685
0.02158676
0.021745673
0.021893564
0.022030528
0.022158994
0.022280613
0.022394348
0.022498679
0.022594739
0.022685168
0.022770197
0.022847689
0.022916119
0.022975621
0.023027854
0.0230745
0.023116275
0.023153122
0.023184416
0.023209841
0.023229997
0.023245473
0.023274454
0.023321505
0.023368858
0.023414625
0.023458478
0.023500307
0.023539822
0.023576807
0.023611523
0.023645466
0.023682498
0.023726347
0.023775764
0.023817952
0.023772756
0.023561628
0.023288872
0.022996213
0.022685963
0.022361769
0.022027107
0.021684836
0.02133699
0.020985068
0.020630168
0.020272984
0.01991401
0.019553481
0.019191406
0.018827623
0.018461862
0.018093652
0.017722463
0.017347468
0.016967608
0.01658159
0.016187634
0.015783433
0.015366238
0.014938064
0.014496691
0.014029016
0.013524151
0.012972844
0.012362889
0.011677703
0.010894171
0.0099813666
0.008902805
0.0076311623
0.0061903062
0.0046826662
0.0032213033
0.0018591604
0.00060276685
0.001080396
0.0011687345
0.0012640003
0.0013614868
0.0014711916
0.0015842858
0.0017081841
0.0018386849
0.0019772715
0.0021261019
0.0022928952
0.0024747968
0.0026652355
0.0028545772
0.003043079
0.0032623699
0.0035048272
0.0037463652
0.0039906755
0.0042682679
0.004552379
0.0048428917
0.0051530189
0.0054761838
0.0058108619
0.0061577744
0.0065163836
0.0068878857
0.0072714279
0.0076616112
0.0080602808
0.0084680648
0.0088811802
0.0093003621
0.0097241707
0.010150356
0.010576388
0.01100179
0.011427521
0.011847887
0.01226755
0.01268301
0.013091115
0.01349608
0.013891812
0.014277028
0.014655415
0.015025008
0.015383672
0.015731941
0.01607318
0.016407479
0.016729823
0.017042928
0.017349032
0.017650577
0.017943078
0.01822552
0.0185011
0.01877084
0.019034616
0.019293611
0.019543039
0.01978148
0.020014651
0.020242771
0.020462118
0.020673102
0.020876457
0.021069413
0.021251007
0.021424697
0.021593232
0.021754206
0.021903841
0.022042317
0.022172058
0.022294696
0.022409101
0.022513748
0.022609936
0.022700297
0.022784962
0.022861812
0.022928967
0.022987163
0.023038317
0.023083982
0.023124838
0.023160782
0.023193331
0.02323878
0.023297503
0.023353362
0.023407245
0.023459638
0.023510604
0.023559846
0.023607239
0.0236534
0.023700114
0.023749682
0.023803275
0.023859259
0.023914988
0.023968869
0.024018063
0.024053844
0.024019018
0.023822788
0.023551957
0.023261882
0.022954369
0.022632487
0.022299545
0.021958396
0.021611046
0.021258976
0.02090331
0.020544701
0.02018365
0.019820477
0.019455274
0.01908788
0.018717997
0.018345016
0.017968323
0.017586934
0.017199694
0.016805268
0.016401814
0.015987162
0.015558779
0.015113373
0.014646692
0.014153252
0.013625946
0.013055411
0.012429233
0.011730517
0.010935705
0.01001332
0.0089262542
0.0076467605
0.0061999805
0.0046893537
0.0032262352
0.0018622766
0.00060376902
0.0010444198
0.0011300292
0.0012223397
0.0013168877
0.0014233132
0.00153307
0.0016533596
0.0017801427
0.0019148395
0.0020595195
0.0022217535
0.0023988531
0.0025845107
0.0027693017
0.0029533438
0.0031671735
0.0034042552
0.0036407415
0.0038800149
0.0041520174
0.0044308943
0.004716383
0.0050214122
0.0053396657
0.0056696644
0.0060121618
0.006366711
0.0067345099
0.0071146995
0.0075020103
0.0078983747
0.0083044694
0.0087164781
0.0091350559
0.0095589204
0.009985924
0.010413293
0.010840783
0.011269124
0.011692678
0.012116028
0.012535512
0.012948296
0.013358453
0.01375961
0.014150671
0.014535161
0.014910928
0.015275918
0.015630543
0.015978189
0.016318757
0.016647281
0.016966513
0.017278657
0.017586054
0.017884058
0.018171895
0.018452764
0.018727547
0.018996203
0.019259911
0.019513671
0.019756381
0.019993796
0.020225866
0.020448916
0.020663515
0.020870305
0.021066395
0.021250911
0.021427448
0.021598663
0.021761935
0.021913582
0.022053852
0.022185162
0.022309141
0.022424524
0.022529828
0.022626489
0.02271715
0.022801852
0.022878519
0.022944895
0.02300249
0.02305301
0.02309783
0.023152099
0.023222109
0.023292925
0.023359658
0.023422556
0.023482402
0.02354014
0.02359642
0.023651281
0.023704349
0.02375523
0.023803713
0.023849827
0.023893808
0.023936356
0.02397943
0.024026135
0.024079482
0.024138183
0.024193104
0.0241923
0.024030173
0.023770106
0.023487161
0.023185633
0.022868723
0.022539912
0.022202196
0.021857647
0.021507761
0.021153611
0.020795713
0.020434428
0.020069959
0.019702422
0.019331805
0.018957942
0.01858026
0.018198258
0.017810981
0.017417344
0.01701608
0.0166053
0.016182853
0.015746259
0.01529216
0.014816244
0.014313026
0.013775401
0.013194009
0.012556476
0.011845898
0.011038711
0.010103468
0.0090029647
0.0077092777
0.006246581
0.0047193749
0.0032429366
0.0018701554
0.00060591144
0.0010096691
0.0010926177
0.0011820779
0.0012737718
0.0013770011
0.0014835048
0.0016002732
0.0017234254
0.0018543188
0.0019949358
0.0021526982
0.0023250828
0.0025060362
0.0026863399
0.0028659739
0.0030743932
0.0033061408
0.0035375953
0.0037718271
0.0040382413
0.0043118516
0.0045922689
0.0048921229
0.0052053681
0.0055305635
0.0058684955
0.0062188126
0.006582707
0.0069593123
0.0073435111
0.0077373143
0.008141418
0.0085520082
0.0089696871
0.0093932558
0.0098207783
0.010249143
0.010678421
0.011109027
0.01153551
0.01196225
0.012385521
0.012802759
0.013217886
0.013624281
0.014021045
0.014411516
0.014793374
0.015164627
0.01552559
0.015879645
0.016226533
0.016561332
0.016886767
0.017205045
0.017518408
0.017822039
0.018115432
0.018401783
0.018681809
0.018955564
0.019224197
0.019482483
0.019729712
0.01997165
0.020207929
0.020434974
0.020653507
0.020864056
0.021063591
0.021251368
0.021431106
0.021605358
0.021771302
0.02192538
0.022067878
0.022201237
0.022327066
0.022444005
0.022550595
0.022648437
0.022740142
0.022825674
0.022903014
0.022969689
0.023027833
0.023086736
0.023160033
0.0232419
0.023320319
0.023394787
0.023465218
0.023531967
0.023595648
0.023657079
0.023716873
0.023775105
0.023831508
0.023886003
0.023939264
0.023993
0.024049184
0.024108472
0.02416936
0.024229816
0.024288865
0.024346149
0.024395662
0.024402518
0.024262244
0.024007615
0.023727751
0.023429478
0.023115403
0.022788882
0.022452964
0.022109774
0.021760869
0.021407368
0.021049737
0.020688247
0.020322941
0.019953759
0.019580604
0.019203353
0.018821467
0.018434526
0.018041573
0.017641566
0.017233323
0.016814955
0.016384382
0.01593924
0.01547619
0.014990929
0.014477994
0.013930305
0.013338484
0.012690168
0.011968388
0.01114945
0.010201839
0.0090881258
0.0077800382
0.0063017015
0.0047586128
0.0032677855
0.0018831195
0.00060970137
0.0009760977
0.0010564716
0.0011431834
0.001232088
0.0013322146
0.0014355405
0.0015488753
0.001668483
0.0017956589
0.0019323006
0.0020856825
0.0022534419
0.0024297707
0.0026056481
0.0027809285
0.0029840005
0.003210462
0.0034369054
0.0036661221
0.0039269387
0.0041952625
0.0044705688
0.0047651823
0.0050733333
0.0053936142
0.0057268447
0.0060727696
0.0064325715
0.0068053895
0.0071862437
0.0075772146
0.0079790584
0.0083879561
0.0088044133
0.0092273908
0.0096550826
0.010084158
0.010514877
0.010947464
0.011376583
0.011806453
0.012233251
0.012654697
0.013074553
0.013485988
0.013888294
0.01428462
0.014672466
0.015049917
0.015417171
0.01577761
0.016130792
0.016471854
0.016803523
0.017128003
0.017447391
0.017756741
0.018055794
0.018347703
0.01863306
0.018912011
0.019185675
0.019448632
0.019700513
0.019947079
0.020187696
0.020418864
0.020641471
0.020855928
0.021059072
0.021250294
0.021433452
0.021610958
0.021779813
0.021936579
0.022081575
0.022217269
0.022345253
0.022464038
0.022572236
0.022671577
0.022764661
0.022851369
0.02292967
0.022997328
0.023070565
0.023158327
0.023247876
0.023334023
0.023416572
0.023495009
0.023569277
0.023639806
0.023707317
0.023772663
0.0238364
0.023898533
0.023958664
0.024016321
0.02407125
0.024123691
0.024174248
0.024223991
0.024274997
0.024329859
0.024390417
0.024456518
0.024521038
0.024554262
0.024451992
0.024212634
0.023939881
0.023647744
0.023338914
0.023016853
0.022684743
0.022344811
0.021998682
0.021647511
0.021291731
0.02093156
0.020566952
0.020197717
0.019823631
0.019444527
0.019059871
0.01866933
0.018271955
0.017866752
0.017452611
0.017027632
0.016589782
0.016136777
0.015665276
0.015171016
0.014648568
0.014090876
0.013488617
0.012829457
0.012096388
0.011265643
0.010305615
0.0091786427
0.007856036
0.0063616939
0.0048020013
0.0032957933
0.0018980976
0.00061420852
0.00094366586
0.0010215599
0.0011056023
0.0011917939
0.0012888931
0.0013891269
0.0014991165
0.0016152661
0.0017388112
0.0018715656
0.0020206567
0.0021838803
0.0023556663
0.002527187
0.0026981731
0.0028959608
0.0031171888
0.0033386512
0.003562883
0.0038181036
0.0040811303
0.0043512979
0.0046406145
0.0049435987
0.0052588677
0.005587272
0.0059286583
0.0062841939
0.0066530186
0.0070303105
0.0074182176
0.0078175222
0.0082244286
0.0086393869
0.0090614328
0.0094889961
0.0099184483
0.010350299
0.010784527
0.011216002
0.011648708
0.012078766
0.012504186
0.012928516
0.0133448
0.013752472
0.014154511
0.014548235
0.014931796
0.015305301
0.015672102
0.016031602
0.016379002
0.016716978
0.017047739
0.017373248
0.017688444
0.017993308
0.018290951
0.018581826
0.018866192
0.019145099
0.019412924
0.019669709
0.019921178
0.020166395
0.020401982
0.020628981
0.020847667
0.021054738
0.021249752
0.021436687
0.021617806
0.021789956
0.021949834
0.022097765
0.02223627
0.022366911
0.022488098
0.022598495
0.022699984
0.022795109
0.022883685
0.022963708
0.023042567
0.023133907
0.023231457
0.023324769
0.023414549
0.023500588
0.023582469
0.023660213
0.023734197
0.023805052
0.023873625
0.023940517
0.024005795
0.02406918
0.024130614
0.024190756
0.024251188
0.024313476
0.024378063
0.0244438
0.024509224
0.024573154
0.024636913
0.024696791
0.024733737
0.024656228
0.02442929
0.024160258
0.023872009
0.023566724
0.023247688
0.022918135
0.022580379
0.02223615
0.021886669
0.021532357
0.021173388
0.020809619
0.020440734
0.020066344
0.019686123
0.019299428
0.018905957
0.018504775
0.018094942
0.017675394
0.017244225
0.016799488
0.016338967
0.015859331
0.015356356
0.01482467
0.014257256
0.013644804
0.012975028
0.01223087
0.011388456
0.010416104
0.0092758438
0.0079384804
0.0064275686
0.0048503108
0.0033274818
0.0019153526
0.00061949467
0.0009123506
0.00098783727
0.0010692704
0.0011528311
0.001246964
0.0013442137
0.0014509495
0.0015637267
0.0016837266
0.0018126819
0.0019575747
0.0021163546
0.0022836812
0.0024509125
0.0026176653
0.0028102405
0.0030262946
0.0032428093
0.0034620776
0.0037117301
0.0039694545
0.0042344648
0.0045184408
0.0048161964
0.0051263685
0.0054498352
0.0057865492
0.0061376563
0.0065023093
0.0068758332
0.0072604292
0.0076569448
0.008061608
0.0084747572
0.0088955867
0.0093226849
0.0097522325
0.010184877
0.010620447
0.01105398
0.011489251
0.011922304
0.012351425
0.01277997
0.013200903
0.013613732
0.014021335
0.014420814
0.014810397
0.015190081
0.015563204
0.015928984
0.01628269
0.016626975
0.016964067
0.017295746
0.01761687
0.017927639
0.018231086
0.018527568
0.018817453
0.019101699
0.019374528
0.019636357
0.019892836
0.020142782
0.020382924
0.020614466
0.020837528
0.021048688
0.021247688
0.02143862
0.021623567
0.021799254
0.021962497
0.022113625
0.022255227
0.022388816
0.022512691
0.022625601
0.022729547
0.022827043
0.02291784
0.023000011
0.023092532
0.023199161
0.023300813
0.023398175
0.023491929
0.023581731
0.023667086
0.02374812
0.023825384
0.023899683
0.023971868
0.024042448
0.024111432
0.024178363
0.024242629
0.024303946
0.024362641
0.024419626
0.024476199
0.024534473
0.024596539
0.024663462
0.024735324
0.024807142
0.024863317
0.024822625
0.024618773
0.02435716
0.02407515
0.023775299
0.023460909
0.023135347
0.02280108
0.022459976
0.022113361
0.021761681
0.021405096
0.021043405
0.02067618
0.020302902
0.019923095
0.019535921
0.019141002
0.01873738
0.018324152
0.017900313
0.017463953
0.017013162
0.01654582
0.016058622
0.015547374
0.015006747
0.014429789
0.013807231
0.013126819
0.012371482
0.011517281
0.010532422
0.0093786553
0.0080262392
0.0064982411
0.0049026233
0.0033621554
0.0019344553
0.0006254265
0.00088211785
0.00095525481
0.0010341533
0.0011151556