/*--------------------------------*- C++ -*----------------------------------*\
| =========                 |                                                 |
| \\      /  F ield         | OpenFOAM: The Open Source CFD Toolbox           |
|  \\    /   O peration     | Version:  2506                                  |
|   \\  /    A nd           | Website:  www.openfoam.com                      |
|    \\/     M anipulation  |                                                 |
\*---------------------------------------------------------------------------*/
FoamFile
{
    version     2.0;
    format      ascii;
    arch        "LSB;label=32;scalar=64";
    class       volScalarField;
    location    "0.022";
    object      k;
}
// * * * * * * * * * * * * * * * * * * * * * * * * * * * * * * * * * * * * * //

dimensions      [0 2 -2 0 0 0 0];

internalField   nonuniform List<scalar> 
19257
(
11.254149
10.738224
10.726485
10.72801
10.728373
10.729638
10.732874
10.739185
10.744233
10.7394
10.724352
10.712605
10.715052
10.722548
10.725895
10.726753
10.727902
10.729483
10.731352
10.733382
10.735566
10.737924
10.74052
10.743469
10.746929
10.751123
10.756374
10.763139
10.772061
10.784054
10.800446
10.823137
10.85499
10.899984
10.960228
11.027102
11.102019
11.188445
11.290434
11.412785
11.562119
11.748633
11.984828
12.30619
12.704444
13.364269
13.75998
15.705063
15.797681
11.279041
10.739361
10.727282
10.727864
10.728315
10.729333
10.732317
10.738691
10.744762
10.741227
10.72677
10.713939
10.713878
10.720631
10.725313
10.726801
10.72784
10.729311
10.731133
10.733123
10.735253
10.737556
10.740094
10.742974
10.746346
10.750422
10.755504
10.76202
10.770573
10.782022
10.797608
10.819109
10.849204
10.891572
10.949292
11.013504
11.085616
11.168901
11.26714
11.384855
11.528433
11.707342
11.934998
12.24015
12.653282
13.273198
13.678187
15.537008
15.41545
11.326642
10.744823
10.727912
10.727781
10.728196
10.729033
10.731696
10.738015
10.745167
10.743114
10.729477
10.715826
10.713123
10.719065
10.724445
10.726452
10.727681
10.729143
10.730887
10.73281
10.734891
10.737146
10.739629
10.742439
10.745719
10.749671
10.754578
10.760836
10.76901
10.779901
10.79467
10.814974
10.843317
10.8831
10.938244
10.99991
11.06938
11.149705
11.244399
11.357736
11.495839
11.667623
11.886525
12.177767
12.57763
13.155481
13.618896
15.345071
15.111499
11.369822
10.755291
10.728508
10.727708
10.728014
10.728713
10.731023
10.737114
10.745209
10.745099
10.732405
10.717942
10.712851
10.717556
10.723089
10.725947
10.727585
10.729028
10.73066
10.732518
10.734561
10.736777
10.739208
10.741954
10.745154
10.748997
10.753747
10.759773
10.767603
10.77799
10.792021
10.811246
10.838012
10.875474
10.928234
10.987556
11.054686
11.132441
11.22408
11.333677
11.467128
11.63291
11.844333
12.12415
12.514575
13.038278
13.5571
15.215183
14.870355
11.412126
10.770841
10.729081
10.727617
10.727806
10.728367
10.730323
10.736027
10.744854
10.747002
10.735593
10.720467
10.713167
10.716177
10.721532
10.725334
10.727381
10.728852
10.730434
10.732249
10.734255
10.736427
10.73881
10.7415
10.744631
10.748375
10.752979
10.758788
10.766297
10.776213
10.789554
10.807775
10.833074
10.868389
10.918799
10.975889
11.040869
11.116279
11.205141
11.31136
11.440624
11.60107
11.805678
12.07584
12.454551
12.938092
13.436454
15.076263
14.678155
11.452879
10.791472
10.729629
10.727504
10.727556
10.727995
10.729619
10.734801
10.74409
10.748579
10.739003
10.723494
10.714068
10.715017
10.719936
10.724459
10.726971
10.728636
10.730248
10.732019
10.733968
10.736093
10.738436
10.741083
10.744152
10.747806
10.752273
10.757879
10.765088
10.774562
10.787258
10.80454
10.828466
10.861788
10.909849
10.964822
11.027822
11.101072
11.187389
11.290541
11.416032
11.571725
11.770208
12.032076
12.398904
12.846347
13.31584
14.862825
14.52408
11.491627
10.817134
10.730192
10.727337
10.727262
10.727599
10.728925
10.733498
10.742898
10.749658
10.742489
10.727031
10.715758
10.714103
10.718393
10.723262
10.726368
10.728394
10.73009
10.731805
10.733691
10.735778
10.738095
10.740706
10.74372
10.74729
10.75163
10.757048
10.763976
10.773038
10.78513
10.801534
10.824176
10.855645
10.901294
10.954289
11.015455
11.086682
11.170627
11.270954
11.392998
11.544398
11.737322
11.991999
12.346437
12.768869
13.212714
14.664635
14.399802
11.527783
10.847725
10.730788
10.727098
10.726931
10.727196
10.728256
10.732179
10.741338
10.750155
10.745799
10.731038
10.718125
10.713668
10.716973
10.721817
10.72558
10.728072
10.729888
10.731587
10.733437
10.735499
10.737791
10.74037
10.743332
10.746824
10.751048
10.75629
10.76296
10.771639
10.783168
10.798752
10.820194
10.849941
10.893078
10.944292
11.003737
11.073042
11.154756
11.252453
11.371317
11.518802
11.706661
11.954998
12.296738
12.70071
13.127951
14.452081
14.302269
11.560859
10.883011
10.731439
10.726786
10.726575
10.726789
10.727622
10.730901
10.739516
10.749927
10.748853
10.735324
10.721114
10.714014
10.715763
10.720217
10.724592
10.727576
10.729618
10.731385
10.733228
10.735261
10.737523
10.740068
10.742984
10.746405
10.750524
10.755608
10.762039
10.770365
10.781375
10.796199
10.816526
10.844675
10.885333
10.934893
10.992679
11.060142
11.139744
11.234977
11.350888
11.494771
11.677992
11.920636
12.249595
12.64063
13.057573
14.303425
14.226258
11.590506
10.922483
10.732231
10.726444
10.726203
10.726378
10.727034
10.729717
10.73757
10.74897
10.751352
10.739685
10.724727
10.715275
10.714786
10.718633
10.723391
10.726882
10.729282
10.731195
10.733051
10.735051
10.73728
10.739795
10.742672
10.746033
10.750058
10.754998
10.761213
10.769217
10.779751
10.793877
10.813178
10.839854
10.87822
10.926148
10.982315
11.048011
11.125612
11.218529
11.331688
11.472244
11.651208
11.888631
12.206825
12.587448
12.997348
14.162081
14.169725
11.616471
10.965074
10.733465
10.726177
10.725826
10.725981
10.726513
10.728673
10.735637
10.747534
10.753053
10.743829
10.728785
10.717446
10.714188
10.717221
10.722
10.726008
10.728858
10.730978
10.732877
10.73486
10.737064
10.739552
10.742397
10.745706
10.749648
10.75446
10.760481
10.768196
10.778298
10.791789
10.810157
10.835489
10.87175
10.918098
10.972701
11.03671
11.11242
11.203168
11.313766
11.451249
11.626309
11.858945
12.168167
12.540164
12.94534
14.045707
14.129076
11.638634
11.006435
10.738006
10.726028
10.725516
10.725639
10.72608
10.727797
10.733842
10.74574
10.753976
10.74748
10.733068
10.72017
10.714344
10.716085
10.720479
10.724978
10.728306
10.730701
10.732702
10.734696
10.73688
10.739343
10.742156
10.74542
10.74929
10.753991
10.759842
10.767299
10.777016
10.789939
10.807465
10.831588
10.865948
10.910789
10.9639
11.026316
11.100255
11.188985
11.297214
11.431872
11.603366
11.831631
12.133277
12.498156
12.900376
13.92395
14.107471
11.657034
11.04452
10.746295
10.725983
10.72528
10.725368
10.725741
10.727096
10.732262
10.743765
10.754163
10.750544
10.737314
10.723332
10.71528
10.715218
10.719024
10.723832
10.727619
10.730357
10.732517
10.73455
10.736721
10.739158
10.741941
10.745166
10.748978
10.753585
10.75929
10.766523
10.775903
10.788323
10.805107
10.828157
10.860828
10.904265
10.955979
11.016911
11.089215
11.17609
11.282155
11.414242
11.582513
11.80682
12.102067
12.461131
12.860467
13.824423
14.084407
11.671854
11.07858
10.757347
10.726018
10.72509
10.725159
10.725482
10.726551
10.730927
10.741792
10.753702
10.753089
10.74115
10.726647
10.716908
10.714662
10.717791
10.722626
10.726821
10.729941
10.732304
10.734407
10.736578
10.738992
10.741748
10.744942
10.748707
10.753239
10.758822
10.765865
10.774954
10.78694
10.803079
10.825199
10.856401
10.898562
10.948999
11.008581
11.079403
11.164606
11.268727
11.398515
11.563916
11.784695
12.074564
12.428896
12.825256
13.750286
14.064961
11.683395
11.107994
10.769966
10.726118
10.724917
10.725004
10.725288
10.726135
10.729839
10.739971
10.752828
10.754988
10.74442
10.729883
10.718778
10.71462
10.716859
10.72142
10.725967
10.72946
10.732056
10.73426
10.736451
10.738852
10.741585
10.74475
10.748476
10.752947
10.758432
10.765316
10.774161
10.785781
10.801377
10.822711
10.85267
10.893709
10.943014
11.001402
11.070918
11.154654
11.257075
11.384856
11.547762
11.765468
12.050872
12.401407
12.794839
13.696242
14.046382
11.692021
11.132338
10.782815
10.726274
10.724779
10.724874
10.725136
10.725822
10.728986
10.738398
10.75185
10.756206
10.747044
10.73281
10.720697
10.714984
10.716212
10.720336
10.725134
10.728941
10.731781
10.734109
10.736341
10.73874
10.741452
10.744591
10.748284
10.752706
10.75811
10.764868
10.773516
10.784841
10.799994
10.820688
10.849633
10.889724
10.938067
10.995441
11.063852
11.146348
11.247335
11.373427
11.534236
11.749353
12.031138
12.378702
12.769411
13.658293
14.029491
11.698121
11.151359
10.794588
10.726446
10.724666
10.724761
10.725014
10.725589
10.728346
10.73714
10.750937
10.756921
10.749013
10.735222
10.722449
10.71556
10.715775
10.719509
10.724392
10.728439
10.731505
10.73396
10.736245
10.738652
10.741349
10.744464
10.748127
10.752509
10.757853
10.764515
10.773013
10.78411
10.798923
10.819121
10.847282
10.886618
10.93419
10.990749
11.058275
11.139779
11.23962
11.364362
11.52349
11.736521
12.015482
12.360812
12.749253
13.628836
14.016681
11.702085
11.164953
10.804057
10.726572
10.724557
10.724677
10.724931
10.725429
10.727897
10.736232
10.750209
10.757317
10.750348
10.736989
10.723829
10.716166
10.715502
10.718947
10.723805
10.728014
10.73126
10.733823
10.736163
10.738586
10.741274
10.744369
10.748009
10.75236
10.75766
10.764252
10.772645
10.783581
10.798152
10.818001
10.845606
10.884395
10.931403
10.987367
11.054245
11.135023
11.234024
11.357772
11.515657
11.727123
12.004042
12.347845
12.734257
13.608829
14.00692
11.704323
11.173117
10.810158
10.726669
10.724468
10.724636
10.724892
10.725337
10.727627
10.735688
10.749765
10.757509
10.7511
10.738048
10.724695
10.716601
10.71538
10.718624
10.723415
10.72772
10.731089
10.733723
10.7361
10.738536
10.741222
10.744307
10.74793
10.752261
10.757531
10.764081
10.772409
10.783251
10.79768
10.817323
10.844602
10.883063
10.92973
10.985334
11.051819
11.132157
11.230643
11.353781
11.510888
11.721361
11.997022
12.33995
12.724708
13.597417
14.000355
11.705043
11.175852
10.812277
10.726708
10.724447
10.724628
10.724879
10.725304
10.727534
10.735508
10.749622
10.757564
10.751339
10.738394
10.724981
10.716746
10.715339
10.71851
10.723256
10.727598
10.73102
10.733681
10.736071
10.738511
10.741196
10.744277
10.747894
10.752216
10.757475
10.76401
10.772318
10.78313
10.797517
10.817099
10.844284
10.882643
10.929205
10.984697
11.05106
11.131259
11.229583
11.352524
11.509371
11.719508
11.994715
12.33739
12.721213
13.593898
13.997239
11.704323
11.173117
10.810158
10.726669
10.724467
10.724635
10.724892
10.725336
10.727625
10.735685
10.749757
10.757496
10.751086
10.738034
10.724683
10.716584
10.715349
10.718577
10.723367
10.727678
10.731051
10.733688
10.736067
10.738504
10.741189
10.744273
10.747897
10.752229
10.757501
10.764054
10.772388
10.78324
10.797687
10.817354
10.844677
10.883164
10.929857
10.98549
11.052008
11.132383
11.230912
11.354094
11.511244
11.721762
11.997414
12.340321
12.725044
13.59773
14.000453
11.702085
11.164953
10.804058
10.726571
10.724554
10.724675
10.72493
10.725427
10.727893
10.736225
10.750192
10.757288
10.750318
10.736959
10.723805
10.716131
10.715433
10.718851
10.723707
10.727928
10.731185
10.733754
10.736095
10.738516
10.741201
10.744295
10.747935
10.752288
10.757592
10.764191
10.772596
10.783553
10.798158
10.818057
10.84575
10.884591
10.93165
10.987671
11.054613
11.135466
11.234549
11.358385
11.516355
11.727907
12.004805
12.348562
12.734905
13.609428
14.007075
11.698121
11.151359
10.794588
10.726445
10.724663
10.724759
10.725011
10.725585
10.72834
10.737128
10.75091
10.756877
10.748966
10.735179
10.722413
10.715502
10.715664
10.719359
10.724243
10.728313
10.731397
10.733858
10.736141
10.738543
10.741235
10.744347
10.748011
10.752396
10.757745
10.764417
10.772934
10.784063
10.798927
10.819202
10.847497
10.886912
10.934558
10.991202
11.058824
11.140438
11.240402
11.365274
11.524529
11.737684
12.016611
12.361869
12.750207
13.62971
14.016884
11.692021
11.132339
10.782816
10.726272
10.724774
10.72487
10.725131
10.725816
10.728978
10.738381
10.751811
10.756146
10.74698
10.732755
10.720649
10.714898
10.716057
10.720129
10.724939
10.72878
10.731642
10.733975
10.736201
10.738591
10.741297
10.744433
10.748125
10.75255
10.757962
10.764734
10.773409
10.784777
10.800002
10.820801
10.84993
10.890124
10.938565
10.996049
11.064589
11.147232
11.248383
11.374649
11.535625
11.750903
12.032637
12.380101
12.770672
13.659466
14.029737
11.683394
11.107995
10.769967
10.726115
10.724911
10.724999
10.725283
10.726128
10.729828
10.739946
10.752776
10.75491
10.744341
10.729819
10.718717
10.714499
10.716647
10.721157
10.725732
10.729269
10.73189
10.734095
10.736275
10.738664
10.741388
10.744549
10.748275
10.75275
10.758244
10.765148
10.774027
10.785706
10.801393
10.822864
10.853063
10.894227
10.943652
11.002177
11.071854
11.155775
11.258402
11.386402
11.549515
11.767416
12.052751
12.403156
12.796426
13.697639
14.046721
11.671854
11.078581
10.757347
10.726014
10.725083
10.725153
10.725474
10.726542
10.730911
10.741759
10.753637
10.752995
10.741057
10.726579
10.716835
10.714484
10.717516
10.722316
10.726555
10.729727
10.732112
10.734209
10.736363
10.738762
10.741509
10.744699
10.748464
10.753001
10.758597
10.765665
10.774798
10.786857
10.803113
10.825405
10.856907
10.899216
10.949792
11.009538
11.080552
11.16598
11.270351
11.400403
11.566052
11.787058
12.076836
12.431007
12.827164
13.752331
14.06519
11.657034
11.044522
10.746295
10.725978
10.725273
10.72536
10.725732
10.727084
10.732241
10.743722
10.754081
10.750432
10.737211
10.723262
10.715182
10.71498
10.718679
10.723486
10.727333
10.730124
10.732298
10.734319
10.736469
10.738887
10.74166
10.744881
10.748694
10.753308
10.759029
10.766295
10.77573
10.788242
10.805169
10.82843
10.861468
10.905071
10.956943
11.018064
11.090594
11.177735
11.284096
11.416494
11.585053
11.809615
12.104749
12.463622
12.862715
13.827103
14.084613
11.638634
11.006437
10.738004
10.726021
10.725507
10.725629
10.726068
10.727781
10.733816
10.745687
10.753875
10.747351
10.73296
10.720096
10.7142
10.715782
10.72007
10.724606
10.728007
10.730449
10.732455
10.73443
10.73659
10.739034
10.741836
10.745096
10.748968
10.753677
10.759549
10.767046
10.776833
10.789866
10.807567
10.831943
10.866745
10.911769
10.965053
11.027681
11.101882
11.190921
11.299495
11.434513
11.606338
11.834881
12.136387
12.50105
12.902952
13.927873
14.10734
11.616472
10.965077
10.733462
10.72617
10.725816
10.72597
10.7265
10.728654
10.735605
10.74747
10.752933
10.743681
10.728679
10.717366
10.713975
10.71684
10.721546
10.725621
10.728552
10.730707
10.732598
10.734555
10.736732
10.739203
10.742037
10.745344
10.749289
10.754113
10.760161
10.767924
10.778111
10.791735
10.810311
10.835944
10.872729
10.91927
10.974059
11.038306
11.114315
11.205418
11.316413
11.454308
11.629741
11.862673
12.171732
12.543488
12.948318
14.049258
14.129264
11.590507
10.922488
10.732229
10.726439
10.726196
10.726369
10.727022
10.729698
10.737534
10.7489
10.751211
10.739518
10.724629
10.715186
10.714498
10.718167
10.722908
10.72649
10.72897
10.730906
10.732741
10.734707
10.736907
10.739403
10.742272
10.745632
10.749662
10.754619
10.760868
10.768933
10.779567
10.793851
10.813398
10.840428
10.879407
10.927535
10.983897
11.049855
11.127793
11.221116
11.334728
11.475753
11.655134
11.892866
12.210872
12.591233
13.000803
14.165529
14.170183
11.56086
10.883019
10.731438
10.726782
10.726569
10.726783
10.727612
10.730884
10.739483
10.749853
10.748685
10.735142
10.721028
10.713884
10.715402
10.719677
10.724093
10.727183
10.729291
10.731068
10.732885
10.734882
10.737114
10.73964
10.742546
10.745967
10.750094
10.7552
10.761673
10.770073
10.781202
10.796212
10.816826
10.845388
10.886754
10.936512
10.9945
11.062252
11.142235
11.237928
11.354355
11.498768
11.682452
11.92541
12.254181
12.644924
13.061534
14.307909
14.226895
11.527782
10.847735
10.730786
10.727091
10.726924
10.727189
10.728246
10.732163
10.741311
10.750075
10.745597
10.730843
10.718056
10.713492
10.716516
10.721215
10.725079
10.727691
10.729545
10.731232
10.73305
10.73508
10.737348
10.739909
10.742862
10.746352
10.750586
10.755857
10.762578
10.771345
10.783015
10.798815
10.820589
10.850812
10.894722
10.946164
11.005817
11.075437
11.157578
11.255798
11.375248
11.523331
11.711705
11.960357
12.301821
12.705563
13.132542
14.455705
14.303127
11.49162
10.817143
10.730188
10.727329
10.727252
10.727587
10.728911
10.733482
10.742884
10.749565
10.742232
10.726835
10.715734
10.713861
10.717831
10.72261
10.725866
10.728023
10.72974
10.731416
10.733257
10.735314
10.737612
10.740212
10.743219
10.746788
10.751142
10.756592
10.763583
10.772748
10.785003
10.801655
10.824678
10.856698
10.903021
10.956386
11.017809
11.089383
11.173808
11.274727
11.397437
11.549513
11.743011
11.997997
12.352016
12.774309
13.218049
14.670926
14.400739
11.452861
10.791474
10.729622
10.727495
10.727544
10.727979
10.729599
10.734789
10.744095
10.74845
10.738666
10.723325
10.714079
10.714688
10.71926
10.723787
10.726475
10.728248
10.729879
10.731603
10.733496
10.735586
10.737913
10.740552
10.743619
10.747277
10.751761
10.757407
10.764689
10.774283
10.787165
10.804731
10.829088
10.863048
10.911676
10.967117
11.030456
11.104102
11.190958
11.294782
11.421034
11.577497
11.77662
12.038807
12.404971
12.852553
13.322109
14.862113
14.524878
11.412094
10.770825
10.729074
10.727607
10.727794
10.728348
10.730298
10.73603
10.744881
10.746793
10.735164
10.720363
10.713227
10.715748
10.720704
10.724691
10.726906
10.728437
10.730012
10.731789
10.733747
10.735883
10.738248
10.740933
10.744065
10.747819
10.752446
10.758303
10.765897
10.77595
10.789504
10.808046
10.833829
10.869878
10.920762
10.978375
11.043788
11.119664
11.209139
11.316125
11.44626
11.607585
11.81292
12.083377
12.461116
12.944737
13.442565
15.082192
14.678654
11.369774
10.755248
10.728505
10.727694
10.728003
10.728691
10.731
10.737152
10.745247
10.744753
10.731907
10.717952
10.712946
10.716977
10.722108
10.725308
10.727169
10.728605
10.73018
10.732
10.734012
10.736198
10.73861
10.741351
10.744556
10.748415
10.753195
10.759278
10.767206
10.777749
10.792019
10.811605
10.838912
10.877208
10.930364
10.990234
11.057889
11.136198
11.22854
11.339017
11.473479
11.640297
11.852518
12.132812
12.521348
13.045425
13.559161
15.203208
14.870836
11.326583
10.744748
10.727916
10.72776
10.728187
10.72901
10.731686
10.738103
10.745173
10.742585
10.728958
10.71605
10.713158
10.718266
10.723391
10.725786
10.727283
10.728721
10.730359
10.732231
10.734293
10.736532
10.739
10.741805
10.745094
10.749068
10.754014
10.760341
10.768628
10.779696
10.794734
10.815444
10.844389
10.885114
10.940597
11.002828
11.072919
11.15391
11.249427
11.363801
11.503075
11.676085
11.895964
12.187584
12.585449
13.163337
13.618842
15.361703
15.112002
11.278952
10.739262
10.727285
10.727835
10.728313
10.729311
10.73234
10.738833
10.744693
10.74052
10.726271
10.714444
10.713813
10.719505
10.724309
10.726143
10.727386
10.728855
10.730565
10.732484
10.734596
10.736892
10.739423
10.742302
10.745684
10.749786
10.754914
10.761508
10.770185
10.781828
10.797708
10.819654
10.850409
10.893818
10.951796
11.016568
11.089372
11.173426
11.272604
11.391478
11.536465
11.71686
11.945188
12.25235
12.655619
13.2804
13.674058
15.51546
15.415954
11.254104
10.738111
10.726513
10.727962
10.728385
10.729619
10.732949
10.739378
10.744029
10.738541
10.723968
10.71326
10.714846
10.720986
10.72491
10.726271
10.727376
10.728929
10.730745
10.732718
10.734875
10.737231
10.739833
10.742792
10.746273
10.750508
10.755824
10.762691
10.771769
10.784
10.800746
10.823969
10.856598
10.90281
10.963337
11.030816
11.106576
11.193976
11.297209
11.421228
11.57218
11.761228
11.999152
12.32202
12.732384
13.421663
13.746762
15.715307
15.794709
35.971232
20.628278
15.030508
14.436622
14.602737
14.64117
14.475794
14.167126
13.805997
13.444086
13.107749
12.795201
12.504238
12.228329
11.975503
11.741457
11.531112
11.350443
11.20555
11.094136
11.011394
10.950875
10.905488
10.86705
10.833547
10.80617
10.784423
10.766896
10.752767
10.741827
10.733901
10.728577
10.725241
10.723308
10.722462
10.722139
10.722018
10.723094
10.725122
10.72649
10.725536
10.725266
10.724573
10.727859
10.726292
10.729096
10.726354
10.728445
10.7406
36.888457
18.139205
14.54523
14.248229
14.545965
14.534502
14.343489
14.028504
13.679382
13.33288
13.018004
12.725581
12.451624
12.187252
11.944639
11.716052
11.509434
11.33185
11.191015
11.083817
11.004779
10.946852
10.903019
10.865587
10.833132
10.806694
10.785536
10.768283
10.754167
10.743031
10.734805
10.729176
10.725608
10.723528
10.722542
10.722125
10.722062
10.723171
10.725032
10.726263
10.725414
10.725327
10.724754
10.72798
10.726398
10.729106
10.726398
10.72843
10.740663
37.442739
17.327388
14.364145
14.188188
14.509025
14.448917
14.245046
13.923512
13.582332
13.245429
12.94364
12.665737
12.406174
12.151389
11.917803
11.693411
11.489818
11.314861
11.177674
11.074243
10.998529
10.942917
10.900364
10.863772
10.832338
10.806907
10.786433
10.769532
10.755493
10.744214
10.735724
10.7298
10.725988
10.72375
10.722632
10.722127
10.722108
10.723229
10.724933
10.726026
10.725269
10.725384
10.724927
10.728102
10.726496
10.729097
10.726439
10.728406
10.740713
37.741159
16.830988
14.304232
14.172764
14.484221
14.373317
14.154643
13.823817
13.489082
13.158988
12.869592
12.602229
12.356321
12.110662
11.886391
11.666511
11.466894
11.295613
11.162747
11.063325
10.991059
10.937953
10.896854
10.861185
10.830806
10.80649
10.786864
10.770464
10.756623
10.745292
10.736607
10.730428
10.72638
10.723978
10.722732
10.722147
10.722165
10.723289
10.72484
10.725789
10.725117
10.725441
10.725103
10.728231
10.726596
10.729101
10.726481
10.728386
10.740754
37.86095
16.54929
14.346117
14.234126
14.467797
14.307863
14.075331
13.733577
13.404002
13.078139
12.799534
12.53936
12.306142
12.068618
11.853311
11.637882
11.442802
11.275837
11.147524
11.051958
10.982881
10.932201
10.892698
10.858123
10.828804
10.805588
10.786889
10.771106
10.757572
10.74627
10.737447
10.731055
10.726789
10.724218
10.722844
10.722179
10.722227
10.723355
10.724755
10.725555
10.724969
10.725493
10.725282
10.728368
10.726701
10.729106
10.726523
10.728368
10.740789
37.833302
16.357804
14.38997
14.27557
14.451931
14.249162
14.003265
13.649841
13.325007
13.001682
12.732822
12.47797
12.25606
12.025809
11.819092
11.608143
11.418059
11.255903
11.132272
11.040402
10.974191
10.925717
10.887884
10.854648
10.826469
10.804288
10.786523
10.771448
10.758326
10.747139
10.738231
10.731667
10.727209
10.724473
10.722967
10.722218
10.722291
10.723427
10.724677
10.725318
10.724816
10.725551
10.725468
10.728512
10.726813
10.729113
10.726565
10.728352
10.740818
37.678167
16.217167
14.447943
14.306726
14.452935
14.198587
13.936905
13.571687
13.251471
12.929506
12.669496
12.418939
12.206647
11.983099
11.78458
11.578187
11.393334
11.236231
11.117261
11.028934
10.965286
10.91871
10.882472
10.850791
10.823911
10.802706
10.785818
10.771497
10.758881
10.747894
10.738953
10.732255
10.727635
10.724745
10.723103
10.722259
10.722357
10.723508
10.724604
10.725075
10.724659
10.725615
10.725663
10.728663
10.726936
10.729123
10.726607
10.728341
10.740839
37.40954
16.105015
14.516835
14.340642
14.449328
14.157657
13.874025
13.498017
13.1825
12.861225
12.609327
12.362324
12.158006
11.94104
11.750326
11.548641
11.369057
11.217064
11.102618
11.017697
10.956389
10.911423
10.87659
10.846557
10.821167
10.800941
10.784843
10.771272
10.75923
10.748532
10.739616
10.732815
10.728058
10.725034
10.723252
10.722305
10.722425
10.723597
10.724533
10.724824
10.724504
10.72569
10.725867
10.728819
10.727058
10.729136
10.726644
10.728335
10.740852
37.040309
16.010905
14.591877
14.3698
14.444984
14.109539
13.813912
13.428552
13.11775
12.796923
12.552354
12.308532
12.110505
11.900315
11.71691
11.52011
11.345625
11.198651
11.088488
11.006817
10.947677
10.904108
10.870449
10.842011
10.818244
10.799063
10.783682
10.770805
10.759376
10.749047
10.740219
10.733347
10.728472
10.725332
10.723417
10.722357
10.722495
10.72369
10.724463
10.724568
10.724339
10.725775
10.726085
10.728982
10.727183
10.72915
10.726676
10.728336
10.740857
36.585862
15.929993
14.669248
14.398201
14.439237
14.062834
13.755893
13.362698
13.056384
12.736216
12.498139
12.257466
12.064424
11.861205
11.684506
11.492814
11.323126
11.181027
11.074878
10.996289
10.939186
10.896892
10.864236
10.837245
10.815122
10.797094
10.782408
10.770142
10.759328
10.749437
10.740766
10.733857
10.72888
10.725636
10.723595
10.72242
10.722569
10.723787
10.724385
10.724303
10.724164
10.725863
10.726314
10.72916
10.727312
10.729168
10.726703
10.728345
10.740855
36.050113
15.857774
14.746559
14.427656
14.429747
14.014419
13.698778
13.2996
12.997267
12.678401
12.445882
12.208654
12.019852
11.823563
11.652917
11.466632
11.301388
11.164043
11.06166
10.986011
10.930845
10.88978
10.858052
10.832355
10.811793
10.795006
10.78106
10.769331
10.7591
10.749698
10.741255
10.734348
10.729286
10.725942
10.723784
10.722495
10.72265
10.723887
10.724311
10.724025
10.723974
10.725951
10.726558
10.729365
10.72745
10.729194
10.726722
10.728362
10.740852
35.440499
15.792955
14.81885
14.45769
14.412161
13.964409
13.642067
13.239102
12.939814
12.62333
12.395225
12.162062
11.976593
11.787339
11.622081
11.441561
11.280367
11.147661
11.048801
10.97595
10.922633
10.882787
10.851988
10.827469
10.808308
10.792778
10.779656
10.768428
10.758711
10.749823
10.741676
10.734819
10.72969
10.726251
10.723978
10.722581
10.722739
10.723993
10.724238
10.723734
10.723768
10.726038
10.72682
10.729593
10.727595
10.729225
10.72673
10.728388
10.740844
34.766654
15.735795
14.883816
14.488227
14.387771
13.914028
13.585616
13.181487
12.883843
12.57121
12.346129
12.117891
11.934776
11.752622
11.592049
11.417664
11.260108
11.131914
11.036332
10.966128
10.914577
10.875952
10.846121
10.822707
10.804765
10.790418
10.778192
10.767481
10.758196
10.749811
10.742015
10.735261
10.730089
10.726559
10.724174
10.722675
10.722842
10.724113
10.724169
10.723429
10.723548
10.726139
10.727093
10.729824
10.727739
10.729265
10.726725
10.728425
10.740832
34.046335
15.688417
14.944671
14.51075
14.358925
13.863309
13.528829
13.126571
12.828736
12.521786
12.298152
12.075918
11.894145
11.719144
11.562611
11.394778
11.240499
11.116707
11.024202
10.956507
10.906659
10.869273
10.840466
10.818119
10.801243
10.787946
10.776644
10.766513
10.757596
10.749665
10.742261
10.735665
10.73048
10.726868
10.724372
10.722775
10.722958
10.724241
10.724088
10.72311
10.723319
10.726263
10.727379
10.73007
10.727864
10.72932
10.726703
10.728472
10.740816
33.275275
15.650653
14.999779
14.527406
14.32662
13.812352
13.47088
13.073754
12.773529
12.474428
12.250543
12.035588
11.854179
11.68638
11.533365
11.372554
11.221292
11.101838
11.01228
10.947
10.898828
10.862715
10.834992
10.813697
10.797776
10.785394
10.774985
10.765515
10.756946
10.7494
10.742402
10.736021
10.730859
10.727176
10.724579
10.722882
10.723086
10.72438
10.724
10.722776
10.723086
10.726412
10.727686
10.730342
10.727974
10.729396
10.726669
10.728522
10.740796
32.463336
15.620723
15.047564
14.540007
14.288529
13.761812
13.411594
13.023002
12.71794
12.429042
12.203133
11.996793
11.814834
11.654207
11.504275
11.350899
11.202468
11.087274
11.000573
10.93763
10.891118
10.856312
10.829724
10.80946
10.794406
10.782817
10.773222
10.764466
10.756277
10.749041
10.742433
10.736317
10.731217
10.727485
10.724798
10.722997
10.723224
10.724535
10.723902
10.722422
10.722856
10.726582
10.728016
10.730644
10.728064
10.729491
10.726626
10.728578
10.740774
31.626061
15.598565
15.085801
14.547754
14.244394
13.711936
13.350907
12.974306
12.661915
12.385582
12.155942
11.959474
11.776179
11.622824
11.47543
11.329755
11.18406
11.073018
10.989115
10.928441
10.883585
10.850108
10.824686
10.805429
10.791164
10.78027
10.771386
10.763344
10.7556
10.748623
10.742354
10.736538
10.731546
10.727794
10.725028
10.72312
10.723369
10.724705
10.723788
10.72204
10.722637
10.726776
10.728368
10.730977
10.728134
10.729594
10.726581
10.728638
10.740749
30.773045
15.586137
15.112551
14.550516
14.193892
13.662814
13.288628
12.92724
12.605095
12.343649
12.108758
11.923283
11.738066
11.592361
11.446772
11.308932
11.166005
11.058993
10.977878
10.919427
10.876238
10.84411
10.81987
10.801597
10.788052
10.777776
10.769507
10.762131
10.754905
10.748178
10.742178
10.736674
10.731837
10.728099
10.725267
10.72325
10.723528
10.72489
10.72365
10.721625
10.722433
10.727006
10.728735
10.731325
10.728203
10.729695
10.726534
10.728703
10.740721
29.898688
15.585626
15.125719
14.548107
14.136972
13.614252
13.224857
12.8812
12.547051
12.302692
12.061343
11.887766
11.70034
11.562421
11.418198
11.288194
11.148201
11.045104
10.966812
10.910563
10.86907
10.838311
10.815255
10.797946
10.785069
10.775341
10.76761
10.760826
10.754168
10.747726
10.741932
10.73672
10.732082
10.728394
10.72551
10.723385
10.723714
10.72509
10.723473
10.721177
10.722253
10.727283
10.729133
10.73166
10.728301
10.729784
10.726484
10.72877
10.740692
29.012604
15.595618
15.123057
14.540532
14.075475
13.567077
13.161596
12.836008
12.487944
12.262468
12.013936
11.852728
11.663179
11.532909
11.390086
11.267477
11.130693
11.031369
10.955955
10.901888
10.862113
10.832734
10.810845
10.794473
10.782226
10.772981
10.765719
10.75945
10.753362
10.747267
10.741648
10.736678
10.732271
10.728672
10.725748
10.723523
10.723938
10.725301
10.723229
10.720702
10.722131
10.727593
10.729594
10.73198
10.728405
10.729869
10.726434
10.728837
10.740663
28.125895
15.617714
15.104263
14.527524
14.016003
13.525146
13.09487
12.791508
12.428446
12.222802
11.967065
11.818084
11.626907
11.503829
11.3628
11.246754
11.113586
11.017854
10.945375
10.893464
10.855413
10.82741
10.806654
10.791179
10.779535
10.770712
10.763854
10.758035
10.75247
10.746791
10.741358
10.736564
10.732395
10.728923
10.725964
10.723667
10.724213
10.725508
10.722887
10.720221
10.72206
10.727977
10.730083
10.732294
10.728512
10.729948
10.726388
10.728902
10.740633
27.248119
15.650619