/*--------------------------------*- C++ -*----------------------------------*\
| =========                 |                                                 |
| \\      /  F ield         | OpenFOAM: The Open Source CFD Toolbox           |
|  \\    /   O peration     | Version:  2506                                  |
|   \\  /    A nd           | Website:  www.openfoam.com                      |
|    \\/     M anipulation  |                                                 |
\*---------------------------------------------------------------------------*/
FoamFile
{
    version     2.0;
    format      ascii;
    arch        "LSB;label=32;scalar=64";
    class       volScalarField;
    location    "0.022";
    object      T;
}
// * * * * * * * * * * * * * * * * * * * * * * * * * * * * * * * * * * * * * //

dimensions      [0 0 0 1 0 0 0];

internalField   nonuniform List<scalar> 
192657
(
245.48775
245.67807
245.54947
245.68351
245.58167
245.66498
245.55306
245.43484
245.14987
244.86598
244.74483
245.02958
245.63129
246.01282
245.64072
245.19521
245.29222
245.36243
245.13318
245.12751
245.1334
245.00121
244.97914
244.92099
244.83961
244.78732
244.70369
244.62609
244.54161
244.44667
244.35038
244.24416
244.13338
244.01461
243.89101
243.75958
243.61887
243.47166
243.31727
243.15475
242.98382
242.80352
242.61321
242.41263
242.20143
241.97977
241.7476
241.50503
241.25236
240.98993
240.71841
240.43835
240.15098
239.85734
239.55885
239.25705
238.95356
238.65025
238.34892
238.05145
237.7596
237.47509
237.19939
236.93409
236.68007
236.4384
236.20972
235.9945
235.79304
235.60546
235.43159
235.2713
235.12417
234.98958
234.86697
234.75571
234.65505
234.56411
234.48201
234.4079
234.34075
234.28001
234.22464
234.1738
234.12697
234.0834
234.04239
234.00329
233.96574
233.92938
233.89382
233.85872
233.82389
233.78919
233.75443
233.71946
233.68415
233.6484
233.61328
233.58653
233.60977
233.91892
235.13435
236.67908
237.73181
238.40967
238.85565
239.14929
239.33828
239.45342
239.51573
239.54006
239.53712
239.51477
239.47882
239.43363
239.38246
239.32776
239.27137
239.21467
239.15868
239.10415
239.05162
239.00147
238.95395
238.90922
238.8674
238.82852
238.79261
238.75967
238.7297
238.7027
238.67868
238.65769
238.63978
238.62506
238.61364
238.60573
238.60149
238.60115
238.60481
238.61246
238.62365
238.63723
238.65089
238.66177
238.66825
238.67092
238.67144
245.48799
245.67747
245.54985
245.68326
245.58197
245.6652
245.55421
245.4369
245.15296
244.86843
244.74447
245.02441
245.62561
246.01185
245.646
245.19655
245.29025
245.36314
245.1343
245.12678
245.13393
245.00164
244.97902
244.92144
244.83987
244.78763
244.70418
244.62662
244.54236
244.44756
244.35145
244.24543
244.13485
244.0163
243.89293
243.76177
243.62131
243.47436
243.32025
243.15801
242.98748
242.80748
242.61748
242.4172
242.20626
241.98482
241.75282
241.51035
241.25768
240.99514
240.72338
240.4429
240.15494
239.8605
239.56099
239.25793
238.95292
238.64785
238.3445
238.04479
237.75047
237.46329
237.18474
236.91647
236.65937
236.41455
236.1827
235.9643
235.75969
235.56902
235.39215
235.22896
235.07906
234.94185
234.81678
234.70324
234.60048
234.50763
234.42383
234.34826
234.27989
234.21812
234.16194
234.11052
234.06339
234.01981
233.97909
233.94061
233.90402
233.86901
233.83522
233.80237
233.77032
233.73906
233.70855
233.67892
233.65053
233.62412
233.60242
233.59693
233.66026
234.03925
235.3052
236.89965
237.98514
238.69598
239.17958
239.5152
239.74962
239.91274
240.0247
240.09953
240.14718
240.17486
240.18785
240.19008
240.18447
240.17325
240.15812
240.14036
240.12099
240.10075
240.08023
240.05987
240.04002
240.02091
240.00273
239.98561
239.96965
239.95492
239.94145
239.92927
239.91841
239.90885
239.90062
239.8937
239.88807
239.88372
239.8806
239.87864
239.87773
239.87767
239.87818
239.87884
239.8792
239.879
239.87853
239.87818
239.87809
245.48823
245.67686
245.55025
245.68301
245.58227
245.66539
245.55529
245.43883
245.15588
244.87077
244.7442
245.0196
245.62028
246.01088
245.65089
245.19786
245.2884
245.36375
245.13534
245.12609
245.13439
245.00204
244.97889
244.92184
244.84009
244.7879
244.70462
244.62711
244.54305
244.4484
244.35247
244.24664
244.13626
244.01793
243.89478
243.76388
243.62368
243.47699
243.32315
243.16126
242.99105
242.81137
242.62169
242.42171
242.21104
241.98986
241.75805
241.51571
241.26309
241.00048
240.72854
240.44772
240.15924
239.86409
239.56365
239.25942
238.95301
238.64627
238.34102
238.03916
237.74247
237.45272
237.17142
236.90024
236.64013
236.39222
236.15722
235.93566
235.72791
235.53415
235.35426
235.18814
235.03544
234.89556
234.76798
234.6521
234.5472
234.45241
234.3669
234.28982
234.22029
234.15754
234.10071
234.04903
234.00191
233.95866
233.91863
233.88122
233.84612
233.813
233.78153
233.75142
233.72252
233.69476
233.66802
233.64221
233.61739
233.59376
233.57323
233.56632
233.62459
233.98563
235.20199
236.79727
237.89117
238.60131
239.0775
239.40091
239.61967
239.76485
239.85751
239.91239
239.94004
239.94805
239.94198
239.92593
239.90293
239.87526
239.84463
239.81231
239.77927
239.74622
239.7137
239.68207
239.65163
239.62257
239.59501
239.56905
239.54472
239.52205
239.50106
239.48173
239.46406
239.44805
239.43369
239.42097
239.4099
239.4005
239.39277
239.38674
239.38238
239.37967
239.37846
239.37848
239.3792
239.38002
239.38053
239.38071
239.3807
245.48847
245.67622
245.55066
245.68275
245.58258
245.6656
245.55642
245.44085
245.15894
244.87324
244.74397
245.01459
245.61469
246.00977
245.65602
245.1993
245.28645
245.36435
245.13647
245.12537
245.13487
245.00248
244.97877
244.92226
244.84034
244.78819
244.70509
244.62762
244.54377
244.44927
244.35352
244.24789
244.13772
244.01963
243.89671
243.76607
243.62613
243.47971
243.32614
243.16463
242.99473
242.81538
242.62602
242.42636
242.21599
241.99506
241.76346
241.52127
241.26872
241.00606
240.73395
240.4528
240.16383
239.86798
239.56663
239.26125
238.95343
238.64504
238.33789
238.03388
237.7348
237.44247
237.15839
236.88428
236.62112
236.37007
236.13188
235.90711
235.69616
235.49924
235.31626
235.14716
234.99159
234.84899
234.71885
234.6006
234.49353
234.3968
234.30959
234.23109
234.16042
234.09681
234.03943
233.98755
233.94055
233.89778
233.85861
233.82249
233.78902
233.75786
233.72869
233.7012
233.67521
233.65061
233.62723
233.605
233.58396
233.56441
233.54847
233.5471
233.61219
233.9698
235.13957
236.74603
237.88212
238.62661
239.13095
239.47872
239.71926
239.88428
239.9952
240.0669
240.11002
240.13221
240.13906
240.13469
240.12218
240.10388
240.08156
240.05657
240.02995
240.0025
239.97481
239.94735
239.92046
239.89438
239.8693
239.84535
239.82262
239.80117
239.78102
239.76218
239.74467
239.72849
239.71362
239.70005
239.68777
239.67678
239.66707
239.65863
239.65145
239.64549
239.64072
239.63707
239.63446
239.63275
239.63178
239.63133
239.6312
245.48872
245.67556
245.55108
245.68248
245.5829
245.6658
245.55757
245.44292
245.16208
244.87581
244.74377
245.00945
245.60892
246.00853
245.66128
245.20086
245.28444
245.36494
245.13764
245.12464
245.13535
245.00294
244.97864
244.92269
244.8406
244.78848
244.70558
244.62815
244.54452
244.45017
244.35461
244.24918
244.13922
244.02136
243.89867
243.7683
243.62863
243.48248
243.32922
243.16806
242.99848
242.81948
242.63046
242.43112
242.22106
242.0004
241.76903
241.52699
241.27453
241.01185
240.73959
240.45815
240.16871
239.87219
239.56995
239.26345
238.95427
238.64425
238.33522
238.02908
237.72763
237.43272
237.14586
236.86882
236.6026
236.34838
236.10697
235.87895
235.66476
235.46464
235.27852
235.10637
234.94787
234.80249
234.66973
234.54905
234.43976
234.34105
234.25211
234.17214
234.10031
234.03583
233.9779
233.92582
233.87893
233.83662
233.79825
233.76324
233.73119
233.70174
233.67454
233.64925
233.62563
233.60354
233.58278
233.5632
233.54477
233.52773
233.51409
233.51451
233.57946
233.91969
235.01893
236.61444
237.78893
238.55986
239.07987
239.43631
239.68112
239.84758
239.95808
240.02816
240.06897
240.08849
240.09248
240.08518
240.06977
240.0486
240.02349
239.9958
239.96657
239.93658
239.90644
239.87658
239.84735
239.81898
239.79165
239.76548
239.74056
239.71694
239.69464
239.67368
239.65406
239.63577
239.61881
239.60317
239.58884
239.57582
239.56412
239.55377
239.54477
239.53716
239.53096
239.5262
239.52287
239.52084
239.51978
239.51933
239.5192
245.48898
245.67489
245.55152
245.6822
245.58323
245.66601
245.55875
245.44505
245.16533
244.87848
244.74362
245.00419
245.60297
246.00716
245.66669
245.20254
245.28236
245.36551
245.13888
245.12389
245.13582
245.00343
244.9785
244.92314
244.84088
244.78879
244.70608
244.6287
244.54529
244.4511
244.35572
244.25051
244.14076
244.02313
243.90069
243.77059
243.63119
243.48531
243.33238
243.17157
243.00233
242.82367
242.635
242.436
242.22625
242.00588
241.77475
241.53289
241.28053
241.01785
240.74547
240.46376
240.17387
239.87672
239.57362
239.26602
238.9555
238.64387
238.33298
238.02473
237.72092
237.42343
237.13379
236.8538
236.5845
236.32709
236.08242
235.85111
235.63364
235.43025
235.24093
235.06568
234.90419
234.75595
234.6205
234.49732
234.38575
234.28498
234.19423
234.11274
234.03966
233.97422
233.91565
233.86323
233.81631
233.77426
233.73645
233.70227
233.67128
233.64311
233.61738
233.59369
233.57178
233.55148
233.53253
233.51479
233.49819
233.48294
233.47097
233.47243
233.53502
233.85242
234.87759
236.45729
237.67906
238.48649
239.03229
239.40749
239.66641
239.84382
239.96306
240.04021
240.08689
240.11136
240.11953
240.11576
240.10331
240.08463
240.06157
240.03554
240.00762
239.97865
239.94924
239.91985
239.89086
239.86253
239.83505
239.80857
239.78318
239.75896
239.73593
239.71412
239.69354
239.67419
239.65606
239.63915
239.62345
239.60895
239.59568
239.58365
239.57288
239.56344
239.55542
239.54893
239.54416
239.54112
239.53952
239.53884
239.53866
245.48924
245.67419
245.55197
245.68192
245.58356
245.66622
245.55997
245.44723
245.16868
244.88126
244.74351
244.99879
245.59683
246.00565
245.67225
245.20436
245.28022
245.36606
245.14018
245.12313
245.1363
245.00395
244.97837
244.9236
244.84118
244.78911
244.70661
244.62927
244.54609
244.45206
244.35687
244.25187
244.14233
244.02495
243.90275
243.77294
243.63381
243.48821
243.33563
243.17516
243.00626
242.82795
242.63964
242.44099
242.23157
242.0115
241.78062
241.53896
241.28673
241.02406
240.75159
240.46962
240.17931
239.88155
239.57762
239.26896
238.95712
238.64391
238.33117
238.02082
237.71467
237.41461
237.12218
236.83924
236.56683
236.30621
236.05825
235.82361
235.6028
235.3961
235.20352
235.02509
234.86053
234.70937
234.57116
234.44539
234.33144
234.22851
234.13586
234.05271
233.97825
233.91171
233.85231
233.79933
233.75213
233.71006
233.67245
233.63869
233.60832
233.5809
233.55605
233.53333
233.51245
233.4932
233.47531
233.4586
233.44298
233.42862
233.41721
233.41807
233.47472
233.7621
234.7059
236.2612
237.53238
238.37756
238.94812
239.33984
239.60994
239.79502
239.91958
240.00056
240.0499
240.07616
240.08553
240.08258
240.07066
240.05226
240.02928
240.00313
239.97499
239.94567
239.91578
239.88582
239.85613
239.82701
239.79866
239.77123
239.74483
239.71953
239.69538
239.6724
239.65061
239.63
239.61059
239.59235
239.5753
239.55943
239.54476
239.53132
239.51917
239.50839
239.4991
239.49152
239.48591
239.48235
239.48049
239.47972
239.47952
245.4895
245.67347
245.55243
245.68163
245.58391
245.66643
245.56121
245.44946
245.17214
244.88416
244.74346
244.99327
245.5905
246.00398
245.67796
245.20631
245.27801
245.36658
245.14155
245.12236
245.13677
245.00451
244.97824
244.92408
244.84149
244.78944
244.70716
244.62985
244.5469
244.45305
244.35805
244.25326
244.14395
244.02682
243.90487
243.77534
243.63649
243.49116
243.33895
243.17882
243.01027
242.83233
242.64438
242.44609
242.23701
242.01725
241.78665
241.5452
241.29311
241.03048
240.75793
240.47574
240.18504
239.88669
239.58196
239.27225
238.95912
238.64435
238.3298
238.01737
237.70888
237.40625
237.11103
236.82512
236.54959
236.28573
236.03445
235.79644
235.57224
235.36217
235.16627
234.9846
234.8169
234.66272
234.52165
234.39321
234.27677
234.17157
234.07687
233.99191
233.91589
233.84804
233.78757
233.73377
233.68597
233.64351
233.6057
233.57191
233.54163
233.51443
233.48987
233.4675
233.447
233.42814
233.41065
233.39431
233.37902
233.36491
233.35346
233.35294
233.40212
233.65676
234.51544
236.03637
237.36042
238.24853
238.8479
239.25944
239.54357
239.73882
239.87091
239.95759
240.01132
240.04103
240.05317
240.05245
240.04234
240.02543
240.00365
239.97848
239.95103
239.92216
239.89253
239.86263
239.83285
239.80348
239.77475
239.74683
239.71985
239.69388
239.66898
239.64518
239.62248
239.60092
239.58048
239.56117
239.54299
239.52595
239.51007
239.49539
239.48197
239.46992
239.4594
239.4507
239.44418
239.44002
239.43784
239.43695
239.43672
245.48977
245.67272
245.5529
245.68133
245.58427
245.66665
245.56248
245.45175
245.17571
244.88718
244.74346
244.98761
245.58396
246.00215
245.68382
245.20842
245.27572
245.36708
245.14299
245.12157
245.13724
245.0051
244.9781
244.92457
244.84182
244.78978
244.70773
244.63046
244.54775
244.45406
244.35926
244.25469
244.14561
244.02873
243.90703
243.7778
243.63923
243.49419
243.34236
243.18256
243.01437
242.83681
242.64923
242.45131
242.24258
242.02314
241.79283
241.55161
241.29968
241.0371
240.7645
240.48211
240.19104
239.89213
239.58662
239.27591
238.96151
238.6452
238.32885
238.01435
237.70354
237.39834
237.10034
236.81145
236.53278
236.26565
236.01102
235.7696
235.54196
235.32846
235.12918
234.94419
234.77327
234.616
234.47197
234.34074
234.22168
234.11407
234.01716
233.93021
233.85242
233.78301
233.7212
233.66626
233.61751
233.57427
233.53583
233.50154
233.47086
233.44334
233.41852
233.39593
233.37524
233.35619
233.3385
233.32196
233.30645
233.29204
233.27999
233.27742
233.31811
233.53879
234.30964
235.78318
237.16032
238.0951
238.72549
239.15794
239.45654
239.66201
239.80143
239.89345
239.95114
239.98385
239.99829
239.99937
239.99068
239.97489
239.954
239.92949
239.90253
239.87398
239.84451
239.81464
239.78475
239.75517
239.72611
239.69775
239.67023
239.64362
239.618
239.59341
239.56987
239.54741
239.52603
239.50573
239.48653
239.46844
239.45149
239.43573
239.42123
239.4081
239.39657
239.38696
239.37971
239.37507
239.37265
239.37167
239.37142
245.49004
245.67196
245.55338
245.68102
245.58463
245.66686
245.56378
245.4541
245.17939
244.89033
244.74352
244.98183
245.5772
246.00015
245.68983
245.21068
245.27337
245.36754
245.1445
245.12076
245.1377
245.00572
244.97796
244.92508
244.84217
244.79013
244.70832
244.63109
244.54862
244.4551
244.3605
244.25617
244.14731
244.03069
243.90925
243.78031
243.64204
243.49728
243.34584
243.18639
243.01856
242.84138
242.65419
242.45665
242.24828
242.02918
241.79916
241.55819
241.30643
241.04393
240.7713
240.48873
240.19732
239.89787
239.59162
239.27991
238.96428
238.64646
238.32833
238.01178
237.69864
237.39089
237.0901
236.79822
236.5164
236.24598
235.98796
235.74308
235.51195
235.29498
235.09224
234.90386
234.72964
234.56918
234.42209
234.28795
234.16615
234.05596
233.95667
233.86753
233.78774
233.71651
233.65306
233.59665
233.54657
233.50215
233.46266
233.4274
233.39585
233.36751
233.34192
233.31861
233.29721
233.27748
233.25912
233.24192
233.22574
233.21062
233.19758
233.19263
233.22457
233.41184
234.09425
235.50639
236.93478
237.92098
238.58565
239.04123
239.35591
239.57278
239.72046
239.81854
239.88078
239.91695
239.93409
239.93731
239.93035
239.91598
239.89623
239.87267
239.84645
239.81847
239.78941
239.7598
239.73003
239.70044
239.67124
239.64264
239.61476
239.58771
239.56157
239.53638
239.51218
239.489
239.46685
239.44574
239.42569
239.40672
239.38885
239.37215
239.3567
239.34262
239.33017
239.31972
239.3118
239.30669
239.30403
239.30296
239.30269
245.49032
245.67117
245.55388
245.6807
245.585
245.66708
245.56512
245.45651
245.18319
244.89361
244.74364
244.97592
245.57022
245.99796
245.69599
245.21311
245.27094
245.36798
245.14609
245.11994
245.13816
245.00638
244.97783
244.9256
244.84254
244.7905
244.70894
244.63174
244.54951
244.45618
244.36178
244.25768
244.14905
244.0327
243.91152
243.78289
243.64491
243.50044
243.3494
243.1903
243.02285
242.84606
242.65925
242.4621
242.2541
242.03535
241.80565
241.56494
241.31337
241.05097
240.77832
240.4956
240.20387
239.90392
239.59694
239.28427
238.96742
238.64812
238.32822
238.00964
237.6942
237.38389
237.08031
236.78543
236.50044
236.22671
235.96526
235.71689
235.48223
235.26171
235.05545
234.86361
234.68601
234.52226
234.372
234.23482
234.11013
233.99722
233.89535
233.8038
233.72177
233.64845
233.58306
233.52485
233.47309
233.4271
233.38613
233.34949
233.31661
233.28701
233.2602
233.23572
233.21319
233.19234
233.17291
233.15465
233.13744
233.12127
233.10695
233.0994
233.12276
233.27813
233.87323
235.2094
236.68362
237.72584
238.42786
238.90843
239.24037
239.46944
239.62586
239.7303
239.79723
239.83693
239.85678
239.86213
239.85688
239.8439
239.82531
239.8027
239.77727
239.74992
239.72135
239.69209
239.66255
239.63305
239.60384
239.57511
239.547
239.51963
239.49308
239.4674
239.44265
239.41886
239.39604
239.37423
239.35343
239.33367
239.31499
239.29747
239.28118
239.26628
239.25304
239.24188
239.23338
239.22788
239.225
239.22384
239.22356
245.4906
245.67035
245.55439
245.68038
245.58539
245.66729
245.56648
245.45898
245.1871
244.89702
244.74384
244.96989
245.56299
245.99558
245.70231
245.21572
245.26844
245.36838
245.14776
245.1191
245.13861
245.00708
244.97769
244.92614
244.84293
244.79088
244.70958
244.63242
244.55043
244.45729
244.3631
244.25923
244.15084
244.03476
243.91385
243.78552
243.64785
243.50368
243.35302
243.1943
243.02722
242.85083
242.66443
242.46767
242.26006
242.04167
241.81229
241.57186
241.3205
241.05821
240.78557
240.50272
240.2107
239.91026
239.60258
239.28898
238.97094
238.65017
238.32854
238.00794
237.69021
237.37735
237.07097
236.77309
236.48491
236.20783
235.94293
235.69102
235.45277
235.22866
235.01882
234.82344
234.64236
234.47523
234.32169
234.18135
234.05363
233.93781
233.83319
233.73902
233.6545
233.57882
233.5112
233.45085
233.39706
233.34913
233.30631
233.26788
233.23328
233.20202
233.17361
233.14756
233.12351
233.1012
233.08034
233.06071
233.04216
233.02467
233.00884
232.99863
233.01388
233.13966
233.6504
234.89677
236.40767
237.51081
238.25357
238.76128
239.11196
239.35426
239.52016
239.63149
239.70349
239.74697
239.76971
239.77731
239.77386
239.76236
239.74501
239.72345
239.6989
239.6723
239.64435
239.61558
239.58641
239.55717
239.5281
239.4994
239.47123
239.44369
239.41688
239.39087
239.3657
239.34143
239.31807
239.29567
239.27423
239.2538
239.23441
239.21616
239.19913
239.18349
239.16954
239.15772
239.14868
239.1428
239.13972
239.13849
239.13818
245.49089
245.66951
245.55492
245.68004
245.58578
245.66751
245.56788
245.4615
245.19113
244.90058
244.74411
244.96374
245.5555
245.99301
245.70877
245.21851
245.26587
245.36874
245.14951
245.11825
245.13905
245.00782
244.97755
244.9267
244.84334
244.79127
244.71024
244.63312
244.55138
244.45843
244.36445
244.26082
244.15267
244.03687
243.91623
243.78822
243.65085
243.507
243.35672
243.19839
243.03169
242.8557
242.66971
242.47336
242.26615
242.04813
241.81909
241.57895
241.32782
241.06567
240.79305
240.51009
240.2178
239.9169
239.60855
239.29403
238.97483
238.65262
238.32927
238.00667
237.68666
237.37125
237.06208
236.76118
236.4698
236.18936
235.92097
235.66548
235.4236
235.19583
234.98234
234.78334
234.59871
234.42809
234.27116
234.12753
233.99663
233.87776
233.77019
233.67319
233.58594
233.50765
233.43751
233.37473
233.31859
233.26838
233.22336
233.18279
233.14612
233.11283
233.08246
233.05453
233.02864
233.00455
232.98198
232.96069
232.94056
232.92151
232.90399
232.89111
232.89888
232.99783
233.42873
234.57319
236.10736
237.27611
238.06308
238.60009
238.97095
239.22749
239.40359
239.52229
239.59967
239.64713
239.67285
239.68276
239.68113
239.67112
239.65501
239.63451
239.61088
239.58508
239.55781
239.52963
239.50095
239.47208
239.44329
239.41477
239.38667
239.35912
239.3322
239.30599
239.28054
239.25592
239.23215
239.20927
239.18731
239.1663
239.14632
239.12743
239.10974
239.09345
239.07885
239.06643
239.05688
239.05066
239.04739
239.04607
239.04576
245.49118
245.66865
245.55546
245.6797
245.58619
245.66773
245.56931
245.46409
245.19529
244.90428
244.74446
244.95748
245.54772
245.99024
245.71538
245.2215
245.26322
245.36905
245.15136
245.11738
245.13948
245.00861
244.97741
244.92728
244.84377
244.79168
244.71093
244.63384
244.55236
244.4596
244.36583
244.26246
244.15455
244.03904
243.91867
243.79098
243.65393
243.51039
243.36049
243.20257
243.03625
242.86068
242.67511
242.47918
242.27236
242.05473
241.82605
241.58621
241.33532
241.07332
240.80076
240.51771
240.22517
239.92383
239.61484
239.29943
238.97909
238.65547
238.33041
238.00583
237.68355
237.36561
237.05364
236.74972
236.45511
236.17128
235.89937
235.64026
235.3947
235.16321
234.94601
234.74332
234.55504
234.38084
234.22041
234.07337
233.93916
233.81706
233.70637
233.60634
233.51616
233.43501
233.36209
233.2966
233.23782
233.18504
233.1375
233.09449
233.05542
233.01981
232.98718
232.95706
232.92905
232.90292
232.87838
232.85521
232.83327
232.81246
232.79311
232.77759
232.77859
232.8537
233.21064
234.24379
235.78371
237.02214
237.85698
238.42561
238.81823
239.09013
239.27722
239.40386
239.487
239.53869
239.56756
239.57985
239.58008
239.57156
239.55669
239.53725
239.51456
239.48959
239.46307
239.43554
239.40744
239.37907
239.35069
239.32248
239.29461
239.26719
239.24031
239.21406
239.18849
239.16366
239.13962
239.1164
239.09404
239.07258
239.0521
239.03268
239.01445
238.99758
238.98241
238.96946
238.95946
238.95291
238.94946
238.94807
238.94774
245.49148
245.66776
245.55601
245.67935
245.5866
245.66795
245.57078
245.46673
245.19957
244.90814
244.7449
244.95111
245.53961
245.98729
245.72211
245.2247
245.2605
245.36932
245.15329
245.11651
245.1399
245.00944
244.97728
244.92787
244.84423
244.79211
244.71164
244.63459
244.55337
244.46081
244.36726
244.26414
244.15648
244.04125
243.92118
243.79381
243.65708
243.51386
243.36432
243.20685
243.04092
242.86577
242.68062
242.48512
242.27872
242.06148
241.83317
241.59364
241.34301
241.08119
240.80869
240.52557
240.23281
239.93106
239.62145
239.30518
238.98373
238.65871
238.33197
238.00542
237.68088
237.36041
237.04564
236.73869
236.44085
236.1536
235.87814
235.61537
235.36608
235.13082
234.90983
234.70337
234.51137
234.33349
234.16946
234.01888
233.88122
233.75576
233.64178
233.53854
233.44522
233.36101
233.28508
233.21664
233.15496
233.09934
233.04903
233.0033
232.96157
232.92337
232.88823
232.85567
232.8253
232.7969
232.77018
232.74491
232.72097
232.69824
232.67692
232.6588
232.65375
232.70807
232.99787
233.91373
235.43832
236.74909
237.6356
238.23828
238.65429
238.94271
239.14164
239.27681
239.36614
239.42234
239.45451
239.46926
239.47137
239.46431
239.45065
239.43223
239.41045
239.38629
239.36052
239.3337
239.30623
239.27844
239.25056
239.2228
239.19529
239.16815
239.14147
239.11533
239.08979
239.06491
239.04074
239.01732
238.9947
238.97292
238.95207
238.93223
238.91353
238.89619
238.88053
238.8671
238.85668
238.84983
238.84621
238.84476
238.84441
245.49179
245.66684
245.55657
245.67899
245.58702
245.66817
245.57227
245.46943
245.20399
244.91217
244.74543
244.94463
245.53115
245.98416
245.72897
245.22814
245.25772
245.36954
245.15533
245.11562
245.1403
245.01032
244.97714
244.92848
244.84472
244.79255
244.71239
244.63536
244.55441
244.46205
244.36873
244.26587
244.15846
244.04353
243.92374
243.79671
243.66031
243.51741
243.36822
243.21123
243.04568
242.87096
242.68625
242.49118
242.28521
242.06838
241.84044
241.60125
241.3509
241.08926
240.81685
240.53369
240.24072
239.93859
239.62838
239.31127
238.98873
238.66234
238.33394
238.00544
237.67865
237.35565
237.03809
236.7281
236.42701
236.13632
235.85727
235.5908
235.33773
235.09864
234.8738
234.66351
234.46769
234.28605
234.11831
233.9641
233.82286
233.6939
233.57649
233.46988
233.37325
233.28578
233.20664
233.13505
233.07026
233.01158
232.95827
232.90959
232.86499
232.82397
232.7861
232.75089
232.71796
232.68709
232.65801
232.63047
232.60436
232.57955
232.55615
232.53548
232.52506
232.56154
232.79166
233.58809
235.07379
236.45715
237.39936
238.03865
238.47976
238.78593
238.9976
239.14198
239.23797
239.29899
239.33467
239.35198
239.35599
239.35039
239.33788
239.32043
239.29948
239.27609
239.25104
239.22489
239.19808
239.17091
239.14362
239.1164
239.08937
239.06264
239.03631
239.01044
238.9851
238.96034
238.9362
238.91275
238.89002
238.86806
238.84697
238.82684
238.80781
238.79009
238.77404
238.76023
238.74946
238.74234
238.73857
238.73706
238.73669
245.4921
245.66589
245.55715
245.67862
245.58745
245.66839
245.5738
245.47219
245.20854
244.91636
244.74607
244.93806
245.52232
245.98087
245.73592
245.23183
245.25487
245.36971
245.15746
245.11472
245.14069
245.01124
244.97701
244.92911
244.84523
244.793
244.71316
244.63617
244.55548
244.46334
244.37023
244.26764
244.16049
244.04586
243.92636
243.79967
243.66361
243.52105
243.3722
243.21569
243.05056
242.87627
242.69199
242.49737
242.29184
242.07542
241.84788
241.60903
241.35897
241.09755
240.82523
240.54205
240.24891
239.94641
239.63563
239.31771
238.9941
238.66636
238.33632
238.00589
237.67686
237.35134
237.03098
236.71795
236.41358
236.11944
235.83677
235.56656
235.30965
235.06668
234.83794
234.62373
234.42402
234.23854
234.06699
233.90903
233.76411
233.63153
233.51056
233.40044
233.30035
233.20948
233.12698
233.05206
232.98399
232.92208
232.86559
232.8138
232.76614
232.72213
232.68136
232.64334
232.60768
232.57418
232.54257
232.51262
232.4842
232.45718
232.4316
232.4084
232.39323
232.41462
232.59273
233.27152
234.6939
236.14646
237.14866
237.82728
238.29526
238.62045
238.84581
239.00011
239.10328
239.16949
239.20891
239.22891
239.23488
239.23072
239.2193
239.20273
239.18252
239.1598
239.13539
239.10987
239.08368
239.05713
239.03045
239.00381
238.97735
238.95116
238.9253
238.89985
238.87486
238.85038
238.82646
238.80314
238.78046
238.7585
238.73732
238.71705
238.69781
238.67984
238.66351
238.6494
238.63834
238.63101
238.62712
238.62556
238.62518
245.49241
245.66492
245.55774
245.67825
245.5879
245.66861
245.57536
245.47502
245.21322
244.92072
244.74682
244.93141
245.51311
245.9774
245.74295
245.23579
245.25195
245.36981
245.15969
245.11381
245.14105
245.01222
244.97689
244.92975
244.84576
244.79347
244.71396
244.637
244.55658
244.46465
244.37178
244.26946
244.16257
244.04825
243.92905
243.80271
243.66699
243.52477
243.37628
243.22021
243.05555
242.88169
242.69786
242.5037
242.2986
242.08262
241.85549
241.617
241.36724
241.10604
240.83385
240.55067
240.25736
239.95453
239.6432
239.32449
238.99983
238.67077
238.33911
238.00676
237.67551
237.34747
237.02432
236.70822
236.40058
236.10294
235.81663
235.54263
235.28186
235.03495
234.80222
234.58404
234.38037
234.19095
234.01551
233.85371
233.70502
233.5687
233.44406
233.33032
233.22667
233.13227
233.04629
232.96793
232.89646
232.83118
232.7714
232.71636
232.66551
232.6184
232.57459
232.53363
232.49513
232.45888
232.42462
232.39214
232.36129
232.33195
232.3041
232.27841
232.25903
232.26781
232.40148
232.96802
234.3037
235.81735
236.8841
237.60485
238.10152
238.44705
238.68711
238.85208
238.96301
239.03481
239.07825
239.10112
239.10911
239.1064
239.09603
239.08024
239.06067
239.03849
239.01459
238.98958
238.96392
238.93793
238.91183
238.88579
238.85994
238.83434
238.80907
238.78417
238.75968
238.73565
238.71211
238.6891
238.66667
238.64486
238.62377
238.60351
238.58422
238.56613
238.54961
238.53527
238.52396
238.51642
238.51239
238.51076
238.51037
245.49273
245.66392
245.55835
245.67786
245.58835
245.66883
245.57695
245.4779
245.21804
244.92527
244.74768
244.92467
245.50352
245.97375
245.75005
245.24005
245.24898
245.36984
245.16203
245.1129
245.1414
245.01325
244.97677
244.93042
244.84633
244.79397
244.71479
244.63786
244.55772
244.46601
244.37337
244.27133
244.16471
244.0507
243.93181
243.80582
243.67045
243.52858
243.38046
243.22479
243.06066
242.88722
242.70386
242.51015
242.30552
242.08998
241.86326
241.62515
241.37571
241.11475
240.8427
240.55953
240.26609
239.96294
239.65109
239.33161
239.00593
238.67557
238.3423
238.00805
237.67459
237.34404
237.01809
236.69893
236.38798
236.08684
235.79685
235.51903
235.25433
235.00343
234.76667
234.54444
234.33673
234.1433
233.9639
233.79817
233.64561
233.50548
233.37708
233.25964
233.15234
233.05433
232.96479
232.88292
232.80797
232.73927
232.67611
232.61776
232.56365
232.51335
232.46643
232.42246
232.38102
232.34195
232.30497
232.26986
232.23651
232.20477
232.17459
232.14644
232.12329
232.12165
232.21808
232.68076
233.90945
235.47051
236.60646
237.37224
237.89944
238.26666
238.52244
238.69889
238.81817
238.89603
238.94381
238.96975
238.97989
238.97867
238.96932
238.95423
238.93517
238.9134
238.88985
238.8652
238.83992
238.81436
238.78875
238.76325
238.73797
238.71298
238.68834
238.66408
238.64021
238.61677
238.59379
238.57128
238.54928
238.52785
238.50706
238.48701
238.46786
238.44982
238.4333
238.41889
238.40747
238.39981
238.3957
238.39405
238.39365
245.49305
245.66288
245.55897
245.67746
245.58882
245.66905
245.57858
245.48084
245.223
244.93
244.74867
244.91787
245.49354
245.9699
245.7572
245.24462
245.24596
245.3698
245.16448
245.11199
245.14172
245.01434
244.97666
244.9311
244.84693
244.79447
244.71565
244.63875
244.55889
244.46741
244.37501
244.27325
244.1669
244.05321
243.93463
243.809
243.674
243.53248
243.38474
243.22945
243.06589
242.89289
242.70998
242.51675
242.31258
242.09749
241.8712
241.63347
241.38437
241.12367
240.85178
240.56865
240.27509
239.97164
239.65929
239.33907
239.01239
238.68075
238.3459
238.00976
237.67409
237.34105
237.01229
236.69007
236.3758
236.07113
235.77742
235.49574
235.22707
234.97213
234.73127
234.50493
234.29312
234.09561
233.91216
233.74244
233.58593
233.44193
233.3097
233.1885
233.07748
232.97583
232.8827
232.79728
232.71883
232.64669
232.58015
232.51847
232.4611
232.4076
232.35756
232.31055
232.26616
232.22422
232.18449
232.14673
232.11083
232.07665
232.04412
232.01353
231.98701
231.97683
232.04261
232.41206
233.51833
235.10739
236.31687
237.13056
237.69015
238.08043