/*--------------------------------*- C++ -*----------------------------------*\
| =========                 |                                                 |
| \\      /  F ield         | OpenFOAM: The Open Source CFD Toolbox           |
|  \\    /   O peration     | Version:  2506                                  |
|   \\  /    A nd           | Website:  www.openfoam.com                      |
|    \\/     M anipulation  |                                                 |
\*---------------------------------------------------------------------------*/
FoamFile
{
    version     2.0;
    format      ascii;
    arch        "LSB;label=32;scalar=64";
    class       volScalarField;
    location    "0.02";
    object      alphat;
}
// * * * * * * * * * * * * * * * * * * * * * * * * * * * * * * * * * * * * * //

dimensions      [1 -1 -1 0 0 0 0];

internalField   nonuniform List<scalar> 
192657
(
2.7682777e-06
2.4405971e-06
2.4332525e-06
2.4393408e-06
2.4348432e-06
2.4382486e-06
2.4354168e-06
2.4346994e-06
2.4294652e-06
2.4213619e-06
2.4099646e-06
2.4017169e-06
2.404001e-06
2.4213873e-06
2.4416874e-06
2.4436128e-06
2.4266612e-06
2.4215712e-06
2.4261755e-06
2.4217934e-06
2.4169658e-06
2.4180075e-06
2.4151294e-06
2.4124117e-06
2.4119817e-06
2.4098806e-06
2.4080575e-06
2.4064464e-06
2.4045902e-06
2.4025101e-06
2.3988249e-06
2.3947356e-06
2.391963e-06
2.3906131e-06
2.3887727e-06
2.3853312e-06
2.3831269e-06
2.3838988e-06
2.3876687e-06
2.3952602e-06
2.401252e-06
2.3923657e-06
2.3699119e-06
2.3550576e-06
2.3576712e-06
2.3604527e-06
2.347645e-06
2.3398496e-06
2.340308e-06
2.3293289e-06
2.3161619e-06
2.3090493e-06
2.2960858e-06
2.2787828e-06
2.2605735e-06
2.243294e-06
2.2288237e-06
2.2040353e-06
2.1641608e-06
2.1310035e-06
2.1141063e-06
2.0762e-06
2.0085938e-06
1.970385e-06
1.9883337e-06
2.0125121e-06
2.0064719e-06
2.0006773e-06
2.0227799e-06
2.0618962e-06
2.0940167e-06
2.1145679e-06
2.1358385e-06
2.1637332e-06
2.1951051e-06
2.219897e-06
2.2412254e-06
2.2700698e-06
2.3039701e-06
2.3351919e-06
2.3618188e-06
2.3839402e-06
2.4064371e-06
2.4384946e-06
2.4809614e-06
2.5302031e-06
2.5872773e-06
2.6531114e-06
2.7257538e-06
2.803637e-06
2.8856824e-06
2.9708581e-06
3.0581647e-06
3.1458145e-06
3.2311573e-06
3.3115689e-06
3.3855015e-06
3.4543828e-06
3.5372163e-06
3.7702465e-06
5.1221142e-06
1.5721805e-05
9.3422355e-05
0.00031261762
0.00056069918
0.00076266599
0.00091879845
0.0010354273
0.0011189826
0.0011749355
0.0012077961
0.0012213069
0.0012186304
0.0012024827
0.0011752199
0.0011388977
0.0010953129
0.001046033
0.00099243142
0.00093570835
0.0008769042
0.00081692181
0.00075654104
0.00069643446
0.00063718592
0.00057929458
0.00052318883
0.00046923508
0.0004177347
0.00036894436
0.00032306693
0.00028024875
0.00024060837
0.00020422248
0.00017111087
0.00014125048
0.00011458395
9.1020999e-05
7.0445761e-05
5.2719388e-05
3.7682603e-05
2.5192891e-05
1.5176109e-05
7.6838774e-06
2.8960231e-06
6.8580694e-07
8.3401163e-08
4.5672263e-09
1.3882626e-09
2.8059696e-06
2.4406577e-06
2.4332459e-06
2.4393441e-06
2.4348423e-06
2.438251e-06
2.4354284e-06
2.4347269e-06
2.429527e-06
2.4214586e-06
2.4100676e-06
2.4017547e-06
2.4038938e-06
2.4211753e-06
2.4415286e-06
2.443714e-06
2.4268075e-06
2.4215428e-06
2.4261526e-06
2.4218608e-06
2.4169798e-06
2.4180115e-06
2.4151699e-06
2.4124292e-06
2.4120022e-06
2.4099104e-06
2.4080846e-06
2.4064789e-06
2.4046265e-06
2.4025599e-06
2.3988885e-06
2.3947874e-06
2.3920007e-06
2.3906512e-06
2.3888313e-06
2.3853997e-06
2.3831774e-06
2.3839384e-06
2.3877103e-06
2.3953602e-06
2.401476e-06
2.3928354e-06
2.3704086e-06
2.3554063e-06
2.3578294e-06
2.3608087e-06
2.3481679e-06
2.340236e-06
2.3406618e-06
2.3298883e-06
2.3166823e-06
2.3095086e-06
2.2966643e-06
2.2793733e-06
2.2611356e-06
2.2437795e-06
2.2292925e-06
2.204701e-06
2.1649495e-06
2.1316629e-06
2.1147617e-06
2.0774859e-06
2.0103806e-06
1.9713264e-06
1.9879302e-06
2.0117216e-06
2.0059788e-06
1.9996082e-06
2.0203463e-06
2.0586663e-06
2.0911398e-06
2.1121522e-06
2.1331498e-06
2.1603782e-06
2.1911967e-06
2.2160922e-06
2.2377253e-06
2.2663641e-06
2.3000672e-06
2.3319037e-06
2.3599396e-06
2.3839632e-06
2.4081082e-06
2.4405498e-06
2.482414e-06
2.5310123e-06
2.5875046e-06
2.6527604e-06
2.7250974e-06
2.8030978e-06
2.8856425e-06
2.9716164e-06
3.0599747e-06
3.1489619e-06
3.2359984e-06
3.3184135e-06
3.3944983e-06
3.4657919e-06
3.5537279e-06
3.8141627e-06
5.358101e-06
1.7061907e-05
9.6306009e-05
0.0003145006
0.00056385169
0.0007656788
0.00092068599
0.0010357882
0.0011177286
0.0011721112
0.0012035122
0.0012157122
0.0012119004
0.0011948104
0.0011668097
0.0011299573
0.0010860482
0.0010366429
0.00098310374
0.00092661625
0.00086820313
0.00080874711
0.000749006
0.0006896297
0.0006311782
0.00057412774
0.00051888345
0.00046579043
0.00041512918
0.000367138
0.00032200232
0.00027985401
0.00024079822
0.00020490084
0.00017217289
0.00014258528
0.00011607685
9.25569e-05
7.1913083e-05
5.4015839e-05
3.8722887e-05
2.5920049e-05
1.5578436e-05
7.8178492e-06
2.8925851e-06
6.6847661e-07
7.9531254e-08
3.9833973e-09
8.95958e-10
2.8449178e-06
2.4407255e-06
2.433239e-06
2.4393474e-06
2.4348414e-06
2.4382534e-06
2.4354406e-06
2.4347559e-06
2.4295923e-06
2.4215611e-06
2.4101771e-06
2.4017955e-06
2.4037819e-06
2.4209505e-06
2.4413602e-06
2.4438182e-06
2.4269633e-06
2.4215133e-06
2.4261279e-06
2.4219313e-06
2.4169942e-06
2.4180143e-06
2.4152109e-06
2.4124463e-06
2.4120228e-06
2.4099411e-06
2.4081121e-06
2.406512e-06
2.4046637e-06
2.4026108e-06
2.3989539e-06
2.3948412e-06
2.3920399e-06
2.3906904e-06
2.3888915e-06
2.3854705e-06
2.3832298e-06
2.3839787e-06
2.3877509e-06
2.3954612e-06
2.4016973e-06
2.3933097e-06
2.3709179e-06
2.355764e-06
2.3577576e-06
2.3611522e-06
2.3486983e-06
2.3406369e-06
2.3410195e-06
2.330454e-06
2.3172131e-06
2.3099768e-06
2.2972549e-06
2.2799816e-06
2.2617151e-06
2.2442818e-06
2.2297834e-06
2.205405e-06
2.1657788e-06
2.1323478e-06
2.1154483e-06
2.0788412e-06
2.0122518e-06
1.972305e-06
1.9875201e-06
2.0109395e-06
2.0055333e-06
1.9985955e-06
2.0179288e-06
2.055388e-06
2.0881745e-06
2.109671e-06
2.130444e-06
2.1570306e-06
2.1872968e-06
2.2122646e-06
2.2341488e-06
2.2625494e-06
2.2960336e-06
2.3284304e-06
2.3578043e-06
2.3836628e-06
2.4094725e-06
2.4423718e-06
2.4837701e-06
2.5317809e-06
2.5876402e-06
2.6521946e-06
2.7240536e-06
2.8019454e-06
2.8847364e-06
2.9712615e-06
3.0604457e-06
3.1505808e-06
3.2391718e-06
3.3235452e-06
3.4018589e-06
3.4758228e-06
3.5694386e-06
3.8591317e-06
5.6045162e-06
1.8376238e-05
9.797096e-05
0.00031206434
0.00056120795
0.00076337134
0.0009182232
0.0010328925
0.0011142736
0.0011680106
0.0011986983
0.0012101352
0.001205533
0.0011876561
0.0011589033
0.0011213631
0.0010768566
0.0010269653
0.00097306718
0.00091635806
0.00085786465
0.00079846811
0.00073891985
0.0006798591
0.00062183227
0.0005652996
0.00051064878
0.00045820646
0.00040823462
0.0003609527
0.00031652842
0.00027507649
0.00023668648
0.00020141062
0.00016924908
0.00014016492
0.00011409292
9.0942395e-05
7.0605515e-05
5.2961581e-05
3.7881066e-05
2.5265074e-05
1.510037e-05
7.5167476e-06
2.7541107e-06
6.3148003e-07
7.4890997e-08
3.8031615e-09
9.1170223e-10
2.885165e-06
2.4408008e-06
2.4332319e-06
2.4393508e-06
2.4348405e-06
2.4382558e-06
2.435453e-06
2.4347853e-06
2.429659e-06
2.4216661e-06
2.4102901e-06
2.4018388e-06
2.4036692e-06
2.4207195e-06
2.4411862e-06
2.4439219e-06
2.4271248e-06
2.4214843e-06
2.4261015e-06
2.4220035e-06
2.4170098e-06
2.4180169e-06
2.4152533e-06
2.4124643e-06
2.4120438e-06
2.4099727e-06
2.4081403e-06
2.4065461e-06
2.4047018e-06
2.4026626e-06
2.3990211e-06
2.3948966e-06
2.3920802e-06
2.3907303e-06
2.3889527e-06
2.385543e-06
2.3832835e-06
2.3840192e-06
2.3877899e-06
2.395561e-06
2.4019174e-06
2.3937874e-06
2.3714389e-06
2.3561304e-06
2.3579348e-06
2.3614757e-06
2.3492329e-06
2.3410533e-06
2.3413829e-06
2.3310262e-06
2.3177547e-06
2.3104545e-06
2.2978585e-06
2.2806093e-06
2.2623145e-06
2.2448037e-06
2.2302989e-06
2.2061493e-06
2.166653e-06
2.1330632e-06
2.1161685e-06
2.0802657e-06
2.0142125e-06
1.9733351e-06
1.9871171e-06
2.0101725e-06
2.0051418e-06
1.9976546e-06
2.0155495e-06
2.0520795e-06
2.0851317e-06
2.1071317e-06
2.1277314e-06
2.1537047e-06
2.1834193e-06
2.2084274e-06
2.2305136e-06
2.2586467e-06
2.2918833e-06
2.3247627e-06
2.3553721e-06
2.3829792e-06
2.4104177e-06
2.4439203e-06
2.4850235e-06
2.5325259e-06
2.5877366e-06
2.6514424e-06
2.7226375e-06
2.8001951e-06
2.8829746e-06
2.9697924e-06
3.0595583e-06
3.1506217e-06
3.2405793e-06
3.3267836e-06
3.4072739e-06
3.4839376e-06
3.5833647e-06
3.9030063e-06
5.852801e-06
1.9620619e-05
9.8461451e-05
0.00030525978
0.00055157466
0.00075361678
0.00090846715
0.0010230824
0.001104418
0.0011581241
0.0011888068
0.0012002719
0.001195737
0.0011779777
0.0011494024
0.0011121046
0.0010679069
0.0010183904
0.00096493082
0.00090871928
0.00085077576
0.00079197252
0.00073305006
0.00067463542
0.00061726201
0.00056137715
0.00050735594
0.00045551352
0.00040610157
0.00035933081
0.00031536193
0.0002743046
0.00023624512
0.00020123444
0.0001692735
0.00014032808
0.00011433751
9.1217419e-05
7.0868017e-05
5.3178385e-05
3.8030455e-05
2.5338861e-05
1.510687e-05
7.4836699e-06
2.721326e-06
6.1888403e-07
7.2957278e-08
3.6353801e-09
8.0942485e-10
2.9267497e-06
2.4408843e-06
2.4332247e-06
2.4393543e-06
2.4348396e-06
2.4382582e-06
2.4354658e-06
2.4348153e-06
2.4297275e-06
2.4217745e-06
2.4104074e-06
2.4018848e-06
2.4035553e-06
2.4204807e-06
2.4410059e-06
2.4440252e-06
2.427293e-06
2.4214557e-06
2.4260734e-06
2.4220778e-06
2.4170266e-06
2.4180191e-06
2.4152969e-06
2.4124829e-06
2.4120652e-06
2.4100052e-06
2.4081693e-06
2.4065809e-06
2.4047409e-06
2.4027154e-06
2.3990898e-06
2.3949539e-06
2.3921216e-06
2.3907709e-06
2.3890148e-06
2.3856172e-06
2.3833386e-06
2.3840601e-06
2.3878278e-06
2.395659e-06
2.4021368e-06
2.3942684e-06
2.3719717e-06
2.3565052e-06
2.3581135e-06
2.3617799e-06
2.3497691e-06
2.3414845e-06
2.341754e-06
2.3316053e-06
2.3183068e-06
2.3109414e-06
2.2984744e-06
2.281256e-06
2.2629335e-06
2.2453449e-06
2.2308376e-06
2.2069314e-06
2.1675711e-06
2.1338085e-06
2.1169178e-06
2.0817519e-06
2.0162598e-06
1.974422e-06
1.9867254e-06
2.0094169e-06
2.0047995e-06
1.996789e-06
2.0132185e-06
2.048748e-06
2.0820101e-06
2.1045284e-06
2.1250081e-06
2.1504002e-06
2.179565e-06
2.2045812e-06
2.226825e-06
2.2546645e-06
2.2876203e-06
2.3208971e-06
2.3526285e-06
2.3818842e-06
2.4109076e-06
2.4450934e-06
2.4860432e-06
2.5331017e-06
2.5876434e-06
2.6504972e-06
2.7209178e-06
2.7979407e-06
2.8804669e-06
2.9673234e-06
3.057421e-06
3.149175e-06
3.2402548e-06
3.3280876e-06
3.410684e-06
3.4900853e-06
3.5955146e-06
3.9458956e-06
6.1028082e-06
2.081435e-05
9.8263728e-05
0.00029575515
0.00053742012
0.00073943197
0.00089489184
0.0010101284
0.0010920686
0.0011463288
0.0011775179
0.0011894466
0.0011853332
0.0011679697
0.0011397829
0.0011028768
0.001059083
0.0010099901
0.00095697964
0.00090124644
0.00084381186
0.00078554672
0.0007271868
0.00066935186
0.0006125664
0.00055726796
0.00050382156
0.00045253247
0.00040364318
0.00035735603
0.00031382471
0.00027315327
0.00023542394
0.00020068548
0.00016893874
0.00014015146
0.00011426705
9.1207426e-05
7.0881073e-05
5.3187169e-05
3.8019046e-05
2.5303412e-05
1.5055513e-05
7.4343221e-06
2.6919834e-06
6.0985986e-07
7.1735858e-08
3.5673495e-09
7.894236e-10
2.9697142e-06
2.4409768e-06
2.4332172e-06
2.4393579e-06
2.4348388e-06
2.4382606e-06
2.435479e-06
2.4348459e-06
2.4297977e-06
2.421886e-06
2.410529e-06
2.4019337e-06
2.4034404e-06
2.420234e-06
2.4408191e-06
2.4441278e-06
2.4274679e-06
2.4214277e-06
2.4260435e-06
2.4221541e-06
2.4170446e-06
2.4180208e-06
2.4153418e-06
2.4125022e-06
2.4120868e-06
2.4100387e-06
2.408199e-06
2.4066167e-06
2.4047809e-06
2.4027692e-06
2.3991603e-06
2.3950131e-06
2.3921643e-06
2.3908121e-06
2.389078e-06
2.3856931e-06
2.3833952e-06
2.3841013e-06
2.3878653e-06
2.395754e-06
2.402356e-06
2.3947525e-06
2.3725163e-06
2.3568882e-06
2.3582943e-06
2.3620813e-06
2.3503028e-06
2.341929e-06
2.3421351e-06
2.3321922e-06
2.3188693e-06
2.3114369e-06
2.2991017e-06
2.2819213e-06
2.2635719e-06
2.2459052e-06
2.2313982e-06
2.2077491e-06
2.1685326e-06
2.1345836e-06
2.1176928e-06
2.0832934e-06
2.0183914e-06
1.9755718e-06
1.9863505e-06
2.008671e-06
2.0045028e-06
1.9960026e-06
2.0109473e-06
2.0454033e-06
2.0788117e-06
2.1018572e-06
2.1222706e-06
2.1471176e-06
2.1757359e-06
2.2007292e-06
2.2230903e-06
2.2506135e-06
2.2832526e-06
2.3168357e-06
2.3495669e-06
2.3803588e-06
2.4109141e-06
2.4458524e-06
2.4867811e-06
2.5334695e-06
2.5873433e-06
2.6492924e-06
2.7188162e-06
2.7951154e-06
2.8771596e-06
2.9638109e-06
3.0540013e-06
3.1462229e-06
3.2382586e-06
3.3275785e-06
3.4121409e-06
3.494013e-06
3.6037658e-06
3.9725696e-06
6.2407802e-06
2.1238586e-05
9.5993368e-05
0.00028389106
0.00052001014
0.00072173597
0.0008777787
0.00099412611
0.0010771552
0.0011324253
0.0011645499
0.0011773489
0.0011740308
0.0011574053
0.0011299177
0.0010936784
0.0010505263
0.0010020578
0.00094966059
0.00089453416
0.00083770478
0.00078004713
0.000722295
0.00066506332
0.00060887013
0.0005541457
0.00050124753
0.00045047355
0.00040205951
0.00035620169
0.00031304876
0.00027270115
0.00023523882
0.00020070993
0.0001691165
0.00014042922
0.00011459612
9.1545384e-05
7.1193327e-05
5.3448286e-05
3.8213793e-05
2.5427508e-05
1.511628e-05
7.4507125e-06
2.6901014e-06
6.0752389e-07
7.1296631e-08
3.5183687e-09
7.5371776e-10
3.014092e-06
2.4410789e-06
2.4332094e-06
2.4393616e-06
2.4348379e-06
2.438263e-06
2.4354925e-06
2.4348771e-06
2.4298698e-06
2.4220009e-06
2.4106551e-06
2.4019857e-06
2.4033247e-06
2.4199789e-06
2.4406257e-06
2.4442294e-06
2.42765e-06
2.4214005e-06
2.4260116e-06
2.4222323e-06
2.4170641e-06
2.418022e-06
2.415388e-06
2.4125223e-06
2.4121088e-06
2.4100732e-06
2.4082295e-06
2.4066533e-06
2.404822e-06
2.4028241e-06
2.3992324e-06
2.3950742e-06
2.3922081e-06
2.3908541e-06
2.3891422e-06
2.3857709e-06
2.3834534e-06
2.3841428e-06
2.387902e-06
2.3958466e-06
2.4025757e-06
2.3952394e-06
2.3730727e-06
2.3572798e-06
2.3584777e-06
2.3624015e-06
2.3508274e-06
2.3423839e-06
2.3425278e-06
2.3327884e-06
2.3194421e-06
2.3119408e-06
2.29974e-06
2.2826047e-06
2.2642296e-06
2.2464846e-06
2.2319798e-06
2.2086005e-06
2.1695373e-06
2.1353886e-06
2.1184903e-06
2.0848837e-06
2.020605e-06
1.9767903e-06
1.9859979e-06
2.0079326e-06
2.0042472e-06
1.9952981e-06
2.0087462e-06
2.0420558e-06
2.0755392e-06
2.0991138e-06
2.1195145e-06
2.1438561e-06
2.1719334e-06
2.1968739e-06
2.2193163e-06
2.246504e-06
2.2787893e-06
2.3125849e-06
2.3461865e-06
2.3783908e-06
2.410414e-06
2.4461609e-06
2.4871906e-06
2.5335905e-06
2.5868195e-06
2.6478352e-06
2.7163642e-06
2.7917751e-06
2.8731286e-06
2.9593437e-06
3.0493907e-06
3.1418484e-06
3.2346212e-06
3.3252394e-06
3.4116088e-06
3.4955913e-06
3.6072073e-06
3.9756047e-06
6.2142174e-06
2.0651296e-05
9.0763328e-05
0.00026849586
0.00049931149
0.00070140841
0.00085875562
0.00097654533
0.0010609496
0.0011174824
0.0011507611
0.0011646284
0.0011623309
0.001146659
0.0011200387
0.0010845899
0.0010421662
0.00099437787
0.00094262315
0.00088810546
0.00083186116
0.00077478677
0.00071761204
0.0006609484
0.00060530962
0.00055112088
0.00049873395
0.00044844115
0.00040047351
0.00035502188
0.00031223003
0.0002721945
0.00023499257
0.00020067125
0.00016923313
0.00014065111
0.00011487714
9.1844969e-05
7.1478027e-05
5.3693135e-05
3.8403258e-05
2.5556022e-05
1.5188337e-05
7.4801859e-06
2.6970092e-06
6.0814242e-07
7.1286894e-08
3.5040893e-09
7.3790234e-10
3.0599309e-06
2.4411915e-06
2.4332015e-06
2.4393654e-06
2.4348372e-06
2.4382653e-06
2.4355063e-06
2.4349089e-06
2.4299437e-06
2.4221192e-06
2.4107858e-06
2.4020409e-06
2.4032085e-06
2.4197152e-06
2.4404252e-06
2.4443297e-06
2.4278396e-06
2.4213743e-06
2.4259777e-06
2.4223125e-06
2.417085e-06
2.4180226e-06
2.4154355e-06
2.4125432e-06
2.412131e-06
2.4101086e-06
2.4082608e-06
2.4066908e-06
2.4048641e-06
2.40288e-06
2.3993063e-06
2.3951373e-06
2.3922532e-06
2.3908969e-06
2.3892075e-06
2.3858505e-06
2.3835131e-06
2.3841848e-06
2.387938e-06
2.3959362e-06
2.4027963e-06
2.395729e-06
2.3736408e-06
2.35768e-06
2.3586643e-06
2.362495e-06
2.3513361e-06
2.3428465e-06
2.3429331e-06
2.3333954e-06
2.3200257e-06
2.3124528e-06
2.3003884e-06
2.2833056e-06
2.2649065e-06
2.2470828e-06
2.2325811e-06
2.2094834e-06
2.1705845e-06
2.1362239e-06
2.1193073e-06
2.0865167e-06
2.0228979e-06
1.9780828e-06
1.985673e-06
2.0072002e-06
2.0040281e-06
1.9946772e-06
2.0066254e-06
2.0387163e-06
2.0721964e-06
2.0962946e-06
2.1167344e-06
2.1406134e-06
2.1681584e-06
2.1930182e-06
2.2155095e-06
2.2423462e-06
2.2742412e-06
2.3081545e-06
2.3424931e-06
2.3759765e-06
2.4093915e-06
2.4459875e-06
2.4872285e-06
2.5334275e-06
2.5860547e-06
2.6461322e-06
2.713596e-06
2.7879817e-06
2.8684599e-06
2.9540247e-06
3.0436999e-06
3.1361596e-06
3.2294379e-06
3.3211436e-06
3.4091339e-06
3.4948737e-06
3.6061893e-06
3.9580927e-06
6.0557702e-06
1.9352356e-05
8.3540141e-05
0.00025045593
0.00047585664
0.00067868137
0.00083782025
0.00095748174
0.0010436312
0.0011017449
0.0011364505
0.0011516082
0.0011504782
0.001135862
0.0011101961
0.0010756124
0.0010339782
0.00098691902
0.0009358498
0.00088199246
0.00082638721
0.0007699153
0.00071331572
0.00065720452
0.00060209642
0.00054841452
0.00049650609
0.00044665674
0.00039910448
0.00035403256
0.00031157889
0.00027183576
0.00023487762
0.00020075014
0.00016945619
0.00014097052
0.00011524848
9.2228783e-05
7.1841295e-05
5.401047e-05
3.8657815e-05
2.5740077e-05
1.530357e-05
7.5377578e-06
2.7168936e-06
6.1219245e-07
7.1705661e-08
3.5087383e-09
7.2352751e-10
3.1072777e-06
2.4413153e-06
2.4331934e-06
2.4393693e-06
2.4348364e-06
2.4382676e-06
2.4355205e-06
2.4349412e-06
2.4300194e-06
2.422241e-06
2.4109212e-06
2.4020996e-06
2.4030919e-06
2.4194426e-06
2.4402176e-06
2.4444284e-06
2.428037e-06
2.4213493e-06
2.4259416e-06
2.4223947e-06
2.4171076e-06
2.4180226e-06
2.4154844e-06
2.4125649e-06
2.4121536e-06
2.4101451e-06
2.4082929e-06
2.4067293e-06
2.4049073e-06
2.402937e-06
2.3993819e-06
2.3952026e-06
2.3922997e-06
2.3909404e-06
2.3892738e-06
2.3859319e-06
2.3835746e-06
2.3842273e-06
2.3879735e-06
2.3960225e-06
2.4030184e-06
2.3962211e-06
2.3742208e-06
2.3580892e-06
2.3588558e-06
2.3628331e-06
2.3518297e-06
2.3433142e-06
2.3433505e-06
2.334015e-06
2.3206209e-06
2.3129728e-06
2.3010462e-06
2.2840235e-06
2.2656023e-06
2.2476997e-06
2.2332013e-06
2.2103959e-06
2.171674e-06
2.1370899e-06
2.1201412e-06
2.0881864e-06
2.0252672e-06
1.9794546e-06
1.9853819e-06
2.0064727e-06
2.0038405e-06
1.9941406e-06
2.0045943e-06
2.0353965e-06
2.0687888e-06
2.0933963e-06
2.1139247e-06
2.1373864e-06
2.164411e-06
2.189165e-06
2.2116767e-06
2.2381505e-06
2.2696209e-06
2.3035585e-06
2.3384985e-06
2.3731202e-06
2.4078389e-06
2.4453071e-06
2.4868565e-06
2.5329449e-06
2.5850302e-06
2.6441888e-06
2.710545e-06
2.7837985e-06
2.8632433e-06
2.947964e-06
3.0370512e-06
3.1292812e-06
3.2228258e-06
3.3153913e-06
3.4047984e-06
3.4919889e-06
3.6014209e-06
3.925464e-06
5.8088191e-06
1.7625499e-05
7.5139644e-05
0.00023058987
0.00045021502
0.00065396252
0.00081531593
0.00093722749
0.0010254456
0.0010854128
0.0011217746
0.0011384148
0.0011386118
0.0011251808
0.0011005707
0.0010669266
0.0010261298
0.00097982178
0.00092943307
0.0008762006
0.00082117781
0.00076525677
0.00070918444
0.00065358202
0.00059896669
0.00054576196
0.00049431398
0.00044490653
0.00039776017
0.00035305611
0.00031092979
0.00027147089
0.00023475159
0.00020081623
0.00016966757
0.00014128155
0.00011561616
9.2614083e-05
7.2212151e-05
5.4341297e-05
3.8930527e-05
2.5944799e-05
1.5438926e-05
7.6110786e-06
2.7451954e-06
6.1870536e-07
7.2452948e-08
3.5333003e-09
7.1661285e-10
3.1561712e-06
2.4414513e-06
2.433185e-06
2.4393733e-06
2.4348357e-06
2.4382699e-06
2.435535e-06
2.4349741e-06
2.430097e-06
2.4223664e-06
2.4110617e-06
2.402162e-06
2.4029751e-06
2.4191607e-06
2.4400023e-06
2.4445253e-06
2.4282426e-06
2.4213257e-06
2.4259032e-06
2.4224788e-06
2.4171318e-06
2.418022e-06
2.4155346e-06
2.4125875e-06
2.4121764e-06
2.4101825e-06
2.408326e-06
2.4067686e-06
2.4049516e-06
2.4029952e-06
2.3994593e-06
2.39527e-06
2.3923476e-06
2.3909847e-06
2.3893412e-06
2.3860153e-06
2.3836377e-06
2.3842704e-06
2.3880086e-06
2.3961048e-06
2.4032425e-06
2.3967155e-06
2.3748126e-06
2.3585076e-06
2.3590518e-06
2.3631711e-06
2.3523247e-06
2.3437844e-06
2.3437782e-06
2.3346484e-06
2.3212289e-06
2.3135011e-06
2.3017126e-06
2.2847578e-06
2.2663168e-06
2.2483354e-06
2.2338394e-06
2.2113357e-06
2.1728054e-06
2.1379871e-06
2.1209898e-06
2.0898866e-06
2.0277095e-06
1.9809106e-06
1.9851305e-06
2.0057492e-06
2.0036794e-06
1.9936877e-06
2.0026613e-06
2.0321086e-06
2.0653229e-06
2.0904167e-06
2.1110793e-06
2.1341715e-06
2.1606911e-06
2.1853171e-06
2.2078242e-06
2.2339273e-06
2.2649419e-06
2.2988137e-06
2.3342202e-06
2.369834e-06
2.4057566e-06
2.4441023e-06
2.4860418e-06
2.5321099e-06
2.5837268e-06
2.6420076e-06
2.7072415e-06
2.7792862e-06
2.8575679e-06
2.9412738e-06
3.0295722e-06
3.1213479e-06
3.2149173e-06
3.3081019e-06
3.398707e-06
3.4870975e-06
3.5937133e-06
3.8835204e-06
5.5139425e-06
1.5695403e-05
6.6171714e-05
0.00020950435
0.00042276417
0.00062746577
0.00079140253
0.00091590468
0.0010064856
0.0010685553
0.001106784
0.0011250848
0.0011267586
0.0011146369
0.0010911822
0.0010585534
0.0010186473
0.00097312227
0.0009234264
0.00087081405
0.00081635478
0.00076095448
0.00070537114
0.00065023382
0.00059606442
0.00054328842
0.00049225154
0.0004432353
0.00039645685
0.00035209317
0.00031027541
0.00027108925
0.00023460343
0.00020085983
0.00016986009
0.00014158046
0.00011598068
9.3006766e-05
7.2598746e-05
5.4693927e-05
3.9228661e-05
2.6175704e-05
1.559786e-05
7.7016959e-06
2.7822629e-06
6.2767477e-07
7.3516577e-08
3.5740499e-09
7.1336236e-10
3.2066621e-06
2.4416004e-06
2.4331765e-06
2.4393774e-06
2.434835e-06
2.4382721e-06
2.4355499e-06
2.4350076e-06
2.4301765e-06
2.4224954e-06
2.4112073e-06
2.4022282e-06
2.4028585e-06
2.4188694e-06
2.4397791e-06
2.4446199e-06
2.4284565e-06
2.4213039e-06
2.4258624e-06
2.4225648e-06
2.417158e-06
2.4180206e-06
2.4155863e-06
2.4126111e-06
2.4121996e-06
2.410221e-06
2.4083599e-06
2.406809e-06
2.404997e-06
2.4030545e-06
2.3995384e-06
2.3953396e-06
2.3923969e-06
2.3910298e-06
2.3894097e-06
2.3861006e-06
2.3837027e-06
2.384314e-06
2.3880435e-06
2.396183e-06
2.4034691e-06
2.3972122e-06
2.3754164e-06
2.3589355e-06
2.359253e-06
2.3635086e-06
2.3528426e-06
2.3442533e-06
2.3442137e-06
2.3352957e-06
2.3218514e-06
2.3140382e-06
2.302387e-06
2.2855077e-06
2.2670496e-06
2.2489895e-06
2.2344943e-06
2.212301e-06
2.1739779e-06
2.1389165e-06
2.121851e-06
2.0916115e-06
2.0302215e-06
1.9824553e-06
1.9849254e-06
2.0050297e-06
2.0035393e-06
1.9933174e-06
2.0008343e-06
2.0288651e-06
2.0618067e-06
2.0873547e-06
2.1081922e-06
2.1309639e-06
2.1569979e-06
2.181477e-06
2.2039584e-06
2.229687e-06
2.2602187e-06
2.2939397e-06
2.3296806e-06
2.3661374e-06
2.4031538e-06
2.4423641e-06
2.4847589e-06
2.5308934e-06
2.582125e-06
2.639588e-06
2.7037113e-06
2.7745009e-06
2.8515191e-06
2.9340645e-06
3.0213924e-06
3.1125006e-06
3.2058554e-06
3.2994108e-06
3.3909834e-06
3.4803742e-06
3.5838318e-06
3.8374392e-06
5.204869e-06
1.3735996e-05
5.713276e-05
0.00018775604
0.0003938583
0.00059937963
0.00076622281
0.00089362743
0.00098684238
0.0010512442
0.0010915335
0.0011116589
0.0011149479
0.0011042504
0.001082044
0.0010505016
0.0010115363
0.00096682377
0.00091783132
0.00086583267
0.0008119161
0.00075700441
0.00070186984
0.00064715255
0.0005933822
0.00054098887
0.00049032001
0.0004416565
0.00039521312
0.00035116322
0.00030963373
0.00027070609
0.00023444506
0.00020088926
0.00017003832
0.00014186775
0.00011633796
9.3397173e-05
7.2989114e-05
5.5056214e-05
3.954106e-05
2.6423364e-05
1.5773242e-05
7.8052255e-06
2.8262847e-06
6.3870066e-07
7.4856253e-08
3.6301125e-09
7.1456241e-10
3.2587913e-06
2.4417637e-06
2.4331677e-06
2.4393815e-06
2.4348344e-06
2.4382743e-06
2.4355652e-06
2.4350416e-06
2.4302579e-06
2.422628e-06
2.4113583e-06
2.4022986e-06
2.4027424e-06
2.4185682e-06
2.4395475e-06
2.444712e-06
2.4286792e-06
2.421284e-06
2.425819e-06
2.4226527e-06
2.4171861e-06
2.4180185e-06
2.4156394e-06
2.4126357e-06
2.412223e-06
2.4102606e-06
2.4083948e-06
2.4068504e-06
2.4050436e-06
2.4031151e-06
2.3996194e-06
2.3954115e-06
2.3924479e-06
2.3910758e-06
2.3894793e-06
2.3861878e-06
2.3837695e-06
2.3843584e-06
2.3880781e-06
2.3962567e-06
2.4036984e-06
2.3977111e-06
2.3760323e-06
2.3593734e-06
2.3594598e-06
2.3638453e-06
2.3531462e-06
2.3447145e-06
2.3446542e-06
2.3359559e-06
2.3224904e-06
2.3145852e-06
2.3030688e-06
2.2862724e-06
2.2678006e-06
2.2496622e-06
2.2351653e-06
2.2132896e-06
2.1751911e-06
2.1398788e-06
2.1227231e-06
2.0933554e-06
2.0327992e-06
1.9840927e-06
1.984773e-06
2.0043146e-06
2.003415e-06
1.9930272e-06
1.99912e-06
2.0256785e-06
2.0582494e-06
2.0842103e-06
2.1052578e-06
2.1277587e-06
2.1533299e-06
2.177647e-06
2.2000853e-06
2.2254396e-06
2.2554666e-06
2.2889581e-06
2.3249061e-06
2.3620564e-06
2.4000478e-06
2.4400921e-06
2.4829898e-06
2.5292705e-06
2.5802057e-06
2.6369265e-06
2.6999751e-06
2.7694922e-06
2.845176e-06
2.9264422e-06
3.0126398e-06
3.1028826e-06
3.195791e-06
3.289466e-06
3.3817667e-06
3.471993e-06
3.572401e-06
3.7912073e-06
4.9064e-06
1.1870383e-05
4.8405727e-05
0.0001658386
0.00036380533
0.00056983648
0.00073986308
0.00087045912
0.0009665618
0.0010335108
0.0010760428
0.0010981482
0.001103185
0.0010940241
0.0010731587
0.0010427765
0.0010048061
0.00096094106
0.00091266828
0.00086128219
0.00080789186
0.00075343959
0.00069871495
0.00064437242
0.00059095258
0.00053889304
0.00048854542
0.00044019198
0.00039404652
0.00035027963
0.00030901437
0.00027032788
0.00023428045
0.00020090681
0.00017020359
0.00014214452
0.00011668963
9.3788215e-05
7.3386638e-05
5.5431443e-05
3.987059e-05
2.6690001e-05
1.59665e-05
7.9222992e-06
2.8773595e-06
6.5174623e-07
7.6459248e-08
3.6999648e-09
7.1914196e-10
3.3126085e-06
2.4419421e-06
2.4331587e-06
2.4393858e-06
2.4348338e-06
2.4382764e-06
2.4355808e-06
2.4350761e-06
2.4303411e-06
2.4227645e-06
2.4115147e-06
2.4023734e-06
2.402627e-06
2.418257e-06
2.4393072e-06
2.444801e-06
2.4289109e-06
2.4212665e-06
2.4257731e-06
2.4227423e-06
2.4172164e-06
2.4180155e-06
2.415694e-06
2.4126613e-06
2.4122467e-06
2.4103012e-06
2.4084307e-06
2.4068929e-06
2.4050914e-06
2.4031771e-06
2.3997023e-06
2.3954858e-06
2.3925004e-06
2.3911227e-06
2.38955e-06
2.3862771e-06
2.3838382e-06
2.3844035e-06
2.3881127e-06
2.3963257e-06
2.4039306e-06
2.3982121e-06
2.3766601e-06
2.3598216e-06
2.3596729e-06
2.364182e-06
2.3536913e-06
2.3451614e-06
2.3450974e-06
2.3366269e-06
2.3231476e-06
2.3151436e-06
2.3037575e-06
2.2870511e-06
2.2685694e-06
2.2503532e-06
2.2358514e-06
2.2142994e-06
2.176444e-06
2.1408751e-06
2.1236049e-06
2.0951127e-06
2.0354382e-06
1.9858267e-06
1.9846803e-06
2.0036048e-06
2.0033012e-06
1.9928139e-06
1.9975242e-06
2.0225615e-06
2.0546616e-06
2.080985e-06
2.1022708e-06
2.1245504e-06
2.1496852e-06
2.1738293e-06
2.1962107e-06
2.2211949e-06
2.2507008e-06
2.283892e-06
2.3199268e-06
2.3576227e-06
2.3964638e-06
2.4372951e-06
2.480725e-06
2.5272222e-06
2.5779514e-06
2.6340176e-06
2.6960484e-06
2.7643031e-06
2.838611e-06
2.9185071e-06
3.0034387e-06
3.0926375e-06
3.1848799e-06
3.278426e-06
3.3712092e-06
3.4621232e-06
3.5598785e-06
3.7475121e-06
4.6348258e-06
1.0178957e-05
4.0280677e-05
0.00014421911
0.00033291201
0.0005389563
0.00071239201
0.00084645013
0.0009456796
0.0010153784
0.0010603249
0.0010845575
0.0010914691
0.001083954
0.0010645222
0.0010353757
0.0009984582
0.00095548081
0.00090794984
0.00085718107
0.00080430563
0.00075028748
0.00069593617
0.00064192361
0.00058880452
0.00053702712
0.00048695008
0.00043885936
0.00039296961
0.0003494499
0.00030842014
0.00026995325
0.00023410484
0.00020090506
0.00017034669
0.0001424006
0.00011702521
9.4169725e-05
7.3781924e-05
5.5811376e-05
4.0210425e-05
2.6970362e-05
1.6174028e-05
8.0509022e-06
2.9347277e-06
6.6664982e-07
7.8308331e-08
3.7829302e-09
7.2711915e-10
3.3681577e-06
2.4421371e-06
2.4331495e-06
2.4393901e-06
2.4348333e-06
2.4382784e-06
2.4355968e-06
2.4351111e-06
2.4304263e-06
2.4229048e-06
2.4116769e-06
2.4024529e-06
2.4025126e-06
2.4179355e-06
2.4390577e-06
2.4448867e-06
2.429152e-06
2.4212518e-06
2.4257242e-06
2.4228337e-06
2.417249e-06
2.4180117e-06
2.4157501e-06
2.4126881e-06
2.4122706e-06
2.410343e-06
2.4084677e-06
2.4069364e-06
2.4051404e-06
2.4032403e-06
2.3997872e-06
2.3955625e-06
2.3925547e-06
2.3911706e-06
2.3896219e-06
2.3863684e-06
2.3839089e-06
2.3844495e-06
2.3881476e-06
2.3963895e-06
2.4041658e-06
2.3987155e-06
2.3773e-06
2.3602805e-06
2.3598928e-06
2.3645172e-06
2.354242e-06
2.345595e-06
2.3455408e-06
2.3373058e-06
2.3238242e-06
2.3157154e-06
2.3044532e-06
2.2878431e-06
2.2693554e-06
2.2510624e-06
2.2365518e-06
2.2153283e-06
2.1777358e-06
2.1419066e-06
2.1244954e-06
2.0968777e-06
2.0381338e-06
1.9876604e-06
1.9846544e-06
2.0029021e-06
2.003193e-06
1.9926735e-06
1.9960514e-06
2.0195267e-06
2.0510547e-06
2.0776816e-06
2.0992268e-06
2.1213336e-06
2.1460615e-06
2.1700255e-06
2.1923396e-06
2.2169622e-06
2.2459368e-06
2.2787655e-06
2.3147748e-06
2.3528731e-06
2.392434e-06
2.4339908e-06
2.4779641e-06
2.5247363e-06
2.5753476e-06
2.630855e-06
2.6919427e-06
2.7589699e-06
2.8318887e-06
2.9103523e-06
2.9939086e-06
3.0819074e-06
3.1732811e-06
3.2664577e-06
3.3594754e-06
3.4509302e-06
3.5465667e-06
3.707852e-06
4.3990642e-06
8.7063166e-06
3.2959062e-05
0.00012333554
0.00030149063
0.00050685156
0.00068385873
0.0008216343
0.00092421678
0.00099685715
0.0010443807
0.0010708804
0.0010797891
0.0010740269
0.0010561215
0.0010282892
0.0009924882
0.00095044581
0.00090368714
0.00085354908
0.0008011854
0.00074758305
0.00069357374
0.0006398495
0.00058698233
0.00053543429
0.00048557417
0.00043769441
0.00039201279
0.00034869854
0.00030786954
0.00026959506
0.000233926
0.00020088752
0.00017046771
0.00014263355
0.00011734065
9.4536765e-05
7.4169817e-05
5.6191135e-05
4.0556325e-05
2.7261074e-05
1.6393453e-05
8.1896872e-06
2.9978785e-06
6.8330318e-07
8.0391364e-08
3.8782964e-09
7.3822695e-10
3.4254981e-06
2.4423496e-06
2.4331401e-06
2.4393945e-06
2.4348328e-06
2.4382803e-06
2.4356132e-06
2.4351467e-06
2.4305134e-06
2.4230491e-06
2.4118449e-06
2.4025374e-06
2.4023996e-06
2.4176033e-06
2.4387987e-06
2.4449685e-06
2.4294027e-06
2.4212402e-06