/*--------------------------------*- C++ -*----------------------------------*\
| =========                 |                                                 |
| \\      /  F ield         | OpenFOAM: The Open Source CFD Toolbox           |
|  \\    /   O peration     | Version:  2506                                  |
|   \\  /    A nd           | Website:  www.openfoam.com                      |
|    \\/     M anipulation  |                                                 |
\*---------------------------------------------------------------------------*/
FoamFile
{
    version     2.0;
    format      ascii;
    arch        "LSB;label=32;scalar=64";
    class       volVectorField;
    location    "1e-05";
    object      U;
}
// * * * * * * * * * * * * * * * * * * * * * * * * * * * * * * * * * * * * * //

dimensions      [0 1 -1 0 0 0 0];

internalField   nonuniform List<vector> 
13761
(
(91.030474 24.388233 0)
(91.030521 24.388048 -1.1563923e-18)
(91.030519 24.388067 1.1568655e-18)
(91.030473 24.388235 0)
(91.030518 24.388066 0)
(91.03 24.39 1.3275021e-18)
(91.030473 24.388235 5.6425187e-22)
(91.03 24.39 -1.3276333e-18)
(91.030518 24.388067 5.6421871e-22)
(91.03 24.39 0)
(91.030473 24.388234 -1.1554572e-18)
(91.03 24.39 -1.3267175e-18)
(91.030521 24.388049 1.1564373e-18)
(91.03 24.39 1.3255248e-18)
(91.030519 24.388067 0)
(91.03 24.39 -2.1403737e-31)
(91.03 24.39 6.4700473e-22)
(91.030473 24.388235 0)
(91.03 24.39 -1.5145046e-18)
(91.03 24.39 -6.4678677e-22)
(91.030518 24.388067 0)
(91.03 24.39 1.5143847e-18)
(91.03 24.39 0)
(91.030473 24.388236 -1.1552152e-18)
(91.03 24.39 0)
(91.03 24.39 0)
(91.030518 24.388067 2.310361e-18)
(91.03 24.39 0)
(91.03 24.39 0)
(91.030473 24.388235 -1.1551502e-18)
(91.03 24.39 2.2951539e-31)
(91.03 24.39 -6.4569997e-22)
(91.030521 24.38805 0)
(91.03 24.39 1.7228702e-18)
(91.03 24.39 -1.5095079e-18)
(91.03 24.39 -1.2915834e-21)
(91.030519 24.388068 1.156139e-18)
(91.03 24.39 0)
(91.03 24.39 1.5093652e-18)
(91.03 24.39 -1.76412e-29)
(91.030473 24.388236 -1.1545197e-18)
(91.03 24.39 0)
(91.03 24.39 7.3729028e-22)
(91.03 24.39 -1.3224926e-18)
(91.030518 24.388067 0)
(91.03 24.39 0)
(91.03 24.39 1.5089708e-18)
(91.03 24.39 1.3214958e-18)
(91.030473 24.388235 0)
(91.03 24.39 -4.1967649e-22)
(91.03 24.39 -1.5067721e-18)
(91.03 24.39 0)
(91.030521 24.38805 0)
(91.03 24.39 -8.3831556e-22)
(91.03 24.39 7.3571779e-22)
(91.03 24.39 0)
(91.030519 24.388068 1.1555192e-18)
(91.03 24.39 9.7560211e-19)
(91.03 24.39 8.3809386e-22)
(91.03 24.39 -7.3537644e-22)
(91.03 24.39 6.4477695e-22)
(91.030473 24.388236 -1.1556107e-18)
(91.03 24.39 -9.5180927e-22)
(91.03 24.39 -1.7155708e-18)
(91.03 24.39 0)
(91.03 24.39 1.3201934e-18)
(91.030518 24.388067 -1.1550503e-18)
(91.03 24.39 1.9483405e-18)
(91.03 24.39 1.7140487e-18)
(91.03 24.39 0)
(91.03 24.39 -2.6397858e-18)
(91.030473 24.388236 1.1550571e-18)
(91.03 24.39 -1.9469977e-18)
(91.03 24.39 -8.3596155e-22)
(91.03 24.39 7.3466383e-22)
(91.03 24.39 1.3196014e-18)
(91.030518 24.388067 0)
(91.03 24.39 0)
(91.03 24.39 1.7124492e-18)
(91.03 24.39 -1.5032439e-18)
(91.03 24.39 -1.3199629e-18)
(91.030473 24.388235 0)
(91.03 24.39 0)
(91.03 24.39 -4.7429542e-22)
(91.03 24.39 -1.7108958e-18)
(91.03 24.39 1.5033257e-18)
(91.03 24.39 1.3191213e-18)
(91.030521 24.38805 -5.6424243e-22)
(91.03 24.39 1.1011643e-18)
(91.03 24.39 -1.9409666e-18)
(91.03 24.39 1.7093674e-18)
(91.03 24.39 0)
(91.03 24.39 0)
(91.030519 24.388068 0)
(91.03 24.39 -1.0988919e-18)
(91.03 24.39 1.9392337e-18)
(91.03 24.39 -1.7090898e-18)
(91.03 24.39 0)
(91.03 24.39 1.3185205e-18)
(91.030473 24.388236 0)
(91.03 24.39 -1.0982618e-18)
(91.03 24.39 -1.9384103e-18)
(91.03 24.39 -1.7073082e-18)
(91.03 24.39 -1.5006726e-18)
(91.03 24.39 -1.3189147e-18)
(91.030518 24.388067 0)
(91.03 24.39 1.097662e-18)
(91.03 24.39 1.4094287e-32)
(91.03 24.39 1.7063049e-18)
(91.03 24.39 2.0095895e-31)
(91.03 24.39 -1.3186752e-18)
(91.030473 24.388236 0)
(91.03 24.39 0)
(91.03 24.39 3.896558e-33)
(91.03 24.39 -8.3257166e-22)
(91.03 24.39 7.3271284e-22)
(91.03 24.39 1.3178002e-18)
(91.030518 24.388067 0)
(91.03 24.39 -1.2368272e-18)
(91.03 24.39 -4.4856657e-34)
(91.03 24.39 -4.7212475e-22)
(91.03 24.39 0)
(91.03 24.39 1.4986302e-18)
(91.03 24.39 6.4334797e-22)
(91.030473 24.388235 0)
(91.03 24.39 1.2366404e-18)
(91.03 24.39 0)
(91.03 24.39 3.8627759e-18)
(91.03 24.39 0)
(91.03 24.39 7.3167611e-22)
(91.03 24.39 -6.4296652e-22)
(91.030521 24.388049 0)
(91.03 24.39 -1.2355557e-18)
(91.03 24.39 5.3388116e-22)
(91.03 24.39 -1.930016e-18)
(91.03 24.39 0)
(91.03 24.39 0)
(91.03 24.39 0)
(91.030519 24.388067 0)
(91.03 24.39 0)
(91.03 24.39 -1.0929028e-18)
(91.03 24.39 9.4842365e-37)
(91.03 24.39 1.7016587e-18)
(91.03 24.39 -7.3149263e-22)
(91.03 24.39 6.4304206e-22)
(91.030473 24.388235 0)
(91.03 24.39 1.2312162e-18)
(91.03 24.39 1.0913453e-18)
(91.03 24.39 1.9279841e-18)
(91.03 24.39 -1.700071e-18)
(91.03 24.39 0)
(91.03 24.39 0)
(91.030518 24.388067 -2.3108348e-18)
(91.03 24.39 -1.3876407e-18)
(91.03 24.39 -2.4609658e-18)
(91.03 24.39 0)
(91.03 24.39 5.9674584e-33)
(91.03 24.39 0)
(91.03 24.39 0)
(91.03 24.39 -6.4285527e-22)
(91.030473 24.388235 2.311492e-18)
(91.03 24.39 1.3866774e-18)
(91.03 24.39 1.2285558e-18)
(91.03 24.39 5.3168091e-22)
(91.03 24.39 -5.9639027e-33)
(91.03 24.39 0)
(91.03 24.39 7.306624e-22)
(91.03 24.39 -6.4276683e-22)
(91.030518 24.388067 2.311026e-18)
(91.03 24.39 0)
(91.03 24.39 0)
(91.03 24.39 0)
(91.03 24.39 -3.849307e-18)
(91.03 24.39 0)
(91.03 24.39 -1.4961592e-18)
(91.03 24.39 0)
(91.030473 24.388234 -2.3111298e-18)
(91.03 24.39 -6.7545967e-22)
(91.03 24.39 0)
(91.03 24.39 1.0876031e-18)
(91.03 24.39 1.92245e-18)
(91.03 24.39 0)
(91.03 24.39 7.3065491e-22)
(91.03 24.39 -1.3161276e-18)
(91.030521 24.388049 0)
(91.03 24.39 -1.3824069e-18)
(91.03 24.39 0)
(91.03 24.39 -1.0864051e-18)
(91.03 24.39 -4.6904781e-22)
(91.03 24.39 4.1433522e-22)
(91.03 24.39 1.4959439e-18)
(91.03 24.39 2.6519574e-29)
(91.030519 24.388067 0)
(91.03 24.39 -1.2179847e-32)
(91.03 24.39 -5.9777643e-22)
(91.03 24.39 5.3001437e-22)
(91.03 24.39 1.920701e-18)
(91.03 24.39 -1.6963454e-18)
(91.03 24.39 -1.4955184e-18)
(91.03 24.39 2.6314765e-18)
(91.030473 24.388235 2.3114708e-18)
(91.03 24.39 1.5492905e-18)
(91.03 24.39 1.3778852e-18)
(91.03 24.39 1.2237342e-18)
(91.03 24.39 -1.0838511e-18)
(91.03 24.39 -1.9190561e-18)
(91.03 24.39 1.6947647e-18)
(91.03 24.39 1.4951646e-18)
(91.03 24.39 -1.3155927e-18)
(91.030518 24.388066 1.7472917e-27)
(91.03 24.39 1.5481037e-18)
(91.03 24.39 0)
(91.03 24.39 -1.2225989e-18)
(91.03 24.39 1.0830712e-18)
(91.03 24.39 0)
(91.03 24.39 0)
(91.03 24.39 0)
(91.03 24.39 0)
(91.03 24.39 -2.2780374e-30)
(91.03 24.39 -1.3752037e-18)
(91.03 24.39 -1.2214882e-18)
(91.03 24.39 2.1656264e-18)
(91.03 24.39 0)
(91.03 24.39 -1.6925224e-18)
(91.03 24.39 -1.4943121e-18)
(91.03 24.39 1.3141158e-18)
(91.03 24.39 -1.5439605e-18)
(91.03 24.39 1.3727786e-18)
(91.03 24.39 1.2213082e-18)
(91.03 24.39 -4.3286177e-18)
(91.03 24.39 4.6774207e-22)
(91.03 24.39 1.6938565e-18)
(91.03 24.39 1.4932029e-18)
(91.03 24.39 -2.5201636e-29)
(91.03 24.39 1.5421704e-18)
(91.03 24.39 6.7030943e-22)
(91.03 24.39 -1.2196014e-18)
(91.03 24.39 5.2768593e-22)
(91.03 24.39 -4.6748079e-22)
(91.03 24.39 -1.6927614e-18)
(91.03 24.39 -1.493069e-18)
(91.03 24.39 6.4212481e-22)
(91.03 24.39 -1.728281e-18)
(91.03 24.39 -7.5214571e-22)
(91.03 24.39 1.3728375e-18)
(91.03 24.39 1.2188973e-18)
(91.03 24.39 2.1598947e-18)
(91.03 24.39 -4.673589e-22)
(91.03 24.39 3.3841972e-18)
(91.03 24.39 2.9833613e-18)
(91.03 24.39 -7.7118339e-30)
(91.03 24.39 3.4521918e-18)
(91.03 24.39 -1.5386456e-18)
(91.03 24.39 -1.3707501e-18)
(91.03 24.39 5.9438288e-22)
(91.03 24.39 0)
(91.03 24.39 -1.9132903e-18)
(91.03 24.39 -1.6906674e-18)
(91.03 24.39 -1.4927911e-18)
(91.03 24.39 -1.3142066e-18)
(91.03 24.39 -1.7239621e-18)
(91.03 24.39 3.7536547e-22)
(91.03 24.39 -1.3688849e-18)
(91.03 24.39 5.9359054e-22)
(91.03 24.39 5.2714605e-22)
(91.03 24.39 1.9118377e-18)
(91.03 24.39 -1.6900444e-18)
(91.03 24.39 1.4917307e-18)
(91.03 24.39 -1.3147469e-18)
(91.03 24.39 4.2062534e-22)
(91.03 24.39 1.5354736e-18)
(91.03 24.39 1.3676105e-18)
(91.03 24.39 3.1238706e-36)
(91.03 24.39 2.1567032e-18)
(91.03 24.39 -4.6640973e-22)
(91.03 24.39 3.3804531e-18)
(91.03 24.39 -2.9830845e-18)
(91.03 24.39 1.3146509e-18)
(91.03 24.39 1.7204216e-18)
(91.03 24.39 -2.850974e-33)
(91.03 24.39 -1.3655129e-18)
(91.03 24.39 -5.9266533e-22)
(91.03 24.39 -4.3101586e-18)
(91.03 24.39 -4.6618111e-22)
(91.03 24.39 -1.6883985e-18)
(91.03 24.39 1.491169e-18)
(91.03 24.39 -1.7183114e-18)
(91.03 24.39 -1.5321949e-18)
(91.03 24.39 2.7285963e-18)
(91.03 24.39 -1.2128644e-18)
(91.03 24.39 4.3102058e-18)
(91.03 24.39 0)
(91.03 24.39 0)
(91.03 24.39 0)
(91.03 24.39 9.5983118e-19)
(91.03 24.39 0)
(91.03 24.39 0)
(91.03 24.39 -1.3624458e-18)
(91.03 24.39 1.2107879e-18)
(91.03 24.39 -2.1521926e-18)
(91.03 24.39 0)
(91.03 24.39 0)
(91.03 24.39 1.4913041e-18)
(91.03 24.39 9.5969007e-19)
(91.03 24.39 -1.7140242e-18)
(91.03 24.39 0)
(91.03 24.39 6.6515487e-22)
(91.03 24.39 -1.2123253e-18)
(91.03 24.39 0)
(91.03 24.39 0)
(91.03 24.39 1.6871741e-18)
(91.03 24.39 -1.4902951e-18)
(91.03 24.39 -1.9177186e-18)
(91.03 24.39 1.7121463e-18)
(91.03 24.39 0)
(91.03 24.39 -1.3618429e-18)
(91.03 24.39 1.2108814e-18)
(91.03 24.39 0)
(91.03 24.39 0)
(91.03 24.39 -1.6866459e-18)
(91.03 24.39 -1.490751e-18)
(91.03 24.39 1.9143096e-18)
(91.03 24.39 -4.1756142e-22)
(91.03 24.39 -1.5266869e-18)
(91.03 24.39 1.3611884e-18)
(91.03 24.39 0)
(91.03 24.39 0)
(91.03 24.39 -4.6506422e-22)
(91.03 24.39 1.6865444e-18)
(91.03 24.39 1.4898236e-18)
(91.03 24.39 -1.9114863e-18)
(91.03 24.39 0)
(91.03 24.39 1.525645e-18)
(91.03 24.39 0)
(91.03 24.39 0)
(91.03 24.39 -2.1481764e-18)
(91.03 24.39 0)
(91.03 24.39 -8.2344705e-22)
(91.03 24.39 1.4545644e-21)
(91.03 24.39 0)
(91.03 24.39 -4.6615301e-22)
(91.03 24.39 -1.706582e-18)
(91.03 24.39 0)
(91.03 24.39 1.3569297e-18)
(91.03 24.39 -1.2084951e-18)
(91.03 24.39 2.1459644e-18)
(91.03 24.39 1.9044868e-18)
(91.03 24.39 -1.6867017e-18)
(91.03 24.39 -1.4885071e-18)
(91.03 24.39 1.064973e-18)
(91.03 24.39 9.3151027e-22)
(91.03 24.39 1.7051819e-18)
(91.03 24.39 -3.7166456e-22)
(91.03 24.39 -1.3565767e-18)
(91.03 24.39 1.2071018e-18)
(91.03 24.39 5.2383019e-22)
(91.03 24.39 2.9490114e-33)
(91.03 24.39 0)
(91.03 24.39 -1.0645771e-18)
(91.03 24.39 9.5387731e-19)
(91.03 24.39 1.7045357e-18)
(91.03 24.39 0)
(91.03 24.39 0)
(91.03 24.39 0)
(91.03 24.39 -2.1456147e-18)
(91.03 24.39 -1.9020881e-18)
(91.03 24.39 -1.6850314e-18)
(91.03 24.39 -1.0633595e-18)
(91.03 24.39 0)
(91.03 24.39 3.1655696e-33)
(91.03 24.39 7.4206322e-22)
(91.03 24.39 -1.3560149e-18)
(91.03 24.39 5.8928358e-22)
(91.03 24.39 2.1440483e-18)
(91.03 24.39 0)
(91.03 24.39 1.6854206e-18)
(91.03 24.39 1.0613523e-18)
(91.03 24.39 0)
(91.03 24.39 -1.7013969e-18)
(91.03 24.39 -7.4188075e-22)
(91.03 24.39 1.3551422e-18)
(91.03 24.39 5.8893897e-22)
(91.03 24.39 -2.1435555e-18)
(91.03 24.39 1.9016125e-18)
(91.03 24.39 1.6833565e-18)
(91.03 24.39 -2.8850405e-22)
(91.03 24.39 5.1767376e-22)
(91.03 24.39 -4.6372508e-22)
(91.03 24.39 -1.6994736e-18)
(91.03 24.39 0)
(91.03 24.39 0)
(91.03 24.39 0)
(91.03 24.39 2.1414942e-18)
(91.03 24.39 -1.9000279e-18)
(91.03 24.39 -3.365985e-18)
(91.03 24.39 -1.1810807e-18)
(91.03 24.39 0)
(91.03 24.39 4.633576e-22)
(91.03 24.39 1.6974421e-18)
(91.03 24.39 3.7012707e-22)
(91.03 24.39 2.8968731e-35)
(91.03 24.39 2.8231246e-36)
(91.03 24.39 -5.2259155e-22)
(91.03 24.39 4.6371601e-22)
(91.03 24.39 -4.1076287e-22)
(91.03 24.39 1.179743e-18)
(91.03 24.39 0)
(91.03 24.39 0)
(91.03 24.39 -1.6955949e-18)
(91.03 24.39 -3.7005701e-22)
(91.03 24.39 0)
(91.03 24.39 1.2029276e-18)
(91.03 24.39 -2.1401521e-18)
(91.03 24.39 0)
(91.03 24.39 1.6821067e-18)
(91.03 24.39 0)
(91.03 24.39 0)
(91.03 24.39 4.6241467e-22)
(91.03 24.39 3.3907519e-18)
(91.03 24.39 7.3957673e-22)
(91.03 24.39 -1.3522703e-18)
(91.03 24.39 -2.4070147e-18)
(91.03 24.39 2.139768e-18)
(91.03 24.39 1.8987749e-18)
(91.03 24.39 -1.3089435e-18)
(91.03 24.39 1.1765842e-18)
(91.03 24.39 0)
(91.03 24.39 0)
(91.03 24.39 -1.6942216e-18)
(91.03 24.39 -7.3871521e-22)
(91.03 24.39 6.5956326e-22)
(91.03 24.39 1.2028919e-18)
(91.03 24.39 0)
(91.03 24.39 -1.897118e-18)
(91.03 24.39 1.3086246e-18)
(91.03 24.39 -2.351537e-18)
(91.03 24.39 -5.1504867e-22)
(91.03 24.39 4.6160101e-22)
(91.03 24.39 -1.6937344e-18)
(91.03 24.39 1.1079306e-21)
(91.03 24.39 -6.5917562e-22)
(91.03 24.39 1.2023008e-18)
(91.03 24.39 2.1367218e-18)
(91.03 24.39 0)
(91.03 24.39 0)
(91.03 24.39 1.1753294e-18)
(91.03 24.39 -5.1488289e-22)
(91.03 24.39 0)
(91.03 24.39 3.3833052e-18)
(91.03 24.39 -1.5123473e-18)
(91.03 24.39 -4.5980695e-32)
(91.03 24.39 -1.2017773e-18)
(91.03 24.39 -4.2717966e-18)
(91.03 24.39 -9.2644666e-22)
(91.03 24.39 3.1861475e-22)
(91.03 24.39 -1.1736001e-18)
(91.03 24.39 0)
(91.03 24.39 -4.6105806e-22)
(91.03 24.39 -1.6890395e-18)
(91.03 24.39 3.9800694e-33)
(91.03 24.39 1.3477531e-18)
(91.03 24.39 0)
(91.03 24.39 4.2723834e-18)
(91.03 24.39 1.8959123e-18)
(91.03 24.39 0)
(91.03 24.39 1.1719069e-18)
(91.03 24.39 5.1396754e-22)
(91.03 24.39 0)
(91.03 24.39 -1.6882336e-18)
(91.03 24.39 1.511205e-18)
(91.03 24.39 -1.3483454e-18)
(91.03 24.39 5.8594389e-22)
(91.03 24.39 -2.134362e-18)
(91.03 24.39 -1.6671346e-30)
(91.03 24.39 0)
(91.03 24.39 0)
(91.03 24.39 0)
(91.03 24.39 -1.0517079e-18)
(91.03 24.39 0)
(91.03 24.39 1.6866571e-18)
(91.03 24.39 1.1056283e-21)
(91.03 24.39 1.3463915e-18)
(91.03 24.39 -5.8599278e-22)
(91.03 24.39 1.0419283e-21)
(91.03 24.39 -4.6259784e-22)
(91.03 24.39 -3.5290061e-22)
(91.03 24.39 -1.3002111e-18)
(91.03 24.39 -4.0701535e-36)
(91.03 24.39 -5.1279542e-22)
(91.03 24.39 0)
(91.03 24.39 -4.1184043e-22)
(91.03 24.39 -3.6832581e-22)
(91.03 24.39 -1.3457115e-18)
(91.03 24.39 5.8574661e-22)
(91.03 24.39 -5.2105004e-22)
(91.03 24.39 -1.8934076e-18)
(91.03 24.39 3.5254003e-22)
(91.03 24.39 6.3513156e-22)
(91.03 24.39 -5.7069152e-22)
(91.03 24.39 1.0499913e-18)
(91.03 24.39 0)
(91.03 24.39 4.1157243e-22)
(91.03 24.39 1.507433e-18)
(91.03 24.39 2.690763e-18)
(91.03 24.39 -5.7382857e-35)
(91.03 24.39 5.2079338e-22)
(91.03 24.39 0)
(91.03 24.39 1.2994059e-18)
(91.03 24.39 -5.7035828e-22)
(91.03 24.39 1.0501945e-18)
(91.03 24.39 -4.591101e-22)
(91.03 24.39 0)
(91.03 24.39 -3.0139311e-18)
(91.03 24.39 -6.5675495e-22)
(91.03 24.39 5.8497633e-22)
(91.03 24.39 0)
(91.03 24.39 7.7981023e-22)
(91.03 24.39 -4.7454577e-34)
(91.03 24.39 -3.1695259e-22)
(91.03 24.39 -5.6988487e-22)
(91.03 24.39 -1.0477302e-18)
(91.03 24.39 1.8792238e-18)
(91.03 24.39 -1.6842489e-18)
(91.03 24.39 -3.6755504e-22)
(91.03 24.39 -1.3443555e-18)
(91.03 24.39 1.1987793e-18)
(91.03 24.39 0)
(91.03 24.39 3.8977289e-22)
(91.03 24.39 -3.5145413e-22)
(91.03 24.39 1.2976258e-18)
(91.03 24.39 1.1663875e-18)
(91.03 24.39 0)
(91.03 24.39 -3.7576784e-18)
(91.03 24.39 1.6832477e-18)
(91.03 24.39 3.0085241e-18)
(91.03 24.39 -6.5582993e-22)
(91.03 24.39 -3.5912768e-18)
(91.03 24.39 -2.1326514e-18)
(91.03 24.39 -7.9787224e-19)
(91.03 24.39 0)
(91.03 24.39 -1.2957119e-18)
(91.03 24.39 -1.1661957e-18)
(91.03 24.39 0)
(91.03 24.39 1.877856e-18)
(91.03 24.39 -4.1081307e-22)
(91.03 24.39 -1.504157e-18)
(91.03 24.39 -2.1743037e-35)
(91.03 24.39 2.3924947e-18)
(91.03 24.39 2.1315384e-18)
(91.03 24.39 7.9585231e-19)
(91.03 24.39 -1.4369868e-18)
(91.03 24.39 -1.2946631e-18)
(91.03 24.39 0)
(91.03 24.39 0)
(91.03 24.39 4.5804711e-22)
(91.03 24.39 -4.1058768e-22)
(91.03 24.39 0)
(91.03 24.39 -1.3427326e-18)
(91.03 24.39 2.3926228e-18)
(91.03 24.39 -2.1293986e-18)
(91.03 24.39 0)
(91.03 24.39 -7.9556062e-19)
(91.03 24.39 2.8733656e-18)
(91.03 24.39 8.0175228e-34)
(91.03 24.39 1.1631982e-18)
(91.03 24.39 5.104728e-22)
(91.03 24.39 1.8761372e-18)
(91.03 24.39 1.6808765e-18)
(91.03 24.39 0)
(91.03 24.39 1.3426331e-18)
(91.03 24.39 -2.3927241e-18)
(91.03 24.39 2.1281848e-18)
(91.03 24.39 2.1495691e-22)
(91.03 24.39 -3.8836514e-22)
(91.03 24.39 -1.4355434e-18)
(91.03 24.39 2.5851662e-18)
(91.03 24.39 -2.3253392e-18)
(91.03 24.39 -5.1014736e-22)
(91.03 24.39 -1.875622e-18)
(91.03 24.39 -1.6796072e-18)
(91.03 24.39 0)
(91.03 24.39 6.5466703e-22)
(91.03 24.39 2.3900332e-18)
(91.03 24.39 5.1957827e-22)
(91.03 24.39 8.7903382e-19)
(91.03 24.39 7.9557931e-19)
(91.03 24.39 1.4338277e-18)
(91.03 24.39 -1.2923267e-18)
(91.03 24.39 1.162622e-18)
(91.03 24.39 0)
(91.03 24.39 0)
(91.03 24.39 0)
(91.03 24.39 1.501064e-18)
(91.03 24.39 -1.3404972e-18)
(91.03 24.39 -4.7816967e-18)
(91.03 24.39 -8.7866499e-19)
(91.03 24.39 -3.8796132e-22)
(91.03 24.39 6.997138e-22)
(91.03 24.39 -3.1524316e-22)
(91.03 24.39 0)
(91.03 24.39 1.0435172e-18)
(91.03 24.39 0)
(91.03 24.39 1.6772812e-18)
(91.03 24.39 -1.5004444e-18)
(91.03 24.39 1.3407415e-18)
(91.03 24.39 4.7818995e-18)
(91.03 24.39 -1.9406161e-18)
(91.03 24.39 -2.1428673e-22)
(91.03 24.39 -7.9391994e-19)
(91.03 24.39 -1.4325424e-18)
(91.03 24.39 0)
(91.03 24.39 0)
(91.03 24.39 -1.7771033e-33)
(91.03 24.39 -1.872123e-18)
(91.03 24.39 -1.6770848e-18)
(91.03 24.39 -1.4999386e-18)
(91.03 24.39 1.3389254e-18)
(91.03 24.39 -2.3902969e-18)
(91.03 24.39 9.7049864e-19)
(91.03 24.39 0)
(91.03 24.39 7.9331853e-19)
(91.03 24.39 -3.4949326e-22)
(91.03 24.39 1.2885833e-18)
(91.03 24.39 -1.1599749e-18)
(91.03 24.39 -1.042472e-18)
(91.03 24.39 3.7432969e-18)
(91.03 24.39 0)
(91.03 24.39 1.5000986e-18)
(91.03 24.39 -1.3391481e-18)
(91.03 24.39 2.3890889e-18)
(91.03 24.39 9.6946523e-19)
(91.03 24.39 4.281742e-22)
(91.03 24.39 -3.8707872e-22)
(91.03 24.39 3.4903007e-22)
(91.03 24.39 -1.287616e-18)
(91.03 24.39 1.159439e-18)
(91.03 24.39 0)
(91.03 24.39 -1.8707523e-18)
(91.03 24.39 -1.6761747e-18)
(91.03 24.39 1.4995491e-18)
(91.03 24.39 -1.3394463e-18)
(91.03 24.39 -2.4553531e-30)
(91.03 24.39 -9.6828318e-19)
(91.03 24.39 0)
(91.03 24.39 -7.9217719e-19)
(91.03 24.39 -3.4864788e-22)
(91.03 24.39 3.1424363e-22)
(91.03 24.39 0)
(91.03 24.39 5.0823445e-22)
(91.03 24.39 -1.5274941e-35)
(91.03 24.39 -5.2428151e-32)
(91.03 24.39 -2.9967748e-18)
(91.03 24.39 1.338656e-18)
(91.03 24.39 -2.3865167e-18)
(91.03 24.39 -1.0683424e-18)
(91.03 24.39 -9.6707225e-19)
(91.03 24.39 0)
(91.03 24.39 3.8654204e-22)
(91.03 24.39 -6.972984e-22)
(91.03 24.39 -1.2863942e-18)
(91.03 24.39 0)
(91.03 24.39 0)
(91.03 24.39 -1.8690626e-18)
(91.03 24.39 1.6749181e-18)
(91.03 24.39 2.9950355e-18)
(91.03 24.39 0)
(91.03 24.39 2.386561e-18)
(91.03 24.39 -2.6074293e-22)
(91.03 24.39 1.1080203e-32)
(91.03 24.39 4.2753312e-22)
(91.03 24.39 1.5818601e-18)
(91.03 24.39 0)
(91.03 24.39 1.2861598e-18)
(91.03 24.39 5.6482696e-22)
(91.03 24.39 5.0823717e-22)
(91.03 24.39 1.8671946e-18)
(91.03 24.39 -1.6733556e-18)
(91.03 24.39 -1.4980427e-18)
(91.03 24.39 -1.3377765e-18)
(91.03 24.39 0)
(91.03 24.39 9.1273771e-33)
(91.03 24.39 0)
(91.03 24.39 -1.5808712e-18)
(91.03 24.39 -3.4816665e-22)
(91.03 24.39 1.2859584e-18)
(91.03 24.39 1.156149e-18)
(91.03 24.39 1.0399017e-18)
(91.03 24.39 4.5567802e-22)
(91.03 24.39 3.3458037e-18)
(91.03 24.39 -3.6559739e-22)
(91.03 24.39 2.6759766e-18)
(91.03 24.39 2.6019175e-22)
(91.03 24.39 1.9316505e-18)
(91.03 24.39 -4.2658488e-22)
(91.03 24.39 7.9003443e-19)
(91.03 24.39 0)
(91.03 24.39 -1.2845037e-18)
(91.03 24.39 1.7901175e-33)
(91.03 24.39 -1.0394632e-18)
(91.03 24.39 -4.5577032e-22)
(91.03 24.39 -1.6734958e-18)
(91.03 24.39 3.6529432e-22)
(91.03 24.39 -1.3370215e-18)
(91.03 24.39 -1.4337783e-22)
(91.03 24.39 1.0650355e-18)
(91.03 24.39 -9.6598486e-19)
(91.03 24.39 8.7336349e-19)
(91.03 24.39 3.8535807e-22)
(91.03 24.39 2.6928759e-37)
(91.03 24.39 3.1344536e-22)
(91.03 24.39 -1.156367e-18)
(91.03 24.39 5.0759432e-22)
(91.03 24.39 9.8807082e-37)
(91.03 24.39 3.6561159e-35)
(91.03 24.39 -1.4963195e-18)
(91.03 24.39 0)
(91.03 24.39 1.1736289e-18)
(91.03 24.39 -1.6169073e-32)
(91.03 24.39 2.3569408e-22)
(91.03 24.39 -1.7466738e-18)
(91.03 24.39 7.8853233e-19)
(91.03 24.39 -1.4238489e-18)
(91.03 24.39 -1.2843923e-18)
(91.03 24.39 1.1289212e-21)
(91.03 24.39 -5.0740016e-22)
(91.03 24.39 0)
(91.03 24.39 0)
(91.03 24.39 1.4963928e-18)
(91.03 24.39 0)
(91.03 24.39 -2.3462402e-18)
(91.03 24.39 -1.0651765e-18)
(91.03 24.39 0)
(91.03 24.39 4.2625311e-22)
(91.03 24.39 -3.8520444e-22)
(91.03 24.39 1.4238574e-18)
(91.03 24.39 -2.5850298e-33)
(91.03 24.39 0)
(91.03 24.39 5.0705967e-22)
(91.03 24.39 -4.5530497e-22)
(91.03 24.39 0)
(91.03 24.39 -1.4946448e-18)
(91.03 24.39 -1.304714e-21)
(91.03 24.39 -6.4569995e-19)
(91.03 24.39 2.3450985e-18)
(91.03 24.39 -2.599017e-22)
(91.03 24.39 0)
(91.03 24.39 -1.1215542e-32)
(91.03 24.39 -7.8851393e-19)
(91.03 24.39 -1.4232114e-18)
(91.03 24.39 2.5652903e-18)
(91.03 24.39 2.6647859e-35)
(91.03 24.39 -1.0384989e-18)
(91.03 24.39 9.098064e-22)
(91.03 24.39 -4.077675e-22)
(91.03 24.39 1.4943458e-18)
(91.03 24.39 0)
(91.03 24.39 1.2906181e-18)
(91.03 24.39 -1.1723637e-18)
(91.03 24.39 0)
(91.03 24.39 9.6395519e-19)
(91.03 24.39 1.7428208e-18)
(91.03 24.39 7.8787645e-19)
(91.03 24.39 -6.9473506e-22)
(91.03 24.39 -1.2815105e-18)
(91.03 24.39 5.6381388e-22)
(91.03 24.39 2.0744253e-18)
(91.03 24.39 -1.8627473e-18)
(91.03 24.39 0)
(91.03 24.39 1.4946935e-18)
(91.03 24.39 1.5748187e-22)
(91.03 24.39 -1.1721795e-18)
(91.03 24.39 -1.0634091e-18)
(91.03 24.39 -9.6309096e-19)
(91.03 24.39 -8.7109329e-19)
(91.03 24.39 -7.8663519e-19)
(91.03 24.39 -3.4722579e-22)
(91.03 24.39 -6.2565563e-22)
(91.03 24.39 4.5837004e-35)
(91.03 24.39 -2.0750184e-18)
(91.03 24.39 4.5491168e-22)
(91.03 24.39 -4.0768003e-22)
(91.03 24.39 -1.4943647e-18)
(91.03 24.39 -7.0923564e-19)
(91.03 24.39 -6.4464381e-19)
(91.03 24.39 1.1712152e-18)
(91.03 24.39 1.0628792e-18)
(91.03 24.39 0)
(91.03 24.39 0)
(91.03 24.39 -3.8425975e-22)
(91.03 24.39 1.4223828e-18)
(91.03 24.39 -9.3758506e-22)
(91.03 24.39 1.1268795e-21)
(91.03 24.39 1.03645e-18)
(91.03 24.39 -6.3484688e-33)
(91.03 24.39 1.6689625e-18)
(91.03 24.39 1.4955511e-18)
(91.03 24.39 -7.0919969e-19)
(91.03 24.39 1.5742636e-22)
(91.03 24.39 -2.8599219e-22)
(91.03 24.39 2.5936973e-22)
(91.03 24.39 9.6218011e-19)
(91.03 24.39 -4.250951e-22)
(91.03 24.39 1.5747169e-18)
(91.03 24.39 -3.4696586e-22)
(91.03 24.39 1.2808001e-18)
(91.03 24.39 -5.632711e-22)
(91.03 24.39 5.0643744e-22)
(91.03 24.39 1.8624041e-18)
(91.03 24.39 -1.6687047e-18)
(91.03 24.39 -1.494569e-18)
(91.03 24.39 7.0867809e-19)
(91.03 24.39 -6.4485646e-19)
(91.03 24.39 0)
(91.03 24.39 1.0619098e-18)
(91.03 24.39 -9.622686e-19)
(91.03 24.39 8.492959e-22)
(91.03 24.39 -1.5741409e-18)
(91.03 24.39 0)
(91.03 24.39 -1.2808613e-18)
(91.03 24.39 5.6311151e-22)
(91.03 24.39 -5.0612967e-22)
(91.03 24.39 0)
(91.03 24.39 1.6693291e-18)
(91.03 24.39 0)
(91.03 24.39 -1.5573312e-18)
(91.03 24.39 -7.0835557e-19)
(91.03 24.39 -1.1981778e-33)
(91.03 24.39 -1.170385e-18)
(91.03 24.39 -2.1229661e-18)
(91.03 24.39 0)
(91.03 24.39 -4.2465446e-22)
(91.03 24.39 -1.5724666e-18)
(91.03 24.39 -1.4193097e-18)
(91.03 24.39 3.126228e-22)
(91.03 24.39 1.1522627e-18)
(91.03 24.39 0)
(91.03 24.39 0)
(91.03 24.39 -1.6681218e-18)
(91.03 24.39 -7.2910437e-22)
(91.03 24.39 1.5565152e-18)
(91.03 24.39 7.0854784e-19)
(91.03 24.39 6.4430119e-19)
(91.03 24.39 1.169924e-18)
(91.03 24.39 1.0610864e-18)
(91.03 24.39 -4.6940263e-22)
(91.03 24.39 6.5791506e-37)
(91.03 24.39 3.1458874e-18)
(91.03 24.39 1.418608e-18)
(91.03 24.39 1.2804855e-18)
(91.03 24.39 -1.151996e-18)
(91.03 24.39 0)
(91.03 24.39 1.8617615e-18)
(91.03 24.39 -4.0698314e-22)
(91.03 24.39 -1.4922994e-18)
(91.03 24.39 -7.780135e-19)
(91.03 24.39 0)
(91.03 24.39 6.4389837e-19)
(91.03 24.39 1.4276072e-22)
(91.03 24.39 0)
(91.03 24.39 9.610311e-19)
(91.03 24.39 -4.2430779e-22)
(91.03 24.39 -1.5712885e-18)
(91.03 24.39 1.4194843e-18)
(91.03 24.39 -1.2798697e-18)
(91.03 24.39 0)
(91.03 24.39 -1.0362859e-18)
(91.03 24.39 -1.8610088e-18)
(91.03 24.39 0)
(91.03 24.39 8.5408805e-19)
(91.03 24.39 7.7772825e-19)
(91.03 24.39 0)
(91.03 24.39 -6.4382404e-19)
(91.03 24.39 -2.8542475e-22)
(91.03 24.39 2.5888143e-22)
(91.03 24.39 -1.6362769e-33)
(91.03 24.39 4.2426532e-22)
(91.03 24.39 -3.8351538e-22)
(91.03 24.39 -1.4191632e-18)
(91.03 24.39 1.2799053e-18)
(91.03 24.39 1.1522276e-18)
(91.03 24.39 1.0361108e-18)
(91.03 24.39 0)
(91.03 24.39 -8.1464279e-22)
(91.03 24.39 -8.5382978e-19)
(91.03 24.39 -7.772738e-19)
(91.03 24.39 -7.0806667e-19)
(91.03 24.39 -6.4377023e-19)
(91.03 24.39 1.1684363e-18)
(91.03 24.39 0)
(91.03 24.39 -9.5999823e-19)
(91.03 24.39 8.6912862e-19)
(91.03 24.39 -1.5722889e-18)
(91.03 24.39 -1.4185084e-18)
(91.03 24.39 -1.2790291e-18)
(91.03 24.39 5.6251329e-22)
(91.03 24.39 -5.0572168e-22)
(91.03 24.39 1.8594329e-18)
(91.03 24.39 -1.6674008e-18)
(91.03 24.39 0)
(91.03 24.39 -9.4931499e-23)
(91.03 24.39 7.0803969e-19)
(91.03 24.39 1.2868401e-18)
(91.03 24.39 -1.167294e-18)
(91.03 24.39 0)
(91.03 24.39 9.6029599e-19)
(91.03 24.39 -1.7371299e-18)
(91.03 24.39 1.5708957e-18)
(91.03 24.39 2.8371127e-18)
(91.03 24.39 0)
(91.03 24.39 -1.1518476e-18)
(91.03 24.39 0)
(91.03 24.39 -1.8607472e-18)
(91.03 24.39 1.6684742e-18)
(91.03 24.39 -4.6817781e-19)
(91.03 24.39 0)
(91.03 24.39 0)
(91.03 24.39 0)
(91.03 24.39 -1.4946419e-33)
(91.03 24.39 0)
(91.03 24.39 0)
(91.03 24.39 3.4189437e-33)
(91.03 24.39 8.6786223e-19)
(91.03 24.39 1.1873997e-36)
(91.03 24.39 -2.8362684e-18)
(91.03 24.39 -1.2768875e-18)
(91.03 24.39 -2.7510569e-35)
(91.03 24.39 -5.0541176e-22)
(91.03 24.39 4.5412957e-22)
(91.03 24.39 -1.2209544e-21)
(91.03 24.39 0)
(91.03 24.39 8.533594e-19)
(91.03 24.39 0)
(91.03 24.39 -7.0769823e-19)
(91.03 24.39 1.5700372e-22)
(91.03 24.39 0)
(91.03 24.39 -2.5861664e-22)
(91.03 24.39 -9.5957856e-19)
(91.03 24.39 -8.677001e-19)
(91.03 24.39 -3.8326792e-22)
(91.03 24.39 1.4180887e-18)
(91.03 24.39 1.2779481e-18)
(91.03 24.39 1.1508573e-18)
(91.03 24.39 5.0566072e-22)
(91.03 24.39 -1.8593532e-18)
(91.03 24.39 1.6667722e-18)
(91.03 24.39 5.1307727e-19)
(91.03 24.39 2.8562386e-23)
(91.03 24.39 -8.5379983e-19)
(91.03 24.39 0)
(91.03 24.39 7.0753559e-19)
(91.03 24.39 -6.4310403e-19)
(91.03 24.39 -2.8505641e-22)
(91.03 24.39 -1.0588314e-18)
(91.03 24.39 -4.6857491e-22)
(91.03 24.39 8.6787603e-19)
(91.03 24.39 3.8339272e-22)
(91.03 24.39 0)
(91.03 24.39 -1.2785903e-18)
(91.03 24.39 -1.1514384e-18)
(91.03 24.39 2.0710152e-18)
(91.03 24.39 1.8581945e-18)
(91.03 24.39 -1.6662889e-18)
(91.03 24.39 1.2524658e-22)
(91.03 24.39 -1.142108e-22)
(91.03 24.39 0)
(91.03 24.39 9.490378e-23)
(91.03 24.39 -7.073493e-19)
(91.03 24.39 6.4282422e-19)
(91.03 24.39 2.8500522e-22)
(91.03 24.39 -2.5852357e-22)
(91.03 24.39 0)
(91.03 24.39 -4.2398671e-22)
(91.03 24.39 3.8334387e-22)
(91.03 24.39 0)
(91.03 24.39 -4.7332229e-32)
(91.03 24.39 0)
(91.03 24.39 -2.0696555e-18)
(91.03 24.39 -1.858716e-18)
(91.03 24.39 -2.7438075e-22)
(91.03 24.39 0)
(91.03 24.39 -4.6805923e-19)
(91.03 24.39 0)
(91.03 24.39 0)
(91.03 24.39 7.0703813e-19)
(91.03 24.39 -6.4303294e-19)
(91.03 24.39 1.1674873e-18)
(91.03 24.39 -6.3963551e-33)
(91.03 24.39 -9.5859115e-19)
(91.03 24.39 -8.4797629e-22)
(91.03 24.39 3.8330348e-22)
(91.03 24.39 -3.4607732e-22)
(91.03 24.39 1.278679e-18)
(91.03 24.39 -5.6214593e-22)
(91.03 24.39 5.0526295e-22)
(91.03 24.39 1.8601466e-18)
(91.03 24.39 0)
(91.03 24.39 -6.2631695e-23)
(91.03 24.39 4.6836426e-19)
(91.03 24.39 0)
(91.03 24.39 0)
(91.03 24.39 -1.725938e-22)
(91.03 24.39 1.5689437e-22)
(91.03 24.39 -1.167068e-18)
(91.03 24.39 1.0586504e-18)
(91.03 24.39 -1.4855039e-34)
(91.03 24.39 -8.6819936e-19)
(91.03 24.39 -3.83275e-22)
(91.03 24.39 3.4583704e-22)
(91.03 24.39 1.2785336e-18)
(91.03 24.39 -1.1511483e-18)
(91.03 24.39 5.0554815e-22)
(91.03 24.39 -1.860127e-18)
(91.03 24.39 1.3716128e-22)
(91.03 24.39 -1.2522738e-22)
(91.03 24.39 -7.1449346e-24)
(91.03 24.39 -8.5340471e-19)
(91.03 24.39 -4.7431061e-23)
(91.03 24.39 0)
(91.03 24.39 6.4258006e-19)
(91.03 24.39 -1.1669695e-18)
(91.03 24.39 0)
(91.03 24.39 -4.6836542e-22)
(91.03 24.39 8.6857349e-19)
(91.03 24.39 0)
(91.03 24.39 -3.4584241e-22)
(91.03 24.39 -1.2767743e-18)
(91.03 24.39 -5.61463e-22)
(91.03 24.39 5.0554699e-22)
(91.03 24.39 1.8592337e-18)
(91.03 24.39 3.0030945e-22)
(91.03 24.39 1.3714732e-22)
(91.03 24.39 -1.2516009e-22)
(91.03 24.39 0)
(91.03 24.39 8.5311065e-19)
(91.03 24.39 0)
(91.03 24.39 0)
(91.03 24.39 -6.4285129e-19)
(91.03 24.39 5.6977573e-22)
(91.03 24.39 1.0582574e-18)
(91.03 24.39 9.5917079e-19)
(91.03 24.39 8.6817419e-19)
(91.03 24.39 0)
(91.03 24.39 0)
(91.03 24.39 -1.2774672e-18)
(91.03 24.39 1.1505197e-18)
(91.03 24.39 5.0547293e-22)
(91.03 24.39 -1.8591173e-18)
(91.03 24.39 -6.1484009e-19)
(91.03 24.39 -1.3712661e-22)
(91.03 24.39 1.2517259e-22)
(91.03 24.39 0)
(91.03 24.39 -5.2066741e-23)
(91.03 24.39 -4.7424806e-23)
(91.03 24.39 8.6289918e-23)
(91.03 24.39 3.1372635e-22)
(91.03 24.39 -2.8487814e-22)
(91.03 24.39 -2.1169735e-18)
(91.03 24.39 -9.5915121e-19)
(91.03 24.39 -8.6816287e-19)
(91.03 24.39 -3.8324508e-22)
(91.03 24.39 6.9211299e-22)
(91.03 24.39 1.2779593e-18)
(91.03 24.39 1.1517999e-18)
(91.03 24.39 2.0682455e-18)
(91.03 24.39 1.8590264e-18)
(91.03 24.39 -6.5712783e-22)
(91.03 24.39 1.7442469e-30)
(91.03 24.39 2.7427463e-22)
(91.03 24.39 5.1306524e-19)
(91.03 24.39 -4.6819062e-19)
(91.03 24.39 3.2548923e-24)
(91.03 24.39 7.7698855e-19)
(91.03 24.39 0)
(91.03 24.39 6.4281577e-19)
(91.03 24.39 -5.697509e-22)
(91.03 24.39 1.0587413e-18)
(91.03 24.39 1.918307e-18)
(91.03 24.39 0)
(91.03 24.39 0)
(91.03 24.39 -1.4171328e-18)
(91.03 24.39 3.1208787e-22)
(91.03 24.39 -1.1518107e-18)
(91.03 24.39 -2.0684997e-18)
(91.03 24.39 0)
(91.03 24.39 6.7313323e-19)
(91.03 24.39 6.1494982e-19)
(91.03 24.39 0)
(91.03 24.39 -5.1329518e-19)
(91.03 24.39 -5.7151436e-23)
(91.03 24.39 0)
(91.03 24.39 -7.7699032e-19)
(91.03 24.39 -7.0687751e-19)
(91.03 24.39 -6.4250577e-19)
(91.03 24.39 1.1668624e-18)
(91.03 24.39 0)
(91.03 24.39 -9.5853615e-19)
(91.03 24.39 0)
(91.03 24.39 0)
(91.03 24.39 2.8350701e-18)
(91.03 24.39 6.2420438e-22)
(91.03 24.39 -1.1511772e-18)
(91.03 24.39 0)
(91.03 24.39 -3.6758706e-19)
(91.03 24.39 -6.731336e-19)
(91.03 24.39 0)
(91.03 24.39 -1.372235e-22)
(91.03 24.39 -5.1311542e-19)
(91.03 24.39 4.6810721e-19)
(91.03 24.39 8.5332302e-19)
(91.03 24.39 -7.7701274e-19)
(91.03 24.39 7.0707312e-19)