/*--------------------------------*- C++ -*----------------------------------*\
| =========                 |                                                 |
| \\      /  F ield         | OpenFOAM: The Open Source CFD Toolbox           |
|  \\    /   O peration     | Version:  2506                                  |
|   \\  /    A nd           | Website:  www.openfoam.com                      |
|    \\/     M anipulation  |                                                 |
\*---------------------------------------------------------------------------*/
FoamFile
{
    version     2.0;
    format      ascii;
    arch        "LSB;label=32;scalar=64";
    class       volScalarField;
    location    "0.0235";
    object      alphat;
}
// * * * * * * * * * * * * * * * * * * * * * * * * * * * * * * * * * * * * * //

dimensions      [1 -1 -1 0 0 0 0];

internalField   nonuniform List<scalar> 
192657
(
2.1612625e-05
6.5956456e-06
6.5734768e-06
6.5991325e-06
6.5836643e-06
6.5941998e-06
6.5922944e-06
6.6001546e-06
6.6049641e-06
6.5979266e-06
6.5819712e-06
6.5706894e-06
6.5745468e-06
6.5915022e-06
6.5904953e-06
6.5770894e-06
6.5782539e-06
6.5864354e-06
6.5792205e-06
6.5782046e-06
6.580733e-06
6.5791912e-06
6.578767e-06
6.5792278e-06
6.580336e-06
6.5816437e-06
6.5821003e-06
6.5786779e-06
6.5715624e-06
6.5713417e-06
6.5809528e-06
6.5970787e-06
6.6173861e-06
6.637317e-06
6.6622761e-06
6.6869573e-06
6.700005e-06
6.6904168e-06
6.6594586e-06
6.642708e-06
6.6289124e-06
6.6052969e-06
6.571651e-06
6.5423348e-06
6.5228643e-06
6.5116286e-06
6.5038583e-06
6.4962241e-06
6.4914912e-06
6.4911668e-06
6.4925338e-06
6.4941451e-06
6.4986224e-06
6.504444e-06
6.5101928e-06
6.5158017e-06
6.5227387e-06
6.5294391e-06
6.5336234e-06
6.5362289e-06
6.5328256e-06
6.5147384e-06
6.457723e-06
6.3794564e-06
6.3762063e-06
6.4527676e-06
6.6168953e-06
6.7020564e-06
6.7240303e-06
6.7182419e-06
6.7197153e-06
6.7465554e-06
6.7859819e-06
6.8315251e-06
6.8804518e-06
6.9328255e-06
6.9913729e-06
7.0575087e-06
7.1291733e-06
7.2052525e-06
7.2886397e-06
7.383736e-06
7.4940299e-06
7.6169602e-06
7.7512808e-06
7.8994649e-06
8.064788e-06
8.2502994e-06
8.4572305e-06
8.6847503e-06
8.9335184e-06
9.2082441e-06
9.5150827e-06
9.8626815e-06
1.0261528e-05
1.0722613e-05
1.1259216e-05
1.187787e-05
1.2566614e-05
1.3282239e-05
1.3997169e-05
1.4718209e-05
1.5462693e-05
1.6223831e-05
1.6949848e-05
1.7584442e-05
1.8632097e-05
3.3098053e-05
0.00011119701
0.00021813795
0.0003020489
0.00036386006
0.00040972366
0.00044301077
0.00046580376
0.00047963583
0.00048578087
0.00048533261
0.00047935265
0.00046862193
0.00045352843
0.00043487118
0.00041364961
0.00039057943
0.000366236
0.0003410867
0.0003155371
0.00028992595
0.00026454145
0.00023961836
0.00021534912
0.00019192596
0.00016948946
0.00014811742
0.00012787419
0.00010876799
9.0825121e-05
7.4109385e-05
5.8701395e-05
4.4698426e-05
3.2243909e-05
2.153763e-05
1.2821924e-05
6.3522528e-06
2.3279765e-06
5.379672e-07
6.4690108e-08
3.6686654e-09
1.2324703e-09
2.1607662e-05
6.5955626e-06
6.5734646e-06
6.5991166e-06
6.5836616e-06
6.5941878e-06
6.5922893e-06
6.6001311e-06
6.6050076e-06
6.5980477e-06
6.5820861e-06
6.5706955e-06
6.5744378e-06
6.5913841e-06
6.5906215e-06
6.5771398e-06
6.5782126e-06
6.5864255e-06
6.5792595e-06
6.5782032e-06
6.5807378e-06
6.5792029e-06
6.5787911e-06
6.5792575e-06
6.5803585e-06
6.5816512e-06
6.5821451e-06
6.5787627e-06
6.5716666e-06
6.5713806e-06
6.5809466e-06
6.5969957e-06
6.6173181e-06
6.6373116e-06
6.662264e-06
6.6870106e-06
6.7001988e-06
6.6909321e-06
6.6599929e-06
6.6431894e-06
6.6294021e-06
6.6059366e-06
6.5723951e-06
6.5430164e-06
6.523206e-06
6.5120487e-06
6.5043755e-06
6.4968977e-06
6.4920313e-06
6.4916235e-06
6.4930886e-06
6.4947263e-06
6.4992423e-06
6.5050801e-06
6.5108418e-06
6.5164661e-06
6.5233753e-06
6.5301822e-06
6.5345032e-06
6.5373613e-06
6.5345684e-06
6.5178698e-06
6.463724e-06
6.3842043e-06
6.3782984e-06
6.4466692e-06
6.6067273e-06
6.7011841e-06
6.7262496e-06
6.7232909e-06
6.7230821e-06
6.7482548e-06
6.7873622e-06
6.8333323e-06
6.8830446e-06
6.9359238e-06
6.9948946e-06
7.0616777e-06
7.134191e-06
7.2112092e-06
7.2954325e-06
7.3918916e-06
7.5025248e-06
7.6256198e-06
7.7603554e-06
7.9090084e-06
8.0744635e-06
8.2606924e-06
8.4693754e-06
8.6989931e-06
8.9494619e-06
9.2252901e-06
9.5323113e-06
9.8782099e-06
1.0274595e-05
1.0735961e-05
1.1274237e-05
1.1897866e-05
1.2600171e-05
1.3342479e-05
1.409464e-05
1.4848301e-05
1.5624108e-05
1.6423691e-05
1.7198994e-05
1.7915728e-05
2.0010758e-05
4.2307319e-05
0.00013277267
0.00023970373
0.00031888811
0.00037651904
0.00041870511
0.0004486364
0.00046826879
0.00047913467
0.0004824622
0.00047929014
0.00047069064
0.00045761705
0.00044084357
0.00042108635
0.00039902536
0.00037525242
0.00035029784
0.00032463424
0.00029867791
0.00027279503
0.00024729394
0.00022243569
0.00019843469
0.00017545045
0.00015361185
0.00013300961
0.00011370721
9.5788851e-05
7.9321682e-05
6.4312424e-05
5.0758682e-05
3.8659233e-05
2.7991551e-05
1.87794e-05
1.1156894e-05
5.4175334e-06
1.9037733e-06
4.1935442e-07
4.8718113e-08
2.5527963e-09
6.9893402e-10
2.1688147e-05
6.5954394e-06
6.5734496e-06
6.5990842e-06
6.5836494e-06
6.5941712e-06
6.5922834e-06
6.6001063e-06
6.6050519e-06
6.598173e-06
6.5822031e-06
6.5707007e-06
6.5743254e-06
6.591263e-06
6.5907511e-06
6.5771902e-06
6.5781704e-06
6.5864164e-06
6.5792999e-06
6.5782071e-06
6.5807434e-06
6.5792162e-06
6.5788077e-06
6.5792668e-06
6.580368e-06
6.5816489e-06
6.5821926e-06
6.5788249e-06
6.5717546e-06
6.5714225e-06
6.5809475e-06
6.5969474e-06
6.6172639e-06
6.637267e-06
6.6621838e-06
6.6870319e-06
6.7004111e-06
6.6914643e-06
6.6606241e-06
6.6437458e-06
6.6299825e-06
6.6066962e-06
6.5733048e-06
6.5437634e-06
6.524839e-06
6.5126859e-06
6.5049475e-06
6.4976065e-06
6.4926602e-06
6.4921158e-06
6.4936815e-06
6.4953543e-06
6.4998963e-06
6.5057542e-06
6.5115362e-06
6.5171776e-06
6.5240282e-06
6.5309202e-06
6.5353991e-06
6.5385035e-06
6.5363783e-06
6.521171e-06
6.4701235e-06
6.3897475e-06
6.3803802e-06
6.44013e-06
6.5945695e-06
6.6991892e-06
6.7274289e-06
6.7284205e-06
6.7268602e-06
6.7496557e-06
6.7881427e-06
6.8343122e-06
6.8845257e-06
6.937736e-06
6.9968954e-06
7.064043e-06
7.1371696e-06
7.2148246e-06
7.2993467e-06
7.3957899e-06
7.5062675e-06
7.6290761e-06
7.7636656e-06
7.9120859e-06
8.0769335e-06
8.2625499e-06
8.4710198e-06
8.7006577e-06
8.9506973e-06
9.2250851e-06
9.5295039e-06
9.8706512e-06
1.0258462e-05
1.070449e-05
1.122502e-05
1.1834904e-05
1.2539893e-05
1.3319824e-05
1.4093702e-05
1.4868808e-05
1.5663088e-05
1.6489333e-05
1.7310484e-05
1.8077418e-05
1.9960514e-05
4.0946189e-05
0.00013218698
0.00024015387
0.00031903915
0.00037611493
0.00041745426
0.00044662167
0.00046550272
0.00047573828
0.00047853177
0.00047507618
0.00046625788
0.00045304518
0.00043618528
0.00041638212
0.00039436361
0.00037069072
0.00034588375
0.00032040454
0.00029466015
0.00026900998
0.00024376413
0.0002191948
0.00019552515
0.0001728821
0.00015138276
0.0001311189
0.00011214235
9.4477608e-05
7.8139411e-05
6.3172151e-05
4.9617126e-05
3.7506533e-05
2.6875937e-05
1.77957e-05
1.0413919e-05
4.9840496e-06
1.7334007e-06
3.8033712e-07
4.4252107e-08
2.3970267e-09
7.2873522e-10
2.1730089e-05
6.5952921e-06
6.5734483e-06
6.5990483e-06
6.5836371e-06
6.5941475e-06
6.5922774e-06
6.6000812e-06
6.6050967e-06
6.5983019e-06
6.5823229e-06
6.570705e-06
6.5742108e-06
6.5911377e-06
6.5908832e-06
6.5772411e-06
6.5781274e-06
6.5864114e-06
6.5793431e-06
6.5782087e-06
6.5807477e-06
6.5792316e-06
6.5788282e-06
6.5792936e-06
6.5803897e-06
6.5816702e-06
6.5822499e-06
6.5789062e-06
6.5718421e-06
6.5714615e-06
6.580934e-06
6.5968636e-06
6.6171828e-06
6.637224e-06
6.6621428e-06
6.6870156e-06
6.7006087e-06
6.692024e-06
6.6612108e-06
6.6442548e-06
6.6305119e-06
6.6074037e-06
6.5741369e-06
6.5445532e-06
6.5257391e-06
6.5133628e-06
6.5053579e-06
6.4982045e-06
6.4933141e-06
6.4925876e-06
6.4942133e-06
6.4959407e-06
6.500497e-06
6.5063888e-06
6.5122219e-06
6.5178747e-06
6.5246415e-06
6.5315645e-06
6.5362293e-06
6.5395762e-06
6.5380665e-06
6.5242466e-06
6.4762258e-06
6.3955689e-06
6.3825457e-06
6.4345786e-06
6.5820518e-06
6.6964892e-06
6.7281529e-06
6.7332028e-06
6.7307222e-06
6.751253e-06
6.7887987e-06
6.8350603e-06
6.8857117e-06
6.939338e-06
6.9987289e-06
7.0662753e-06
7.1401153e-06
7.2185276e-06
7.3034883e-06
7.4000415e-06
7.510364e-06
7.6329117e-06
7.767331e-06
7.9154652e-06
8.0796566e-06
8.2646388e-06
8.4728285e-06
8.7024159e-06
8.9523663e-06
9.2254364e-06
9.5271991e-06
9.8635557e-06
1.0243506e-05
1.0679677e-05
1.1187423e-05
1.1783857e-05
1.2476834e-05
1.3258102e-05
1.4074347e-05
1.4873048e-05
1.5688227e-05
1.6536508e-05
1.7394788e-05
1.821124e-05
1.9904082e-05
3.7782067e-05
0.00012256384
0.00023201901
0.0003116321
0.00036905155
0.0004108479
0.00044045878
0.00045970296
0.00047037799
0.0004736411
0.00047058804
0.00046217675
0.00044918949
0.0004325988
0.00041321413
0.00039165526
0.0003684484
0.00034410234
0.00031906098
0.00029371799
0.00026842088
0.0002434645
0.00021910396
0.00019555256
0.00017298238
0.00015153875
0.00013132672
0.00011241706
9.4848956e-05
7.8637348e-05
6.3779143e-05
5.0265353e-05
3.8100294e-05
2.7343408e-05
1.8101559e-05
1.0564733e-05
5.0261334e-06
1.7333475e-06
3.7734184e-07
4.3673993e-08
2.3179242e-09
6.6391778e-10
2.1785223e-05
6.5951182e-06
6.5734515e-06
6.5990285e-06
6.5836052e-06
6.5941153e-06
6.59227e-06
6.6000541e-06
6.6051418e-06
6.5984372e-06
6.5824489e-06
6.5707095e-06
6.574091e-06
6.5910061e-06
6.5910206e-06
6.5772946e-06
6.5780818e-06
6.5864053e-06
6.5793902e-06
6.5782055e-06
6.5807517e-06
6.5792488e-06
6.5788487e-06
6.5793193e-06
6.5804119e-06
6.5816922e-06
6.5823106e-06
6.5789836e-06
6.571931e-06
6.5715011e-06
6.5809111e-06
6.5967738e-06
6.617088e-06
6.6371749e-06
6.6620848e-06
6.687007e-06
6.7008227e-06
6.6925871e-06
6.6618117e-06
6.6447691e-06
6.6310559e-06
6.6081312e-06
6.5749901e-06
6.5453554e-06
6.5263758e-06
6.5137423e-06
6.505733e-06
6.4987918e-06
6.4940185e-06
6.4931246e-06
6.4947675e-06
6.4965695e-06
6.5011335e-06
6.5070573e-06
6.5129464e-06
6.5186165e-06
6.5252837e-06
6.5322151e-06
6.5370735e-06
6.5406431e-06
6.5397343e-06
6.5272436e-06
6.4822527e-06
6.4019008e-06
6.3847582e-06
6.4297075e-06
6.5692736e-06
6.6928753e-06
6.7285535e-06
6.7378166e-06
6.7351064e-06
6.7529067e-06
6.7894084e-06
6.8356755e-06
6.8866744e-06
6.940653e-06
7.0002248e-06
7.068104e-06
7.1426443e-06
7.2218196e-06
7.3072163e-06
7.4038502e-06
7.5139787e-06
7.636259e-06
7.7704329e-06
7.918164e-06
8.0815941e-06
8.2656925e-06
8.4731772e-06
8.702207e-06
8.9518622e-06
9.2237195e-06
9.5229746e-06
9.8549392e-06
1.0227579e-05
1.0652915e-05
1.1146557e-05
1.1726838e-05
1.2406384e-05
1.3177493e-05
1.4018516e-05
1.4853716e-05
1.569029e-05
1.6558241e-05
1.7449044e-05
1.8318021e-05
1.9850402e-05
3.4836286e-05
0.00011433794
0.00022495333
0.00030555233
0.00036330415
0.00040507285
0.00043446053
0.00045401425
0.00046470941
0.00046800062
0.00046502813
0.00045680413
0.00044420864
0.0004280205
0.00040894762
0.00038761471
0.00036472525
0.00034072216
0.00031602409
0.00029102082
0.00026606646
0.00024145287
0.00021742871
0.00019419721
0.00017191997
0.00015072543
0.00013069786
0.00011189515
9.4360055e-05
7.8128916e-05
6.323317e-05
4.9714301e-05
3.7609697e-05
2.6954161e-05
1.7825596e-05
1.0391189e-05
4.9345435e-06
1.6974587e-06
3.6867758e-07
4.2612161e-08
2.2559664e-09
6.4170089e-10
2.1837852e-05
6.5949562e-06
6.5734507e-06
6.5990041e-06
6.5835754e-06
6.594075e-06
6.5922619e-06
6.6000265e-06
6.6051868e-06
6.5985761e-06
6.5825777e-06
6.5707138e-06
6.5739697e-06
6.59087e-06
6.5911595e-06
6.5773487e-06
6.5780361e-06
6.5863904e-06
6.579439e-06
6.5782083e-06
6.5807556e-06
6.5792673e-06
6.5788683e-06
6.5793478e-06
6.5804355e-06
6.5817145e-06
6.5823696e-06
6.5790661e-06
6.5720252e-06
6.5715376e-06
6.5808844e-06
6.5966813e-06
6.616995e-06
6.6371215e-06
6.6620283e-06
6.6869865e-06
6.7010439e-06
6.6931513e-06
6.6624119e-06
6.6452857e-06
6.6315986e-06
6.6088676e-06
6.5758635e-06
6.5461734e-06
6.5270672e-06
6.5139413e-06
6.5061549e-06
6.4993674e-06
6.4947332e-06
6.4937426e-06
6.4953276e-06
6.4972061e-06
6.5017761e-06
6.5077324e-06
6.5136939e-06
6.5193768e-06
6.5259252e-06
6.5328523e-06
6.5379037e-06
6.5416955e-06
6.5413437e-06
6.5301225e-06
6.4881441e-06
6.4086256e-06
6.3870634e-06
6.4255796e-06
6.5564713e-06
6.6880801e-06
6.7285631e-06
6.7420987e-06
6.7398121e-06
6.7546604e-06
6.7900597e-06
6.8361992e-06
6.887455e-06
6.9417518e-06
7.0014669e-06
7.0696243e-06
7.14485e-06
7.224817e-06
7.3107104e-06
7.4074413e-06
7.5173804e-06
7.6394403e-06
7.7733407e-06
7.9205813e-06
8.0832217e-06
8.2663303e-06
8.4728515e-06
8.7010295e-06
8.95021e-06
9.2210396e-06
9.5178172e-06
9.8456475e-06
1.021125e-05
1.0626351e-05
1.1106613e-05
1.1670167e-05
1.2330861e-05
1.3089315e-05
1.392609e-05
1.4811869e-05
1.5672828e-05
1.655802e-05
1.7470252e-05
1.8378179e-05
1.9771986e-05
3.1636464e-05
0.00010281319
0.0002139215
0.00029661149
0.00035541788
0.00039786034
0.00042779685
0.00044748206
0.00045857077
0.00046235233
0.00045983938
0.00045207639
0.0004399263
0.00042420085
0.00040561516
0.00038477998
0.00036221722
0.00033851069
0.00031415196
0.00028950636
0.00026487939
0.00024055426
0.00021677573
0.00019374582
0.00017162455
0.00015054769
0.00013061835
0.00011190676
9.4458232e-05
7.8301905e-05
6.3458194e-05
4.9942169e-05
3.7791871e-05
2.706694e-05
1.7868259e-05
1.0386202e-05
4.91284e-06
1.6825362e-06
3.6411834e-07
4.1997108e-08
2.2105608e-09
6.1787181e-10
2.1893293e-05
6.5948054e-06
6.5734749e-06
6.5989769e-06
6.5835746e-06
6.5940349e-06
6.5922524e-06
6.5999966e-06
6.6052316e-06
6.5987218e-06
6.5827137e-06
6.5707202e-06
6.5738436e-06
6.5907261e-06
6.591304e-06
6.5774058e-06
6.5779883e-06
6.5863736e-06
6.5794904e-06
6.578215e-06
6.5807583e-06
6.579288e-06
6.5788873e-06
6.5793762e-06
6.5804606e-06
6.5817396e-06
6.5824318e-06
6.5791466e-06
6.5721196e-06
6.5715771e-06
6.5808528e-06
6.5965876e-06
6.6168911e-06
6.6370629e-06
6.6619592e-06
6.6869627e-06
6.7012703e-06
6.6937232e-06
6.6630234e-06
6.6458067e-06
6.6321545e-06
6.6096184e-06
6.5767555e-06
6.5469991e-06
6.5277532e-06
6.5143083e-06
6.5067596e-06
6.4999748e-06
6.4954188e-06
6.4944331e-06
6.4959147e-06
6.4978544e-06
6.5024405e-06
6.5084279e-06
6.5144531e-06
6.5201604e-06
6.5265934e-06
6.5334903e-06
6.5387391e-06
6.5427447e-06
6.5429196e-06
6.5329007e-06
6.4939037e-06
6.4157301e-06
6.3895267e-06
6.4221527e-06
6.5437975e-06
6.6819056e-06
6.7283673e-06
6.7458474e-06
6.7447744e-06
6.7567727e-06
6.7908621e-06
6.8366658e-06
6.8880774e-06
6.9426426e-06
7.0024608e-06
7.0708178e-06
7.1466558e-06
7.227401e-06
7.3138329e-06
7.4106813e-06
7.5204518e-06
7.6423439e-06
7.775974e-06
7.9226707e-06
8.0844868e-06
8.2664535e-06
8.4716602e-06
8.6985958e-06
8.9468952e-06
9.2169131e-06
9.5115194e-06
9.8355671e-06
1.019465e-05
1.0599892e-05
1.106741e-05
1.161454e-05
1.2254152e-05
1.2992331e-05
1.3822051e-05
1.4721614e-05
1.5640676e-05
1.6542039e-05
1.7473173e-05
1.8412973e-05
1.9717719e-05
2.9016753e-05
9.1665018e-05
0.00020225096
0.00028726433
0.00034720784
0.00039029515
0.00042068126
0.00044077246
0.00045221146
0.00045629847
0.00045422876
0.00044684834
0.00043505613
0.00041969539
0.00040148173
0.00038105246
0.00035897035
0.00033572728
0.00031175369
0.00028746726
0.00026318215
0.00023917452
0.00021568162
0.00019290023
0.00017098769
0.00015007939
0.00013028111
0.00011166592
9.4284146e-05
7.8172754e-05
6.3361461e-05
4.9881934e-05
3.7769325e-05
2.7071614e-05
1.7884864e-05
1.0400445e-05
4.918775e-06
1.6831784e-06
3.6388333e-07
4.1934235e-08
2.1967876e-09
6.0460607e-10
2.1950348e-05
6.5946859e-06
6.5735139e-06
6.5989698e-06
6.5836252e-06
6.5940046e-06
6.5922425e-06
6.5999658e-06
6.6052764e-06
6.5988711e-06
6.5828528e-06
6.5707263e-06
6.5737156e-06
6.5905768e-06
6.5914509e-06
6.5774633e-06
6.5779399e-06
6.586358e-06
6.5795432e-06
6.5782183e-06
6.5807608e-06
6.5793099e-06
6.5789057e-06
6.5794059e-06
6.5804866e-06
6.5817625e-06
6.5824897e-06
6.5792316e-06
6.5722196e-06
6.5716124e-06
6.5808173e-06
6.59649e-06
6.6167906e-06
6.6369989e-06
6.6618917e-06
6.6869288e-06
6.7015003e-06
6.6942882e-06
6.6636372e-06
6.6463362e-06
6.6327087e-06
6.6103789e-06
6.5776675e-06
6.5478431e-06
6.5284422e-06
6.5159147e-06
6.5074178e-06
6.5005584e-06
6.4960597e-06
6.4951841e-06
6.4965322e-06
6.4984907e-06
6.5031065e-06
6.5091235e-06
6.5152126e-06
6.5209489e-06
6.5272732e-06
6.5341367e-06
6.5395768e-06
6.5437685e-06
6.5444478e-06
6.5355742e-06
6.4995122e-06
6.4231644e-06
6.3922517e-06
6.419419e-06
6.5315692e-06
6.6743275e-06
6.7279542e-06
6.7490826e-06
6.7498721e-06
6.7594342e-06
6.7919101e-06
6.8371223e-06
6.8885924e-06
6.9433876e-06
7.0032775e-06
7.0717536e-06
7.1481052e-06
7.2296025e-06
7.3166209e-06
7.413616e-06
7.5232598e-06
7.6450517e-06
7.7784596e-06
7.9246099e-06
8.0856246e-06
8.2663977e-06
8.4700736e-06
8.6955258e-06
8.9426004e-06
9.2117806e-06
9.504413e-06
9.8247358e-06
1.0177809e-05
1.0573918e-05
1.1029507e-05
1.1560794e-05
1.2178823e-05
1.2892019e-05
1.3707096e-05
1.4610339e-05
1.5571959e-05
1.6509635e-05
1.7454777e-05
1.8414403e-05
1.9642547e-05
2.6750233e-05
7.9964543e-05
0.0001885064
0.00027655914
0.00033807916
0.00038210595
0.00041315087
0.0004337871
0.00044573839
0.00045033506
0.00044869683
0.00044182222
0.00043050662
0.00041562497
0.00039786594
0.0003778686
0.00035620525
0.00033337562
0.00030980532
0.00028586036
0.00026190445
0.00023819162
0.00021495449
0.00019239382
0.00017066822
0.00014991395
0.00013023737
0.00011171172
9.4388779e-05
7.8308402e-05
6.3502706e-05
5.0005693e-05
3.786188e-05
2.7128107e-05
1.7909996e-05
1.0403447e-05
4.9124591e-06
1.677941e-06
3.6218522e-07
4.1697992e-08
2.1773103e-09
5.9304174e-10
2.200912e-05
6.5945919e-06
6.5735185e-06
6.5989891e-06
6.5836999e-06
6.5939853e-06
6.5922317e-06
6.5999327e-06
6.6053207e-06
6.5990277e-06
6.583e-06
6.5707355e-06
6.5735828e-06
6.5904187e-06
6.5916039e-06
6.577525e-06
6.5778882e-06
6.5863417e-06
6.5795993e-06
6.5782205e-06
6.5807637e-06
6.5793328e-06
6.5789244e-06
6.5794354e-06
6.5805136e-06
6.5817865e-06
6.5825498e-06
6.579312e-06
6.5723178e-06
6.5716506e-06
6.5807787e-06
6.5963942e-06
6.6166772e-06
6.6369317e-06
6.6618105e-06
6.686895e-06
6.7017295e-06
6.6948608e-06
6.6642685e-06
6.6468725e-06
6.6332775e-06
6.6111517e-06
6.5785994e-06
6.5486962e-06
6.5291453e-06
6.5168062e-06
6.5078252e-06
6.5010559e-06
6.4966647e-06
6.4959382e-06
6.4971963e-06
6.4991175e-06
6.503783e-06
6.5098303e-06
6.5159609e-06
6.5217402e-06
6.5279853e-06
6.5348095e-06
6.5404306e-06
6.5448026e-06
6.5459511e-06
6.5381606e-06
6.5049599e-06
6.4308852e-06
6.3952492e-06
6.417352e-06
6.5199138e-06
6.665397e-06
6.7272285e-06
6.7516502e-06
6.7549747e-06
6.7626295e-06
6.7932075e-06
6.8375741e-06
6.8890071e-06
6.9439925e-06
7.0039288e-06
7.0724303e-06
7.1491557e-06
7.2313378e-06
7.3189606e-06
7.4161319e-06
7.5256981e-06
7.6474457e-06
7.7807e-06
7.9263463e-06
8.0865669e-06
8.2660632e-06
8.467967e-06
8.6916339e-06
8.9371773e-06
9.2054846e-06
9.4966861e-06
9.813466e-06
1.016095e-05
1.0548625e-05
1.0993063e-05
1.1509196e-05
1.2106043e-05
1.2792707e-05
1.3584889e-05
1.4486868e-05
1.5464851e-05
1.6467105e-05
1.7424442e-05
1.8399557e-05
1.9573235e-05
2.4987904e-05
6.9024246e-05
0.00017378907
0.00026505122
0.00032838266
0.00037349214
0.00040528586
0.00042652416
0.00043901111
0.00044411042
0.00044296116
0.00043656879
0.00042590057
0.00041154386
0.0003942441
0.00037466794
0.00035339527
0.00033092386
0.00030768832
0.00028407178
0.00026041789
0.00023698455
0.00021399303
0.00019165167
0.00017011721
0.00014952064
0.00012996801
0.00011153715
9.4285419e-05
7.8256846e-05
6.3487114e-05
5.0013689e-05
3.7883089e-05
2.7153625e-05
1.7932179e-05
1.0418346e-05
4.9196372e-06
1.6800319e-06
3.625129e-07
4.1721679e-08
2.1733718e-09
5.8721722e-10
2.2069587e-05
6.5944792e-06
6.5735021e-06
6.5990173e-06
6.5837595e-06
6.5939766e-06
6.5922219e-06
6.5998986e-06
6.6053648e-06
6.5991883e-06
6.5831508e-06
6.5707438e-06
6.5734484e-06
6.5902555e-06
6.5917595e-06
6.577588e-06
6.5778352e-06
6.5863199e-06
6.5796566e-06
6.5782305e-06
6.5807675e-06
6.5793549e-06
6.578942e-06
6.5794651e-06
6.5805406e-06
6.5818075e-06
6.5826053e-06
6.5793969e-06
6.5724235e-06
6.5716836e-06
6.580738e-06
6.5962939e-06
6.6165684e-06
6.6368578e-06
6.661733e-06
6.6868536e-06
6.7019585e-06
6.6954236e-06
6.6649077e-06
6.6474209e-06
6.6338427e-06
6.6119318e-06
6.5795456e-06
6.5495685e-06
6.5298538e-06
6.5174515e-06
6.5080399e-06
6.5014693e-06
6.4972594e-06
6.4966728e-06
6.4979062e-06
6.4997275e-06
6.5044451e-06
6.5105204e-06
6.5166861e-06
6.5225172e-06
6.528705e-06
6.5355044e-06
6.5413001e-06
6.5458299e-06
6.5474155e-06
6.5406569e-06
6.5102291e-06
6.4388443e-06
6.3984224e-06
6.4159423e-06
6.5089941e-06
6.655206e-06
6.726096e-06
6.7534879e-06
6.7599796e-06
6.7663519e-06
6.7947141e-06
6.8380516e-06
6.8893631e-06
6.9445005e-06
7.0044675e-06
7.0729075e-06
7.1498643e-06
7.2326494e-06
7.3208781e-06
7.4182478e-06
7.5277867e-06
7.6495437e-06
7.7827406e-06
7.9279865e-06
8.0874997e-06
8.265747e-06
8.465789e-06
8.6874699e-06
8.9312469e-06
9.1983711e-06
9.4882965e-06
9.8018055e-06
1.014399e-05
1.0524156e-05
1.0958259e-05
1.1459935e-05
1.2036546e-05
1.2697132e-05
1.3462413e-05
1.4351176e-05
1.5341442e-05
1.6376964e-05
1.7382269e-05
1.8367557e-05
1.9494563e-05
2.3574713e-05
5.8725657e-05
0.00015789402
0.00025252716
0.00031805744
0.00036449163
0.00039718734
0.00041912979
0.00043222156
0.00043786807
0.00043722769
0.00043131202
0.00042102463
0.00040718049
0.00039037864
0.00037128506
0.00035048599
0.00032847645
0.0003056833
0.00028247199
0.00025913685
0.0002359861
0.000213278
0.00019117591
0.00016983537
0.00014939181
0.0001299575
0.00011161378
9.442256e-05
7.8430375e-05
6.3673585e-05
5.0192869e-05
3.8037747e-05
2.7276035e-05
1.8020451e-05
1.0474418e-05
4.9484489e-06
1.6904965e-06
3.6482121e-07
4.1982943e-08
2.1815265e-09
5.8425595e-10
2.2131801e-05
6.5943378e-06
6.5734672e-06
6.5990429e-06
6.5837884e-06
6.5939716e-06
6.5922122e-06
6.599862e-06
6.605408e-06
6.5993561e-06
6.5833106e-06
6.5707564e-06
6.5733091e-06
6.5900825e-06
6.5919209e-06
6.5776566e-06
6.5777784e-06
6.5862971e-06
6.5797171e-06
6.5782391e-06
6.5807712e-06
6.5793777e-06
6.5789591e-06
6.5794936e-06
6.5805676e-06
6.5818295e-06
6.5826632e-06
6.5794795e-06
6.5725259e-06
6.5717197e-06
6.5806966e-06
6.5961959e-06
6.6164456e-06
6.6367815e-06
6.6616398e-06
6.6868168e-06
6.7021847e-06
6.6959956e-06
6.6655678e-06
6.6479759e-06
6.6344232e-06
6.6127213e-06
6.5805119e-06
6.5504466e-06
6.5305733e-06
6.5181391e-06
6.5084367e-06
6.5019488e-06
6.4978674e-06
6.49735e-06
6.4986598e-06
6.5003458e-06
6.505104e-06
6.5112057e-06
6.517389e-06
6.5232755e-06
6.5294461e-06
6.5362266e-06
6.5421913e-06
6.5468668e-06
6.5488654e-06
6.5430781e-06
6.5153209e-06
6.446967e-06
6.401747e-06
6.4151902e-06
6.4988969e-06
6.6438831e-06
6.7244519e-06
6.7546622e-06
6.7648109e-06
6.7705828e-06
6.7963381e-06
6.838578e-06
6.8896666e-06
6.9449049e-06
7.0048894e-06
7.0731841e-06
7.1502163e-06
7.2334883e-06
7.3222785e-06
7.4198554e-06
7.5294017e-06
7.651208e-06
7.784438e-06
7.9293971e-06
8.0882694e-06
8.2652763e-06
8.4633712e-06
8.6828595e-06
8.9247481e-06
9.1906312e-06
9.4795128e-06
9.790332e-06
1.0127296e-05
1.0500677e-05
1.0925221e-05
1.1413135e-05
1.1970633e-05
1.2606485e-05
1.3343905e-05
1.4210745e-05
1.5203787e-05
1.6261175e-05
1.7328647e-05
1.8326745e-05
1.942635e-05
2.2555623e-05
4.9808124e-05
0.00014146412
0.0002391213
0.00030715499
0.00035509224
0.00038880505
0.00041153934
0.00042531042
0.00043156489
0.00043147095
0.00042604216
0.00041619577
0.00040277605
0.00038654749
0.00036798357
0.00034761134
0.00032596439
0.00030350899
0.00028063038
0.00025764359
0.00023481552
0.00021237607
0.00019052679
0.00016940926
0.00014915782
0.00012988446
0.00011166259
9.4548987e-05
7.8594725e-05
6.3848785e-05
5.0360354e-05
3.8186207e-05
2.7397252e-05
1.8110143e-05
1.0532311e-05
4.9785589e-06
1.7015328e-06
3.6727366e-07
4.2262154e-08
2.1909618e-09
5.8196074e-10
2.2195861e-05
6.5941601e-06
6.5734193e-06
6.5990555e-06
6.5837966e-06
6.5939649e-06
6.5922036e-06
6.5998243e-06
6.6054512e-06
6.5995285e-06
6.5834742e-06
6.5707686e-06
6.5731684e-06
6.5899041e-06
6.5920852e-06
6.577728e-06
6.5777194e-06
6.5862768e-06
6.5797788e-06
6.578245e-06
6.5807744e-06
6.5794003e-06
6.5789755e-06
6.5795207e-06
6.5805939e-06
6.5818491e-06
6.5827168e-06
6.5795628e-06
6.5726377e-06
6.5717498e-06
6.5806532e-06
6.596092e-06
6.6163272e-06
6.6366972e-06
6.6615502e-06
6.6867725e-06
6.7024097e-06
6.6965555e-06
6.666237e-06
6.6485433e-06
6.6349994e-06
6.6135167e-06
6.5814887e-06
6.551347e-06
6.5312959e-06
6.5188195e-06
6.5100524e-06
6.5026003e-06
6.4984618e-06
6.497993e-06
6.4994355e-06
6.500983e-06
6.5057429e-06
6.5118531e-06
6.5180702e-06
6.5240078e-06
6.5301768e-06
6.5369646e-06
6.5430947e-06
6.547895e-06
6.550282e-06
6.5454245e-06
6.5202224e-06
6.4551727e-06
6.405429e-06
6.4151332e-06
6.4897002e-06
6.6316048e-06
6.7221658e-06
6.7554354e-06
6.7694248e-06
6.7752779e-06
6.7982006e-06
6.8392396e-06
6.8899583e-06
6.9452265e-06
7.0052172e-06
7.0732993e-06
7.1502735e-06
7.2339176e-06
7.3232092e-06
7.4209862e-06
7.5305503e-06
7.6524349e-06
7.7857909e-06
7.9306068e-06
8.0889841e-06
8.26487e-06
8.4610554e-06
8.678228e-06
8.9180662e-06
9.1824892e-06
9.4701497e-06
9.7787531e-06
1.0110976e-05
1.0478236e-05
1.0894051e-05
1.1368978e-05
1.1908487e-05
1.252138e-05
1.3231518e-05
1.4071205e-05
1.505121e-05
1.6126216e-05
1.7221178e-05
1.8278747e-05
1.9357836e-05
2.1802644e-05
4.2194921e-05
0.00012461145
0.00022468159
0.00029565057
0.00034532915
0.00038019706
0.00040380503
0.00041830822
0.00042521454
0.00042571676
0.00042083541
0.00041148158
0.0003984778
0.00038257072
0.0003644526
0.00034456969
0.00032340281
0.0003013727
0.00027885464
0.0002561901
0.00023365367
0.00021147457
0.0001898532
0.00016893998
0.0001488544
0.00012970333
0.00011157463
9.4534574e-05
7.8637373e-05
6.3930447e-05
5.0463551e-05
3.8295252e-05
2.7498844e-05
1.8194062e-05
1.0592129e-05
5.0126574e-06
1.7150397e-06
3.7044152e-07
4.2634776e-08
2.2063928e-09
5.8220989e-10
2.2261787e-05
6.5940222e-06
6.5734016e-06
6.5990465e-06
6.5837891e-06
6.5939493e-06
6.592195e-06
6.5997841e-06
6.6054928e-06
6.5997084e-06
6.5836474e-06
6.5707854e-06
6.5730225e-06
6.589715e-06
6.5922543e-06
6.5778066e-06
6.5776576e-06
6.5862475e-06
6.5798445e-06
6.5782539e-06
6.5807773e-06
6.5794231e-06
6.5789918e-06
6.5795464e-06
6.58062e-06
6.5818701e-06
6.5827744e-06
6.5796477e-06
6.5727458e-06
6.5717847e-06
6.5806081e-06
6.5959903e-06
6.6161945e-06
6.6366107e-06
6.6614416e-06
6.6867335e-06
6.7026327e-06
6.6971285e-06
6.6669304e-06
6.6491179e-06
6.6355916e-06
6.6143206e-06
6.5824855e-06
6.552252e-06
6.5320319e-06
6.5194833e-06
6.5109731e-06
6.5033482e-06
6.4989885e-06
6.4986084e-06
6.5002075e-06
6.5016741e-06
6.5063747e-06
6.5124737e-06
6.5187302e-06
6.5247253e-06
6.5309047e-06
6.5377139e-06
6.5440128e-06
6.5489324e-06
6.5516843e-06
6.5477053e-06
6.52493e-06
6.4634098e-06
6.4095349e-06
6.4157835e-06
6.4814351e-06
6.6185857e-06
6.7190571e-06
6.7558821e-06
6.7737674e-06
6.7803261e-06
6.8006532e-06
6.8401357e-06
6.8902495e-06
6.9454535e-06
7.0054392e-06
7.0732609e-06
7.1500551e-06
7.2339393e-06
7.3236356e-06
7.4215839e-06
7.5311382e-06
7.6531069e-06
7.7866525e-06
7.9314372e-06
8.0894285e-06
8.2642964e-06
8.4586083e-06
8.6733978e-06
8.9111833e-06
9.1742632e-06
9.4607493e-06
9.7673606e-06
1.0095692e-05
1.0456985e-05
1.0864798e-05
1.1327649e-05
1.1850219e-05
1.2441886e-05
1.3126119e-05
1.3936686e-05
1.4893233e-05
1.5971765e-05
1.7096434e-05
1.8216649e-05
1.9300702e-05
2.1271937e-05
3.6150282e-05
0.00010802514
0.00020929222
0.00028355428
0.00033518258
0.00037134356
0.00039592394
0.00041123429
0.00041884774
0.0004199804
0.00041565903
0.00040679678
0.0003942202
0.00037868145
0.0003608658
0.00034139292
0.00032064119
0.00029900995
0.0002768759
0.00025456299
0.00023234161
0.00021044171
0.0001890509
0.00016833418
0.00014842413
0.00012942748
0.00011142673
9.4486616e-05
7.8662109e-05
6.4002795e-05
5.0561556e-05
3.8400726e-05
2.7597664e-05
1.827613e-05
1.0651211e-05
5.0468569e-06
1.7288261e-06
3.7372053e-07
4.3023876e-08
2.2233246e-09
5.8343162e-10
2.2329509e-05
6.5938958e-06
6.5734264e-06
6.5990072e-06
6.5837825e-06
6.5939217e-06
6.5921863e-06
6.5997427e-06
6.6055344e-06
6.5998931e-06
6.5838246e-06
6.5708017e-06
6.5728747e-06
6.5895202e-06
6.5924258e-06
6.577889e-06
6.5775959e-06
6.5862062e-06
6.5799112e-06
6.5782655e-06
6.5807803e-06
6.5794455e-06
6.5790082e-06
6.5795713e-06
6.5806456e-06
6.5818897e-06
6.5828278e-06
6.579731e-06
6.5728643e-06
6.5718148e-06
6.5805596e-06
6.5958812e-06
6.6160662e-06
6.6365161e-06
6.6613367e-06
6.6866864e-06
6.7028562e-06
6.6976921e-06
6.6676376e-06
6.6497036e-06
6.6361781e-06
6.6151275e-06
6.5834869e-06
6.5531781e-06
6.5327738e-06
6.5201725e-06
6.5116504e-06
6.5038053e-06
6.4994335e-06
6.4992297e-06
6.5009528e-06
6.5024212e-06
6.5070013e-06
6.5130395e-06
6.519365e-06
6.5254246e-06
6.5316115e-06
6.5384536e-06
6.5449286e-06
6.5499551e-06
6.5530612e-06
6.5499111e-06
6.5294328e-06
6.4716113e-06
6.4140886e-06
6.4170718e-06
6.4741469e-06
6.6050646e-06
6.7148754e-06
6.7557541e-06
6.7776462e-06
6.7855658e-06
6.8036808e-06
6.8413512e-06
6.8905774e-06
6.945609e-06
7.0055725e-06
7.073102e-06
7.1496262e-06
7.2336343e-06
7.3236469e-06
7.4217252e-06
7.5312111e-06
7.65324e-06
7.7870187e-06
7.9318936e-06
8.0896696e-06
8.2637107e-06
8.4562569e-06
8.6686287e-06
8.9042368e-06
9.1658209e-06
9.4510009e-06
9.7557457e-06
1.0081343e-05
1.0437067e-05
1.0837474e-05
1.1289277e-05
1.1795972e-05
1.2367935e-05
1.3027765e-05
1.3808334e-05
1.4733261e-05
1.5796003e-05
1.6943579e-05
1.8095244e-05
1.922783e-05
2.0889267e-05
3.1461815e-05
9.2038091e-05
0.00019290997
0.00027084127
0.00032465828
0.00036225607
0.00038789423
0.0004040679
0.00041243475
0.00041424582
0.00041054013
0.00040223304
0.00039014934
0.00037503482
0.00035755962
0.00033832324
0.00031787293
0.00029657788
0.00027477721
0.0002527806
0.00023085619
0.00020923326
0.00018810125
0.00016761015
0.00014790459
0.00012907849
0.0001112197
9.4393099e-05
7.8654719e-05
6.4055923e-05
5.0651969e-05
3.8508127e-05
2.7705055e-05
1.837002e-05
1.072184e-05
5.0893228e-06
1.7464765e-06
3.7800691e-07
4.3538957e-08
2.2473113e-09
5.8689536e-10
2.239918e-05
6.5937183e-06
6.5734369e-06
6.5989638e-06
6.5837742e-06
6.5938808e-06
6.5921767e-06