/*--------------------------------*- C++ -*----------------------------------*\
| =========                 |                                                 |
| \\      /  F ield         | OpenFOAM: The Open Source CFD Toolbox           |
|  \\    /   O peration     | Version:  2506                                  |
|   \\  /    A nd           | Website:  www.openfoam.com                      |
|    \\/     M anipulation  |                                                 |
\*---------------------------------------------------------------------------*/
FoamFile
{
    version     2.0;
    format      ascii;
    arch        "LSB;label=32;scalar=64";
    class       volScalarField;
    location    "0.0235";
    object      yPlus;
}
// * * * * * * * * * * * * * * * * * * * * * * * * * * * * * * * * * * * * * //

dimensions      [0 0 0 0 0 0 0];

internalField   uniform 0;

boundaryField
{
    Side
    {
        type            empty;
    }
    Inlet
    {
        type            calculated;
        value           uniform 0;
    }
    Airfoil
    {
        type            calculated;
        value           nonuniform List<scalar> 
1047
(
0.66999868
0.59764823
0.60079536
0.58226296
0.57844303
0.57130633
0.56799436
0.56488332
0.56327762
0.56240804
0.56246751
0.56322463
0.56467772
0.56675665
0.56943828
0.57269079
0.57649533
0.58083525
0.58569997
0.5910795
0.59696791
0.60335683
0.61023616
0.61749845
0.62529463
0.6305473
0.63081248
0.63075614
0.6321803
0.63360118
0.63537082
0.63722673
0.63922615
0.6413073
0.64347283
0.64570401
0.64799887
0.6503488
0.65275163
0.65520375
0.65770264
0.66024743
0.66283882
0.66547416
0.66815449
0.67088047
0.67365255
0.676472
0.67934088
0.68226702
0.68531421
0.68843902
0.69155495
0.69469761
0.69786595
0.70106774
0.70430552
0.70758296
0.71090277
0.71426693
0.71767864
0.72114151
0.72465778
0.72823143
0.7318659
0.73556521
0.7393337
0.74317517
0.74709584
0.75110252
0.7551994
0.75939158
0.76367731
0.76802293
0.77240723
0.77684982
0.78136136
0.78595124
0.7906281
0.79540195
0.80028183
0.8052796
0.81040671
0.81567388
0.82109582
0.82668982
0.8324723
0.8384603
0.84466977
0.85111379
0.85780109
0.86470666
0.87168065
0.87874124
0.88607275
0.89364088
0.90145004
0.90949188
0.91776168
0.92624834
0.93493958
0.94381824
0.95286371
0.96205139
0.97135596
0.98075463
0.9902324
0.99979761
1.0096516
1.0200404
1.0297504
1.0376398
1.0445062
1.0503993
1.0554497
1.0596805
1.0631083
1.0657314
1.0675532
1.068597
1.0688933
1.0683814
1.0670536
1.0648518
1.0612807
1.0556952
1.0480939
1.0388221
1.0280093
1.0157591
1.0021512
0.98727034
0.97121651
0.95412793
0.93620183
0.91770446
0.89896667
0.88034909
0.86202808
0.8433041
0.82407602
0.80532537
0.78709607
0.76926658
0.75176607
0.7345292
0.71751004
0.70068104
0.68402869
0.6675489
0.65124217
0.63511265
0.6191703
0.60342396
0.58787986
0.57255859
0.55750464
0.54266844
0.52799451
0.51352264
0.49926515
0.48522848
0.47141443
0.45782193
0.44444735
0.43128595
0.4183321
0.40557899
0.39301905
0.38064322
0.36844327
0.3564097
0.34453249
0.33280065
0.32120284
0.30972595
0.29835208
0.287066
0.27585902
0.26471802
0.25362681
0.24256673
0.23151636
0.22045038
0.20933949
0.198149
0.18683741
0.17535233
0.16362246
0.15156087
0.13904564
0.12594187
0.11187677
0.096982216
0.079258403
0.058669142
0.03351293
0.037435421
0.064157413
0.081864174
0.096178827
0.10817355
0.11869064
0.1280726
0.13657752
0.14437143
0.15157746
0.15828751
0.16457258
0.17048928
0.17608317
0.18139231
0.18644871
0.19127972
0.19590933
0.2003588
0.20464737
0.20879435
0.21282065
0.21674665
0.22061611
0.22443071
0.22851582
0.23239758
0.23513021
0.23729737
0.23952042
0.2417198
0.24390254
0.24606182
0.24819926
0.25031838
0.25242577
0.25452893
0.25663768
0.25876457
0.26092392
0.26313327
0.26541545
0.2677983
0.27031953
0.2730268
0.27599957
0.27930753
0.28324022
0.28760472
0.29461564
0.29914538
0.32784873
0.15684242
0.091733835
0.19782446
0.19320756
0.17706344
0.14172183
0.10916049
0.076294949
0.080623009
0.14076919
0.16202249
0.16419366
0.16850003
0.18432715
0.20490387
0.2179278
0.21998411
0.21679887
0.21281106
0.20814878
0.19610929
0.17315017
0.13940215
0.092651768
0.027971751
0.091598206
0.12232768
0.14378151
0.16029592
0.17469888
0.1886927
0.20308102
0.21825853
0.234219
0.25063852
0.26696227
0.2825561
0.29717674
0.31173596
0.32502578
0.33534557
0.34060711
0.3381445
0.32595583
0.30143334
0.26068466
0.19324269
0.03857154
0.16185744
0.17694062
0.13070402
0.013091315
0.13561412
0.18027232
0.20358801
0.21207387
0.20565415
0.18049123
0.12732704
0.067141622
0.14629902
0.16124845
0.14737655
0.11948531
0.07081931
0.064485509
0.11447653
0.14795333
0.17493459
0.19801758
0.21808388
0.23451115
0.24530305
0.24658605
0.23119737
0.18723055
0.077992115
0.13398006
0.15039048
0.12444763
0.091222351
0.064265303
0.065627151
0.083761338
0.096485305
0.098918283
0.093689371
0.084276594
0.071987716
0.054700087
0.018945379
0.054302228
0.084632231
0.11150428
0.13706671
0.16171456
0.18493699
0.20568024
0.22239452
0.23275209
0.23290461
0.21502557
0.16252031
0.048092822
0.15469886
0.1656423
0.14611564
0.11942665
0.093718974
0.085392285
0.094268279
0.10715421
0.11534795
0.11777739
0.11651217
0.1137005
0.11022655
0.10578625
0.099286153
0.089105594
0.072640124
0.042546026
0.048674777
0.085099439
0.11300283
0.13739703
0.15984157
0.18033943
0.19810619
0.21150826
0.21692356
0.20775858
0.16546715
0.029045207
0.16641647
0.19717358
0.19537974
0.184714
0.1671771
0.14934986
0.13314402
0.1194307
0.10859577
0.10091691
0.096363279
0.094281311
0.093259629
0.091402813
0.086621304
0.076791408
0.058788171
0.01479858
0.061697308
0.093030196
0.119694
0.14394706
0.1663617
0.18674417
0.20470735
0.21937156
0.22920051
0.23161739
0.22228671
0.19471256
0.12467272
0.11976359
0.19603034
0.21821605
0.21741781
0.20821116
0.19452218
0.180577
0.16907229
0.16126602
0.15776028
0.1584639
0.16233279
0.16775329
0.17330174
0.17816233
0.18205493
0.18504269
0.1872644
0.18882024
0.18966921
0.18952435
0.18779505
0.18406201
0.17888007
0.17325104
0.16779376
0.16055305
0.14952244
0.13358869
0.11060115
0.071999423
0.06361811
0.12926997
0.17660741
0.21731817
0.25557157
0.2920831
0.32650745
0.35805806
0.3857186
0.40827339
0.42465242
0.43426989
0.4374647
0.43549765
0.42999841
0.42122766
0.40757709
0.38669558
0.35554489
0.30421598
0.20617171
0.13164582
0.23805871
0.20857605
0.15377029
0.11843132
0.086246905
0.026478617
0.067608261
0.08283383
0.088256447
0.088049537
0.085482277
0.081458067
0.076972304
0.072675438
0.068422971
0.063133911
0.056114561
0.04743209
0.037423539
0.025478488
0.0075793108
0.026012852
0.036151265
0.044338806
0.051077317
0.056944938
0.062278149
0.067218274
0.071991591
0.076821048
0.081939036
0.087467828
0.093481884
0.09996164
0.10683009
0.11394764
0.12116612
0.12832212
0.13529813
0.14200179
0.14839267
0.15447361
0.1602492
0.16579857
0.17120683
0.17651137
0.18175698
0.18696782
0.19216242
0.19730398
0.2024477
0.20756977
0.2126648
0.21772822
0.22275555
0.2277395
0.23264727
0.23749819
0.24232088
0.24710122
0.25184047
0.2565353
0.26118454
0.26578631
0.27033932
0.27484216
0.27929304
0.28369053
0.28803301
0.2923214
0.29653441
0.30066907
0.30475166
0.30878318
0.31276235
0.31669055
0.32056854
0.32439747
0.32817861
0.33191263
0.33560054
0.33924272
0.34283986
0.34639213
0.34989995
0.35335543
0.35675513
0.36010686
0.36341167
0.36667198
0.36988952
0.37306415
0.37619754
0.3792927
0.3823498
0.38537047
0.38835674
0.39130933
0.39423006
0.39711972
0.39998318
0.40282631
0.4056328
0.40839398
0.41111913
0.41380738
0.4164617
0.4190825
0.42167188
0.42423009
0.42675576
0.42925116
0.43171787
0.43415446
0.43656357
0.4389477
0.44130168
0.44366101
0.44602022
0.44832966
0.45059564
0.45282553
0.45502495
0.45719735
0.4593449
0.46146962
0.46357411
0.46566196
0.46773166
0.4697863
0.47182895
0.47386084
0.47588383
0.47790121
0.47990576
0.48195291
0.48404332
0.48609509
0.48811335
0.49011062
0.49209103
0.49405922
0.49601848
0.49797071
0.49991705
0.5018621
0.50380896
0.50575826
0.5077129
0.50967834
0.51166113
0.51366638
0.51569908
0.51780202
0.51988751
0.52276584
0.52810703
0.53338643
0.53674672
0.5394239
0.54134734
0.54269142
0.54342561
0.54370461
0.5435518
0.54301152
0.54213062
0.54095865
0.53954984
0.53795748
0.53623618
0.53444186
0.53263115
0.53085887
0.52918753
0.52764515
0.52642264
0.52482295
0.52775654
0.51158391
0.62364434
0.30993776
0.27091003
0.2820119
0.28449959
0.28838113
0.29149273
0.2943901
0.2971057
0.29971431
0.3022423
0.30470539
0.30710931
0.3094555
0.3117403
0.31395736
0.31609702
0.31814783
0.32009552
0.32192146
0.32361463
0.32511926
0.32641509
0.32742357
0.32813152
0.32799863
0.32797951
0.32911496
0.33051671
0.33180812
0.33305788
0.33427093
0.33545826
0.33662381
0.33776954
0.33889762
0.34000721
0.34109887
0.34217218
0.34322619
0.34426148
0.3452772
0.34627067
0.34724038
0.34818628
0.34909894
0.3499793
0.35087332
0.35177866
0.35266343
0.35353312
0.35438733
0.35522641
0.35605142
0.35686095
0.35765517
0.35843312
0.3591954
0.35994036
0.36066877
0.36137762
0.36206706
0.36273397
0.36337256
0.36398106
0.36459308
0.36520751
0.36580456
0.3663854
0.3669513
0.36750186
0.36803672
0.36855577
0.36905892
0.36954636
0.37001742
0.37047163
0.37090881
0.37132738
0.37172687
0.37210147
0.37245851
0.37280941
0.37314937
0.37347598
0.37378935
0.37408885
0.37437647
0.37464961
0.37491012
0.37515706
0.37539107
0.37561092
0.37581726
0.37600844
0.37618575
0.37634694
0.37648719
0.37660944
0.37672112
0.3768215
0.37691111
0.37698903
0.37705611
0.37711261
0.37715778
0.37719306
0.37721755
0.37723174
0.37723654
0.37723337
0.37722189
0.37717822
0.3771068
0.37702755
0.37693826
0.3768398
0.37673351
0.37661836
0.37649506
0.3763642
0.3762259
0.37608031
0.37592971
0.37577386
0.37562672
0.37544761
0.37521822
0.3749748
0.37472398
0.37446572
0.37420105
0.37392919
0.37365633
0.37337104
0.37308311
0.37279209
0.37250135
0.37221049
0.37194036
0.37163168
0.37126015
0.3708745
0.37048444
0.37008787
0.36968771
0.36928421
0.36887905
0.36847265
0.36806744
0.36766411
0.367267
0.36688545
0.36651864
0.36609337
0.36561298
0.36513089
0.36464585
0.36415874
0.36366985
0.36318067
0.36269242
0.36220688
0.36172615
0.36125363
0.3607925
0.36036579
0.35989523
0.35934843
0.35879063
0.35823079
0.35767017
0.3571103
0.35655159
0.35599596
0.3554455
0.35490233
0.35437011
0.35385191
0.35337734
0.35286618
0.3522702
0.35165554
0.35103822
0.35041946
0.34980014
0.34918163
0.34856583
0.34795478
0.34735116
0.34675916
0.34618334
0.34564757
0.34506359
0.34439693
0.34371828
0.34303584
0.34235199
0.3416682
0.34098546
0.34030645
0.33963364
0.33897055
0.33831952
0.3376986
0.33709646
0.33642442
0.33569144
0.33495645
0.33421934
0.33348334
0.33274891
0.33201893
0.33129609
0.33058249
0.32988341
0.32920251
0.32856726
0.32789632
0.32714547
0.32638049
0.32561426
0.32484944
0.32408853
0.32333293
0.32258549
0.32184879
0.32112668
0.32042144
0.3197631
0.31909387
0.31834945
0.31757585
0.31680323
0.31604505
0.31526939
0.31450434
0.31374891
0.31300487
0.31227627
0.31156364
0.31089465
0.31022125
0.3094827
0.30871664
0.30795023
0.3071849
0.3064229
0.30566575
0.30491484
0.30417285
0.30344275
0.30272628
0.30204951
0.30135104
0.30058502
0.29980097
0.29901485
0.2982288
0.29744495
0.29666542
0.29589285
0.29513025
0.29437959
0.29365167
0.29295179
0.29220856
0.2914102
0.29060832
0.28980009
0.28898869
0.2881809
0.28737611
0.28657671
0.28578585
0.28500447
0.28425976
0.28349264
0.28266185
0.2818158
0.28096798
0.2801184
0.27926646
0.27841419
0.2775666
0.27673051
0.27590339
0.27511216
0.27431339
0.27345488
0.27257274
0.27168642
0.27079815
0.26991069
0.26902671
0.26814815
0.26727888
0.26641991
0.26559437
0.26475776
0.2638681
0.26296401
0.26205325
0.26113979
0.26023507
0.25933554
0.25844222
0.25756064
0.25669823
0.25586758
0.25501252
0.2541131
0.2532117
0.2523172
0.25143504
0.2505685
0.24972155
0.24890049
0.24810845
0.24737315
0.2466409
0.24586429
0.24509033
0.24432949
0.24358928
0.24287619
0.24218947
0.24153968
0.24092302
0.24036866
0.23983523
0.23926468
0.23869238
0.2381531
0.23764269
0.23711942
0.23663625
0.23619504
0.23579605
0.23546276
0.23512365
0.23473724
0.23436753
0.23402171
0.23369843
0.23340662
0.23315766
0.23294437
0.2328147
0.23270639
0.23253939
0.23236251
0.23219938
0.23205409
0.2319322
0.23183598
0.23176392
0.23176447
0.2317714
0.2316977
0.23159672
0.23150003
0.23140772
0.23133234
0.23128241
0.23127126
0.23132609
0.23133804
0.23127397
0.23122387
0.23119884
0.23121038
0.23127296
0.23140825
0.23165621
0.23188345
0.23205709
0.23227876
0.23255871
0.23291476
0.23336041
0.23399272
0.2347066
0.23540342
0.23619554
0.23710973
0.23817182
0.23943311
0.2409733
0.24262396
0.24438885
0.2464033
0.24877817
0.25148671
0.25508961
0.25804504
0.26403154
0.26472222
0.28189471
0.29722211
)
;
    }
    Outlet
    {
        type            calculated;
        value           uniform 0;
    }
}


// ************************************************************************* //
