/*--------------------------------*- C++ -*----------------------------------*\
| =========                 |                                                 |
| \\      /  F ield         | OpenFOAM: The Open Source CFD Toolbox           |
|  \\    /   O peration     | Version:  2506                                  |
|   \\  /    A nd           | Website:  www.openfoam.com                      |
|    \\/     M anipulation  |                                                 |
\*---------------------------------------------------------------------------*/
FoamFile
{
    version     2.0;
    format      ascii;
    arch        "LSB;label=32;scalar=64";
    class       volScalarField;
    location    "0.0195";
    object      rho;
}
// * * * * * * * * * * * * * * * * * * * * * * * * * * * * * * * * * * * * * //

dimensions      [1 -3 0 0 0 0 0];

internalField   nonuniform List<scalar> 
192657
(
0.66492084
0.66684138
0.6649784
0.66661691
0.665427
0.6663042
0.66559261
0.66549123
0.66434896
0.66247385
0.65946635
0.65659312
0.65585775
0.65914541
0.6650837
0.6684265
0.66513359
0.66180389
0.66262308
0.6626296
0.66077623
0.66067809
0.66058907
0.65961459
0.65932984
0.65888259
0.65824322
0.6578236
0.65724925
0.65668917
0.65612627
0.65547991
0.65483547
0.65412669
0.6534063
0.65263508
0.65179709
0.65091262
0.64998396
0.64900973
0.64798233
0.64689853
0.64574933
0.64453806
0.64326099
0.64191696
0.64050544
0.63902805
0.63748581
0.63588051
0.63421543
0.6324945
0.63072287
0.62890637
0.62705262
0.62517065
0.6232699
0.62136026
0.61945181
0.6175548
0.6156795
0.61383607
0.6120339
0.6102803
0.60858221
0.60694542
0.60537434
0.60387281
0.60244245
0.60108479
0.59979961
0.5985862
0.5974434
0.59636896
0.59536008
0.59441408
0.59352796
0.59269875
0.59192309
0.59119752
0.59051894
0.58988467
0.58929173
0.58873764
0.58821919
0.58773406
0.58728015
0.58685572
0.58645862
0.58608721
0.58574002
0.5854158
0.58511357
0.58483248
0.58457214
0.58433268
0.58411517
0.58392159
0.58375322
0.5836006
0.58339238
0.58267968
0.57995663
0.57605897
0.57330285
0.57151852
0.57033768
0.56955437
0.5690463
0.56873438
0.5685642
0.56849691
0.56850404
0.56856446
0.5686623
0.56878561
0.56892538
0.56907481
0.56922881
0.56938355
0.5695362
0.56968473
0.56982767
0.56996402
0.57009311
0.57021451
0.57032801
0.57043349
0.57053096
0.57062042
0.57070196
0.57077561
0.57084141
0.57089927
0.57094914
0.57099081
0.57102404
0.5710484
0.57106352
0.57106886
0.5710642
0.57104953
0.57102591
0.57099604
0.57096543
0.57094102
0.57092684
0.57092155
0.57092122
0.66491868
0.66684484
0.66497659
0.66661767
0.66542681
0.66630463
0.66559507
0.6654969
0.66436282
0.66249795
0.65949683
0.65661323
0.65584671
0.65909116
0.66502714
0.66842098
0.66518159
0.66181345
0.66261023
0.66264188
0.66078752
0.66067522
0.66059702
0.65962194
0.65933371
0.65889082
0.65825064
0.65783124
0.65725826
0.6566983
0.65613682
0.65549146
0.65484823
0.65414088
0.6534219
0.65265254
0.65181632
0.65093366
0.6500069
0.64903464
0.64800945
0.64692748
0.64578038
0.64457115
0.64329603
0.64195371
0.64054363
0.63906726
0.63752557
0.63592019
0.63425426
0.63253159
0.63075715
0.62893666
0.62707762
0.62518896
0.62328004
0.62136075
0.61944115
0.61753153
0.61564226
0.61378361
0.61196513
0.6101943
0.60847823
0.60682293
0.60523303
0.60371255
0.60226328
0.60088694
0.59958346
0.5983523
0.59719243
0.59610171
0.59507746
0.59411714
0.59321783
0.59237671
0.5915905
0.59085577
0.59016963
0.58952958
0.5889329
0.58837606
0.58785807
0.58737555
0.58692652
0.58650942
0.58612226
0.58576346
0.58543155
0.58512526
0.58484338
0.58458461
0.58434767
0.58413102
0.58393282
0.58375018
0.58357635
0.58338778
0.58308284
0.58217401
0.57927563
0.57521387
0.57232814
0.57040748
0.56906734
0.56810311
0.56739712
0.56687536
0.56648844
0.56620209
0.5659919
0.56584006
0.56573331
0.56566163
0.56561727
0.56559418
0.56558758
0.56559362
0.56560924
0.56563193
0.56565969
0.56569088
0.56572418
0.56575853
0.56579306
0.56582708
0.56586005
0.56589151
0.56592114
0.56594865
0.56597382
0.56599648
0.56601651
0.56603383
0.56604835
0.56606008
0.56606905
0.56607536
0.56607925
0.56608112
0.56608159
0.56608158
0.56608215
0.56608379
0.56608582
0.56608729
0.5660879
0.66491641
0.66684844
0.66497471
0.66661845
0.66542662
0.66630507
0.66559768
0.66550286
0.66437746
0.66252352
0.65952931
0.65663486
0.65583544
0.65903349
0.66496708
0.66841409
0.66523256
0.66182417
0.66259653
0.66265464
0.66079961
0.66067217
0.66060531
0.65962974
0.65933774
0.65889949
0.65825847
0.65783929
0.65726776
0.65670792
0.6561479
0.65550356
0.65486159
0.65415571
0.65343818
0.65267074
0.65183635
0.65095555
0.65003071
0.64906056
0.64803733
0.64695754
0.64581259
0.64460547
0.64333238
0.64199183
0.64058323
0.63910796
0.63756687
0.63596147
0.63429475
0.63257038
0.63079318
0.62896872
0.6271044
0.62520903
0.62329192
0.62136291
0.61943205
0.6175097
0.61560629
0.61373223
0.6118972
0.61010887
0.60837451
0.60670039
0.60509131
0.60355151
0.60208295
0.60068754
0.59936541
0.59811615
0.59693888
0.59583161
0.5947918
0.59381702
0.59290449
0.59205151
0.59125495
0.59051155
0.58981849
0.5891732
0.58857296
0.5880153
0.58749793
0.58701857
0.58657502
0.58616552
0.58578846
0.58544199
0.58512447
0.58483445
0.58457054
0.58433121
0.58411501
0.58392047
0.58374619
0.58359048
0.58344879
0.58330088
0.5830489
0.58222287
0.57949694
0.57551344
0.57267572
0.57083503
0.56959706
0.56875002
0.56817094
0.56778108
0.56752703
0.56737128
0.5672869
0.5672543
0.56725907
0.56729054
0.56734076
0.56740376
0.56747506
0.56755128
0.5676299
0.56770902
0.56778724
0.56786354
0.56793718
0.56800764
0.56807456
0.56813772
0.56819697
0.56825224
0.56830351
0.56835079
0.5683941
0.56843344
0.56846885
0.56850034
0.56852792
0.56855157
0.56857125
0.56858694
0.56859866
0.56860653
0.56861082
0.5686122
0.5686118
0.56861102
0.5686107
0.56861089
0.56861123
0.66491402
0.66685217
0.66497277
0.66661924
0.66542644
0.66630551
0.66560035
0.6655089
0.6643924
0.66254967
0.65956271
0.65665736
0.65582451
0.65897447
0.66490544
0.66840607
0.66528481
0.66183581
0.66258236
0.66266742
0.6608122
0.66066905
0.66061368
0.65963779
0.65934184
0.65890834
0.6582665
0.6578475
0.65727747
0.65671773
0.6561592
0.65551591
0.65487521
0.65417082
0.65345475
0.65268926
0.65185672
0.6509778
0.65005488
0.64908693
0.64806566
0.64698811
0.64584538
0.64464044
0.64336942
0.64203075
0.64062374
0.63914968
0.63760933
0.63600405
0.63433669
0.6326108
0.63083102
0.62900281
0.62713341
0.62523156
0.62330645
0.62136793
0.61942601
0.6174911
0.6155737
0.61368434
0.61183284
0.61002704
0.60827438
0.60658137
0.60495301
0.60339374
0.6019057
0.600491
0.59914995
0.59788232
0.59668737
0.59556325
0.59450756
0.59351803
0.592592
0.59172692
0.59091979
0.59016746
0.58946723
0.58881661
0.58821304
0.58765405
0.58713737
0.5866607
0.58622185
0.58581897
0.58545037
0.58511415
0.58480842
0.58453149
0.58428168
0.58405718
0.58385617
0.58367693
0.5835176
0.58337582
0.58324608
0.58310655
0.58285714
0.58204601
0.57943836
0.5754659
0.57252914
0.57060259
0.56928821
0.568369
0.56772009
0.56726224
0.56694233
0.56672344
0.56657924
0.56649059
0.56644348
0.56642747
0.56643467
0.56645903
0.5664959
0.56654167
0.56659352
0.56664927
0.5667072
0.56676599
0.56682462
0.56688231
0.56693847
0.56699265
0.56704454
0.56709389
0.56714056
0.56718445
0.56722549
0.56726363
0.56729887
0.56733121
0.56736066
0.56738722
0.5674109
0.56743171
0.56744968
0.56746486
0.56747735
0.56748724
0.56749467
0.56749981
0.56750295
0.56750455
0.56750511
0.66491151
0.66685604
0.66497078
0.66662006
0.66542627
0.66630594
0.6656031
0.66551507
0.66440772
0.6625766
0.65959726
0.6566809
0.65581388
0.6589137
0.66484179
0.66839673
0.66533867
0.66184851
0.66256764
0.66268027
0.66082539
0.66066585
0.66062219
0.65964615
0.65934603
0.65891743
0.65827477
0.65785594
0.65728746
0.6567278
0.65617078
0.65552855
0.65488914
0.65418627
0.65347169
0.65270818
0.65187753
0.65100053
0.65007952
0.64911382
0.64809457
0.64701932
0.64587887
0.64467616
0.6434073
0.64207059
0.64066525
0.63919251
0.63765299
0.63604797
0.63438011
0.63265284
0.63087065
0.62903884
0.62716453
0.62525636
0.62332342
0.62137554
0.6194227
0.61747534
0.61554401
0.6136394
0.61177144
0.60994813
0.60817709
0.60646509
0.60481728
0.60323834
0.60173057
0.60029631
0.59893605
0.59764971
0.59643673
0.5952954
0.59422346
0.5932188
0.5922789
0.59140131
0.59058318
0.58982148
0.58911357
0.58845706
0.5878494
0.58728817
0.58677108
0.58629579
0.58586004
0.58546185
0.58509934
0.58477041
0.58447299
0.58420515
0.58396502
0.58375057
0.5835598
0.58339085
0.58324182
0.58311038
0.58299121
0.58286302
0.58262813
0.5818626
0.57943075
0.57553781
0.57252709
0.57055393
0.56921928
0.56829671
0.5676546
0.56720971
0.56690631
0.56670573
0.56658038
0.56651019
0.56648067
0.5664811
0.56650344
0.56654163
0.56659106
0.56664818
0.56671029
0.56677531
0.56684166
0.56690813
0.56697382
0.56703803
0.56710027
0.56716016
0.56721746
0.56727199
0.56732364
0.56737237
0.56741814
0.56746092
0.56750075
0.56753762
0.56757156
0.56760256
0.56763059
0.56765563
0.56767762
0.56769651
0.56771221
0.56772461
0.56773365
0.56773952
0.56774283
0.56774441
0.56774496
0.66490887
0.66686005
0.66496873
0.66662089
0.6654261
0.66630637
0.66560592
0.66552134
0.66442341
0.66260428
0.65963296
0.65670552
0.6558036
0.65885123
0.66477613
0.66838599
0.66539411
0.66186235
0.66255234
0.66269315
0.66083918
0.66066258
0.6606308
0.65965483
0.6593503
0.65892674
0.6582833
0.65786459
0.65729771
0.65673813
0.65618264
0.6555415
0.6549034
0.65420207
0.65348899
0.6527275
0.65189877
0.65102372
0.65010471
0.64914115
0.64812405
0.64705115
0.64591304
0.64471264
0.643446
0.64211133
0.64070775
0.63923641
0.63769786
0.63609321
0.63442499
0.63269649
0.63091204
0.6290768
0.62719777
0.62528344
0.62334285
0.62138576
0.61942214
0.61746245
0.6155173
0.61359748
0.61171308
0.60987224
0.60808276
0.60635165
0.60468425
0.60308544
0.60155771
0.60010362
0.59872383
0.59741844
0.59618705
0.59502811
0.59393949
0.59291923
0.59196493
0.59107427
0.59024449
0.58947268
0.58875626
0.58809285
0.58747995
0.58691511
0.58639596
0.58592011
0.58548516
0.58508897
0.58472951
0.5844045
0.58411166
0.58384888
0.5836141
0.58340512
0.58321978
0.58305609
0.582912
0.58278508
0.58266999
0.58254613
0.58232058
0.58160224
0.57934204
0.57552746
0.57240794
0.57034548
0.56894706
0.56797634
0.56729614
0.56681987
0.56648979
0.56626613
0.56612065
0.56603249
0.56598706
0.56597344
0.56598342
0.56601081
0.56605087
0.56609996
0.56615525
0.56621455
0.56627618
0.56633885
0.56640156
0.56646355
0.56652423
0.56658318
0.56664007
0.56669468
0.56674686
0.56679652
0.5668436
0.56688806
0.5669299
0.56696912
0.56700573
0.56703972
0.56707106
0.5670997
0.56712556
0.56714853
0.56716838
0.56718474
0.56719714
0.56720534
0.56720992
0.567212
0.56721264
0.6649061
0.66686421
0.66496661
0.66662175
0.66542595
0.66630679
0.66560881
0.66552773
0.66443948
0.66263274
0.65966985
0.65673128
0.65579371
0.65878702
0.66470839
0.66837373
0.66545118
0.66187742
0.66253643
0.66270605
0.66085362
0.66065925
0.66063952
0.65966384
0.65935467
0.6589363
0.65829209
0.65787346
0.65730825
0.65674872
0.65619478
0.65555476
0.65491797
0.65421823
0.65350666
0.65274722
0.65192045
0.65104738
0.65013042
0.64916898
0.64815412
0.64708362
0.6459479
0.64474986
0.64348553
0.64215297
0.64075125
0.63928141
0.63774392
0.63613977
0.63447132
0.63274175
0.63095519
0.62911669
0.62723309
0.62531278
0.6233647
0.62139856
0.61942429
0.61745239
0.6154935
0.61355854
0.61165771
0.60979932
0.60799133
0.60624101
0.60455385
0.60293497
0.60138703
0.59991282
0.59851318
0.59718839
0.59593818
0.59476118
0.59365538
0.59261897
0.59164965
0.59074521
0.58990297
0.58912009
0.58839404
0.58772246
0.58710281
0.58653261
0.5860094
0.58553069
0.58509395
0.58469689
0.58433731
0.58401277
0.58372084
0.58345926
0.58322582
0.58301823
0.58283422
0.58267174
0.58252874
0.5824028
0.58228894
0.58216819
0.58195546
0.58129747
0.57922369
0.57550762
0.57227594
0.57012196
0.5686647
0.56765562
0.56694996
0.5664566
0.56611494
0.5658832
0.56573192
0.56563993
0.56559183
0.5655763
0.56558491
0.56561131
0.56565074
0.56569952
0.56575477
0.56581421
0.5658762
0.56593947
0.56600301
0.56606604
0.56612799
0.56618838
0.5662469
0.5663033
0.56635743
0.56640919
0.56645851
0.56650534
0.56654967
0.56659151
0.56663085
0.56666767
0.56670193
0.56673354
0.5667624
0.56678831
0.56681094
0.56682975
0.56684402
0.56685338
0.56685851
0.56686077
0.56686144
0.66490318
0.66686852
0.66496443
0.66662262
0.6654258
0.66630721
0.66561178
0.66553422
0.66445592
0.66266198
0.65970798
0.65675823
0.65578427
0.65872108
0.66463849
0.66835984
0.66550987
0.66189381
0.6625199
0.66271894
0.66086873
0.66065585
0.66064833
0.6596732
0.65935913
0.6589461
0.65830115
0.65788256
0.65731907
0.65675958
0.65620723
0.65556834
0.65493289
0.65423475
0.65352471
0.65276736
0.65194259
0.65107152
0.65015663
0.64919737
0.6481848
0.64711674
0.64598347
0.64478785
0.64352588
0.64219554
0.64079574
0.6393275
0.63779119
0.63618764
0.63451911
0.6327886
0.63100009
0.62915849
0.62727049
0.62534437
0.62338895
0.62141391
0.61942914
0.61744514
0.61547261
0.61352256
0.61160531
0.60972935
0.60790279
0.60613313
0.60442606
0.6027869
0.60121851
0.59972388
0.59830405
0.59695947
0.59569003
0.59449447
0.59337095
0.59231776
0.59133272
0.59041367
0.58955801
0.58876296
0.588026
0.58734475
0.58671664
0.58613912
0.58560965
0.58512563
0.58468441
0.58428355
0.58392073
0.58359338
0.58329895
0.58303506
0.58279943
0.58258968
0.5824035
0.58223879
0.58209348
0.5819652
0.58184933
0.58172881
0.58152767
0.58093191
0.57904755
0.57544993
0.57209736
0.56983443
0.56830379
0.56724363
0.56650087
0.5659796
0.56561631
0.56536737
0.56520208
0.56509848
0.5650406
0.56501674
0.56501819
0.56503844
0.56507257
0.56511679
0.56516821
0.56522458
0.56528416
0.56534559
0.5654078
0.56546998
0.5655315
0.56559188
0.5656507
0.56570769
0.56576268
0.56581557
0.56586624
0.56591465
0.56596077
0.56600458
0.56604607
0.5660852
0.56612192
0.56615613
0.56618768
0.56621633
0.56624166
0.56626294
0.56627923
0.56628994
0.56629577
0.56629829
0.56629899
0.66490012
0.66687298
0.66496219
0.66662352
0.66542567
0.66630761
0.66561484
0.66554082
0.66447275
0.66269202
0.65974738
0.65678644
0.65577532
0.65865338
0.66456638
0.66834418
0.6655702
0.66191164
0.66250272
0.66273178
0.66088456
0.6606524
0.66065723
0.65968293
0.6593637
0.65895615
0.6583105
0.6578919
0.6573302
0.65677073
0.65621997
0.65558225
0.65494815
0.65425165
0.65354316
0.65278793
0.65196519
0.65109617
0.65018336
0.64922633
0.64821608
0.64715052
0.64601975
0.64482661
0.64356708
0.64223901
0.64084123
0.63937468
0.63783965
0.63623684
0.63456834
0.63283704
0.63104673
0.62920219
0.62730996
0.62537818
0.62341559
0.62143181
0.61943667
0.61744069
0.6154546
0.61348951
0.61155587
0.6096623
0.60781709
0.606028
0.60430085
0.60264121
0.60105211
0.59953676
0.5980964
0.59673163
0.5954425
0.59422789
0.59308605
0.59201542
0.59101387
0.59007931
0.58920919
0.58840075
0.58765147
0.58695895
0.58632056
0.58573368
0.58519571
0.58470392
0.58425557
0.58384811
0.58347911
0.58314593
0.58284591
0.58257663
0.58233574
0.58212083
0.58192957
0.58175984
0.58160958
0.58147651
0.58135644
0.58123443
0.58104427
0.58051116
0.57881841
0.5753676
0.57189795
0.56951593
0.56790625
0.56679257
0.5660122
0.56546372
0.56508025
0.56481599
0.5646388
0.56452571
0.5644601
0.56442981
0.56442584
0.56444149
0.5644717
0.5645126
0.56456124
0.56461532
0.56467306
0.56473308
0.56479428
0.56485581
0.56491701
0.56497737
0.5650365
0.5650941
0.56514995
0.56520392
0.56525589
0.56530576
0.56535351
0.56539909
0.56544249
0.56548366
0.56552249
0.56555889
0.56559268
0.56562357
0.56565106
0.5656743
0.56569215
0.56570387
0.56571019
0.56571288
0.5657136
0.6648969
0.66687761
0.66495988
0.66662443
0.66542554
0.66630799
0.66561797
0.66554753
0.66448996
0.66272288
0.65978809
0.65681596
0.65576691
0.65858395
0.66449198
0.66832664
0.66563215
0.66193103
0.66248487
0.66274454
0.66090112
0.6606489
0.6606662
0.65969304
0.65936837
0.65896645
0.65832013
0.65790147
0.65734164
0.65678217
0.65623303
0.6555965
0.65496376
0.65426893
0.653562
0.65280893
0.65198826
0.65112132
0.65021062
0.64925587
0.64824799
0.64718498
0.64605675
0.64486616
0.64360913
0.6422834
0.64088774
0.63942297
0.63788932
0.63628736
0.63461902
0.63288706
0.63109511
0.62924778
0.62735147
0.62541421
0.62344461
0.62145223
0.61944686
0.61743901
0.61543945
0.61345938
0.61150935
0.60959816
0.60773424
0.60592559
0.6041782
0.60249787
0.6008878
0.59935144
0.59789019
0.59650483
0.59519553
0.59396133
0.59280057
0.59171177
0.5906929
0.58974188
0.58885621
0.58803312
0.58727009
0.58656465
0.58591415
0.58531589
0.5847672
0.58426527
0.58380729
0.58339061
0.58301276
0.58267102
0.5823627
0.58208533
0.58183655
0.58161394
0.58141515
0.58123808
0.58108067
0.58094073
0.58081449
0.58068914
0.5805081
0.58003442
0.57853025
0.57525483
0.57167739
0.56916278
0.56746443
0.56629048
0.56546734
0.56488753
0.5644805
0.5641981
0.56400661
0.56388199
0.56380688
0.56376861
0.56375784
0.56376764
0.56379278
0.5638293
0.56387417
0.56392505
0.56398011
0.56403793
0.56409739
0.56415761
0.56421788
0.56427768
0.56433658
0.56439425
0.56445045
0.56450501
0.56455779
0.56460868
0.56465762
0.56470455
0.56474944
0.56479221
0.56483278
0.564871
0.56490668
0.5649395
0.56496886
0.56499384
0.5650131
0.56502577
0.56503258
0.56503543
0.56503618
0.66489351
0.66688241
0.66495751
0.66662536
0.66542544
0.66630837
0.66562119
0.66555433
0.66450756
0.66275456
0.65983015
0.65684687
0.6557591
0.65851279
0.66441518
0.66830707
0.66569567
0.66195211
0.66246632
0.66275719
0.66091847
0.66064538
0.66067523
0.65970357
0.65937314
0.65897701
0.65833007
0.6579113
0.65735339
0.65679391
0.65624641
0.6556111
0.65497974
0.65428661
0.65358127
0.65283038
0.65201182
0.651147
0.65023839
0.64928605
0.64828055
0.64722012
0.6460945
0.6449065
0.64365204
0.64232874
0.64093527
0.63947238
0.6379402
0.63633921
0.63467115
0.63293867
0.63114522
0.62929526
0.62739504
0.62545245
0.62347599
0.62147516
0.6194597
0.6174401
0.61542715
0.61343215
0.61146575
0.60953691
0.6076542
0.60582588
0.6040581
0.60235686
0.60072556
0.59916788
0.59768539
0.59627901
0.59494908
0.59369474
0.59251443
0.59140675
0.59036972
0.58940128
0.58849895
0.58765995
0.58688172
0.58616177
0.58549737
0.5848858
0.5843243
0.58381003
0.58334011
0.58291185
0.58252272
0.58217002
0.58185102
0.58156323
0.58130431
0.58107184
0.58086347
0.58067711
0.58051075
0.58036226
0.58022827
0.58009799
0.57992398
0.57950495
0.57818296
0.57511167
0.57144591
0.56878662
0.56699143
0.56575229
0.56488327
0.56427012
0.56383827
0.56353699
0.56333082
0.56319453
0.56310992
0.56306374
0.56304627
0.56305029
0.56307041
0.56310254
0.56314358
0.56319114
0.56324335
0.56329877
0.56335624
0.56341488
0.56347395
0.56353289
0.56359127
0.56364872
0.56370498
0.56375985
0.56381317
0.5638648
0.56391466
0.56396268
0.56400879
0.56405291
0.56409494
0.5641347
0.56417197
0.56420639
0.56423732
0.56426372
0.56428414
0.56429758
0.56430478
0.56430777
0.56430852
0.66488995
0.66688739
0.66495507
0.66662631
0.66542535
0.66630872
0.66562449
0.66556124
0.66452554
0.66278709
0.6598736
0.65687923
0.65575194
0.65843993
0.66433586
0.66828536
0.66576069
0.66197503
0.66244706
0.66276969
0.66093663
0.66064184
0.66068431
0.65971452
0.65937804
0.65898783
0.65834033
0.65792138
0.65736548
0.65680596
0.65626012
0.65562606
0.65499609
0.6543047
0.65360096
0.6528523
0.65203588
0.65117323
0.65026668
0.6493169
0.64831376
0.64725597
0.64613301
0.64494765
0.64369583
0.64237502
0.64098385
0.6395229
0.63799231
0.63639238
0.63472474
0.63299187
0.63119706
0.62934462
0.62744065
0.62549289
0.62350973
0.62150059
0.61947517
0.61744392
0.61541767
0.6134078
0.61142505
0.60947853
0.60757697
0.60572887
0.60394051
0.60221815
0.60056537
0.59898605
0.59748196
0.59605414
0.5947031
0.59342808
0.59222759
0.59110032
0.5900443
0.5890575
0.58813741
0.58728128
0.58648649
0.5857505
0.58507055
0.58444385
0.58386764
0.58333902
0.58285509
0.58241313
0.58201062
0.58164485
0.58131309
0.58101287
0.58074188
0.5804977
0.580278
0.58008072
0.57990387
0.57974538
0.57960225
0.57946549
0.57929603
0.57892537
0.57777535
0.57493344
0.57120797
0.56839172
0.56649049
0.56518024
0.56426122
0.56361171
0.56315279
0.56283094
0.56260882
0.56245989
0.56236503
0.56231037
0.56228571
0.56228353
0.56229822
0.56232558
0.5623624
0.56240623
0.56245517
0.56250775
0.5625628
0.5626194
0.56267682
0.56273447
0.56279189
0.5628487
0.56290462
0.56295941
0.5630129
0.56306493
0.56311538
0.56316417
0.56321121
0.5632564
0.5632996
0.56334064
0.56337925
0.56341504
0.56344731
0.56347495
0.5634964
0.56351052
0.56351806
0.56352116
0.56352192
0.6648862
0.66689255
0.66495256
0.66662728
0.66542528
0.66630906
0.66562787
0.66556825
0.66454391
0.66282047
0.65991847
0.65691311
0.6557455
0.6583654
0.66425384
0.6682614
0.66582711
0.662
0.6624271
0.66278199
0.66095566
0.66063829
0.66069341
0.65972591
0.65938306
0.65899892
0.65835091
0.65793172
0.65737791
0.65681834
0.65627417
0.65564139
0.65501283
0.65432322
0.65362109
0.65287469
0.65206046
0.65120001
0.65029556
0.6493484
0.64834765
0.64729254
0.64617228
0.64498963
0.6437405
0.64242226
0.64103345
0.63957456
0.63804564
0.6364469
0.63477978
0.63304666
0.63125064
0.62939587
0.62748829
0.62553552
0.62354581
0.62152851
0.61949326
0.61745049
0.61541102
0.61338633
0.61138723
0.60942301
0.60750252
0.60563451
0.60382542
0.60208174
0.60040721
0.59880595
0.59727988
0.59583022
0.59445758
0.59316134
0.59194006
0.59079249
0.58971669
0.58871061
0.58777176
0.58689734
0.58608472
0.58533129
0.58463428
0.58399085
0.58339821
0.58285348
0.58235372
0.58189622
0.58147848
0.58109781
0.58075153
0.58043716
0.58015242
0.57989496
0.57966244
0.57945284
0.57926417
0.57909444
0.57894096
0.5787963
0.57862884
0.57829959
0.57730837
0.57471583
0.57096894
0.56798523
0.5659687
0.56458159
0.56360868
0.5629201
0.56243217
0.56208838
0.56184936
0.56168716
0.56158165
0.56151824
0.56148622
0.56147772
0.56148689
0.56150934
0.56154178
0.56158168
0.56162712
0.56167658
0.56172889
0.56178312
0.56183853
0.56189451
0.56195058
0.56200637
0.56206156
0.56211591
0.56216921
0.56222129
0.562272
0.56232125
0.56236892
0.56241489
0.56245901
0.56250107
0.56254078
0.56257773
0.56261115
0.56263987
0.56266222
0.56267696
0.5626848
0.56268799
0.56268875
0.66488226
0.6668979
0.66494998
0.66662826
0.66542523
0.66630938
0.66563135
0.66557534
0.66456267
0.66285471
0.65996481
0.65694859
0.65573984
0.65828923
0.6641689
0.66823513
0.66589481
0.66202718
0.66240642
0.66279406
0.6609756
0.66063475
0.66070254
0.65973778
0.65938821
0.65901027
0.65836183
0.65794233
0.65739069
0.65683105
0.65628857
0.65565711
0.65502997
0.65434217
0.65364167
0.65289757
0.65208556
0.65122736
0.65032516
0.64938042
0.64838224
0.64732985
0.64621234
0.64503246
0.64378608
0.64247048
0.64108411
0.63962737
0.63810022
0.63650276
0.6348363
0.63310305
0.63130595
0.62944899
0.62753797
0.62558034
0.62358424
0.62155891
0.61951396
0.61745977
0.61540717
0.61336771
0.61135228
0.60937033
0.60743083
0.60554281
0.60371282
0.60194759
0.60025106
0.59862754
0.59707915
0.59560722
0.59421253
0.59289453
0.59165186
0.59048333
0.58938699
0.58836079
0.58740223
0.58650849
0.58567689
0.5849048
0.58418939
0.58352783
0.5829173
0.58235493
0.58183779
0.5813632
0.58092867
0.58053157
0.58016925
0.57983927
0.57953939
0.57926729
0.57902068
0.57879753
0.5785959
0.57841385
0.57824893
0.57809506
0.577927
0.57763187
0.57678389
0.57445348
0.57073165
0.56757302
0.56543135
0.56396112
0.56293012
0.56219943
0.56168026
0.56131287
0.56105576
0.56087943
0.56076268
0.56069011
0.56065047
0.56063545
0.56063894
0.56065635
0.56068425
0.56072005
0.56076175
0.56080783
0.5608571
0.56090861
0.56096163
0.56101554
0.56106987
0.56112422
0.56117827
0.56123176
0.56128447
0.56133621
0.56138682
0.56143616
0.56148413
0.56153056
0.56157528
0.56161806
0.5616586
0.56169643
0.56173078
0.56176037
0.56178346
0.5617987
0.56180678
0.56181003
0.56181078
0.66487812
0.66690344
0.66494733
0.66662926
0.6654252
0.66630968
0.66563491
0.66558253
0.66458182
0.66288982
0.66001267
0.65698574
0.65573503
0.65821149
0.66408076
0.66820653
0.66596367
0.66205678
0.66238505
0.66280583
0.6609965
0.66063122
0.66071166
0.65975014
0.65939349
0.65902191
0.65837311
0.65795322
0.65740383
0.65684411
0.65630333
0.65567322
0.65504752
0.65436157
0.65366272
0.65292095
0.65211121
0.65125529
0.6503554
0.64941308
0.64841758
0.64736791
0.64625321
0.64507614
0.64383259
0.64251969
0.64113584
0.63968133
0.63815605
0.63655998
0.63489428
0.63316103
0.63136299
0.62950401
0.62758968
0.62562734
0.62362499
0.62159179
0.61953726
0.61747176
0.61540611
0.61335192
0.61132018
0.60932047
0.6073619
0.60545374
0.60360269
0.6018157
0.6000969
0.59845082
0.59687973
0.59538514
0.59396793
0.59262768
0.59136305
0.59017292
0.58905536
0.58800827
0.58702916
0.58611519
0.58526364
0.58447183
0.58373692
0.58305605
0.58242641
0.58184516
0.58130938
0.58081641
0.58036383
0.57994904
0.57956944
0.57922264
0.57890645
0.57861859
0.5783568
0.57811908
0.5779035
0.57770818
0.57753087
0.57736659
0.57719548
0.57692723
0.57620538
0.57414169
0.57049735
0.56716178
0.56488461
0.56332473
0.56223131
0.56145544
0.56090275
0.56051009
0.56023365
0.56004233
0.55991376
0.55983167
0.55978418
0.55976255
0.5597603
0.55977263
0.55979595
0.55982757
0.55986543
0.55990796
0.55995397
0.56000251
0.56005283
0.56010433
0.56015654
0.56020905
0.56026155
0.56031377
0.56036549
0.56041648
0.56046659
0.56051567
0.56056357
0.56061013
0.56065514
0.56069837
0.56073947
0.56077796
0.560813
0.56084331
0.56086702
0.5608827
0.56089099
0.56089428
0.56089501
0.66487376
0.6669092
0.6649446
0.66663027
0.6654252
0.66630995
0.66563855
0.66558981
0.66460135
0.66292582
0.66006207
0.65702465
0.65573115
0.65813223
0.66398912
0.66817563
0.66603361
0.66208897
0.66236302
0.66281727
0.66101841
0.66062773
0.66072075
0.65976302
0.65939893
0.65903382
0.65838476
0.6579644
0.65741735
0.65685752
0.65631847
0.65568974
0.65506549
0.65438143
0.65368425
0.65294485
0.65213742
0.65128383
0.6503863
0.64944639
0.64845371
0.64740674
0.64629491
0.6451207
0.64388003
0.6425699
0.64118865
0.63973646
0.63821315
0.63661858
0.63495375
0.63322063
0.63142178
0.6295609
0.62764342
0.62567653
0.62366807
0.62162713
0.61956315
0.61748645
0.61540783
0.61333897
0.61129092
0.60927341
0.6072957
0.60536728
0.60349499
0.60168603
0.5999447
0.59827575
0.59668163
0.59516397
0.5937238
0.5923608
0.59107369
0.58986138
0.58872197
0.58765333
0.58665295
0.58571799
0.58484567
0.5840333
0.583278
0.58257691
0.58192724
0.58132614
0.58077076
0.58025844
0.57978681
0.57935337
0.57895553
0.57859096
0.57825754
0.57795302
0.57767516
0.57742201
0.57719166
0.57698227
0.57679175
0.576616
0.57643957
0.57619131
0.57557776
0.57377679
0.57026489
0.56675842
0.56433461
0.56267812
0.56151777
0.56069347
0.56010483
0.55968506
0.55938792
0.55918062
0.55903954
0.55894749
0.55889189
0.5588635
0.55885547
0.55886273
0.5588815
0.55890895
0.55894294
0.55898186
0.55902449
0.55906986
0.55911724
0.55916604
0.55921578
0.55926609
0.55931664
0.55936717
0.55941745
0.55946727
0.55951645
0.55956484
0.55961226
0.55965855
0.55970348
0.55974677
0.55978809
0.55982691
0.55986237
0.55989311
0.55991723
0.5599332
0.55994161
0.55994491
0.55994561
0.66486917
0.66691517
0.66494179
0.6666313
0.66542522
0.66631019
0.66564229
0.66559717
0.66462127
0.6629627
0.66011306
0.6570654
0.65572828
0.65805153
0.6638937
0.66814247
0.66610454
0.6621239
0.66234036
0.66282832
0.66104139
0.66062428
0.66072979
0.65977643
0.65940453
0.659046
0.65839679
0.65797587
0.65743126
0.65687131
0.65633398
0.65570669
0.6550839
0.65440178
0.65370627
0.65296928
0.6521642
0.65131298
0.65041787
0.64948041
0.64849061
0.64744639
0.64633744
0.64516617
0.64392843
0.64262114
0.64124256
0.63979281
0.63827153
0.63667855
0.63501472
0.63328184
0.63148232
0.62961968
0.6276992
0.62572789
0.62371347
0.62166492
0.61959163
0.61750382
0.6154123
0.61332881
0.61126446
0.60922914
0.6072322
0.6052834
0.6033897
0.60155856
0.59979443
0.59810232
0.59648481
0.5949437
0.59348014
0.59209394
0.59078385
0.58954885
0.58838703
0.58729626
0.58627402
0.58531745
0.58442376
0.58359019
0.58281387
0.58209192
0.58142157
0.58079998
0.58022433
0.579692
0.57920068
0.5787479
0.57833116
0.57794816
0.57759684
0.57727499
0.57698042
0.57671119
0.57646544
0.57624134
0.57603695
0.57584882
0.57566508
0.57543049
0.57490747
0.5733572
0.57003104
0.56637037
0.56378807
0.56202767
0.56079574
0.55991968
0.55929257
0.55884375
0.55852446
0.55830009
0.55814573
0.55804321
0.55797921
0.55794392
0.5579301
0.55793234
0.55794665
0.55797002
0.55800023
0.55803559
0.55807482
0.55811697
0.55816128
0.55820717
0.5582542
0.55830198
0.55835021
0.55839866
0.5584471
0.55849531
0.55854313
0.55859039
0.55863691
0.55868252
0.55872698
0.55876999
0.55881119
0.55885002
0.55888559
0.5589165
0.55894079
0.55895683
0.55896522
0.55896846
0.55896913
0.66486434
0.66692136
0.66493891
0.66663235
0.66542528
0.6663104
0.66564612
0.66560461
0.66464156
0.66300048
0.66016568
0.65710808
0.65572651
0.65796949
0.66379427
0.66810711
0.6661764
0.66216165
0.66231713
0.66283891
0.66106548
0.6606209
0.66073876
0.6597904
0.65941031
0.65905847
0.65840922
0.65798764
0.65744557
0.65688549
0.6563499
0.65572407
0.65510276
0.65442261
0.65372881
0.65299426
0.65219157
0.65134277
0.65045012
0.64951529
0.64852813
0.6474869
0.64638085
0.64521255
0.64397781
0.64267343
0.64129759
0.63985033
0.63833121
0.63673993
0.63507719
0.63334468
0.63154461
0.62968036
0.62775701
0.62578143
0.62376119
0.62170516
0.61962266
0.61752386
0.61541952
0.61332145
0.61124081
0.60918763
0.60717138
0.60520207
0.60328679
0.60143325
0.59964608
0.59793049
0.59628925
0.59472432
0.59323697
0.59182714
0.59049361
0.58923544
0.58805075
0.58693737
0.5858928
0.58491417
0.58399866
0.58314349
0.58234577
0.58160262
0.58091124
0.58026885
0.57967263
0.57911997
0.57860863
0.57813619
0.5777002
0.57729841
0.57692881
0.57658926
0.57627758
0.57599187
0.5757303
0.57549106
0.57527232
0.57507115
0.57487844
0.57465193
0.57420245
0.57288398
0.56979075
0.56600532
0.56325225
0.56138038
0.56007213
0.55914088
0.55847269
0.5579928
0.55764979
0.55740718
0.55723868
0.5571251
0.55705233
0.55700997
0.55699031
0.5569876
0.55699759
0.55701707
0.55704367
0.55707563
0.5571116
0.55715058
0.55719182
0.55723474
0.55727889
0.55732393
0.55736957
0.55741559
0.55746179
0.55750797
0.55755398
0.55759966
0.55764484
0.55768933
0.5577329
0.55777525
0.557816