/*--------------------------------*- C++ -*----------------------------------*\
| =========                 |                                                 |
| \\      /  F ield         | OpenFOAM: The Open Source CFD Toolbox           |
|  \\    /   O peration     | Version:  2506                                  |
|   \\  /    A nd           | Website:  www.openfoam.com                      |
|    \\/     M anipulation  |                                                 |
\*---------------------------------------------------------------------------*/
FoamFile
{
    version     2.0;
    format      ascii;
    arch        "LSB;label=32;scalar=64";
    class       volScalarField;
    location    "2.1";
    object      p;
}
// * * * * * * * * * * * * * * * * * * * * * * * * * * * * * * * * * * * * * //

dimensions      [1 -1 -2 0 0 0 0];

internalField   nonuniform List<scalar> 
1375
(
45730.976
46081.181
45974.159
46322.164
45787.64
46095.369
45995.26
46291.598
46200.839
46451.437
46428.974
46527.06
46588.732
46647.93
46691.917
46729.465
45802.249
46071.695
45985.059
46293.583
46202.03
46406.914
46370.487
46519
46537.428
46599.606
46650.187
46694.892
46741.659
46777.116
46808.452
46829.66
46853.066
46873.006
46887.932
46904.348
46919.995
46934.709
45740.369
46049.544
45995.544
46253.417
46167.773
46396.541
46292.757
46509.683
46512.657
46573.822
46613.417
46670.945
46705.838
46746.26
46789.475
46823.74
46843.265
46862.692
46880.415
46896.952
46913.083
46929.335
46942.233
46953.132
46962.994
46969.086
46979.914
46990.133
46997.205
47002.813
47006.188
47010.413
47014.412
47018.322
45850.887
45929.134
45969.844
46186.831
46128.083
46352.449
46293.121
46476.14
46460.757
46562.027
46592.543
46653.752
46697.795
46733.04
46764.46
46802.849
46834.768
46851.232
46870.59
46891.213
46908.926
46924.137
46938.583
46951.532
46962.136
46970.908
46978.238
46986.671
46994.929
47000.795
47005.328
47009.508
47013.628
47017.814
47020.768
47022.884
47025.092
47027.522
47029.691
47031.554
47032.844
47033.489
47034.604
47036.067
47036.432
47037.102
47036.661
47036.815
47036.659
45829.304
46026.464
45989.207
46193.675
46136.498
46341.244
46295.401
46452.997
46433.698
46547.038
46559.311
46626.259
46690.448
46720.952
46763.626
46786.544
46815.499
46844.686
46864.326
46883.165
46902.028
46918.391
46934.327
46948.818
46960.836
46970.652
46978.428
46986.453
46993.433
46999.33
47005.318
47009.703
47013.723
47016.802
47020.155
47022.814
47025.012
47027.516
47029.642
47031.163
47032.673
47033.582
47034.572
47035.932
47036.273
47037.185
47036.613
47036.7
47036.449
45829.293
45978.802
45995.145
46189.668
46161.413
46341.067
46264.334
46430.87
46458.686
46551.901
46554.784
46616.326
46647.232
46693.495
46747.524
46788.617
46805.055
46831.642
46860.276
46880.313
46897.329
46914.443
46929.367
46943.533
46956.691
46966.811
46976.795
46985.743
46992.565
46999.021
47005.099
47009.421
47013.595
47017.229
47019.889
47022.599
47024.657
47027.246
47029.58
47031.022
47032.713
47033.517
47034.429
47035.771
47036.166
47037.156
47036.522
47036.736
47036.384
45867.183
46061.405
46006.441
46184.779
46142.668
46314.962
46310.957
46426.632
46405.166
46552.014
46550.629
46621.509
46643.969
46699.975
46728.179
46764.682
46797.222
46820.822
46850.864
46880.549
46896.216
46912.498
46928.768
46942.43
46955.442
46966.499
46974.583
46983.524
46991.563
46998.267
47004.446
47009.117
47013.312
47017.304
47019.973
47022.661
47024.382
47026.825
47029.551
47030.914
47032.776
47033.407
47034.364
47035.772
47036.026
47037.026
47036.403
47036.773
47036.427
45930.379
46013.059
46026.453
46146.681
46169.767
46317.391
46304.43
46423.766
46395.166
46542.535
46541.131
46615.503
46640.575
46702.784
46726.731
46760.74
46789.162
46821.582
46844.79
46869.143
46891.567
46909.749
46928.432
46942.151
46954.556
46966.128
46974.489
46982.838
46991.094
46997.826
47003.862
47008.469
47013.008
47017.324
47020.08
47022.507
47024.911
47026.785
47028.901
47030.79
47032.836
47033.405
47034.225
47035.889
47036.022
47036.883
47036.292
47036.75
47036.581
45934.652
46048.374
46050.155
46175.268
46198.721
46301.133
46291.802
46419.805
46431.879
46520.935
46535.349
46614.794
46629.93
46686.193
46724.025
46766.512
46794.869
46819.902
46844.658
46868.328
46890.806
46908.369
46925.4
46939.671
46952.278
46964.773
46975.037
46983.646
46991.168
46997.578
47003.892
47009.013
47012.967
47016.685
47020.107
47022.431
47024.912
47027.113
47028.783
47030.823
47032.809
47033.425
47034.105
47035.936
47036.098
47036.863
47036.292
47036.724
47036.752
45971.66
46060.009
46092.637
46189.545
46184.906
46303.743
46320.505
46413.319
46424.404
46521.599
46537.58
46611.602
46633.627
46677.279
46712.821
46758.808
46798.249
46820.401
46841.286
46866.561
46891.474
46909.422
46925.683
46940.512
46952.134
46964.164
46974.124
46983.634
46991.486
46997.724
47004.363
47009.538
47013.518
47016.713
47020.152
47022.519
47024.765
47026.997
47028.866
47030.916
47032.89
47033.595
47034.056
47035.735
47036.157
47036.834
47036.29
47036.705
47036.829
46003.769
46124.272
46120.738
46200.224
46208.667
46299.26
46323.374
46404.105
46438.241
46529.584
46535.778
46606.469
46631.935
46676.555
46719.768
46759.789
46789.634
46817.838
46842.707
46866.222
46887.461
46907.959
46925.9
46940.982
46953.116
46964.517
46974.487
46984.011
46991.773
46997.89
47004.467
47009.765
47013.873
47016.944
47020.335
47022.761
47024.83
47026.999
47028.948
47030.966
47032.892
47033.675
47034.146
47035.652
47036.114
47036.805
47036.275
47036.705
47036.779
46054.796
46123.514
46128.084
46223.214
46235.511
46305.492
46330.04
46407.555
46449.269
46527.73
46543.67
46603.674
46633.442
46682.968
46720.888
46757.003
46788.582
46818.734
46843.481
46867.534
46888.41
46906.999
46925.946
46941.305
46953.397
46964.934
46975.249
46984.281
46992.102
46998.406
47004.611
47009.866
47014.108
47017.207
47020.455
47022.875
47025.05
47027.217
47029.051
47031.027
47032.705
47033.697
47034.201
47035.691
47036.16
47036.765
47036.287
47036.703
47036.633
46109.207
46165.796
46152.273
46245.498
46262.893
46338.249
46353.93
46441.378
46448.704
46499.915
46545.866
46604.458
46638.861
46687.638
46724.884
46760.732
46792.316
46818.575
46844.825
46868.567
46890.708
46908.549
46926.572
46942.35
46954.974
46965.873
46975.729
46984.809
46992.72
46998.987
47004.973
47010.031
47014.389
47017.574
47020.637
47022.805
47025.146
47027.517
47029.23
47031.011
47032.67
47033.731
47034.187
47035.642
47036.295
47036.744
47036.286
46084.7
46220.882
46196.176
46270.418
46285.113
46364.22
46381.139
46444.086
46451.801
46515.728
46564.37
46608.335
46639.291
46689.742
46733.664
46767.288
46790.787
46821.763
46849.851
46871.526
46890.985
46910.634
46928.397
46944.43
46957.139
46966.928
46976.215
46985.727
46993.578
46999.627
47005.523
47010.322
47014.668
47017.911
47020.781
47022.834
47025.4
47027.587
47029.309
47031.111
47032.719
47033.811
47034.166
47035.569
47036.349
47036.734
46138.331
46174.5
46225.78
46299.137
46307.31
46364.388
46398.168
46451.992
46485.355
46548.169
46571.664
46608.527
46655.731
46708.856
46739.274
46761.556
46795.191
46829.3
46854.504
46874.061
46893.977
46913.544
46930.852
46946.977
46959.172
46968.24
46977.759
46986.914
46994.268
47000.477
47006.287
47010.645
47014.822
47018.244
47021.028
47023.079
47025.68
47027.656
47029.34
47031.19
47032.748
47033.906
47034.213
47035.5
47036.336
46223.454
46277.139
46272.192
46322.599
46337.729
46393.743
46433.187
46485.952
46518.637
46556.663
46579.286
46635.629
46684.486
46716.893
46737.693
46772.181
46806.545
46831.357
46856.43
46879.084
46899.098
46917.021
46933.94
46949.056
46960.629
46970.692
46979.894
46988.088
46995.172
47001.574
47007.06
47011.057
47015.066
47018.619
47021.364
47023.449
47025.915
47027.798
47029.469
47031.25
47032.753
47033.996
47034.288
47035.466
46258.582
46324.341
46313.147
46369.162
46383.181
46449.634
46471.408
46507.758
46537.097
46571.679
46614.265
46667.142
46691.392
46717.229
46752.393
46792.234
46812.038
46835.035
46863.494
46886.284
46903.4
46921.272
46937.128
46950.787
46963.048
46973.464
46982.079
46989.626
46996.472
47002.569
47007.828
47011.704
47015.533
47019.07
47021.764
47023.809
47026.181
47028.018
47029.637
47031.315
47032.794
47034.107
47034.347
46289.47
46406.701
46345.985
46410.783
46431.932
46472.442
46488.575
46531.169
46564.722
46610.101
46647.353
46677.087
46695.103
46739.601
46779.516
46795.174
46815.447
46846.941
46874.425
46890.406
46908.499
46926.156
46940.329
46953.828
46965.937
46975.709
46984.224
46991.733
46997.98
47003.427
47008.725
47012.509
47016.104
47019.6
47022.171
47024.138
47026.552
47028.289
47029.77
47031.397
47032.888
47034.222
46173.192
46484.984
46363.096
46461.93
46465.591
46499.454
46527.037
46569.053
46600.917
46640.851
46664.046
46690.007
46727.174
46766.036
46781.638
46802.391
46833.923
46862.864
46877.681
46895.755
46915.517
46931.159
46944.623
46958.316
46968.543
46977.46
46986.842
46993.959
46999.57
47004.487
47009.691
47013.394
47016.756
47020.144
47022.527
47024.504
47026.987
47028.562
47029.881
47031.496
47032.995
46515.166
46305.244
46413.311
46481.709
46490.002
46542.532
46570.112
46605.465
46629.157
46659.821
46686.046
46726.499
46756.719
46773.166
46792.699
46827.6
46854.002
46866.955
46884.312
46905.529
46922.842
46936.486
46950.728
46962.711
46970.806
46980.031
46989.424
46995.957
47001.425
47005.746
47010.598
47014.337
47017.515
47020.713
47022.909
47024.911
47027.411
47028.829
47030.023
47031.607
46391.698
46608.96
46454.303
46545.805
46535.168
46587.473
46603.544
46635.222
46659.924
46691.482
46722.623
46754.987
46768.551
46789.495
46822.276
46849.788
46861.36
46876.185
46898.527
46915.834
46929.614
46943.501
46956.999
46966.538
46974.019
46983.131
46991.576
46997.904
47003.361
47007.094
47011.555
47015.241
47018.295
47021.312
47023.377
47025.303
47027.783
47029.106
47030.207
46524.866
46508.051
46541.241
46594.275
46593.107
46629.254
46644.552
46674.418
46701.092
46730.289
46752.402
46771.191
46789.498
46820.613
46846.618
46860.8
46873.541
46894.618
46912.911
46924.575
46937.877
46951.118
46962.394
46970.932
46978.313
46986.146
46993.606
46999.89
47005.089
47008.533
47012.637
47016.079
47019.024
47021.92
47023.888
47025.677
47028.098
47029.405
46525.041
46605.893
46603.713
46642.504
46645.537
46675.578
46692.211
46718.827
46741.521
46764.044
46781.823
46800.638
46823.225
46847.786
46862.138
46876.518
46894.858
46912.509
46923.498
46934.407
46947.598
46958.094
46967.916
46976.263
46982.683
46989.215
46996.077
47001.824
47006.695
47010.134
47013.752
47016.893
47019.736
47022.525
47024.413
47026.07
47028.378
46643.431
46611.967
46653.43
46681.442
46691.572
46723.663
46737.646
46761.482
46778.671
46798.16
46816.435
46836.319
46854.493
46869.819
46882.961
46899.666
46915.075
46925.995
46934.995
46946.868
46957.192
46965.266
46974.352
46981.455
46986.882
46992.993
46998.95
47003.811
47008.435
47011.785
47014.909
47017.772
47020.44
47023.079
47024.968
47026.475
46667.64
46713.062
46705.182
46735.179
46746.705
46774.307
46787.197
46807.502
46822.407
46839.023
46854.634
46871.395
46884.032
46896.571
46910.034
46921.825
46930.672
46939.53
46949.454
46959.319
46966.447
46973.73
46980.911
46986.002
46991.464
46997.435
47002.087
47006.097
47010.357
47013.44
47016.178
47018.734
47021.151
47023.607
47025.543
47026.881
46761.743
46753.838
46780.686
46798.395
46810.382
46829.143
46840.607
46856.463
46869.115
46882.882
46894.394
46905.632
46915.019
46925.72
46934.988
46942.416
46949.379
46956.917
46964.318
46970.396
46976.443
46982.877
46987.151
46990.73
46996.293
47001.779
47005.403
47008.721
47012.36
47015.149
47017.571
47019.765
47021.92
47024.174
47026.114
46799.972
46839.532
46840.719
46864.292
46873.435
46889.412
46899.797
46911.323
46920.985
46931.026
46938.598
46945.907
46950.811
46954.865
46958.865
46963.568
46968.573
46973.192
46977.281
46981.441
46986.969
46991.811
46993.929
46996.496
47001.047
47005.772
47008.748
47011.401
47014.451
47016.908
47018.982
47020.812
47022.772
47024.775
46901.809
46905.829
46922.918
46934.413
46944.94
46955.37
46962.829
46970.86
46975.254
46979.325
46981.669
46982.948
46983.804
46985.726
46986.477
46986.808
46987.384
46987.838
46989.243
46992.09
46996.52
46999.677
47000.822
47002.369
47005.467
47009.379
47011.912
47014.048
47016.6
47018.663
47020.417
47021.922
47023.68
46972.289
47005.54
47002.646
47021.314
47024.842
47031.925
47034.589
47035.621
47034.366
47031.615
47027.307
47024.284
47019.666
47014.312
47010.984
47008.32
47005.671
47003.737
47002.522
47003.674
47006.136
47007.508
47007.473
47008.067
47009.633
47012.431
47014.585
47016.568
47018.694
47020.308
47021.864
47121.909
47123.894
47130.198
47121.831
47120.658
47114.076
47105.69
47097.942
47088.964
47079.953
47070.364
47060.777
47052.216
47045.591
47037.684
47027.417
47020.895
47018.484
47016.432
47014.987
47014.601
47014.603
47014.107
47013.878
47014.378
47015.586
47017.118
47018.965
47020.714
47021.908
47254.673
47260.83
47239.534
47237.637
47219.787
47202.395
47184.526
47166.4
47147.955
47130.336
47114.001
47097.832
47083.303
47070.311
47059.42
47051.698
47040.213
47032.152
47028.961
47025.864
47022.337
47020.056
47019.287
47018.628
47018.933
47018.989
47020.001
47021.582
47022.704
47514.638
47432.58
47409.076
47339.281
47312.708
47281.832
47252.057
47224.939
47198.66
47172.925
47148.655
47126.712
47107.089
47088.683
47072.409
47067.827
47059.877
47049.683
47041.408
47037.158
47031.82
47027.371
47025.207
47023.643
47022.99
47022.232
47022.757
47173.238
47201.82
47259.767
47171.208
47195.322
47242.038
47331.848
47459.037
47561.58
47169.449
47192.233
47241.726
47318.323
47423.945
47495.28
47162.246
47186.206
47233.05
47304.67
47397.243
47444.242
47156.734
47179.458
47222.109
47284.349
47357.864
47391.527
47151.725
47173.119
47211.689
47263.3
47319.524
47341.574
47146.59
47166.347
47200.446
47242.107
47283.979
47297.594
47141.39
47158.952
47188.142
47220.69
47251.382
47259.82
47150.924
47174.887
47198.768
47220.76
47226.092
47142.226
47161.202
47177.63
47193.848
47197.464
47132.178
47147.465
47157.23
47169.157
47172.752
47121.022
47132.174
47138.473
47145.279
47154.944
47111.233
47116.342
47124.594
47126.023
47129.931
47105.384
47108.62
47112.051
47111.143
47109.138
47097.165
47097.63
47100.883
47103.621
47089.511
47087.182
47090.301
47093.771
47071.946
47079.564
47080.556
47076.335
47066.418
47074.646
47068.313
47062.406
47062.835
47058.744
47057.677
47052.989
47054.258
47049.18
47043.019
47048.783
47042.136
47038.122
47037.832
47034.323
47036.162
47032.314
47034.946
47030.603
47028.515
47026.431
)
;

boundaryField
{
    Side
    {
        type            empty;
    }
    Inlet
    {
        type            totalPressure;
        rho             rho;
        psi             none;
        gamma           1;
        p0              uniform 50000;
        value           nonuniform List<scalar> 9(47036.921 47036.895 47036.864 47036.803 47036.742 47036.702 47036.673 47036.656 47036.651);
    }
    Airfoil
    {
        type            zeroGradient;
    }
    Outlet
    {
        type            fixedValue;
        value           nonuniform List<scalar> 0();
    }
    procBoundary1to0
    {
        type            processor;
        value           nonuniform List<scalar> 
53
(
45729.73
46100.075
46047.293
46427.236
46280.682
46280.682
46475.455
46457.729
46588.895
46629.202
46677.214
46720.546
46759.943
46767.612
46767.612
46796.282
46818.875
46846.71
46868.177
46880.934
46896.963
46912.774
46926.504
46940.849
46947.255
46947.255
46956.77
46967.347
46975.245
46983.62
46991.769
46998.482
47002.811
47007.261
47011.102
47015.578
47018.908
47020.931
47020.931
47022.856
47024.924
47027.658
47029.974
47031.925
47032.908
47033.44
47034.648
47036.057
47036.459
47037.258
47036.719
47037.104
47036.913
)
;
    }
    procBoundary1to2
    {
        type            processor;
        value           nonuniform List<scalar> 
75
(
47036.705
47036.444
47036.705
47036.341
47036.341
47036.722
47036.722
47036.315
47036.315
47035.441
47035.441
47034.417
47034.417
47034.34
47034.34
47033.092
47033.092
47031.713
47031.713
47030.406
47030.406
47029.707
47029.707
47028.641
47028.641
47028.903
47027.292
47027.292
47026.663
47026.663
47025.401
47023.051
47025.401
47024.612
47023.051
47023.309
47023.309
47023.465
47024.196
47023.465
47024.759
47024.196
47025.833
47160.15
47156.914
47153.871
47151.16
47148.796
47146.543
47143.059
47139.185
47136.43
47136.43
47131.117
47125.573
47121.355
47117.329
47108.273
47096.216
47086.721
47086.721
47077.627
47070.128
47064.791
47064.791
47055.567
47051.169
47042.934
47042.934
47039.493
47037.415
47032.912
47032.912
47030.646
47025.833
)
;
    }
    procBoundary1to8
    {
        type            processor;
        value           nonuniform List<scalar> 8(47622.265 47174.712 47200.907 47348.863 47259.538 47348.863 47493.72 47622.265);
    }
}


// ************************************************************************* //
