/*--------------------------------*- C++ -*----------------------------------*\
| =========                 |                                                 |
| \\      /  F ield         | OpenFOAM: The Open Source CFD Toolbox           |
|  \\    /   O peration     | Version:  2506                                  |
|   \\  /    A nd           | Website:  www.openfoam.com                      |
|    \\/     M anipulation  |                                                 |
\*---------------------------------------------------------------------------*/
FoamFile
{
    version     2.0;
    format      ascii;
    arch        "LSB;label=32;scalar=64";
    class       volScalarField;
    location    "2.5";
    object      omega;
}
// * * * * * * * * * * * * * * * * * * * * * * * * * * * * * * * * * * * * * //

dimensions      [0 0 -1 0 0 0 0];

internalField   nonuniform List<scalar> 
1375
(
1561.9879
558.84804
194.24977
142.1896
1595.2989
547.0495
194.99764
141.67814
88.732601
82.205587
60.347941
56.430965
48.324998
46.709893
42.814566
41.002878
1630.2223
542.20253
199.13345
144.18016
90.371522
86.798719
62.276569
58.114276
49.930544
46.727181
43.225941
41.422564
39.918645
39.404947
38.693887
38.267341
38.024796
37.836766
37.716037
37.628822
37.578516
37.546498
1666.9126
571.91771
213.21261
152.68535
94.638987
86.705647
62.258946
57.931683
50.086833
46.764944
44.464658
41.410174
40.326625
39.555688
38.733993
38.262244
37.986031
37.799114
37.660507
37.577633
37.523591
37.491485
37.472169
37.469029
37.477982
37.49706
37.520017
37.550047
37.588917
37.638051
37.69266
37.759661
37.839388
37.93296
1702.9573
572.21284
229.83836
159.96117
97.854114
87.150929
62.795656
59.114618
50.075749
50.157659
44.381564
41.711544
40.29519
39.66919
38.867672
38.427598
38.039982
37.818248
37.661301
37.559247
37.496259
37.447526
37.423759
37.413526
37.415783
37.430519
37.447781
37.473251
37.50798
37.550943
37.600612
37.661392
37.735323
37.821232
37.924231
38.047515
38.19393
38.369294
38.580192
38.834638
39.143756
39.52182
39.988529
40.572901
41.318902
42.297949
43.642951
45.635645
48.949549
1739.5392
575.08861
230.83133
159.77009
97.897089
87.168102
62.619389
58.97266
50.379068
49.877368
44.300318
42.302136
40.282389
39.709578
38.934028
38.425291
38.045583
37.823032
37.653129
37.541154
37.465192
37.411223
37.379767
37.362198
37.357847
37.3649
37.377921
37.400306
37.428737
37.466283
37.510441
37.565757
37.633887
37.712579
37.807897
37.922692
38.060273
38.225436
38.424961
38.666873
38.961714
39.323301
39.770982
40.333161
41.052781
41.999397
43.302564
45.237032
48.476662
1777.1358
569.07007
228.96747
159.50826
98.20239
85.616116
62.636361
58.829129
50.974165
49.135277
44.353407
42.26546
40.553996
39.770371
38.946163
38.417874
38.044033
37.768783
37.593908
37.480828
37.40796
37.356596
37.321821
37.303075
37.297738
37.299763
37.310997
37.327233
37.350623
37.383657
37.422905
37.473114
37.535078
37.606883
37.695067
37.801849
37.931137
38.086735
38.275608
38.505853
38.787203
39.133273
39.563191
40.104723
40.799693
41.71598
42.980106
44.860322
48.031248
1814.6082
567.79449
228.48554
161.64939
98.965302
85.320598
63.865534
59.453046
51.311389
49.466683
44.80998
42.315119
40.891062
39.898916
39.124067
38.604964
38.080434
37.800248
37.589851
37.44528
37.374879
37.30732
37.268343
37.24618
37.234771
37.234713
37.241052
37.253566
37.273868
37.302952
37.337757
37.382804
37.438381
37.503983
37.585505
37.684858
37.806208
37.952821
38.131835
38.351011
38.619615
38.951168
39.364538
39.886783
40.558688
41.446646
42.674326
44.504006
47.611347
1853.1674
568.39591
230.22392
166.9084
101.04815
87.134245
65.922348
60.138708
51.561394
49.789728
44.947972
42.870035
40.968673
40.000068
39.104092
38.629282
38.120605
37.860473
37.588259
37.458737
37.353228
37.272017
37.228871
37.195494
37.175973
37.16937
37.174159
37.18203
37.198871
37.22386
37.254006
37.293801
37.343519
37.403662
37.479012
37.571665
37.685217
37.823443
37.993225
38.20195
38.458587
38.776541
39.17446
39.678654
40.328915
41.190484
42.384128
44.166754
47.215467
1893.305
563.9347
233.14472
173.63059
104.27787
90.940979
67.282077
59.942017
51.75981
49.487534
44.903591
43.437911
40.963313
40.078695
39.144641
38.586301
38.104491
37.786656
37.556521
37.419363
37.309293
37.22565
37.179729
37.141684
37.118173
37.10758
37.109181
37.111995
37.124933
37.145895
37.171484
37.206619
37.250788
37.305858
37.375462
37.461782
37.567935
37.698408
37.859503
38.058305
38.303739
38.609009
38.99249
39.479664
40.109696
40.946607
42.108488
43.84732
46.842448
1928.7157
553.58386
237.59298
179.0157
108.26393
92.510508
67.956687
59.616449
51.658513
49.478516
45.006611
43.559582
40.991129
40.32288
39.296617
38.583672
38.089491
37.769461
37.523707
37.367107
37.262738
37.179038
37.127057
37.086049
37.059247
37.047077
37.04285
37.042067
37.051817
37.068879
37.090416
37.121272
37.160216
37.210544
37.274772
37.354985
37.454196
37.577462
37.730316
37.919704
38.154708
38.448148
38.818116
39.289324
39.900468
40.714266
41.846514
43.544545
46.491114
1967.2975
566.986
242.343
182.58048
112.53627
92.551981
69.532138
59.718208
51.833015
49.452151
45.243791
43.880063
41.200064
40.640547
39.299054
38.603121
38.074856
37.770372
37.507498
37.334661
37.22143
37.134839
37.074951
37.030135
37.000319
36.984671
36.975887
36.973129
36.980158
36.992725
37.010828
37.037359
37.071725
37.117707
37.176733
37.251072
37.343859
37.460324
37.605361
37.785923
38.011176
38.29357
38.650832
39.107095
39.70068
40.492848
41.597498
43.257425
46.160207
2007.6894
573.4676
247.88931
186.26797
117.74067
93.168072
72.268029
60.520633
52.673857
49.565546
45.675826
44.468196
41.557333
40.680344
39.311456
38.651507
38.071173
37.766119
37.476782
37.295648
37.176659
37.083712
37.018456
36.97221
36.94102
36.921593
36.910277
36.905321
36.909341
36.917406
36.932384
36.954657
36.985276
37.027002
37.080929
37.149778
37.236655
37.346649
37.484319
37.656664
37.87281
38.144852
38.490182
38.932475
39.509696
40.281641
41.360601
42.984928
45.848115
2049.1796
625.02233
265.21711
192.53357
125.47206
95.317521
73.574126
62.285662
53.314299
49.916566
46.411169
44.913644
41.837162
40.760031
39.364735
38.652931
38.06541
37.747826
37.446732
37.263528
37.13502
37.030312
36.962891
36.916209
36.882144
36.860117
36.845935
36.837852
36.838718
36.84313
36.854717
36.873167
36.900518
36.937947
36.987112
37.050864
37.132263
37.236061
37.366864
37.531571
37.73923
38.001567
38.335702
38.764985
39.326932
40.079981
41.134966
2087.6437
649.5224
279.01606
196.2525
132.2107
97.480237
73.708988
62.851693
53.445132
50.299772
46.568161
45.273148
42.117715
40.871906
39.35965
38.619641
38.06548
37.708583
37.432847
37.230267
37.086749
36.981024
36.913019
36.862573
36.824679
36.80025
36.78206
36.771039
36.768673
36.769781
36.777734
36.793144
36.817057
36.850476
36.895287
36.95423
37.0305
37.128456
37.25284
37.410464
37.610187
37.863414
38.18707
38.60428
39.151962
39.887288
2126.5888
690.36103
290.19758
197.88094
134.19738
98.639117
73.617969
62.71185
53.577888
50.480352
46.740013
45.860792
42.403553
40.928862
39.371981
38.605723
38.070398
37.686098
37.402092
37.18024
37.042416
36.940327
36.864085
36.807831
36.768201
36.740293
36.718551
36.704938
36.699169
36.697027
36.701787
36.714544
36.734972
36.764759
36.805347
36.859801
36.931303
37.023766
37.14214
37.293207
37.485489
37.730159
38.044038
38.450027
38.984376
2164.6007
697.56448
286.4514
196.43688
133.58448
98.407675
73.335132
62.339361
53.932878
50.632541
47.259552
46.776916
42.714918
41.046508
39.432107
38.620093
38.085872
37.675455
37.366527
37.140114
37.016981
36.895445
36.810004
36.752651
36.711455
36.679457
36.655214
36.638714
36.629891
36.624752
36.627046
36.637051
36.65422
36.680556
36.717071
36.767426
36.834477
36.921767
37.034537
37.179531
37.364828
37.601489
37.906273
38.301796
2207.0173
714.46295
287.33795
192.91666
131.76021
97.545143
73.408465
62.041613
54.620676
51.0483
48.174421
47.734394
43.207508
41.254663
39.488844
38.679393
38.088318
37.643779
37.346625
37.130866
36.980285
36.839437
36.757484
36.697861
36.653689
36.61749
36.591466
36.571652
36.560637
36.55302
36.553076
36.560268
36.574446
36.59732
36.630189
36.676766
36.739647
36.822102
36.92969
37.069016
37.247761
37.476967
37.773311
2229.1439
701.7522
282.44583
185.66926
128.14264
95.965717
73.818445
62.031151
55.280021
51.509697
48.943286
48.690797
43.861745
41.406633
39.536975
38.743504
38.095584
37.641315
37.31747
37.108259
36.927188
36.786047
36.711193
36.642101
36.594937
36.554673
36.526998
36.504209
36.491558
36.481941
36.479615
36.484164
36.495374
36.514972
36.544748
36.587684
36.646683
36.724668
36.827474
36.961485
37.134091
37.356398
2285.3602
805.98385
293.42373
184.5746
126.08517
95.779633
74.31803
62.350026
55.565953
51.79189
49.576127
49.560323
44.397897
41.495236
39.631364
38.803272
38.123364
37.670156
37.27535
37.064379
36.877655
36.747413
36.659536
36.586247
36.535468
36.491832
36.461914
36.437311
36.422716
36.411388
36.40676
36.40879
36.417055
36.433705
36.460877
36.500254
36.555618
36.62949
36.727859
36.856879
37.023761
2268.6186
783.31395
292.38681
183.72659
124.89497
95.655166
74.670291
62.983298
55.771967
52.03769
50.068846
50.125295
44.845692
41.687986
39.821526
38.834843
38.177079
37.655393
37.259956
37.021911
36.84123
36.702298
36.601879
36.530705
36.475072
36.429164
36.396307
36.371114
36.353648
36.340932
36.334281
36.33378
36.339361
36.353399
36.37822
36.41422
36.466189
36.536286
36.630532
36.754878
2300.9061
919.23033
310.24004
185.07822
124.8623
96.02246
75.410084
63.985949
56.247814
52.332182
50.347738
50.441378
45.438358
42.056091
40.042361
38.84895
38.172244
37.625705
37.266491
36.991571
36.799837
36.648111
36.544636
36.473462
36.413481
36.366304
36.330426
36.304778
36.284159
36.27021
36.261781
36.258786
36.26215
36.273801
36.296361
36.329262
36.378077
36.444734
36.535154
2298.3832
892.19966
308.87428
183.91638
124.44505
95.891095
76.486968
64.855846
57.026727
52.60404
50.625692
50.795997
46.230069
42.5175
40.258501
38.877798
38.163518
37.616576
37.262092
36.96002
36.751954
36.59739
36.488287
36.4136
36.351243
36.303136
36.264829
36.237515
36.214696
36.199252
36.189158
36.183894
36.185506
36.194899
36.215226
36.24536
36.291252
36.354793
2321.7834
974.72692
321.49857
183.1809
124.22802
96.044352
77.875132
65.632928
57.826931
52.841459
51.104104
50.867456
46.854471
43.017546
40.552351
38.956721
38.171255
37.602071
37.234167
36.924544
36.710106
36.549633
36.431516
36.35278
36.289268
36.239431
36.199256
36.169247
36.145515
36.128138
36.116497
36.109241
36.10943
36.116704
36.134805
36.162511
36.205703
2323.7975
943.35487
317.87161
180.04803
123.10812
95.867493
78.502281
65.896893
58.312446
53.031071
51.590078
50.795439
47.268332
43.700751
41.014622
39.088519
38.172897
37.569352
37.185951
36.887638
36.6696
36.498986
36.374826
36.292606
36.226994
36.174841
36.133167
36.100082
36.076053
36.056705
36.043561
36.0346
36.033521
36.0389
36.054793
36.080393
2349.5987
989.85948
322.62477
177.51611
122.9778
96.075375
79.244037
66.270144
58.765119
53.25067
51.565132
50.46983
47.517598
44.575672
41.637709
39.235878
38.173069
37.538072
37.142428
36.847668
36.622282
36.443158
36.317847
36.232827
36.163577
36.109191
36.066145
36.030451
36.005844
35.984831
35.970153
35.959765
35.957416
35.961168
35.974914
35.998692
2373.661
957.04282
318.93331
175.50744
122.94655
96.399239
79.932388
66.661854
59.30748
53.561911
51.39924
50.144086
47.944525
45.655476
42.263862
39.402124
38.181756
37.52948
37.113235
36.802233
36.567555
36.385321
36.258839
36.171542
36.098651
36.043109
35.998246
35.96064
35.934833
35.912598
35.896331
35.884833
35.881108
35.883468
35.895196
2409.4106
1000.29
334.26821
178.80132
125.90124
98.01635
81.224081
67.544649
60.008108
54.083452
51.213447
49.957762
48.071861
46.155613
42.802452
39.62568
38.230442
37.536602
37.088295
36.757197
36.513622
36.327709
36.19676
36.107877
36.032275
35.976094
35.929269
35.890686
35.863018
35.839817
35.822059
35.809751
35.804545
35.805692
2422.1777
977.44117
334.39006
181.32936
128.17605
99.724612
82.355004
68.533999
60.744647
54.85154
51.300701
49.85405
48.136216
46.323927
43.190438
39.915761
38.302224
37.535849
37.065635
36.71676
36.462652
36.272177
36.133231
36.04223
35.964647
35.907388
35.858889
35.819796
35.790147
35.766111
35.747075
35.734157
35.727482
2429.9457
1036.7812
362.5526
189.35474
132.95591
102.43219
84.006069
69.95497
61.499044
55.515634
51.401203
49.567295
47.897373
46.260913
43.5821
40.263573
38.393535
37.532035
37.034487
36.677143
36.4146
36.215625
36.069165
35.975224
35.895949
35.836437
35.786959
35.747315
35.715723
35.690953
35.670974
2446.5538
1019.7052
361.41003
191.65496
133.84965
104.36452
85.45204
71.322977
62.23548
55.910788
51.416803
49.014838
47.424809
46.103932
43.82105
40.593064
38.499097
37.525915
37.001552
36.639319
36.366861
36.159251
36.006429
35.906987
35.825143
35.762881
35.713088
35.672698
35.639501
35.613948
2439.5877
1117.9635
407.16505
203.5967
138.85658
107.30931
87.797264
73.146037
63.188465
56.233154
51.396119
48.097836
46.557545
45.773355
43.975499
40.880264
38.606091
37.531429
36.959559
36.583523
36.310078
36.096939
35.941353
35.836297
35.751553
35.686532
35.636391
35.595113
35.560771
2447.4081
1376.9628
530.54481
246.07489
151.75217
115.45718
93.464869
77.394283
65.849188
57.541701
51.88866
48.168434
46.216685
45.49027
44.240329
41.499516
38.907487
37.586179
36.946795
36.556612
36.263752
36.03896
35.87651
35.764964
35.677223
35.608958
35.557479
1195.4945
1322.2955
1468.5006
964.35047
1017.4268
1077.6872
1174.8068
1237.5747
1290.5913
470.39249
474.5632
479.98691
504.70296
510.75084
513.30233
234.98483
235.11266
234.94023
240.02942
240.43949
239.72575
152.81325
152.76034
152.41264
153.23816
153.01258
152.17785
114.61764
114.97119
115.36721
116.0288
116.12575
115.90468
90.821058
91.628453
92.657799
93.693713
94.128329
94.165339
74.314909
75.080617
76.033741
76.97113
77.50484
77.671947
63.518437
64.183181
64.892683
65.436036
65.74666
55.613177
56.019692
56.427039
56.820007
57.192588
50.24657
50.501899
50.742086
51.027967
51.404984
46.787718
46.969832
47.142288
47.365994
47.710627
45.306343
45.559277
45.698112
45.777494
45.830111
44.761473
45.137127
45.293521
45.34358
45.36844
43.510192
43.965454
44.138404
44.172966
44.188717
41.188148
41.379891
41.45942
41.472797
38.620383
38.749363
38.838571
38.885334
37.292784
37.380831
37.453641
37.515119
36.734052
36.806465
36.877924
36.337635
36.413011
36.485722
36.040042
36.120348
36.191653
35.890776
35.962709
35.724505
35.798226
35.610514
35.686347
35.598182
35.5296
)
;

boundaryField
{
    Side
    {
        type            empty;
    }
    Inlet
    {
        type            fixedValue;
        value           uniform 60.24606;
    }
    Airfoil
    {
        type            omegaWallFunction;
        blending        binomial;
        n               2;
        value           nonuniform List<scalar> 
33
(
1561.9879
1595.2989
1630.2223
1666.9126
1702.9573
1739.5392
1777.1358
1814.6082
1853.1674
1893.305
1928.7157
1967.2975
2007.6894
2049.1796
2087.6437
2126.5888
2164.6007
2207.0173
2229.1439
2285.3602
2268.6186
2300.9061
2298.3832
2321.7834
2323.7975
2349.5987
2373.661
2409.4106
2422.1777
2429.9457
2446.5538
2439.5877
2447.4081
)
;
    }
    Outlet
    {
        type            inletOutlet;
        inletValue      nonuniform List<scalar> 0();
        value           nonuniform List<scalar> 0();
    }
    procBoundary1to0
    {
        type            processor;
        value           nonuniform List<scalar> 
53
(
1529.2789
559.02685
190.61776
145.67671
88.117767
88.117767
79.387789
58.410501
53.200471
47.620266
44.474309
41.864916
40.558923
39.802566
39.802566
39.187069
38.657461
38.262606
38.024595
37.854184
37.738557
37.661676
37.618316
37.59324
37.532231
37.532231
37.532097
37.543001
37.566792
37.590955
37.62778
37.671802
37.726303
37.786415
37.860489
37.94678
38.048174
38.044089
38.044089
38.176518
38.332484
38.51872
38.741702
39.009469
39.333779
39.729385
40.216456
40.824603
41.59888
42.612749
44.002672
46.057936
49.452842
)
;
    }
    procBoundary1to2
    {
        type            processor;
        value           nonuniform List<scalar> 
75
(
42.726047
45.553168
42.726047
40.919898
40.919898
39.703112
39.703112
38.823679
38.823679
38.159104
38.159104
37.644912
37.644912
37.239687
37.239687
36.916455
36.916455
36.655145
36.655145
36.441662
36.441662
36.266441
36.266441
36.121112
36.121112
36.037186
35.917378
35.917378
35.815591
35.815591
35.727557
35.657547
35.727557
35.649568
35.657547
35.593319
35.593319
35.53454
35.515035
35.53454
35.479352
35.515035
35.477916
1087.1326
910.81276
464.00281
234.22725
152.42953
114.00698
90.089879
73.695756
62.961237
62.961237
55.227754
49.979568
46.576116
44.909825
44.078641
42.734028
40.82777
40.82777
38.448007
37.199904
36.661884
36.661884
36.260223
35.956587
35.815381
35.815381
35.648143
35.531951
35.521649
35.521649
35.453581
35.477916
)
;
    }
    procBoundary1to8
    {
        type            processor;
        value           nonuniform List<scalar> 8(2144.3639 1197.6165 1319.9321 1654.2616 1471.7224 1654.2616 1879.0481 2144.3639);
    }
}


// ************************************************************************* //
