/*--------------------------------*- C++ -*----------------------------------*\
| =========                 |                                                 |
| \\      /  F ield         | OpenFOAM: The Open Source CFD Toolbox           |
|  \\    /   O peration     | Version:  2506                                  |
|   \\  /    A nd           | Website:  www.openfoam.com                      |
|    \\/     M anipulation  |                                                 |
\*---------------------------------------------------------------------------*/
FoamFile
{
    version     2.0;
    format      ascii;
    arch        "LSB;label=32;scalar=64";
    class       volScalarField;
    location    "0.0115";
    object      T;
}
// * * * * * * * * * * * * * * * * * * * * * * * * * * * * * * * * * * * * * //

dimensions      [0 0 0 1 0 0 0];

internalField   nonuniform List<scalar> 
13761
(
247.07962
247.08108
247.0826
247.08418
247.08582
247.08751
247.08925
247.09104
247.09285
247.09468
247.09651
247.09831
247.10004
247.10167
247.10316
247.10449
247.10558
247.10637
247.10679
247.10671
247.10596
247.10419
247.10081
247.09455
247.0642
247.06417
247.06412
247.06408
247.06408
247.06416
247.06434
247.06463
247.06503
247.06551
247.06607
247.06669
247.06736
247.06808
247.06885
247.06966
247.0705
247.07139
247.07232
247.07329
247.0743
247.07535
247.07644
247.07758
247.07875
247.07998
247.08124
247.08255
247.08391
247.08531
247.08675
247.08823
247.08975
247.09129
247.09285
247.09442
247.09598
247.0975
247.09897
247.10034
247.10158
247.10263
247.10346
247.10402
247.10425
247.10409
247.10344
247.10216
247.09997
247.09637
247.06249
247.06251
247.06258
247.06271
247.06291
247.06321
247.0636
247.06407
247.06459
247.06515
247.06574
247.06635
247.06697
247.06761
247.06826
247.06894
247.06963
247.07035
247.0711
247.07186
247.07266
247.07348
247.07433
247.0752
247.0761
247.07703
247.07797
247.07894
247.07992
247.08092
247.08192
247.08291
247.08389
247.08485
247.08576
247.08661
247.08738
247.08805
247.08859
247.08897
247.08916
247.08913
247.08886
247.08832
247.08746
247.08625
247.08461
247.08241
247.0561
247.0562
247.05639
247.05668
247.05707
247.05754
247.05807
247.05864
247.0592
247.05974
247.06027
247.06077
247.06126
247.06173
247.0622
247.06267
247.06313
247.06359
247.06406
247.06452
247.065
247.06547
247.06595
247.06643
247.06691
247.06739
247.06786
247.06832
247.06876
247.06918
247.06956
247.06991
247.0702
247.07044
247.07059
247.07066
247.07061
247.07045
247.07014
247.06967
247.06902
247.06818
247.06713
247.06586
247.06432
247.06248
247.05368
247.05367
247.05365
247.05363
247.05358
247.05353
247.05347
247.05341
247.05337
247.05334
247.05333
247.05334
247.05337
247.05342
247.0535
247.05358
247.05369
247.05381
247.05394
247.05408
247.05423
247.05439
247.05455
247.05472
247.05488
247.05504
247.05519
247.05532
247.05544
247.05553
247.05559
247.05562
247.0556
247.05553
247.05539
247.05517
247.05488
247.05448
247.05397
247.05333
247.05256
247.05163
247.05055
247.04457
247.04455
247.04451
247.04447
247.04443
247.0444
247.04439
247.04441
247.04444
247.04449
247.04456
247.04463
247.04471
247.0448
247.0449
247.045
247.04511
247.04522
247.04534
247.04546
247.04558
247.04571
247.04584
247.04596
247.04608
247.0462
247.04632
247.04642
247.04651
247.04659
247.04664
247.04667
247.04667
247.04663
247.04655
247.04641
247.0462
247.04591
247.04554
247.04009
247.04005
247.03997
247.03987
247.03975
247.03963
247.03952
247.03942
247.03935
247.03929
247.03926
247.03924
247.03924
247.03926
247.03929
247.03933
247.03938
247.03944
247.03952
247.0396
247.0397
247.0398
247.03991
247.04003
247.04016
247.04028
247.04041
247.04054
247.04065
247.04076
247.04086
247.04094
247.041
247.04102
247.04101
247.03432
247.03433
247.03434
247.03435
247.03435
247.03433
247.03428
247.03422
247.03414
247.03405
247.03396
247.03388
247.0338
247.03374
247.03368
247.03364
247.03361
247.03359
247.03358
247.03359
247.0336
247.03363
247.03366
247.03371
247.03375
247.0338
245.20502
245.20611
245.20853
245.21254
245.2184
245.2263
245.23616
245.24761
245.26011
245.27327
245.28682
245.30067
245.31477
245.32914
245.3438
245.3588
245.37419
245.39004
245.40638
245.42326
245.44074
245.45887
245.47769
245.49725
245.5176
245.53878
245.56085
245.58386
245.60787
245.63291
245.65904
245.68629
245.7147
245.74427
245.77499
245.80681
245.83967
245.87344
245.908
245.94313
245.97852
246.01383
246.04885
246.08338
246.11728
246.15049
246.1831
246.21537
246.24803
245.11467
245.11534
245.1168
245.11923
245.12284
245.12781
245.13418
245.14179
245.15035
245.15962
245.16943
245.17971
245.1904
245.20151
245.21305
245.22504
245.23751
245.2505
245.26405
245.27818
245.29294
245.30838
245.32453
245.34145
245.35917
245.37777
245.39729
245.41781
245.4394
245.46213
245.48609
245.51136
245.53802
245.56617
245.59588
245.6272
245.66018
245.69481
245.73102
245.7687
245.80763
245.84754
245.88808
245.92895
245.96985
246.01059
246.05115
246.09164
246.1322
246.17323
246.21509
246.25761
246.29942
246.33598
246.33575
246.15879
245.94093
245.68962
245.11416
244.38322
243.8765
243.60229
243.49291
243.49213
243.50651
243.53604
243.55163
243.56531
243.58599
243.59759
243.60502
243.61454
243.62276
243.6362
243.6498
243.65825
243.66664
243.67182
243.66886
243.67533
243.68423
243.69863
243.73303
243.77138
243.79902
243.82312
243.84543
243.85573
243.84721
243.83444
244.97692
244.97792
244.98011
244.98369
244.98885
244.99565
245.00394
245.01333
245.02333
245.0336
245.04395
245.05432
245.0647
245.07511
245.0856
245.09621
245.10701
245.11804
245.12934
245.14098
245.15298
245.16541
245.17831
245.19172
245.2057
245.2203
245.23558
245.25159
245.26841
245.2861
245.30473
245.3244
245.34518
245.36716
245.39041
245.41503
245.44107
245.46859
245.49759
245.52806
245.55992
245.59304
245.62725
245.66235
245.69817
245.73456
245.77152
245.80912
245.84759
245.88711
245.92771
245.96861
246.00696
246.0337
246.0026
245.68663
245.13109
245.19337
244.92804
244.31919
243.82493
243.59503
243.49828
243.49347
243.5102
243.5351
243.55087
243.56453
243.58496
243.59662
243.60808
243.62138
243.62829
243.63758
243.64872
243.65666
243.6662
243.67322
243.67589
243.67989
243.68402
243.69344
243.71221
243.74908
243.78373
243.81664
243.84501
243.86631
243.87268
243.85094
243.8447
243.86384
243.92548
244.01375
244.05733
244.04735
244.1217
244.24054
244.27551
244.93021
244.93076
244.932
244.93407
244.93712
244.94125
244.94644
244.9525
244.95917
244.96621
244.97349
244.98096
244.98859
244.99637
245.00433
245.01249
245.02086
245.02949
245.03838
245.04757
245.05708
245.06694
245.07717
245.08781
245.09888
245.11041
245.12243
245.13499
245.14812
245.16187
245.17628
245.19139
245.20727
245.22396
245.2415
245.25994
245.27934
245.29972
245.32109
245.34344
245.36674
245.39091
245.4159
245.44162
245.46801
245.49506
245.52283
245.55153
245.58147
245.61309
245.64681
245.68284
245.72041
245.75552
245.75653
245.41545
244.51847
244.45931
244.55014
244.24438
243.82679
243.63199
243.58037
243.56185
243.58507
243.59564
243.60639
243.61839
243.6327
243.64331
243.65408
243.66113
243.66306
243.66293
243.6629
243.66359
243.66995
243.67512
243.68304
243.68901
243.68723
243.69426
243.70188
243.72306
243.76157
243.79877
243.83697
243.86801
243.89186
243.87666
243.85502
243.86397
243.90556
243.99911
244.05776
244.04737
244.08638
244.22474
244.27791
244.31323
244.37956
244.41573
244.45444
244.48158
244.89455
244.8951
244.89633
244.89838
244.90141
244.90552
244.91069
244.91671
244.92332
244.93029
244.93748
244.94485
244.95236
244.96002
244.96784
244.97584
244.98404
244.99248
245.00117
245.01013
245.01939
245.02897
245.03889
245.04917
245.05984
245.07092
245.08243
245.09442
245.1069
245.11991
245.13348
245.14766
245.16247
245.17795
245.19414
245.21108
245.22879
245.24729
245.26658
245.28666
245.30749
245.32897
245.35099
245.37345
245.39632
245.41962
245.44352
245.46838
245.49475
245.52348
245.55581
245.59352
245.63938
245.69908
245.75774
245.51325
244.54348
244.26033
244.23519
244.11727
243.87727
243.73384
243.70593
243.68858
243.7067
243.70677
243.70375
243.70565
243.70315
243.70204
243.70263
243.70189
243.69866
243.69947
243.69775
243.69266
243.69227
243.68834
243.6944
243.70225
243.699
243.69958
243.70158
243.71256
243.74221
243.77271
243.81664
243.86543
243.89812
243.90548
243.87412
243.86729
243.89515
243.9824
244.06065
244.05008
244.05497
244.20066
244.27837
244.31776
244.38074
244.41947
244.46304
244.48898
244.52351
244.56694
244.64777
244.84882
244.84949
244.85097
244.85344
244.85706
244.86196
244.86808
244.87518
244.88293
244.89106
244.89942
244.90794
244.91659
244.92537
244.93431
244.94341
244.95271
244.96223
244.97201
244.98206
244.99242
245.00312
245.01417
245.02561
245.03745
245.04973
245.06247
245.0757
245.08945
245.10375
245.11864
245.13415
245.15031
245.16715
245.1847
245.20299
245.22205
245.24189
245.26244
245.28362
245.30535
245.32757
245.35019
245.37317
245.39653
245.42034
245.44486
245.47051
245.49803
245.52856
245.56391
245.60722
245.66478
245.75448
245.9241
246.00646
245.00283
244.32484
244.14058
243.96166
243.91233
243.84754
243.80188
243.79187
243.7763
243.7655
243.74574
243.73216
243.71839
243.70781
243.70461
243.70432
243.70411
243.70802
243.7128
243.71768
243.72126
243.71364
243.71115
243.7165
243.71804
243.70999
243.70414
243.7119
243.73147
243.75366
243.78857
243.85184
243.89795
243.92579
243.90331
243.87763
243.89251
243.96347
244.06392
244.05774
244.0439
244.16896
244.27436
244.32092
244.38061
244.42388
244.47073
244.49873
244.5306
244.5739
244.65143
244.66186
244.70773
244.75407
244.78868
244.78948
244.79125
244.79419
244.79849
244.80429
244.81151
244.81988
244.829
244.83855
244.84835
244.85833
244.86846
244.87873
244.88918
244.89983
244.91072
244.92189
244.93337
244.94519
244.95736
244.96992
244.9829
244.9963
245.01018
245.02453
245.0394
245.05482
245.0708
245.08739
245.10463
245.12253
245.14114
245.16049
245.18061
245.20154
245.22329
245.24589
245.26931
245.29348
245.31833
245.34376
245.36966
245.39592
245.4225
245.44953
245.47731
245.50635
245.53756
245.57238
245.61316
245.66405
245.73361
245.84758
246.10305
246.63804
246.24397
244.98089
244.30183
243.9715
243.88051
243.84439
243.80177
243.79317
243.77001
243.75734
243.73498
243.71928
243.70364
243.69046
243.68494
243.6862
243.69198
243.70181
243.71047
243.72057
243.73127
243.73479
243.73394
243.73598
243.74315
243.73046
243.71804
243.71733
243.73104
243.75042
243.77129
243.82397
243.89041
243.93091
243.93494
243.89553
243.893
243.94348
244.06394
244.07214
244.04424
244.13235
244.26384
244.32485
244.38097
244.42887
244.47669
244.50847
244.53566
244.58159
244.65102
244.66276
244.72496
244.74831
244.78019
244.86547
244.94537
244.7105
244.71136
244.71327
244.71644
244.7211
244.72738
244.73523
244.74433
244.75428
244.76472
244.77546
244.78642
244.79757
244.8089
244.82045
244.83225
244.84434
244.85675
244.86951
244.88266
244.89624
244.91027
244.92479
244.93984
244.95545
244.97167
244.98852
245.00605
245.02431
245.04333
245.06317
245.08387
245.10548
245.12801
245.15151
245.17597
245.20134
245.22755
245.25458
245.28239
245.31088
245.33995
245.3695
245.39954
245.43012
245.46134
245.49348
245.52707
245.56301
245.60267
245.64824
245.70347
245.77593
245.8895
246.14073
246.74978
247.04614
246.33222
245.15075
244.28335
243.85182
243.76696
243.75283
243.74319
243.72034
243.70528
243.68491
243.66752
243.65227
243.64415
243.6458
243.65452
243.66643
243.68037
243.69343
243.70966
243.7253
243.73443
243.74242
243.75007
243.76131
243.75906
243.74746
243.73438
243.73429
243.75151
243.76836
243.79272
243.86936
243.93021
243.95854
243.92319
243.89708
243.92386
244.05926
244.09053
244.05019
244.10191
244.24595
244.32453
244.37918
244.43117
244.48089
244.51951
244.54176
244.59406
244.65095
244.6663
244.74515
244.74252
244.78004
244.88022
244.94674
244.99607
245.04867
244.62659
244.62731
244.62891
244.63156
244.63546
244.64074
244.64736
244.6551
244.66363
244.67267
244.68207
244.69176
244.70173
244.71197
244.72253
244.73342
244.7447
244.7564
244.76856
244.78122
244.79442
244.8082
244.82259
244.83764
244.8534
244.8699
244.88721
244.90536
244.92443
244.94447
244.96555
244.98773
245.01107
245.03563
245.06145
245.08858
245.11702
245.14676
245.17777
245.20996
245.24322
245.27741
245.31236
245.3479
245.38388
245.42037
245.4576
245.49609
245.53667
245.58061
245.62989
245.68768
245.76003
245.86495
246.06292
246.41763
246.82587
246.56203
245.77998
244.73699
243.91707
243.65296
243.57905
243.56353
243.55779
243.55164
243.5471
243.53869
243.54171
243.55961
243.58944
243.61262
243.6275
243.64113
243.65462
243.67456
243.69876
243.72047
243.73955
243.75369
243.76959
243.78571
243.78655
243.7682
243.75128
243.75937
243.77036
243.78252
243.83713
243.92016
243.96608
243.95555
243.90788
243.91005
244.04488
244.10746
244.06621
244.08926
244.22345
244.32231
244.37976
244.43421
244.48652
244.53174
244.54804
244.60741
244.64762
244.67274
244.75146
244.73215
244.78126
244.89284
244.94648
244.99233
245.05176
245.05772
245.04128
244.54678
244.54721
244.54813
244.54964
244.55185
244.55482
244.55856
244.56293
244.56778
244.57296
244.5784
244.58408
244.58998
244.59613
244.60254
244.60927
244.61634
244.62379
244.63167
244.64002
244.64888
244.6583
244.66833
244.67902
244.69044
244.70264
244.71569
244.72966
244.74463
244.76069
244.77791
244.79639
244.81623
244.83753
244.86037
244.88484
244.91101
244.93892
244.96857
244.99993
245.03289
245.0673
245.10297
245.13968
245.17724
245.21556
245.25465
245.29476
245.33633
245.38004
245.42672
245.47724
245.53218
245.59188
245.63996
245.5838
245.90247
246.2057
245.7376
244.83871
243.95943
243.48341
243.30301
243.29969
243.32478
243.36085
243.39473
243.43149
243.47087
243.50904
243.54319
243.56864
243.58353
243.59315
243.60278
243.61969
243.6462
243.67699
243.7144
243.74448
243.76744
243.79312
243.80913
243.80699
243.78745
243.77762
243.77911
243.78344
243.81071
243.89678
243.96571
243.98755
243.92805
243.90486
244.01898
244.11413
244.08804
244.08832
244.20102
244.31479
244.37916
244.43333
244.49198
244.5392
244.55501
244.61965
244.64539
244.68521
244.75631
244.73036
244.78523
244.90585
244.94666
244.98897
245.05485
245.06283
245.04525
245.0579
244.50397
244.50397
244.50396
244.50393
244.50389
244.50386
244.50383
244.50386
244.50396
244.50416
244.50446
244.50488
244.50542
244.5061
244.50692
244.50791
244.50907
244.51043
244.512
244.51383
244.51591
244.51831
244.52104
244.52414
244.52766
244.53164
244.53614
244.54121
244.54691
244.55332
244.56052
244.56859
244.57762
244.58771
244.59896
244.61149
244.62538
244.64072
244.65758
244.676
244.69595
244.71737
244.74015
244.76411
244.78905
244.81478
244.84113
244.86794
244.89503
244.92206
244.94813
244.97103
244.98505
244.97418
244.86921
244.30082
244.18596
245.24148
245.33339
244.59912
243.77459
243.31741
243.21401
243.22183
243.27133
243.32283
243.37628
243.42877
243.47404
243.51067
243.53724
243.55283
243.56745
243.57989
243.58878
243.60151
243.6212
243.6397
243.66952
243.71132
243.75244
243.7896
243.81205
243.82987
243.83243
243.80962
243.80062
243.79315
243.80524
243.86218
243.95764
244.00738
243.95709
243.90519
243.98654
244.11379
244.10884
244.09214
244.18149
244.30103
244.3787
244.43362
244.50057
244.54546
244.56583
244.62796
244.64286
244.70244
244.75598
244.72674
244.79258
244.91589
244.94517
244.98734
245.05841
245.06711
245.04954
245.06025
245.16043
245.31275
244.49797
244.4977
244.49708
244.49603
244.49447
244.49235
244.48966
244.48655
244.48314
244.47959
244.47597
244.47232
244.46867
244.46504
244.46141
244.45781
244.45421
244.45063
244.44707
244.44354
244.44002
244.43654
244.4331
244.42971
244.42639
244.42315
244.42003
244.41708
244.41433
244.4118
244.40954
244.40757
244.40595
244.40473
244.40396
244.4037
244.40401
244.40496
244.4066
244.40898
244.41214
244.41607
244.42076
244.42612
244.43204
244.43836
244.44483
244.45113
244.4567
244.46048
244.46044
244.45229
244.42598
244.34879
244.05689
242.92689
242.45673
243.96748
244.59062
244.20525
243.67622
243.37192
243.31403
243.31557
243.35917
243.39773
243.44645
243.497
243.54201
243.57204
243.58752
243.5916
243.59959
243.60806
243.61198
243.61621
243.62716
243.63857
243.65055
243.67042
243.71354
243.76569
243.80396
243.83132
243.85508
243.84721
243.8343
243.81737
243.80752
243.84112
243.93814
244.01215
243.99606
243.90979
243.95863
244.10653
244.12229
244.1041
244.16982
244.2856
244.37608
244.43185
244.50614
244.5465
244.57838
244.62956
244.64294
244.7238
244.7547
244.72794
244.80423
244.92407
244.94519
244.9869
245.0617
245.07212
245.05359
245.06208
245.15893
245.31192
245.3016
244.56848
244.56779
244.56628
244.56382
244.56029
244.55563
244.54996
244.54354
244.53673
244.52977
244.52281
244.51592
244.50912
244.50241
244.49578
244.48923
244.48272
244.47626
244.46983
244.46343
244.45705
244.4507
244.44437
244.43806
244.43178
244.42553
244.41927
244.41297
244.40661
244.40019
244.39373
244.38721
244.38065
244.37406
244.36744
244.36082
244.35422
244.34766
244.34117
244.33479
244.32855
244.32246
244.31654
244.31078
244.30513
244.29948
244.29366
244.28738
244.28012
244.2709
244.25779
244.23635
244.19461
244.09108
243.72338
242.56917
242.11954
243.36514
244.14326
244.02934
243.73268
243.55411
243.51907
243.51854
243.54322
243.56592
243.59783
243.63309
243.66304
243.67605
243.68168
243.68251
243.68902
243.69223
243.68769
243.67885
243.67191
243.66525
243.65928
243.66405
243.68089
243.72014
243.7755
243.82251
243.85676
243.87537
243.87378
243.85301
243.82141
243.83747
243.90487
244.01069
244.0387
243.92322
243.94644
244.08512
244.12685
244.12282
244.16707
244.2709
244.36928
244.43146
244.51053
244.54833
244.59841
244.63137
244.6439
244.74202
244.75111
244.72826
244.81663
244.92978
244.94352
244.98599
245.06524
245.07627
245.05757
245.06473
245.1581
245.31068
245.30183
245.33573
244.66698
244.66639
244.6651
244.66299
244.65993
244.65584
244.65077
244.64493
244.63858
244.63195
244.62515
244.61825
244.61126
244.60419
244.59705
244.58983
244.5825
244.57505
244.56747
244.55975
244.55188
244.54384
244.53563
244.52725
244.51868
244.50993
244.501
244.49192
244.48269
244.47332
244.46381
244.45417
244.44441
244.43453
244.42456
244.41453
244.40446
244.3944
244.3844
244.37452
244.36482
244.35537
244.34625
244.33748
244.3291
244.3211
244.31341
244.30593
244.29844
244.29062
244.28178
244.27019
244.25061
244.19891
243.9431
242.8777
242.33975
243.32924
243.85656
243.96442
243.85205
243.73857
243.70599
243.70072
243.70779
243.71543
243.72399
243.72929
243.72462
243.71482
243.71225
243.71642
243.73027
243.74286
243.74956
243.74846
243.73956
243.72473
243.69755
243.67589
243.67562
243.68824
243.72957
243.78891
243.84514
243.88187
243.8998
243.89018
243.85249
243.84003
243.87893
244.00169
244.07364
243.95089
243.94521
244.05248
244.12757
244.14137
244.16777
244.26186
244.35862
244.43172
244.51117
244.54976
244.61663
244.62995
244.64639
244.75354
244.74594
244.73163
244.83247
244.93266
244.94371
244.98665
245.0686
245.08112
245.06185
245.06699
245.15649
245.30972
245.3028
245.3347
245.42279
245.31588
244.73313
244.73289
244.73238
244.73153
244.73032
244.72869
244.72664
244.72426
244.72163
244.71882
244.71589
244.71285
244.70972
244.7065
244.70318
244.69975
244.69618
244.69247
244.68859
244.68453
244.68027
244.67578
244.67106
244.66609
244.66083
244.65527
244.6494
244.64318
244.63661
244.62967
244.62234
244.61461
244.60646
244.5979
244.58894
244.57958
244.56986
244.55983
244.54957
244.53917
244.52877
244.51854
244.50866
244.49936
244.49085
244.4834
244.47731
244.47297
244.471
244.47243
244.47919
244.49474
244.52588
244.58348
244.60856
243.86172
242.85503
243.35744
243.69891
243.90047
243.93229
243.85127
243.82046
243.79555
243.779
243.76659
243.75332
243.73702
243.72131
243.70705
243.70214
243.70723
243.72321
243.74027
243.7531
243.76317
243.76833
243.77134
243.76058
243.72221
243.68895
243.68738
243.70347
243.73983
243.80904
243.87694
243.90693
243.91697
243.8964
243.85448
243.8684
243.97947
244.08946
243.99328
243.94743
244.02499
244.12571
244.14871
244.17027
244.25505
244.34253
244.43166
244.51018
244.55322
244.633
244.63095
244.65393
244.75744
244.74292
244.73862
244.84551
244.93441
244.94256
244.9863
245.07175
245.08533
245.06566
245.06989
245.15588
245.30865
245.303
245.33316
245.42356
245.31599
245.47239
244.76966
244.76968
244.76972
244.76982
244.76998
244.77023
244.77056
244.77095
244.77138
244.77184
244.77231
244.77279
244.77326
244.77371
244.77413
244.77453
244.7749
244.77523
244.77551
244.77574
244.77591
244.77599
244.776
244.7759
244.77568
244.77534
244.77485
244.7742
244.77337
244.77234
244.77109
244.7696
244.76785
244.76582
244.76349
244.76085
244.75791
244.75466
244.75113
244.74737
244.74345
244.73949
244.73563
244.73206
244.72902
244.72684
244.72591
244.72684
244.73058
244.73873
244.75422
244.78289
244.83792
244.95937
245.26193
245.44688
244.06136
243.59162
243.70481
243.8757
243.91297
243.8537
243.82702
243.79704
243.77515
243.75934
243.74272
243.72081
243.69732
243.67609
243.66357
243.66638
243.68238
243.706
243.72809
243.7473
243.76166
243.77388
243.78911
243.78013
243.73269
243.70333
243.70171
243.71269
243.75573
243.84868
243.90382
243.92716
243.93481
243.88305
243.86865
243.94748
244.09065
244.04835
243.95856
244.01791
244.1196
244.1509
244.17658
244.25035
244.33135
244.4321
244.50744
244.56096
244.63955
244.6303
244.66441
244.75764
244.74056
244.74834
244.86035
244.93455
244.9428
244.98798
245.07519
245.09003
245.0702
245.07257
245.15445
245.30769
245.30391
245.33221
245.42447
245.31617
245.46935
245.60367
244.77838
244.77856
244.77896
244.77965
244.78068
244.78209
244.78388
244.78597
244.78827
244.79068
244.79316
244.79568
244.79824
244.80081
244.80341
244.80603
244.80869
244.81139
244.81414
244.81695
244.81984
244.8228
244.82583
244.82895
244.83215
244.83543
244.83879
244.84221
244.84568
244.84921
244.85278
244.85641
244.86009
244.86383
244.86762
244.87147
244.87537
244.87931
244.8833
244.88731
244.89134
244.89539
244.89951
244.90377
244.90828
244.91321
244.91885
244.92567
244.9344
244.94636
244.96386
244.99157
245.04023
245.14581
245.45184
246.20014
245.81633
244.66516
244.04648
243.89196
243.77515
243.80976
243.79708
243.76983
243.74
243.72073
243.7024
243.67827
243.64813
243.62301
243.60622
243.60638
243.61671
243.63981
243.66748
243.69753
243.72848
243.75815
243.78708
243.80168
243.7928
243.75281
243.71648
243.71284
243.72357
243.79075
243.88549
243.92831
243.94955
243.92362
243.87509
243.91283
244.08597
244.09961
243.98331
244.01844
244.10882
244.15121
244.18544
244.24498
244.32465
244.42996
244.50201
244.57301
244.64081
244.63143
244.68192
244.75645
244.74074
244.76308
244.86986
244.93441
244.94282
244.98882
245.07767
245.09441
245.07393
245.07555
245.15411
245.30686
245.30415
245.33065
245.42505
245.31636
245.4663
245.60568
245.3018
244.74757
244.7479
244.74861
244.74978
244.75149
244.75377
244.7566
244.75986
244.7634
244.7671
244.77088
244.77471
244.77859
244.78249
244.78643
244.79042
244.79445
244.79853
244.80266
244.80685
244.81111
244.81544
244.81985
244.82436
244.82897
244.83369
244.83856
244.8436
244.84886
244.85436
244.8601
244.86611
244.8724
244.87897
244.88583
244.893
244.90048
244.90828
244.9164
244.92486
244.93365
244.94278
244.95223
244.96202
244.97219
244.98283
244.99412
245.00637
245.02008
245.03611
245.05596
245.08255
245.12268
245.19737
245.40866
246.01477
246.19566
245.58194
244.66395
243.93165
243.65096
243.69527
243.68885
243.67362
243.64559
243.62588
243.60747
243.57667
243.55181
243.5476
243.55313
243.56157
243.56634
243.57838
243.59886
243.62589
243.66243
243.70883
243.76156
243.79629
243.81488
243.80805
243.76076
243.72932
243.72038
243.73509
243.84072
243.92091
243.95115
243.96122
243.8911
243.89578
244.06738
244.12814
244.02497
244.02502
244.10412
244.15272
244.19579
244.24182
244.32509
244.426
244.50141
244.58978
244.64111
244.63456
244.69619
244.75098
244.74143
244.77771
244.8784
244.93421
244.94392
244.99161
245.08112
245.09899
245.07864
245.07855
245.15304
245.30591
245.30504
245.32985
245.42588
245.31669
245.46328
245.6076
245.30473
245.3457
244.71074
244.71091
244.71127
244.71188
244.71277
244.714
244.71558
244.71746
244.71959
244.72192
244.7244
244.72704
244.72981
244.73275
244.73584
244.7391
244.74256
244.74622
244.75009
244.75419
244.75853
244.76312
244.76798
244.77312
244.77854
244.78427
244.79031
244.79666
244.80332
244.81032
244.81766
244.82537
244.83345
244.84194
244.85083
244.86014
244.86987
244.88002
244.89058
244.90152
244.91281
244.92442
244.9363
244.94843
244.96079
244.97345
244.98653
245.00025
245.01499
245.0313
245.05004
245.07256
245.10108
245.14126
245.20081
245.38371
245.80072
245.5144
244.82424
244.00312
243.62287
243.5112
243.50585
243.52731
243.52941
243.52193
243.49747
243.47987
243.49078
243.51854
243.5439
243.55709
243.55949
243.55917
243.56395
243.57856
243.60174
243.64002
243.7003
243.76397
243.81073
243.82755
243.81694
243.77629
243.73223
243.72006
243.78307
243.89498
243.94583
243.97522
243.91978
243.89229
244.03195
244.13575
244.07903
244.04118
244.10366
244.15491
244.20323
244.24144
244.32583
244.41631
244.50092
244.60012
244.63786
244.64079
244.70963
244.74441
244.74451
244.79648
244.88324
244.93354
244.94583
244.99375
245.08288
245.1035
245.08236
245.08143
245.15297
245.30527
245.30544
245.32835
245.42631
245.31705
245.46027
245.60944
245.30773
245.34431
245.67018
244.69897
244.69877
244.69833
244.69758
244.69648
244.695
244.69319
244.69116
244.68903
244.68692
244.68489
244.68297
244.68119
244.67953
244.67802
244.67665
244.67544
244.67439
244.67353
244.67285
244.67239
244.67217
244.67221
244.67252
244.67315
244.67413
244.67547
244.67723
244.67943
244.6821
244.6853
244.68907
244.69344
244.69845
244.70416
244.71059
244.71778
244.72574
244.73446
244.74393
244.75408
244.76481
244.77602
244.78756
244.79927
244.81101
244.82263
244.83401
244.84496
244.85516
244.8639
244.86955
244.86813
244.84679
244.74561
244.42481
244.86033
245.15271
244.72825
243.94516
243.458
243.21037
243.24461
243.31982
243.38291
243.4195
243.44365
243.4738
243.498
243.53085
243.55662
243.56678
243.56582
243.56101
243.56096
243.56937
243.57967
243.59545
243.62795
243.69174
243.77523
243.82138
243.83789
243.83101
243.77314
243.72634
243.74649
243.84489
243.92763
243.97852
243.9576
243.8947
243.98804
244.13321
244.12725
244.06547
244.10705
244.16038
244.20968
244.2427
244.32679
244.40681
244.50398
244.60553
244.63699
244.65476
244.7144
244.73541
244.75145
244.81292
244.88531
244.9336
244.94854
244.99694
245.08613
245.10808
245.08713
245.08463
245.15251
245.30431
245.30633
245.32772
245.42709
245.31757
245.45728
245.61119
245.31079
245.34309
245.66779
245.53004
244.71542
244.71494
244.71385
244.71203
244.70936
244.70577
244.7013
244.69614
244.69055
244.6847
244.67871
244.67262
244.66647
244.66027
244.65401
244.6477
244.64132
244.63487
244.62836
244.62179
244.61519
244.60858
244.60197
244.59536
244.58877
244.58221
244.57571
244.56927
244.56294
244.55673
244.55068
244.54484
244.53923
244.53391
244.52894
244.52436
244.52023
244.51662
244.51357
244.51111
244.50927
244.50802
244.50732
244.50704
244.50701
244.50698
244.50662
244.50543
244.5027
244.49723
244.48686
244.46737
244.42933
244.34379
244.08846
243.13913
243.4039
244.37769
244.22123
243.64116
243.23395
243.10934
243.15697
243.24196
243.3364
243.40706
243.45656
243.50479
243.55148
243.58719
243.60523
243.60597
243.60117
243.59125
243.58495
243.58559
243.58695
243.59387
243.60355
243.62952
243.70242
243.78505
243.8341
243.85372
243.83852
243.7617
243.7418
243.79717
243.89668
243.97212
243.99138
243.90394
243.94971
244.12174
244.1538
244.09724
244.11968
244.16912
244.21457
244.24599
244.32688
244.39919
244.50852
244.60541
244.63568
244.67252
244.71539
244.73267
244.76287
244.83
244.88759
244.93316
244.95188
245.00013
245.08749
245.11253
245.09092
245.08739
245.15259
245.30375
245.30695
245.32632
245.42741
245.31807
245.45426
245.61284
245.31388
245.34207
245.66523
245.53537
244.78087
244.77997
244.77799
244.77471
244.76993
244.76352
244.75557
244.74644
244.73661
244.72644
244.71618
244.70592
244.69572
244.68557
244.67546
244.66536
244.65525
244.64511
244.6349
244.62458
244.61412
244.60344
244.59253
244.58139
244.56999
244.55834
244.54643
244.53424
244.52176
244.50899
244.49591
244.48253
244.46883
244.45481
244.44048
244.42584
244.41093
244.39578
244.38043
244.36494
244.34946
244.33405
244.31871
244.30343
244.2881
244.2725
244.25624
244.23866
244.21869
244.19454
244.16308
244.11804
244.04476
243.89346
243.43111
242.14446
242.13822
243.4467
243.67751
243.54145
243.24915
243.1791
243.21505
243.2875
243.37612
243.45285
243.52949
243.58762
243.64205
243.67188
243.68573
243.69023
243.6934
243.68711
243.67597
243.65982
243.63842
243.62223
243.61269
243.61842
243.64737
243.71762
243.80483
243.85133
243.88082
243.83051
243.75047
243.77824
243.85885
243.95433
244.01264
243.92107
243.93715
244.09547
244.15856
244.12975
244.14233
244.18138
244.22155
244.25411
244.32657
244.39785
244.51558
244.60437
244.6367
244.69762
244.71656
244.73041
244.77865
244.84392
244.88712
244.93377
244.95575
245.00323
245.09025
245.11721
245.09567
245.09072
245.15262
245.30282
245.30788
245.32583
245.42818
245.31879
245.45127
245.6144
245.317
245.34114
245.66241
245.54067
245.15275
244.91057
244.90944
244.90695
244.90287
244.89695
244.88903
244.87922
244.86794
244.85573
244.84302
244.83007
244.81701
244.80386
244.79065
244.77735
244.76392
244.75034
244.73657
244.72259
244.70839
244.69396
244.6793
244.6644
244.64925
244.63383
244.61814
244.60215
244.58584
244.56922
244.55226
244.53495
244.51727
244.49923
244.48081
244.46201
244.44282
244.42326
244.40331
244.38302
244.36236
244.34117
244.31949
244.29734
244.27472
244.25154
244.2276
244.20251
244.17559
244.14572
244.11098
244.06796
244.01008
243.92211
243.75131
243.25934
242.107
241.98789
243.12536
243.5859
243.54833
243.36435
243.30591
243.3107
243.35285
243.41752
243.48073
243.54745
243.60261
243.65031
243.67975
243.69953
243.72026
243.74136
243.75596
243.76379
243.75621
243.73496
243.70762
243.6732
243.64364
243.64606
243.67903
243.75322
243.8322
243.88627
243.8979
243.78583
243.77962
243.83713
243.9264
244.01557
243.94743
243.93538
244.0584