/*--------------------------------*- C++ -*----------------------------------*\
| =========                 |                                                 |
| \\      /  F ield         | OpenFOAM: The Open Source CFD Toolbox           |
|  \\    /   O peration     | Version:  2506                                  |
|   \\  /    A nd           | Website:  www.openfoam.com                      |
|    \\/     M anipulation  |                                                 |
\*---------------------------------------------------------------------------*/
FoamFile
{
    version     2.0;
    format      ascii;
    arch        "LSB;label=32;scalar=64";
    class       volScalarField;
    location    "0.027";
    object      Co;
}
// * * * * * * * * * * * * * * * * * * * * * * * * * * * * * * * * * * * * * //

dimensions      [0 0 0 0 0 0 0];

internalField   nonuniform List<scalar> 
13761
(
0.0018564894
0.0018558339
0.0018551943
0.0018545696
0.0018539609
0.0019539374
0.0018533692
0.0019526786
0.0018527869
0.0019514498
0.0018522031
0.0019502442
0.0018516097
0.001949057
0.001851011
0.0020621438
0.0019478849
0.0018504187
0.00206027
0.0019467286
0.0018498398
0.0020584314
0.0019455907
0.0018492723
0.0020566308
0.0019444719
0.0018487144
0.0020548669
0.0019433691
0.0018481638
0.0020531386
0.0019422849
0.0018476213
0.0021526464
0.0020514391
0.0019412219
0.0018470869
0.0021502846
0.0020497611
0.0019401802
0.0018465612
0.0021479682
0.0020481057
0.0019391541
0.0018460454
0.0021456988
0.0020464761
0.0019381417
0.0018455429
0.0021434709
0.0020448721
0.0019371432
0.0018450443
0.0021412814
0.0020432967
0.0019361564
0.0018445347
0.002246501
0.002139135
0.0020417554
0.0019351838
0.00184401
0.0022437123
0.0021370233
0.0020402378
0.0019342232
0.0018434766
0.0022409734
0.0021349458
0.0020387427
0.001933276
0.0018429501
0.0022382851
0.0021329025
0.0020372701
0.0019323486
0.0018424397
0.0022356449
0.0021308913
0.0020358148
0.0019314431
0.00184194
0.0023334981
0.0022330486
0.0021289112
0.0020343779
0.0019305502
0.0018414462
0.0023302844
0.0022304934
0.0021269631
0.002032965
0.0019296649
0.0018409608
0.0023271259
0.0022279786
0.0021250461
0.0020315722
0.001928789
0.0018404857
0.0023240251
0.0022255073
0.0021231605
0.0020301985
0.0019279252
0.0018400188
0.0023209907
0.002223086
0.0021213093
0.00202885
0.0019270749
0.0018395599
0.0023180097
0.002220705
0.0021194844
0.0020275249
0.0019262361
0.0018391071
0.0024160441
0.0023150809
0.0022183633
0.0021176854
0.0020262256
0.0019254079
0.0018386602
0.0024125494
0.0023122025
0.0022160614
0.0021159153
0.0020249528
0.0019245898
0.0018382167
0.002409116
0.0023093737
0.0022138017
0.0021141812
0.0020237039
0.0019237834
0.0018377736
0.002405743
0.0023065928
0.0022115839
0.0021124827
0.0020224718
0.0019229889
0.0018373309
0.0024024281
0.0023038591
0.0022094039
0.0021108121
0.0020212507
0.0019222052
0.0018368934
0.0024959045
0.0023991703
0.0023011708
0.0022072564
0.0021091645
0.0020200396
0.0019214303
0.0018364627
0.0024921262
0.0023959691
0.0022985288
0.0022051409
0.0021075377
0.0020188417
0.0019206645
0.0018360383
0.0024884319
0.0023928372
0.0022959422
0.0022030677
0.0021059415
0.002017664
0.0019199115
0.0018356207
0.0024848114
0.0023897647
0.0022934036
0.0022010332
0.0021043745
0.0020165161
0.001919165
0.0018352078
0.0024812577
0.0023867476
0.0022909082
0.0021990327
0.0021028331
0.0020153947
0.0019184251
0.0018347982
0.0024777699
0.0023837841
0.0022884552
0.0021970631
0.0021013114
0.0020142822
0.0019176981
0.0018343902
0.0025644279
0.0024743452
0.0023808737
0.0022860429
0.002195122
0.0020998073
0.0020131736
0.0019169785
0.0018339814
0.0025605411
0.0024709834
0.002378015
0.0022836712
0.002193211
0.0020983247
0.002012084
0.0019162662
0.0025567261
0.0024676812
0.0023752067
0.0022813387
0.002191334
0.0020968676
0.0020110158
0.001915555
0.0025529817
0.0024644382
0.0023724471
0.0022790458
0.0021894934
0.0020954399
0.0020099693
0.0019148416
0.0025493059
0.002461252
0.0023697353
0.0022767911
0.002187684
0.002094041
0.002008952
0.0019141487
0.0026307411
0.0025457033
0.0024581267
0.0023670735
0.0022745781
0.0021859048
0.0020926653
0.0020079462
0.0019134847
0.0026267078
0.0025421849
0.0024550722
0.0023644706
0.0022724126
0.0021841602
0.0020913143
0.0020069456
0.0019128397
0.002622755
0.0025387356
0.0024520764
0.0023619148
0.0022702859
0.0021824438
0.0020899796
0.0020059476
0.0019121966
0.0026188789
0.0025353514
0.0024491365
0.0023594045
0.0022681949
0.0021807565
0.0020886604
0.0020049649
0.0019115568
0.0026150778
0.0025320318
0.0024462513
0.0023569387
0.0022661395
0.0021790992
0.0020873678
0.0020040133
0.0026113497
0.0025287744
0.0024434189
0.0023545169
0.002264118
0.0021774715
0.0020861028
0.0020030765
0.0026894489
0.0026076928
0.0025255788
0.0024406376
0.0023521376
0.0022621307
0.002175871
0.0020848576
0.0020021351
0.0026853977
0.0026041056
0.0025224427
0.0024379066
0.0023498001
0.0022601767
0.0021742949
0.0020836299
0.0020011927
0.0026814245
0.0026005869
0.0025193658
0.0024352247
0.0023475034
0.0022582567
0.0021727413
0.0020824203
0.0020002679
0.0026775267
0.0025971351
0.0025163456
0.0024325912
0.0023452469
0.0022563695
0.0021712103
0.0020812265
0.0019993601
0.0026737092
0.0025937544
0.002513387
0.0024300093
0.0023430331
0.0022545179
0.0021697073
0.0020800459
0.0019984676
0.002751369
0.0026699895
0.0025904588
0.0025105019
0.0024274905
0.0023408715
0.0022527083
0.0021682397
0.002078884
0.0019975941
0.0027473213
0.0026663485
0.0025872309
0.0025076756
0.0024250214
0.0023387509
0.0022509319
0.0021667965
0.0020777448
0.0027433577
0.002662783
0.002584068
0.0025049048
0.0024226
0.0023366698
0.0022491864
0.0021653754
0.00207663
0.0027394755
0.0026592894
0.0025809691
0.0025021892
0.0024202245
0.0023346269
0.0022474717
0.0021639774
0.0020755325
0.0027356731
0.0026558653
0.0025779321
0.0024995265
0.0024178941
0.0023326216
0.0022457872
0.0021626029
0.0020744495
0.0028078831
0.0027319495
0.0026525109
0.0025749566
0.0024969172
0.0024156076
0.0023306531
0.0022441331
0.0021612562
0.0020733884
0.0028038979
0.0027283025
0.0026492254
0.0025720402
0.0024943584
0.0024133643
0.0023287205
0.0022425081
0.0021599384
0.0020723476
0.0027999968
0.0027247309
0.0026460081
0.0025691834
0.0024918508
0.0024111628
0.0023268234
0.002240912
0.0021586443
0.0020713246
0.0027961776
0.0027212334
0.0026428548
0.0025663848
0.0024893922
0.002409003
0.0023249614
0.0022393438
0.0021573696
0.0028619462
0.0027924407
0.0027178098
0.0026397622
0.0025636445
0.0024869835
0.0024068841
0.0023231344
0.0022378041
0.0021561146
0.0028579721
0.0027888063
0.0027144793
0.0026367483
0.0025609759
0.0024846369
0.0024048187
0.0023213523
0.0022363008
0.0021548862
0.0028540982
0.0027852614
0.0027112296
0.0026338081
0.0025583707
0.0024823447
0.0024027995
0.0023196089
0.0022348297
0.002153682
0.0028503127
0.0027817963
0.0027080525
0.0026309363
0.0025558223
0.0024800999
0.0024008229
0.0023179003
0.0022333867
0.0021524993
0.002846616
0.0027784105
0.0027049467
0.0026281288
0.002553332
0.0024779025
0.0023988878
0.0023162259
0.0022319721
0.0021513378
0.0029116449
0.0028430036
0.0027751011
0.0027019099
0.002625378
0.0025508958
0.0024757497
0.0023969942
0.0023145848
0.0022305842
0.0021502012
0.0029077969
0.0028394765
0.0027718683
0.0026989414
0.0026226838
0.0025485133
0.0024736421
0.0023951414
0.0023129764
0.0022292232
0.002149093
0.0029040384
0.0028360312
0.00276871
0.002696039
0.0026200503
0.0025461812
0.0024715781
0.0023933298
0.0023114002
0.0022278879
0.0029003681
0.0028326672
0.0027656247
0.0026932011
0.0026174796
0.0025439003
0.0024695594
0.0023915577
0.0023098554
0.0022265777
0.002962646
0.0028967839
0.0028293822
0.0027626108
0.0026904267
0.002614969
0.0025416689
0.0024675865
0.0023898243
0.002308342
0.0022252921
0.0029589226
0.0028932844
0.0028261754
0.002759667
0.0026877149
0.002612515
0.0025394867
0.0024656615
0.0023881266
0.0023068595
0.0022240314
0.0029552976
0.0028898754
0.0028230523
0.0027567987
0.0026850711
0.0026101236
0.0025373564
0.0024637882
0.002386468
0.0023054106
0.0022227984
0.0029517912
0.0028865753
0.0028200298
0.0027540218
0.0026825098
0.0026078092
0.0025352911
0.0024619772
0.0023848561
0.0023040024
0.0022215998
0.0030077157
0.0029483761
0.0028833597
0.002817086
0.0027513161
0.0026800127
0.0026055545
0.0025332766
0.002460213
0.0023832808
0.0023026253
0.0022204278
0.0030041704
0.0029450511
0.0028802263
0.002814218
0.0027486795
0.0026775786
0.0026033536
0.0025313144
0.0024584922
0.0023817405
0.0023012782
0.0022192809
0.0030007203
0.0029418119
0.0028771727
0.0028114243
0.00274611
0.0026752062
0.0026011959
0.0025294013
0.0024568102
0.0023802355
0.0022999603
0.0029973624
0.00293866
0.0028741988
0.0028087036
0.002743607
0.0026728951
0.0025990818
0.0025275358
0.0024551652
0.0023787651
0.0022986718
0.0030528184
0.0029940967
0.0029355915
0.002871303
0.0028060542
0.0027411682
0.002670643
0.0025970201
0.0025257147
0.0024535558
0.0023773296
0.0022974123
0.0030494241
0.0029909197
0.0029326069
0.0028684839
0.0028034743
0.0027387921
0.0026684483
0.0025950154
0.0025239395
0.002451983
0.0023759276
0.0022961815
0.0030461224
0.0029878327
0.0029297033
0.0028657414
0.0028009634
0.0027364783
0.0026663098
0.0025930668
0.0025222091
0.0024504477
0.0023745598
0.0022949788
0.0030429149
0.0029848317
0.0029268807
0.0028630735
0.0027985204
0.0027342254
0.0026642267
0.0025911715
0.0025205238
0.0024489506
0.0023732244
0.0022938034
0.0030955889
0.0030397973
0.0029819183
0.0029241365
0.0028604799
0.0027961451
0.0027320331
0.0026621978
0.0025893273
0.0025188832
0.0024474927
0.002371922
0.0022926548
0.0030924436
0.0030367836
0.002979101
0.0029214825
0.0028579695
0.0027938472
0.0027299105
0.0026602311
0.0025875374
0.002517295
0.0024460799
0.0023706562
0.0030894227
0.0030338884
0.0029763977
0.0029189319
0.0028555561
0.0027916396
0.0027278699
0.0026583372
0.0025858066
0.0025157659
0.0024447208
0.0023694345
0.0030865005
0.0030310847
0.0029737796
0.0029164615
0.0028532162
0.0027895016
0.0027258916
0.0026564983
0.0025841203
0.0025142806
0.002443401
0.0023682453
0.0031344382
0.00308367
0.0030283698
0.0029712462
0.0029140675
0.0028509477
0.0027874307
0.0027239739
0.002654713
0.0025824844
0.0025128367
0.0024421189
0.0023670886
0.0031315568
0.0030809342
0.0030257418
0.0029687942
0.0029117498
0.0028487489
0.0027854252
0.0027221146
0.0026529798
0.0025809005
0.0025114345
0.0024408716
0.0023659629
0.0031287754
0.0030782867
0.0030232
0.0029664235
0.0029095064
0.0028466183
0.0027834839
0.0027203129
0.0026512986
0.0025793667
0.0025100738
0.0024396598
0.0023648686
0.0031765668
0.0031260875
0.0030757321
0.0030207432
0.0029641327
0.0029073375
0.0028445558
0.002781606
0.0027185678
0.002649669
0.0025778807
0.0025087552
0.0024384828
0.0023638047
0.0031738508
0.0031234967
0.0030732636
0.0030183708
0.0029619209
0.002905241
0.0028425591
0.0027797903
0.0027168787
0.0026480905
0.0025764417
0.0025074768
0.0024373418
0.003171231
0.0031209966
0.0030708854
0.0030160805
0.0029597866
0.0029032169
0.0028406289
0.0027780364
0.002715245
0.0026465623
0.0025750496
0.0025062389
0.0024362361
0.0032161371
0.0031687098
0.0031185907
0.0030685916
0.003013873
0.0029577293
0.0029012634
0.0028387632
0.0027763433
0.0027136665
0.0026450839
0.0025737029
0.0025050407
0.002435166
0.0032136362
0.0031662819
0.0031162737
0.0030663854
0.0030117449
0.0029557481
0.0028993814
0.0028369634
0.0027747105
0.0027121425
0.0026436551
0.0025723989
0.0025038823
0.0024341301
0.0032112434
0.0031639598
0.0031140578
0.0030642709
0.0030097064
0.0029538501
0.0028975761
0.0028352348
0.0027731436
0.0027106783
0.0026422809
0.0025711425
0.0025027669
0.0024331324
0.003253247
0.003208987
0.003161765
0.0031119642
0.003062275
0.0030077772
0.0029520571
0.0028958693
0.0028335982
0.00277166
0.0027092899
0.002640976
0.0025699484
0.0025017063
0.0024321821
0.0032509994
0.0032068325
0.0031596699
0.0031099657
0.0030603651
0.0030059322
0.0029503417
0.0028942344
0.0028320291
0.0027702383
0.0027079577
0.0026397222
0.0025688012
0.0025006863
0.0024312676
0.0032488574
0.0032047767
0.0031576659
0.0031080561
0.0030585406
0.0030041653
0.0029487015
0.0028926699
0.0028305255
0.0027688759
0.0027066792
0.0026385172
0.0025676985
0.0024997052
0.0032912529
0.0032468152
0.0032028165
0.0031557561
0.0031062356
0.0030567966
0.0030024772
0.0029471337
0.0028911725
0.0028290851
0.0027675716
0.0027054536
0.00263736
0.0025666389
0.0024987632
0.0032892291
0.0032448758
0.0032009522
0.0031539347
0.0031045023
0.0030551365
0.0030008654
0.0029456392
0.002889743
0.002827708
0.0027663254
0.0027042805
0.0026362503
0.0025656197
0.0024978604
0.0032873045
0.0032430332
0.003199181
0.0031522056
0.0031028551
0.0030535547
0.0029993308
0.0029442157
0.0028883789
0.0028263926
0.0027651358
0.0027031589
0.0026351873
0.0025646392
0.0024969956
0.0033274893
0.0032854849
0.0032412908
0.0031975032
0.0031505628
0.0031012936
0.0030520547
0.0029978699
0.0029428635
0.0028870803
0.0028251384
0.0027640029
0.0027020884
0.0026341707
0.0025637001
0.0024961669
0.0033257228
0.0032837928
0.0032396431
0.0031959169
0.0031490114
0.0030998157
0.0030506316
0.0029964855
0.0029415816
0.0028858472
0.0028239459
0.002762926
0.0027010686
0.0026331999
0.0025628035
0.0024953756
0.0033652101
0.0033240544
0.0032822024
0.0032380936
0.0031944221
0.0031475439
0.0030984216
0.003049288
0.002995173
0.0029403694
0.0028846777
0.0028228134
0.0027619044
0.0027000988
0.0026322743
0.0025619478
0.0024946197
0.0033635865
0.0033224881
0.0032807069
0.0032366364
0.0031930151
0.0031461655
0.0030971079
0.0030480196
0.0029939351
0.0029392255
0.0028835727
0.0028217413
0.0027609377
0.0026991786
0.0026313937
0.002561134
0.0034007676
0.0033620544
0.0033210209
0.0032793112
0.003235278
0.0031917017
0.003144872
0.0030958782
0.0030468315
0.00299277
0.0029381522
0.0028825317
0.0028207293
0.0027600268
0.0026983087
0.0026305587
0.0025603627
0.0033994426
0.0033606933
0.0033197017
0.0032780482
0.0032340465
0.0031905091
0.0031437004
0.0030947601
0.0030457489
0.0029917081
0.0029371742
0.0028815813
0.0028198012
0.0027591932
0.0026975093
0.002629788
0.002559647
0.0033982346
0.0033594467
0.0033184984
0.0032768972
0.0032329264
0.0031894234
0.0031426252
0.0030937374
0.0030447583
0.0029907295
0.0029362769
0.0028807042
0.0028189417
0.0027584232
0.0026967678
0.0026290698
0.0025589764
0.0034350968
0.0033971405
0.0033583078
0.0033173928
0.0032758397
0.0032318952
0.0031884214
0.0031416365
0.0030927927
0.0030438408
0.0029898232
0.0029354452
0.00287989
0.0028181399
0.0027577063
0.002696075
0.0026283955
0.0025583458
0.0034341021
0.0033961325
0.0033572546
0.0033163802
0.0032748761
0.003230958
0.0031875091
0.0031407269
0.003091928
0.0030429989
0.0029889856
0.0029346802
0.0028791364
0.0028173951
0.0027570415
0.0026954301
0.0026277639
0.0025577537
0.0034703056
0.0034332247
0.0033952348
0.0033563066
0.0033154623
0.0032740027
0.0032301071
0.0031866786
0.0031399016
0.0030911401
0.0030422289
0.0029882187
0.0029339792
0.0028784438
0.0028167069
0.0027564283
0.0026948332
0.0026271748
0.0025572034
0.0034695241
0.0034324285
0.0033944239
0.0033554434
0.0033146372
0.0032732229
0.0032293499
0.0031859374
0.0031391551
0.0030904328
0.0030415333
0.0029875201
0.0029333447
0.0028778121
0.0028160763
0.0027558669
0.0026942848
0.0026266286
0.003504166
0.0034688583
0.003431747
0.0033937194
0.0033546829
0.0033139039
0.0032725309
0.0032286776
0.0031852763
0.0031384914
0.0030898004
0.0030409086
0.0029868907
0.0029327729
0.0028772393
0.0028155009
0.002755356
0.0026937835
0.0026261247
0.0035378607
0.0035036224
0.0034682726
0.0034311459
0.003393101
0.0033540043
0.003313263
0.0032719307
0.0032280968
0.0031847024
0.0031379055
0.0030892479
0.0030403566
0.0029863287
0.0029322667
0.0028767269
0.0028149821
0.0027548964
0.00269333
0.002625664
0.0035375046
0.003503199
0.0034678033
0.0034306577
0.0033925857
0.0033534264
0.0033127137
0.003271419
0.0032276009
0.0031842087
0.0031374013
0.0030887682
0.0030398755
0.0029858351
0.0029318224
0.0028762719
0.0028145174
0.0027544874
0.002692923
0.0026252452
0.0035702911
0.0035372206
0.0035028525
0.0034674098
0.003430249
0.0033921558
0.0033529276
0.0033122549
0.0032709961
0.0032271945
0.0031837994
0.0031369732
0.0030883668
0.0030394651
0.0029854079
0.0029314421
0.0028758759
0.0028141074
0.0027541295
0.0026925622
0.0026248673
0.0035702172
0.0035370675
0.0035026272
0.0034671347
0.0034299523
0.0033918259
0.0033525287
0.0033118881
0.0032706623
0.0032268727
0.0031834713
0.0031366269
0.003088038
0.0030391263
0.0029850488
0.0029311235
0.0028755365
0.002813751
0.0027538229
0.002692247
0.0026245287
0.0036020291
0.0035702326
0.0035370033
0.0035024969
0.0034669553
0.0034297537
0.0033916018
0.0033522284
0.0033116254
0.0032704275
0.0032266511
0.0031832363
0.0031363659
0.0030877968
0.0030388668
0.0029847648
0.0029308772
0.0028752637
0.0028134562
0.0027535746
0.0026919832
0.003633028
0.0036023546
0.0035704737
0.0035371557
0.003502571
0.0034669723
0.0034297422
0.0033915473
0.0033520948
0.003311506
0.0032703215
0.0032265527
0.0031831216
0.0031362239
0.0030876646
0.0030387139
0.002984581
0.0029307235
0.0028750767
0.0028132426
0.0027534032
0.0026917878
0.0036625648
0.0036335453
0.0036027587
0.0035707849
0.0035373795
0.0035027248
0.0034670721
0.0034298155
0.0033915855
0.0033520477
0.0033114816
0.0032703079
0.0032265472
0.0031830918
0.0031361604
0.0030876137
0.003038633
0.0029844662
0.0029306367
0.0028749507
0.0028130859
0.0027532847
0.0026916398
0.0036634267
0.0036342015
0.0036032959
0.0035712332
0.0035377345
0.0035030011
0.0034672895
0.0034300007
0.0033917228
0.0033521366
0.0033115799
0.0032703802
0.0032266241
0.003183144
0.003136178
0.003087635
0.0030386239
0.0029844177
0.0029306109
0.0028748812
0.0028129832
0.0027532157
0.0026915367
0.0036915505
0.0036643332
0.0036349161
0.0036039034
0.0035717423
0.0035381544
0.0035033505
0.003467583
0.0034302655
0.003391944
0.003352323
0.0033117874
0.0032705412
0.0032267888
0.0031832755
0.0031362699
0.0030877327
0.0030386816
0.0029844342
0.0029306477
0.0028748696
0.0028129344
0.0027531949
0.0026914787
0.0037193842
0.0036927503
0.0036653942
0.0036357641
0.0036046432
0.0035723863
0.0035387032
0.0035038204
0.0034679925
0.0034306397
0.0033922652
0.0033526028
0.0033120785
0.0032707868
0.0032270349
0.0031834889
0.0031364419
0.0030879014
0.00303881
0.0029845161
0.0029307447
0.0028749146
0.0028129389
0.0027532218
0.0026914648
0.0037461283
0.0037206964
0.0036939943
0.0036664937
0.0036366709
0.0036054511
0.003573094
0.0035393207
0.0035043643
0.0034684791
0.0034310934
0.0033926674
0.003352968
0.0033124692
0.0032711202
0.0032273673
0.0031837804
0.0031366879
0.0030881452
0.0030390045
0.0029846626
0.0029309035
0.0028750168
0.0028129967
0.0027532963
0.0026914953
0.0037721033
0.003747762
0.0037221982
0.0036954148
0.003667743
0.0036377115
0.0036063935
0.0035739321
0.0035400643
0.0035050277
0.0034690796
0.003431655
0.0033931715
0.0033534283
0.0033129429
0.0032715383
0.003227781
0.0031841537
0.0031370125
0.0030884588
0.0030392689
0.0029848736
0.0029311219
0.0028751755
0.0028131073
0.0027534188
0.0037970063
0.0037738759
0.0037494197
0.0037237382
0.0036968704
0.0036690281
0.0036388088
0.0036074021
0.0035748381
0.0035408801
0.003505765
0.0034697565
0.0034322951
0.0033937541
0.0033539719
0.0033135142
0.0032720419
0.0032282795
0.0031846036
0.0031374109
0.0030888466
0.0030395989
0.0029851491
0.0029314005
0.0028753897
0.0028132702
0.002753589
0.0038209522
0.0037991179
0.0037758647
0.0037512756
0.0037254646
0.0036984991
0.0036704592
0.0036400456
0.0036085467
0.0035758715
0.003541821
0.0035066225
0.0034705458
0.003433041
0.0033944383
0.0033546104
0.0033141686
0.0032726299
0.0032288592
0.0031851352
0.0031378863
0.003089304
0.0030399986
0.0029854888
0.0029317391
0.0028756603
0.0028134853
0.0027538074
0.0038629493
0.0038440271
0.0038232434
0.0038012334
0.0037778871
0.0037531629
0.0037272287
0.0037001642
0.0036719252
0.0036413337
0.0036097547
0.003576974
0.0035428337
0.0035075532
0.0034714103
0.0034338659
0.0033952015
0.0033553332
0.0033149191
0.0032733033
0.0032295242
0.0031857434
0.0031384363
0.003089836
0.0030404641
0.0029858935
0.0029321374
0.0028759861
0.0028137522
0.0027540734
0.003884009
0.0038658663
0.0038467554
0.0038257518
0.0038035662
0.0037801195
0.003755231
0.0037291723
0.0037019959
0.0036735341
0.0036427724
0.0036111036
0.0035782059
0.0035439736
0.0035086044
0.0034723869
0.0034347944
0.0033960653
0.0033561485
0.0033157519
0.0032740599
0.0032302688
0.0031864326
0.0031390616
0.0030904372
0.0030409983
0.0029863616
0.0029325958
0.0028763677
0.0028140702
0.0027543868
0.0039194872
0.0039038958
0.0038871542
0.003868802
0.0038494857
0.0038282926
0.0038059753
0.0037824369
0.0037573945
0.0037312012
0.0037039133
0.0036752234
0.0036443039
0.0036125505
0.0035795427
0.003545221
0.003509766
0.0034734751
0.0034358373
0.0033970431
0.0033570768
0.0033167001
0.0032749227
0.0032311188
0.0031872166
0.0031397803
0.0030911304
0.003041615
0.0029869108
0.0029331284
0.0028768184
0.0028144528
0.0027547599
0.0039525665
0.0039385197
0.0039231727
0.0039075278
0.0038906731
0.0038720794
0.0038525484
0.0038311829
0.0038087169
0.003785065
0.0037598293
0.0037335053
0.003706087
0.0036771475
0.0036460756
0.0036142252
0.0035810929
0.0035466744
0.0035111201
0.0034747456
0.0034370495
0.0033981839
0.0033581441
0.0033177664
0.0032759042
0.0032320831
0.0031881156
0.0031406066
0.0030919243
0.0030423309
0.0029875517
0.0029337493
0.0028773508
0.0028149107
0.0039820366
0.003969164
0.0039562065
0.0039422019
0.0039268872
0.0039111678
0.0038941484
0.0038752872
0.0038555705
0.0038340823
0.0038114847
0.0037877142
0.0037623103
0.0037358455
0.0037082986
0.0036791
0.0036478908
0.0036159475
0.0035826995
0.0035481904
0.0035125452
0.0034760888
0.0034383389
0.0033994038
0.0033592975
0.0033189259
0.0032769716
0.0032331326
0.0031890885
0.0031415072
0.0030927916
0.003043111
0.0029882568
0.002934428
0.0028779368
0.0028154187
0.0040185005
0.0040083452
0.0039978862
0.003986183
0.0039732535
0.0039602619
0.0039463005
0.0039309363
0.0039150442
0.0038978365
0.0038787234
0.0038588233
0.00383722
0.003814457
0.0037905506
0.0037649512
0.0037383532
0.0037106637
0.0036812025
0.0036498637
0.0036178119
0.0035844392
0.0035498342
0.0035140873
0.0034775437
0.0034397307
0.003400721
0.0033605367
0.0033201656
0.0032781209
0.0032342599
0.0031901406
0.0031424803
0.0030937261
0.0030439588
0.002989023
0.0029351661
0.0028785769
0.002815977
0.0040491319
0.0040411867
0.0040324993
0.0040227887
0.0040125389
0.0040019555
0.0039902274
0.003977298
0.0039643147
0.0039503959
0.0039349519
0.0039188543
0.0039014411
0.0038820877
0.0038620502
0.0038403656
0.0038174472
0.0037933922
0.0037676336
0.0037408998
0.0037130639
0.0036833321
0.003651879
0.0036197211
0.0035862333
0.0035515396
0.0035157004
0.003479069
0.003441197
0.0034021339
0.0033618783
0.0033214955
0.0032793551
0.0032354713
0.0031912649
0.0031435272
0.0030947328
0.0030448694
0.0029898523
0.0029359613
0.0028792696
0.002816585
0.0040886606
0.0040827613
0.0040765248
0.0040696036
0.0040619804
0.0040541594
0.0040460781
0.0040372684
0.004027455
0.0040171095
0.0040064486
0.0039947455
0.0039818294
0.0039688134
0.0039548349
0.0039392018
0.0039228573
0.0039052614
0.0038857007
0.0038655308
0.003843753
0.0038206257
0.003796414
0.0037704852
0.0037436104
0.003715611
0.003685611
0.0036540481
0.0036217661
0.0035881573
0.0035533684
0.0035174275
0.0034807052
0.0034427652
0.0034036887
0.0033633473
0.0033229066
0.0032806702
0.0032367592
0.0031924673
0.0031446452
0.0030958057
0.0030458467
0.0029907416
0.0029368147
0.0028800151
0.0028172429
0.004135984
0.004130825
0.0041256575
0.0041206977
0.0041159745
0.0041109715
0.0041053737
0.0040994237
0.0040934377
0.0040874706
0.0040811873
0.0040742243
0.0040665537
0.0040586939
0.0040505821
0.004041754
0.0040319141
0.0040215271
0.0040108487
0.0039991923
0.0039863265
0.0039732632
0.0039591864
0.0039433605
0.0039267776
0.0039090192
0.0038892978
0.0038690214
0.0038471415
0.0038238246
0.0037994464
0.0037733772
0.0037463645
0.0037181921
0.0036879269
0.0036562674
0.0036238607
0.003590138
0.0035552612
0.0035192265
0.0034824116
0.0034444075
0.0034053294
0.0033649125
0.0033244059
0.0032820707
0.0032381316
0.0031937423
0.0031458373
0.0030969508
0.0030468871
0.0029916938
0.002937726
0.0028808134
0.0028179511
0.0024857932
0.0025109751
0.0025364921
0.0025629521
0.0025911608
0.0026223308
0.0026591513
0.0027107545
0.0028054761
0.002986437
0.0032673659
0.0036273218
0.0039430789
0.0041392733
0.0042269317
0.00425253
0.004253313
0.0042467644
0.0042389586
0.0042311754
0.0042233219
0.0042152848
0.0042075574
0.0042006137
0.0041942343
0.0041883373
0.0041826774
0.004177148
0.0041714712
0.0041657319
0.0041602916
0.0041553883
0.0041507603
0.0041461545
0.0041412965
0.0041362304
0.0041310268
0.0041260056
0.0041213012
0.0041164205
0.0041109029
0.0041049763
0.004098976
0.0040929783
0.004086668
0.0040796593
0.0040718942
0.0040639289
0.0040557162
0.0040468009
0.0040369105
0.0040264927
0.0040158132
0.0040041865
0.0039912772
0.0039780429
0.0039637814
0.0039477355
0.0039309221
0.0039130261
0.0038931643
0.0038727538
0.0038507451
0.0038271921
0.0038026583
0.0037764478
0.0037492745
0.0037209147
0.0036903894
0.0036586285
0.0036260879
0.0035922469
0.0035572735
0.0035211382
0.0034842292
0.0034461499
0.0034070621
0.0033665585
0.0033259883
0.0032835516
0.0032395789
0.0031950951
0.0031471001
0.0030981626
0.003047994
0.0029927059
0.0029386953
0.0028816646
0.0023937855
0.0024215364
0.0024486112
0.0024751022
0.0025012326
0.0025273543
0.0025539487
0.0025816523
0.0026112986
0.0026440899
0.0026825541
0.002735503
0.002831541
0.0030150072
0.0032940756
0.0036408806
0.003943967
0.0041340082
0.0042181458
0.0042445575
0.0042478529
0.0042437231
0.0042375174
0.0042309164
0.004224299
0.0042176194
0.0042110923
0.0042048606
0.004198923
0.0041932178
0.004187731
0.0041824299
0.0041768728
0.0041711281
0.004165667
0.0041607672
0.0041561911
0.0041516171
0.0041467746
0.0041416482
0.0041364272
0.0041314795
0.0041267692
0.0041217748
0.0041161094
0.0041100338
0.0041039234
0.0040978487
0.0040914548
0.0040843939
0.0040766152
0.0040686283
0.0040604357
0.0040515543
0.0040417016
0.0040313404
0.0040206741
0.004009075
0.0039961057
0.0039826951
0.003968258
0.0039520109
0.0039349899
0.00391699
0.0038970349
0.0038764877
0.003854328
0.0038305712
0.0038058851
0.0037795554
0.0037522263
0.0037236715
0.0036928985
0.0036610473
0.0036283692
0.0035944134
0.0035593519
0.0035231212
0.0034861159
0.0034479662
0.0034088793
0.003368299
0.0033276574
0.0032851176
0.0032411107
0.0031965206
0.0031484372
0.0030994459
0.0030491641
0.0029937811
0.0029397226
0.0028825689
0.00236323
0.0023943188
0.002424894
0.0024548582
0.0024841565
0.0025128188
0.0025409322
0.0025687225
0.0025965529
0.0026249248
0.0026545057
0.0026861739
0.0027212057
0.0027621207
0.0028171329
0.0029126134
0.0030937871
0.003364577
0.0037076523
0.0040082134
0.0041904225
0.0042648133
0.0042838645
0.0042810204
0.0042715757
0.004260636
0.0042499924
0.0042401414
0.0042308331
0.0042220605
0.0042140128
0.0042069075
0.0042003966
0.0041943733
0.0041885752
0.0041827146
0.0041768674
0.0041714366
0.0041665522
0.0041619345
0.0041572579
0.0041523103
0.0041471546
0.0041419765
0.0041369747
0.0041322098
0.0041272774
0.0041217122
0.0041157111
0.004109648
0.0041035907
0.0040972109
0.0040901224
0.0040822849
0.0040742093
0.0040659636
0.0040570791
0.0040472268
0.0040368437
0.0040261015
0.0040144023
0.0040012409
0.0039875883
0.003972963
0.0039565313
0.0039393241
0.0039212326
0.0039011767
0.0038804423
0.0038581159
0.0038341402
0.0038092996
0.0037828389
0.0037553367
0.0037265723
0.0036955521
0.003663602
0.0036307812
0.0035967072
0.0035615486
0.0035252176
0.0034881125
0.0034498811
0.0034107896
0.0033701226
0.0033294103
0.0032867637
0.0032427165
0.0031980242
0.003149845
0.0031007967
0.0030504001
0.0029949161
0.0029408069
0.0028835266
0.0022878715
0.0023200946
0.002352025
0.0023835862
0.0024146624
0.0024451563
0.0024749575
0.0025039977
0.0025322942
0.0025599191
0.0025870794
0.0026141138
0.0026414925
0.0026698461
0.0027000219
0.0027332934
0.0027723368
0.0028257445
0.0029196963
0.0030996514
0.0033805662
0.0037394087
0.0040424399
0.0042154573
0.0042836645
0.0042971403
0.0042899907
0.0042777782
0.0042656631
0.004254968
0.0042453815
0.0042361609
0.0042272304
0.0042190707
0.0042119332
0.0042054589
0.0041993976
0.0041935552
0.0041878218
0.0041820657
0.0041766439
0.0041717175
0.0041671131
0.0041625386
0.004157762
0.0041527355
0.0041475742
0.0041425221
0.0041377139
0.0041327247
0.0041270261
0.0041209168
0.0041147954
0.0041086593
0.0041021982
0.0040950628
0.0040872351
0.0040792381
0.0040710839
0.0040622699
0.0040524586
0.0040420673
0.004031292
0.0040195099
0.0040062019
0.003992352
0.0039775612
0.0039609796
0.0039436265
0.0039254762
0.003905331
0.0038843887
0.0038618845
0.0038377254
0.0038127385
0.0037861622
0.0037584792
0.0037294957
0.0036982515
0.0036662164
0.0036332502
0.0035990608
0.003563812
0.0035273823
0.0034901773
0.0034518704
0.0034127837
0.0033720404
0.0033312487
0.0032884941
0.0032444061
0.0031996008
0.0031513276
0.003102218
0.0030516995
0.0029961144
0.0029419491
0.0028845378
0.0020987928
0.0021314073
0.0021637606
0.0021958741
0.0022277715
0.0022594295
0.0022908206
0.0023218815
0.0023525294
0.0023826484
0.0024121338
0.0024408755
0.0024688053
0.0024959355
0.0025223469
0.0025482517
0.002573994
0.0026000535
0.0026270661
0.002655872
0.0026877262
0.0027253354
0.0027778929
0.0028740987
0.0030627548
0.0033613045
0.0037229582
0.0040184961
0.0041885359
0.0042599156
0.0042771585
0.004274348
0.0042662654
0.0042577209
0.0042498538
0.0042422657
0.0042346665
0.0042272101
0.0042203681
0.0042142519
0.0042086478
0.0042032686
0.0041980833
0.0041927997
0.0041873241
0.0041819925
0.0041772072
0.0041727486
0.0041682466
0.0041634823
0.0041584127
0.0041531841
0.0041481446
0.0041433937
0.0041384771
0.0041329398
0.0041269382
0.0041208438
0.0041147516
0.0041083251
0.0041012145
0.0040933691
0.0040853294
0.0040771432
0.0040682851
0.0040583972
0.0040478744
0.0040369243
0.0040249348
0.00401141
0.0039973433
0.0039824288
0.0039657339
0.0039482375
0.0039299999
0.0039097147
0.0038885172
0.0038658475
0.0038415131
0.0038163666
0.0037896446
0.0037617853
0.0037325746
0.0037011084
0.0036689726
0.0036358487
0.0036015415
0.0035661939