/*--------------------------------*- C++ -*----------------------------------*\
| =========                 |                                                 |
| \\      /  F ield         | OpenFOAM: The Open Source CFD Toolbox           |
|  \\    /   O peration     | Version:  2506                                  |
|   \\  /    A nd           | Website:  www.openfoam.com                      |
|    \\/     M anipulation  |                                                 |
\*---------------------------------------------------------------------------*/
FoamFile
{
    version     2.0;
    format      ascii;
    arch        "LSB;label=32;scalar=64";
    class       volScalarField;
    location    "0.0135";
    object      Cy;
}
// * * * * * * * * * * * * * * * * * * * * * * * * * * * * * * * * * * * * * //

dimensions      [0 1 0 0 0 0 0];

internalField   nonuniform List<scalar> 
13763
(
1.5386477e-05
1.6085545e-05
1.6816047e-05
1.757945e-05
1.837729e-05
1.9211177e-05
2.0082803e-05
2.099394e-05
2.1946446e-05
2.2942273e-05
2.3983466e-05
2.5072172e-05
2.6210642e-05
2.7401242e-05
2.8646451e-05
2.9948873e-05
3.1311241e-05
3.2736423e-05
3.4227431e-05
3.5787428e-05
3.7419734e-05
3.9127835e-05
4.0915394e-05
4.2786257e-05
4.4744464e-05
4.679426e-05
4.8940104e-05
5.1186681e-05
5.3538914e-05
5.6001978e-05
5.858131e-05
6.1282625e-05
6.4111931e-05
6.7075545e-05
7.0180107e-05
7.3432598e-05
7.6840361e-05
8.0411118e-05
8.4152988e-05
8.8074513e-05
9.2184679e-05
9.6492938e-05
0.00010100923
0.00010574403
0.00011070834
0.00011591375
0.00012137246
0.0001270973
4.7016794e-05
4.9148708e-05
5.1376484e-05
5.3704594e-05
5.6137723e-05
5.8680786e-05
6.1338937e-05
6.4117582e-05
6.7022389e-05
7.0059307e-05
7.3234575e-05
7.655474e-05
8.0026671e-05
8.3657575e-05
8.7455018e-05
9.1426938e-05
9.5581671e-05
9.9927965e-05
0.000104475
0.00010923243
0.00011421038
0.00011941947
0.00012487088
0.00013057633
0.00013654815
0.00014279928
0.00014934333
0.00015619457
0.00016336802
0.00017087946
0.00017874548
0.0001869835
0.00019561185
0.00020464978
0.00021411755
0.00022403645
0.00023442886
0.00024531835
0.00025672966
0.00026868886
0.00028122334
0.00029436192
0.00030813494
0.0003225743
0.00033771359
0.00035358814
0.00037023515
0.00038769376
0.00040600517
0.00042521278
8.0417478e-05
8.4053354e-05
8.7852718e-05
9.1823195e-05
9.5972777e-05
0.00010030984
0.00010484319
0.00010958202
0.00011453603
0.00011971533
0.00012513059
0.00013079296
0.00013671415
0.00014290647
0.0001493828
0.0001561567
0.00016324237
0.00017065474
0.00017840946
0.00018652299
0.0001950126
0.00020389641
0.00021319348
0.00022292381
0.0002331084
0.00024376935
0.00025492983
0.00026661422
0.00027884812
0.00029165844
0.00030507346
0.0003191229
0.00033383802
0.00034925165
0.00036539834
0.00038231441
0.00040003802
0.00041860935
0.00043807062
0.00045846626
0.000479843
0.00050224999
0.00052573897
0.00055036435
0.0005761834
0.00060325638
0.00063164673
0.0006614212
0.00069265006
0.00072540731
0.00075977083
0.00011569363
0.00012090809
0.00012635702
0.00013205135
0.00013800254
0.00014422262
0.0001507242
0.00015752048
0.00016462534
0.00017205332
0.0001798197
0.00018794047
0.00019643244
0.00020531323
0.00021460136
0.00022431624
0.00023447825
0.00024510879
0.00025623033
0.00026786645
0.00028004191
0.00029278273
0.00030611623
0.00032007108
0.00033467742
0.00034996692
0.00036597283
0.0003827301
0.00040027546
0.00041864748
0.00043788673
0.00045803585
0.00047913964
0.00050124521
0.00052440208
0.00054866235
0.00057408077
0.00060071493
0.0006286254
0.00065787589
0.00068853342
0.00072066849
0.00075435528
0.00078967182
0.00082670026
0.00086552702
0.00090624307
0.00094894415
0.00099373103
0.0010407098
0.0010899923
0.0011416959
0.0011959446
0.00015295261
0.00015982396
0.00016700428
0.00017450798
0.00018235017
0.00019054667
0.0001991141
0.00020806989
0.00021743231
0.00022722052
0.00023745463
0.00024815575
0.00025934602
0.00027104865
0.00028328804
0.00029608978
0.00030948072
0.00032348906
0.0003381444
0.00035347783
0.00036952197
0.0003863111
0.00040388122
0.00042227012
0.00044151752
0.00046166513
0.00048275678
0.00050483852
0.00052795875
0.0005521683
0.00057752064
0.00060407192
0.00063188121
0.00066101057
0.00069152528
0.00072349396
0.00075698876
0.00079208558
0.00082886423
0.00086740867
0.0009078072
0.00095015272
0.00099454298
0.0010410808
0.0010898745
0.0011410378
0.0011946907
0.0012509593
0.0013099765
0.0013718819
0.001436823
0.0015049545
0.0015764397
0.0016514505
0.0017301678
0.00019231621
0.00020092664
0.00020992423
0.00021932704
0.00022915399
0.00023942494
0.00025016069
0.00026138309
0.00027311502
0.0002853805
0.00029820474
0.00031161417
0.00032563654
0.00034030095
0.00035563796
0.00037167963
0.00038845962
0.00040601326
0.00042437764
0.00044359171
0.00046369637
0.00048473455
0.00050675136
0.00052979418
0.00055391275
0.00057915936
0.00060558892
0.00063325913
0.00066223064
0.00069256716
0.00072433566
0.00075760653
0.00079245377
0.00082895516
0.00086719248
0.00090725173
0.00094922332
0.00099320235
0.0010392888
0.0010875879
0.0011382104
0.0011912725
0.0012468968
0.0013052122
0.0013663543
0.0014304658
0.0014976968
0.0015682055
0.0016421583
0.0017197303
0.0018011061
0.0018864797
0.0019760558
0.0020700496
0.0021686879
0.0022722097
0.0023808664
0.00023391075
0.00024434647
0.00025525142
0.00026664748
0.0002785576
0.00029100583
0.0003040174
0.00031761876
0.00033183767
0.00034670323
0.00036224599
0.00037849799
0.00039549285
0.00041326586
0.00043185403
0.00045129623
0.00047163326
0.00049290793
0.00051516519
0.00053845226
0.00056281869
0.00058831653
0.00061500043
0.00064292782
0.000672159
0.00070275733
0.00073478935
0.00076832501
0.0008034378
0.00084020493
0.00087870758
0.00091903106
0.00096126503
0.0010055038
0.0010518464
0.0011003972
0.0011512656
0.001204567
0.0012604226
0.0013189598
0.0013803127
0.0014446225
0.0015120376
0.0015827141
0.0016568165
0.0017345176
0.0018159995
0.0019014539
0.0019910823
0.0020850971
0.0021837219
0.002287192
0.0023957552
0.0025096725
0.0026292188
0.0027546836
0.0028863717
0.0030246045
0.0031697204
0.0033220758
0.00027786756
0.00029021903
0.00030312588
0.00031661399
0.00033071052
0.00034544394
0.0003608441
0.00037694233
0.00039377146
0.00041136596
0.00042976196
0.00044899739
0.00046911205
0.0004901477
0.00051214814
0.00053515939
0.00055922972
0.0005844098
0.00061075286
0.00063831474
0.00066715412
0.00069733259
0.00072891485
0.00076196884
0.00079656595
0.00083278115
0.00087069322
0.00091038494
0.00095194328
0.00099545964
0.0010410301
0.0010887556
0.0011387422
0.0011911017
0.0012459512
0.0013034141
0.0013636202
0.0014267058
0.0014928143
0.0015620968
0.0016347118
0.0017108264
0.0017906163
0.0018742663
0.0019619709
0.0020539349
0.0021503736
0.0022515139
0.0023575945
0.0024688665
0.0025855947
0.0027080575
0.0028365482
0.0029713759
0.0031128656
0.0032613602
0.0034172205
0.0035808266
0.0037525791
0.0039329001
0.004122234
0.0043210495
0.00032432747
0.00033868962
0.00035369756
0.00036938138
0.00038577266
0.0004029045
0.00042081163
0.00043953044
0.00045909914
0.00047955778
0.0005009484
0.00052331509
0.00054670413
0.00057116406
0.00059674585
0.00062350297
0.00065149156
0.00068077056
0.00071140182
0.00074345031
0.00077698424
0.00081207523
0.0008487985
0.00088723308
0.00092746194
0.00096957228
0.0010136557
0.0010598084
0.0011081316
0.0011587315
0.0012117199
0.001267214
0.0013253374
0.0013862198
0.0014499976
0.0015168141
0.0015868203
0.0016601747
0.0017370441
0.001817604
0.0019020389
0.001990543
0.0020833206
0.0021805866
0.0022825672
0.0023895003
0.0025016366
0.0026192396
0.002742587
0.0028719709
0.003007699
0.003150095
0.0032995002
0.0034562735
0.0036207934
0.0037934582
0.0039746875
0.0041649233
0.0043646315
0.0045743026
0.0047944536
0.0050256294
0.00037343825
0.0003899107
0.00040712382
0.00042511213
0.00044391184
0.00046356092
0.00048409919
0.0005055684
0.00052801237
0.00055147704
0.00057601062
0.00060166368
0.00062848929
0.00065654313
0.00068588365
0.00071657219
0.00074867312
0.00078225405
0.00081738593
0.00085414324
0.00089260424
0.00093285106
0.00097496997
0.0010190516
0.0010651911
0.0011134886
0.001164049
0.0012169827
0.0012724057
0.00133044
0.0013912136
0.0014548612
0.0015215242
0.0015913516
0.0016644997
0.0017411331
0.0018214247
0.0019055564
0.0019937195
0.0020861152
0.0021829553
0.0022844623
0.0023908707
0.0025024268
0.0026193902
0.0027420337
0.0028706447
0.0030055256
0.0031469947
0.0032953871
0.0034510557
0.0036143718
0.0037857267
0.0039655323
0.0041542223
0.0043522538
0.004560108
0.0047782918
0.0050073394
0.0052478136
0.0055003072
0.0057654451
0.00042536304
0.0004440503
0.0004635778
0.00048398472
0.00050531213
0.0005276031
0.00055090281
0.00057525863
0.00060072025
0.0006273398
0.00065517196
0.00068427411
0.00071470645
0.00074653216
0.00077981753
0.00081463214
0.00085104904
0.0008891449
0.00092900022
0.0009706995
0.0010143315
0.0010599894
0.0011077711
0.0011577794
0.0012101222
0.0012649131
0.0013222711
0.0013823215
0.0014451959
0.0015110325
0.0015799768
0.0016521813
0.0017278068
0.001807022
0.0018900043
0.0019769404
0.0020680265
0.0021634689
0.0022634847
0.0023683022
0.0024781614
0.002593315
0.0027140287
0.0028405823
0.00297327
0.0031124014
0.0032583025
0.0034113163
0.0035718039
0.0037401456
0.0039167415
0.004102013
0.0042964039
0.0045003814
0.0047144378
0.0049390912
0.0051748877
0.0054224024
0.0056822413
0.0059550427
0.0062414792
0.0065422597
0.00048027757
0.00050128927
0.00052324573
0.00054619098
0.00057017121
0.00059523485
0.00062143269
0.000648818
0.00067744665
0.00070737724
0.00073867126
0.00077139323
0.00080561083
0.00084139509
0.00087882055
0.00091796546
0.00095891194
0.0010017462
0.0010465587
0.0010934446
0.0011425035
0.0011938403
0.001247565
0.0013037932
0.0013626464
0.001424252
0.001488744
0.0015562633
0.0016269577
0.0017009829
0.0017785021
0.0018596871
0.0019447184
0.0020337859
0.002127089
0.0022248377
0.0023272524
0.0024345652
0.0025470201
0.0026648739
0.0027883964
0.0029178717
0.0030535986
0.0031958916
0.0033450814
0.0035015164
0.003665563
0.0038376067
0.0040180538
0.0042073316
0.00440589
0.004614203
0.0048327694
0.0050621146
0.0053027919
0.0055553841
0.005820505
0.0060988014
0.0063909545
0.006697682
0.0070197403
0.0073579261
0.00053836141
0.0005618126
0.00058631821
0.00061192741
0.00063869174
0.00066666526
0.00069590465
0.00072646936
0.00075842174
0.00079182721
0.0008267544
0.0008632753
0.00090146545
0.00094140414
0.00098317455
0.001026864
0.0010725642
0.0011203713
0.0011703863
0.0012227153
0.0012774696
0.0013347663
0.0013947281
0.001457484
0.0015231695
0.0015919269
0.0016639059
0.0017392635
0.0018181649
0.0019007836
0.001987302
0.0020779116
0.0021728141
0.0022722213
0.0023763557
0.0024854517
0.0025997554
0.0027195257
0.002845035
0.0029765698
0.0031144314
0.0032589367
0.0034104193
0.0035692301
0.0037357384
0.0039103327
0.0040934221
0.0042854369
0.0044868304
0.0046980796
0.0049196867
0.0051521806
0.0053961179
0.0056520851
0.0059206997
0.0062026122
0.0064985076
0.0068091077
0.0071351727
0.0074775038
0.007836945
0.0082143856
0.00059980594
0.0006258173
0.00065299818
0.00068140313
0.0007110893
0.00074211666
0.00077454806
0.00080844946
0.00084389001
0.00088094227
0.00091968234
0.0009601901
0.0010025493
0.0010468479
0.0010931782
0.001141637
0.001192326
0.0012453519
0.0013008268
0.0013588682
0.0014195997
0.0014831509
0.0015496582
0.0016192646
0.0016921204
0.0017683835
0.0018482197
0.0019318034
0.0020193176
0.0021109548
0.0022069173
0.0023074177
0.0024126795
0.0025229376
0.002638439
0.0027594435
0.002886224
0.0030190679
0.0031582771
0.0033041694
0.0034570791
0.0036173576
0.0037853749
0.0039615202
0.0041462031
0.0043398546
0.0045429282
0.0047559015
0.0049792771
0.0052135839
0.0054593791
0.0057172492
0.0059878117
0.006271717
0.00656965
0.0068823321
0.0072105232
0.0075550238
0.007916677
0.0082963715
0.0086950434
0.0091136791
0.00066481884
0.00069351699
0.00072350547
0.00075484444
0.00078759696
0.00082182918
0.00085761047
0.00089501358
0.0009341148
0.00097499419
0.0010177357
0.0010624275
0.001109162
0.0011580361
0.0012091518
0.0012626158
0.0013185403
0.0013770431
0.0014382477
0.001502284
0.0015692881
0.0016394033
0.0017127798
0.0017895754
0.001869956
0.0019540958
0.0020421777
0.0021343941
0.0022309469
0.0023320486
0.0024379222
0.0025488023
0.0026649355
0.002786581
0.0029140113
0.0030475128
0.003187387
0.0033339507
0.003487537
0.0036484966
0.0038171981
0.0039940295
0.0041793988
0.0043737354
0.0045774913
0.0047911418
0.0050151875
0.005250155
0.005496599
0.0057551031
0.0060262818
0.0063107822
0.0066092857
0.0069225097
0.0072512099
0.0075961822
0.0079582649
0.0083383411
0.0087373411
0.0091562453
0.0095960863
0.010057953
0.00073362257
0.00076514035
0.00079807522
0.00083249325
0.0008684637
0.00090605923
0.000945356
0.00098643392
0.0010293768
0.0010742725
0.0011212133
0.0011702959
0.0012216218
0.0012752977
0.0013314352
0.0013901519
0.0014515707
0.001515821
0.0015830386
0.0016533661
0.0017269529
0.0018039564
0.0018845415
0.0019688817
0.002057159
0.0021495647
0.0022462998
0.0023475755
0.0024536136
0.0025646474
0.0026809218
0.0028026946
0.0029302364
0.003063832
0.0032037805
0.0033503968
0.0035040115
0.0036649728
0.0038336466
0.0040104179
0.0041956915
0.0043898935
0.0045934721
0.0048068987
0.0050306698
0.0052653073
0.005511361
0.0057694094
0.0060400613
0.0063239579
0.006621774
0.0069342202
0.0072620448
0.0076060357
0.0079670228
0.0083458801
0.0087435283
0.0091609373
0.0095991287
0.010059179
0.010542222
0.011049454
0.00080645607
0.00084093279
0.00087695964
0.00091460886
0.00095395625
0.00099508125
0.0010380672
0.0010830015
0.0011299758
0.0011790862
0.0012304337
0.0012841241
0.0013402684
0.0013989831
0.0014603907
0.0015246193
0.0015918039
0.0016620857
0.0017356133
0.0018125427
0.0018930374
0.0019772694
0.0020654193
0.0021576766
0.0022542407
0.0023553206
0.0024611363
0.0025719187
0.0026879106
0.0028093669
0.0029365559
0.0030697592
0.0032092731
0.0033554089
0.0035084939
0.0036688724
0.0038369063
0.0040129762
0.0041974824
0.0043908461
0.0045935102
0.0048059405
0.0050286274
0.0052620867
0.0055068611
0.0057635219
0.0060326702
0.0063149389
0.006610994
0.0069215366
0.0072473051
0.0075890767
0.0079476698
0.0083239464
0.0087188142
0.0091332293
0.0095681987
0.010024783
0.0105041
0.011007328
0.011535706
0.012090542
0.00088357372
0.00092115553
0.00096042705
0.0010014671
0.0010443581
0.0010891869
0.0011360442
0.0011850253
0.0012362301
0.0012897635
0.0013457353
0.0014042609
0.0014654615
0.001529464
0.0015964018
0.0016664147
0.0017396496
0.0018162608
0.00189641
0.0019802672
0.0020680108
0.0021598283
0.0022559164
0.0023564818
0.0024617417
0.0025719241
0.0026872686
0.0028080271
0.0029344641
0.0030668577
0.0032054999
0.0033506981
0.003502775
0.00366207
0.0038289399
0.00400376
0.0041869247
0.004378849
0.0045799691
0.0047907442
0.0050116569
0.0052432153
0.0054859536
0.0057404341
0.0060072485
0.0062870194
0.006580402
0.0068880863
0.007210798
0.0075493017
0.0079044019
0.0082769459
0.0086678258
0.0090779812
0.0095084014
0.0099601287
0.010434261
0.010931953
0.011454426
0.01200296
0.01257891
0.013183699
0.00096523974
0.00100608
0.0010487564
0.0010933546
0.0011399643
0.0011886798
0.0012395996
0.0012928273
0.0013484715
0.001406646
0.0014674705
0.0015310701
0.0015975766
0.0016671279
0.0017398688
0.0018159515
0.0018955356
0.0019787885
0.0020658861
0.0021570132
0.0022523635
0.0023521409
0.002456559
0.0025658426
0.0026802275
0.0027999616
0.0029253053
0.0030565323
0.0031939299
0.0033378004
0.0034884612
0.0036462462
0.003811506
0.0039846096
0.0041659447
0.004355919
0.0045549612
0.0047635222
0.0049820761
0.0052111216
0.0054511835
0.0057028136
0.0059665927
0.0062431316
0.0065330733
0.0068370945
0.0071559071
0.0074902607
0.0078409443
0.0082087883
0.0085946672
0.0089995017
0.0094242611
0.0098699664
0.010337693
0.010828573
0.011343799
0.011884628
0.012452383
0.01304846
0.013674327
0.014331534
0.001051736
0.0010959955
0.0011422448
0.0011905768
0.0012410888
0.0012938827
0.0013490655
0.0014067494
0.0014670521
0.0015300969
0.0015960135
0.0016649375
0.0017370117
0.0018123856
0.0018912162
0.0019736682
0.0020599146
0.0021501369
0.0022445259
0.0023432815
0.002446614
0.0025547439
0.0026679031
0.0027863349
0.0029102951
0.0030400522
0.0031758884
0.0033181002
0.0034669992
0.0036229128
0.0037861851
0.0039571778
0.0041362709
0.0043238643
0.0045203781
0.0047262542
0.004941957
0.0051679752
0.0054048227
0.0056530399
0.0059131954
0.0061858873
0.0064717448
0.00677143
0.0070856397
0.007415107
0.0077606037
0.0081229419
0.0085029766
0.0089016079
0.0093197832
0.0097585004
0.01021881
0.010701818
0.01120869
0.011740653
0.012298999
0.012885091
0.013500363
0.014146325
0.014824571
0.015536779
0.0011433724
0.0011912198
0.0012412183
0.0012934684
0.001348075
0.0014051486
0.0014648047
0.0015271646
0.0015923555
0.0016605108
0.0017317706
0.0018062817
0.0018841982
0.0019656818
0.0020509023
0.0021400377
0.0022332751
0.0023308106
0.0024328504
0.0025396108
0.0026513189
0.0027682134
0.0028905446
0.0030185758
0.0031525834
0.0032928577
0.0034397037
0.0035934421
0.0037544095
0.00392296
0.0040994655
0.004284317
0.0044779255
0.004680723
0.0048931638
0.0051157255
0.0053489103
0.0055932464
0.0058492892
0.0061176231
0.0063988627
0.0066936544
0.0070026786
0.007326651
0.0076663247
0.0080224924
0.0083959883
0.0087876903
0.0091985227
0.0096294584
0.010081522
0.010555791
0.011053403
0.011575552
0.012123499
0.012698569
0.013302161
0.013935745
0.014600874
0.01529918
0.016032385
0.016802304
0.0012404762
0.0012920883
0.0013460209
0.0014023821
0.0014612854
0.0015228496
0.0015871995
0.0016544659
0.001724786
0.0017983038
0.0018751703
0.0019555438
0.0020395907
0.0021274852
0.0022194106
0.0023155589
0.0024161318
0.0025213411
0.0026314088
0.0027465685
0.0028670652
0.0029931561
0.0031251114
0.0032632151
0.0034077653
0.0035590751
0.0037174736
0.0038833065
0.0040569372
0.0042387473
0.0044291382
0.0046285314
0.0048373705
0.0050561213
0.0052852739
0.0055253434
0.0057768715
0.006040428
0.006316612
0.0066060537
0.006909416
0.0072273965
0.0075607287
0.0079101847
0.008276577
0.0086607604
0.0090636347
0.0094861469
0.0099292941
0.010394126
0.010881746
0.011393319
0.01193007
0.012493288
0.013084332
0.013704633
0.014355698
0.015039115
0.015756556
0.016509784
0.017300655
0.018131126
0.001343393
0.0013989555
0.001457016
0.0015176911
0.0015811026
0.0016473788
0.0017166539
0.0017890686
0.0018647708
0.0019439153
0.0020266647
0.0021131896
0.0022036689
0.0022982903
0.002397251
0.0025007577
0.0026090276
0.0027222886
0.0028407799
0.0029647528
0.003094471
0.0032302114
0.0033722651
0.0035209376
0.0036765497
0.0038394387
0.0040099588
0.0041884821
0.0043753997
0.0045711227
0.0047760828
0.0049907342
0.0052155541
0.005451044
0.0056977315
0.0059561711
0.0062269461
0.0065106696
0.0068079867
0.0071195757
0.0074461504
0.0077884615
0.0081472989
0.0085234935
0.00891792
0.0093314986
0.009765198
0.010220038
0.010697091
0.011197487
0.011722415
0.012273129
0.012850946
0.013457255
0.014093518
0.014761276
0.015462152
0.016197854
0.016970183
0.017781035
0.018632411
0.019526415
0.0014524973
0.0015122048
0.0015745967
0.001639798
0.00170794
0.0017791602
0.001853603
0.0019314197
0.0020127689
0.0020978173
0.0021867395
0.0022797186
0.0023769471
0.0024786267
0.0025849692
0.0026961968
0.0028125427
0.002934252
0.0030615817
0.0031948017
0.0033341955
0.0034800607
0.0036327099
0.0037924715
0.0039596903
0.0041347286
0.004317967
0.0045098056
0.0047106644
0.0049209851
0.0051412319
0.0053718925
0.0056134799
0.005866533
0.0061316186
0.0064093327
0.0067003018
0.0070051851
0.0073246754
0.007659502
0.0080104316
0.0083782708
0.0087638686
0.0091681178
0.0095919582
0.010036379
0.01050242
0.010991178
0.011503806
0.012041516
0.012605589
0.013197368
0.013818272
0.014469792
0.0151535
0.01587105
0.016624187
0.017414747
0.018244663
0.019115976
0.020030833
0.020991496
0.0015681853
0.0016322418
0.0016991782
0.0017691286
0.0018422339
0.0019186416
0.0019985066
0.0020819911
0.0021692655
0.0022605083
0.0023559071
0.0024556583
0.0025599682
0.0026690534
0.002783141
0.0029024694
0.0030272889
0.0031578623
0.0032944653
0.0034373876
0.0035869332
0.0037434214
0.0039071876
0.0040785841
0.0042579807
0.0044457662
0.0046423489
0.0048481578
0.0050636438
0.0052892806
0.0055255661
0.0057730238
0.0060322036
0.006303684
0.0065880729
0.0068860096
0.0071981665
0.0075252504
0.0078680049
0.0082272121
0.0086036946
0.0089983178
0.0094119923
0.009845676
0.010300377
0.010777157
0.011277131
0.011801475
0.012351427
0.012928288
0.013533429
0.014168294
0.014834404
0.015533358
0.016266843
0.017036634
0.017844602
0.018692716
0.019583053
0.020517798
0.021499257
0.022529856
0.0016908812
0.0017595008
0.0018312054
0.0019061387
0.0019844515
0.0020663019
0.0021518558
0.0022412871
0.0023347781
0.0024325203
0.0025347142
0.0026415706
0.0027533104
0.0028701655
0.0029923793
0.0031202071
0.0032539171
0.0033937906
0.0035401232
0.003693225
0.0038534218
0.0040210556
0.0041964856
0.0043800892
0.0045722626
0.0047734223
0.0049840055
0.005204472
0.0054353045
0.0056770107
0.0059301237
0.0061952044
0.0064728419
0.0067636557
0.0070682971
0.007387451
0.0077218374
0.0080722137
0.0084393762
0.0088241627
0.0092274545
0.0096501785
0.01009331
0.010557875
0.011044954
0.011555684
0.012091259
0.012652939
0.013242049
0.013859984
0.014508213
0.015188282
0.015901819
0.016650539
0.017436248
0.018260848
0.019126341
0.020034839
0.020988564
0.02198986
0.023041193
0.024145166
0.0018210403
0.0018944474
0.0019711546
0.0020513158
0.0021350923
0.0022226531
0.0023141758
0.0024098462
0.0025098596
0.0026144206
0.002723744
0.002838055
0.00295759
0.0030825971
0.0032133365
0.0033500817
0.0034931192
0.0036427501
0.0037992906
0.0039630725
0.0041344441
0.0043137714
0.0045014386
0.0046978495
0.0049034278
0.0051186191
0.0053438911
0.0055797355
0.005826669
0.0060852343
0.006356002
0.0066395719
0.0069365742
0.0072476716
0.0075735609
0.0079149746
0.008272683
0.0086474962
0.0090402662
0.009451889
0.0098833074
0.010335513
0.010809549
0.011306513
0.011827561
0.012373908
0.012946833
0.013547683
0.014177876
0.014838904
0.015532337
0.01625983
0.017023124
0.017824055
0.018664552
0.019546652
0.020472497
0.021444344
0.022464571
0.023535685
0.024660325
0.025841274
0.0019591469
0.0020375768
0.0021195326
0.0022051786
0.0022946873
0.0023882392
0.002486024
0.0025882402
0.0026950966
0.0028068116
0.0029236147
0.0030457467
0.00317346
0.0033070196
0.0034467038
0.0035928044
0.0037456279
0.0039054957
0.0040727457
0.0042477323
0.0044308279
0.0046224232
0.0048229289
0.0050327762
0.0052524181
0.0054823303
0.0057230127
0.0059749906
0.0062388159
0.0065150686
0.0068043582
0.0071073254
0.0074246437
0.0077570211
0.0081052019
0.0084699687
0.0088521445
0.0092525949
0.0096722299
0.010112007
0.010572933
0.011056068
0.011562526
0.012093481
0.012650165
0.013233878
0.013845987
0.014487931
0.015161223
0.015867459
0.016608315
0.017385561
0.018201055
0.019056759
0.019954735
0.020897158
0.021886316
0.022924622
0.024014616
0.025158975
0.026360519
0.027622222
0.0021057224
0.0021894219
0.0022768842
0.0023682845
0.002463807
0.0025636443
0.0026679987
0.0027770824
0.0028911177
0.0030103382
0.0031349885
0.0032653255
0.0034016188
0.0035441511
0.0036932193
0.0038491348
0.0040122247
0.0041828322
0.0043613176
0.0045480592
0.0047434544
0.0049479202
0.0051618948
0.0053858383
0.0056202342
0.0058655901
0.0061224395
0.006391343
0.0066728894
0.0069676978
0.0072764185
0.0075997354
0.007938367
0.0082930688
0.0086646353
0.0090539016
0.0094617458
0.0098890916
0.01033691
0.010806223
0.011298106
0.011813688
0.012354159
0.012920771
0.013514841
0.014137755
0.014790971
0.015476024
0.01619453
0.016948192
0.017738799
0.018568237
0.019438493
0.020351657
0.021309932
0.022315636
0.023371214
0.024479238
0.025642421
0.026863618
0.028145839
0.029492256
0.0022613251
0.0023505528
0.0024437919
0.0025412291
0.0026430605
0.0027494917
0.0028607384
0.0029770265
0.0030985933
0.0032256876
0.0033585702
0.0034975151
0.0036428094
0.0037947548
0.0039536676
0.0041198798
0.0042937401
0.0044756142
0.0046658864
0.0048649599
0.0050732582
0.0052912261
0.0055193305
0.0057580619
0.0060079357
0.0062694931
0.0065433028
0.0068299622
0.0071300993
0.0074443737
0.0077734788
0.0081181436
0.0084791341
0.0088572556
0.009253355
0.0096683224
0.010103094
0.010558654
0.011036039
0.011536337
0.012060694
0.012610314
0.013186467
0.013790486
0.014423775
0.015087811
0.015784149
0.016514425
0.017280363
0.018083776
0.018926573
0.019810763
0.020738465
0.021711907
0.022733436
0.023805525
0.024930778
0.026111938
0.027351897
0.028653698
0.03002055
0.031455834
0.0024265508
0.0025215781
0.0026208773
0.0027246475
0.0028330975
0.0029464461
0.0030649231
0.0031887692
0.0033182369
0.0034535912
0.00359511
0.0037430849
0.0038978219
0.0040596421
0.0042288823
0.0044058962
0.0045910551
0.0047847485
0.0049873855
0.0051993957
0.00542123
0.0056533621
0.0058962891
0.0061505337
0.0064166444
0.0066951977
0.0069867993
0.0072920853
0.0076117244
0.0079464193
0.0082969083
0.0086639676
0.0090484131
0.0094511024
0.0098729372
0.010314866
0.010777885
0.011263043
0.011771443
0.012304244
0.012862667
0.013447994
0.014061577
0.014704836
0.015379265
0.016086439
0.016828012
0.017605729
0.018421422
0.019277024
0.020174567
0.021116193
0.022104155
0.023140827
0.024228709
0.025370435
0.026568776
0.027826656
0.029147151
0.030533505
0.031989134
0.033517638
0.0026020376
0.0027031489
0.0028088054
0.0029192191
0.0030346121
0.0031552174
0.0032812792
0.0034130537
0.0035508097
0.003694829
0.0038454074
0.004002855
0.0041674975
0.0043396764
0.0045197503
0.0047080954
0.0049051066
0.0051111986
0.0053268065
0.0055523874
0.0057884211
0.0060354114
0.0062938876
0.0065644054
0.0068475487
0.0071439308
0.007454196
0.0077790213
0.008119118
0.0084752338
0.0088481543
0.0092387053
0.0096477549
0.010076215
0.010525047
0.010995257
0.011487907
0.012004113
0.012545047
0.013111943
0.0137061
0.014328884
0.01498173
0.01566615
0.016383735
0.017136159
0.017925183
0.018752662
0.019620547
0.020530893
0.021485864
0.022487737
0.023538909
0.024641908
0.025799392
0.027014163
0.028289171
0.029627525
0.031032499
0.032507544
0.034056295
0.035682581
0.0027884644
0.0028959576
0.003008283
0.0031256657
0.003248342
0.0033765594
0.0035105776
0.003650669
0.0037971193
0.0039502281
0.0041103098
0.0042776942
0.0044527274
0.0046357726
0.0048272108
0.005027442
0.0052368862
0.005455984
0.0056851981
0.0059250143
0.0061759428
0.0064385191
0.0067133058
0.0070008939
0.0073019038
0.0076169877
0.0079468304
0.0082921517
0.0086537078
0.0090322933
0.0094287436
0.0098439364
0.010278795
0.010734288
0.011211437
0.011711314
0.012235045
0.012783818
0.013358879
0.01396154
0.014593181
0.015255253
0.015949283
0.01667688
0.017439732
0.01823962
0.019078417
0.019958094
0.020880724
0.021848494
0.022863702
0.023928769
0.025046245
0.026218815
0.027449305
0.028740695
0.03009612
0.031518885
0.033012471
0.034580545
0.036226971
0.037955822
0.0029865586
0.0031007463
0.0032200671
0.0033447601
0.0034750762
0.0036112784
0.0037536427
0.0039024582
0.0040580284
0.0042206717
0.004390722
0.0045685297
0.0047544622
0.0049489055
0.0051522644
0.0053649636
0.0055874493
0.0058201895
0.0060636757
0.006318424
0.0065849762
0.0068639013
0.0071557968
0.0074612904
0.0077810414
0.0081157422
0.0084661205
0.0088329406
0.009217006
0.0096191607
0.010040292
0.010481332
0.010943262
0.011427111
0.011933963
0.012464957
0.01302129
0.013604223
0.01421508
0.014855255
0.015526212
0.016229495
0.016966724
0.017739608
0.018549942
0.019399616
0.020290619
0.021225045
0.022205099
0.023233099
0.024311489
0.025442841
0.026629861
0.027875403
0.02918247
0.030554223
0.031993996
0.033505298
0.035091827
0.036757477
0.038506354
0.040342783
0.0031971091
0.0033183189
0.0034449774
0.0035773383
0.0037156681
0.0038602458
0.0040113643
0.0041693307
0.0043344671
0.0045071113
0.0046876179
0.0048763586
0.0050737237
0.0052801227
0.0054959852
0.0057217623
0.0059579272
0.0062049771
0.0064634334
0.0067338441
0.0070167841
0.0073128574
0.0076226984
0.0079469731
0.0082863814
0.0086416584
0.0090135762
0.0094029464
0.0098106216
0.010237498
0.010684517
0.011152668
0.011642992
0.012156582
0.012694589
0.013258222
0.013848751
0.014467514
0.015115916
0.015795438
0.016507633
0.01725414
0.01803668
0.018857064
0.019717199
0.020619091
0.021564852
0.022556703
0.023596984
0.024688158
0.025832817
0.027033691
0.028293654
0.029615732
0.031003115
0.032459158
0.033987399
0.035591562
0.037275572
0.039043564
0.040899894
0.042849154
0.0034209574
0.0035495327
0.0036838876
0.0038242913
0.0039710265
0.0041243892
0.0042846899
0.0044522546
0.0046274247
0.0048105587
0.0050020326
0.0052022408
0.0054115973
0.0056305363
0.0058595136
0.0060990076
0.0063495205
0.0066115793
0.0068857373
0.0071725756
0.0074727042
0.0077867638
0.008115427
0.0084594005
0.0088194266
0.009196285
0.0095907947
0.010003817
0.010436255
0.01088906
0.011363231
0.011859818
0.012379923
0.012924708
0.013495392
0.014093257
0.014719651
0.015375994
0.016063775
0.016784565
0.017540013
0.018331854
0.019161916
0.02003212
0.020944488
0.021901148
0.022904339
0.023956419
0.025059868
0.026217299
0.027431461
0.028705251
0.030041716
0.031444067
0.032915685
0.034460131
0.036081157
0.037782713
0.039568962
0.041444289
0.043413316
0.045480911
0.003659004
0.0037953046
0.0039377318
0.0040865714
0.0042421225
0.0044046993
0.0045746309
0.0047522626
0.0049379566
0.0051320928
0.0053350697
0.0055473055
0.0057692389
0.0060013303
0.0062440629
0.0064979438
0.0067635052
0.0070413058
0.0073319323
0.0076360004
0.0079541569
0.0082870808
0.0086354852
0.0090001193
0.0093817697
0.009781263
0.010199468
0.010637296
0.011095706
0.011575706
0.012078354
0.012604764
0.013156105
0.013733606
0.014338561
0.014972329
0.015636339
0.016332095
0.017061177
0.017825249
0.018626059
0.019465447
0.02034535
0.021267804
0.022234953
0.023249052
0.024312475
0.025427721
0.026597419
0.027824339
0.029111395
0.030461656
0.031878354
0.033364892
0.034924854
0.036562014
0.038280349
0.040084046
0.041977519
0.043965415
0.046052632
0.048244333
0.0039122152
0.0040566181
0.0042075119
0.0043651989
0.0045299964
0.004702237
0.0048822695
0.0050704596
0.0052671911
0.0054728664
0.0056879077
0.005912758
0.0061478821
0.0063937678
0.0066509269
0.0069198966
0.0072012408
0.0074955513
0.0078034496
0.0081255882