/*--------------------------------*- C++ -*----------------------------------*\
| =========                 |                                                 |
| \\      /  F ield         | OpenFOAM: The Open Source CFD Toolbox           |
|  \\    /   O peration     | Version:  2506                                  |
|   \\  /    A nd           | Website:  www.openfoam.com                      |
|    \\/     M anipulation  |                                                 |
\*---------------------------------------------------------------------------*/
FoamFile
{
    version     2.0;
    format      ascii;
    arch        "LSB;label=32;scalar=64";
    class       volVectorField;
    location    "0.0015";
    object      U;
}
// * * * * * * * * * * * * * * * * * * * * * * * * * * * * * * * * * * * * * //

dimensions      [0 1 -1 0 0 0 0];

internalField   nonuniform List<vector> 
13761
(
(55.68865 -6.8173805 -3.7255883e-18)
(56.761482 -6.9471464 0)
(57.778186 -7.0698769 5.4792583e-25)
(58.736862 -7.1853159 0)
(59.638636 -7.2935732 3.292273e-22)
(60.488419 -7.3952203 2.4906132e-18)
(61.295305 -7.4913361 -2.2987711e-18)
(62.07244 -7.5834929 2.1232632e-18)
(62.836423 -7.6736802 -1.963037e-18)
(63.606814 -7.7642398 0)
(64.405537 -7.8577922 0)
(65.256054 -7.9571295 7.5906397e-22)
(66.182461 -8.0651052 -7.0097578e-22)
(67.208926 -8.1845603 0)
(68.359292 -8.3182603 -5.9923761e-22)
(69.658892 -8.4691263 1.1045936e-21)
(71.153022 -8.6428707 -1.04389e-18)
(73.014954 -8.859034 9.6158827e-19)
(74.623231 -9.0421097 -8.6425187e-22)
(74.952432 -9.0726158 0)
(74.998894 -9.0663161 0)
(75.031756 -9.0588057 0)
(75.068851 -9.0493313 -1.2353622e-21)
(75.109898 -9.0413341 2.2707889e-21)
(1.0733419 -0.1318855 2.7297776e-17)
(3.3342435 -0.40799784 -2.7846456e-17)
(5.8127887 -0.71139652 2.6204103e-17)
(8.5267533 -1.0434739 -1.0730772e-23)
(11.481666 -1.4049334 -2.30297e-17)
(14.652203 -1.7926971 0)
(17.946186 -2.1954651 1.9910465e-17)
(21.208741 -2.5943227 2.4054173e-23)
(24.291935 -2.9711942 -3.3937478e-17)
(27.118493 -3.3166201 1.5626392e-17)
(29.682884 -3.6299252 -1.4376037e-17)
(32.014887 -3.9147551 1.3231194e-17)
(34.151956 -4.1756942 -1.2191386e-17)
(36.129134 -4.4170109 2.2483286e-17)
(37.9761 -4.6423364 -1.0372802e-17)
(39.716557 -4.854572 9.5755592e-18)
(41.369197 -5.0559896 -8.8421774e-18)
(42.948502 -5.2483607 -1.2454362e-22)
(44.465243 -5.4330069 -7.5494065e-18)
(45.927839 -5.6109513 -2.0240204e-22)
(47.343136 -5.7830261 1.2899417e-17)
(48.715783 -5.9498034 -5.96203e-18)
(50.048585 -6.1116242 -5.5105218e-18)
(51.342974 -6.268661 5.0919664e-18)
(52.598629 -6.4208734 4.7046726e-18)
(53.813813 -6.5680459 -1.0550807e-23)
(54.985509 -6.709803 -8.0256542e-18)
(56.109707 -6.8456459 3.704649e-18)
(57.18218 -6.975042 3.4185649e-18)
(58.199325 -7.0975313 -3.1532402e-18)
(59.159313 -7.2128645 2.9095768e-18)
(60.06327 -7.3211501 -6.6559289e-22)
(60.916039 -7.4229445 -2.4771203e-18)
(61.726618 -7.5193106 -2.2875315e-18)
(62.508065 -7.6118026 5.2644802e-22)
(63.276922 -7.7023945 1.952268e-18)
(64.05274 -7.7934176 0)
(64.857473 -7.8874857 8.1526065e-22)
(65.714606 -7.9873841 0)
(66.648206 -8.095953 9.4049493e-25)
(67.682289 -8.2160083 6.4468492e-22)
(68.840383 -8.3502744 0)
(70.147348 -8.5016162 -1.1007049e-21)
(71.648302 -8.6757142 1.0387826e-18)
(73.517078 -8.8921283 -9.5593604e-19)
(75.110433 -9.0730436 0)
(75.428697 -9.1023708 0)
(75.473003 -9.0960938 0)
(75.504446 -9.088737 0)
(75.539975 -9.0793955 1.6476555e-24)
(1.0913129 -0.13352684 2.7157093e-17)
(3.3881821 -0.41299413 -3.3737673e-26)
(5.9041928 -0.71980164 -4.9731452e-23)
(8.6570769 -1.0553695 0)
(11.65192 -1.420334 8.741485e-23)
(14.861928 -1.8114378 0)
(18.19197 -2.2171178 -3.7759604e-23)
(21.484352 -2.6181401 3.4900847e-23)
(24.590742 -2.996441 -6.4351259e-23)
(27.435565 -3.3428279 -1.5543782e-17)
(30.015134 -3.6568476 2.8599879e-17)
(32.360327 -3.9422573 -1.3161014e-17)
(34.50901 -4.2036668 -9.2462461e-23)
(36.49635 -4.4453588 -8.5259523e-23)
(38.352038 -4.6709528 1.0317622e-17)
(40.099788 -4.8833262 -9.5243967e-18)
(41.758337 -5.0847668 0)
(43.342238 -5.2770419 2.4791669e-22)
(44.862353 -5.4614712 0)
(46.327194 -5.6390975 2.1182581e-22)
(47.743706 -5.8107632 -1.9563872e-22)
(49.116664 -5.9770492 -1.8084136e-22)
(50.449028 -6.1383191 0)
(51.742414 -6.2947651 -1.9710788e-25)
(52.99674 -6.4463761 -4.6789357e-18)
(54.210541 -6.5929728 8.6431481e-18)
(55.381092 -6.7342127 -3.9905222e-18)
(56.50467 -6.8696333 -2.2472049e-22)
(57.577291 -6.99873 0)
(58.595516 -7.1210633 3.1364574e-18)
(59.55758 -7.2363897 -5.787703e-18)
(60.464571 -7.3448088 2.6697575e-18)
(61.32122 -7.4468611 -2.4639496e-18)
(62.136387 -7.5435862 2.2760791e-18)
(62.923005 -7.636515 0)
(63.697537 -7.7276042 6.0372198e-25)
(64.479505 -7.8191735 1.7968556e-18)
(65.290866 -7.913826 -3.3249016e-18)
(66.155104 -8.0143386 1.5372963e-18)
(67.096208 -8.1235346 1.3891918e-21)
(68.137989 -8.2441981 -1.3154579e-18)
(69.303599 -8.3790083 9.9614084e-24)
(70.617376 -8.5307678 1.1039658e-21)
(72.124236 -8.7051174 2.0666537e-18)
(73.998394 -8.9216326 -1.906433e-18)
(75.577024 -9.1004515 9.3761333e-24)
(75.885165 -9.1287121 1.611594e-18)
(75.927426 -9.1224841 -7.4280078e-19)
(1.1081536 -0.1350071 -2.5753407e-23)
(3.4386618 -0.41748296 -2.6308994e-23)
(5.9896791 -0.72734175 -2.5944711e-17)
(8.7788872 -1.0660028 9.3288241e-24)
(11.81095 -1.4340628 2.2802455e-17)
(15.057685 -1.8281239 -2.1240002e-17)
(18.421234 -2.2362969 3.9420147e-17)
(21.741321 -2.6391594 -1.8216486e-17)
(24.869342 -3.0186577 6.4099981e-23)
(27.731377 -3.3658151 7.0742858e-26)
(30.325416 -3.6804044 1.4225849e-17)
(32.683243 -3.9662817 -9.328636e-24)
(34.843015 -4.2280708 -2.4127549e-17)
(36.839953 -4.4700396 9.4151299e-23)
(38.703715 -4.6957883 1.0263678e-17)
(40.458036 -4.9081921 -7.232933e-23)
(42.121725 -5.1095378 0)
(43.709426 -5.3016001 -1.2337446e-22)
(45.232101 -5.4857099 -1.1389632e-22)
(46.698383 -5.6629141 -6.9038272e-18)
(48.115346 -5.8340729 6.3802772e-18)
(49.487922 -5.9997839 -5.8971815e-18)
(50.819266 -6.1604313 5.4505658e-18)
(52.111235 -6.3162429 5.0361115e-18)
(53.364021 -6.4672369 -4.6532914e-18)
(54.576471 -6.6132684 -2.6217836e-22)
(55.746172 -6.7540365 3.9685672e-18)
(56.869686 -6.8891099 -3.663904e-18)
(57.943244 -7.0180118 0)
(58.963524 -7.1403129 -3.8064589e-22)
(59.92876 -7.2557681 2.8784933e-18)
(60.839933 -7.3644618 -5.3108027e-18)
(61.701603 -7.4669086 2.4514599e-18)
(62.52244 -7.5641191 -6.6136321e-25)
(63.315218 -7.6576001 0)
(64.0963 -7.7492877 9.4390673e-22)
(64.885164 -7.8414886 1.7884856e-18)
(65.703755 -7.9367958 -1.6552376e-18)
(66.575527 -8.0379728 7.4787943e-22)
(67.524355 -8.1478234 1.4150951e-18)
(68.573797 -8.269097 -1.3086682e-18)
(69.746587 -8.4044229 -1.2088213e-18)
(71.066535 -8.5565411 2.2315007e-18)
(72.578344 -8.7310509 -1.0280213e-18)
(74.456385 -8.947519 1.1041678e-24)
(76.020916 -9.1243722 8.5080125e-22)
(1.1232569 -0.13633041 5.3776725e-17)
(3.4840503 -0.4214885 -9.4890173e-24)
(6.0666963 -0.73402712 -5.1643314e-17)
(8.8888358 -1.0754369 2.4251344e-17)
(11.954781 -1.4462643 -4.3262278e-23)
(15.235061 -1.8429549 0)
(18.629253 -2.2533774 -1.9614679e-17)
(21.974747 -2.6578412 1.8126993e-17)
(25.122811 -3.0383874 0)
(28.001098 -3.3862675 -1.5386123e-17)
(30.609088 -3.7014245 6.2819362e-23)
(32.979231 -3.9877737 1.3027059e-17)
(35.149797 -4.2499409 0)
(37.156018 -4.4921858 0)
(39.027454 -4.7180772 1.0211715e-17)
(40.787846 -4.9304883 -9.4260158e-18)
(42.4561 -5.1317067 1.3272668e-22)
(44.046974 -5.3235151 -8.0384659e-18)
(45.571565 -5.5072557 1.4859119e-17)
(47.038648 -5.6839932 -1.3734609e-17)
(48.455469 -5.8546041 6.3463729e-18)
(49.827165 -6.0197137 -5.8656728e-18)
(51.157139 -6.1797313 1.0842628e-17)
(52.44754 -6.3349164 -5.0090094e-18)
(53.698887 -6.4853303 4.6286428e-18)
(54.910363 -6.6308667 -4.2746417e-18)
(56.079878 -6.7712604 2.4109387e-22)
(57.204259 -6.9061118 0)
(58.279907 -7.0349625 -3.3636638e-18)
(59.303548 -7.1573873 3.1040821e-18)
(60.273338 -7.2731301 3.4936331e-22)
(61.190072 -7.3822482 -3.2271149e-22)
(62.058073 -7.4852252 -2.4390496e-18)
(62.885773 -7.5830398 2.2520187e-18)
(63.685759 -7.6771685 -5.0769403e-22)
(64.474276 -7.7695284 1.9237402e-18)
(65.270751 -7.8624124 -1.7799915e-18)
(66.097107 -7.958406 1.6458676e-18)
(66.976749 -8.0602595 -1.5236374e-18)
(67.933403 -8.1707545 1.4093031e-18)
(68.990337 -8.2926062 -6.4458927e-22)
(70.169862 -8.4283983 -1.2021767e-18)
(71.495308 -8.5808192 -1.111782e-18)
(1.136837 -0.13754759 -2.6761309e-17)
(3.5250161 -0.42518979 0)
(6.1364277 -0.74029033 2.4526464e-23)
(8.9887641 -1.0843643 4.601991e-23)
(12.086038 -1.4579091 4.3112861e-23)
(15.397608 -1.8572358 0)
(18.820713 -2.269975 0)
(22.190543 -2.676238 -1.8041561e-17)
(25.358249 -3.0580812 1.663004e-17)
(28.25281 -3.4069555 -5.8381547e-23)
(30.874881 -3.7229306 -5.8418525e-26)
(33.257365 -4.009967 1.2964402e-17)
(35.438576 -4.2726877 -1.1944926e-17)
(37.453682 -4.5153358 0)
(39.332235 -4.74147 0)
(41.09804 -4.953958 0)
(42.770117 -5.1550963 -1.3220465e-22)
(44.36337 -5.3466882 0)
(45.889051 -5.5300894 0)
(47.356128 -5.7063818 1.0418683e-22)
(48.772075 -5.8764731 -3.8531299e-22)
(50.142298 -6.0410144 -1.7816528e-22)
(51.470516 -6.2004556 -5.3925247e-18)
(52.759229 -6.3550969 9.964842e-18)
(54.009323 -6.505038 -4.6040165e-18)
(55.220336 -6.650215 -4.2519466e-18)
(56.390486 -6.7903985 3.9269499e-18)
(57.516819 -6.9252108 -2.2116607e-22)
(58.595838 -7.0542036 2.0412925e-22)
(59.624233 -7.1769454 3.0877969e-18)
(60.599994 -7.2931559 -7.0359384e-22)
(61.523657 -7.4028626 -2.6289509e-18)
(62.399241 -7.5065065 -2.4267809e-18)
(63.234892 -7.6050291 2.2405908e-18)
(64.042978 -7.6998785 5.4854684e-25)
(64.839611 -7.7929508 -1.9156884e-18)
(65.644174 -7.8865299 4.4036187e-22)
(66.478578 -7.9831935 1.6400252e-18)
(67.366151 -8.0856806 0)
(1.1499706 -0.13871566 2.5416548e-23)
(3.5646763 -0.42872762 -2.7188184e-17)
(6.203985 -0.74625257 2.5587746e-17)
(9.0855939 -1.0928295 -4.7908002e-26)
(12.213175 -1.4689189 0)
(15.554904 -1.8707103 0)
(19.00577 -2.2855675 0)
(22.39902 -2.6934518 -1.7958373e-17)
(25.585872 -3.0764757 8.1041482e-24)
(28.496621 -3.4262694 3.0481771e-17)
(31.132837 -3.7430159 -1.1493214e-22)
(33.527627 -4.0306928 -1.2903335e-17)
(35.719183 -4.293892 0)
(37.742563 -4.5368248 0)
(39.627359 -4.7630567 1.0111956e-17)
(41.397474 -4.9754606 -9.3329264e-18)
(43.072117 -5.1763459 -1.3140332e-22)
(44.666414 -5.3675367 0)
(46.191859 -5.550418 0)
(47.657694 -5.7261062 -2.0740092e-22)
(49.071714 -5.8955376 1.9174315e-22)
(50.439677 -6.0594078 0)
(51.765689 -6.2182102 -5.3638045e-18)
(53.052645 -6.3722877 4.9559456e-18)
(54.301813 -6.5217844 0)
(55.513073 -6.6666728 -2.5829979e-22)
(56.684898 -6.8067498 3.9065963e-18)
(57.81447 -6.9416532 -7.2129998e-18)
(58.898292 -7.0709308 3.3291184e-18)
(59.932917 -7.1941343 0)
(60.916079 -7.3109512 6.9213862e-22)
(61.84798 -7.4213651 -2.6158111e-18)
(62.732286 -7.5257762 2.4151684e-18)
(63.576827 -7.6250838 0)
(64.393712 -7.7207015 2.0622082e-18)
(1.162753 -0.13979026 -2.5276221e-23)
(3.6032505 -0.43199829 -2.7068812e-17)
(6.269626 -0.75176689 2.5475915e-17)
(9.1795267 -1.1006566 -4.5661694e-23)
(12.336265 -1.4790673 0)
(15.7069 -1.8830621 3.9757473e-23)
(19.184359 -2.2998245 3.6885331e-23)
(22.600212 -2.7091663 1.7877989e-17)
(25.805781 -3.0932626 -3.2955936e-17)
(28.732415 -3.4438829 3.0343671e-17)
(31.382307 -3.761304 -2.7913274e-17)
(33.788584 -4.0494896 2.5688184e-17)
(35.989297 -4.3129971 -2.3665885e-17)
(38.019468 -4.5560302 2.1817938e-17)
(39.908843 -4.7821515 -1.0063178e-17)
(41.681544 -4.9942626 7.0890521e-23)
(43.357031 -5.1946941 1.3087882e-22)
(44.950743 -5.3853039 -7.9164416e-18)
(46.474509 -5.5675139 1.4630193e-17)
(47.937943 -5.7424779 -6.7601613e-18)
(49.349235 -5.9111798 1.9052877e-22)
(50.714563 -6.0743594 -5.7728565e-18)
(52.038451 -6.232555 5.3350092e-18)
(53.32419 -6.386154 0)
(54.573401 -6.5353389 0)
(55.786251 -6.6801123 0)
(2.152032 0.16145698 2.6669983e-17)
(6.6319074 0.49776186 -1.3640895e-17)
(11.484213 0.86190773 0)
(16.712752 1.2543005 2.2984525e-23)
(22.221325 1.6676986 2.1429434e-23)
(27.729853 2.0810797 -6.455009e-27)
(32.854559 2.4656432 9.5658589e-18)
(37.36637 2.8042008 -8.7666688e-18)
(41.258679 3.0962574 0)
(44.628109 3.3490645 0)
(47.585406 3.5709328 6.7508954e-18)
(50.222783 3.7687827 -6.2045466e-18)
(52.609708 3.947827 0)
(54.798785 4.1120126 -4.021214e-23)
(56.830217 4.2643559 -3.7143251e-23)
(58.734759 4.4071643 0)
(60.536265 4.5422268 -4.1657401e-18)
(62.253208 4.6709288 3.8570799e-18)
(63.899573 4.7943188 -3.5743743e-18)
(65.486556 4.9132357 3.3134711e-18)
(67.023533 5.028382 3.0713997e-18)
(68.517514 5.1402823 -5.6952062e-18)
(69.973576 5.2493163 -1.4682634e-24)
(71.395393 5.355758 7.3151216e-23)
(72.784789 5.459743 2.2679391e-18)
(74.141982 5.561286 2.1009008e-18)
(75.465497 5.6602744 -1.1713283e-22)
(76.752109 5.7564648 1.7011401e-24)
(77.997216 5.84951 -1.6665988e-18)
(79.19525 5.93899 0)
(80.340596 6.0244815 0)
(81.428941 6.1056583 0)
(82.458662 6.182396 -9.6840832e-26)
(83.432223 6.254876 2.7486214e-22)
(84.356949 6.3236442 -1.0410325e-18)
(85.244901 6.3896015 9.6258327e-19)
(86.112456 6.453972 -1.4179875e-25)
(86.979513 6.5182437 -8.2514102e-19)
(87.868422 6.5840882 7.6343144e-19)
(88.802686 6.6532636 -3.4548302e-22)
(89.80568 6.7275198 3.1979652e-22)
(90.899953 6.8085446 -5.9175305e-22)
(92.10715 6.8979582 -5.4718532e-22)
(93.451966 6.9976188 -5.1744734e-19)
(94.991531 7.1119181 9.5724365e-19)
(96.932796 7.2562171 -4.4212604e-19)
(98.251901 7.3538364 0)
(98.409714 7.3636999 -3.7659868e-19)
(98.420859 7.3621354 3.4749917e-19)
(2.149224 0.16259789 -1.2707791e-23)
(6.6233057 0.50127974 1.3628803e-17)
(11.469401 0.86800651 -1.2829049e-17)
(16.691409 1.2631923 0)
(22.193626 1.6795733 1.1227358e-17)
(27.696965 2.0960255 -1.0389528e-17)
(32.818263 2.4835548 -1.8227691e-23)
(37.328059 2.8247982 0)
(41.219101 3.1192079 0)
(44.587614 3.3740665 0)
(47.544165 3.5977409 8.2810804e-27)
(50.180893 3.7972033 0)
(52.567232 3.9777075 -4.3558368e-23)
(54.755771 4.1432327 4.0194148e-23)
(56.786707 4.2968201 3.7126521e-23)
(58.690791 4.440796 -6.8633229e-23)
(60.491873 4.5769643 0)
(62.208426 4.7067217 0)
(63.854435 4.8311256 -5.4489738e-23)
(65.441093 4.9510217 1.010554e-22)
(66.97778 5.0671186 -1.8730859e-22)
(68.471505 5.1799453 0)
(69.927347 5.2898845 0)
(71.348982 5.3972131 -2.4018367e-26)
(72.738237 5.5020675 0)
(74.095332 5.6044628 0)
(75.418792 5.7042858 0)
(76.705394 5.8012909 1.7999031e-18)
(77.950534 5.8951276 -1.6656452e-18)
(79.148637 5.9853725 0)
(80.294077 6.071598 0)
(81.382525 6.1534743 -1.6065762e-22)
(82.412345 6.2308751 1.2164166e-18)
(83.385979 6.3039823 -1.1247198e-18)
(84.310741 6.3733459 2.5392612e-22)
(85.198683 6.4398739 2.3490486e-22)
(86.066178 6.5048005 -8.6950918e-22)
(86.933128 6.5696266 0)
(87.82189 6.636038 7.4563226e-22)
(88.755974 6.7058083 3.4529839e-22)
(89.758767 6.7807025 -3.1962429e-22)
(90.852827 6.8624236 5.9143226e-22)
(92.059801 6.9526062 1.7636374e-25)
(93.404396 7.0531253 5.1800661e-19)
(94.943841 7.1684137 -4.7820126e-19)
(96.884908 7.3139564 0)
(98.201265 7.4122368 -4.0780966e-19)
(98.35847 7.4221925 3.7626014e-19)
(98.369556 7.420676 0)
(98.376881 7.4187068 0)
(98.385677 7.4165701 2.9588718e-19)
(98.395032 7.4143342 -2.7428339e-19)
(98.402725 7.4115659 0)
(98.406119 7.4083434 0)
(98.404142 7.4039475 1.6765219e-21)
(98.397012 7.3991225 0)
(98.384571 7.3930611 1.4212936e-21)
(98.366999 7.3868206 -1.3077981e-21)
(98.345595 7.3789079 2.4046377e-21)
(98.318166 7.37105 -7.1694604e-25)
(98.29442 7.3614731 -2.0299042e-21)
(98.287535 7.3549362 1.8709551e-21)
(98.283951 7.3448887 0)
(98.27116 7.3351484 -3.1773256e-21)
(98.271365 7.3256086 -9.6758103e-20)
(98.288761 7.3156726 -2.719213e-21)
(98.288291 7.3028165 8.5182595e-20)
(98.262399 7.2848281 -8.2927409e-20)
(98.217165 7.2695543 6.757763e-20)
(98.169271 7.2458469 0)
(98.145923 7.2358076 6.4127018e-20)
(98.13682 7.2092304 -9.8634333e-20)
(98.110518 7.1967048 5.4446976e-20)
(98.070931 7.161962 -5.5548426e-21)
(98.040957 7.1563299 3.5780704e-20)
(98.023012 7.1196693 -1.8859247e-20)
(98.010681 7.1103511 2.6120555e-20)
(97.991456 7.0811423 -4.0175187e-20)
(97.956982 7.0666092 1.4791696e-20)
(97.905897 7.0246105 -1.3589015e-20)
(97.875884 7.0236329 -4.1258596e-24)
(97.864622 6.9563719 2.3202516e-20)
(97.836755 6.8999258 2.7043996e-24)
(97.778601 6.8398306 -1.9685307e-20)
(97.740672 6.6720059 0)
(97.689953 6.756897 -3.3528387e-20)
(97.635584 6.5692668 1.5448186e-20)
(97.535201 6.7820257 -1.418165e-20)
(97.441027 6.5960984 3.9011491e-20)
(97.352687 6.4685787 3.5859813e-20)
(2.1465081 0.16370361 -1.2692669e-23)
(6.6149818 0.50468814 -1.2988384e-23)
(11.45506 0.87391533 1.2818125e-17)
(16.670734 1.2718071 -1.2027826e-17)
(22.166782 1.6910782 -2.1400214e-23)
(27.66508 2.1105082 1.9803615e-23)
(32.783071 2.5009142 3.6432816e-23)
(37.290923 2.8447653 0)
(41.180754 3.1414618 -3.0572311e-23)
(44.548401 3.3983143 0)
(47.504249 3.6237441 -6.740793e-18)
(50.140364 3.8247738 6.1952328e-18)
(52.526144 4.0066969 1.3871381e-26)
(54.714167 4.1735243 5.2636043e-18)
(56.74462 4.3283207 -4.8618734e-18)
(58.648249 4.4734307 6.8604416e-23)
(60.448902 4.6106726 -6.3457251e-23)
(62.165051 4.7414546 0)
(63.810679 4.8668424 5.4466253e-23)
(65.39698 4.9876886 0)
(66.933334 5.1047076 9.3598093e-23)
(68.426753 5.2184327 0)
(69.882319 5.3292501 0)
(71.30371 5.4374391 -2.4432969e-18)
(72.69276 5.5431377 2.2643541e-18)
(74.049692 5.6463614 -2.097698e-18)
(75.373038 5.7469964 1.9426576e-18)
(76.659579 5.8447957 -1.7985019e-18)
(77.904709 5.939406 1.6643463e-18)
(79.102853 6.0304004 0)
(80.248373 6.1173471 1.7368084e-22)
(81.336925 6.1999126 1.6058301e-22)
(82.366851 6.2779682 -1.2157558e-18)
(83.340574 6.3516961 1.1238301e-18)
(84.265389 6.4216494 1.0388325e-18)
(85.153336 6.4887428 -9.6124243e-19)
(86.020784 6.5542203 2.1730569e-22)
(86.887635 6.6195951 -4.0216758e-22)
(87.776254 6.6865676 -1.1887276e-25)
(88.710162 6.7569267 0)
(89.712758 6.832453 6.5362528e-19)
(90.806609 6.9148641 -6.0502454e-19)
(92.013371 7.0058089 1.0926858e-21)
(93.357757 7.1071781 5.1656343e-19)
(94.897081 7.2234434 4.69165e-22)
(96.837947 7.3702145 -4.4136409e-19)
(98.15158 7.4691513 0)
(98.30809 7.4792059 0)
(98.319105 7.477757 0)
(98.326368 7.4758559 0)
(98.335083 7.4737959 0)
(98.344353 7.4716376 0)
(98.351985 7.4689626 2.5201782e-19)
(98.355376 7.4658347 -2.3251833e-19)
(98.35347 7.4615582 0)
(98.346483 7.4568463 0)
(98.334255 7.4509327 -2.8405482e-21)
(98.316961 7.4448155 0)
(98.29588 7.4370829 0)
(98.268837 7.4293568 -1.4341859e-19)
(98.245416 7.4199883 -2.031788e-21)
(98.238665 7.4135591 1.8643905e-21)
(98.235185 7.4037659 1.1030484e-19)
(98.22259 7.3941491 3.1736104e-21)
(98.222812 7.3848634 9.3745687e-20)
(98.24003 7.375048 -1.7355399e-19)
(98.239618 7.3624846 -1.001776e-20)
(98.21409 7.3446425 7.8249675e-20)
(98.169441 7.3296687 6.7525117e-20)
(98.122145 7.3059846 -5.801029e-20)
(98.099122 7.2962493 4.9836045e-20)
(98.090135 7.2696025 -6.5700017e-20)
(98.064117 7.257382 3.6270925e-20)
(98.025002 7.2225579 5.5541066e-21)
(97.995377 7.2170179 -3.5749021e-20)
(97.977659 7.1803836 -9.4237632e-21)
(97.965399 7.1710352 4.3498176e-20)
(97.946408 7.1417693 -2.4085069e-20)
(97.912275 7.1276252 -2.2168607e-20)
(97.861772 7.085455 1.3573668e-20)
(97.832033 7.0852531 -1.2520689e-20)
(97.820802 7.0182239 2.3183207e-20)
(97.793354 6.962375 2.6239442e-24)
(97.735697 6.9042326 -2.2687585e-24)
(97.698334 6.735096 -1.8131997e-20)
(97.648046 6.8224663 3.3510666e-20)
(97.593939 6.6344545 -3.0859664e-20)
(97.494692 6.8487118 1.416771e-20)
(97.400872 6.6646622 -6.4974934e-20)
(97.313897 6.5358139 -4.7757498e-20)
(97.189471 6.8200789 3.1281498e-23)
(97.136344 6.0561592 -1.0091497e-20)
(96.980031 6.658413 -4.646945e-20)
(96.887269 6.1308535 -1.4987842e-23)
(96.772027 5.8077886 3.9368883e-20)
(96.544184 6.8039934 -7.2578827e-21)
(96.485691 5.298316 1.1332851e-19)
(96.228982 6.0614902 0)
(96.016833 6.5057273 0)
(2.1439169 0.16477782 -1.3300296e-17)
(6.6070378 0.5080006 1.3606015e-17)
(11.441366 0.87965729 -1.2807722e-17)
(16.650973 1.2801761 -1.2018165e-17)
(22.141103 1.7022531 2.2418448e-17)
(27.634568 2.1245745 -2.0746358e-17)
(32.749394 2.5177747 9.5435149e-18)
(37.255394 2.8641598 3.3360906e-23)
(41.144077 3.163078 9.6529164e-27)
(44.510904 3.4218686 0)
(47.466089 3.6490046 8.11789e-27)
(50.101622 3.8515577 0)
(52.486871 4.0348606 8.7006267e-23)
(54.674401 4.2029536 0)
(56.70439 4.3589251 0)
(58.607579 4.5051376 0)
(60.407812 4.6434233 6.343256e-23)
(62.123558 4.775201 3.8483825e-18)
(63.768802 4.901545 -3.5663235e-18)
(65.354735 5.0233144 0)
(66.89074 5.1412292 0)
(68.383828 5.2558271 -8.6690805e-23)
(69.839085 5.3674978 -8.0371014e-23)
(71.260195 5.4765227 1.4900842e-22)
(72.648995 5.5830417 0)
(74.005716 5.6870707 0)
(75.328896 5.7884958 3.7446983e-26)
(76.615321 5.8870682 -1.7971625e-18)
(77.860389 5.9824325 1.662698e-18)
(79.058522 6.074158 0)
(80.204077 6.1618092 -1.4221275e-18)
(81.292693 6.245049 -1.7865009e-24)
(82.322693 6.3237462 1.2148374e-18)
(83.296478 6.398083 0)
(84.221326 6.4686156 5.0697946e-22)
(85.109264 6.5362651 0)
(85.976655 6.6022852 2.170682e-22)
(86.843404 6.6682013 -8.2232621e-19)
(87.731881 6.7357279 -3.7440583e-22)
(88.665617 6.806669 7.0557295e-19)
(89.668021 6.8828203 -6.5342722e-19)
(90.76167 6.9659138 6.0454408e-19)
(91.968226 7.0576122 -5.4599368e-22)
(93.312408 7.1598213 -5.0446485e-22)
(94.85162 7.2770506 -4.6630193e-22)
(96.79234 7.4250379 -8.612099e-22)
(98.103167 7.524618 -4.0713162e-19)
(98.258865 7.5347713 -2.9015538e-24)
(98.269796 7.5334048 3.4660448e-19)
(98.276992 7.5315897 0)
(98.285625 7.5296268 1.1536514e-21)
(98.294807 7.5275681 0)
(98.302374 7.5250105 9.8344936e-22)
(98.305757 7.5220036 -2.3141675e-19)
(98.303913 7.5178756 4.2837433e-19)
(98.29706 7.5133079 -1.9732122e-19)
(98.285032 7.5075754 1.8164407e-19)
(98.268001 7.5016158 -3.3417045e-19)
(98.247227 7.4941018 3.0722346e-19)
(98.220551 7.4865457 2.2083717e-21)
(98.197439 7.4774282 -2.5732745e-19)
(98.19081 7.4711394 2.3717761e-19)
(98.187418 7.4616535 -1.1021528e-19)
(98.174998 7.4522013 -6.3431017e-21)
(98.175225 7.4432102 9.0742576e-20)
(98.192251 7.4335565 -1.7611911e-19)
(98.19188 7.4213333 8.5039638e-20)
(98.166684 7.4036774 4.5985056e-21)
(98.122593 7.3890368 4.2161191e-21)
(98.075861 7.3654025 -3.8650213e-21)
(98.053147 7.3559809 0)
(98.04426 7.3292948 6.566073e-21)
(98.018518 7.3173891 -4.2281675e-20)
(97.979858 7.2825297 3.8828109e-20)
(97.950572 7.2770527 0)
(97.933083 7.2404963 -9.4134855e-21)
(97.920879 7.2311084 8.6912883e-21)
(97.902146 7.2017496 3.2088926e-20)
(97.868347 7.1880263 -2.2155013e-20)
(97.818444 7.1456147 0)
(97.788982 7.1462342 -3.7525043e-20)
(97.77778 7.079415 3.4742482e-20)
(97.750748 7.0241245 -2.1375074e-20)
(97.693583 6.9680857 -1.9663954e-20)
(97.656703 6.7974701 3.6231588e-20)
(97.606906 6.8874882 1.1088786e-24)
(97.553005 6.6990506 0)
(97.454839 6.9148164 1.4154371e-20)
(97.361385 6.7327869 1.2987673e-20)
(97.275673 6.6023 2.3865555e-20)
(97.152084 6.8893322 4.3866103e-20)
(97.09996 6.1241631 -1.0085434e-20)
(96.945057 6.7271203 8.3596799e-20)
(96.853239 6.2016265 0)
(96.739484 5.8786976 -3.1488123e-20)
(96.51234 6.875826 0)
(96.455794 5.3741918 -1.1325507e-19)
(96.201181 6.1337583 -3.6722517e-20)
(95.990455 6.5789645 -5.6327907e-21)
(95.904604 4.4584563 5.1618658e-21)
(95.512628 6.3322995 -4.7758579e-21)
(95.250122 6.8068555 -1.3968278e-19)
(95.242474 2.7202608 -6.0451206e-20)
(94.718008 4.3805944 -3.7079157e-21)
(2.1414672 0.16582256 0)
(6.5995208 0.51122062 0)
(11.428399 0.88523801 1.2797775e-17)
(16.632246 1.2883099 -1.2008973e-17)
(22.116754 1.7131124 6.702211e-27)
(27.60563 2.138242 -1.036557e-17)
(32.717452 2.5341564 9.5368094e-18)
(37.221715 2.8830036 8.7406756e-18)
(41.109332 3.1840814 -8.0044796e-18)
(44.475406 3.4447564 0)
(47.429983 3.6735514 8.0561999e-27)
(50.064985 3.8775861 -6.1867673e-18)
(52.449751 4.0622312 5.6982158e-18)
(54.636828 4.2315558 4.0097203e-23)
(56.666388 4.3886708 0)
(58.569169 4.5359562 3.424437e-23)
(60.36901 4.6752579 6.3370007e-23)
(62.084378 4.8080052 3.8457257e-18)
(63.729255 4.9352801 -3.564063e-18)
(65.314834 5.0579484 -3.3037093e-18)
(66.850495 5.1767356 3.0622981e-18)
(68.343253 5.2921835 1.732888e-22)
(69.798194 5.4046849 2.5205946e-26)
(71.219005 5.5145238 -7.4463638e-23)
(72.607529 5.6218415 -2.2610893e-18)
(73.964001 5.7266545 4.1893183e-18)
(75.286967 5.8288486 -1.9397158e-18)
(76.573219 5.9281736 1.7959902e-18)
(77.818158 6.0242717 -1.6617117e-18)
(79.016208 6.1167092 1.537078e-18)
(80.16172 6.2050467 -1.4207568e-18)
(81.250324 6.288944 1.3131908e-18)
(82.280326 6.3682677 -1.213811e-18)
(83.254113 6.4432002 0)
(84.178946 6.514301 -2.5334451e-22)
(85.06684 6.5824974 -9.5980173e-19)
(85.934153 6.6490526 1.7766271e-18)
(86.80079 6.715504 -8.0120355e-22)
(87.689124 6.7835796 -7.6136192e-19)
(88.622694 6.8550982 7.0573382e-19)
(89.624915 6.9318699 -1.3052282e-18)
(90.718373 7.0156409 6.0349597e-19)
(91.924732 7.1080869 -5.4540596e-22)
(93.268722 7.2111289 5.042385e-22)
(94.807843 7.329313 -4.6579719e-22)
(96.748506 7.4785106 2.7071931e-25)
(98.056349 7.5787154 0)
(98.211081 7.5889661 0)
(98.22191 7.5876985 6.7632657e-22)
(98.229037 7.5859886 0)
(98.237582 7.5841435 -1.1530959e-21)
(98.246671 7.5822072 0)
(98.254165 7.5797914 -2.5160095e-19)
(98.257529 7.5769326 4.6426658e-19)
(98.255735 7.5729829 -4.2802555e-19)
(98.248999 7.5685911 1.9716105e-19)
(98.237153 7.563074 1.4181559e-21)
(98.220365 7.5573054 1.6695355e-19)
(98.199874 7.5500507 -1.534882e-19)
(98.173539 7.5427001 -2.2032218e-21)
(98.15071 7.5338799 1.2957837e-19)
(98.144183 7.5277611 -1.2129355e-19)
(98.140859 7.5186363 1.1013421e-19)
(98.128585 7.50939 -9.8239182e-20)
(98.128799 7.5007331 2.9252746e-21)
(98.145613 7.4912826 -8.3930736e-20)
(98.145259 7.4794462 7.9972825e-20)
(98.120355 7.4620146 -1.4593103e-24)
(98.076785 7.4477355 -8.4270953e-21)
(98.030575 7.4241696 6.1785727e-20)
(98.008147 7.4150582 -5.6866149e-20)
(97.999332 7.3883481 -5.2482255e-20)
(97.973843 7.3767499 5.4318721e-20)
(97.935613 7.3419032 5.5436787e-21)
(97.906644 7.3364512 5.0987631e-21)
(97.889371 7.3000326 9.4095575e-21)
(97.877198 7.2905879 -1.7372454e-20)
(97.858724 7.2610811 3.2065001e-20)
(97.82524 7.2478104 -6.6411493e-20)
(97.775943 7.2050806 1.1411612e-24)
(97.746743 7.2065848 3.7501322e-20)
(97.73557 7.1399594 -3.7456203e-24)
(97.708928 7.0851704 0)
(97.652255 7.0314268 -9.8266778e-21)
(97.615788 6.8591598 3.6202803e-20)
(97.566453 6.9519531 -6.047493e-24)
(97.512799 6.7631077 3.0810995e-20)
(97.415542 6.980351 0)
(97.3226 6.8004837 1.2982431e-20)
(97.237994 6.6680253 -1.1913254e-20)
(97.115405 6.9580028 -2.1920704e-20)
(97.064211 6.1914921 0)
(96.910663 6.7950592 -3.712686e-20)
(96.819897 6.2718542 2.5613399e-20)
(96.707341 5.9489957 1.5703017e-20)
(96.481041 6.947041 -7.2434607e-21)
(96.426391 5.4493524 6.6662234e-21)
(96.173758 6.2052884 -6.1112082e-21)
(95.964483 6.6514933 -5.6460582e-21)
(95.8816 4.5386844 5.1558311e-21)
(95.491248 6.4043914 0)
(95.230399 6.8791673 1.3518701e-19)
(95.227907 2.8101034 6.8437609e-20)
(94.705946 4.4607288 0)
(94.068651 9.6096613 3.3802788e-21)
(93.933472 7.6647754 -1.0533756e-19)
(93.932422 1.5282618 2.8249e-21)
(2.1392103 0.16684171 0)
(6.592583 0.51436249 -1.3585308e-17)
(11.416415 0.89068214 2.5576651e-17)
(16.614917 1.2962424 -1.2000146e-17)
(22.094197 1.7237001 2.1351811e-23)
(27.578802 2.1515628 -6.1703797e-27)
(32.687842 2.5501168 0)
(37.190512 2.9013584 8.7349969e-18)
(41.077169 3.2045365 3.1354729e-23)
(44.442569 3.4670433 -7.3326874e-18)
(47.396604 3.6974519 8.0150243e-27)
(50.031131 3.9029282 -6.1829603e-18)
(52.415465 4.0888791 5.6946238e-18)
(54.602137 4.2594023 -1.2517551e-26)
(56.631311 4.4176305 0)
(58.533721 4.5659608 4.4862959e-18)
(60.333205 4.706252 -4.1510173e-18)
(62.048226 4.8399438 -3.8432574e-18)
(63.692765 4.9681258 7.1234199e-18)
(65.278012 5.0916702 -3.3015102e-18)
(66.813348 5.2113077 -3.0602946e-18)
(68.305785 5.3275841 -1.315753e-24)
(69.760412 5.4408952 2.6305088e-18)
(71.180918 5.5515275 -2.4379365e-18)
(72.569148 5.6596233 -1.4116388e-24)
(73.925342 5.7652 -1.2919588e-22)
(75.248047 5.8681426 3.8772709e-18)
(76.534063 5.9681997 -1.794872e-18)
(77.778795 6.0650111 -2.0267522e-22)
(78.976668 6.1581402 -1.8750898e-22)
(80.122033 6.2471444 -3.4666793e-22)
(81.210515 6.3316805 1.602353e-22)
(82.240415 6.4116136 -1.4810891e-22)
(83.214108 6.4871269 -2.7373258e-22)
(84.138844 6.5587833 -1.0370649e-18)
(85.026635 6.6275166 1.9182544e-18)
(85.893829 6.6945992 -8.8768612e-19)
(86.760332 6.76158 8.0267041e-22)
(87.648515 6.8302004 -3.7173408e-22)
(88.58192 6.902293 0)
(89.583967 6.9796822 -6.3717145e-22)
(90.677243 7.0641277 1.1790055e-21)
(91.883416 7.1573184 5.5817954e-19)
(93.227224 7.26119 -5.1588186e-19)
(94.766288 7.3803255 4.6560274e-22)
(96.707005 7.5307378 1.7200988e-21)
(98.011571 7.6315497 7.9384583e-22)
(98.165139 7.641899 0)
(98.175836 7.6407532 -6.7603167e-22)
(98.182879 7.6391732 -3.188069e-19)
(98.191324 7.6374726 2.9491992e-19)
(98.200305 7.6356868 -1.0635845e-21)
(98.207709 7.6334427 -9.8220317e-22)
(98.211032 7.6307637 -2.3286099e-19)
(98.209262 7.6270265 2.1217417e-19)
(98.202616 7.6228461 1.9855064e-19)
(98.19092 7.6175818 -1.8135352e-19)
(98.174339 7.6120395 1.6682605e-19)
(98.154094 7.6050855 -1.5337225e-19)
(98.128059 7.5979752 0)
(98.105476 7.5894958 -2.0228121e-21)
(98.099019 7.5835725 1.2120865e-19)
(98.095724 7.5748592 -3.4341282e-21)
(98.083558 7.5658523 -2.0267244e-19)
(98.083727 7.557563 9.3522092e-20)
(98.100302 7.5483499 0)
(98.099927 7.5369441 0)
(98.075266 7.5197706 -1.4489033e-24)
(98.032169 7.5058782 8.4209052e-21)
(97.986428 7.4823931 -5.7883234e-20)
(97.964252 7.4735797 5.682586e-20)
(97.95547 7.4468498 0)
(97.930199 7.4355302 -1.2062738e-20)
(97.892356 7.4007376 0)
(97.863674 7.3952645 -1.6044135e-24)
(97.846588 7.3590445 0)
(97.834415 7.3495196 1.7360193e-20)
(97.816186 7.3197852 0)
(97.782994 7.3069902 -2.9494193e-20)
(97.734296 7.2638655 1.3548183e-20)
(97.705321 7.26632 -1.2488784e-20)
(97.694189 7.1998861 -1.1566274e-20)
(97.667879 7.1455273 -1.0669438e-20)
(97.611702 7.094281 9.8163994e-21)
(97.575617 6.9202434 -5.4271921e-20)
(97.5266 7.015852 -1.6714154e-20)
(97.473354 6.8266704 -4.9906929e-24)