/*--------------------------------*- C++ -*----------------------------------*\
| =========                 |                                                 |
| \\      /  F ield         | OpenFOAM: The Open Source CFD Toolbox           |
|  \\    /   O peration     | Version:  2506                                  |
|   \\  /    A nd           | Website:  www.openfoam.com                      |
|    \\/     M anipulation  |                                                 |
\*---------------------------------------------------------------------------*/
FoamFile
{
    version     2.0;
    format      ascii;
    arch        "LSB;label=32;scalar=64";
    class       volScalarField;
    location    "0.018";
    object      Ma;
}
// * * * * * * * * * * * * * * * * * * * * * * * * * * * * * * * * * * * * * //

dimensions      [0 0 0 0 0 0 0];

internalField   nonuniform List<scalar> 
192657
(
0.29962445
0.29938151
0.30021209
0.29945169
0.30019887
0.29972849
0.29993686
0.29978063
0.29980966
0.30003742
0.30088155
0.3028273
0.30598267
0.30908866
0.30979763
0.30617612
0.30071645
0.30079945
0.30488459
0.30712582
0.30614247
0.3077241
0.31008906
0.31048175
0.31203545
0.31373798
0.31493531
0.31661037
0.31833544
0.32010281
0.32204889
0.32406908
0.32623
0.32850851
0.33088663
0.33335081
0.33590218
0.33855568
0.34128493
0.3441883
0.34717148
0.35032723
0.35359947
0.35718771
0.36071908
0.36444631
0.36842047
0.37240289
0.37675985
0.38112215
0.3854978
0.39014035
0.39475456
0.39967422
0.40450471
0.40949101
0.41438488
0.41939051
0.42433391
0.4292117
0.43409941
0.43876969
0.44342475
0.44786611
0.45219216
0.45634674
0.46027557
0.46408802
0.4676406
0.47105115
0.4742627
0.47723626
0.48007419
0.48268743
0.48512736
0.48746768
0.48958918
0.49149189
0.49337163
0.4951919
0.49670673
0.49802244
0.49948276
0.50098641
0.50216052
0.50306182
0.50403705
0.50510528
0.50602135
0.50678623
0.50761812
0.50853365
0.50937282
0.5100771
0.51073155
0.51142806
0.51213647
0.51274229
0.51328835
0.51386306
0.51446364
0.5150271
0.51555143
0.51602173
0.51382352
0.50268428
0.48936986
0.47838087
0.46853437
0.45938997
0.4507557
0.44254724
0.43471338
0.42722199
0.42004717
0.4131619
0.40653979
0.40015672
0.3939859
0.38799801
0.38216642
0.37646941
0.37088523
0.36539109
0.3599632
0.35457587
0.3492022
0.34381392
0.33837985
0.33286729
0.32723974
0.32145571
0.31546994
0.30923024
0.302672
0.29571528
0.28825704
0.28014109
0.27111577
0.26079891
0.24869969
0.23408248
0.21587931
0.19268671
0.16330726
0.12834697
0.09083717
0.053633418
0.0178145
0.29962207
0.29938284
0.30021304
0.29945165
0.30019672
0.29972736
0.29993677
0.29977963
0.29980767
0.30002971
0.30086452
0.3027962
0.30594628
0.30907208
0.30982604
0.30626156
0.3007626
0.30077536
0.30483681
0.3071287
0.30615376
0.30770289
0.31007411
0.31048171
0.31201808
0.31372044
0.31491797
0.316586
0.31830671
0.32006991
0.32201232
0.32402808
0.32617914
0.3284431
0.33080838
0.33327076
0.33583422
0.33849301
0.34120074
0.34408937
0.34706209
0.35021101
0.3534705
0.35704082
0.36055894
0.36426464
0.36822732
0.37220974
0.37655803
0.38089523
0.3852657
0.38990778
0.39452069
0.39944398
0.40427799
0.40927098
0.41417673
0.41920161
0.42416171
0.42906436
0.43398137
0.43868875
0.44338197
0.44786393
0.45222799
0.45641562
0.46038315
0.46423524
0.46782508
0.47127033
0.47452324
0.47753579
0.48041821
0.48306863
0.48554261
0.48791588
0.49005998
0.49199013
0.49391008
0.49575651
0.49727702
0.49859894
0.5000816
0.50159949
0.50278086
0.50370494
0.50470248
0.50577577
0.50668063
0.50744606
0.5082905
0.50915148
0.50982865
0.51037874
0.5109975
0.51169546
0.51231995
0.51282471
0.51327803
0.51375804
0.51424824
0.51470554
0.51510713
0.51497456
0.51142178
0.49910858
0.48593367
0.47483419
0.46465977
0.45506747
0.44593401
0.43717636
0.42875675
0.4206483
0.41283044
0.40528621
0.39799976
0.39095415
0.38413016
0.37750177
0.37104344
0.36473964
0.35856839
0.35250501
0.34652305
0.3405938
0.33468669
0.32876905
0.32280444
0.31675322
0.31056931
0.3041984
0.29757919
0.29063855
0.28328402
0.27539953
0.26683877
0.25741316
0.24687596
0.23489787
0.22102649
0.20464607
0.18494233
0.16101527
0.13255085
0.1011199
0.069737825
0.04029123
0.013080353
0.29962029
0.29938536
0.30021239
0.29945495
0.30019427
0.29972653
0.29993712
0.29977942
0.29980622
0.30002321
0.30085007
0.30276965
0.30591549
0.30905871
0.30985029
0.30633675
0.30079995
0.30075459
0.3047927
0.30712988
0.30616652
0.30768409
0.31005898
0.31048178
0.31200213
0.3137034
0.31490034
0.31656188
0.31827826
0.32003798
0.32197753
0.32399034
0.32613664
0.32839805
0.33076052
0.33321105
0.33575342
0.33839288
0.34110936
0.34399731
0.34695071
0.35008784
0.35333945
0.35690581
0.36043
0.36411896
0.36807611
0.37205309
0.37640013
0.38072083
0.38508657
0.38973349
0.39434534
0.39926904
0.40410467
0.40910913
0.41402172
0.41905515
0.42402968
0.42895219
0.43388877
0.43861774
0.44333538
0.44784897
0.45225005
0.45647912
0.46048468
0.46437327
0.46800217
0.47149073
0.47478066
0.47783385
0.48074908
0.4834346
0.48594235
0.48834714
0.49052627
0.49247993
0.49440866
0.49627167
0.4978194
0.49916055
0.50063931
0.50215016
0.50332084
0.50421762
0.50518189
0.50622218
0.50709687
0.50782044
0.50861142
0.50946836
0.51022199
0.51081407
0.5113388
0.51189475
0.51243986
0.51286477
0.51321682
0.51358185
0.51395109
0.51426773
0.51452032
0.51475021
0.51171687
0.49906642
0.4857468
0.47449681
0.46414919
0.45439351
0.44511032
0.43623374
0.42771878
0.41953175
0.41164618
0.40403822
0.39668682
0.38957343
0.38268436
0.37601138
0.36953751
0.36322854
0.35705509
0.35098987
0.34500555
0.33907325
0.3331626
0.32724137
0.32127384
0.31522202
0.30904298
0.30268645
0.29609625
0.28920588
0.28193102
0.27416488
0.26577014
0.25656583
0.24631092
0.23467511
0.2211867
0.20517904
0.18581474
0.16218998
0.13400494
0.10276734
0.071289903
0.041401163
0.013512079
0.29961973
0.29938688
0.30021187
0.29946047
0.30019331
0.29972593
0.29993733
0.29977912
0.29980448
0.30001603
0.30083419
0.30274055
0.30588147
0.30904434
0.30988015
0.30642105
0.30084425
0.3007284
0.30474421
0.30713106
0.30617934
0.30766257
0.31004271
0.31048219
0.31198486
0.3136857
0.31488287
0.31653749
0.31825023
0.32000552
0.32194205
0.3239505
0.32608662
0.3283336
0.33068182
0.33312972
0.33568275
0.33833008
0.34102685
0.34389773
0.34683907
0.34997025
0.353209
0.35675606
0.36026658
0.36393391
0.36788034
0.37185561
0.37619114
0.3804858
0.38484803
0.38949405
0.39410172
0.39902865
0.40386648
0.40887636
0.41379971
0.41885261
0.42384396
0.42878975
0.43375565
0.43852122
0.44327679
0.44783099
0.45227022
0.45653313
0.46057779
0.46450577
0.46817311
0.4716979
0.47503108
0.47812531
0.48108498
0.48380848
0.48635209
0.48879156
0.49099447
0.49297796
0.4949448
0.49683001
0.49838333
0.49973214
0.50123707
0.50276541
0.50394429
0.50485223
0.50582658
0.50686374
0.50771128
0.50840953
0.50917211
0.5099299
0.51049894
0.51094229
0.51144799
0.51201413
0.51248513
0.51281862
0.51309632
0.51339057
0.51368476
0.51393466
0.51411329
0.51377251
0.5107756
0.49840208
0.48494587
0.47353807
0.46302146
0.45308967
0.44362789
0.43457372
0.42588288
0.41752059
0.40945872
0.40167701
0.3941568
0.38687809
0.37982095
0.37296442
0.36628457
0.35976014
0.35336982
0.34708854
0.34089011
0.33474663
0.32862846
0.32250369
0.31633624
0.3100871
0.30371142
0.29715623
0.29036232
0.28326009
0.27576301
0.26776355
0.2591264
0.24967751
0.23918974
0.22735866
0.21375919
0.1978068
0.17870489
0.15556221
0.12810156
0.097859699
0.067619858
0.039123101
0.012714938
0.29961947
0.29938651
0.30021338
0.29946456
0.30019429
0.29972592
0.29993775
0.29977945
0.29980315
0.30000971
0.30082011
0.30271464
0.30585145
0.30903206
0.30990621
0.30649705
0.30088146
0.30070513
0.30470032
0.30713161
0.30619383
0.30764387
0.3100262
0.3104829
0.31196852
0.31366813
0.31486514
0.31651367
0.31822215
0.31997354
0.32190752
0.32391275
0.32604379
0.32828747
0.33063297
0.33307031
0.33560143
0.33822754
0.3409315
0.34380381
0.34672624
0.34984479
0.35307415
0.35661531
0.36013461
0.36378492
0.36772668
0.37169496
0.37602461
0.38030408
0.38466129
0.38931147
0.39391665
0.3988431
0.40368126
0.4087018
0.41363188
0.41869238
0.42369777
0.42866244
0.43364691
0.43843359
0.44321365
0.44779945
0.45227619
0.45658063
0.46066463
0.46463025
0.46833823
0.47190663
0.47527653
0.47841095
0.48140613
0.48416614
0.48674406
0.48921488
0.49145178
0.49345758
0.49543468
0.49733945
0.49891883
0.5002792
0.5017682
0.50328165
0.50444687
0.50533123
0.5062721
0.50727468
0.50810106
0.50877306
0.50950815
0.51029456
0.51095317
0.51142589
0.51182529
0.51225878
0.51266889
0.51295498
0.51316827
0.51339539
0.51362485
0.51380081
0.51392509
0.51396746
0.51124436
0.49931009
0.48548925
0.47384912
0.46317482
0.45312928
0.44358302
0.43446344
0.4257186
0.41730579
0.40918429
0.40133406
0.39373499
0.38636735
0.37921477
0.37226242
0.36549707
0.3589006
0.35244968
0.34611174
0.33985877
0.33366364
0.32749817
0.32133176
0.31512861
0.30885089
0.30245569
0.29589259
0.28910531
0.28202714
0.27457384
0.26663954
0.25808926
0.24874649
0.23837682
0.22665959
0.21314537
0.19722145
0.17808904
0.15488959
0.12740511
0.097222774
0.067116339
0.038796297
0.012594938
0.2996185
0.29938369
0.3002172
0.29946581
0.3001961
0.29972643
0.29993783
0.29977964
0.29980149
0.30000252
0.30080416
0.30268519
0.30581666
0.30901718
0.30993705
0.30658413
0.30092881
0.30067756
0.30465194
0.30713134
0.30620901
0.30762244
0.31000804
0.31048423
0.31195062
0.31365024
0.31484743
0.31648934
0.3181935
0.3199409
0.3218717
0.32387229
0.3259936
0.32822223
0.33055268
0.33298539
0.3355263
0.33816198
0.34084928
0.34370125
0.3466105
0.34972465
0.35294021
0.35646279
0.35996842
0.36359558
0.36752832
0.3714929
0.37580751
0.38006186
0.38441537
0.38906428
0.3936624
0.39859108
0.40343077
0.40845584
0.41339549
0.41847517
0.42349775
0.4284844
0.43349786
0.43832015
0.44313752
0.44776334
0.45227761
0.45661711
0.46074125
0.46474686
0.46849391
0.47210005
0.47551503
0.47869197
0.48173098
0.48452953
0.48714532
0.48965299
0.49191671
0.49395607
0.49596955
0.49789441
0.49948213
0.50085645
0.5023795
0.50391645
0.50509285
0.50598313
0.50693179
0.50793409
0.50873131
0.50937011
0.51005893
0.51073405
0.51122941
0.51160337
0.51203013
0.51250453
0.51288108
0.51311895
0.51330425
0.51350526
0.51370318
0.51385889
0.51393966
0.51361446
0.51133904
0.50032731
0.48641208
0.47474536
0.46401075
0.45383721
0.44411971
0.43480804
0.42587538
0.41730317
0.40907398
0.40114873
0.39349467
0.38608512
0.37889518
0.37190014
0.36507406
0.35838947
0.35181959
0.34534762
0.33895319
0.33261268
0.32629972
0.31998655
0.31363286
0.30720139
0.30065054
0.29393052
0.2869853
0.27974834
0.27213552
0.26404146
0.25533342
0.24584053
0.23533974
0.22353096
0.20998773
0.19410521
0.1750896
0.15208939
0.12490305
0.095139131
0.06555862
0.037830364
0.012257343
0.2996171
0.29938003
0.30022194
0.29946447
0.30019799
0.29972758
0.29993831
0.2997803
0.29980023
0.29999605
0.30078968
0.30265848
0.30578548
0.30900425
0.30996445
0.30666312
0.30096892
0.30065125
0.30460577
0.30712954
0.30622515
0.30760381
0.30998953
0.31048549
0.31193368
0.31363237
0.31482942
0.31646487
0.31816485
0.31990845
0.32183675
0.32383392
0.32594911
0.32817415
0.3305019
0.33292505
0.33544325
0.33805576
0.34074807
0.34360364
0.34649536
0.34959634
0.35280141
0.35631757
0.3598319
0.36344338
0.36737174
0.37132841
0.37563201
0.37987169
0.38422073
0.38887214
0.39346677
0.39839394
0.40323302
0.40826769
0.41321376
0.4183004
0.42333628
0.42834102
0.43337208
0.43821484
0.44305654
0.44771349
0.45226537
0.45664649
0.46081055
0.46485549
0.46864498
0.47229537
0.47574691
0.47896381
0.48204168
0.48487875
0.48753001
0.49006969
0.49236788
0.49443052
0.49645906
0.49841018
0.50002574
0.50140705
0.50290843
0.50443146
0.50560189
0.50648268
0.50740836
0.50838721
0.50918446
0.50982487
0.51052405
0.51126576
0.5118601
0.51225241
0.51258006
0.51295467
0.51329976
0.51352442
0.51368205
0.5138533
0.51402755
0.51415487
0.51424618
0.51427127
0.51229924
0.50207889
0.48783247
0.47596287
0.46514218
0.45494349
0.44523464
0.4359398
0.42700479
0.41839074
0.41007
0.40202365
0.39423361
0.38668132
0.37934983
0.37222155
0.36527684
0.35849472
0.35185223
0.3453245
0.33888381
0.33249937
0.32613942
0.3197702
0.31336465
0.3068861
0.30029459
0.29354191
0.28657408
0.27932729
0.27171946
0.26364344
0.25496464
0.2455087
0.2350456
0.22326284
0.20972546
0.19383076
0.17479145
0.15176496
0.12456273
0.094809583
0.065277857
0.037636441
0.012182369
0.29961555
0.29937805
0.30022599
0.29946289
0.30020034
0.29972906
0.29993865
0.29978074
0.29979853
0.29998871
0.30077322
0.30262782
0.30574873
0.30898765
0.30999586
0.30675409
0.30102124
0.30062215
0.30455287
0.30712645
0.30624154
0.30758228
0.30996953
0.31048745
0.31191488
0.31361307
0.31481146
0.31643982
0.31813609
0.31987511
0.32179984
0.32379328
0.32589797
0.32810785
0.33041942
0.33283621
0.33536218
0.33798627
0.34066534
0.34349766
0.3463752
0.34947333
0.35266469
0.35616158
0.35966218
0.36324821
0.36716934
0.37112144
0.37540714
0.37962094
0.38396698
0.38861575
0.39320153
0.39812962
0.40296998
0.4080084
0.41296271
0.41806763
0.42312093
0.42814721
0.43320667
0.43808421
0.44296245
0.44765803
0.45224692
0.45666379
0.46086877
0.46495509
0.46878435
0.47247405
0.47597274
0.47923317
0.48235392
0.4852303
0.48792166
0.49050063
0.49283013
0.49493067
0.49699427
0.49896537
0.5005952
0.50200073
0.50354562
0.50509935
0.50628551
0.50717162
0.50810931
0.50909579
0.50986895
0.51047782
0.51112617
0.51176433
0.51224068
0.51259876
0.51299493
0.51342833
0.51377173
0.51398009
0.51413739
0.51431263
0.51449077
0.51463153
0.51470176
0.51446475
0.51293139
0.50394272
0.48973208
0.47778765
0.4668876
0.45657243
0.44672865
0.43730144
0.42825389
0.41955477
0.41117457
0.40308462
0.39525765
0.38766756
0.38029088
0.37310541
0.36608915
0.35922084
0.35247909
0.34584204
0.33928729
0.33279061
0.32632572
0.31986379
0.31337157
0.3068136
0.30014467
0.29331243
0.28625896
0.27891615
0.27120003
0.26300987
0.25421667
0.2446521
0.23409388
0.22224116
0.2086634
0.1927602
0.17374257
0.15076799
0.12365097
0.094026142
0.064671913
0.03724905
0.012042872
0.29961395
0.29937798
0.30022781
0.2994614
0.30020325
0.29973087
0.2999392
0.29978165
0.29979716
0.29998199
0.30075804
0.30259972
0.30571556
0.3089733
0.31002427
0.30683641
0.30106576
0.30059278
0.30450446
0.30712363
0.30625827
0.30756407
0.30994938
0.31048934
0.31189667
0.31359375
0.31479348
0.31641455
0.31810687
0.31984202
0.32176413
0.32375385
0.32585181
0.32805779
0.3303666
0.33277431
0.33527709
0.33787615
0.34055774
0.34339596
0.34625766
0.34934282
0.35252133
0.35601105
0.35951977
0.36309212
0.36700929
0.37095172
0.37522313
0.37942112
0.38376406
0.38841306
0.39299522
0.39792078
0.4027593
0.40780609
0.41276652
0.41787815
0.42294332
0.42798714
0.43306331
0.43796075
0.44286333
0.4475891
0.45221495
0.4566739
0.46091911
0.46504622
0.46892018
0.47265498
0.47619032
0.47949114
0.48265443
0.48557196
0.48830061
0.49091318
0.49327915
0.49540562
0.49749155
0.49949776
0.50115981
0.50257161
0.50409592
0.50564448
0.50684082
0.50773765
0.50866815
0.50964852
0.51044663
0.51108614
0.51178006
0.51251036
0.51307776
0.51343541
0.51374653
0.51411883
0.51445475
0.51467404
0.51482953
0.51499849
0.51517475
0.51530981
0.51542671
0.51551809
0.51423889
0.50618818
0.49188219
0.47974375
0.46878024
0.45844703
0.44859964
0.43916354
0.43009112
0.42134711
0.41290412
0.40473895
0.39682998
0.38915566
0.38169507
0.37442797
0.36733346
0.3603897
0.35357404
0.346863
0.34023261
0.33365724
0.32710975
0.32056116
0.31397871
0.30732712
0.30056562
0.29364562
0.28651268
0.27910201
0.27133135
0.26309719
0.25426819
0.24467374
0.23408898
0.22220811
0.20859906
0.19266132
0.17361096
0.15060575
0.12346098
0.093820966
0.064481388
0.037109556
0.011986539
0.29961245
0.29937833
0.30022759
0.29946047
0.30020677
0.2997326
0.29993948
0.29978235
0.29979558
0.29997448
0.30074086
0.30256749
0.30567627
0.30895433
0.31005564
0.30693077
0.30112427
0.30056194
0.30444883
0.30711831
0.30627596
0.30754286
0.30992737
0.31049247
0.31187599
0.31357353
0.31477541
0.31638876
0.31807756
0.31980785
0.3217262
0.32371195
0.32579947
0.32799059
0.33028206
0.33268113
0.33518977
0.33780224
0.34047426
0.34328689
0.34613317
0.34921712
0.35238174
0.35585172
0.35934632
0.36289156
0.36680254
0.37073831
0.37498936
0.37916162
0.38350219
0.38814706
0.3927194
0.39764414
0.40248375
0.40753358
0.41250076
0.41762944
0.42271209
0.42777735
0.43288129
0.4378128
0.44275114
0.44751407
0.45217649
0.45667131
0.46095829
0.46512789
0.46904259
0.47281824
0.4764026
0.47974749
0.48295239
0.48591001
0.48868099
0.49133541
0.4937382
0.49590698
0.49802744
0.50005538
0.50173989
0.50318826
0.50476549
0.50635122
0.50756743
0.50847178
0.50942188
0.5104185
0.51120028
0.51181436
0.51246073
0.51310889
0.5136162
0.51400266
0.51440603
0.51483803
0.515193
0.51541758
0.51559017
0.51578112
0.51597911
0.51614228
0.51623249
0.51608864
0.51520989
0.50852128
0.4945237
0.48222669
0.4711693
0.46074072
0.45079756
0.44127211
0.43212371
0.42331844
0.41482483
0.40661545
0.3986644
0.39094678
0.38343976
0.37612159
0.36897041
0.36196453
0.35508197
0.34830018
0.34159611
0.33494498
0.32832034
0.32169371
0.31503266
0.30830215
0.30146154
0.29446239
0.28725059
0.27976195
0.27191504
0.2636075
0.25470934
0.2450514
0.23441043
0.2224827
0.20883774
0.19287465
0.17380367
0.1507737
0.1235853
0.093881207
0.064485179
0.037087375
0.011969998
0.29961094
0.29937724
0.30022822
0.29945979
0.30020966
0.29973437
0.29994024
0.29978345
0.29979422
0.29996755
0.30072484
0.30253776
0.30564069
0.30893812
0.31008468
0.3070158
0.30117441
0.3005296
0.30439673
0.30711268
0.30629332
0.30752549
0.30990582
0.31049533
0.31185598
0.31355336
0.31475691
0.31636311
0.31804756
0.31977345
0.32168909
0.3236716
0.32575214
0.32793843
0.33022679
0.33261774
0.3351029
0.33768872
0.3403605
0.34317974
0.34601434
0.34908468
0.35223487
0.35569535
0.35919777
0.36273117
0.36663861
0.37056228
0.37479653
0.3789526
0.3832909
0.38793389
0.39250227
0.39742377
0.40225975
0.40731663
0.41229001
0.41742534
0.42251803
0.4276
0.43272011
0.43767083
0.44263361
0.44742576
0.45212426
0.45666146
0.4609891
0.46520039
0.46916214
0.47298395
0.47660522
0.47999174
0.48324274
0.48624409
0.4890545
0.49174519
0.49418788
0.49638677
0.49853833
0.50061067
0.50233305
0.50379034
0.50535437
0.50694975
0.50819699
0.50913403
0.51009406
0.51110401
0.51193399
0.51260215
0.51331818
0.51406477
0.51463756
0.51500134
0.51534085
0.51575184
0.51611815
0.51637074
0.5165593
0.51675839
0.51696671
0.51713632
0.51729955
0.517464
0.51673239
0.51097509
0.49728327
0.48474431
0.47362348
0.46317545
0.45321991
0.44367623
0.43449859
0.42565425
0.41711451
0.4088536
0.40084752
0.39307267
0.38550684
0.37812814
0.37091481
0.36384521
0.3568969
0.35004705
0.34327253
0.33654864
0.32984918
0.32314602
0.3164072
0.30959819
0.30267887
0.29560132
0.28831195
0.2807471
0.27282591
0.26444663
0.25548012
0.24575807
0.23505735
0.22307368
0.20937622
0.19336369
0.1742442
0.15115846
0.12389139
0.094083134
0.064588148
0.037122949
0.01197245
0.29960979
0.29937343
0.30023286
0.29945806
0.30020882
0.29973575
0.29994057
0.29978432
0.29979274
0.29995985
0.30070686
0.30250386
0.30559856
0.30891631
0.31011539
0.30711306
0.30124056
0.30049649
0.3043377
0.30710401
0.30631221
0.30750444
0.30988214
0.31049867
0.31183379
0.31353159
0.31473856
0.31633655
0.31801701
0.31973844
0.32165072
0.32362876
0.32569888
0.32787004
0.33014043
0.33252122
0.33501007
0.33761019
0.3402761
0.34306864
0.34588563
0.3489561
0.3520921
0.35553242
0.35901962
0.36252541
0.36642632
0.3703412
0.374552
0.37868535
0.38302115
0.38765917
0.39221619
0.39713487
0.4019718
0.40703098
0.41200961
0.41716074
0.42227074
0.42737412
0.432521
0.43750544
0.442503
0.44733136
0.452066
0.45663949
0.46100877
0.46526409
0.46926742
0.47313172
0.47680366
0.48023462
0.4835262
0.48656854
0.48942305
0.49215771
0.49464262
0.49688756
0.4990738
0.50117116
0.50292483
0.50443016
0.50605402
0.50769092
0.50896093
0.50990979
0.5108987
0.51193285
0.51275568
0.51340784
0.51408733
0.51478488
0.51535996
0.51580376
0.51623912
0.51669791
0.51709532
0.51736669
0.51758185
0.51781231
0.51805141
0.51825444
0.51837415
0.51832949
0.51793353
0.51347896
0.50051572
0.4877214
0.47649816
0.46597307
0.45594552
0.44633624
0.43710007
0.42820559
0.41962364
0.41132497
0.40328309
0.39547261
0.38786993
0.38045228
0.37319698
0.36608158
0.35908337
0.3521794
0.34534665
0.33856065
0.33179553
0.32502361
0.31821342
0.31133102
0.30433687
0.29718367
0.28981852
0.28217847
0.27418336
0.26573221
0.2566961
0.24690631
0.23613964
0.22409233
0.21033368
0.19426136
0.17507922
0.15191557
0.12453175
0.094559273
0.064890056
0.037277993
0.012015228
0.299609
0.29937009
0.30023925
0.29945483
0.30020545
0.29973692
0.29994126
0.29978562
0.29979136
0.29995261
0.30068991
0.30247239
0.30556023
0.30889775
0.31014459
0.30720087
0.30129769
0.3004617
0.30428383
0.30709671
0.30633092
0.30748742
0.30985944
0.31050179
0.31181175
0.31350922
0.31472
0.31631014
0.31798605
0.31970297
0.32161243
0.32358713
0.32564981
0.32781571
0.33008295
0.33245608
0.33492168
0.33749427
0.34015623
0.34295587
0.34576501
0.34882178
0.35194121
0.35536931
0.35886424
0.36235947
0.36625774
0.37015796
0.37434766
0.37846835
0.38280198
0.38743646
0.39198799
0.39690287
0.40173415
0.40679928
0.41178433
0.41694216
0.42206015
0.42717908
0.43234165
0.43734464
0.44236666
0.44722362
0.45199339
0.4566098
0.46102086
0.46531791
0.4693696
0.47328179
0.47699123
0.48046587
0.48380692
0.48689562
0.48979168
0.49256589
0.49509442
0.49737422
0.4996002
0.50175006
0.50354748
0.50506697
0.50668908
0.50835344
0.50967632
0.51067813
0.51169296
0.5127597
0.5136496
0.51437132
0.51513077
0.51591448
0.51651892
0.51692222
0.51732233
0.5177974
0.51821931
0.51852945
0.51877198
0.5190193
0.5192763
0.51949667
0.51971494
0.51994626
0.51959709
0.51591481
0.50375865
0.49067696
0.4793867
0.46884119
0.45879514
0.4491633
0.43989991
0.43097222
0.42235307
0.41401621
0.40593523
0.39808476
0.39044112
0.38298121
0.37568156
0.36851932
0.36147163
0.35451502
0.34762614
0.34078039
0.33395193
0.32711324
0.32023317
0.31327818
0.30620928
0.2989797
0.29153714
0.28381937
0.27574676
0.26721817
0.25810461
0.24823801
0.23739609
0.22527572
0.21144633
0.19530444
0.17604932
0.15279602
0.12528021
0.09512265
0.065254428
0.037470149
0.012070425
0.29960806
0.29936971
0.30024334
0.29945057
0.30020426
0.29973758
0.29994172
0.29978667
0.29978993
0.29994467
0.30067113
0.30243673
0.30551501
0.30887266
0.31017414
0.30730142
0.3013728
0.30042559
0.30422241
0.30708335
0.30635193
0.30746627
0.30983429
0.31050552
0.31178715
0.31348613
0.31470169
0.31628256
0.31795459
0.31966663
0.3215722
0.32354321
0.32559531
0.32774614
0.3299951
0.33235602
0.33482281
0.33741066
0.34007058
0.34284282
0.34563274
0.3486895
0.35179423
0.35520243
0.35868127
0.36214799
0.36603968
0.36992817
0.37409234
0.37819377
0.38252479
0.38715418
0.39169169
0.39660165
0.40143362
0.40650053
0.41148933
0.41666183
0.42179688
0.42693703
0.43212521
0.43716167
0.4422175
0.44710979
0.45191597
0.45656822
0.46102209
0.46536342
0.4694573
0.47341421
0.47717543
0.48069459
0.48407556
0.48720644
0.49014821
0.49296813
0.49554333
0.49787169
0.5001328
0.50231168
0.50414837
0.50572457
0.50740934
0.5091162
0.51046301
0.51148221
0.51253538
0.51363326
0.51452665
0.51524614
0.51598914
0.51676687
0.51743315
0.51794979
0.51843173
0.51893558
0.51939361
0.51972873
0.52000107
0.52028424
0.5205767
0.52082993
0.52098384
0.52104139
0.52096736
0.51837687
0.50739593
0.49403737
0.48263825
0.47202667
0.46191942
0.45223196
0.44291947
0.43394912
0.42529288
0.41692361
0.40881376
0.40093635
0.39326632
0.38577947
0.37845144
0.37125842
0.3641766
0.35718195
0.35025074
0.34335818
0.3364783
0.32958364
0.32264322
0.31562383
0.30848691
0.30118614
0.29366967
0.28587528
0.27772328
0.26911314
0.25991676
0.24996685
0.23904175
0.22683874
0.21292712
0.19670188
0.17735686
0.15399131
0.12630928
0.095915115
0.065784011
0.037760827
0.012158652
0.29960692
0.2993708
0.30024204
0.29944741
0.30020571
0.29973864
0.29994238
0.29978816
0.29978856
0.29993706
0.30065325
0.30240341
0.3054737
0.30885132
0.31020313
0.30739282
0.30143849
0.30038802
0.30416622
0.30707171
0.30637259
0.30744879
0.30980964
0.31050894
0.31176309
0.31346263
0.31468315
0.31625498
0.31792277
0.31962962
0.32153248
0.32350049
0.32554438
0.32768948
0.32993537
0.3322889
0.3347331
0.33729264
0.3399443
0.34272373
0.34551006
0.34855311
0.35163995
0.35503295
0.35851826
0.36197684
0.36586597
0.36973701
0.37387948
0.3779685
0.38229833
0.38692244
0.39145218
0.39635757
0.40118243
0.40625415
0.41124959
0.41642861
0.42156997
0.42672418
0.43192738
0.43698176
0.44206219
0.44698277
0.45182301
0.45651919
0.46101525
0.46539879
0.46954112
0.47354789
0.47734801
0.48091362
0.48434647
0.48752547
0.49051069
0.49337418
0.49599668
0.49836473
0.50067278
0.50291
0.50479572
0.50639296
0.50808936
0.5098412
0.51125977
0.51234682
0.51343817
0.51458493
0.51555781
0.51635362
0.51717388
0.5180128
0.51867285
0.51914393
0.51962615
0.52017786
0.520669
0.52104916
0.52135602
0.52166118
0.52197668
0.52225798
0.52253749
0.52282917
0.52272781
0.52065585
0.51090656
0.49734941
0.48586887
0.47523249
0.46510152
0.45538761
0.4460463
0.43704594
0.42835874
0.41995841
0.41181875
0.40391304
0.39621574
0.38870183
0.38134611
0.37412356
0.36700947
0.35997939
0.35300911
0.3460734
0.339146
0.33219923
0.32520201
0.31812106
0.31091782
0.30354607
0.29595419
0.28808063
0.27984654
0.27115207
0.26186973
0.25183278
0.24082
0.22852895
0.21452864
0.19821236
0.17876841
0.15528027
0.1274202
0.096774752
0.06636299
0.038081643
0.012257243
0.29960596
0.29936975
0.30023951
0.29944648
0.30020742
0.29974028
0.29994282
0.2997894
0.29978726
0.29992879
0.30063368
0.30236599
0.30542518
0.30882247
0.31023143
0.30749702
0.30152395
0.30035054
0.30410309
0.30705487
0.30639639
0.30742669
0.30978245
0.310513
0.31173652
0.31343737
0.31466416
0.31622716
0.31789035
0.3195914
0.32149065
0.3234546
0.32548869
0.32761877
0.32984595
0.33218553
0.33462833
0.33720309
0.33985658
0.3426087
0.34537405
0.34841646
0.3514878
0.35486102
0.35833015
0.3617599
0.36564118
0.36949813
0.37361502
0.37768638
0.38201389
0.3866322
0.39114669
0.39604403
0.40086901
0.40594221
0.4109401
0.4161326
0.42129102
0.42646615
0.43169358
0.43678097
0.44189459
0.44684977
0.4517269
0.45645883
0.46099781
0.46542756
0.46961181
0.47366484
0.47751791
0.48112812
0.48460096
0.48782356
0.49085546
0.49376585
0.49643815
0.49885596
0.50119987
0.50347028
0.50540131
0.50705978
0.50881707
0.51060882
0.51205066
0.51316054
0.5142973
0.51547972
0.51646743
0.51727857
0.51811029
0.5189914
0.51976315
0.52036187
0.52090195
0.52146488
0.5219944
0.52240205
0.52273884
0.52308143
0.52343337
0.52374272
0.52393796
0.52409213
0.52422537
0.52297233
0.5146696
0.5010261
0.48940566
0.47870328
0.46851682
0.45875291
0.44936615
0.44032522
0.43160296
0.42317307
0.41500865
0.40708212
0.39936692
0.39183687
0.38446548
0.37722673
0.37009474
0.36304373
0.35604848
0.349083
0.34212049
0.3351329
0.32808895
0.32095534
0.31369361
0.30625776
0.29859648
0.29064857
0.28233558
0.27355804
0.26418889
0.25406182
0.24295601
0.23056928
0.21647031
0.20005063
0.18049245
0.15686149
0.12879271
0.097848875
0.067096952
0.038494905
0.012386814
0.29960559
0.29936542
0.30024065
0.29944982
0.30020873
0.29974293
0.29994359
0.29979104
0.2997861
0.29992075
0.30061487
0.30233072
0.30538053
0.30879816
0.31026052
0.30759272
0.30159969
0.30030966
0.30404542
0.30703935
0.30642025
0.30740759
0.30975643
0.31051597
0.31170995
0.31341222
0.31464535
0.31619931
0.31785709
0.31955259
0.32144926
0.32340969
0.32543606
0.32755941
0.32978318
0.33211616
0.33453719
0.33708314
0.33972336
0.34248223
0.34524804
0.34827663
0.35132851
0.35468532
0.35815916
0.36158248
0.3654627
0.36929844
0.37339211
0.37745317
0.38177956
0.38639055
0.39089672
0.39578831
0.40060433
0.40568143
0.41068589
0.41588432
0.42104798
0.42623563
0.43147725
0.43658179
0.44172027
0.44670376
0.45161404
0.4563903
0.46097287
0.46544542
0.46967753
0.4737809
0.47767505
0.48133498
0.48486191
0.4881341
0.49121108
0.49416907
0.4968917
0.49935369
0.50174943
0.504081
0.50606484
0.50775166
0.5095338
0.51138503
0.51291177
0.51409694
0.51527845
0.5165201
0.51759131
0.51847537
0.5193695
0.52028021
0.52101964
0.52158443
0.52216487
0.5228016
0.52337228
0.52383112
0.52420835
0.52457631
0.52495479
0.52530158
0.52564231
0.52598184
0.52605102
0.52505482
0.51814767
0.50464368
0.49288642
0.48214805
0.47193624
0.46214547
0.45272873
0.4436563
0.43490284
0.42644331
0.41825201
0.41030215
0.40256719
0.39502034
0.38763416
0.38038136
0.37323484
0.36616773
0.35915365
0.3521656
0.34517591
0.33815584
0.33107358
0.3238955
0.31658295
0.30908989
0.30136513
0.2933477
0.28495942
0.27610119
0.2666463
0.25642879
0.24522818
0.2327424
0.21853967
0.20200953
0.18232807
0.15854345
0.13025363
0.098996256
0.067885349
0.038941622
0.012527974
0.29960564
0.29936118
0.30024532
0.29945464
0.30021
0.29974554
0.29994408
0.29979228
0.2997851
0.2999121
0.30059451
0.30229147
0.30532853
0.30876555
0.31028785
0.3077004
0.30169697
0.30027296
0.30397964
0.30701744
0.30644729
0.30738413
0.30972684
0.31051938
0.31168113
0.31338525
0.31462632
0.31617003
0.31782326
0.31951298
0.32140552
0.32336195
0.32537852
0.32748694
0.32969195
0.33200932
0.33442642
0.33698694
0.3396324
0.34236517
0.34510844
0.34813512
0.35117189
0.35450852
0.35796476
0.36136054
0.36523043
0.36904891
0.37311689
0.37716361
0.38148753
0.38609155
0.39058269
0.39546354
0.40027773
0.40535639
0.41036197
0.41557286
0.42075326
0.42596182
0.43122653
0.43636322
0.44153418
0.44655175
0.45149963
0.45631134
0.46093742
0.46545702
0.46973219
0.47388177
0.47783
0.48153468
0.48510281
0.48842103
0.4915457
0.49455112
0.49732494
0.49983651
0.50226899
0.50463746
0.50666994
0.50841793
0.510255
0.51214065
0.51368875
0.51490157
0.51613215
0.51741072
0.518507
0.51942425
0.52036031
0.52135707
0.52223985
0.52292699
0.52353848
0.52417645
0.52478895
0.52527852
0.52568734
0.52609496
0.52650987
0.52687768
0.52712603
0.52734923
0.52763276
0.52721395
0.52172579
0.50858311
0.49660916
0.48579784
0.47553734
0.46570256
0.4562435
0.44713079
0.43834021
0.42984847
0.42163066
0.41365976
0.40590894
0.39835079
0.39095684
0.38369865
0.37654787
0.36947622
0.36245594
0.35545873
0.34845575
0.34141722
0.33431046
0.32710116
0.31975018
0.31221111
0.3044326