/*--------------------------------*- C++ -*----------------------------------*\
| =========                 |                                                 |
| \\      /  F ield         | OpenFOAM: The Open Source CFD Toolbox           |
|  \\    /   O peration     | Version:  2506                                  |
|   \\  /    A nd           | Website:  www.openfoam.com                      |
|    \\/     M anipulation  |                                                 |
\*---------------------------------------------------------------------------*/
FoamFile
{
    version     2.0;
    format      ascii;
    arch        "LSB;label=32;scalar=64";
    class       volScalarField;
    location    "0.018";
    object      rho;
}
// * * * * * * * * * * * * * * * * * * * * * * * * * * * * * * * * * * * * * //

dimensions      [1 -3 0 0 0 0 0];

internalField   nonuniform List<scalar> 
192657
(
0.66492236
0.66679559
0.66503693
0.66657516
0.66548415
0.66615586
0.66557138
0.66558203
0.66506245
0.66419056
0.66225796
0.65922274
0.65596791
0.65454225
0.65681571
0.66257514
0.66748432
0.66657616
0.66268952
0.66238586
0.6629554
0.66127923
0.66035662
0.6604968
0.65966794
0.65904518
0.65877474
0.65811178
0.65760595
0.65708788
0.65643945
0.65586056
0.65518033
0.65449234
0.65375779
0.65298735
0.65218586
0.6513088
0.65038904
0.64941613
0.64839683
0.64732431
0.64619433
0.64500426
0.64375162
0.64243435
0.64105096
0.6396021
0.63808828
0.63651175
0.63487576
0.63318463
0.63144321
0.62965789
0.62783606
0.62598583
0.62411668
0.62223828
0.62036092
0.61849484
0.61665045
0.61483689
0.61306318
0.6113374
0.60966581
0.60805417
0.60650705
0.60502737
0.6036179
0.6022793
0.60101219
0.59981572
0.59868835
0.59762829
0.59663326
0.59570044
0.59482669
0.59400873
0.59324362
0.59252791
0.59185902
0.59123388
0.59064947
0.59010305
0.58959164
0.58911328
0.58866599
0.58824784
0.58785633
0.58749012
0.58714796
0.5868285
0.58653062
0.58625364
0.58599723
0.58576138
0.58554725
0.58535683
0.5851917
0.58504484
0.58485824
0.5842634
0.58171764
0.57772002
0.57496741
0.57323767
0.57210535
0.57135748
0.57087407
0.57057887
0.57041978
0.5703596
0.57037111
0.57043405
0.57053318
0.57065698
0.57079673
0.57094583
0.57109928
0.57125334
0.5714052
0.57155286
0.57169485
0.57183017
0.57195813
0.57207832
0.57219049
0.57229453
0.57239042
0.57247818
0.57255786
0.57262951
0.57269315
0.57274875
0.57279623
0.57283548
0.57286629
0.57288837
0.5729014
0.57290504
0.57289908
0.57288355
0.57285927
0.57282868
0.57279688
0.57277106
0.57275571
0.57274977
0.57274917
0.66492034
0.66679855
0.66503531
0.66657562
0.66548428
0.6661561
0.66557275
0.66558409
0.66506862
0.66420447
0.66228367
0.65925677
0.65599507
0.65454141
0.65676617
0.66250897
0.66744719
0.66661537
0.6627179
0.66237457
0.66295952
0.66129738
0.6603571
0.6605003
0.65967786
0.65904939
0.65878158
0.65812011
0.65761344
0.65709756
0.65644972
0.65587199
0.65519337
0.65450661
0.65377383
0.65300486
0.65220528
0.65133008
0.65041221
0.6494412
0.64842423
0.64735345
0.64622558
0.64503761
0.64378697
0.6424715
0.64108964
0.63964194
0.63812877
0.63655227
0.63491554
0.6332228
0.63147874
0.62968962
0.62786274
0.62600611
0.62412911
0.62224141
0.62035328
0.618475
0.61661706
0.61478872
0.61299913
0.61125655
0.6095674
0.60793767
0.60637213
0.60487386
0.60344584
0.6020889
0.60080383
0.59958991
0.59844574
0.59736967
0.59635952
0.59541258
0.59452582
0.59369606
0.59292043
0.59219582
0.59151944
0.59088854
0.59030015
0.58975142
0.58924036
0.58876456
0.58832212
0.58791123
0.58752963
0.58717597
0.58684903
0.58654745
0.58626987
0.58601523
0.58578225
0.58556931
0.58537476
0.58519583
0.58502637
0.58484602
0.58456895
0.58378245
0.58105809
0.57689187
0.57401326
0.57215064
0.57086006
0.56993147
0.56925014
0.56874515
0.56836939
0.56809027
0.56788453
0.5677352
0.56762964
0.56755822
0.56751351
0.56748966
0.56748201
0.56748684
0.56750111
0.56752237
0.56754864
0.56757829
0.56761
0.56764271
0.56767556
0.56770785
0.56773903
0.56776867
0.56779641
0.56782199
0.5678452
0.56786587
0.5678839
0.56789923
0.56791182
0.56792168
0.56792887
0.56793353
0.56793587
0.56793625
0.5679352
0.56793359
0.56793252
0.56793273
0.56793378
0.5679347
0.56793506
0.66491821
0.66680162
0.66503363
0.66657609
0.66548445
0.66615635
0.66557421
0.66558626
0.66507512
0.66421916
0.66231091
0.65929299
0.65602418
0.65454091
0.65671389
0.6624383
0.66740757
0.66665632
0.66274856
0.66236271
0.66296362
0.6613167
0.6603577
0.66050386
0.65968838
0.65905387
0.65878876
0.6581289
0.65762132
0.65710773
0.65646046
0.65588394
0.65520698
0.6545215
0.65379054
0.65302309
0.65222548
0.65135219
0.65043626
0.64946718
0.64845248
0.64738369
0.64625799
0.64507217
0.64382361
0.64250999
0.64112974
0.63968325
0.63817081
0.6365944
0.63495699
0.63326268
0.63151601
0.62972312
0.6278912
0.62602815
0.62414328
0.62224622
0.62034722
0.61845662
0.61658498
0.61474168
0.61293598
0.61117632
0.60946935
0.6078212
0.60623689
0.60471968
0.60327275
0.6018971
0.60059372
0.599362
0.59820073
0.59710838
0.59608291
0.59512173
0.59422193
0.59338048
0.59259462
0.59186145
0.59117817
0.59054207
0.58995035
0.58940047
0.58889022
0.58841761
0.58798062
0.58757713
0.58720566
0.58686432
0.58655174
0.5862664
0.58600676
0.58577152
0.58555927
0.58536841
0.58519774
0.58504564
0.58490812
0.58476823
0.58454425
0.58383805
0.58129181
0.57720546
0.57436958
0.5725875
0.57139913
0.57058717
0.57003179
0.56965754
0.56941348
0.56926384
0.56918291
0.56915197
0.56915722
0.56918842
0.56923788
0.56929984
0.5693699
0.56944479
0.56952199
0.56959965
0.56967639
0.56975117
0.56982325
0.56989211
0.56995738
0.57001882
0.5700763
0.57012971
0.57017904
0.57022429
0.57026548
0.57030262
0.57033575
0.5703649
0.57039011
0.57041138
0.57042873
0.5704422
0.57045183
0.57045776
0.57046027
0.57045996
0.57045799
0.57045589
0.57045465
0.5704543
0.57045443
0.66491597
0.6668048
0.66503189
0.66657656
0.66548464
0.6661566
0.66557572
0.66558846
0.66508172
0.66423412
0.66233877
0.65933017
0.6560543
0.65454096
0.65666079
0.66236557
0.6673666
0.66669764
0.66278061
0.66235063
0.66296747
0.6613366
0.66035846
0.66050735
0.65969918
0.65905848
0.65879606
0.65813789
0.65762935
0.65711808
0.65647141
0.65589608
0.65522084
0.65453664
0.65380754
0.65304162
0.65224601
0.65137467
0.6504607
0.64949375
0.64848101
0.64741443
0.64629096
0.64510736
0.64386094
0.64254928
0.64117072
0.63972557
0.63821397
0.63663779
0.63499986
0.63330416
0.63155507
0.62975861
0.62792186
0.6260526
0.62416008
0.62225385
0.62034419
0.61844144
0.61655623
0.61469808
0.61287636
0.61109967
0.60937485
0.60770824
0.60610507
0.60456878
0.60310276
0.60170819
0.60038624
0.59913647
0.5979578
0.59684889
0.5958078
0.59483209
0.593919
0.59306562
0.59226932
0.59152735
0.59083697
0.59019561
0.58960061
0.58904944
0.58853986
0.58806993
0.58763757
0.58724085
0.5868778
0.58654668
0.58624587
0.5859736
0.58572804
0.58550757
0.58531048
0.58513495
0.58497924
0.58484109
0.58471561
0.58458436
0.58436356
0.58366815
0.58124282
0.57717793
0.57423406
0.57236678
0.57110343
0.57022037
0.569596
0.56915454
0.5688454
0.56863337
0.56849327
0.56840688
0.56836079
0.56834497
0.56835178
0.56837538
0.56841125
0.56845584
0.5685064
0.56856078
0.56861728
0.56867459
0.56873169
0.56878781
0.56884234
0.56889483
0.56894496
0.56899248
0.56903724
0.56907914
0.56911809
0.56915406
0.56918704
0.56921705
0.5692441
0.56926823
0.56928946
0.56930785
0.56932347
0.56933641
0.56934678
0.56935472
0.56936045
0.56936425
0.56936648
0.56936756
0.5693679
0.66491361
0.6668081
0.66503011
0.66657705
0.66548484
0.66615685
0.66557727
0.66559069
0.66508847
0.66424944
0.66236742
0.65936858
0.65608569
0.65454159
0.65660656
0.66229033
0.66732385
0.66673951
0.66281435
0.66233827
0.66297108
0.66135723
0.6603594
0.66051077
0.65971035
0.65906326
0.65880351
0.65814715
0.65763758
0.65712869
0.65648262
0.6559085
0.655235
0.65455211
0.6538249
0.65306054
0.65226698
0.65139761
0.65048561
0.64952082
0.64851012
0.6474458
0.64632463
0.6451433
0.64389909
0.64258947
0.64121269
0.63976897
0.63825833
0.63668251
0.63504419
0.63334725
0.63159589
0.62979603
0.6279546
0.6260793
0.62417928
0.62226405
0.62034385
0.61842906
0.61653037
0.61465742
0.61281968
0.61102593
0.60928321
0.60759802
0.60597584
0.60442027
0.60293493
0.60152118
0.60018036
0.59891223
0.59771584
0.59659
0.59553295
0.59454236
0.5936156
0.59274991
0.59194278
0.59119156
0.59049361
0.58984642
0.5892474
0.58869405
0.5881841
0.58771557
0.58728634
0.5868943
0.58653734
0.58621351
0.58592099
0.58565781
0.58542192
0.58521148
0.58502462
0.58485937
0.58471393
0.58458609
0.58447116
0.58435127
0.58414479
0.58348871
0.58123958
0.57727269
0.57424155
0.57232654
0.57104405
0.57015785
0.56954007
0.56911121
0.56881822
0.56862422
0.5685026
0.56843439
0.56840566
0.56840609
0.5684279
0.5684652
0.5685135
0.56856934
0.56863006
0.56869362
0.56875847
0.5688234
0.5688875
0.5689501
0.56901067
0.56906883
0.56912434
0.56917701
0.56922671
0.56927339
0.56931701
0.56935755
0.56939502
0.56942944
0.56946084
0.56948924
0.56951464
0.56953705
0.56955649
0.56957296
0.56958642
0.56959682
0.56960418
0.56960876
0.5696112
0.56961227
0.56961261
0.66491113
0.66681152
0.66502828
0.66657754
0.66548506
0.66615709
0.66557888
0.66559295
0.66509535
0.6642651
0.66239684
0.65940821
0.65611837
0.65454283
0.65655128
0.66221263
0.66727926
0.6667818
0.66284984
0.66232567
0.66297442
0.6613786
0.66036053
0.66051412
0.65972188
0.65906823
0.65881112
0.65815667
0.65764601
0.65713953
0.65649409
0.65592118
0.65524946
0.65456789
0.65384263
0.65307985
0.65228836
0.65142102
0.65051098
0.64954844
0.64853979
0.64747779
0.64635896
0.64517997
0.64393804
0.64263054
0.64125564
0.63981344
0.63830387
0.63672854
0.63508996
0.63339192
0.63163846
0.62983535
0.62798943
0.62610826
0.62420091
0.62227683
0.62034624
0.61841953
0.61650746
0.61461975
0.61276603
0.61095521
0.60919452
0.60749066
0.60584932
0.6042743
0.60276941
0.60133621
0.59997624
0.5986894
0.59747493
0.59633178
0.59525833
0.5942524
0.59331148
0.59243293
0.59161435
0.59085318
0.59014683
0.58949287
0.58888869
0.58833179
0.58781985
0.5873508
0.58692241
0.58653241
0.58617854
0.58585865
0.58557073
0.58531261
0.58508207
0.58487711
0.58469566
0.58453564
0.58439511
0.58427174
0.5841608
0.584045
0.58384654
0.58322933
0.58115151
0.57728879
0.57413501
0.57212848
0.57078242
0.56984856
0.56919309
0.56873319
0.56841386
0.56819728
0.56805571
0.56796985
0.56792552
0.56791216
0.56792182
0.5679485
0.56798759
0.56803552
0.56808951
0.56814743
0.56820763
0.56826882
0.56833001
0.56839042
0.56844948
0.56850674
0.56856188
0.56861466
0.56866491
0.56871255
0.5687575
0.56879971
0.56883918
0.56887592
0.56890993
0.56894124
0.56896984
0.56899572
0.56901888
0.56903926
0.56905671
0.56907097
0.56908164
0.56908857
0.56909229
0.56909387
0.5690943
0.66490851
0.66681507
0.66502639
0.66657804
0.6654853
0.66615733
0.66558054
0.66559525
0.66510237
0.66428112
0.66242706
0.6594491
0.65615239
0.65454475
0.65649497
0.66213238
0.66723267
0.66682446
0.66288717
0.66231283
0.66297743
0.66140072
0.66036187
0.66051737
0.65973377
0.65907338
0.65881888
0.65816646
0.65765464
0.65715062
0.65650583
0.65593413
0.65526424
0.65458401
0.65386072
0.65309956
0.65231018
0.65144489
0.65053682
0.6495766
0.64857005
0.64751041
0.64639399
0.64521739
0.64397781
0.64267251
0.64129956
0.63985899
0.6383506
0.63677586
0.63513717
0.63343817
0.63168276
0.62987657
0.62802632
0.62613945
0.62422493
0.62229215
0.62035131
0.6184128
0.61648744
0.61458504
0.61271535
0.61088744
0.60910873
0.60738609
0.60572546
0.60413078
0.60260611
0.60115319
0.59977375
0.59846786
0.59723491
0.59607402
0.59498369
0.59396188
0.5930062
0.5921141
0.59128327
0.59051123
0.58979542
0.58913341
0.58852262
0.58796046
0.58744455
0.58697271
0.58654259
0.58615178
0.58579784
0.58547846
0.58519149
0.5849346
0.58470542
0.58450185
0.58432175
0.58416294
0.58402348
0.58390107
0.58379129
0.58367822
0.58349066
0.58292505
0.58103228
0.57729602
0.57401473
0.57191333
0.57050887
0.56953718
0.56885653
0.56837968
0.56804881
0.56782398
0.56767695
0.56758739
0.56754047
0.56752526
0.56753359
0.56755934
0.56759786
0.56764556
0.56769948
0.56775755
0.56781814
0.56787996
0.567942
0.5680035
0.56806385
0.56812258
0.56817936
0.56823395
0.56828616
0.5683359
0.56838308
0.56842765
0.5684696
0.56850892
0.56854562
0.5685797
0.56861113
0.5686399
0.56866596
0.56868919
0.56870937
0.56872605
0.56873863
0.56874677
0.56875109
0.56875288
0.56875334
0.66490576
0.66681876
0.66502445
0.66657854
0.66548558
0.66615756
0.66558226
0.66559757
0.66510953
0.66429749
0.6624581
0.6594913
0.65618782
0.65454738
0.65643766
0.66204953
0.66718399
0.66686738
0.66292644
0.66229981
0.66298009
0.66142363
0.66036346
0.66052051
0.65974605
0.65907873
0.65882679
0.65817653
0.65766347
0.65716196
0.65651784
0.65594737
0.65527934
0.65460046
0.65387919
0.65311967
0.65233244
0.65146925
0.65056319
0.64960528
0.64860089
0.64754368
0.6464297
0.64525557
0.6440184
0.64271538
0.64134446
0.63990562
0.63839851
0.63682449
0.63518581
0.633486
0.63172878
0.62991967
0.62806525
0.62617284
0.62425132
0.62231
0.62035905
0.61840886
0.6164703
0.61455327
0.61266764
0.61082262
0.60902583
0.6072843
0.60560422
0.6039897
0.60244501
0.60097209
0.59957285
0.59824756
0.5969957
0.59581659
0.59470886
0.59367057
0.59269943
0.59179298
0.59094898
0.59016498
0.58943844
0.58876694
0.58814784
0.58757851
0.58705646
0.58657942
0.58614491
0.58575039
0.58539329
0.58507117
0.58478174
0.58452259
0.58429127
0.58408557
0.58390332
0.5837423
0.58360054
0.58347578
0.58336391
0.58325061
0.58307235
0.58255985
0.58085336
0.57726621
0.57384905
0.57163389
0.57015629
0.56913417
0.56841687
0.56791244
0.56756022
0.56731845
0.56715769
0.56705679
0.56700034
0.56697702
0.56697841
0.56699818
0.56703153
0.56707477
0.56712507
0.56718022
0.56723851
0.56729858
0.56735938
0.56742011
0.56748012
0.56753887
0.56759599
0.56765121
0.56770433
0.56775524
0.56780381
0.56784999
0.56789374
0.56793504
0.56797387
0.56801024
0.5680441
0.5680754
0.56810409
0.56813001
0.56815284
0.568172
0.56818663
0.56819618
0.56820124
0.56820331
0.56820382
0.66490287
0.66682257
0.66502246
0.66657905
0.66548588
0.66615779
0.66558404
0.66559993
0.66511682
0.66431421
0.66248995
0.65953483
0.65622472
0.6545508
0.6563794
0.66196403
0.66713307
0.66691048
0.66296775
0.66228662
0.66298236
0.66144735
0.6603653
0.66052354
0.65975872
0.6590843
0.65883485
0.65818688
0.65767253
0.65717357
0.65653014
0.65596088
0.65529478
0.65461726
0.65389805
0.65314019
0.65235516
0.6514941
0.65059008
0.64963451
0.64863235
0.6475776
0.64646613
0.6452945
0.64405982
0.64275914
0.64139034
0.63995332
0.6384476
0.63687443
0.63523588
0.6335354
0.63177652
0.62996465
0.62810622
0.62620844
0.62428007
0.62233036
0.62036944
0.61840768
0.61645601
0.61452441
0.61262285
0.61076072
0.60894578
0.60718526
0.60548559
0.60385102
0.60228608
0.60079288
0.59937351
0.59802841
0.59675722
0.5955594
0.59443369
0.59337826
0.5923909
0.59146923
0.59061103
0.58981388
0.58907525
0.58839268
0.5877635
0.58718499
0.58665459
0.58616992
0.5857284
0.58532739
0.58496423
0.58463636
0.58434142
0.58407695
0.58384043
0.58362963
0.58344234
0.58327633
0.58312965
0.58300011
0.58288395
0.58276865
0.58259892
0.58213985
0.5806193
0.57721123
0.57366418
0.57132292
0.56976619
0.56869122
0.56793678
0.56740545
0.56703329
0.56677643
0.56660399
0.56649381
0.56642985
0.56640032
0.56639648
0.56641183
0.56644141
0.56648148
0.56652913
0.5665821
0.56663866
0.56669741
0.56675729
0.56681744
0.56687719
0.56693602
0.56699355
0.56704945
0.56710351
0.56715556
0.56720547
0.56725316
0.56729857
0.56734167
0.56738244
0.56742083
0.5674568
0.56749029
0.5675212
0.56754936
0.56757436
0.56759553
0.5676118
0.56762243
0.56762805
0.56763033
0.56763088
0.66489983
0.66682653
0.66502041
0.66657957
0.66548621
0.666158
0.66558588
0.66560232
0.66512425
0.66433129
0.66252263
0.65957975
0.65626315
0.65455505
0.65632023
0.66187583
0.66707976
0.66695369
0.66301121
0.66227331
0.66298419
0.6614719
0.66036744
0.66052644
0.65977179
0.65909009
0.65884307
0.65819753
0.65768181
0.65718544
0.65654274
0.65597469
0.65531055
0.65463442
0.6539173
0.65316115
0.65237834
0.65151945
0.65061746
0.64966438
0.64866443
0.64761218
0.64650327
0.64533422
0.64410208
0.64280382
0.64143723
0.64000212
0.63849788
0.63692566
0.63528738
0.63358636
0.63182597
0.63001149
0.62814922
0.62624622
0.62431117
0.62235322
0.62038246
0.61840925
0.61644456
0.61449845
0.61258099
0.61070171
0.60886858
0.60708896
0.60536954
0.60371474
0.60212929
0.60061551
0.59917567
0.59781039
0.59651941
0.59530235
0.59415807
0.59308481
0.59208043
0.5911426
0.59026914
0.58945761
0.58870547
0.58801022
0.58736915
0.58677948
0.58623855
0.58574391
0.58529291
0.58488284
0.58451096
0.58417464
0.58387151
0.58359905
0.58335472
0.58313628
0.58294153
0.58276823
0.58261443
0.58247805
0.58235565
0.5822365
0.58207343
0.5816647
0.58032438
0.57712414
0.57346087
0.57097705
0.56933118
0.56819665
0.56740001
0.56683773
0.56644231
0.56616758
0.56598111
0.56585969
0.56578651
0.56574927
0.56573889
0.56574862
0.56577336
0.56580924
0.5658533
0.56590323
0.56595725
0.56601394
0.5660722
0.56613114
0.56619007
0.56624845
0.56630584
0.5663619
0.56641639
0.56646912
0.56651993
0.5665687
0.56661536
0.56665986
0.56670216
0.56674221
0.56677996
0.56681531
0.56684815
0.56687827
0.56690521
0.56692818
0.56694596
0.56695765
0.56696383
0.56696633
0.56696691
0.66489663
0.66683064
0.66501831
0.66658008
0.66548658
0.6661582
0.66558778
0.66560474
0.66513182
0.66434872
0.66255616
0.65962607
0.65630319
0.65456021
0.65626021
0.66178486
0.66702389
0.66699688
0.66305692
0.66225993
0.66298553
0.66149731
0.66036991
0.66052919
0.65978528
0.65909612
0.65885144
0.65820849
0.65769132
0.65719759
0.65655563
0.65598881
0.65532667
0.65465194
0.65393697
0.65318254
0.65240199
0.65154533
0.65064538
0.64969484
0.64869714
0.64764745
0.64654114
0.64537472
0.64414519
0.64284941
0.64148512
0.64005201
0.63854936
0.63697821
0.63534031
0.63363889
0.63187714
0.6300602
0.62819423
0.62628618
0.6243446
0.62237856
0.62039809
0.61841355
0.61643594
0.61447536
0.61254202
0.61064559
0.60879419
0.60699538
0.60525605
0.60358082
0.60197462
0.60043997
0.59897931
0.59759344
0.59628222
0.5950454
0.59388193
0.59279013
0.59176792
0.590813
0.58992318
0.58909603
0.58832897
0.58761947
0.58696477
0.58636203
0.58580851
0.58530173
0.58483898
0.5844175
0.58403451
0.58368737
0.58337368
0.58309092
0.58283655
0.58260834
0.58240409
0.58222157
0.58205888
0.58191398
0.58178378
0.58165922
0.58150084
0.58113799
0.57996896
0.57700357
0.57325016
0.57060808
0.56886434
0.56766536
0.56682342
0.56622819
0.56580824
0.56551491
0.56531404
0.56518123
0.56509883
0.56505397
0.56503717
0.56504138
0.56506134
0.56509306
0.56513349
0.56518029
0.56523162
0.56528607
0.56534249
0.56539999
0.56545785
0.56551549
0.56557248
0.56562844
0.56568309
0.56573623
0.56578767
0.56583728
0.56588496
0.56593063
0.56597423
0.56601571
0.56605498
0.56609193
0.56612643
0.56615823
0.56618682
0.56621132
0.56623038
0.56624296
0.56624962
0.56625231
0.56625293
0.66489327
0.6668349
0.66501615
0.6665806
0.66548698
0.66615839
0.66558974
0.66560718
0.66513952
0.66436651
0.66259055
0.65967385
0.65634489
0.65456634
0.65619941
0.661691
0.66696535
0.66703992
0.66310502
0.66224651
0.66298633
0.66152358
0.66037274
0.66053177
0.65979918
0.6591024
0.65885996
0.65821977
0.65770108
0.65721002
0.65656885
0.65600323
0.65534315
0.65466984
0.65395705
0.65320437
0.65242613
0.65157174
0.65067398
0.64972578
0.64873051
0.64768341
0.64657976
0.64541602
0.64418916
0.64289595
0.64153404
0.64010301
0.63860204
0.63703207
0.63539468
0.63369298
0.63193001
0.63011076
0.62824126
0.62632831
0.62438035
0.62240636
0.62041633
0.61842057
0.61643012
0.61445514
0.61250594
0.61059234
0.60872262
0.6069045
0.60514512
0.60344925
0.60182206
0.60026624
0.59878441
0.59737755
0.59604562
0.5947885
0.59360524
0.5924942
0.59145335
0.59048041
0.58957318
0.5887292
0.58794588
0.58722063
0.58655065
0.58593306
0.58536509
0.58484418
0.58436763
0.58393265
0.58353647
0.58317643
0.58285012
0.58255508
0.58228876
0.58204895
0.58183347
0.58164012
0.58146701
0.58131216
0.58117279
0.58104133
0.58088534
0.58056264
0.57955258
0.57684355
0.57303714
0.57022055
0.56836905
0.56709971
0.56620839
0.56557721
0.56513049
0.56481687
0.56460032
0.56445517
0.56436284
0.5643098
0.56428611
0.56428441
0.56429923
0.56432644
0.56436288
0.56440617
0.56445444
0.56450624
0.56456041
0.56461604
0.5646724
0.56472891
0.56478508
0.56484054
0.56489499
0.56494818
0.56499992
0.56505005
0.56509843
0.56514499
0.56518963
0.56523228
0.56527283
0.56531116
0.56534711
0.5653804
0.56541047
0.56543636
0.5654566
0.56547001
0.56547713
0.56547999
0.56548065
0.66488973
0.66683932
0.66501394
0.66658112
0.66548742
0.66615856
0.66559177
0.66560965
0.66514735
0.66438464
0.6626258
0.65972312
0.65638834
0.65457352
0.65613789
0.66159412
0.66690404
0.66708269
0.6631556
0.66223312
0.66298653
0.66155076
0.66037596
0.66053418
0.65981352
0.65910896
0.65886862
0.65823138
0.65771108
0.65722273
0.65658239
0.65601798
0.65536001
0.65468812
0.65397756
0.65322667
0.65245078
0.65159871
0.65070318
0.64975733
0.64876455
0.64772008
0.64661915
0.64545815
0.64423402
0.64294343
0.64158397
0.64015512
0.63865594
0.63708725
0.63545049
0.63374865
0.63198459
0.63016318
0.62829029
0.6263726
0.62441842
0.62243663
0.62043716
0.61843029
0.61642709
0.61443778
0.61247274
0.61054193
0.60865383
0.6068163
0.60503671
0.60332001
0.60167157
0.60009428
0.59859095
0.5971627
0.5958096
0.59453165
0.593328
0.59219703
0.59113677
0.59014491
0.58921926
0.58835734
0.5875565
0.58681413
0.58612739
0.58549336
0.58490924
0.58437246
0.58388032
0.58343004
0.58301884
0.58264409
0.58230343
0.5819944
0.58171449
0.58146152
0.58123334
0.58102776
0.58084292
0.5806769
0.58052717
0.58038746
0.58023153
0.57994271
0.57907699
0.57663873
0.5728273
0.56982202
0.56785256
0.56650698
0.56556241
0.56489256
0.56441714
0.56408183
0.56384866
0.56369052
0.56358785
0.56352637
0.56349564
0.56348794
0.56349753
0.56352011
0.56355245
0.56359206
0.56363706
0.56368595
0.56373758
0.56379103
0.56384556
0.56390057
0.56395557
0.56401017
0.56406405
0.56411696
0.56416866
0.56421898
0.56426778
0.56431493
0.56436035
0.56440391
0.56444551
0.564485
0.56452219
0.56455677
0.56458815
0.5646153
0.56463662
0.5646508
0.56465835
0.56466138
0.56466207
0.66488601
0.6668439
0.66501166
0.66658164
0.66548789
0.66615871
0.66559387
0.66561215
0.66515532
0.66440312
0.66266192
0.65977391
0.65643361
0.65458182
0.65607575
0.66149406
0.66683988
0.66712501
0.66320879
0.66221984
0.66298609
0.66157883
0.66037963
0.66053639
0.6598283
0.6591158
0.65887744
0.65824333
0.65772134
0.65723575
0.65659627
0.65603305
0.65537725
0.65470681
0.65399852
0.65324945
0.65247593
0.65162623
0.650733
0.64978947
0.64879931
0.64775749
0.64665931
0.6455011
0.64427977
0.64299188
0.64163494
0.64020837
0.63871106
0.63714377
0.63550774
0.63380589
0.63204089
0.63021746
0.62834133
0.62641905
0.62445879
0.62246935
0.62046057
0.61844271
0.61642684
0.61442324
0.61244238
0.61049436
0.60858782
0.60673076
0.60493081
0.60319308
0.60152315
0.5999241
0.5983989
0.59694887
0.59557414
0.59427486
0.59305023
0.59189869
0.59081827
0.58980667
0.58886169
0.58798079
0.58716131
0.5864006
0.5856958
0.58504395
0.58444224
0.58388809
0.58337882
0.58291169
0.58248395
0.58209298
0.58173646
0.581412
0.58111712
0.58084966
0.58060751
0.58038851
0.58019081
0.58001256
0.57985141
0.57970221
0.57954403
0.57928256
0.57854484
0.57638322
0.57262296
0.569419
0.56732032
0.56589206
0.56489002
0.56417847
0.56367209
0.56331344
0.56306242
0.56289043
0.5627768
0.56270649
0.56266845
0.56265456
0.56265879
0.56267664
0.56270473
0.56274051
0.56278203
0.56282779
0.5628766
0.56292756
0.5629799
0.56303304
0.56308649
0.56313984
0.56319277
0.563245
0.5632963
0.56334646
0.56339533
0.56344277
0.56348864
0.56353285
0.56357523
0.56361563
0.56365383
0.5636895
0.563722
0.56375024
0.56377253
0.56378741
0.56379535
0.56379854
0.56379927
0.66488209
0.66684866
0.66500933
0.66658216
0.66548841
0.66615884
0.66559604
0.66561467
0.66516343
0.66442195
0.66269892
0.65982627
0.65648077
0.65459132
0.65601307
0.66139067
0.66677279
0.66716674
0.66326471
0.66220673
0.66298493
0.66160783
0.66038378
0.66053838
0.65984353
0.65912296
0.65888641
0.65825563
0.65773188
0.65724907
0.65661049
0.65604847
0.65539488
0.6547259
0.65401993
0.65327271
0.65250162
0.65165434
0.65076344
0.64982222
0.64883484
0.64779564
0.64670026
0.64554491
0.64432644
0.64304132
0.64168697
0.64026276
0.63876742
0.63720163
0.63556646
0.63386472
0.6320989
0.63027359
0.62839438
0.62646765
0.62450147
0.6225045
0.62048654
0.6184578
0.61642936
0.61441153
0.61241487
0.6104496
0.60852456
0.60664787
0.6048274
0.60306844
0.60137676
0.59975566
0.59820826
0.59673605
0.59533926
0.59401815
0.59277199
0.59159926
0.590498
0.58946592
0.58850078
0.58760002
0.58676093
0.58598085
0.58525688
0.58458607
0.58396556
0.58339282
0.58286518
0.58237994
0.5819344
0.58152597
0.58115237
0.58081129
0.58050028
0.58021722
0.57996004
0.5797266
0.57951508
0.57932366
0.57915017
0.57899035
0.57882773
0.57858723
0.57796037
0.57607231
0.57242408
0.56901912
0.56677873
0.56526088
0.56419704
0.56344072
0.56290108
0.56251738
0.56224725
0.56206051
0.56193533
0.5618558
0.56181023
0.56179004
0.56178886
0.56180195
0.56182577
0.56185767
0.56189563
0.56193811
0.56198392
0.56203214
0.56208202
0.56213297
0.56218451
0.56223624
0.56228783
0.562339
0.56238951
0.56243914
0.56248771
0.56253508
0.5625811
0.56262564
0.56266852
0.56270957
0.56274855
0.56278509
0.56281853
0.56284772
0.56287087
0.5628864
0.5628947
0.56289803
0.56289879
0.66487797
0.66685359
0.66500694
0.66658267
0.66548898
0.66615895
0.66559828
0.66561721
0.66517167
0.66444111
0.66273682
0.65988024
0.6565299
0.65460213
0.65594996
0.66128381
0.66670268
0.6672077
0.66332349
0.66219389
0.662983
0.66163774
0.66038847
0.66054014
0.65985921
0.65913044
0.65889552
0.6582683
0.65774269
0.6572627
0.65662508
0.65606424
0.65541293
0.65474542
0.65404181
0.65329648
0.65252784
0.65168303
0.65079452
0.64985563
0.64887111
0.64783457
0.64674204
0.64558958
0.64437403
0.64309175
0.64174008
0.6403183
0.63882502
0.63726084
0.63562664
0.63392513
0.63215863
0.63033159
0.62844943
0.62651841
0.62454644
0.62254209
0.62051508
0.61847556
0.61643462
0.61440261
0.61239017
0.61040764
0.60846403
0.6065676
0.60472646
0.60294606
0.6012324
0.59958894
0.598019
0.59652424
0.59510497
0.59376155
0.59249335
0.59129886
0.59017615
0.58912293
0.58813692
0.58721555
0.58635606
0.58555577
0.58481177
0.58412109
0.58348087
0.58288858
0.58234162
0.58183731
0.581373
0.58094615
0.58055454
0.58019591
0.57986785
0.5795683
0.57929523
0.57904651
0.57882035
0.57861498
0.57842835
0.57825692
0.57808786
0.57786228
0.57732904
0.57570301
0.57222753
0.56863048
0.56623411
0.56461922
0.56348903
0.56268471
0.56210938
0.56169875
0.56140811
0.56120559
0.56106813
0.5609789
0.56092553
0.56089889
0.56089226
0.5609006
0.56092019
0.56094823
0.56098262
0.56102177
0.56106447
0.56110978
0.56115698
0.56120547
0.56125479
0.56130454
0.56135441
0.56140412
0.56145344
0.56150213
0.56155002
0.56159694
0.56164273
0.56168725
0.5617303
0.56177169
0.56181116
0.56184832
0.56188247
0.56191241
0.56193627
0.56195235
0.56196097
0.56196443
0.56196522
0.66487364
0.66685871
0.66500449
0.66658318
0.66548959
0.66615904
0.6656006
0.66561977
0.66518004
0.6644606
0.6627756
0.65993585
0.65658109
0.65461432
0.65588655
0.66117337
0.66662946
0.66724772
0.66338523
0.66218143
0.66298023
0.66166859
0.66039376
0.66054165
0.65987536
0.65913827
0.65890477
0.65828134
0.6577538
0.65727666
0.65664005
0.65608037
0.65543139
0.65476537
0.65406417
0.65332076
0.65255462
0.65171234
0.65082626
0.64988986
0.64890798
0.64787433
0.64678464
0.64563515
0.64442258
0.64314319
0.64179427
0.64037505
0.6388839
0.63732142
0.6356883
0.63398714
0.63222009
0.63039145
0.62850649
0.62657131
0.6245937
0.62258211
0.62054617
0.61849598
0.61644262
0.61439649
0.61236828
0.61036846
0.60840621
0.60648994
0.60462796
0.60282593
0.60109003
0.59942393
0.59783112
0.59631342
0.59487126
0.59350509
0.59221437
0.59099761
0.58985292
0.58877799
0.58777053
0.58682794
0.58594745
0.58512633
0.58436167
0.58365048
0.58298992
0.58237746
0.58181052
0.58128649
0.58080276
0.58035683
0.57994654
0.57956971
0.57922396
0.57890728
0.57861767
0.57835303
0.57811161
0.57789167
0.57769126
0.57750738
0.57733012
0.57711398
0.57665768
0.57527491
0.57202753
0.56826188
0.56569337
0.56397349
0.56277232
0.56191668
0.56130312
0.56086359
0.56055093
0.5603315
0.56018095
0.56008148
0.56001996
0.55998672
0.55997459
0.55997823
0.55999368
0.56001796
0.56004888
0.56008476
0.56012436
0.56016673
0.56021112
0.56025698
0.56030383
0.56035132
0.56039913
0.56044701
0.56049473
0.56054207
0.56058885
0.56063491
0.56068008
0.5607242
0.56076707
0.56080846
0.56084811
0.5608856
0.56092021
0.56095068
0.56097508
0.56099159
0.56100047
0.56100403
0.56100484
0.66486908
0.66686402
0.66500198
0.66658369
0.66549026
0.6661591
0.665603
0.66562234
0.66518854
0.66448042
0.66281529
0.65999313
0.6566344
0.65462799
0.65582296
0.66105921
0.666553
0.66728661
0.66345007
0.66216945
0.66297654
0.66170035
0.66039969
0.66054288
0.65989199
0.65914648
0.65891416
0.65829478
0.65776521
0.65729094
0.65665541
0.65609688
0.65545029
0.65478577
0.65408702
0.65334558
0.65258198
0.65174227
0.65085867
0.64992488
0.6489455
0.64791498
0.64682809
0.64568163
0.6444721
0.64319567
0.64184957
0.64043295
0.63894405
0.63738338
0.63575145
0.63405076
0.63228328
0.63045317
0.62856555
0.62662635
0.62464325
0.62262454
0.62057979
0.61851903
0.61645334
0.61439313
0.61234917
0.61033204
0.60835108
0.60641484
0.60453188
0.602708
0.60094962
0.59926059
0.59764458
0.5961036
0.59463814
0.59324881
0.59193512
0.59069564
0.5895285
0.58843139
0.58740203
0.58643778
0.58553585
0.5846935
0.5839078
0.58317576
0.58249451
0.58186156
0.58127434
0.58073028
0.58022681
0.57976148
0.57933219
0.5789368
0.578573
0.5782388
0.57793227
0.57765134
0.57739425
0.57715932
0.57694467
0.57674772
0.57656084
0.57634931
0.57595439
0.57479065
0.57181642
0.56792217
0.56516394
0.56333073
0.56205386
0.5611435
0.56048909
0.56001859
0.55968228
0.5594447
0.55928015
0.55916979
0.55909972
0.55905966
0.55904197
0.55904095
0.55905238
0.55907308
0.5591007
0.55913349
0.55917012
0.55920961
0.55925122
0.55929437
0.55933863
0.55938365
0.55942913
0.55947486
0.55952062
0.55956621
0.55961146
0.55965623
0.55970034
0.55974363