/*--------------------------------*- C++ -*----------------------------------*\
| =========                 |                                                 |
| \\      /  F ield         | OpenFOAM: The Open Source CFD Toolbox           |
|  \\    /   O peration     | Version:  2506                                  |
|   \\  /    A nd           | Website:  www.openfoam.com                      |
|    \\/     M anipulation  |                                                 |
\*---------------------------------------------------------------------------*/
FoamFile
{
    version     2.0;
    format      ascii;
    arch        "LSB;label=32;scalar=64";
    class       volScalarField;
    location    "0.018";
    object      rho;
}
// * * * * * * * * * * * * * * * * * * * * * * * * * * * * * * * * * * * * * //

dimensions      [1 -3 0 0 0 0 0];

internalField   nonuniform List<scalar> 
192657
(
0.66490627
0.66681072
0.66506229
0.66659594
0.66549087
0.66616695
0.66558088
0.66553707
0.66494685
0.6639066
0.66175372
0.65851759
0.65531883
0.6544429
0.65796048
0.66466916
0.66904845
0.66566626
0.66152124
0.66292349
0.66369974
0.66107526
0.66081625
0.66125949
0.66016721
0.65972521
0.65920312
0.65868809
0.65831847
0.65787871
0.65723905
0.65656987
0.65575748
0.65481012
0.65412081
0.65365554
0.65290475
0.65192132
0.65093452
0.649894
0.6489143
0.64774779
0.64671267
0.64574568
0.64462604
0.64319042
0.6419664
0.64034218
0.63882659
0.63722062
0.63538897
0.63381985
0.63190491
0.62986906
0.62809112
0.62630565
0.62443452
0.62251433
0.62055325
0.61870055
0.6168398
0.61501001
0.61323131
0.61150841
0.60985059
0.60828627
0.60673842
0.60529214
0.60393381
0.60259835
0.60132092
0.60016896
0.59915648
0.59817572
0.59718779
0.59625861
0.59541863
0.59464202
0.5938922
0.5932075
0.59259455
0.59200176
0.59142654
0.59089642
0.59039893
0.5899201
0.58947145
0.58903905
0.58863462
0.58826897
0.58793117
0.58761138
0.58729642
0.58699434
0.586697
0.58640234
0.58612876
0.58586342
0.58559687
0.58534151
0.58508861
0.58484132
0.58460357
0.58323765
0.57732902
0.57241277
0.56983544
0.56835012
0.5675234
0.56707795
0.56686673
0.56680115
0.56683324
0.56692947
0.56706956
0.56723084
0.56740241
0.56757853
0.56775475
0.56792776
0.56809489
0.5682543
0.5684048
0.56854565
0.56867645
0.56879702
0.56890735
0.56900748
0.56909751
0.56917746
0.56924728
0.56930675
0.56935732
0.56939923
0.56943248
0.56945653
0.56946844
0.56946403
0.56944223
0.56940702
0.56936196
0.56930859
0.56925041
0.56919433
0.56914932
0.56912125
0.56910834
0.56910453
0.5691046
0.66490403
0.66680917
0.66506039
0.66659325
0.66548972
0.66616788
0.66558267
0.66553973
0.66495459
0.66392301
0.66178275
0.65855431
0.6553443
0.65443289
0.65789503
0.66459722
0.66903265
0.66572932
0.66153272
0.66289699
0.66370564
0.66109187
0.66080656
0.66126572
0.66017281
0.65972971
0.65920967
0.65868732
0.65831359
0.65788228
0.65725451
0.65659926
0.6557833
0.65482053
0.65411192
0.65364176
0.65290106
0.65193189
0.65095102
0.64990996
0.64893139
0.64776098
0.64672908
0.64576437
0.64465157
0.64322929
0.64201493
0.64039193
0.63889475
0.6372705
0.63545714
0.63388059
0.63195313
0.62992185
0.62815026
0.62635629
0.62446878
0.62253758
0.62056372
0.61869303
0.61682549
0.61497869
0.61318584
0.61144705
0.60977171
0.60818485
0.60661868
0.60515562
0.60377407
0.60241506
0.60111941
0.59995871
0.59893699
0.59792744
0.59690966
0.59596738
0.59512374
0.59433264
0.59357554
0.59288352
0.59225904
0.59165659
0.59107806
0.59054797
0.59004705
0.58956859
0.58912698
0.58870505
0.58831261
0.58794598
0.58758906
0.58725026
0.58693804
0.58665527
0.5863892
0.58613369
0.58588705
0.58564456
0.58540982
0.58518062
0.58495876
0.58473619
0.58437596
0.58240618
0.57611506
0.57150916
0.56913099
0.5676618
0.56668113
0.56600254
0.56552658
0.56519179
0.56495902
0.56480239
0.56470323
0.56464809
0.56462635
0.56463006
0.56465217
0.56468549
0.56472494
0.56476801
0.56481305
0.56485879
0.56490413
0.56494827
0.56499057
0.56503057
0.56506793
0.56510242
0.5651339
0.5651623
0.56518759
0.56520982
0.56522913
0.56524571
0.56525984
0.56527189
0.56528225
0.56529129
0.56529934
0.56530678
0.56531437
0.56532217
0.56532938
0.56533492
0.56533823
0.56533975
0.56534022
0.66490108
0.66680625
0.66505922
0.66659307
0.66548924
0.66616882
0.66558443
0.6655424
0.66496234
0.66393954
0.66181212
0.65859165
0.65537031
0.65442289
0.65782839
0.66452438
0.66901557
0.66579376
0.66154513
0.66286947
0.6637115
0.66110877
0.66079701
0.66127172
0.66017812
0.65973423
0.6592163
0.65868628
0.65830829
0.65788443
0.65726897
0.65662968
0.65581325
0.65483738
0.65410773
0.65362649
0.65288901
0.65193743
0.65096582
0.64992524
0.64894732
0.6477747
0.64674658
0.64578646
0.64468253
0.64327308
0.64206677
0.64044816
0.63896826
0.63732719
0.63553183
0.63394651
0.63200823
0.62998052
0.62821343
0.62640995
0.62450444
0.62256082
0.62057333
0.61868938
0.61680592
0.61494118
0.61313389
0.61137915
0.60968395
0.60807546
0.60649058
0.6050064
0.60359779
0.60221699
0.60091326
0.59974686
0.59870216
0.59765895
0.59661351
0.5956626
0.59481087
0.59400938
0.59324185
0.59254389
0.5919095
0.59129424
0.59070557
0.59016731
0.58966321
0.58918343
0.58873924
0.58831761
0.58793008
0.58758266
0.58726639
0.58696811
0.58667899
0.58641008
0.58615047
0.58590254
0.58568178
0.58547265
0.58526741
0.58507653
0.584889
0.58470261
0.58443026
0.58280935
0.57655389
0.57177954
0.56944139
0.56808534
0.56724248
0.56671652
0.56639429
0.56620473
0.56610485
0.56606759
0.56607195
0.56610329
0.56615214
0.56621166
0.56627754
0.56634838
0.56642321
0.56649988
0.56657643
0.56665143
0.56672386
0.56679301
0.56685838
0.56691965
0.56697661
0.56702915
0.56707719
0.56712074
0.56715977
0.56719427
0.56722425
0.56724966
0.56727046
0.56728658
0.56729801
0.56730488
0.56730761
0.56730691
0.56730326
0.56729801
0.56729297
0.56728956
0.567288
0.56728769
0.56728789
0.6648979
0.66680594
0.66506045
0.666594
0.66548885
0.66616969
0.66558619
0.66554508
0.66497008
0.66395611
0.66184175
0.65862947
0.65539685
0.65441337
0.65776105
0.66445087
0.66899725
0.66585892
0.66155837
0.66284123
0.66371668
0.66112624
0.66078774
0.66127731
0.66018351
0.65973882
0.65922319
0.65868536
0.65830295
0.65788528
0.65728188
0.65665888
0.65584154
0.65485168
0.65410254
0.6536141
0.65288244
0.65194448
0.65097846
0.64993947
0.64896158
0.647787
0.64675936
0.64580176
0.6447007
0.64330623
0.64210662
0.64049448
0.63903093
0.63737353
0.63559697
0.63400056
0.63205314
0.63003176
0.62826937
0.62645503
0.62453227
0.62257753
0.6205784
0.61868174
0.61678463
0.61490307
0.61308118
0.61130957
0.60959618
0.60796466
0.60636087
0.60485745
0.60342402
0.60202118
0.60070115
0.59952314
0.59846076
0.59738638
0.59631765
0.59535827
0.59450161
0.59368575
0.59291121
0.59220488
0.59156002
0.59093913
0.59035151
0.58981553
0.58931083
0.58883375
0.58839817
0.58798631
0.58760668
0.58725497
0.58692285
0.58661387
0.58633655
0.58609267
0.58586703
0.5856579
0.58546143
0.58527138
0.58509486
0.58492731
0.58476773
0.58461139
0.58433554
0.58278399
0.57680003
0.57171026
0.56928519
0.56784198
0.56692404
0.56632659
0.56593744
0.56568589
0.56552669
0.56543408
0.56539068
0.56538339
0.56540356
0.5654456
0.56550327
0.5655707
0.56564306
0.56571703
0.56579064
0.56586276
0.5659326
0.56599958
0.56606324
0.56612327
0.56617949
0.56623182
0.5662803
0.566325
0.56636604
0.56640359
0.56643787
0.56646909
0.56649751
0.56652338
0.56654692
0.5665683
0.5665876
0.56660471
0.56661927
0.56663073
0.56663869
0.5666434
0.56664582
0.56664692
0.5666473
0.66489499
0.66680806
0.66506162
0.66659533
0.66549085
0.66617049
0.66558802
0.66554783
0.66497804
0.66397317
0.66187241
0.65866884
0.65542473
0.65440393
0.65769109
0.66437442
0.6689769
0.66592651
0.66157325
0.66281157
0.66372189
0.66114465
0.66077839
0.66128286
0.660189
0.65974358
0.65923046
0.65868468
0.65829779
0.65788514
0.65729398
0.65668918
0.65587436
0.65487328
0.6541032
0.65360122
0.6528683
0.65194622
0.65098954
0.64995387
0.64897545
0.64780078
0.64677394
0.64582147
0.64472502
0.64334538
0.64215091
0.64054769
0.63909951
0.63742732
0.63566938
0.63406111
0.63210602
0.63009033
0.6283308
0.62650524
0.62456414
0.62259734
0.62058413
0.61867442
0.61676123
0.61486101
0.61302427
0.61123559
0.60950158
0.60784836
0.60622664
0.60470027
0.60323846
0.60181491
0.60048788
0.59930091
0.59820836
0.59709733
0.59600608
0.59504309
0.59417512
0.59334674
0.59256308
0.5918479
0.59118916
0.59055498
0.58995774
0.58941509
0.58890845
0.5884328
0.58799843
0.58759336
0.58722623
0.58690021
0.58660755
0.58633143
0.58606894
0.58583206
0.58560833
0.58540212
0.58522354
0.58505621
0.58489507
0.58474687
0.58460219
0.58446081
0.58423609
0.58292834
0.57719794
0.57182902
0.56930674
0.56780789
0.56684744
0.56622282
0.5658215
0.56557648
0.5654402
0.5653751
0.56535826
0.5653753
0.56541656
0.56547343
0.56553916
0.56561052
0.56568571
0.56576312
0.56584078
0.56591776
0.56599308
0.5660659
0.56613554
0.56620153
0.5662636
0.56632165
0.56637564
0.56642559
0.56647153
0.56651349
0.56655152
0.56658569
0.56661602
0.56664256
0.56666532
0.56668437
0.5666999
0.56671216
0.56672156
0.56672849
0.56673337
0.56673655
0.56673843
0.56673941
0.56673982
0.66489252
0.66681241
0.66506092
0.66659693
0.66549521
0.66617114
0.66558984
0.66555056
0.66498604
0.66399032
0.66190342
0.65870881
0.65545333
0.65439513
0.65762043
0.66429723
0.6689552
0.66599483
0.6615893
0.66278106
0.66372626
0.66116368
0.6607691
0.66128804
0.66019458
0.65974853
0.65923799
0.65868417
0.65829282
0.65788365
0.65730452
0.65671822
0.65590568
0.65489235
0.65410284
0.65359092
0.6528599
0.65195016
0.65099884
0.64996713
0.64898753
0.64781353
0.64678429
0.64583461
0.64473669
0.64337412
0.64218306
0.64059059
0.63915638
0.6374703
0.63573096
0.63410991
0.63214862
0.63014095
0.62838415
0.62654621
0.6245887
0.62261037
0.62058559
0.61866313
0.61673489
0.61481734
0.61296541
0.61115888
0.60940637
0.60772979
0.60608807
0.60454016
0.60305293
0.60160928
0.60026705
0.59906401
0.59794583
0.59680394
0.59569676
0.59472733
0.5938515
0.59300894
0.59221709
0.59149162
0.59082312
0.59018502
0.58958914
0.58904762
0.58854019
0.58806565
0.58763654
0.58723466
0.58686568
0.58652732
0.58621755
0.58593446
0.58568579
0.58546987
0.58527078
0.58508993
0.58492328
0.58476392
0.58461783
0.58448006
0.58434993
0.5842215
0.58398882
0.58280175
0.57761021
0.57184654
0.5691786
0.56761789
0.56663006
0.56599031
0.56557397
0.56530974
0.56515169
0.56506841
0.56503871
0.56504653
0.5650785
0.56512587
0.56518452
0.56525067
0.56532135
0.56539447
0.56546879
0.56554239
0.56561431
0.56568385
0.56575043
0.56581366
0.56587339
0.56592968
0.56598247
0.5660318
0.56607772
0.56612036
0.56615988
0.56619651
0.56623045
0.56626189
0.56629096
0.5663177
0.56634207
0.56636383
0.56638261
0.56639787
0.56640908
0.56641624
0.56642009
0.56642177
0.56642226
0.66489005
0.66681783
0.66505844
0.66659865
0.66549917
0.66617163
0.66559176
0.66555323
0.6649943
0.66400804
0.66193565
0.65875062
0.6554836
0.65438661
0.65754686
0.66421648
0.66893093
0.66606577
0.66160759
0.66274883
0.66373059
0.66118398
0.66075953
0.66129323
0.66020045
0.65975377
0.65924597
0.65868404
0.65828825
0.65788125
0.65731418
0.65674808
0.65594136
0.654919
0.65410896
0.65358084
0.65284555
0.65194921
0.65100654
0.64998085
0.64899962
0.64782789
0.64679704
0.64585262
0.64475484
0.64340938
0.64221962
0.64063983
0.63921878
0.63752018
0.63579889
0.63416521
0.63219904
0.63019851
0.62844278
0.62659242
0.62461804
0.62262685
0.62058824
0.61865153
0.61670644
0.61476989
0.61290249
0.61107775
0.60930388
0.60760571
0.60594631
0.60437397
0.60285843
0.60139551
0.60004523
0.59882739
0.59767344
0.59649596
0.59537213
0.59440091
0.59350948
0.59265234
0.59185135
0.59111311
0.59042712
0.58977502
0.58916867
0.58862024
0.58810971
0.58763577
0.58720753
0.58681378
0.58645944
0.58614642
0.58586625
0.58559999
0.58535133
0.58513132
0.58492739
0.58474398
0.58458495
0.58443525
0.58429286
0.58416186
0.5840321
0.58390672
0.58372165
0.58273588
0.57788428
0.57183024
0.56901612
0.56737718
0.56633753
0.56566365
0.56522629
0.56494686
0.56477539
0.56467916
0.56463615
0.56463131
0.56465431
0.56469753
0.56475509
0.56482242
0.56489589
0.56497262
0.56505035
0.56512755
0.56520291
0.5652757
0.56534562
0.56541259
0.56547655
0.56553746
0.56559521
0.56564959
0.56570053
0.56574798
0.56579195
0.56583265
0.56587024
0.56590478
0.56593633
0.56596489
0.56599046
0.56601295
0.56603216
0.56604774
0.56605924
0.56606657
0.56607047
0.56607214
0.56607263
0.66488698
0.66682289
0.66505567
0.66660025
0.66550115
0.6661719
0.66559366
0.6655558
0.6650026
0.6640259
0.6619683
0.65879311
0.65551467
0.65437872
0.65747258
0.6641349
0.66890517
0.66613716
0.66162753
0.66271552
0.6637341
0.66120495
0.66074991
0.66129814
0.6602065
0.65975919
0.6592542
0.65868419
0.658284
0.65787752
0.65732224
0.65677652
0.65597552
0.65494308
0.65411451
0.65357374
0.65283789
0.65195105
0.65101305
0.6499933
0.64900996
0.64784137
0.6468061
0.64586394
0.64476065
0.64343466
0.64224383
0.64067873
0.63926879
0.63755876
0.63585506
0.63420854
0.63223904
0.63024724
0.62849272
0.62662908
0.62463959
0.62263536
0.62058588
0.61863547
0.61667464
0.61472068
0.61283699
0.61099325
0.60920051
0.60747914
0.60579868
0.60420274
0.60266213
0.60118086
0.59981493
0.59857516
0.59738948
0.59618399
0.59505098
0.59407217
0.59316893
0.59229752
0.5914857
0.5907346
0.590039
0.58938281
0.58877562
0.58822455
0.58771048
0.58723327
0.5868033
0.58640321
0.58603564
0.58570185
0.58540344
0.58513317
0.58489796
0.58469221
0.58450094
0.58432815
0.58417016
0.58402051
0.58388218
0.58375122
0.58362698
0.58350414
0.58330459
0.5824505
0.57824211
0.57189591
0.56882479
0.56707928
0.56598659
0.56528108
0.56482107
0.56452416
0.56433913
0.56423254
0.56418172
0.56417061
0.56418798
0.56422558
0.56427739
0.56433899
0.56440706
0.56447916
0.5645534
0.56462833
0.56470277
0.56477578
0.56484659
0.56491459
0.5649793
0.56504025
0.56509742
0.56515114
0.56520164
0.5652492
0.56529408
0.56533632
0.56537603
0.56541329
0.56544807
0.56548031
0.56550983
0.56553631
0.56555933
0.56557826
0.56559231
0.56560126
0.56560598
0.56560795
0.56560847
0.66488316
0.66682728
0.66505333
0.66660213
0.66550217
0.66617202
0.66559567
0.66555832
0.66501115
0.66404435
0.66200223
0.6588376
0.65554766
0.65437135
0.65739538
0.66404947
0.66887625
0.66621082
0.66165054
0.6626803
0.66373752
0.66122723
0.66074005
0.66130306
0.66021287
0.65976488
0.65926292
0.65868486
0.65828023
0.65787288
0.65732931
0.65680534
0.65601358
0.6549748
0.65412816
0.65356823
0.65282569
0.65194667
0.65101794
0.65000628
0.64902062
0.64785641
0.64681811
0.64588007
0.64477298
0.6434664
0.64227245
0.64072366
0.63932367
0.63760357
0.63591707
0.63425782
0.63228638
0.63030212
0.62854752
0.62667085
0.62466507
0.62264645
0.62058332
0.6186183
0.6166404
0.61466784
0.61276747
0.61090459
0.60908981
0.60734728
0.60564897
0.60402761
0.60245987
0.60096028
0.59958304
0.5983214
0.59709735
0.59586046
0.59471562
0.59373318
0.59280984
0.59192188
0.59109956
0.59033159
0.58961572
0.58894488
0.58832616
0.58776741
0.58724763
0.58676801
0.58633586
0.58594205
0.58558789
0.58527444
0.58499153
0.58471987
0.58447
0.58425113
0.58405085
0.58387273
0.5837147
0.58356478
0.58342328
0.58329196
0.58316097
0.58303638
0.58287985
0.58218423
0.57835674
0.57186758
0.56852575
0.5666727
0.56551773
0.56477067
0.56428196
0.56396469
0.56376458
0.56364618
0.56358565
0.56356637
0.5635769
0.56360888
0.56365616
0.56371414
0.56377933
0.56384909
0.56392136
0.56399462
0.56406768
0.56413966
0.56420993
0.564278
0.56434355
0.56440634
0.56446621
0.56452307
0.56457686
0.56462756
0.5646752
0.56471984
0.56476154
0.56480037
0.56483645
0.56486982
0.56490048
0.5649283
0.56495279
0.56497315
0.56498841
0.56499814
0.56500324
0.56500533
0.56500587
0.66487896
0.66683188
0.66505074
0.66660448
0.66550299
0.66617201
0.66559764
0.66556077
0.66501972
0.66406298
0.66203664
0.65888286
0.65558155
0.65436467
0.65731753
0.66396319
0.66884563
0.66628483
0.66167587
0.66264388
0.66374015
0.66125013
0.66073002
0.66130767
0.66021936
0.65977071
0.659272
0.65868587
0.65827689
0.65786703
0.6573347
0.65683251
0.65604989
0.65500395
0.65414096
0.65356656
0.65282059
0.65194633
0.65102224
0.65001782
0.6490297
0.6478704
0.64682704
0.64588904
0.64477328
0.64348772
0.64228879
0.64075859
0.6393649
0.63763669
0.63596702
0.6342954
0.632323
0.63034753
0.62859335
0.62670294
0.62468227
0.62264973
0.62057585
0.61859705
0.61660276
0.61461318
0.61269499
0.61081222
0.60897814
0.60721295
0.60549237
0.60384571
0.60225397
0.60073705
0.59934204
0.5980523
0.59679342
0.59553299
0.59438356
0.59338934
0.59244993
0.59154715
0.59071033
0.58992674
0.5892006
0.58852366
0.58790029
0.58733396
0.58680668
0.58631828
0.58587649
0.58546703
0.58509027
0.58475035
0.58445042
0.58417894
0.58394131
0.58372942
0.58353033
0.58335015
0.58318584
0.5830309
0.58288528
0.58274801
0.58261771
0.58248811
0.58231065
0.58172528
0.57857397
0.57201635
0.56827827
0.56628902
0.56506341
0.56427151
0.56375147
0.56341093
0.56319283
0.56306012
0.56298792
0.56295898
0.56296129
0.56298625
0.56302751
0.56308036
0.56314123
0.56320741
0.56327682
0.56334781
0.56341915
0.56348986
0.5635592
0.56362664
0.56369178
0.56375437
0.56381424
0.56387133
0.56392562
0.56397711
0.56402588
0.564072
0.56411555
0.56415657
0.56419505
0.56423095
0.56426412
0.56429428
0.56432089
0.56434311
0.56435983
0.56437052
0.56437609
0.56437834
0.56437888
0.66487498
0.66683743
0.66504783
0.66660836
0.66550329
0.66617201
0.66559976
0.66556334
0.66502853
0.66408223
0.66207237
0.65893023
0.65561758
0.6543587
0.65723687
0.66387286
0.66881124
0.66636163
0.66170444
0.66260552
0.66374254
0.66127455
0.66071974
0.66131218
0.66022615
0.65977681
0.65928167
0.65868743
0.65827421
0.65786041
0.65733895
0.65685957
0.65608949
0.65504066
0.6541621
0.65356702
0.65281181
0.65193932
0.65102474
0.65002971
0.64903945
0.64788609
0.64683935
0.6459027
0.64478031
0.64351491
0.64230948
0.64079915
0.63941016
0.63767551
0.63602261
0.6343391
0.63236638
0.63039862
0.62864274
0.62673937
0.62470307
0.62265561
0.62056795
0.6185742
0.61656253
0.61455489
0.61261896
0.61071652
0.6088596
0.60707368
0.60533462
0.60366213
0.60204518
0.60051017
0.5990988
0.59778025
0.59648374
0.59519811
0.59403952
0.59303667
0.59207308
0.59115203
0.59030222
0.58949799
0.58874976
0.58805774
0.58742167
0.58684647
0.58631042
0.58581606
0.58536862
0.58496215
0.58459543
0.584268
0.5839679
0.58367804
0.58341459
0.58318442
0.58297543
0.58278919
0.58261963
0.58245844
0.58230678
0.5821646
0.58202402
0.58189046
0.58174869
0.58127321
0.57848565
0.57204569
0.56789816
0.5657787
0.56447974
0.56363884
0.56308498
0.56272057
0.56248504
0.56233904
0.56225628
0.56221866
0.56221353
0.56223208
0.56226779
0.56231584
0.56237263
0.56243538
0.56250198
0.56257077
0.56264045
0.56271003
0.56277873
0.56284594
0.56291125
0.56297433
0.56303499
0.56309311
0.56314862
0.56320152
0.56325184
0.56329964
0.56334498
0.5633879
0.56342838
0.56346638
0.56350172
0.56353407
0.5635628
0.5635869
0.56360507
0.56361664
0.56362262
0.563625
0.56362555
0.6648716
0.66684399
0.66504245
0.66661069
0.66550301
0.66617213
0.66560189
0.66556637
0.66503742
0.66410168
0.66210863
0.65897843
0.65565457
0.6543535
0.65715568
0.66378162
0.66877499
0.6664394
0.66173477
0.66256593
0.66374409
0.66129969
0.66070915
0.6613163
0.66023305
0.65978302
0.65929178
0.65868943
0.65827211
0.65785271
0.65734145
0.65688474
0.6561271
0.65507467
0.65418168
0.65357083
0.65281126
0.65193812
0.65102738
0.65004006
0.64904772
0.64790069
0.64684875
0.6459092
0.64477577
0.64353152
0.64231792
0.64082969
0.6394412
0.63770257
0.63606619
0.63437153
0.63239858
0.63043961
0.62868235
0.62676562
0.62471462
0.62265277
0.62055412
0.61854741
0.61651918
0.61449472
0.61254007
0.61061688
0.6087397
0.60693177
0.60516955
0.60347082
0.60183118
0.60027889
0.59884626
0.59749443
0.59616316
0.59485918
0.59369761
0.59267666
0.59169303
0.59075605
0.58988762
0.58906512
0.58830495
0.58760332
0.58695764
0.5863692
0.58582101
0.58531264
0.58484924
0.58442038
0.58402537
0.58367041
0.5833573
0.58307226
0.58281901
0.58258834
0.58237052
0.5821723
0.58199178
0.58182204
0.58166088
0.58150981
0.5813675
0.58122359
0.58105629
0.58066257
0.57850135
0.57228124
0.56762197
0.56533654
0.5639446
0.56304304
0.56244781
0.56205393
0.5617965
0.5616336
0.5615373
0.56148861
0.56147402
0.56148446
0.56151313
0.56155503
0.56160646
0.56166457
0.56172718
0.56179261
0.56185951
0.56192684
0.56199376
0.56205966
0.56212404
0.56218655
0.56224694
0.56230507
0.56236083
0.56241416
0.56246509
0.56251364
0.56255985
0.56260374
0.5626453
0.56268442
0.56272096
0.56275455
0.56278454
0.56280984
0.56282903
0.56284131
0.56284767
0.56285017
0.56285072
0.66486847
0.66685079
0.66503681
0.66661183
0.66550269
0.66617253
0.66560417
0.66556982
0.66504653
0.66412176
0.66214624
0.65902887
0.65569396
0.65434928
0.65707191
0.66368608
0.66873445
0.66651938
0.6617686
0.66252453
0.66374527
0.66132658
0.66069832
0.66132011
0.66024036
0.65978942
0.65930251
0.65869212
0.65827071
0.65784442
0.65734274
0.65690935
0.65616735
0.65511575
0.65420986
0.65357848
0.65280723
0.65193222
0.65102796
0.65005087
0.649057
0.64791728
0.64686152
0.64592085
0.64477838
0.64355376
0.64233092
0.6408649
0.63947616
0.63773515
0.6361153
0.63440943
0.6324369
0.63048553
0.62872484
0.62679521
0.62472858
0.62265158
0.62054112
0.61851875
0.61647332
0.61443118
0.61245862
0.6105152
0.60861388
0.60678564
0.60500443
0.60328012
0.60161717
0.60004628
0.59859121
0.59720522
0.59583994
0.59451785
0.59334704
0.5923106
0.59129966
0.59034296
0.58945845
0.58861226
0.58782911
0.58711211
0.58645253
0.58585346
0.58529291
0.58477475
0.58430289
0.58387328
0.58348292
0.58313081
0.58280277
0.58248582
0.5822004
0.58195023
0.58172389
0.5815203
0.5813313
0.58115224
0.58098406
0.58082494
0.58067087
0.58052428
0.58038319
0.58005109
0.5781753
0.57236077
0.56722261
0.56477044
0.56328401
0.56232173
0.56168618
0.56126443
0.56098698
0.5608091
0.56070112
0.56064296
0.56062037
0.5606239
0.56064649
0.56068301
0.56072967
0.5607836
0.5608426
0.56090496
0.56096933
0.56103463
0.56110002
0.56116484
0.56122858
0.56129084
0.56135133
0.56140989
0.56146637
0.56152069
0.56157284
0.56162281
0.56167063
0.5617163
0.56175977
0.56180091
0.56183952
0.56187518
0.56190714
0.56193417
0.56195469
0.56196779
0.56197451
0.56197713
0.56197769
0.66486478
0.6668572
0.66503352
0.6666099
0.66550289
0.66617313
0.66560645
0.6655735
0.66505568
0.66414207
0.66218437
0.65908017
0.65573439
0.65434592
0.65698763
0.66358923
0.66869204
0.66660035
0.66180463
0.66248194
0.66374567
0.66135434
0.66068712
0.66132338
0.66024785
0.65979572
0.65931374
0.65869544
0.65826991
0.65783526
0.65734193
0.65693182
0.65620536
0.65515377
0.65423589
0.65358859
0.6528114
0.6519339
0.65102978
0.65006048
0.64906482
0.64793265
0.64687113
0.64592615
0.6447703
0.64356338
0.64233179
0.64088968
0.63949705
0.63775624
0.63615235
0.63443556
0.63246359
0.63052088
0.62875766
0.62681391
0.62473246
0.62264254
0.62052206
0.61848648
0.61642475
0.61436607
0.61237463
0.61040955
0.60848669
0.60663726
0.60483248
0.60308159
0.6013969
0.59980791
0.59832751
0.59690528
0.59550792
0.59417228
0.59299685
0.59193546
0.59090134
0.58992704
0.58902
0.58815328
0.58735574
0.58662469
0.5859501
0.58533215
0.58475475
0.58421778
0.58372526
0.58326961
0.58284896
0.58247229
0.58213705
0.58182882
0.58155028
0.58129223
0.58104843
0.5808254
0.58062218
0.58043156
0.58025033
0.5800812
0.57992293
0.57976113
0.57959229
0.57931684
0.57795724
0.57261913
0.56697656
0.56429646
0.56268727
0.56164875
0.56096261
0.56050546
0.5602023
0.56000509
0.5598821
0.55981183
0.55977928
0.55977419
0.55978924
0.55981907
0.55985974
0.55990831
0.55996253
0.56002065
0.56008132
0.56014343
0.56020612
0.5602687
0.56033062
0.56039146
0.56045089
0.56050869
0.56056469
0.56061878
0.56067089
0.56072101
0.56076912
0.56081521
0.56085919
0.56090094
0.56094022
0.5609766
0.56100932
0.56103712
0.56105832
0.56107191
0.56107887
0.56108155
0.56108209
0.66485982
0.66686232
0.66503566
0.66660604
0.66550274
0.66617381
0.66560886
0.6655772
0.66506505
0.66416302
0.66222387
0.65913377
0.65577743
0.65434398
0.65690093
0.6634872
0.66864488
0.66668309
0.66184472
0.66243777
0.66374556
0.66138413
0.66067588
0.66132616
0.66025592
0.65980209
0.65932563
0.6586996
0.65826978
0.6578258
0.65733958
0.65695336
0.65624527
0.65519837
0.65427081
0.65360394
0.65281178
0.65192998
0.65102946
0.65007065
0.64907394
0.64795
0.64688428
0.64593707
0.64477053
0.64358153
0.64233725
0.64091858
0.63952144
0.63778283
0.6361944
0.63446656
0.63249586
0.63056108
0.62879355
0.62683561
0.62473873
0.62263616
0.62050427
0.61845239
0.61637395
0.61429807
0.61228911
0.61030349
0.6083553
0.60648591
0.60466162
0.60288551
0.601179
0.59957043
0.59806184
0.59660258
0.59517663
0.59382934
0.59264181
0.59155805
0.59049487
0.58949975
0.58857349
0.58768112
0.58686078
0.58611435
0.58542454
0.5847937
0.58420067
0.58365006
0.58314613
0.58268518
0.58226169
0.58187632
0.58151346
0.5811643
0.58085194
0.58057648
0.58032704
0.58010011
0.57988649
0.57968468
0.57949516
0.57931442
0.579142
0.57897964
0.57882546
0.57857152
0.57738652
0.57266901
0.56663791
0.56370556
0.56197378
0.56086227
0.56012843
0.55963835
0.55931171
0.55909729
0.55896127
0.55888078
0.55883994
0.55882774
0.55883656
0.55886079
0.55889639
0.55894033
0.55899036
0.55904474
0.55910211
0.55916138
0.55922169
0.55928235
0.55934281
0.5594026
0.5594614
0.55951895
0.55957504
0.55962953
0.55968233
0.55973339
0.55978267
0.55983009
0.55987556
0.55991889
0.55995982
0.55999787
0.56003217
0.56006138
0.56008367
0.56009793
0.5601052
0.56010796
0.56010851
0.66485406
0.66686745
0.6650385
0.66660474
0.66550204
0.66617443
0.66561132
0.66558075
0.66507448
0.66418425
0.66226395
0.65918826
0.6558215
0.65434244
0.65681369
0.6633821
0.66859619
0.66676685
0.66188693
0.66239257
0.66374463
0.66141499
0.66066441
0.66132832
0.66026424
0.65980824
0.65933805
0.65870449
0.65827032
0.65781584
0.65733521
0.65697249
0.65628255
0.65523992
0.65430313
0.65362166
0.65282128
0.65193532
0.65103177
0.65008003
0.64908143
0.64796569
0.64689421
0.64594215
0.64476148
0.64358743
0.64233101
0.64093759
0.63953193
0.63779788
0.63622399
0.63448535
0.63251609
0.63059071
0.62881896
0.62684593
0.62473534
0.62262287
0.62048048
0.61841543
0.61632106
0.614229
0.61220144
0.61019387
0.60822304
0.60633284
0.60448482
0.60268224
0.60095459
0.59932625
0.59778886
0.59629312
0.59483936
0.5934817
0.59228503
0.59117052
0.59008225
0.58906758
0.58811577
0.58720131
0.58636383
0.58559888
0.58488903
0.58423439
0.58362043
0.58304733
0.58251937
0.5820314
0.58157889
0.58117402
0.58080939
0.58047033
0.58015939
0.57986864
0.57959451
0.57934284
0.57911322
0.57889812
0.57869357
0.57850223
0.57832264
0.57814049
0.57795732
0.57774534
0.57694759
0.57284138
0.5664996
0.56322024
0.56133583
0.56013454
0.55934088
0.55880873
0.55845166
0.55821483
0.55806196
0.55796844
0.5579173
0.55789642
0.55789779
0.5579154
0.55794496
0.55798334
0.5580282
0.5580778
0.55813076
0.55818602
0.55824273
0.55830019
0.55835785
0.55841524
0.55847199
0.55852785
0.55858256
0.55863597
0.55868794
0.5587384
0.55878726
0.55883443
0.5588798
0.55892315
0.55896421
0.55900247
0.55903707
0.55906662
0.55908924
0.55910371
0.55911105
0.55911377
0.55911427
0.6648485
0.66687422
0.66503784
0.66660582
0.66550094
0.66617504
0.6656139
0.66558409
0.66508413
0.66420609
0.66230543
0.65924517
0.65586837
0.65434271
0.65672432
0.66326935
0.66854315
0.66685201
0.6619336
0.66234628
0.66374291
0.66144828
0.66065332
0.66132976
0.66027325
0.65981428
0.65935107
0.65871033
0.65827163
0.65780593
0.6573296
0.65699017
0.65632077
0.65528767
0.6543445
0.65364547
0.65282811
0.65193484
0.65103215
0.6500899
0.64909041
0.64798311
0.64690792
0.64595309
0.64476263
0.64360253
0.64233002
0.6409599
0.63954597
0.63781799
0.63625804
0.63450827
0.63254139
0.63062399
0.62884738
0.62685932
0.62473561
0.62261231
0.62045829
0.61837716
0.61626661
0.61415788
0.61211337
0.61008579
0.60808877
0.60617826
0.60430998
0.60248287
0.60073437
0.59908482
0.597515
0.59598204
0.5945058
0.59314087
0.59192692
0.59078457
0.58966716
0.58863107
0.58765741
0.58671677
0.58585768
0.58507763
0.58435145
0.58368148
0.58304915
0.58245917
0.58191668
0.58141791
0.58095381
0.58052801
0.58012578
0.57974155
0.57939874
0.57909418
0.57881739
0.57856287
0.57832127
0.57809363
0.57787957
0.5776744
0.57748016
0.57730049
0.57712497
0.57690289
0.57616931
0.57275753
0.56629843
0.56262926
0.56059675
0.55931065
0.55846015
0.55788803
0.55750237
0.55724487
0.55707686
0.55697202
0.5569122
0.55688427
0.55687972
0.55689211
0.5569169
0.55695082
0.55699148
0.5570371
0.55708633
0.55713814
0.5571917
0.55724635
0.55730156
0.55735689
0.55741198
0.55746656
0.5575204
0.55757329
0.5576251
0.55767572
0.55772503
0.55777293
0.55781925
0.55786374
0.55790607
0.55794568
0.55798161
0.55801236
0.5580359
0.55805091
0.55805845
0.55806119
0.55806169
0.66484361
0.66687944
0.66503483
0.66660833
0.66549947
0.6661756
0.66561648
0.66558738
0.66509388
0.6642282
0.66234754
0.65930309
0.65591631
0.65434333
0.65663441
0.663153
0.66849089
0.66693783
0.66198258
0.66229924
0.66374036
0.66148279
0.66064228
0.66133038
0.66028254
0.65981988
0.65936458
0.65871704
0.65827374
0.657796
0.65732202
0.65700503
0.65635581
0.65533232
0.65438261
0.65367068
0.65284282
0.6519451
0.65103741
0.65009932
0.6490977
0.64799804
0.64691864
0.64595798
0.64475661
0.64360586
0.64231813
0.64097038
0.63954599
0.6378262
0.63627912
0.63451823
0.6325543
0.63064623
0.62886524
0.62686123
0.62472774
0.62259512
0.62043111
0.61833701
0.61621101
0.6140866
0.61202386
0.60997481
0.60795447
0.60602298
0.60413082
0.60227804
0.60050839
0.59883629
0.59723561
0.59566849
0.59416936
0.5927946
0.59156488
0.59038797
0.58924496
0.58818733
0.58718648
0.58622319
0.58534438
0.58454188
0.58379185
0.58309487
0.58243876
0.58182433
0.58125619
0.58073154
0.58024264
0.57980341
0.57940275
0.57902648
0.57867742
0.57834995
0.57804226
0.57775938
0.57750128
0.57725992
0.57703041
0.57681501
0.57661179
0.57640942
0.57620844
0.57602003
0.57555946
0.57273478
0.5663123
0.56215416
0.55994547
0.55855569
0.55763427
0.55701185
0.55658992
0.55630605
0.55611869
0.55599946
0.5559287
0.55589229
0.55588075
0.55588717
0.5559066
0.55593552
0.5559714
0.55601238
0.55605711
0.55610454
0.5561539
0.55620457
0.55625604
0.55630791
0.55635986
0.55641163
0.55646297
0.55651371
0.55656368
0.55661276
0.55666084