/*--------------------------------*- C++ -*----------------------------------*\
| =========                 |                                                 |
| \\      /  F ield         | OpenFOAM: The Open Source CFD Toolbox           |
|  \\    /   O peration     | Version:  2506                                  |
|   \\  /    A nd           | Website:  www.openfoam.com                      |
|    \\/     M anipulation  |                                                 |
\*---------------------------------------------------------------------------*/
FoamFile
{
    version     2.0;
    format      ascii;
    arch        "LSB;label=32;scalar=64";
    class       volScalarField;
    location    "0.018";
    object      rho;
}
// * * * * * * * * * * * * * * * * * * * * * * * * * * * * * * * * * * * * * //

dimensions      [1 -3 0 0 0 0 0];

internalField   nonuniform List<scalar> 
192657
(
0.66446216
0.66710397
0.66487736
0.66660085
0.66555028
0.66614278
0.66573927
0.66568717
0.66546719
0.66512486
0.66426904
0.66245608
0.65970133
0.65735426
0.65744029
0.66139871
0.66688703
0.6671478
0.66388016
0.66281028
0.66397191
0.66286556
0.66166214
0.66217722
0.66164628
0.66104616
0.66090727
0.66044141
0.66003652
0.65965337
0.65917734
0.65879355
0.65845866
0.65803986
0.65751449
0.65700572
0.65647138
0.65592053
0.65530281
0.6546875
0.65407707
0.65334602
0.65260573
0.6519335
0.65112769
0.65035435
0.64942326
0.64839284
0.64751515
0.64667467
0.64553076
0.64432754
0.64314106
0.6419799
0.64077052
0.63953539
0.63826655
0.6369976
0.63571575
0.6344239
0.63316347
0.63189633
0.63067266
0.6294519
0.62828466
0.62716874
0.62608169
0.62505722
0.6240591
0.6231136
0.62222007
0.62136375
0.62056614
0.61981323
0.61910819
0.61845627
0.61784576
0.6172598
0.61672481
0.61623933
0.61576377
0.61530857
0.61491586
0.6145693
0.61420597
0.61383156
0.61349741
0.61321137
0.6129335
0.61264828
0.61239211
0.61217399
0.61196084
0.61174159
0.61152486
0.61132033
0.61113082
0.61093096
0.61072509
0.61053523
0.61036441
0.6102029
0.61004555
0.60982853
0.60861369
0.60520763
0.60282803
0.60149797
0.60069868
0.60019657
0.59987667
0.59967617
0.59956318
0.59951786
0.5995238
0.59956745
0.59963733
0.5997255
0.59982509
0.59993101
0.6000393
0.60014681
0.60025128
0.60035103
0.60044491
0.60053205
0.60061186
0.60068385
0.6007476
0.60080265
0.60084842
0.60088645
0.60091706
0.60094002
0.60095496
0.60096054
0.60095292
0.6009274
0.60088345
0.60082583
0.60075835
0.6006827
0.60060287
0.6005268
0.60046516
0.60042564
0.60040671
0.60040061
0.60040021
0.66446018
0.66710519
0.66487644
0.66660023
0.66555297
0.66614303
0.66574072
0.66568826
0.66546991
0.66513217
0.66428454
0.66248357
0.65973282
0.65736884
0.65742011
0.66133028
0.66684763
0.66716937
0.66391615
0.66280513
0.66396374
0.66288249
0.66166839
0.66217245
0.66165593
0.66105451
0.66091491
0.66045163
0.66004649
0.65966304
0.65918705
0.65880477
0.65847202
0.65805432
0.65753112
0.65702218
0.65649214
0.65593974
0.65532051
0.65471269
0.65410335
0.65337286
0.65264248
0.65197255
0.65116787
0.65039667
0.64946002
0.648444
0.64758508
0.64672829
0.64557297
0.64437288
0.64319049
0.64203011
0.64082154
0.63958451
0.63831373
0.63704153
0.63575522
0.63445834
0.63319165
0.6319187
0.63068582
0.62945825
0.62828318
0.62715714
0.62606057
0.62502454
0.6240135
0.62305629
0.62215063
0.62128283
0.62047475
0.61971259
0.6189972
0.61833688
0.61771657
0.61712071
0.61658133
0.6160904
0.61560759
0.61514695
0.61475354
0.61440598
0.61404156
0.61367028
0.61334128
0.61306071
0.61278702
0.61251014
0.61226912
0.61205721
0.61183526
0.61161355
0.6114173
0.6112443
0.61107692
0.61090212
0.61073143
0.61057809
0.61043575
0.61030017
0.61015984
0.60990096
0.60827323
0.60473498
0.60255296
0.60122122
0.60027228
0.59956078
0.59900989
0.59857051
0.59821962
0.59793967
0.59771773
0.59754397
0.59741037
0.59731007
0.59723678
0.59718415
0.59714623
0.59711908
0.59710039
0.59708837
0.59708148
0.5970784
0.59707797
0.59707928
0.59708153
0.59708405
0.59708629
0.59708776
0.59708811
0.5970871
0.59708463
0.59708073
0.59707562
0.59706967
0.59706338
0.59705724
0.59705175
0.59704727
0.59704485
0.59704464
0.59704591
0.59704749
0.59704852
0.59704895
0.59704912
0.66445775
0.66710539
0.66487744
0.66659767
0.66555632
0.66614339
0.66574212
0.66568932
0.66547265
0.66513956
0.66430015
0.66251135
0.65976476
0.65738367
0.65739947
0.66126101
0.66680709
0.66719164
0.66395257
0.6628005
0.66395507
0.66289949
0.66167505
0.66216736
0.66166549
0.66106298
0.66092252
0.66046189
0.66005633
0.65967261
0.65919661
0.658816
0.658486
0.65807079
0.65755097
0.65704105
0.65651149
0.65595384
0.65533708
0.65473841
0.65412858
0.65339924
0.65267935
0.65201292
0.65121257
0.65044319
0.64950284
0.64850149
0.64766011
0.64678895
0.64562246
0.64442702
0.64324907
0.64208906
0.64088143
0.6396433
0.63837001
0.6370928
0.63580203
0.63449949
0.63322528
0.63194435
0.63070032
0.62946586
0.6282813
0.62714512
0.62603854
0.62499
0.62396659
0.62299851
0.62207978
0.6212008
0.62038026
0.61960818
0.6188821
0.61821323
0.61758436
0.61697824
0.61643003
0.61593251
0.6154463
0.61498296
0.61458533
0.61423418
0.61386701
0.61349285
0.61316247
0.6128835
0.61261455
0.61234412
0.6121123
0.61192065
0.61173494
0.61154595
0.61136354
0.61120213
0.61106084
0.61091506
0.61076748
0.61064099
0.61053761
0.61044339
0.61034779
0.61021451
0.60881751
0.60530802
0.6032148
0.60196918
0.60111454
0.60049738
0.60004613
0.59971429
0.59946995
0.59929077
0.59916096
0.59906832
0.59900346
0.59895931
0.59893081
0.59891507
0.59891069
0.59891591
0.59892836
0.59894588
0.5989668
0.59898976
0.59901368
0.59903769
0.59906109
0.59908331
0.59910386
0.59912235
0.59913843
0.59915174
0.59916196
0.59916874
0.59917178
0.59917078
0.59916559
0.59915631
0.59914349
0.59912837
0.59911177
0.59909553
0.59908197
0.59907283
0.59906807
0.59906631
0.59906606
0.66445414
0.66710649
0.66487815
0.66659272
0.66555839
0.66614373
0.66574346
0.66569031
0.66547538
0.66514697
0.66431584
0.66253937
0.6597971
0.65739886
0.65737904
0.66119118
0.66676557
0.66721398
0.66398947
0.66279658
0.66394555
0.66291642
0.66168224
0.66216191
0.66167505
0.6610716
0.66093016
0.66047221
0.66006618
0.65968222
0.65920606
0.65882692
0.658499
0.65808504
0.65756711
0.65705769
0.65653252
0.65597289
0.65535537
0.65476355
0.65415351
0.65342698
0.65271699
0.65205186
0.65125392
0.65048414
0.64954117
0.64855671
0.6477303
0.6468401
0.64566452
0.64447421
0.64330073
0.64214159
0.64093515
0.639695
0.63841962
0.63713874
0.63584453
0.63453684
0.63325696
0.63197033
0.63071731
0.62947653
0.62828396
0.62713601
0.62601889
0.62495793
0.62392227
0.62294195
0.62201114
0.62112116
0.62028983
0.61950804
0.61877151
0.61809467
0.61745483
0.61683975
0.6162875
0.61578454
0.61529199
0.61482475
0.61442859
0.61407887
0.61371317
0.61334298
0.61301927
0.61274841
0.61248579
0.61222533
0.61200661
0.61181833
0.61162584
0.61143978
0.61128314
0.61115524
0.61103591
0.61090865
0.61079084
0.61069125
0.61061155
0.61053986
0.6104674
0.61025974
0.60893869
0.60543836
0.60328606
0.60198265
0.6010718
0.60040487
0.59990076
0.59951584
0.59922096
0.59899564
0.59882768
0.59870569
0.59862017
0.59856343
0.59852893
0.59851122
0.5985058
0.59850927
0.59851929
0.5985342
0.5985526
0.59857327
0.5985952
0.59861759
0.5986398
0.59866135
0.59868186
0.59870107
0.5987188
0.59873496
0.59874953
0.59876256
0.59877418
0.59878452
0.59879375
0.59880198
0.59880923
0.5988153
0.59881984
0.59882252
0.59882343
0.59882322
0.59882276
0.59882251
0.59882249
0.66445021
0.66710889
0.66487751
0.66658902
0.66555918
0.6661438
0.66574497
0.66569129
0.66547819
0.66515459
0.66433198
0.66256832
0.65983074
0.65741492
0.65735798
0.66111902
0.66672138
0.66723719
0.66402757
0.66279333
0.66393534
0.66293373
0.66169006
0.66215601
0.66168487
0.66108047
0.66093779
0.66048264
0.6600761
0.65969199
0.65921565
0.65883812
0.65851275
0.65810153
0.65758685
0.65707743
0.65655294
0.6559874
0.65537258
0.65478979
0.65417804
0.65345433
0.65275478
0.65209246
0.65130009
0.65052983
0.64958593
0.64861834
0.6478057
0.6469001
0.64571456
0.64453061
0.64336254
0.6422041
0.64099866
0.63975738
0.63847957
0.63719347
0.63589559
0.63458246
0.63329562
0.6320012
0.63073752
0.62948961
0.62828843
0.62712935
0.62600102
0.62492705
0.62387971
0.6228879
0.62194402
0.62104283
0.62019933
0.6194072
0.61865975
0.61797397
0.61732398
0.61669886
0.61613824
0.6156295
0.61513386
0.61466307
0.61426095
0.61390712
0.61353947
0.613168
0.61284395
0.61257579
0.61232028
0.61206944
0.61186365
0.61169943
0.61154264
0.61138278
0.61123105
0.6111065
0.61100294
0.61089598
0.61078756
0.61070462
0.61064298
0.61058713
0.61053249
0.61043489
0.60929514
0.60583164
0.60354851
0.60219251
0.6012636
0.60059765
0.60010731
0.59974325
0.59947258
0.59927301
0.59912676
0.59902032
0.59894398
0.59889114
0.59885741
0.59883937
0.59883418
0.59883904
0.59885179
0.59887043
0.59889325
0.59891879
0.59894584
0.59897345
0.599001
0.59902793
0.59905381
0.59907826
0.59910094
0.59912158
0.59913996
0.59915588
0.59916916
0.59917969
0.59918739
0.59919233
0.59919473
0.59919503
0.59919381
0.59919174
0.5991896
0.599188
0.59918713
0.59918681
0.59918677
0.6644468
0.66711324
0.66487527
0.66658814
0.66555974
0.66614357
0.66574659
0.6656922
0.66548099
0.66516226
0.66434826
0.66259762
0.65986492
0.65743151
0.65733721
0.66104633
0.666676
0.66726063
0.66406615
0.6627908
0.6639244
0.6629508
0.6616984
0.66214968
0.66169477
0.66108958
0.66094546
0.66049313
0.6600861
0.65970183
0.6592252
0.65884911
0.65852568
0.65811598
0.65760294
0.65709477
0.6565747
0.65600709
0.65539231
0.65481559
0.65420199
0.65348289
0.65279341
0.6521322
0.65134304
0.65057006
0.64962638
0.64867804
0.64787589
0.64694998
0.64575755
0.6445803
0.64341741
0.6422602
0.64105565
0.63981223
0.63853232
0.63724285
0.63594208
0.63462415
0.63333222
0.6320322
0.63076021
0.62950629
0.62829601
0.62712493
0.62598494
0.62489792
0.62383882
0.62283439
0.62187898
0.62096686
0.62011236
0.61930974
0.61855184
0.61785742
0.61719544
0.61656219
0.61599689
0.61548175
0.61497987
0.61450584
0.61410564
0.61375346
0.61338736
0.61301824
0.61269918
0.61243795
0.61218619
0.61194082
0.61174013
0.61157141
0.61140472
0.61124664
0.61111661
0.61101674
0.61092602
0.61082797
0.6107389
0.61066499
0.61060443
0.61055682
0.61051142
0.61036317
0.60937382
0.60605005
0.60366764
0.60227892
0.60131862
0.60061642
0.6000957
0.59970458
0.59941069
0.59919027
0.59902398
0.59890054
0.5988117
0.59875037
0.59871045
0.59868713
0.59867679
0.59867694
0.59868502
0.59869885
0.59871688
0.59873783
0.59876066
0.59878436
0.59880855
0.5988328
0.59885669
0.59887983
0.59890192
0.59892277
0.59894227
0.59896045
0.59897732
0.59899294
0.59900734
0.59902048
0.59903224
0.59904241
0.5990507
0.59905685
0.59906081
0.5990629
0.59906378
0.59906407
0.59906414
0.66444367
0.66711832
0.66487237
0.66658865
0.66556051
0.66614307
0.66574814
0.66569313
0.66548387
0.66517016
0.66436508
0.66262803
0.65990068
0.65744926
0.65731592
0.66097098
0.66662731
0.6672848
0.66410632
0.662789
0.66391293
0.66296823
0.66170736
0.66214283
0.66170509
0.6610991
0.66095312
0.66050376
0.66009618
0.65971188
0.65923506
0.65886039
0.65853935
0.65813258
0.65762274
0.65711569
0.65659635
0.65602259
0.6554105
0.65484251
0.65422586
0.65351093
0.65283202
0.65217357
0.65139062
0.65061571
0.64967348
0.64874411
0.6479511
0.64700688
0.64580868
0.64463944
0.6434827
0.64232653
0.64112244
0.63987779
0.63859568
0.63730154
0.63599731
0.63467435
0.63337595
0.63206826
0.63078657
0.62952493
0.6283067
0.62712332
0.6259711
0.62487061
0.62380041
0.62278411
0.62181596
0.62089225
0.62002606
0.61921243
0.61844342
0.61773861
0.61706505
0.61642192
0.61584822
0.61532715
0.61482131
0.61434166
0.61393301
0.61357508
0.61320656
0.6128363
0.61251551
0.61225503
0.61200927
0.6117725
0.6115837
0.6114364
0.61129627
0.61115061
0.61101421
0.61090938
0.61082374
0.6107334
0.61064458
0.61057711
0.61052765
0.61048569
0.61044312
0.61036321
0.60951468
0.60633481
0.60376741
0.60231686
0.60133139
0.60061377
0.60007682
0.59967007
0.59936007
0.59912376
0.59894481
0.59881107
0.59871336
0.59864466
0.59859947
0.59857318
0.59856172
0.59856147
0.59856941
0.5985833
0.59860158
0.59862311
0.59864707
0.59867298
0.59870012
0.59872803
0.59875591
0.59878323
0.59880964
0.59883474
0.5988583
0.59888024
0.59890046
0.59891886
0.59893535
0.59894988
0.59896246
0.59897308
0.59898174
0.59898843
0.59899312
0.59899594
0.59899731
0.5989978
0.59899789
0.66444054
0.6671219
0.6648702
0.66658925
0.6655611
0.66614228
0.66574963
0.66569405
0.66548677
0.66517812
0.66438208
0.66265886
0.65993709
0.65746763
0.65729495
0.6608951
0.66657718
0.66730933
0.66414709
0.66278768
0.66390106
0.66298532
0.66171676
0.66213553
0.66171562
0.661109
0.66096077
0.66051449
0.66010633
0.65972205
0.65924493
0.65887149
0.65855233
0.65814718
0.65763896
0.65713398
0.65661886
0.6560434
0.65543191
0.6548688
0.65424885
0.65354019
0.65287158
0.65221442
0.6514351
0.65065624
0.64971649
0.64880803
0.64802145
0.6470545
0.64585319
0.64469239
0.64354103
0.64238633
0.64118254
0.63993576
0.63865175
0.63735508
0.63604804
0.6347208
0.63341783
0.63210457
0.63081548
0.62954722
0.62831996
0.62712383
0.62595912
0.62484527
0.62376345
0.62273442
0.62175542
0.62082041
0.61994299
0.6191178
0.61833813
0.61762305
0.61693683
0.616286
0.61570609
0.61517684
0.61466374
0.61418021
0.61377251
0.61341452
0.61304525
0.61267388
0.61235451
0.61209686
0.61184955
0.61161157
0.6114187
0.61125921
0.6111064
0.61096136
0.61084089
0.61075014
0.61066855
0.61057911
0.61049612
0.61043003
0.61037823
0.6103354
0.61029123
0.61018045
0.60948789
0.60653179
0.60380709
0.60230018
0.60127489
0.60052432
0.59996143
0.59953477
0.59921014
0.59896334
0.59877667
0.59863685
0.59853378
0.59845965
0.59840845
0.59837549
0.59835721
0.59835082
0.59835412
0.59836521
0.59838216
0.59840337
0.59842753
0.5984535
0.59848018
0.59850671
0.59853299
0.59855894
0.59858445
0.59860952
0.59863404
0.59865777
0.59868052
0.59870216
0.59872256
0.59874152
0.5987588
0.59877408
0.5987871
0.59879748
0.59880489
0.59880936
0.59881151
0.59881228
0.59881242
0.66443742
0.66712425
0.66486943
0.66658982
0.66556103
0.6661414
0.66575133
0.66569497
0.66548975
0.66518631
0.66439966
0.66269089
0.65997525
0.6574874
0.65727362
0.66081653
0.66652325
0.66733442
0.66418957
0.662787
0.66388883
0.66300272
0.66172672
0.66212766
0.66172674
0.6611194
0.66096837
0.66052534
0.66011655
0.65973246
0.65925518
0.65888291
0.65856601
0.65816375
0.65765894
0.65715618
0.65664169
0.65606025
0.65545106
0.65489583
0.65427216
0.65356918
0.65291087
0.65225665
0.65148385
0.65070258
0.64976639
0.64887784
0.6480975
0.64710963
0.64590611
0.64475492
0.64360969
0.64245629
0.6412523
0.64000434
0.63871852
0.63741826
0.63610751
0.63477571
0.63346677
0.63214584
0.63084808
0.62957163
0.62833571
0.62712763
0.62594947
0.62482213
0.6237294
0.62268843
0.62169704
0.62074989
0.61986125
0.6190242
0.618233
0.61750549
0.61680675
0.61614583
0.61555697
0.61502108
0.61450213
0.61400973
0.61359056
0.61322477
0.61285202
0.61247854
0.61215497
0.61189467
0.61165059
0.61141845
0.61123431
0.61109024
0.61095174
0.61080502
0.61066979
0.61056943
0.61048551
0.61039644
0.61031042
0.6102415
0.61018702
0.61014061
0.61009907
0.61003904
0.60946145
0.60672187
0.6037948
0.60220898
0.60114121
0.6003639
0.5997826
0.59934158
0.59900426
0.59874544
0.59854731
0.59839683
0.59828419
0.59820185
0.59814384
0.59810541
0.59808267
0.59807246
0.59807217
0.59807971
0.59809335
0.59811171
0.59813362
0.59815815
0.5981845
0.59821199
0.59824005
0.59826818
0.59829597
0.59832308
0.59834924
0.59837425
0.59839797
0.59842026
0.598441
0.59846013
0.5984776
0.59849328
0.59850688
0.59851797
0.59852611
0.59853115
0.59853363
0.59853452
0.59853466
0.66443413
0.66712633
0.66487084
0.66658986
0.66556101
0.6661405
0.665753
0.66569585
0.66549275
0.66519457
0.66441747
0.66272339
0.66001414
0.65750788
0.65725263
0.66073755
0.66646762
0.66736002
0.66423254
0.66278684
0.66387632
0.66301965
0.66173698
0.66211932
0.66173818
0.66113018
0.66097597
0.66053621
0.66012691
0.65974302
0.6592655
0.65889424
0.65857907
0.65817838
0.65767541
0.65717542
0.65666479
0.65608238
0.65547409
0.65492214
0.65429445
0.65359955
0.6529512
0.65229855
0.65152957
0.65074381
0.64981226
0.64894388
0.64816755
0.64715596
0.6459528
0.64481163
0.64367123
0.64251939
0.64131537
0.64006553
0.63877806
0.63747632
0.63616254
0.63482705
0.63351403
0.63218751
0.63088317
0.6295994
0.62835441
0.62713284
0.62594176
0.62480131
0.62369679
0.6226432
0.6216415
0.62068242
0.61978216
0.61893241
0.61812997
0.61739011
0.61667846
0.61600949
0.61541223
0.61486605
0.61433812
0.61384004
0.61341924
0.61305017
0.61267293
0.61229377
0.6119675
0.61170467
0.61145325
0.61121351
0.6110178
0.61085652
0.61070555
0.61055997
0.61043451
0.61033823
0.61025183
0.610158
0.61006964
0.60999738
0.6099385
0.60988854
0.60983758
0.60974034
0.60929781
0.60686761
0.60378549
0.60211529
0.60099412
0.60017731
0.59956592
0.59910182
0.59874697
0.59847478
0.59826616
0.59810714
0.59798723
0.59789843
0.59783457
0.59779079
0.5977632
0.59774867
0.59774461
0.59774894
0.59775988
0.59777598
0.59779602
0.597819
0.59784408
0.59787059
0.59789795
0.59792572
0.59795352
0.59798103
0.598008
0.59803422
0.5980595
0.59808366
0.59810655
0.59812798
0.59814777
0.59816567
0.59818133
0.59819425
0.59820386
0.59820987
0.59821286
0.59821394
0.59821412
0.66443076
0.66712936
0.66487162
0.66658956
0.6655603
0.6661397
0.66575464
0.66569677
0.66549579
0.66520304
0.66443587
0.66275713
0.66005492
0.65752996
0.65723152
0.66065593
0.66640765
0.66738625
0.66427724
0.66278754
0.66386332
0.6630369
0.66174776
0.66211046
0.66175032
0.66114146
0.66098353
0.6605472
0.66013742
0.65975381
0.65927618
0.65890591
0.65859283
0.65819484
0.6576956
0.65719873
0.65668863
0.65610076
0.65549422
0.65494861
0.65431763
0.65363009
0.65299111
0.65234141
0.65157932
0.65079087
0.6498653
0.64901614
0.64824259
0.64720905
0.6460079
0.64487773
0.64374288
0.64259255
0.64138794
0.64013719
0.63884835
0.63754422
0.63622627
0.63488668
0.63356821
0.63223397
0.63092184
0.62962917
0.62837444
0.62714123
0.62593657
0.62478293
0.62366741
0.622602
0.62158808
0.62061628
0.61970506
0.61884262
0.61802793
0.61727367
0.6165491
0.61586932
0.61526211
0.61470818
0.61417202
0.61366159
0.61322618
0.6128471
0.61246498
0.61208193
0.61174869
0.61147967
0.61122831
0.61099077
0.61079948
0.61064584
0.61049632
0.61033712
0.61019274
0.61008548
0.60999185
0.60989367
0.60979903
0.6097191
0.60965287
0.60959572
0.60954815
0.60949559
0.60912827
0.60697004
0.60372996
0.60194845
0.60077024
0.59991874
0.59928359
0.59880136
0.59843145
0.59814614
0.59792578
0.59775611
0.59762652
0.59752894
0.59745713
0.59740619
0.5973722
0.59735201
0.59734299
0.59734303
0.59735035
0.59736345
0.59738109
0.59740222
0.59742595
0.59745155
0.59747841
0.59750602
0.59753397
0.59756188
0.59758949
0.59761655
0.59764286
0.59766824
0.59769252
0.59771551
0.59773698
0.59775664
0.59777405
0.59778859
0.5977995
0.59780637
0.5978098
0.59781105
0.59781126
0.66442695
0.66713518
0.66486888
0.66659018
0.66556328
0.66613902
0.6657564
0.66569765
0.66549886
0.66521161
0.66445454
0.66279138
0.6600965
0.65755279
0.65721077
0.660574
0.66634568
0.66741319
0.66432229
0.66278873
0.66384991
0.66305365
0.66175877
0.66210126
0.66176289
0.66115317
0.66099104
0.66055817
0.66014811
0.65976478
0.65928701
0.65891746
0.65860605
0.65820944
0.65771238
0.65721872
0.65671225
0.65612417
0.65551894
0.65497466
0.65433969
0.65366212
0.65303213
0.65238423
0.65162632
0.65083264
0.64991442
0.64908425
0.64830566
0.64725322
0.64605687
0.6449381
0.64380732
0.64265849
0.64145398
0.64020186
0.63891158
0.63760683
0.63628563
0.63494295
0.63362083
0.63228095
0.63096284
0.62966209
0.6283973
0.62715211
0.62593366
0.62476726
0.62363962
0.62256172
0.62153768
0.62055317
0.6196297
0.61875348
0.61792663
0.61715813
0.61642082
0.61573192
0.61511381
0.61454745
0.6140003
0.61348203
0.61304159
0.61265506
0.61226364
0.61187003
0.61152996
0.61125318
0.61098931
0.61073889
0.61053096
0.61035861
0.61019979
0.61004283
0.6099018
0.60978986
0.6096892
0.6095825
0.60948109
0.60939476
0.60932198
0.60925935
0.60919588
0.60910399
0.60883774
0.60703093
0.60371405
0.60179646
0.60054905
0.59965263
0.59898475
0.59847765
0.59808848
0.59778816
0.59755591
0.59737648
0.59723861
0.59713379
0.59705552
0.59699872
0.5969594
0.59693434
0.59692091
0.59691697
0.59692076
0.59693077
0.59694575
0.59696466
0.59698658
0.59701076
0.59703656
0.59706346
0.59709099
0.59711878
0.5971465
0.5971739
0.59720074
0.59722682
0.59725194
0.59727587
0.59729838
0.59731913
0.59733766
0.59735327
0.5973651
0.59737263
0.59737641
0.59737779
0.59737803
0.66442263
0.66714037
0.66486528
0.66659167
0.66556827
0.6661387
0.66575825
0.66569856
0.66550199
0.66522039
0.66447381
0.66282688
0.66014009
0.65757747
0.65719014
0.66048946
0.66627879
0.66744084
0.66436901
0.6627912
0.66383574
0.66307084
0.66177042
0.66209167
0.66177622
0.66116533
0.66099843
0.66056925
0.66015896
0.65977601
0.65929825
0.65892931
0.65861993
0.65822574
0.65773276
0.65724293
0.65673717
0.65614415
0.65554034
0.65500042
0.65436315
0.65369467
0.65307279
0.65242773
0.65167705
0.65088021
0.64997088
0.64915876
0.64837276
0.64730387
0.6461142
0.64500747
0.6438817
0.64273451
0.64152938
0.64027681
0.63898559
0.63767936
0.63635362
0.63500728
0.63368023
0.63233251
0.63100714
0.62969689
0.62842122
0.62716454
0.62593381
0.62475428
0.62361535
0.62252565
0.62148918
0.62049152
0.61955696
0.61866727
0.61782716
0.61704291
0.61629286
0.61559215
0.61496289
0.61438736
0.61382955
0.61329599
0.61283866
0.61244047
0.61204258
0.61164272
0.61129263
0.61100657
0.6107392
0.61048656
0.61027758
0.61010405
0.60993457
0.60975571
0.60959571
0.60947377
0.60936323
0.6092496
0.60913998
0.60904377
0.60896183
0.60889075
0.60883255
0.60877685
0.60854601
0.60701779
0.603668
0.6015813
0.60026339
0.59932607
0.59862946
0.59810048
0.59769384
0.597379
0.59713437
0.59694419
0.59679678
0.59668337
0.59659729
0.59653334
0.59648747
0.59645642
0.59643759
0.59642879
0.59642826
0.5964345
0.59644625
0.59646243
0.59648214
0.59650458
0.59652909
0.59655511
0.59658217
0.59660983
0.59663777
0.59666567
0.59669328
0.59672035
0.59674665
0.5967719
0.59679583
0.59681807
0.59683805
0.59685499
0.5968679
0.59687614
0.5968803
0.59688182
0.59688209
0.66441832
0.66714313
0.66486283
0.66659435
0.66557108
0.66613867
0.66576003
0.66569942
0.66550513
0.66522927
0.66449334
0.66286293
0.66018454
0.65760297
0.65716986
0.66040464
0.66620956
0.66746914
0.66441606
0.66279446
0.66382093
0.66308775
0.66178247
0.66208183
0.66178995
0.66117782
0.66100571
0.66058029
0.66016998
0.65978748
0.65930965
0.65894107
0.65863338
0.65824028
0.65774985
0.6572636
0.65676136
0.65616886
0.6555671
0.65502646
0.65438541
0.65372854
0.65311437
0.65247155
0.65172515
0.65092235
0.65002351
0.64922871
0.64842908
0.64734647
0.64616551
0.64507114
0.64394898
0.64280313
0.64159839
0.64034517
0.63905268
0.63774632
0.63641735
0.63506847
0.63373813
0.63238475
0.63105351
0.62973462
0.62844816
0.62717928
0.62593521
0.62474443
0.623593
0.62249071
0.6214437
0.62043261
0.61948499
0.61858062
0.61772713
0.61692741
0.61616501
0.61545381
0.61481126
0.61422139
0.61365065
0.61310698
0.61264106
0.61223143
0.61181967
0.61140506
0.61104428
0.61074577
0.61046144
0.61019202
0.60996371
0.60977304
0.60959856
0.60942212
0.60925889
0.60912529
0.60900509
0.60888091
0.60876214
0.60865768
0.60856768
0.60848902
0.6084092
0.60831576
0.60815295
0.60695509
0.6036813
0.60138934
0.59998998
0.59900248
0.59826895
0.59771194
0.5972838
0.59695227
0.59669446
0.59649362
0.5963373
0.59621618
0.59612321
0.59605301
0.59600136
0.59596495
0.59594113
0.59592773
0.59592295
0.59592534
0.59593361
0.59594672
0.59596374
0.59598388
0.59600647
0.59603092
0.59605673
0.59608346
0.59611071
0.59613818
0.59616557
0.59619261
0.59621904
0.59624459
0.59626896
0.59629174
0.59631237
0.59633
0.59634355
0.59635227
0.59635669
0.59635832
0.59635861
0.66441389
0.66714482
0.6648654
0.66659586
0.66557195
0.66613854
0.66576202
0.6657003
0.66550829
0.66523837
0.66451345
0.66290025
0.66023111
0.65763056
0.65714995
0.66031721
0.6661348
0.66749784
0.66446479
0.66279938
0.66380488
0.6631055
0.66179532
0.66207163
0.66180431
0.66119071
0.66101288
0.66059131
0.66018115
0.65979928
0.65932149
0.65895327
0.65864746
0.65825638
0.65777046
0.65728861
0.65678743
0.65619071
0.65559012
0.65505175
0.65440932
0.65376305
0.65315549
0.65251591
0.65177653
0.65097033
0.65008386
0.64930494
0.64849274
0.64739609
0.64622529
0.64514348
0.64402595
0.64288189
0.64167668
0.64042364
0.6391306
0.63782322
0.63648966
0.63513746
0.63380256
0.63244134
0.63110276
0.62977409
0.62847583
0.62719668
0.62593977
0.62473731
0.62357422
0.62245999
0.62139981
0.62037536
0.61941616
0.61849766
0.61762971
0.6168139
0.61603914
0.61531519
0.61466028
0.61405973
0.61347627
0.61291529
0.61243119
0.61200922
0.61158991
0.611167
0.61079332
0.61048292
0.61019128
0.60991483
0.60967889
0.60947764
0.60928188
0.60907903
0.60889947
0.60875779
0.60862661
0.60849448
0.60836683
0.60825161
0.60815172
0.60806438
0.60799242
0.60792549
0.60776714
0.60679776
0.60366912
0.60114822
0.59966802
0.59863252
0.59786391
0.59728024
0.59683147
0.59648361
0.59621253
0.59600061
0.59583482
0.5957054
0.59560498
0.59552793
0.59546993
0.59542757
0.59539817
0.59537959
0.59537002
0.59536803
0.59537237
0.59538198
0.59539595
0.59541349
0.59543391
0.59545662
0.59548108
0.59550683
0.59553348
0.59556066
0.59558807
0.5956154
0.59564236
0.59566865
0.59569391
0.59571771
0.5957394
0.59575804
0.59577244
0.59578175
0.59578649
0.59578824
0.59578854
0.66440907
0.66714847
0.66486869
0.6665962
0.66557311
0.66613784
0.66576399
0.66570113
0.66551143
0.66524761
0.66453385
0.66293813
0.66027863
0.65765903
0.65713036
0.66022949
0.6660573
0.6675269
0.66451378
0.66280515
0.66378768
0.66312341
0.66180859
0.66206126
0.66181902
0.66120387
0.66101994
0.66060221
0.66019251
0.65981135
0.65933349
0.65896552
0.65866125
0.65827092
0.657788
0.65730987
0.6568123
0.65621694
0.65561904
0.65507809
0.65443213
0.65379858
0.65319717
0.65256091
0.65182537
0.65101326
0.6501404
0.64937634
0.64854748
0.64743845
0.64627948
0.64521021
0.64409593
0.6429531
0.64174868
0.64049585
0.63920174
0.63789427
0.63655781
0.63520354
0.63386547
0.63249874
0.63115382
0.62981631
0.62850673
0.6272158
0.62594706
0.62473343
0.62355767
0.62243072
0.62135886
0.62032045
0.61934711
0.61841335
0.61753069
0.61669916
0.61591234
0.61517639
0.61450625
0.61389
0.61329202
0.61271896
0.612223
0.61178622
0.61134955
0.61090927
0.61052199
0.61019542
0.60988405
0.60958903
0.60933344
0.60911851
0.60892101
0.60871854
0.60852856
0.60836965
0.60822699
0.60808303
0.60794478
0.60782043
0.60771176
0.60761513
0.60751693
0.60741623
0.60730188
0.60659141
0.60371113
0.60094316
0.5993688
0.59827443
0.59746259
0.59684652
0.59637317
0.59600648
0.59572078
0.59549733
0.5953222
0.59518495
0.59507773
0.59499456
0.59493088
0.59488317
0.59484866
0.59482516
0.5948109
0.59480443
0.59480456
0.59481023
0.59482058
0.59483483
0.5948523
0.5948724
0.5948946
0.59491843
0.59494346
0.59496934
0.59499572
0.59502229
0.59504874
0.59507473
0.59509992
0.59512383
0.5951458
0.59516485
0.59517971
0.5951894
0.59519438
0.59519623
0.59519656
0.66440372
0.66715512
0.66486878
0.66659289
0.66557472
0.66613657
0.665766
0.66570205
0.66551454
0.6652571
0.6645548
0.66297728
0.6603284
0.65768979
0.65711135
0.6601393
0.66597367
0.66755595
0.66456465
0.66281262
0.66376885
0.66314243
0.66182273
0.66205057
0.66183438
0.66121749
0.66102691
0.66061311
0.66020403
0.65982376
0.659346
0.6589783
0.65867574
0.65828696
0.65780899
0.65733556
0.65683958
0.6562409
0.65564358
0.65510303
0.65445677
0.65383469
0.65323816
0.65260635
0.65187712
0.65106241
0.65020494
0.64945435
0.64860762
0.64748811
0.64634252
0.64528542
0.64417525
0.64303439
0.64182996
0.64057796
0.63928372
0.6379752
0.6366345
0.63527712
0.63393453
0.6325602
0.6312074
0.6298602
0.62853839
0.62723756
0.62595734
0.62473219
0.62354453
0.62240549
0.62131923
0.62026753
0.61928157
0.61833308
0.6174348
0.61658798
0.61578909
0.61503955
0.61435597
0.61372777
0.61311562
0.61252454
0.61201032
0.61156134
0.61111664
0.61066647
0.61026414
0.60992377
0.60960226
0.60929578
0.60902584
0.60879152
0.60856483
0.60833479
0.60813185
0.60796588
0.60781115
0.6076584
0.60751078
0.60737521
0.60725654
0.60715215
0.60706396
0.60698327
0.60685264
0.60628859
0.60370963
0.60071088
0.5990368
0.59788254
0.59702823
0.59638067
0.59588323
0.59549777
0.59519723
0.59496186
0.59477698
0.59463158
0.59451736
0.59442798
0.59435862
0.59430558
0.59426599
0.5942376
0.59421865
0.59420766
0.59420349
0.59420514
0.59421176
0.5942226
0.59423702
0.59425444
0.59427435
0.59429626
0.59431975
0.59434443
0.59436996
0.59439599
0.59442218
0.59444817
0.59447356
0.59449784
0.59452029
0.59453987
0.59455518
0.59456517
0.59457029
0.5945722
0.59457257
0.664398
0.66716143
0.66486611
0.66658809
0.66557662
0.66613524
0.66576808
0.66570302
0.66551756
0.66526676
0.66457605
0.66301705
0.66037918
0.65772146
0.65709263
0.66004878
0.66588672
0.66758576
0.66461592
0.66282091
0.66374873
0.66316167
0.66183722
0.6620398
0.66185007
0.66123136
0.66103375
0.66062393
0.6602157
0.65983651
0.65935882
0.65899115
0.65869003
0.65830163
0.65782706
0.65735724
0.65686516
0.65626874
0.65567444
0.65512961
0.6544804
0.65387153
0.65327983
0.65265265
0.65192662
0.65110731
0.65026551
0.64952504
0.64865843
0.64753132
0.6464006
0.64535519
0.64424766
0.64310801
0.64190495
0.64065397
0.63935901
0.63805006
0.63670718
0.63534802
0.63400203
0.63262252
0.63126267
0.62990678
0.62857358
0.62726149
0.62597016
0.62473462
0.62353392
0.62238195
0.62128245
0.62021644
0.6192151
0.61825098
0.61733683
0.61647489
0.6156639
0.61490087
0.61420074
0.61355614
0.61292845
0.61232395
0.61179531
0.61132914
0.61086523
0.6103968
0.60997943
0.60962074
0.60927928
0.60895474
0.60866752
0.60842417
0.60819757
0.60796393
0.60774342
0.60755585
0.6073875
0.60722109
0.60706113
0.60691547
0.60678727
0.6066719
0.60655493
0.60644419
0.60634375
0.60595302
0.60373418
0.60053667
0.59873664
0.59750976
0.5966058
0.59592191
0.59539691
0.59499014
0.59467299
0.59442464
0.59422956
0.59407599
0.59395504
0.59385992
0.59378547
0.59372772
0.59368361
0.5936508
0.59362745
0.59361211
0.59360362
0.59360102
0.59360352
0.5936104
0.59362108
0.593635
0.59365169
0.59367068
0.59369157
0.59371398
0.59373755
0.59376194
0.5937868
0.59381176