/*--------------------------------*- C++ -*----------------------------------*\
| =========                 |                                                 |
| \\      /  F ield         | OpenFOAM: The Open Source CFD Toolbox           |
|  \\    /   O peration     | Version:  2506                                  |
|   \\  /    A nd           | Website:  www.openfoam.com                      |
|    \\/     M anipulation  |                                                 |
\*---------------------------------------------------------------------------*/
FoamFile
{
    version     2.0;
    format      ascii;
    arch        "LSB;label=32;scalar=64";
    class       volScalarField;
    location    "0.018";
    object      T;
}
// * * * * * * * * * * * * * * * * * * * * * * * * * * * * * * * * * * * * * //

dimensions      [0 0 0 1 0 0 0];

internalField   nonuniform List<scalar> 
192657
(
245.48308
245.68466
245.54489
245.69343
245.59594
245.65444
245.58758
245.57413
245.50859
245.40265
245.18296
244.84651
244.5012
244.37988
244.67181
245.32593
245.86021
245.74951
245.3247
245.29793
245.35075
245.1586
245.05808
245.06489
244.95581
244.86695
244.80856
244.70207
244.61349
244.51984
244.41145
244.30954
244.19435
244.07751
243.95313
243.82385
243.6891
243.54427
243.39299
243.23321
243.06666
242.89218
242.70953
242.51783
242.31694
242.10611
241.88531
241.65458
241.41398
241.16395
240.90495
240.6377
240.36318
240.08245
239.79683
239.50787
239.21714
238.92634
238.63711
238.3512
238.07018
237.79583
237.52958
237.27273
237.02663
236.7922
236.57014
236.3611
236.16516
235.98259
235.81311
235.65659
235.51271
235.38092
235.26061
235.15114
235.05185
234.96202
234.88078
234.80719
234.74054
234.68002
234.62478
234.57406
234.52729
234.4836
234.4424
234.40311
234.36545
234.3289
234.29308
234.25771
234.22262
234.18758
234.15244
234.11712
234.08139
234.04506
234.00858
233.97627
233.97306
234.14685
235.11623
236.69239
237.78205
238.46543
238.91237
239.20838
239.40149
239.52198
239.59031
239.62093
239.62424
239.60793
239.5777
239.53784
239.49159
239.4414
239.38914
239.3362
239.28365
239.23227
239.18264
239.13516
239.09012
239.04773
239.00809
238.97129
238.93736
238.90632
238.87818
238.85294
238.83062
238.81126
238.79491
238.78165
238.77157
238.7648
238.76152
238.76186
238.76593
238.77374
238.78494
238.79854
238.81244
238.82368
238.83044
238.83325
238.83384
245.48324
245.68422
245.54514
245.6932
245.59617
245.65448
245.58788
245.57447
245.50943
245.4044
245.18613
244.85066
244.50442
244.37958
244.66565
245.31792
245.85567
245.75381
245.32756
245.29622
245.35089
245.1602
245.0576
245.06487
244.95656
244.86716
244.80919
244.70288
244.61425
244.52086
244.41254
244.31079
244.19581
244.07916
243.95503
243.82598
243.69153
243.54698
243.39599
243.23651
243.07025
242.89619
242.71384
242.52245
242.32184
242.11126
241.89066
241.66006
241.41951
241.16943
240.91024
240.64265
240.36761
240.08618
239.79965
239.50954
239.21745
238.92503
238.63394
238.34595
238.06263
237.78579
237.51689
237.25725
237.00825
236.77085
236.54578
236.33373
236.1348
235.94929
235.77695
235.61766
235.47114
235.33684
235.21417
235.1025
235.00119
234.90953
234.82665
234.75166
234.68382
234.62229
234.56624
234.51496
234.4679
234.4242
234.38327
234.34458
234.30786
234.27262
234.23851
234.20533
234.17295
234.14126
234.11025
234.0801
234.05103
234.0236
233.99962
233.98637
234.01719
234.25639
235.28171
236.91141
238.03489
238.74996
239.23394
239.57182
239.81046
239.97912
240.09733
240.17868
240.23284
240.26683
240.28582
240.29367
240.29327
240.28687
240.27615
240.26245
240.24679
240.22995
240.21255
240.19508
240.17788
240.16124
240.14536
240.1304
240.11646
240.10364
240.09197
240.08149
240.07222
240.06418
240.05735
240.05172
240.04727
240.04397
240.04177
240.04059
240.04033
240.04081
240.04178
240.04286
240.04358
240.04363
240.04327
240.04293
240.04281
245.48339
245.68376
245.54539
245.69297
245.59641
245.6545
245.58818
245.57478
245.51022
245.40605
245.18911
244.85456
244.50747
244.37938
244.65995
245.31039
245.85134
245.75777
245.33025
245.29459
245.35094
245.16168
245.05713
245.06481
244.95724
244.86734
244.80976
244.70364
244.61496
244.52182
244.41358
244.31198
244.19721
244.08075
243.95686
243.82805
243.69388
243.54961
243.39891
243.23972
243.07384
242.90011
242.71808
242.527
242.32669
242.11638
241.89601
241.66558
241.42512
241.17502
240.9157
240.64783
240.37236
240.09031
239.80295
239.51179
239.21841
238.92448
238.63164
238.34166
238.05615
237.77691
237.50544
237.24308
236.99125
236.75094
236.52289
236.30786
236.10595
235.91749
235.74228
235.5802
235.431
235.29415
235.16907
235.05517
234.9518
234.85828
234.77374
234.69735
234.62834
234.56589
234.50925
234.4577
234.41064
234.36727
234.32703
234.28941
234.25415
234.22079
234.18898
234.15851
234.12926
234.10106
234.07382
234.04756
234.02216
233.99774
233.97536
233.96132
233.98793
234.21447
235.19034
236.81275
237.94762
238.66172
239.13809
239.46383
239.68707
239.83808
239.93729
239.99897
240.03336
240.04786
240.04792
240.03759
240.01987
239.99706
239.97087
239.94262
239.91331
239.88367
239.85428
239.82555
239.79779
239.77123
239.74601
239.72224
239.7
239.67931
239.6602
239.64268
239.62674
239.61238
239.59959
239.58836
239.57868
239.57056
239.56398
239.55895
239.55544
239.55339
239.5527
239.5531
239.55412
239.55513
239.55574
239.55595
239.55595
245.48355
245.68329
245.54566
245.69274
245.59665
245.65453
245.58849
245.57511
245.51104
245.40776
245.19222
244.85865
244.51069
244.37922
244.65403
245.30245
245.84676
245.76185
245.33316
245.29291
245.35097
245.16325
245.05666
245.06474
244.95796
244.86754
244.81036
244.70444
244.61571
244.52282
244.41466
244.31322
244.19866
244.08239
243.95876
243.83019
243.6963
243.55233
243.40193
243.24303
243.07756
242.90415
242.72245
242.5317
242.3317
242.12168
241.90154
241.6713
241.43093
241.18084
240.92141
240.65328
240.37738
240.09473
239.80655
239.51436
239.21972
238.92428
238.62969
238.33773
238.05001
237.76837
237.49431
237.22921
236.9745
236.73124
236.50017
236.2821
236.07716
235.88571
235.70756
235.54263
235.39069
235.25124
235.12371
235.00754
234.90209
234.8067
234.72054
234.64278
234.57267
234.50939
234.45223
234.40051
234.35357
234.3107
234.27134
234.23499
234.20133
234.16991
234.1404
234.11254
234.08619
234.06115
234.03729
234.01459
233.99298
233.97262
233.95475
233.94606
233.97943
234.20869
235.14168
236.75945
237.9402
238.68846
239.19241
239.54215
239.78698
239.95775
240.07514
240.1536
240.20345
240.23213
240.24512
240.24649
240.23931
240.22591
240.20808
240.18722
240.16438
240.14039
240.11589
240.09137
240.06719
240.04364
240.02093
239.9992
239.97857
239.9591
239.94084
239.92381
239.90804
239.89351
239.88023
239.86817
239.85732
239.84767
239.83919
239.83186
239.82564
239.8205
239.81638
239.81321
239.81091
239.80937
239.80846
239.80802
239.80788
245.48371
245.6828
245.54593
245.6925
245.5969
245.65456
245.58881
245.57544
245.51187
245.40951
245.1954
244.86286
244.51404
244.37913
244.64801
245.29428
245.84201
245.76596
245.33622
245.2912
245.35096
245.16488
245.05621
245.06464
244.95871
244.86776
244.81096
244.70527
244.61648
244.52385
244.41577
244.31449
244.20015
244.08407
243.96071
243.83237
243.69878
243.55511
243.405
243.24644
243.08134
242.90827
242.72691
242.5365
242.33683
242.1271
241.90722
241.67718
241.43693
241.18686
240.92734
240.65898
240.38269
240.09946
239.8105
239.51731
239.22142
238.9245
238.62819
238.33427
238.04436
237.76031
237.48367
237.21582
236.95824
236.712
236.47789
236.25675
236.04873
235.85424
235.6731
235.50527
235.35054
235.20843
235.0784
234.9599
234.85232
234.75503
234.6672
234.58805
234.51682
234.45272
234.39504
234.34314
234.29634
234.25393
234.21536
234.18015
234.14789
234.11819
234.09065
234.06499
234.04102
234.01851
233.99727
233.97722
233.95824
233.94041
233.92489
233.91814
233.95225
234.17239
235.04127
236.62589
237.84934
238.62483
239.14425
239.50272
239.75202
239.92447
240.04171
240.11877
240.16655
240.19276
240.20307
240.20167
240.19171
240.17557
240.15508
240.13162
240.10627
240.07985
240.05298
240.02614
239.9997
239.97394
239.94904
239.92517
239.90241
239.88085
239.86051
239.84143
239.82361
239.80706
239.79178
239.77774
239.76493
239.75335
239.743
239.73386
239.72593
239.71921
239.71371
239.70944
239.70642
239.70453
239.70352
239.70308
239.70294
245.48387
245.6823
245.54621
245.69225
245.59716
245.6546
245.58913
245.57579
245.51272
245.41129
245.19867
244.8672
244.51753
244.3791
244.64187
245.28584
245.83705
245.77011
245.33945
245.28945
245.35092
245.16658
245.05577
245.06453
244.95948
244.86799
244.81158
244.70612
244.61728
244.5249
244.41691
244.31579
244.20167
244.0858
243.9627
243.83461
243.70132
243.55795
243.40815
243.24995
243.0852
242.91248
242.73147
242.54142
242.34207
242.13266
241.91305
241.68322
241.44311
241.19309
240.9335
240.66493
240.38827
240.10449
239.81478
239.52061
239.22351
238.92513
238.62712
238.33124
238.03916
237.75272
237.47348
237.20288
236.9424
236.69317
236.45598
236.23173
236.0206
235.82301
235.63883
235.46804
235.31045
235.16562
235.03302
234.91213
234.80237
234.7031
234.61355
234.53293
234.46051
234.3955
234.33721
234.285
234.23819
234.19608
234.15808
234.12371
234.09253
234.06412
234.03804
234.014
233.99175
233.97102
233.95161
233.9334
233.91625
233.90024
233.88644
233.88107
233.91461
234.12145
234.92306
236.46575
237.73993
238.55328
239.09856
239.47574
239.73915
239.92259
240.04863
240.1328
240.18653
240.21775
240.23229
240.23448
240.22755
240.21397
240.19559
240.17386
240.1499
240.12455
240.09847
240.07217
240.04603
240.02035
239.99535
239.9712
239.94802
239.92589
239.90487
239.88498
239.86625
239.84868
239.83227
239.81702
239.8029
239.78992
239.77806
239.76733
239.75772
239.74926
239.74201
239.73607
239.73161
239.72871
239.72714
239.72646
239.72627
245.48403
245.68178
245.5465
245.69199
245.59743
245.65463
245.58947
245.57613
245.51359
245.41312
245.20203
244.87168
244.52116
244.37913
244.63562
245.27713
245.83187
245.77428
245.34286
245.28767
245.35083
245.16834
245.05533
245.0644
244.96029
244.86823
244.81221
244.70701
244.6181
244.52599
244.41809
244.31713
244.20324
244.08757
243.96474
243.8369
243.70392
243.56085
243.41135
243.25356
243.08915
242.91679
242.73614
242.54644
242.34745
242.13835
241.91902
241.68943
241.44948
241.19952
240.93989
240.67113
240.39413
240.10982
239.81938
239.52426
239.22598
238.92616
238.62647
238.32866
238.03441
237.74558
237.46376
237.1904
236.92701
236.67476
236.43446
236.20707
235.99277
235.79204
235.60476
235.43094
235.27044
235.12282
234.98757
234.86421
234.75217
234.65085
234.55946
234.47727
234.40353
234.33746
234.2784
234.22567
234.17862
234.13651
234.09874
234.06482
234.03426
234.00663
233.98145
233.95839
233.93718
233.91751
233.89918
233.88201
233.86585
233.85074
233.83764
233.83219
233.86227
234.04927
234.77689
236.2676
237.59385
238.44684
239.01708
239.41078
239.68545
239.87669
240.0082
240.09639
240.15285
240.18597
240.20184
240.20497
240.19868
240.18549
240.16729
240.14555
240.12146
240.09585
240.06939
240.04258
240.01582
239.98942
239.96361
239.93858
239.91445
239.89131
239.86923
239.84823
239.82834
239.80959
239.79196
239.77545
239.76005
239.74576
239.73259
239.72054
239.70962
239.69988
239.69142
239.68442
239.67912
239.67569
239.67386
239.67309
239.67288
245.4842
245.68125
245.5468
245.69173
245.59771
245.65466
245.58982
245.57649
245.51448
245.41499
245.20548
244.8763
244.52493
244.37924
244.62925
245.26814
245.82646
245.77847
245.34647
245.28586
245.35069
245.17017
245.05491
245.06425
244.96112
244.86849
244.81286
244.70791
244.61894
244.5271
244.4193
244.3185
244.20485
244.08938
243.96682
243.83924
243.70657
243.56382
243.41462
243.25725
243.09318
242.92118
242.7409
242.55158
242.35294
242.14417
241.92515
241.6958
241.45603
241.20616
240.9465
240.67758
240.40026
240.11546
239.82431
239.52827
239.22882
238.92759
238.62624
238.32652
238.03011
237.7389
237.45449
237.17836
236.91204
236.65675
236.41332
236.18274
235.96524
235.76131
235.57088
235.39397
235.23048
235.07999
234.94201
234.81609
234.70167
234.59817
234.50483
234.42091
234.34568
234.27837
234.21829
234.16479
234.11718
234.07472
234.0368
234.00287
233.97245
233.94505
233.92019
233.8975
233.87669
233.85744
233.83951
233.82273
233.80692
233.7921
233.7791
233.77291
233.79836
233.96307
234.61439
236.04208
237.42181
238.3203
238.91964
239.3331
239.62178
239.82323
239.96235
240.05631
240.11726
240.15392
240.17264
240.17808
240.17369
240.16206
240.14515
240.12446
240.10112
240.07604
240.04989
240.02322
239.99643
239.96986
239.94373
239.91827
239.89362
239.86986
239.84708
239.8253
239.80457
239.78491
239.76631
239.74878
239.73233
239.71693
239.70262
239.68939
239.67727
239.66633
239.65669
239.6486
239.64241
239.63837
239.63621
239.63532
239.63508
245.48436
245.6807
245.54711
245.69146
245.598
245.65469
245.59018
245.57685
245.51539
245.4169
245.20901
244.88106
244.52887
244.37942
244.62278
245.25886
245.82081
245.78268
245.35027
245.28402
245.35051
245.17207
245.05451
245.06407
244.96198
244.86876
244.81352
244.70885
244.6198
244.52825
244.42054
244.3199
244.2065
244.09124
243.96896
243.84164
243.70929
243.56685
243.41797
243.26102
243.09729
242.92568
242.74577
242.55683
242.35856
242.15014
241.93143
241.70234
241.46276
241.21299
240.95333
240.68427
240.40666
240.12138
239.82956
239.53262
239.23204
238.92942
238.62642
238.32482
238.02626
237.73267
237.44567
237.16677
236.89751
236.63916
236.39256
236.15876
235.93801
235.73084
235.53719
235.35713
235.19057
235.03712
234.89633
234.76773
234.65082
234.54501
234.44956
234.36374
234.28682
234.21802
234.15667
234.10209
234.05358
234.0104
233.97189
233.9375
233.90672
233.87904
233.85396
233.83108
233.8101
233.79069
233.77259
233.75564
233.73963
233.72456
233.71112
233.70359
233.72351
233.86473
234.439
235.79082
237.22088
238.16961
238.80046
239.23477
239.5379
239.74961
239.89613
239.99553
240.06054
240.1003
240.12141
240.12874
240.12586
240.11544
240.0995
240.07956
240.0568
240.03212
240.00622
239.97965
239.95283
239.9261
239.89972
239.87388
239.84873
239.8244
239.80095
239.77844
239.75692
239.73641
239.71693
239.69848
239.68106
239.66468
239.64936
239.63511
239.62197
239.61002
239.59941
239.59043
239.58353
239.57901
239.5766
239.57561
239.57536
245.48453
245.68013
245.54743
245.69118
245.59829
245.65472
245.59054
245.57722
245.51631
245.41886
245.21264
244.88598
244.53296
244.37969
244.6162
245.2493
245.8149
245.78688
245.35428
245.28216
245.35027
245.17405
245.05412
245.06387
244.96287
244.86905
244.81419
244.70982
244.6207
244.52943
244.42182
244.32135
244.20819
244.09314
243.97115
243.8441
243.71206
243.56995
243.42139
243.26487
243.1015
242.93026
242.75075
242.5622
242.3643
242.15624
241.93785
241.70905
241.46968
241.22003
240.96039
240.69121
240.41333
240.1276
239.83513
239.53731
239.23562
238.93165
238.62703
238.32354
238.02285
237.7269
237.43731
237.15562
236.88341
236.62197
236.37218
236.13512
235.91108
235.7006
235.50368
235.32039
235.1507
234.99421
234.85049
234.71912
234.59959
234.49132
234.3936
234.30568
234.22684
234.15631
234.0934
234.03741
233.98766
233.94335
233.90384
233.86854
233.83693
233.80848
233.78268
233.75912
233.73748
233.71742
233.69868
233.68109
233.66445
233.64872
233.63446
233.62524
233.63937
233.75737
234.25603
235.51957
236.99341
237.99834
238.66418
239.12152
239.44063
239.66376
239.81859
239.92413
239.99376
240.03705
240.06095
240.07049
240.06942
240.06049
240.04578
240.02686
240.00492
239.98088
239.95547
239.92923
239.9026
239.87592
239.84947
239.82344
239.79801
239.77328
239.74937
239.72631
239.70418
239.68301
239.66281
239.64359
239.62538
239.60817
239.59198
239.57685
239.56281
239.54996
239.53848
239.5287
239.52112
239.51614
239.51349
239.51241
239.51213
245.4847
245.67954
245.54775
245.69089
245.5986
245.65475
245.59092
245.5776
245.51726
245.42085
245.21637
244.89104
244.53722
244.38004
244.60952
245.23944
245.80872
245.79108
245.35851
245.28027
245.34997
245.1761
245.05375
245.06364
244.9638
244.86935
244.81487
244.71082
244.62162
244.53063
244.42314
244.32283
244.20992
244.09509
243.9734
243.84661
243.7149
243.57312
243.42488
243.26881
243.10579
242.93495
242.75582
242.56767
242.37017
242.16248
241.94443
241.71592
241.47677
241.22727
240.96767
240.69838
240.42026
240.13411
239.84102
239.54235
239.23958
238.93426
238.62804
238.32269
238.01989
237.72157
237.42939
237.14492
236.86974
236.6052
236.35218
236.11183
235.88444
235.67061
235.47036
235.28377
235.11086
234.95124
234.8045
234.67023
234.54794
234.43707
234.33689
234.24667
234.16569
234.09316
234.02839
233.97068
233.91932
233.87352
233.83261
233.79598
233.7631
233.73345
233.70649
233.6818
233.65906
233.63794
233.61816
233.59956
233.58193
233.56521
233.54982
233.53869
233.54703
233.64289
234.06894
235.23281
236.7391
237.80622
238.51036
238.99257
239.32882
239.56412
239.72773
239.83969
239.91409
239.961
239.98767
239.99942
240.00013
239.99267
239.97918
239.96129
239.94021
239.91688
239.89203
239.86621
239.83987
239.81337
239.78696
239.76087
239.73526
239.71027
239.686
239.66252
239.63988
239.61814
239.59732
239.57745
239.55853
239.54059
239.52364
239.50774
239.49292
239.47928
239.46705
239.45658
239.44844
239.44306
239.4402
239.43903
239.43874
245.48487
245.67894
245.54809
245.69059
245.59891
245.65479
245.59131
245.57798
245.51822
245.42289
245.22019
244.89626
244.54166
244.38049
244.60275
245.22927
245.80225
245.79527
245.36297
245.27837
245.34961
245.17823
245.05341
245.06339
244.96475
244.86968
244.81556
244.71185
244.62256
244.53188
244.42449
244.32435
244.21171
244.09709
243.9757
243.84918
243.7178
243.57636
243.42844
243.27284
243.11017
242.93973
242.76101
242.57327
242.37616
242.16885
241.95115
241.72295
241.48405
241.23471
240.97516
240.70581
240.42746
240.14091
239.84722
239.54773
239.24389
238.93726
238.62947
238.32228
238.01737
237.71669
237.42193
237.13466
236.8565
236.58883
236.33256
236.08887
235.8581
235.64087
235.43722
235.24726
235.07105
234.90821
234.75834
234.62106
234.49588
234.38224
234.27942
234.18669
234.10333
234.02856
233.96164
233.90189
233.84859
233.80094
233.75825
233.71991
233.68538
233.65413
233.62562
233.59942
233.57523
233.55269
233.53154
233.51161
233.49269
233.4747
233.45797
233.44479
233.44758
233.52298
233.88084
234.93595
236.45884
237.59426
238.3404
238.84962
239.20444
239.45291
239.62603
239.74493
239.82446
239.87521
239.90484
239.91891
239.92148
239.91557
239.90339
239.88661
239.86648
239.84397
239.8198
239.79455
239.76865
239.74246
239.71626
239.69026
239.66464
239.63954
239.61506
239.59129
239.56829
239.54611
239.5248
239.50438
239.48487
239.46629
239.44869
239.4321
239.41658
239.40224
239.38932
239.37822
239.36955
239.36381
239.36075
239.3595
239.35919
245.48504
245.67832
245.54843
245.69029
245.59924
245.65482
245.59172
245.57837
245.5192
245.42497
245.2241
244.90164
244.54629
244.38104
244.5959
245.21879
245.79548
245.79941
245.36768
245.27645
245.34918
245.18044
245.05308
245.0631
244.96574
244.87002
244.81627
244.71292
244.62354
244.53315
244.42589
244.32591
244.21353
244.09914
243.97805
243.85181
243.72077
243.57968
243.43209
243.27693
243.11465
242.94461
242.7663
242.57898
242.38228
242.17537
241.95803
241.73015
241.49151
241.24234
240.98288
240.71347
240.43492
240.148
239.85374
239.55345
239.24858
238.94066
238.6313
238.32228
238.01528
237.71226
237.41491
237.12484
236.84368
236.57287
236.31332
236.06626
235.83206
235.61136
235.40426
235.21087
235.03127
234.86511
234.71202
234.5716
234.44339
234.32683
234.22119
234.12576
234.0398
233.96252
233.89319
233.83112
233.77556
233.72573
233.68092
233.64053
233.60399
233.5708
233.54041
233.51238
233.48641
233.46215
233.43934
233.41781
233.39736
233.37788
233.3596
233.34431
233.34192
233.39884
233.69393
234.63419
236.15352
237.36255
238.15457
238.69301
239.06782
239.33044
239.51374
239.64005
239.72502
239.77981
239.81249
239.82893
239.83338
239.82901
239.81813
239.80247
239.78333
239.76168
239.73827
239.71367
239.68832
239.66257
239.6367
239.61094
239.58545
239.56038
239.53584
239.51191
239.48868
239.4662
239.44451
239.42366
239.40366
239.38456
239.36638
239.3492
239.33306
239.3181
239.30457
239.29289
239.28373
239.27764
239.27439
239.27306
239.27274
245.48521
245.67768
245.54878
245.68997
245.59957
245.65485
245.59213
245.57877
245.5202
245.42709
245.22811
244.90719
244.5511
244.3817
244.58896
245.20796
245.7884
245.80351
245.37264
245.27453
245.34868
245.18273
245.05279
245.06278
244.96676
244.87038
244.81699
244.71402
244.62454
244.53446
244.42732
244.32752
244.21541
244.10124
243.98046
243.85451
243.72381
243.58307
243.43583
243.28109
243.11923
242.9496
242.7717
242.58481
242.38853
242.18203
241.96506
241.73752
241.49916
241.25018
240.99082
240.72137
240.44265
240.15537
239.86056
239.55951
239.25362
238.94443
238.63354
238.32272
238.01364
237.70827
237.40834
237.11546
236.8313
236.55732
236.29445
236.04399
235.80631
235.58211
235.37148
235.17458
234.99153
234.82197
234.66554
234.52187
234.39049
234.27086
234.16224
234.06391
233.97515
233.89513
233.82314
233.75846
233.70038
233.64808
233.60085
233.5581
233.51926
233.48383
233.45126
233.42111
233.3931
233.36686
233.34215
233.31879
233.29659
233.27542
233.25544
233.23799
233.23085
233.27142
233.50989
234.33269
235.82504
237.11121
237.95341
238.52348
238.91983
239.19768
239.39194
239.5262
239.61698
239.67606
239.71195
239.73082
239.73719
239.73436
239.72478
239.71024
239.69209
239.67133
239.64872
239.62483
239.60012
239.57493
239.54952
239.52413
239.49891
239.47403
239.44957
239.42565
239.40233
239.37968
239.35776
239.3366
239.31624
239.29672
239.27808
239.2604
239.24374
239.22824
239.21417
239.20197
239.19237
239.18596
239.18253
239.18114
239.18079
245.48538
245.67701
245.54914
245.68965
245.59992
245.65489
245.59256
245.57918
245.52122
245.42925
245.23223
244.91291
244.55611
244.38248
244.58196
245.19678
245.78101
245.80754
245.37786
245.27261
245.34809
245.18511
245.05253
245.06243
244.96782
244.87077
244.81772
244.71515
244.62557
244.53581
244.4288
244.32916
244.21733
244.10339
243.98293
243.85726
243.72692
243.58653
243.43965
243.28533
243.1239
242.95469
242.77722
242.59076
242.39492
242.18883
241.97225
241.74506
241.50699
241.25823
240.99898
240.72952
240.45064
240.16304
239.8677
239.56591
239.25903
238.94859
238.63618
238.32357
238.01242
237.70472
237.40221
237.10652
236.81934
236.54217
236.27597
236.02206
235.78086
235.5531
235.33889
235.13842
234.95182
234.77877
234.61891
234.47188
234.33721
234.21436
234.1026
234.00121
233.90944
233.82649
233.75161
233.68411
233.62324
233.56822
233.51832
233.47294
233.43155
233.39362
233.35862
233.32612
233.29582
233.26739
233.24056
233.21518
233.19104
233.16801
233.14619
233.12655
233.11509
233.14146
233.3298
234.03621
235.47634
236.84002
237.73719
238.34151
238.761
239.05519
239.26121
239.404
239.501
239.56463
239.60388
239.62527
239.63357
239.63227
239.62394
239.61047
239.59327
239.57338
239.55157
239.52844
239.50442
239.47985
239.45501
239.4301
239.4053
239.38073
239.35652
239.33275
239.30949
239.28683
239.26481
239.24348
239.22288
239.20307
239.18409
239.16601
239.14892
239.13297
239.11842
239.10578
239.09577
239.08907
239.08547
239.08401
239.08365
245.48555
245.67633
245.54951
245.68932
245.60027
245.65492
245.59299
245.57959
245.52226
245.43145
245.23644
244.9188
244.56133
244.38338
244.57489
245.18523
245.7733
245.81149
245.38337
245.27069
245.34742
245.18757
245.0523
245.06204
244.96891
244.87117
244.81846
244.71632
244.62663
244.53719
244.43032
244.33085
244.21931
244.10559
243.98545
243.86009
243.73009
243.59008
243.44355
243.28963
243.12869
242.95989
242.78285
242.59684
242.40143
242.19577
241.97959
241.75277
241.51501
241.26647
241.00736
240.73791
240.4589
240.17099
239.87516
239.57264
239.2648
238.95314
238.63923
238.32484
238.01165
237.70162
237.39652
237.09802
236.80781
236.52743
236.25786
236.00047
235.75571
235.52433
235.30649
235.10237
234.91216
234.73553
234.57214
234.42164
234.28357
234.15738
234.04234
233.93773
233.8428
233.75673
233.67878
233.60824
233.5444
233.48643
233.43365
233.38544
233.34127
233.30063
233.26299
233.22793
233.19516
233.16434
233.13522
233.10764
233.0814
233.05637
233.03258
233.01074
232.99535
233.00957
233.15437
233.74885
235.11171
236.54862
237.50626
238.14767
238.59197
238.90366
239.1223
239.27426
239.37794
239.44644
239.48924
239.51325
239.5235
239.52371
239.51658
239.50412
239.48781
239.46873
239.44769
239.42528
239.40196
239.37807
239.35386
239.32953
239.30525
239.28114
239.25731
239.23384
239.21081
239.18829
239.16633
239.14499
239.1243
239.10433
239.08513
239.06678
239.04938
239.03307
239.01816
239.00514
238.99479
238.98782
238.98408
238.98255
238.98218
245.48572
245.67563
245.54989
245.68898
245.60064
245.65496
245.59344
245.58001
245.52331
245.4337
245.24075
244.92486
244.56677
244.38442
244.56778
245.1733
245.76526
245.81534
245.38917
245.26879
245.34666
245.19011
245.05212
245.06161
244.97004
244.8716
244.81922
244.71753
244.62773
244.53862
244.43188
244.33258
244.22134
244.10785
243.98805
243.86297
243.73334
243.5937
243.44755
243.294
243.13358
242.9652
242.7886
242.60304
242.40808
242.20286
241.9871
241.76064
241.52321
241.27492
241.01596
240.74654
240.46742
240.17923
239.88292
239.5797
239.27092
238.95806
238.64268
238.32654
238.0113
237.69896
237.39128
237.08996
236.7967
236.5131
236.24013
235.97923
235.73086
235.49581
235.27428
235.06645
234.87255
234.69226
234.52526
234.37119
234.22961
234.09996
233.98153
233.87356
233.77532
233.68599
233.60482
233.5311
233.46411
233.40304
233.34721
233.29599
233.24887
233.20535
233.16492
233.12714
233.09173
233.05837
233.02681
232.99689
232.96842
232.94125
232.91539
232.89131
232.87235
232.87629
232.98394
233.47391
234.73675
236.23662
237.26101
237.94253
238.41337
238.74376
238.97591
239.13773
239.24859
239.32231
239.3689
239.39565
239.40791
239.40961
239.40363
239.39209
239.37656
239.3582
239.33783
239.31609
239.29343
239.2702
239.24664
239.22295
239.19927
239.17572
239.1524
239.12938
239.10672
239.0845
239.06277
239.04158
239.02097
239.00099
238.98172
238.96324
238.94564
238.9291
238.91391
238.9006
238.88998
238.8828
238.87893
238.87735
238.87697
245.48588
245.67491
245.55028
245.68862
245.60102
245.65499
245.59391
245.58044
245.52439
245.43598
245.24516
244.93111
244.57243
244.38561
244.56063
245.16097
245.75688
245.81908
245.39527
245.26691
245.3458
245.19274
245.05197
245.06114
244.97121
244.87206
244.81998
244.71877
244.62886
244.54008
244.43349
244.33437
244.22342
244.11017
243.9907
243.86593
243.73667
243.59741
243.45163
243.29846
243.13854
242.97062
242.79447
242.60937
242.41487
242.2101
241.99476
241.7687
241.53161
241.28357
241.02479
240.75542
240.4762
240.18775
239.89099
239.5871
239.2774
238.96336
238.64653
238.32865
238.01139
237.69673
237.38648
237.08233
236.78601
236.49916
236.22278
235.95833
235.70631
235.46755
235.24226
235.03065
234.833
234.64898
234.47827
234.32056
234.17537
234.04217
233.92023
233.80881
233.70716
233.61445
233.52994
233.45292
233.38266
233.31838
233.25937
233.20503
233.15484
233.10833
233.06497
233.02435
232.98619
232.95018
232.91606
232.88369
232.85287
232.82346
232.79543
232.7691
232.74689
232.7422
232.8187
233.2138
234.35819
235.90401
237.00196
237.7268
238.22592
238.57625
238.82287
238.99527
239.11385
239.19319
239.24384
239.2735
239.28785
239.29105
239.28616
239.27546
239.2606
239.24282
239.22301
239.20182
239.17973
239.15708
239.13414
239.11108
239.08803
239.06511
239.0424
239.01994
238.99781
238.97605
238.95472
238.93384
238.91348
238.89367
238.87449
238.85603
238.83838
238.82172
238.80636
238.79284
238.78199
238.7746
238.7706
238.76897
238.76857
245.48605
245.67417
245.55068
245.68826
245.60141
245.65503
245.59438
245.58088
245.52548
245.4383
245.24967
244.93755
244.57832
244.38695
244.55346
245.14823
245.74814
245.82267
245.40169
245.26507
245.34482
245.19545
245.05188
245.06063
244.97241
244.87255
244.82075
244.72006
244.63002
244.54158
244.43515
244.3362
244.22555
244.11254
243.99342
243.86896
243.74007
243.6012
243.45581
243.30304
243.14357
242.97617
242.80046
242.61583
242.4218
242.21749
242.00259
241.77693
241.54019
241.29244
241.03384
240.76454
240.48525
240.19656
239.89937
239.59483
239.28424
238.96904
238.65077
238.33117
238.0119
237.69495
237.38211
237.07513
236.77575
236.48563
236.2058
235.93776
235.68206
235.43953
235.21043
234.99499
234.79351
234.60568
234.4312
234.26976
234.12088
233.98405
233.85852
233.74357
233.63842
233.54227
233.45435
233.37395
233.30037
233.2328
233.17055
233.11302
233.05969
233.01012
232.96377
232.92024
232.87925
232.84051
232.80376
232.76886
232.73562
232.70389
232.67364
232.64504
232.61983
232.60796
232.65878
232.97005
233.98344
235.55155
236.72983
237.50128
238.03051
238.40206
238.66411
238.84783
238.97472
239.06012
239.11514
239.14793
239.16448
239.16922
239.1654
239.15545
239.14115
239.12381
239.10439
239.08359
239.06192
239.03974
239.01731
238.99481
238.97238
238.95009
238.92803
238.90622
238.88472
238.86357
238.84278
238.82241
238.80248
238.78303
238.76414
238.74589
238.72837
238.71178
238.69641
238.68283
238.67187
238.66438
238.66031
238.65864
238.65823
245.48622
245.6734
245.55109
245.68789
245.60181
245.65506
245.59487
245.58133
245.52659
245.44067
245.25428
244.94417
244.58445
244.38845
244.54629
245.13506
245.73904
245.82611
245.40844
245.26327
245.34374
245.19825
245.05185
245.06007
244.97365
244.87306
244.82154
244.72138
244.63122
244.54312
244.43685
244.33807
244.22775
244.11498
243.99621
243.87206
243.74355
243.60508
243.46008
243.30772
243.14867
242.98184
242.80659
242.62243
242.42888
242.22503
242.01058
241.78534
241.54897
241.3015
241.04311
240.77391
240.49457
240.20566
239.90806
239.60289
239.29144
238.9751
238.65542
238.33411
238.01283
237.69359
237.37818
237.06837
236.7659
236.4725
236.1892
235.91753
235.6581
235.41175
235.17879
234.95946
234.75409
234.56239
234.38407
234.21882
234.0662
233.92566
233.79649
233.67794
233.56925
233.46961
233.37825
233.29445
233.21751
233.14665
233.08115
233.02043
232.96396
232.91131
232.86196
232.8155
232.77167
232.73018
232.69076
232.6533
232.61761
232.58352
232.551
232.52014
232.49215
232.47432
232.50432
232.74345
233.62002
235.1814
236.44551
237.267
237.82823