/*--------------------------------*- C++ -*----------------------------------*\
| =========                 |                                                 |
| \\      /  F ield         | OpenFOAM: The Open Source CFD Toolbox           |
|  \\    /   O peration     | Version:  2506                                  |
|   \\  /    A nd           | Website:  www.openfoam.com                      |
|    \\/     M anipulation  |                                                 |
\*---------------------------------------------------------------------------*/
FoamFile
{
    version     2.0;
    format      ascii;
    arch        "LSB;label=32;scalar=64";
    class       volScalarField;
    location    "0.031";
    object      omega;
}
// * * * * * * * * * * * * * * * * * * * * * * * * * * * * * * * * * * * * * //

dimensions      [0 0 -1 0 0 0 0];

internalField   nonuniform List<scalar> 
192657
(
13244.623
13194.563
13194.242
13194.26
13194.099
13194.009
13193.962
13194.196
13194.49
13194.442
13193.574
13192.797
13194.217
13196.564
13196.557
13194.56
13192.72
13193.382
13194.549
13193.932
13192.62
13191.361
13188.614
13187.612
13189.714
13191.455
13191.403
13191.468
13193.288
13193.047
13186.277
13177.037
13173.414
13178.059
13182.541
13178.855
13175.73
13178.268
13177.415
13174.676
13175.341
13174.606
13173.157
13173.249
13176.784
13172.74
13168.047
13163.029
13162.161
13165.721
13169.709
13173.099
13179.605
13192.847
13207.089
13216.012
13224.656
13254.549
13306.478
13338.26
13344.507
13399.671
13510.918
13562.202
13504.842
13446.258
13460.193
13489.612
13473.398
13422.354
13383.628
13379.885
13396.1
13415.29
13437.054
13472.953
13521.577
13570.97
13619.87
13673.707
13736.242
13810.397
13895.793
13988.591
14086.327
14186.934
14287.201
14384.564
14478.004
14567.124
14652.511
14734.915
14814.997
14893.701
14972.646
15054.002
15140.08
15232.405
15332.327
15456.087
15810.067
18257.002
28039.464
42664.883
54524.28
63248.712
69915.461
75294.654
79876.735
83975.558
87803.664
91514.863
95227.655
99039.339
103034.59
107292.08
111888.94
116905.8
122429.08
128555.37
135395.31
143077.85
151755.47
161610.43
172862.55
185780.14
200694.96
218018.92
238275.65
262128.88
290439.79
324343.22
365336.54
415428.42
477392.44
555110.42
654114.49
782450.11
952059.94
1181097.4
1498110.8
1949197.5
2611693.3
3630930
5361372.4
8963697.9
18909689
58030619
3.4683013e+08
13250.687
13194.567
13194.242
13194.261
13194.101
13194.012
13193.963
13194.194
13194.485
13194.445
13193.582
13192.801
13194.196
13196.544
13196.567
13194.585
13192.732
13193.366
13194.549
13193.953
13192.639
13191.386
13188.633
13187.603
13189.695
13191.45
13191.414
13191.477
13193.306
13193.122
13186.402
13177.109
13173.389
13177.991
13182.543
13178.925
13175.739
13178.25
13177.45
13174.691
13175.321
13174.613
13173.148
13173.219
13176.834
13172.82
13167.993
13163.061
13162.164
13165.652
13169.585
13172.951
13179.375
13192.568
13206.957
13216.074
13224.546
13254.039
13306.185
13338.786
13345.013
13398.689
13509.428
13563.82
13510.072
13451.65
13463.781
13493.859
13481.006
13432.543
13393.348
13387.706
13403.141
13423.07
13446.246
13482.976
13532.298
13583.356
13634.316
13689.603
13752.633
13826.391
13911.103
14003.929
14102.828
14205.718
14309.497
14411.518
14510.462
14605.568
14697.12
14785.617
14871.546
14955.706
15039.557
15125.15
15214.767
15310.055
15413.262
15545.605
15936.876
18456.324
28297.96
43280.465
55493.046
64448.851
71292.946
76821.069
81541.242
85777.129
89747.634
93610.939
97488.927
101481.28
105674.9
110149.81
114984.8
120261.56
126068.12
132502.47
139677.28
147723.71
156796.95
167082.62
178804.04
192234.23
207709.19
225646.64
246574.73
271162.71
300273.76
335043.23
376959.05
428009
490919.06
569483.42
669070.57
797442.09
966052
1192251.2
1503312.4
1943470.8
2587862.2
3581203.4
5286719.1
8898683.4
18953664
58465716
3.4973556e+08
13256.959
13194.572
13194.242
13194.261
13194.101
13194.012
13193.961
13194.192
13194.484
13194.452
13193.588
13192.795
13194.173
13196.532
13196.583
13194.609
13192.741
13193.347
13194.547
13193.974
13192.655
13191.411
13188.652
13187.591
13189.674
13191.443
13191.423
13191.483
13193.321
13193.195
13186.527
13177.182
13173.361
13177.916
13182.539
13178.991
13175.745
13178.226
13177.48
13174.701
13175.294
13174.614
13173.134
13173.179
13171.554
13172.966
13167.931
13163.056
13162.153
13165.584
13169.465
13172.802
13179.137
13192.272
13206.805
13216.127
13224.422
13253.479
13305.817
13339.277
13345.498
13397.605
13507.762
13565.318
13515.342
13457.16
13467.44
13498.086
13488.61
13442.919
13403.496
13396.043
13410.603
13431.138
13455.634
13493.211
13543.3
13596.033
13649.084
13705.964
13769.787
13843.499
13927.794
14020.687
14120.525
14225.497
14332.574
14439.081
14543.443
14644.576
14742.447
14837.286
14929.386
15019.365
15108.495
15198.661
15292.064
15390.441
15496.866
15636.844
16055.635
18569.733
28215.708
43366.563
55969.921
65204.877
72247.995
77921.557
82758.462
87096.441
91163.652
95124.885
99106.784
103212.86
107532.85
112149.05
117141.64
122593.58
128593.67
135240.62
142647.66
150946.43
160292.5
170871.52
182906.62
196669.65
212494.98
230796.62
252097.69
277058.57
306530.13
341628.66
383815.49
435039.08
497971.87
576332.78
675388.68
802763.34
969728.47
1193393.3
1500702.5
1935423
2572026.3
3554701.4
5247805.2
8845825.5
18863021
58197515
3.4815506e+08
13263.448
13194.577
13194.242
13194.262
13194.102
13194.013
13193.96
13194.19
13194.481
13194.458
13193.596
13192.791
13194.149
13196.517
13196.599
13194.633
13192.751
13193.328
13194.546
13193.995
13192.673
13191.437
13188.673
13187.581
13189.653
13191.436
13191.433
13191.49
13193.336
13193.269
13186.656
13177.26
13173.336
13177.84
13182.533
13179.059
13175.754
13178.202
13177.512
13174.715
13175.269
13174.617
13173.123
13173.154
13171.539
13173.167
13167.896
13163.018
13162.13
13165.52
13169.36
13172.662
13178.9
13191.966
13206.638
13216.171
13224.287
13252.872
13305.37
13339.723
13345.96
13396.421
13505.907
13566.656
13520.608
13462.762
13471.15
13502.255
13496.145
13453.411
13414.017
13404.86
13418.464
13439.473
13465.192
13503.625
13554.532
13608.946
13664.12
13722.734
13787.587
13861.544
13945.681
14038.769
14139.576
14246.463
14356.616
14467.386
14576.896
14683.992
14788.241
14889.582
14988.088
15084.18
15178.912
15273.974
15371.444
15473.135
15582.947
15730.6
16173.378
18636.724
27879.679
42990.912
56029.407
65622.457
72923.928
78782.541
83762.99
88220.217
92393.644
96455.615
100537.94
104748.02
109178.84
113914.8
119037.46
124630.51
130783.12
137594
145176.24
153661.2
163204.01
173989.78
186240.79
200227.9
216283.87
234820.64
256358.15
281552.42
311247.67
346550.86
388909.08
440250.15
503215.65
581478.72
680236.98
807010.29
972913.4
1194820.9
1499333
1929746.4
2560041.9
3534570.5
5220988.2
8823386.5
18869741
58296309
3.4882967e+08
13270.16
13194.583
13194.243
13194.263
13194.102
13194.013
13193.959
13194.187
13194.479
13194.464
13193.604
13192.787
13194.125
13196.502
13196.615
13194.657
13192.763
13193.309
13194.544
13194.017
13192.692
13191.463
13188.695
13187.569
13189.63
13191.428
13191.442
13191.497
13193.352
13193.343
13186.788
13177.342
13173.311
13177.762
13182.526
13179.128
13175.765
13178.177
13177.543
13174.73
13175.244
13174.62
13173.113
13173.129
13171.525
13173.388
13167.91
13162.948
13162.087
13165.456
13169.267
13172.533
13178.665
13191.652
13206.457
13216.211
13224.147
13252.226
13304.848
13340.128
13346.411
13395.159
13503.872
13567.822
13525.86
13468.466
13474.934
13506.374
13503.599
13463.999
13424.901
13414.174
13426.757
13448.11
13474.954
13514.243
13566.006
13622.099
13679.422
13739.908
13806.021
13880.514
13964.76
14058.163
14159.898
14268.554
14381.572
14496.374
14610.943
14723.887
14834.485
14942.397
15047.464
15149.891
15250.5
15350.753
15452.489
15557.709
15670.985
15825.858
16287.497
18665.882
27362.533
42244.247
55732.327
65743.094
73344.869
79411.473
84546.55
89126.013
93403.561
97561.236
101737.09
106043.08
110576.61
115424.92
120671.31
126400.59
132702.42
139675.58
147432.85
156105.09
165846.73
176841.9
189311.49
203524.42
219810.92
238579.39
260345.06
285757.38
315651.66
351122.62
393600.53
444990.14
507901.91
585966.87
684326.44
810426.08
975284.62
1195656.5
1497997.7
1925450
2551890.3
3521885.2
5204426.7
8805868.5
18852289
58264854
3.4867309e+08
13277.104
13194.59
13194.243
13194.264
13194.103
13194.014
13193.958
13194.185
13194.476
13194.47
13193.613
13192.784
13194.1
13196.485
13196.631
13194.682
13192.775
13193.29
13194.542
13194.04
13192.711
13191.489
13188.718
13187.558
13189.607
13191.42
13191.452
13191.504
13193.367
13193.418
13186.922
13177.428
13173.288
13177.681
13182.515
13179.198
13175.777
13178.152
13177.575
13174.746
13175.218
13174.623
13173.105
13173.105
13171.508
13173.583
13167.993
13162.848
13162.017
13165.383
13169.185
13172.415
13178.434
13191.331
13206.263
13216.245
13224.004
13251.542
13304.249
13340.488
13346.857
13393.831
13501.66
13568.794
13531.071
13474.268
13478.799
13510.441
13510.946
13474.641
13436.119
13423.979
13435.495
13457.067
13484.936
13525.072
13577.717
13635.479
13694.973
13757.458
13825.056
13900.372
13984.995
14078.858
14181.515
14291.821
14407.498
14526.085
14645.484
14764.108
14880.972
14995.469
15107.203
15216.143
15322.867
15428.589
15534.958
15643.951
15760.579
15919.984
16382.08
18622.75
26721.887
41269.017
55179.105
65643.372
73570.667
79882.385
85196.809
89914.428
94305.636
98564.356
102835.89
107235.71
111867.51
116821.75
122184.03
128040.77
134482.65
141608.75
149531.42
158381.2
168312.1
179507.53
192187.26
206618.76
223130.27
242127.61
264122.65
289760.39
319870.04
355538.08
398183.21
449694.22
512659.46
590679.33
688852.72
814566.59
978760.53
1198085.3
1498869.2
1924123.5
2547677.9
3514420.6
5194869.7
8799150.4
18859133
58315232
3.4901079e+08
13284.284
13194.598
13194.243
13194.264
13194.104
13194.015
13193.957
13194.182
13194.473
13194.476
13193.622
13192.78
13194.074
13196.467
13196.647
13194.708
13192.788
13193.27
13194.539
13194.063
13192.73
13191.516
13188.743
13187.547
13189.583
13191.412
13191.461
13191.511
13193.382
13193.494
13187.06
13177.519
13173.266
13177.598
13182.503
13179.268
13175.791
13178.126
13177.607
13174.765
13175.193
13174.626
13173.098
13173.081
13171.49
13173.636
13168.148
13162.731
13161.915
13165.294
13169.11
13172.309
13178.21
13191.007
13206.055
13216.273
13223.861
13250.826
13303.575
13340.8
13347.3
13392.452
13499.276
13569.554
13536.218
13480.163
13482.755
13514.458
13518.163
13485.303
13447.641
13434.267
13444.693
13466.369
13495.159
13536.124
13589.666
13649.077
13710.758
13775.357
13844.65
13921.069
14006.344
14100.835
14204.443
14316.309
14434.456
14556.579
14680.554
14804.647
14927.645
15048.686
15167.136
15282.727
15395.775
15507.235
15618.535
15731.554
15851.374
16012.298
16456.71
18510.371
25961.014
40099.984
54417.816
65374.358
73664.698
80234.397
85737.341
90598.802
95105.127
99461.124
103822.24
108313.09
113039.06
118093.98
123566.49
129545.42
136123.35
143401.08
151488.79
160517
170640.1
182041
194938.5
209598.72
226348.04
245589.63
267832.14
293716.58
324066.82
359962.2
402811.45
454489.79
517567.14
595619.08
693711.19
819186.7
982929.93
1201526.5
1501238.7
1925040.5
2546825.9
3511807.7
5191416.1
8797728.2
18866001
58349742
3.4923907e+08
13291.71
13194.606
13194.243
13194.265
13194.105
13194.016
13193.956
13194.18
13194.47
13194.483
13193.631
13192.777
13194.048
13196.448
13196.664
13194.735
13192.802
13193.25
13194.536
13194.086
13192.75
13191.543
13188.769
13187.536
13189.558
13191.403
13191.471
13191.518
13193.397
13193.57
13187.2
13177.613
13173.245
13177.513
13182.487
13179.34
13175.806
13178.1
13177.639
13174.785
13175.168
13174.63
13173.092
13173.057
13171.471
13168.37
13168.358
13162.613
13161.778
13165.184
13169.038
13172.214
13177.993
13190.679
13205.835
13216.296
13223.719
13250.081
13302.824
13341.06
13347.746
13391.035
13496.726
13570.086
13541.276
13486.145
13486.812
13518.428
13525.234
13495.946
13459.433
13445.026
13454.362
13476.034
13505.644
13547.413
13601.853
13662.889
13726.76
13793.574
13864.76
13942.55
14028.75
14124.057
14228.681
14342.053
14462.506
14587.925
14716.212
14845.536
14974.491
15101.985
15227.155
15349.489
15469.042
15586.492
15703.027
15820.358
15943.331
16103.654
16518.949
18359.348
25127.645
38768.374
53460.291
64942.546
73627.772
80479.045
86187.202
91204.048
95833.36
100292.01
104744.43
109322.22
114136.32
119284.93
124860.01
130952.75
137657.2
145074.76
153319.43
162522
172835.75
184442.88
197561.56
212457.34
229456.12
248957.53
271466.51
297622.12
328244.84
364409.02
407516.33
459432.12
522712.97
600916.05
699082.02
824520.92
988075.28
1206283.2
1505365.1
1928290.9
2549066
3513244.3
5193001.8
8802304.1
18881817
58408479
3.4960889e+08
13299.39
13194.616
13194.243
13194.266
13194.105
13194.017
13193.955
13194.177
13194.467
13194.489
13193.64
13192.775
13194.022
13196.428
13196.68
13194.763
13192.817
13193.229
13194.533
13194.11
13192.771
13191.57
13188.797
13187.525
13189.532
13191.394
13191.481
13191.526
13193.412
13193.647
13187.343
13177.712
13173.226
13177.425
13182.469
13179.411
13175.823
13178.073
13177.671
13174.808
13175.144
13174.634
13173.088
13173.034
13171.475
13168.356
13168.586
13162.518
13161.605
13165.044
13168.963
13172.128
13177.786
13190.351
13205.604
13216.314
13223.58
13249.312
13301.999
13341.266
13348.197
13389.594
13494.017
13570.375
13546.222
13492.204
13490.978
13522.358
13532.141
13506.536
13471.458
13456.239
13464.508
13486.083
13516.412
13558.952
13614.284
13676.909
13742.965
13812.079
13885.338
13964.753
14052.149
14148.478
14254.218
14369.077
14491.703
14620.198
14752.537
14886.835
15021.538
15155.354
15287.198
15416.324
15542.522
15666.193
15788.258
15910.208
16036.429
16194.958
16575.226
18193.216
24262.155
37304.941
52315.168
64352.391
73463.977
80620.376
86550.193
91733.19
96491.62
101055.19
105597.95
110259.15
115155.95
120391.68
126062.43
132262.66
139088.89
146644.3
155044.02
164419.44
174923.91
186739.32
200083.03
215219.37
232472.51
252243
275035.92
301487.12
332413.63
368885.73
412299.67
464513.57
528074.45
606526.91
704894.88
830462.8
994042.23
1212146.1
1510983.6
1933565.3
2554059.3
3518357.7
5199081.2
8811404.6
18901412
58471592
3.4999909e+08
13307.331
13194.627
13194.244
13194.267
13194.106
13194.018
13193.954
13194.174
13194.463
13194.496
13193.65
13192.772
13193.994
13196.406
13196.696
13194.793
13192.833
13193.208
13194.528
13194.134
13192.792
13191.597
13188.826
13187.514
13189.505
13191.384
13191.491
13191.534
13193.426
13193.725
13187.489
13177.816
13173.209
13177.335
13182.448
13179.484
13175.842
13178.045
13177.703
13174.832
13175.119
13174.639
13173.086
13173.011
13171.48
13168.343
13168.79
13162.472
13161.402
13164.872
13168.878
13172.047
13177.589
13190.024
13205.362
13216.327
13223.448
13248.522
13301.1
13341.412
13348.656
13388.141
13491.159
13570.407
13551.029
13498.329
13495.262
13526.256
13538.875
13517.036
13483.675
13467.884
13475.135
13496.535
13527.485
13570.756
13626.964
13691.137
13759.363
13830.845
13906.337
13987.615
14076.472
14174.043
14281.027
14397.394
14522.097
14653.475
14789.615
14928.627
15068.847
15208.813
15347.243
15483.165
15616.11
15746.197
15874.07
16000.957
16130.647
16287.004
16630.485
18028.99
23397.038
35739.044
50988.624
63605.376
73175.947
80662.932
86832.811
92194.551
97089.845
101761.93
106395.03
111136.58
116110.55
121425.94
127183.6
133481.92
140420.57
148105.12
156652.54
166195.42
176887.91
188912.22
202485.74
217872.48
235396.07
255456.2
278556.85
305332.35
336597.71
373420.56
417193.34
469768.84
533686.87
612482.13
711165.47
837009.23
1000812.2
1219072.6
1518006.8
1940693.9
2561504.6
3526685.4
5209119.2
8824846.6
18926171
58546120
3.5045363e+08
13315.544
13194.639
13194.244
13194.268
13194.107
13194.019
13193.952
13194.171
13194.459
13194.504
13193.66
13192.771
13193.966
13196.382
13196.712
13194.823
13192.851
13193.187
13194.523
13194.159
13192.814
13191.625
13188.857
13187.503
13189.478
13191.373
13191.5
13191.542
13193.44
13193.803
13187.638
13177.923
13173.194
13177.244
13182.424
13179.556
13175.862
13178.017
13177.735
13174.859
13175.096
13174.643
13173.085
13172.989
13171.487
13168.329
13168.854
13162.495
13161.179
13164.664
13168.775
13171.967
13177.403
13189.702
13205.111
13216.335
13223.324
13247.717
13300.129
13341.496
13349.123
13386.691
13488.162
13570.171
13555.673
13504.508
13499.669
13530.132
13545.426
13527.414
13496.043
13479.934
13486.241
13507.403
13538.883
13582.841
13639.901
13705.576
13775.945
13849.846
13927.713
14011.073
14101.649
14200.69
14309.074
14427.006
14553.729
14687.83
14827.542
14971.007
15116.497
15262.417
15407.306
15549.982
15689.729
15826.389
15960.317
16092.455
16225.93
16380.361
16688.272
17878.88
22559.821
34102.112
49487.545
62700.675
72763.128
80607.33
87036.961
92591.295
97632.392
102417.68
107142.09
111961.69
117007.7
122395.33
128230.75
134616.87
141657.15
149460.31
158145.75
167848.02
178722.64
190952.78
204756.41
220397.78
238200.46
258563.87
281991.5
309116.91
340754.03
377969.11
422152.49
475154
539509.5
618748.41
717874.68
844152.63
1008374
1227038
1526388.3
1949600.3
2571281
3538037.7
5222843.3
8842199.2
18954906
58627588
3.5094552e+08
13324.035
13194.652
13194.244
13194.269
13194.108
13194.02
13193.951
13194.168
13194.455
13194.511
13193.671
13192.769
13193.937
13196.358
13196.729
13194.855
13192.87
13193.165
13194.517
13194.185
13192.837
13191.653
13188.89
13187.492
13189.449
13191.362
13191.51
13191.55
13193.453
13193.882
13187.79
13178.036
13173.181
13177.15
13182.398
13179.629
13175.884
13177.988
13177.767
13174.888
13175.072
13174.648
13173.085
13172.968
13171.494
13168.316
13163.607
13162.591
13160.954
13164.42
13168.648
13171.882
13177.227
13189.384
13204.852
13216.34
13223.21
13246.9
13299.088
13341.513
13349.6
13385.255
13485.038
13569.659
13560.127
13510.724
13504.206
13533.997
13551.788
13537.637
13508.518
13492.358
13497.82
13518.702
13550.626
13595.226
13653.109
13720.231
13792.709
13869.064
13949.425
14035.069
14127.607
14228.352
14338.315
14457.901
14586.628
14723.331
14866.41
15014.08
15164.589
15316.241
15467.427
15616.774
15763.333
15906.675
16046.87
16184.556
16322.19
16475.374
16750.911
17751.041
21772.796
32427.041
47820.757
61636.409
72223.904
80453.409
87164.148
92926.567
98123.966
103028.6
107846.56
112742.95
117856.56
123309.24
129212.93
135675.63
142805.22
150714.19
159525.21
169375.45
180422.62
192851.6
206881.64
222777.92
240864.69
261541.72
285312.75
312811.34
344851.31
382498.64
427143.04
480633.28
545503.81
625282.19
724970.14
851830.15
1016655.3
1235957.1
1536022.2
1960144.2
2583192
3552133.1
5239873.5
8863065.7
18987505
58716853
3.514808e+08
13332.814
13194.666
13194.245
13194.27
13194.109
13194.021
13193.95
13194.165
13194.451
13194.519
13193.681
13192.768
13193.907
13196.331
13196.746
13194.888
13192.89
13193.142
13194.51
13194.211
13192.86
13191.681
13188.925
13187.481
13189.419
13191.351
13191.52
13191.558
13193.466
13193.962
13187.946
13178.153
13173.17
13177.054
13182.368
13179.702
13175.908
13177.958
13177.799
13174.919
13175.05
13174.653
13173.086
13172.948
13171.502
13168.333
13163.603
13162.743
13160.75
13164.145
13168.492
13171.785
13177.058
13189.072
13204.588
13216.341
13223.108
13246.076
13297.98
13341.461
13350.087
13383.847
13481.801
13568.864
13564.366
13516.96
13508.875
13537.864
13557.961
13547.677
13521.055
13505.12
13509.861
13530.44
13562.733
13607.928
13666.6
13735.115
13809.656
13888.484
13971.439
14059.545
14154.278
14256.963
14368.698
14490.06
14620.812
14760.033
14906.308
15057.954
15213.23
15370.379
15527.673
15683.567
15836.902
15986.991
16133.62
16277.118
16419.309
16572.185
16819.726
17650.403
21053.422
30748.261
46000.732
60410.226
71555.573
80199.65
87214.366
93201.918
98567.646
103599.25
108514.44
113487.61
118665.45
124176.68
130139.37
136667.01
143872.45
151872.62
160794.11
170777.6
181983.8
194600.17
208848.13
224994.7
243365.62
264361.94
288488.47
316379.72
348850.34
386967.28
432121.04
486161.09
551622.89
632035.26
732401.83
859989.05
1025599
1245765.8
1546833.2
1972231.6
2597113.3
3568804.8
5260000.6
8887181.9
19023479
58812436
3.5205094e+08
13341.889
13194.682
13194.245
13194.271
13194.11
13194.022
13193.949
13194.162
13194.446
13194.528
13193.691
13192.768
13193.876
13196.304
13196.763
13194.921
13192.912
13193.119
13194.502
13194.237
13192.884
13191.71
13188.962
13187.471
13189.389
13191.339
13191.529
13191.567
13193.479
13194.043
13188.104
13178.275
13173.162
13176.957
13182.335
13179.775
13175.934
13177.928
13177.832
13174.951
13175.028
13174.657
13173.089
13172.929
13171.511
13168.353
13163.602
13162.916
13160.592
13163.851
13168.301
13171.67
13176.893
13188.766
13204.319
13216.34
13223.021
13245.25
13296.809
13341.336
13350.581
13382.476
13478.464
13567.782
13568.367
13523.197
13513.678
13541.746
13563.947
13557.51
13533.611
13518.182
13522.348
13542.624
13575.222
13620.967
13680.393
13750.24
13826.794
13908.098
13993.728
14084.455
14181.598
14286.452
14400.168
14523.453
14656.287
14797.983
14947.318
15102.734
15262.537
15424.942
15588.13
15750.417
15910.448
16067.299
16220.481
16370.017
16517.153
16670.779
16895.261
17579.287
20414.238
29100.599
44044.741
59020.028
70755.016
79843.928
87187.003
93418.34
98966.028
104133.84
109151.5
114202.99
119443.06
125007.44
131020.52
137601.57
144868.77
152944.01
161958.49
172057.12
183404.5
196191.68
210643.26
227029.16
245677.71
266992.3
291479.96
319777.24
352700.86
391320.05
437027.62
491675.59
557802.71
638942.11
740103.36
868562.09
1035136.5
1256392.4
1558743.1
1985771.7
2612931.2
3587906.5
5283056
8914393.8
19062716
58914289
3.5265604e+08
13351.272
13194.7
13194.245
13194.272
13194.111
13194.023
13193.948
13194.158
13194.442
13194.537
13193.702
13192.768
13193.845
13196.275
13196.782
13194.954
13192.936
13193.096
13194.493
13194.264
13192.909
13191.74
13189
13187.46
13189.357
13191.326
13191.538
13191.576
13193.491
13194.124
13188.265
13178.402
13173.156
13176.858
13182.298
13179.849
13175.962
13177.896
13177.865
13174.986
13175.006
13174.662
13173.093
13172.91
13171.52
13168.375
13163.601
13163.068
13160.5
13163.555
13168.073
13171.529
13176.726
13188.465
13204.046
13216.338
13222.95
13244.427
13295.579
13341.134
13351.083
13381.156
13475.044
13566.411
13572.106
13529.413
13518.614
13545.657
13569.75
13567.112
13546.14
13531.501
13535.261
13555.256
13588.11
13634.362
13694.505
13765.626
13844.136
13927.908
14016.273
14109.758
14209.508
14316.757
14432.667
14558.045
14693.052
14837.217
14989.513
15148.523
15312.629
15480.048
15648.905
15817.4
15984.01
16147.592
16307.397
16463.153
16615.588
16771.027
16977.483
17537.984
19863.036
27518.014
41975.92
57464.771
69819.032
79383.645
87080.811
93576.112
99320.95
104635.79
109762.83
114895.89
120197.87
125811.57
131867.7
138491.41
145806.41
153939.87
163028.08
173220.85
184687.54
197623.7
212258.27
228865.26
247776.93
269400.34
294246.15
322954.39
356345.35
395492.13
441791.59
497100.33
563962.78
645919.39
747989.57
877463.16
1045180.9
1267749.2
1571661.7
2000667.8
2630535.1
3609304.7
5308887.1
8944538.5
19104972
59021592
3.532912e+08
13360.97
13194.719
13194.246
13194.272
13194.112
13194.024
13193.947
13194.155
13194.436
13194.546
13193.713
13192.768
13193.812
13196.244
13196.801
13194.988
13192.962
13193.073
13194.482
13194.291
13192.935
13191.77
13189.041
13187.45
13189.324
13191.313
13191.547
13191.586
13193.502
13194.206
13188.43
13178.534
13173.153
13176.757
13182.258
13179.922
13175.991
13177.863
13177.898
13175.023
13174.985
13174.667
13173.098
13172.892
13171.531
13168.399
13163.6
13163.082
13160.477
13163.281
13167.809
13171.359
13176.553
13188.167
13203.771
13216.333
13222.898
13243.611
13294.295
13340.854
13351.589
13379.894
13471.558
13564.753
13575.56
13535.584
13523.68
13549.61
13575.379
13576.465
13558.601
13545.034
13548.576
13568.333
13601.408
13648.132
13708.959
13781.295
13861.7
13947.918
14039.063
14135.423
14237.96
14347.818
14466.14
14593.795
14731.095
14877.762
15032.958
15195.42
15363.625
15535.827
15710.121
15884.619
16057.658
16227.9
16394.35
16556.458
16714.498
16872.744
17065.965
17525.268
19403.115
26031.931
39823.814
55745.435
68744.817
78816.124
86894.271
93675.152
99633.83
105108.1
110353.1
115572.78
120938.25
126599.34
132693
139350.13
146699.93
154874.95
164016.83
174280.73
185841.39
198899.76
213690.21
230492.11
249643.11
271555.55
296745.39
325858.02
359719.15
399407.78
446327.02
502340.38
570000.68
652858.96
755948.45
886578.25
1055618.1
1279722.8
1585476.9
2016807.1
2649807
3632870.6
5337360.6
8977493.2
19150067
59133875
3.5395378e+08
13370.995
13194.74
13194.246
13194.273
13194.113
13194.026
13193.946
13194.151
13194.431
13194.555
13193.725
13192.769
13193.779
13196.211
13196.82
13195.022
13192.99
13193.049
13194.471
13194.318
13192.961
13191.801
13189.083
13187.44
13189.29
13191.299
13191.555
13191.595
13193.513
13194.289
13188.598
13178.672
13173.153
13176.655
13182.215
13179.995
13176.023
13177.831
13177.929
13175.063
13174.964
13174.672
13173.105
13172.875
13171.542
13168.425
13163.6
13157.791
13160.507
13163.052
13167.514
13171.155
13176.366
13187.867
13203.491
13216.328
13222.865
13242.809
13292.961
13340.492
13352.096
13378.702
13468.023
13562.811
13578.709
13541.686
13528.871
13553.618
13580.846
13585.557
13570.952
13558.735
13562.262
13581.85
13615.128
13662.296
13723.775
13797.271
13879.509
13968.144
14062.096
14161.428
14266.914
14379.584
14500.535
14630.665
14770.402
14919.638
15077.712
15243.518
15415.648
15592.416
15771.916
15952.201
16131.495
16308.288
16481.362
16649.903
16813.797
16975.723
17160.041
17538.852
19033.764
24669.578
37624.362
53866.219
67530.408
78138.927
86625.843
93715.197
99905.792
105553.36
110926.51
116239.66
121672.2
127380.97
133508.88
140192.39
147565.9
155767.19
164943.16
175254.46
186881.57
200031.47
214944.84
231907.61
251264.28
273434.2
298940.68
328436.56
362755.47
402984.8
450536.71
507284.55
575792.92
659627.16
763838.74
895761.34
1066300.3
1292166.8
1600045.1
2034049.4
2670606.3
3658456.1
5368325.7
9013116
19197804
59250593
3.546405e+08
13381.355
13194.764
13194.246
13194.274
13194.115
13194.027
13193.945
13194.147
13194.425
13194.564
13193.738
13192.77
13193.745
13196.176
13196.841
13195.057
13193.019
13193.025
13194.457
13194.346
13192.989
13191.832
13189.128
13187.429
13189.255
13191.285
13191.564
13191.605
13193.523
13194.372
13188.769
13178.814
13173.156
13176.552
13182.168
13180.068
13176.056
13177.797
13177.96
13175.107
13174.945
13174.677
13173.112
13172.859
13171.554
13168.454
13163.638
13157.735
13160.553
13162.885
13167.2
13170.914
13176.159
13187.561
13203.205
13216.319
13222.852
13242.025
13291.584
13340.048
13352.602
13377.587
13464.459
13560.594
13581.534
13547.693
13534.178
13557.695
13586.165
13594.376
13583.157
13572.556
13576.286
13595.795
13629.278
13676.87
13738.978
13813.581
13897.591
13988.606
14085.38
14187.763
14296.34
14412.013
14535.805
14668.616
14810.956
14962.858
15123.826
15292.907
15468.821
15649.961
15834.446
16020.298
16205.654
16388.859
16568.497
16743.508
16913.442
17079.779
17258.938
17575.797
18750.897
23452.472
35419.11
51835.925
66175.178
77350.272
86274.307
93696.122
100137.96
105974.04
111487.04
116902.2
122407.44
128166.45
134327.95
141033.56
148422.49
156637.27
165829.71
176165.7
187831.39
201039.98
216038.97
233121.73
252640.85
275024.38
300805.01
330645.55
365390.32
406138.37
454314.4
511805.56
581192.48
666059.6
771482.08
904824.57
1077035.4
1304890.1
1615182.5
2052222.4
2692771.5
3685903.1
5401623.7
9051235.2
19247913
59370860
3.5534595e+08
13392.062
13194.789
13194.247
13194.275
13194.116
13194.028
13193.944
13194.144
13194.419
13194.573
13193.752
13192.771
13193.71
13196.139
13196.861
13195.092
13193.051
13193.001
13194.442
13194.374
13193.018
13191.864
13189.175
13187.419
13189.219
13191.27
13191.571
13191.615
13193.533
13194.456
13188.943
13178.962
13173.162
13176.448
13182.117
13180.14
13176.091
13177.763
13177.99
13175.153
13174.926
13174.681
13173.122
13172.843
13171.567
13168.485
13163.679
13157.684
13160.576
13162.782
13166.885
13170.64
13175.927
13187.242
13202.91
13216.304
13222.861
13241.263
13290.171
13339.521
13353.102
13376.556
13460.885
13558.11
13584.019
13553.578
13539.59
13561.853
13591.351
13602.919
13595.18
13586.451
13590.613
13610.154
13643.861
13691.872
13754.59
13830.257
13915.978
14009.332
14108.931
14214.429
14326.223
14445.074
14571.914
14707.617
14852.743
15007.438
15171.351
15343.678
15523.269
15708.615
15897.882
16089.086
16280.303
16469.763
16655.871
16837.348
17013.45
17184.774
17361.883
17632.844
18547.815
22395.315
33253.61
49669.497
64680.351
76449.47
85839.122
93618.237
100331.74
106372.74
112038.64
117565.95
123151.35
128965.45
135162.59
141889.17
149288.7
157507.83
166702.62
177043.56
188721.93
201956.8
217002.41
234159.85
253790.52
276332.37
302329.28
332456.43
367571.84
408789.88
457552.1
515764.39
586028.93
671955.52
778650.07
913516.07
1087553.5
1317612.6
1630606.4
2071048.4
2716036.3
3714961.1
5437030.1
9091679.1
19300185
59494076
3.5606593e+08
13403.127
13194.816
13194.247
13194.277
13194.117
13194.03
13193.943
13194.14
13194.413
13194.583
13193.767
13192.773
13193.675
13196.099
13196.882
13195.128
13193.084
13192.977
13194.426
13194.402
13193.049
13191.896
13189.225
13187.409
13189.181
13191.254
13191.579
13191.625
13193.542
13194.539
13189.121
13179.116
13173.172
13176.343
13182.062
13180.212
13176.128
13177.729
13178.02
13175.2
13174.91
13174.685
13173.132
13172.828
13171.58
13168.519
13163.723
13157.637
13160.457
13162.724
13166.591
13170.336
13175.664
13186.906
13202.602
13216.282
13222.891
13240.529
13288.727
13338.911
13353.593
13375.618
13457.32
13555.373
13586.149
13559.313
13545.095
13566.1
13596.423
13611.184
13606.991
13600.373
13605.204
13624.907
13658.877
13707.314
13770.635
13847.33
13934.707
14030.357
14132.775
14241.437
14356.558
14478.75
14608.838
14747.644
14895.753
15053.395
15220.34
15395.922
15579.123
15768.543
15962.415
16158.767
16355.647
16551.19
16743.654
16931.556
17113.902
17290.647
17468.18
17706.707
18416.027
21505.412
31175.092
47389.495
63049.632
75437.438
85320.829
93482.648