/*--------------------------------*- C++ -*----------------------------------*\
| =========                 |                                                 |
| \\      /  F ield         | OpenFOAM: The Open Source CFD Toolbox           |
|  \\    /   O peration     | Version:  2506                                  |
|   \\  /    A nd           | Website:  www.openfoam.com                      |
|    \\/     M anipulation  |                                                 |
\*---------------------------------------------------------------------------*/
FoamFile
{
    version     2.0;
    format      ascii;
    arch        "LSB;label=32;scalar=64";
    class       volScalarField;
    location    "0.0035";
    object      nut;
}
// * * * * * * * * * * * * * * * * * * * * * * * * * * * * * * * * * * * * * //

dimensions      [0 2 -1 0 0 0 0];

internalField   nonuniform List<scalar> 
192657
(
4.0334972e-06
3.7768069e-06
3.7764416e-06
3.7764411e-06
3.7764386e-06
3.7764385e-06
3.7764385e-06
3.7764385e-06
3.7764385e-06
3.7764385e-06
3.7764385e-06
3.7764385e-06
3.7764385e-06
3.7764385e-06
3.7764385e-06
3.7764385e-06
3.7764385e-06
3.7764385e-06
3.7764385e-06
3.7764385e-06
3.7764385e-06
3.7764385e-06
3.7764386e-06
3.7764386e-06
3.7764391e-06
3.7764416e-06
3.7764511e-06
3.7764805e-06
3.776547e-06
3.7766428e-06
3.7766633e-06
3.7763881e-06
3.7758334e-06
3.7755087e-06
3.7758272e-06
3.7767161e-06
3.7786109e-06
3.7841245e-06
3.7962757e-06
3.813311e-06
3.8232646e-06
3.808448e-06
3.7801083e-06
3.7692157e-06
3.7845929e-06
3.7903036e-06
3.7748824e-06
3.7750827e-06
3.7824294e-06
3.7680608e-06
3.7589939e-06
3.7576124e-06
3.7427822e-06
3.7255061e-06
3.7061833e-06
3.6917193e-06
3.6825621e-06
3.6489255e-06
3.5831152e-06
3.5380099e-06
3.525497e-06
3.4609185e-06
3.3397219e-06
3.3000534e-06
3.3875559e-06
3.4733847e-06
3.4944502e-06
3.5295963e-06
3.6183286e-06
3.7017603e-06
3.7418553e-06
3.7863212e-06
3.861531e-06
3.9493202e-06
4.0182886e-06
4.0462597e-06
4.0509824e-06
4.0802405e-06
4.1234542e-06
4.1162607e-06
4.0733083e-06
4.0842035e-06
4.1867412e-06
4.3552912e-06
4.4954377e-06
4.5373488e-06
4.5765359e-06
4.6765715e-06
4.7641911e-06
4.8132265e-06
4.8785121e-06
4.9705012e-06
5.0711511e-06
5.1874015e-06
5.321472e-06
5.4655802e-06
5.6204157e-06
5.7870471e-06
5.9637984e-06
6.1685851e-06
6.5777941e-06
8.6633047e-06
2.7733057e-05
0.00017655207
0.00057229962
0.0010091921
0.001376588
0.0016546382
0.0018439664
0.0019547143
0.0020010513
0.0019976476
0.0019577345
0.0018922852
0.0018098895
0.0017169909
0.0016182642
0.0015170043
0.0014154959
0.001315292
0.0012174229
0.0011225657
0.0010311573
0.00094347684
0.00085970587
0.0007799544
0.00070428768
0.00063274303
0.00056532372
0.00050202592
0.00044282332
0.000387663
0.00033649973
0.00028927843
0.00024591275
0.00020630308
0.00017034585
0.00013793475
0.00010896811
8.3349714e-05
6.0985347e-05
4.1827511e-05
2.5944581e-05
1.3608217e-05
5.3453173e-06
1.3146149e-06
1.6356402e-07
9.1561984e-09
2.9076646e-09
4.0665007e-06
3.7768404e-06
3.7764418e-06
3.776441e-06
3.7764386e-06
3.7764385e-06
3.7764385e-06
3.7764385e-06
3.7764385e-06
3.7764385e-06
3.7764385e-06
3.7764385e-06
3.7764385e-06
3.7764385e-06
3.7764385e-06
3.7764385e-06
3.7764385e-06
3.7764385e-06
3.7764385e-06
3.7764385e-06
3.7764385e-06
3.7764385e-06
3.7764386e-06
3.7764386e-06
3.7764391e-06
3.7764415e-06
3.776451e-06
3.7764802e-06
3.7765468e-06
3.7766436e-06
3.7766667e-06
3.7763971e-06
3.775842e-06
3.7755137e-06
3.7758248e-06
3.7767126e-06
3.7786019e-06
3.7841004e-06
3.7962636e-06
3.8133931e-06
3.8236128e-06
3.8090515e-06
3.7805873e-06
3.7694706e-06
3.784809e-06
3.7907864e-06
3.7753587e-06
3.7754584e-06
3.7829669e-06
3.7687131e-06
3.7595269e-06
3.7582107e-06
3.7434252e-06
3.7261046e-06
3.7067442e-06
3.6921101e-06
3.6827981e-06
3.6493105e-06
3.5837664e-06
3.5385235e-06
3.5257385e-06
3.4610862e-06
3.3396887e-06
3.299297e-06
3.3856808e-06
3.4704694e-06
3.4905253e-06
3.5249513e-06
3.6133257e-06
3.6968654e-06
3.7372507e-06
3.7820505e-06
3.857537e-06
3.9455962e-06
4.0147944e-06
4.0430549e-06
4.0484949e-06
4.0788462e-06
4.1228167e-06
4.1161088e-06
4.0740608e-06
4.0862251e-06
4.1899741e-06
4.3598432e-06
4.5011715e-06
4.5436292e-06
4.5839907e-06
4.6857187e-06
4.7738948e-06
4.8230863e-06
4.8893502e-06
4.9823574e-06
5.0837623e-06
5.2010005e-06
5.3360885e-06
5.4811818e-06
5.6371731e-06
5.8049584e-06
5.982871e-06
6.1912032e-06
6.6261336e-06
8.9006364e-06
2.8716343e-05
0.00017749592
0.00057891138
0.0010229838
0.0013902865
0.0016650513
0.001849969
0.0019563872
0.0019990881
0.0019929631
0.0019512347
0.0018847546
0.0018019525
0.0017091148
0.0016107822
0.0015101432
0.0014094028
0.0013100569
0.0012130949
0.0011191657
0.0010286856
0.00094191823
0.00085903243
0.00078012696
0.00070525656
0.00063444831
0.0005676957
0.00050498532
0.00044628175
0.00039152392
0.00034065898
0.00029362511
0.00025033056
0.00021067151
0.00017454164
0.00014183406
0.0001124501
8.6302301e-05
6.3314609e-05
4.3473776e-05
2.6909811e-05
1.3998258e-05
5.4003022e-06
1.2948826e-06
1.5731301e-07
8.035877e-09
1.9165808e-09
4.1006246e-06
3.7768789e-06
3.7764419e-06
3.776441e-06
3.7764386e-06
3.7764385e-06
3.7764385e-06
3.7764385e-06
3.7764385e-06
3.7764385e-06
3.7764385e-06
3.7764385e-06
3.7764385e-06
3.7764385e-06
3.7764385e-06
3.7764385e-06
3.7764385e-06
3.7764385e-06
3.7764385e-06
3.7764385e-06
3.7764385e-06
3.7764385e-06
3.7764386e-06
3.7764386e-06
3.7764391e-06
3.7764415e-06
3.776451e-06
3.7764802e-06
3.776547e-06
3.7766449e-06
3.7766703e-06
3.7764049e-06
3.7758462e-06
3.7755128e-06
3.7758188e-06
3.7767061e-06
3.7785878e-06
3.7840698e-06
3.7962453e-06
3.8134667e-06
3.8239549e-06
3.8096613e-06
3.7810816e-06
3.7697167e-06
3.7848092e-06
3.7912703e-06
3.7758421e-06
3.7758237e-06
3.7834977e-06
3.7693759e-06
3.760061e-06
3.7588122e-06
3.7440814e-06
3.7267167e-06
3.7073242e-06
3.6925189e-06
3.683064e-06
3.6497455e-06
3.5844648e-06
3.5390735e-06
3.5260764e-06
3.4614323e-06
3.3397928e-06
3.2985718e-06
3.3838409e-06
3.4676594e-06
3.4866542e-06
3.5202271e-06
3.6081822e-06
3.6918615e-06
3.7324988e-06
3.7775191e-06
3.8532106e-06
3.9415395e-06
4.0110546e-06
4.0396349e-06
4.0457856e-06
4.0771907e-06
4.1218297e-06
4.1157993e-06
4.0748025e-06
4.0879127e-06
4.1922397e-06
4.3629453e-06
4.505648e-06
4.5493342e-06
4.5909041e-06
4.6938602e-06
4.7827174e-06
4.8324512e-06
4.8995517e-06
4.9932697e-06
5.09529e-06
5.213249e-06
5.3489749e-06
5.4946923e-06
5.65134e-06
5.819657e-06
5.9981469e-06
6.2093566e-06
6.6672735e-06
9.1042969e-06
2.9245387e-05
0.00017365952
0.00057194906
0.0010204815
0.0013874091
0.0016595558
0.0018408756
0.0019435664
0.0019829079
0.0019740285
0.0019302178
0.0018622962
0.0017786158
0.001685372
0.0015870188
0.0014866688
0.0013864643
0.0012878516
0.00119178
0.0010988658
0.0010094981
0.00092391685
0.0008422693
0.00076463465
0.00069104885
0.00062152177
0.00055603059
0.00049454674
0.00043702136
0.00038338124
0.00033356293
0.00028749624
0.00024508339
0.00020621715
0.00017079076
0.00013870026
0.0001098536
8.4173941e-05
6.1599773e-05
4.2135494e-05
2.593009e-05
1.3372429e-05
5.1019361e-06
1.2114138e-06
1.4649276e-07
7.5752108e-09
1.9093402e-09
4.135909e-06
3.7769227e-06
3.7764421e-06
3.776441e-06
3.7764386e-06
3.7764385e-06
3.7764385e-06
3.7764385e-06
3.7764385e-06
3.7764385e-06
3.7764385e-06
3.7764385e-06
3.7764385e-06
3.7764385e-06
3.7764385e-06
3.7764385e-06
3.7764385e-06
3.7764385e-06
3.7764385e-06
3.7764385e-06
3.7764385e-06
3.7764385e-06
3.7764386e-06
3.7764386e-06
3.7764391e-06
3.7764415e-06
3.7764509e-06
3.7764801e-06
3.7765471e-06
3.7766461e-06
3.7766738e-06
3.7764132e-06
3.7758516e-06
3.7755134e-06
3.7758137e-06
3.7766997e-06
3.7785738e-06
3.7840378e-06
3.7962244e-06
3.8135362e-06
3.8242957e-06
3.8102811e-06
3.7815952e-06
3.7699588e-06
3.7850018e-06
3.7917596e-06
3.7763369e-06
3.7761835e-06
3.7840285e-06
3.7700487e-06
3.7606001e-06
3.7594207e-06
3.7447531e-06
3.7273449e-06
3.7079262e-06
3.6929484e-06
3.6833618e-06
3.65023e-06
3.5852099e-06
3.5396602e-06
3.5265069e-06
3.4619499e-06
3.3400321e-06
3.2978822e-06
3.3820414e-06
3.4649562e-06
3.4828443e-06
3.5154407e-06
3.6029163e-06
3.6867631e-06
3.7276135e-06
3.7727417e-06
3.8485646e-06
3.9371567e-06
4.0070599e-06
4.0359961e-06
4.0427947e-06
4.0752193e-06
4.1206503e-06
4.115368e-06
4.075453e-06
4.0892523e-06
4.1935462e-06
4.3646327e-06
4.5088922e-06
4.5544408e-06
4.5972394e-06
4.7009963e-06
4.790667e-06
4.8412949e-06
4.9090902e-06
5.0032509e-06
5.1057769e-06
5.2242267e-06
5.3602697e-06
5.5062896e-06
5.6631293e-06
5.8314109e-06
6.0099386e-06
6.223302e-06
6.7008175e-06
9.2693682e-06
2.9377674e-05
0.00016591269
0.00055220889
0.0010020256
0.0013694165
0.001641447
0.0018224564
0.0019249598
0.0019643799
0.001955871
0.0019126868
0.0018455865
0.0017628592
0.0016706486
0.0015733718
0.0014741159
0.0013750066
0.0012774793
0.0011824759
0.0010906068
0.0010022551
0.00091765408
0.00083694338
0.00076019421
0.00068743436
0.00061866602
0.00055385974
0.00049298166
0.00043597942
0.00038277823
0.00033331489
0.0002875214
0.00024530408
0.00020656141
0.00017119378
0.00013910563
0.00011021461
8.4455008e-05
6.1778218e-05
4.2204484e-05
2.5903818e-05
1.3292777e-05
5.0319551e-06
1.1843919e-06
1.422956e-07
7.231405e-09
1.71402e-09
4.1723898e-06
3.7769724e-06
3.7764423e-06
3.776441e-06
3.7764386e-06
3.7764385e-06
3.7764385e-06
3.7764385e-06
3.7764385e-06
3.7764385e-06
3.7764385e-06
3.7764385e-06
3.7764385e-06
3.7764385e-06
3.7764385e-06
3.7764385e-06
3.7764385e-06
3.7764385e-06
3.7764385e-06
3.7764385e-06
3.7764385e-06
3.7764385e-06
3.7764386e-06
3.7764386e-06
3.7764391e-06
3.7764415e-06
3.7764508e-06
3.7764799e-06
3.7765472e-06
3.7766472e-06
3.7766774e-06
3.7764217e-06
3.7758569e-06
3.7755137e-06
3.7758083e-06
3.776693e-06
3.7785589e-06
3.7840032e-06
3.7962001e-06
3.8136006e-06
3.8246341e-06
3.8109099e-06
3.7821263e-06
3.7701973e-06
3.7851917e-06
3.7922525e-06
3.7768431e-06
3.7765384e-06
3.7845597e-06
3.7707287e-06
3.7611433e-06
3.7600353e-06
3.7454386e-06
3.727988e-06
3.7085494e-06
3.6933981e-06
3.6836909e-06
3.650761e-06
3.5859995e-06
3.5402823e-06
3.5270255e-06
3.4626322e-06
3.3404052e-06
3.2972336e-06
3.3802878e-06
3.4623627e-06
3.4791058e-06
3.5106117e-06
3.5975497e-06
3.6815902e-06
3.7226164e-06
3.7677413e-06
3.8436197e-06
3.9324628e-06
4.0028187e-06
4.0321417e-06
4.0395308e-06
4.0729395e-06
4.119301e-06
4.1148975e-06
4.0758771e-06
4.08998e-06
4.1938899e-06
4.36518e-06
4.5111368e-06
4.5589545e-06
4.6029767e-06
4.7071539e-06
4.7977624e-06
4.8495985e-06
4.9179644e-06
5.0123442e-06
5.1152955e-06
5.2340531e-06
5.3701584e-06
5.5162023e-06
5.6728205e-06
5.8405792e-06
6.0186934e-06
6.2335869e-06
6.7276183e-06
9.401246e-06
2.9279702e-05
0.00015625039
0.00052445784
0.00097306834
0.001341722
0.0016150149
0.0017971373
0.001900728
0.0019412796
0.0019339653
0.0018920301
0.0018262093
0.0017447655
0.0016538219
0.0015577883
0.0014597467
0.0013618205
0.001265445
0.0011715626
0.0010807831
0.00099348793
0.00090990658
0.0008301733
0.00075435251
0.00068246455
0.00061450436
0.00055043602
0.00049022034
0.00043380142
0.00038110273
0.00033206111
0.00028661064
0.00024466175
0.00020611881
0.00017088973
0.00013888805
0.00011004195
8.4297536e-05
6.1619065e-05
4.2040495e-05
2.5746195e-05
1.3165763e-05
4.960216e-06
1.1621798e-06
1.3924539e-07
7.0605807e-09
1.663874e-09
4.2101067e-06
3.7770285e-06
3.7764425e-06
3.7764409e-06
3.7764386e-06
3.7764385e-06
3.7764385e-06
3.7764385e-06
3.7764385e-06
3.7764385e-06
3.7764385e-06
3.7764385e-06
3.7764385e-06
3.7764385e-06
3.7764385e-06
3.7764385e-06
3.7764385e-06
3.7764385e-06
3.7764385e-06
3.7764385e-06
3.7764385e-06
3.7764385e-06
3.7764386e-06
3.7764386e-06
3.7764391e-06
3.7764414e-06
3.7764507e-06
3.7764798e-06
3.7765472e-06
3.7766483e-06
3.776681e-06
3.7764302e-06
3.7758627e-06
3.775514e-06
3.7758029e-06
3.776686e-06
3.7785433e-06
3.7839663e-06
3.7961727e-06
3.8136603e-06
3.8249702e-06
3.8115475e-06
3.7826735e-06
3.7704347e-06
3.7853795e-06
3.7927471e-06
3.7773618e-06
3.7768892e-06
3.7850927e-06
3.7714154e-06
3.7616906e-06
3.7606562e-06
3.7461368e-06
3.7286453e-06
3.7091931e-06
3.6938676e-06
3.6840508e-06
3.6513358e-06
3.5868317e-06
3.5409384e-06
3.5276277e-06
3.463472e-06
3.34091e-06
3.29663e-06
3.3785843e-06
3.4598807e-06
3.4754469e-06
3.5057574e-06
3.5921017e-06
3.6763607e-06
3.7175276e-06
3.7625401e-06
3.8383951e-06
3.9274703e-06
3.9983379e-06
4.0280748e-06
4.0360025e-06
4.0703647e-06
4.1177845e-06
4.1143817e-06
4.0760872e-06
4.0900599e-06
4.1931037e-06
4.3645366e-06
4.5126377e-06
4.5628516e-06
4.6079146e-06
4.7125009e-06
4.8041875e-06
4.8573428e-06
4.9261922e-06
5.0206512e-06
5.1239774e-06
5.2428473e-06
5.378816e-06
5.5246432e-06
5.6806772e-06
5.8474972e-06
6.0248168e-06
6.2406924e-06
6.7483719e-06
9.5030632e-06
2.9037996e-05
0.00014586296
0.00049131463
0.00093560449
0.0013063608
0.0015824369
0.0017673369
0.0018736055
0.001916695
0.0019117495
0.0018720026
0.0018081851
0.0017285581
0.0016392506
0.0015447047
0.0014480223
0.0013513455
0.0012561272
0.0011633252
0.0010735607
0.00098722291
0.00090454549
0.00082566311
0.00075063749
0.00067948441
0.00061219363
0.00054872438
0.00048903349
0.0004330626
0.00038073447
0.00033198695
0.00028675704
0.00024495991
0.00020650623
0.00017131165
0.0001392986
0.00011040516
8.4588216e-05
6.1823522e-05
4.2157341e-05
2.5787651e-05
1.3158816e-05
4.9414086e-06
1.1536843e-06
1.3787586e-07
6.9445553e-09
1.5958658e-09
4.2490908e-06
3.7770914e-06
3.7764427e-06
3.7764409e-06
3.7764386e-06
3.7764385e-06
3.7764385e-06
3.7764385e-06
3.7764385e-06
3.7764385e-06
3.7764385e-06
3.7764385e-06
3.7764385e-06
3.7764385e-06
3.7764385e-06
3.7764385e-06
3.7764385e-06
3.7764385e-06
3.7764385e-06
3.7764385e-06
3.7764385e-06
3.7764385e-06
3.7764386e-06
3.7764386e-06
3.7764391e-06
3.7764414e-06
3.7764507e-06
3.7764797e-06
3.7765472e-06
3.7766495e-06
3.7766846e-06
3.7764386e-06
3.7758691e-06
3.7755141e-06
3.7757976e-06
3.7766787e-06
3.7785268e-06
3.783927e-06
3.796142e-06
3.8137152e-06
3.8253039e-06
3.8121938e-06
3.7832346e-06
3.7706742e-06
3.7855649e-06
3.7932413e-06
3.7778945e-06
3.7772376e-06
3.7856272e-06
3.7721079e-06
3.7622419e-06
3.7612829e-06
3.746847e-06
3.7293163e-06
3.7098567e-06
3.6943565e-06
3.684441e-06
3.651952e-06
3.5877046e-06
3.5416275e-06
3.5283088e-06
3.4644626e-06
3.3415448e-06
3.2960755e-06
3.3769341e-06
3.4575115e-06
3.4718754e-06
3.5008939e-06
3.5865903e-06
3.6710923e-06
3.7123683e-06
3.7571615e-06
3.8329113e-06
3.9221926e-06
3.9936257e-06
4.0238008e-06
4.03222e-06
4.0675085e-06
4.1161045e-06
4.1138188e-06
4.0761028e-06
4.0895411e-06
4.1912459e-06
4.3627272e-06
4.5133657e-06
4.5660954e-06
4.6119585e-06
4.716997e-06
4.8099796e-06
4.8644066e-06
4.9336096e-06
5.0281049e-06
5.1317286e-06
5.2506886e-06
5.3864368e-06
5.5318382e-06
5.6869687e-06
5.8524963e-06
6.0285115e-06
6.2432521e-06
6.7492004e-06
9.4651034e-06
2.7995237e-05
0.00013408038
0.00045531279
0.00089274835
0.0012658953
0.0015452299
0.0017338849
0.001843836
0.0018903062
0.0018883968
0.0018513471
0.0017899093
0.0017123666
0.001624854
0.0015319017
0.0014366343
0.0013412228
0.0012471489
0.0011553944
0.001066599
0.00098116496
0.00089933659
0.00082125371
0.00074697709
0.00067651881
0.0006098639
0.00054696683
0.00048778032
0.00043224325
0.0003802772
0.00033182053
0.00028681253
0.00024517246
0.00020681665
0.00017166775
0.00013965648
0.00011073021
8.4855987e-05
6.2020258e-05
4.2280381e-05
2.5845796e-05
1.3172159e-05
4.9371002e-06
1.1503554e-06
1.372824e-07
6.8903235e-09
1.5621894e-09
4.289387e-06
3.7771619e-06
3.7764429e-06
3.7764409e-06
3.7764386e-06
3.7764385e-06
3.7764385e-06
3.7764385e-06
3.7764385e-06
3.7764385e-06
3.7764385e-06
3.7764385e-06
3.7764385e-06
3.7764385e-06
3.7764385e-06
3.7764385e-06
3.7764385e-06
3.7764385e-06
3.7764385e-06
3.7764385e-06
3.7764385e-06
3.7764385e-06
3.7764386e-06
3.7764386e-06
3.7764391e-06
3.7764414e-06
3.7764506e-06
3.7764795e-06
3.7765472e-06
3.7766506e-06
3.7766883e-06
3.776447e-06
3.7758758e-06
3.7755143e-06
3.7757921e-06
3.7766711e-06
3.7785097e-06
3.7838854e-06
3.7961081e-06
3.8137652e-06
3.8256349e-06
3.8128486e-06
3.7838075e-06
3.7709192e-06
3.7857478e-06
3.7935269e-06
3.7784415e-06
3.777586e-06
3.7861627e-06
3.7728058e-06
3.7627972e-06
3.7619151e-06
3.7475684e-06
3.7300005e-06
3.7105394e-06
3.6948644e-06
3.6848611e-06
3.6526071e-06
3.5886167e-06
3.5423481e-06
3.5290645e-06
3.4655975e-06
3.3423079e-06
3.2955738e-06
3.3753399e-06
3.4552563e-06
3.4683984e-06
3.4960359e-06
3.5810325e-06
3.6658023e-06
3.7071599e-06
3.7516298e-06
3.8271895e-06
3.9166434e-06
3.9886909e-06
4.0193272e-06
4.0281952e-06
4.0643842e-06
4.1142643e-06
4.11321e-06
4.0759486e-06
4.0884785e-06
4.188377e-06
4.3597742e-06
4.5132927e-06
4.568673e-06
4.6151389e-06
4.7206568e-06
4.8151194e-06
4.8707944e-06
4.9402522e-06
5.0347506e-06
5.1386255e-06
5.257631e-06
5.3931042e-06
5.5379042e-06
5.6918517e-06
5.8557782e-06
6.029974e-06
6.2410251e-06
6.7263165e-06
9.2659869e-06
2.6082497e-05
0.00012033044
0.00041616937
0.00084520186
0.0012215573
0.0015052413
0.0016984322
0.0018127063
0.001863117
0.0018647124
0.0018307341
0.0017719654
0.0016967408
0.0016112681
0.001520046
0.0014262562
0.0013321222
0.0012391698
0.0011484166
0.0010605278
0.00097591875
0.00089485755
0.00081749976
0.00074390249
0.0006740743
0.00060799606
0.00054561787
0.00048688838
0.00043174348
0.00038010325
0.00033190631
0.00028709387
0.00024558854
0.00020731147
0.00017219153
0.00014016688
0.00011119334
8.5247242e-05
6.2324825e-05
4.2493615e-05
2.5973631e-05
1.3231568e-05
4.9549717e-06
1.1531903e-06
1.3748506e-07
6.8738276e-09
1.5339238e-09
4.3310399e-06
3.7772405e-06
3.7764432e-06
3.7764409e-06
3.7764386e-06
3.7764385e-06
3.7764385e-06
3.7764385e-06
3.7764385e-06
3.7764385e-06
3.7764385e-06
3.7764385e-06
3.7764385e-06
3.7764385e-06
3.7764385e-06
3.7764385e-06
3.7764385e-06
3.7764385e-06
3.7764385e-06
3.7764385e-06
3.7764385e-06
3.7764385e-06
3.7764386e-06
3.7764386e-06
3.7764391e-06
3.7764414e-06
3.7764505e-06
3.7764793e-06
3.7765472e-06
3.7766517e-06
3.7766921e-06
3.7764555e-06
3.7758829e-06
3.7755145e-06
3.7757867e-06
3.7766632e-06
3.7784918e-06
3.7838417e-06
3.796071e-06
3.8138103e-06
3.825963e-06
3.8135116e-06
3.7843902e-06
3.7711725e-06
3.7859281e-06
3.7940035e-06
3.7790018e-06
3.7779373e-06
3.7866985e-06
3.773509e-06
3.7633567e-06
3.7625522e-06
3.7483005e-06
3.7306976e-06
3.71124e-06
3.695391e-06
3.6853104e-06
3.653299e-06
3.5895664e-06
3.543099e-06
3.5298903e-06
3.4668698e-06
3.3431974e-06
3.2951285e-06
3.3738035e-06
3.453116e-06
3.4650224e-06
3.4911969e-06
3.5754441e-06
3.6605067e-06
3.7019237e-06
3.74597e-06
3.8212515e-06
3.9108373e-06
3.9835432e-06
4.0146632e-06
4.0239412e-06
4.0610053e-06
4.1122676e-06
4.1125584e-06
4.0756539e-06
4.0869324e-06
4.1845609e-06
4.3557e-06
4.5123924e-06
4.5705753e-06
4.6174864e-06
4.7234947e-06
4.8195921e-06
4.8765138e-06
4.9461527e-06
5.04063e-06
5.1447412e-06
5.2637894e-06
5.3989615e-06
5.5430119e-06
5.6955283e-06
5.8575809e-06
6.0295397e-06
6.2350199e-06
6.6865304e-06
8.9646062e-06
2.3715202e-05
0.00010584139
0.00037535706
0.00079391531
0.0011739291
0.0014626849
0.001661139
0.0017803868
0.001835283
0.0018408173
0.0018102403
0.0017543737
0.0016816045
0.0015981976
0.0015087108
0.0014163841
0.0013234949
0.0012316185
0.0011418152
0.0010547864
0.00097097825
0.00089065985
0.00081398416
0.00074101844
0.00067177452
0.00060623255
0.00054433976
0.00048604096
0.00043126824
0.00037993851
0.0003319917
0.00028737206
0.00024600313
0.00020780933
0.00017272454
0.00014069335
0.00011167922
8.5666934e-05
6.266178e-05
4.274062e-05
2.6133026e-05
1.3315591e-05
4.9864028e-06
1.1601622e-06
1.3825476e-07
6.8920024e-09
1.5186333e-09
4.3740859e-06
3.7773279e-06
3.7764435e-06
3.7764408e-06
3.7764386e-06
3.7764385e-06
3.7764385e-06
3.7764385e-06
3.7764385e-06
3.7764385e-06
3.7764385e-06
3.7764385e-06
3.7764385e-06
3.7764385e-06
3.7764385e-06
3.7764385e-06
3.7764385e-06
3.7764385e-06
3.7764385e-06
3.7764385e-06
3.7764385e-06
3.7764385e-06
3.7764386e-06
3.7764386e-06
3.7764391e-06
3.7764413e-06
3.7764504e-06
3.7764792e-06
3.7765472e-06
3.7766527e-06
3.7766958e-06
3.7764642e-06
3.7758903e-06
3.7755147e-06
3.7757812e-06
3.776655e-06
3.7784733e-06
3.7837959e-06
3.7960308e-06
3.8138505e-06
3.8262879e-06
3.8141826e-06
3.7849818e-06
3.7714367e-06
3.7861055e-06
3.7944783e-06
3.779573e-06
3.7782943e-06
3.7872339e-06
3.7742175e-06
3.7639205e-06
3.7631934e-06
3.7490431e-06
3.7314075e-06
3.7119574e-06
3.6959358e-06
3.6857882e-06
3.6540254e-06
3.5905523e-06
3.5438791e-06
3.5307818e-06
3.4682732e-06
3.344212e-06
3.2947429e-06
3.3723264e-06
3.4510915e-06
3.4617533e-06
3.4863893e-06
3.5698395e-06
3.6552206e-06
3.6966806e-06
3.7402075e-06
3.8151199e-06
3.9047892e-06
3.9781932e-06
4.0098194e-06
4.0194724e-06
4.0573856e-06
4.1101181e-06
4.1118685e-06
4.0752509e-06
4.0849679e-06
4.1798654e-06
4.3505283e-06
4.5106399e-06
4.571796e-06
4.6190324e-06
4.7255263e-06
4.8233878e-06
4.881575e-06
4.9513421e-06
5.0457806e-06
5.1501409e-06
5.2692646e-06
5.4041343e-06
5.5473088e-06
5.6981713e-06
5.85811e-06
6.027521e-06
6.2262955e-06
6.6367966e-06
8.611817e-06
2.1184904e-05
9.1433122e-05
0.00033399053
0.00073958988
0.0011234099
0.0014178544
0.0016222175
0.0017470266
0.0018069074
0.0018167847
0.0017899227
0.0017371924
0.001667044
0.0015858111
0.0014981198
0.0014072764
0.0013156199
0.0012247803
0.0011358654
0.0010496152
0.00096650579
0.00088682767
0.00081074753
0.00073834004
0.00066961947
0.00060456493
0.00054312055
0.00048522705
0.00043081276
0.00037979178
0.00033209883
0.00028767462
0.0002464452
0.0002083385
0.00017329313
0.00014125957
0.00011220825
8.6131813e-05
6.3043945e-05
4.3030171e-05
2.6328887e-05
1.3425987e-05
5.0314734e-06
1.1711015e-06
1.3955044e-07
6.9381827e-09
1.5104703e-09
4.4185736e-06
3.7774249e-06
3.7764438e-06
3.7764408e-06
3.7764386e-06
3.7764385e-06
3.7764385e-06
3.7764385e-06
3.7764385e-06
3.7764385e-06
3.7764385e-06
3.7764385e-06
3.7764385e-06
3.7764385e-06
3.7764385e-06
3.7764385e-06
3.7764385e-06
3.7764385e-06
3.7764385e-06
3.7764385e-06
3.7764385e-06
3.7764386e-06
3.7764386e-06
3.7764386e-06
3.7764391e-06
3.7764413e-06
3.7764503e-06
3.776479e-06
3.7765471e-06
3.7766538e-06
3.7766997e-06
3.7764728e-06
3.7758981e-06
3.7755149e-06
3.7757756e-06
3.7766463e-06
3.7784541e-06
3.783748e-06
3.7959874e-06
3.8138859e-06
3.8266092e-06
3.8148613e-06
3.7855824e-06
3.771713e-06
3.7862793e-06
3.7949517e-06
3.7801522e-06
3.7786596e-06
3.7877684e-06
3.7749314e-06
3.7644891e-06
3.763838e-06
3.749796e-06
3.7321301e-06
3.7126906e-06
3.6964984e-06
3.6862937e-06
3.6547845e-06
3.591573e-06
3.544687e-06
3.5317345e-06
3.4698008e-06
3.3453499e-06
3.2944208e-06
3.3709092e-06
3.4491834e-06
3.4585963e-06
3.4816241e-06
3.5642321e-06
3.6499579e-06
3.6914508e-06
3.7343678e-06
3.8088179e-06
3.898515e-06
3.9726519e-06
4.0048081e-06
4.0148044e-06
4.0535389e-06
4.10782e-06
4.1111458e-06
4.0747742e-06
4.0826546e-06
4.1743635e-06
4.3442864e-06
4.5080128e-06
4.5723303e-06
4.6198088e-06
4.7267692e-06
4.8265005e-06
4.8859907e-06
4.9558504e-06
5.0502375e-06
5.1548831e-06
5.2741461e-06
5.4087325e-06
5.5509226e-06
5.6999289e-06
5.8575434e-06
6.0241941e-06
6.2157992e-06
6.5830852e-06
8.2473845e-06
1.8696917e-05
7.7705408e-05
0.00029307688
0.00068291369
0.0010703117
0.0013709594
0.0015817847
0.0017126635
0.0017779656
0.0017925435
0.0017696789
0.0017202998
0.0016529289
0.0015739763
0.0014881443
0.0013988118
0.0013083849
0.0012185547
0.0011304818
0.0010449503
0.0009624715
0.00088336209
0.00080780663
0.0007358906
0.00066763313
0.0006030138
0.00054197432
0.00048445119
0.00043036803
0.0003796346
0.00033218209
0.00028794912
0.00024686136
0.00020884804
0.0001738507
0.00014182428
0.00011274493
8.6612179e-05
6.344731e-05
4.3343832e-05
2.6548277e-05
1.3555194e-05
5.0870993e-06
1.1853046e-06
1.4129568e-07
7.0099086e-09
1.5101102e-09
4.4645419e-06
3.7775322e-06
3.7764441e-06
3.7764408e-06
3.7764386e-06
3.7764385e-06
3.7764385e-06
3.7764385e-06
3.7764385e-06
3.7764385e-06
3.7764385e-06
3.7764385e-06
3.7764385e-06
3.7764385e-06
3.7764385e-06
3.7764385e-06
3.7764385e-06
3.7764385e-06
3.7764385e-06
3.7764385e-06
3.7764385e-06
3.7764386e-06
3.7764386e-06
3.7764386e-06
3.7764391e-06
3.7764413e-06
3.7764502e-06
3.7764788e-06
3.776547e-06
3.7766548e-06
3.7767036e-06
3.7764815e-06
3.7759064e-06
3.7755153e-06
3.77577e-06
3.7766372e-06
3.7784342e-06
3.7836983e-06
3.7959405e-06
3.813917e-06
3.8269264e-06
3.8155474e-06
3.786193e-06
3.7720027e-06
3.7864486e-06
3.7954236e-06
3.7805339e-06
3.7790353e-06
3.7883015e-06
3.7756511e-06
3.7650627e-06
3.7644849e-06
3.7505592e-06
3.7328655e-06
3.7134384e-06
3.6970786e-06
3.6868258e-06
3.6555743e-06
3.5926271e-06
3.5455216e-06
3.532744e-06
3.471446e-06
3.3466094e-06
3.2941655e-06
3.3695525e-06
3.447392e-06
3.4555559e-06
3.4769112e-06
3.558634e-06
3.6447308e-06
3.6862537e-06
3.7284763e-06
3.802369e-06
3.892031e-06
3.9669309e-06
3.9996426e-06
4.0099535e-06
4.0494795e-06
4.1053769e-06
4.1103956e-06
4.0742601e-06
4.0800659e-06
4.1681337e-06
4.3370069e-06
4.5044913e-06
4.5721748e-06
4.6198491e-06
4.7272445e-06
4.8289292e-06
4.8897758e-06
4.9597078e-06
5.0540351e-06
5.1590217e-06
5.2785143e-06
5.4128537e-06
5.5539642e-06
5.7009295e-06
5.856036e-06
6.0197936e-06
6.2042808e-06
6.5298542e-06
7.8990325e-06
1.638305e-05
6.5055606e-05
0.00025347503
0.00062455313
0.0010148641
0.0013221605
0.001539936
0.0016773401
0.0017484615
0.0017680725
0.0017494732
0.0017036545
0.0016392188
0.0015626593
0.00147876
0.0013909773
0.0013017891
0.0012129516
0.0011256829
0.0010408164
0.0009589034
0.00088029175
0.00080518848
0.00073369383
0.00066583498
0.00060159434
0.0005409126
0.00048372267
0.00042994335
0.00037947937
0.0003322573
0.00028821224
0.00024726794
0.0002093534
0.00017441156
0.00014240043
0.00011330069
8.7117717e-05
6.3879578e-05
4.3687098e-05
2.6794405e-05
1.37044e-05
5.1533068e-06
1.2026306e-06
1.434574e-07
7.1040208e-09
1.5156825e-09
4.5120386e-06
3.7776507e-06
3.7764445e-06
3.7764407e-06
3.7764386e-06
3.7764385e-06
3.7764385e-06
3.7764385e-06
3.7764385e-06
3.7764385e-06
3.7764385e-06
3.7764385e-06
3.7764385e-06
3.7764385e-06
3.7764385e-06
3.7764385e-06
3.7764385e-06
3.7764385e-06
3.7764385e-06
3.7764385e-06
3.7764385e-06
3.7764386e-06
3.7764386e-06
3.7764386e-06
3.7764391e-06
3.7764412e-06
3.7764501e-06
3.7764786e-06
3.7765469e-06
3.7766558e-06
3.7767076e-06
3.7764904e-06
3.7759149e-06
3.7755158e-06
3.7757642e-06
3.7766277e-06
3.7784137e-06
3.7836466e-06
3.7958892e-06
3.8139447e-06
3.8272392e-06
3.8162406e-06
3.7868151e-06
3.7723065e-06
3.7866121e-06
3.7958936e-06
3.7811131e-06
3.7794222e-06
3.788833e-06
3.7763774e-06
3.7656419e-06
3.7651333e-06
3.7513328e-06
3.7336137e-06
3.7142001e-06
3.697676e-06
3.6873833e-06
3.6563933e-06
3.5937133e-06
3.5463814e-06
3.5338059e-06
3.4732023e-06
3.3479886e-06
3.2939809e-06
3.3682563e-06
3.4457174e-06
3.4526363e-06
3.4722596e-06
3.5530566e-06
3.6395502e-06
3.681108e-06
3.7225578e-06
3.7957971e-06
3.8853546e-06
3.9610422e-06
3.9943368e-06
4.0049369e-06
4.0452219e-06
4.1027928e-06
4.1096225e-06
4.0737448e-06
4.0772784e-06
4.1612608e-06
4.3287295e-06
4.5000596e-06
4.5713268e-06
4.6191881e-06
4.7269769e-06
4.8306777e-06
4.8929487e-06
4.9629466e-06
5.057209e-06
5.1626084e-06
5.2824425e-06
5.4165849e-06
5.5565315e-06
5.7012867e-06
5.8537247e-06
6.0145145e-06
6.1922767e-06
6.4800405e-06
7.5841402e-06
1.432078e-05
5.373072e-05
0.00021593229
0.00056521311
0.00095726364
0.0012715934
0.0014967432
0.0016410758
0.0017183759
0.0017433255
0.0017292432
0.0016871869
0.0016258438
0.0015517956
0.0014699119
0.00138373
0.0012958027
0.0012079541
0.0011214636
0.0010372177
0.00095581217
0.00087763079
0.00080290777
0.00073176246
0.00066423389
0.00060031032
0.00053993351
0.00048303402
0.0004295262
0.00037930942
0.0003323047
0.00028844235
0.00024764262
0.00020983258
0.00017495492
0.00014296911
0.00011385896
8.7634478e-05
6.4329519e-05
4.405145e-05
2.706136e-05
1.3870131e-05
5.2286317e-06
1.2227204e-06
1.4599274e-07
7.2185548e-09
1.5269127e-09
4.5611058e-06
3.7777812e-06
3.7764449e-06
3.7764407e-06
3.7764386e-06
3.7764385e-06
3.7764385e-06
3.7764385e-06
3.7764385e-06
3.7764385e-06
3.7764385e-06
3.7764385e-06
3.7764385e-06
3.7764385e-06
3.7764385e-06
3.7764385e-06
3.7764385e-06
3.7764385e-06
3.7764385e-06
3.7764385e-06
3.7764385e-06
3.7764386e-06
3.7764386e-06
3.7764386e-06
3.7764391e-06
3.7764412e-06
3.77645e-06
3.7764784e-06
3.7765468e-06
3.7766568e-06
3.7767118e-06
3.7764991e-06
3.775924e-06
3.7755163e-06
3.7757583e-06
3.7766178e-06
3.7783926e-06
3.7835929e-06
3.795832e-06
3.8139707e-06
3.8275471e-06
3.8169406e-06
3.7874503e-06
3.7726255e-06
3.7867684e-06
3.7963614e-06
3.7816997e-06
3.7798197e-06
3.7893628e-06
3.7771112e-06
3.7662273e-06
3.7657824e-06
3.7521168e-06
3.7343745e-06
3.7149749e-06
3.6982904e-06
3.6879651e-06
3.65724e-06
3.5948303e-06
3.5472653e-06
3.5349155e-06
3.4750628e-06
3.3494852e-06
3.2938706e-06
3.3670205e-06
3.4441596e-06
3.4498413e-06
3.4676773e-06
3.5475099e-06
3.6344253e-06
3.6760311e-06
3.7166369e-06
3.7891262e-06
3.8785036e-06
3.9549981e-06
3.9889052e-06
3.9997719e-06
4.0407806e-06
4.1000711e-06
4.1088299e-06
4.0732639e-06
4.0743712e-06
4.1538361e-06
4.3195027e-06
4.4947067e-06
4.5697837e-06
4.617862e-06
4.7259959e-06
4.831755e-06
4.895531e-06
4.9656026e-06
5.0597982e-06
5.1656945e-06
5.285999e-06
5.4200052e-06
5.5587124e-06
5.701103e-06
5.8507339e-06
6.0085196e-06
6.180133e-06
6.4352562e-06
7.3117118e-06
1.2546452e-05
4.3852952e-05
0.00018106691
0.0005056406
0.00089769236
0.0012193798
0.0014522695
0.0016038886
0.0016876932
0.0017182647
0.0017089379
0.0016708406
0.0016127489
0.0015413363
0.0014615613
0.0013770443
0.0012904145
0.001203566
0.0011178416
0.0010341835
0.00095323599
0.00087542286
0.00080101013
0.00073014085
0.00066287029
0.00059919617
0.00053906424
0.00048240466
0.0004291284
0.00037912964
0.00033232335
0.00028863395
0.0002479767
0.00021027498
0.00017546943
0.00014351919
0.00011440952
8.8153606e-05
6.4789901e-05
4.443135e-05
2.7345284e-05
1.405011e-05
5.3121121e-06
1.2453376e-06
1.4887257e-07
7.3518717e-09
1.5432839e-09
4.611801e-06
3.7779247e-06
3.7764453e-06
3.7764407e-06
3.7764386e-06
3.7764385e-06
3.7764385e-06
3.7764385e-06
3.7764385e-06
3.7764385e-06
3.7764385e-06
3.7764385e-06
3.7764385e-06
3.7764385e-06
3.7764385e-06
3.7764385e-06
3.7764385e-06
3.7764385e-06
3.7764385e-06
3.7764385e-06
3.7764385e-06
3.7764386e-06
3.7764386e-06