/*--------------------------------*- C++ -*----------------------------------*\
| =========                 |                                                 |
| \\      /  F ield         | OpenFOAM: The Open Source CFD Toolbox           |
|  \\    /   O peration     | Version:  2506                                  |
|   \\  /    A nd           | Website:  www.openfoam.com                      |
|    \\/     M anipulation  |                                                 |
\*---------------------------------------------------------------------------*/
FoamFile
{
    version     2.0;
    format      ascii;
    arch        "LSB;label=32;scalar=64";
    class       volScalarField;
    location    "0.0035";
    object      p;
}
// * * * * * * * * * * * * * * * * * * * * * * * * * * * * * * * * * * * * * //

dimensions      [1 -1 -2 0 0 0 0];

internalField   nonuniform List<scalar> 
192657
(
46973.324
46998.049
46971.024
46971.133
46970.053
46970.022
46970.001
46970
46970
46970
46970
46970
46970
46970
46970
46970
46970
46970
46970
46970
46970
46970.001
46970.009
46970.072
46970.467
46972.531
46981.208
47010.439
47086.81
47233.711
47402.37
47400.086
47051.409
46580.579
46386.203
46434.857
46316.411
46077.038
46044.476
46008.187
45834.553
45786.661
45724.274
45594.65
45542.966
45443.383
45350.382
45271.819
45164.159
45074.504
44968.914
44865.485
44758.382
44647.161
44534.668
44417.043
44299.128
44179.644
44059.893
43940.275
43821.232
43703.476
43587.522
43474.062
43363.61
43256.692
43153.718
43055.024
42960.858
42871.379
42786.67
42706.741
42631.55
42561.006
42494.968
42433.221
42375.617
42321.884
42271.808
42225.144
42181.636
42141.057
42103.149
42067.68
42034.434
42003.207
41973.805
41946.053
41919.794
41894.889
41871.216
41848.668
41827.162
41806.635
41787.039
41768.35
41750.576
41733.761
41717.99
41703.407
41690.203
41678.625
41668.772
41660.354
41653.163
41647.443
41643.21
41640.357
41638.723
41638.125
41638.375
41639.295
41640.723
41642.518
41644.558
41646.745
41649
41651.26
41653.479
41655.622
41657.667
41659.598
41661.408
41663.092
41664.652
41666.09
41667.411
41668.621
41669.726
41670.733
41671.649
41672.479
41673.231
41673.909
41674.519
41675.065
41675.552
41675.983
41676.362
41676.692
41676.974
41677.213
41677.409
41677.564
41677.684
41677.774
41677.846
41677.909
41677.975
46973.36
46998.049
46971.043
46971.131
46970.054
46970.022
46970.001
46970
46970
46970
46970
46970
46970
46970
46970
46970
46970
46970
46970
46970
46970
46970.001
46970.009
46970.071
46970.462
46972.508
46981.13
47010.25
47086.565
47233.958
47404.536
47406.754
47060.239
46588.355
46391.051
46440.101
46324.014
46083.961
46049.997
46015.423
45842.058
45793.214
45732.171
45602.416
45550.758
45451.953
45358.834
45280.833
45173.25
45083.974
44978.535
44875.268
44768.356
44657.164
44544.694
44426.962
44308.883
44189.127
44069.013
43948.937
43829.334
43710.92
43594.215
43479.921
43368.564
43260.681
43156.697
43056.96
42961.734
42871.191
42785.423
42704.454
42628.25
42556.731
42489.761
42427.151
42368.735
42314.271
42263.494
42216.287
42172.332
42131.411
42093.289
42057.739
42024.561
41993.563
41964.567
41937.408
41911.947
41888.062
41865.644
41844.599
41824.854
41806.349
41789.026
41772.84
41757.75
41743.708
41730.657
41718.523
41707.202
41696.576
41686.472
41676.785
41667.508
41658.781
41650.566
41642.838
41635.611
41628.905
41622.739
41617.123
41612.056
41607.529
41603.521
41600.008
41596.958
41594.336
41592.104
41590.225
41588.662
41587.378
41586.34
41585.515
41584.873
41584.388
41584.035
41583.794
41583.644
41583.569
41583.554
41583.587
41583.657
41583.754
41583.87
41583.999
41584.135
41584.273
41584.409
41584.539
41584.66
41584.768
41584.861
41584.934
41584.984
41585.015
41585.034
41585.049
41585.06
46973.397
46998.049
46971.064
46971.128
46970.055
46970.022
46970.001
46970
46970
46970
46970
46970
46970
46970
46970
46970
46970
46970
46970
46970
46970
46970.001
46970.009
46970.069
46970.456
46972.483
46981.049
47010.052
47086.298
47234.175
47406.689
47413.498
47069.253
46596.285
46396.003
46445.381
46331.718
46091.015
46055.569
46022.735
45849.677
45799.829
45740.15
45610.28
45558.619
45460.624
45367.367
45289.95
45182.458
45093.517
44988.279
44885.173
44778.467
44667.311
44554.876
44437.053
44318.822
44198.809
44078.344
43957.82
43837.667
43718.604
43601.155
43486.032
43373.77
43264.922
43159.924
43059.138
42962.844
42871.224
42784.385
42702.36
42625.13
42552.622
42484.716
42421.237
42362.007
42306.805
42255.407
42207.654
42163.282
42122.049
42083.775
42048.234
42015.228
41984.577
41956.115
41929.689
41905.163
41882.421
41861.355
41841.869
41823.881
41807.317
41792.102
41778.168
41765.454
41753.899
41743.443
41734.033
41725.615
41718.16
41711.605
41705.954
41701.208
41697.482
41694.666
41692.604
41691.171
41690.252
41689.747
41689.565
41689.631
41689.882
41690.264
41690.736
41691.264
41691.824
41692.394
41692.962
41693.516
41694.049
41694.558
41695.039
41695.49
41695.912
41696.305
41696.669
41697.006
41697.316
41697.601
41697.862
41698.101
41698.319
41698.517
41698.696
41698.856
41699
41699.127
41699.239
41699.335
41699.417
41699.484
41699.535
41699.574
41699.6
41699.62
41699.635
41699.648
46973.433
46998.049
46971.085
46971.125
46970.056
46970.021
46970.001
46970
46970
46970
46970
46970
46970
46970
46970
46970
46970
46970
46970
46970
46970
46970.001
46970.009
46970.068
46970.45
46972.458
46980.965
47009.845
47086.011
47234.361
47408.828
47420.307
47078.452
46604.359
46401.07
46450.692
46339.515
46098.203
46061.192
46030.121
45857.408
45806.506
45748.21
45618.241
45566.548
45469.394
45375.973
45299.17
45191.769
45103.148
44998.142
44895.197
44788.711
44677.602
44565.211
44447.314
44328.942
44208.687
44087.883
43966.924
43846.231
43726.529
43608.345
43492.398
43379.235
43269.422
43163.407
43061.568
42964.196
42871.489
42783.565
42700.471
42622.199
42548.688
42479.83
42415.466
42355.414
42299.475
42247.454
42199.166
42154.381
42112.878
42074.469
42038.951
42006.133
41975.838
41947.907
41922.198
41898.566
41876.887
41857.042
41838.923
41822.431
41807.468
41793.935
41781.736
41770.784
41760.985
41752.247
41744.478
41737.583
41731.478
41726.045
41721.251
41717.023
41713.391
41710.285
41707.609
41705.306
41703.335
41701.658
41700.245
41699.066
41698.094
41697.305
41696.674
41696.18
41695.805
41695.529
41695.337
41695.216
41695.153
41695.138
41695.16
41695.213
41695.29
41695.384
41695.492
41695.607
41695.728
41695.851
41695.974
41696.095
41696.212
41696.325
41696.431
41696.53
41696.621
41696.705
41696.78
41696.845
41696.901
41696.947
41696.982
41697.006
41697.021
41697.03
41697.036
41697.041
46973.469
46998.049
46971.108
46971.122
46970.057
46970.021
46970.001
46970
46970
46970
46970
46970
46970
46970
46970
46970
46970
46970
46970
46970
46970
46970.001
46970.008
46970.067
46970.445
46972.432
46980.878
47009.629
47085.701
47234.516
47410.956
47427.164
47087.852
46612.578
46406.265
46456.033
46347.409
46105.532
46066.869
46037.581
45865.254
45813.249
45756.352
45626.302
45574.545
45478.267
45384.649
45308.498
45201.186
45112.874
45008.124
44905.341
44799.088
44688.035
44575.698
44457.742
44339.243
44218.759
44097.629
43976.246
43855.025
43734.693
43615.782
43499.016
43384.955
43274.178
43167.144
43064.245
42965.788
42871.982
42782.96
42698.782
42619.45
42544.918
42475.089
42409.818
42348.927
42292.235
42239.565
42190.728
42145.515
42103.721
42065.155
42029.623
41996.943
41966.94
41939.453
41914.33
41891.424
41870.596
41851.713
41834.646
41819.276
41805.471
41793.138
41782.148
41772.394
41763.771
41756.175
41749.513
41743.693
41738.638
41734.252
41730.548
41727.452
41724.943
41722.954
41721.377
41720.145
41719.2
41718.493
41717.98
41717.625
41717.397
41717.269
41717.219
41717.23
41717.287
41717.378
41717.494
41717.627
41717.771
41717.921
41718.074
41718.228
41718.379
41718.527
41718.67
41718.808
41718.939
41719.063
41719.179
41719.289
41719.391
41719.485
41719.571
41719.65
41719.721
41719.784
41719.84
41719.888
41719.928
41719.96
41719.985
41720.001
41720.012
41720.018
41720.022
41720.026
46973.505
46998.048
46971.131
46971.118
46970.058
46970.021
46970.001
46970
46970
46970
46970
46970
46970
46970
46970
46970
46970
46970
46970
46970
46970
46970.001
46970.008
46970.066
46970.438
46972.406
46980.788
47009.404
47085.369
47234.637
47413.073
47434.078
47097.446
46620.947
46411.597
46461.4
46355.401
46113.006
46072.604
46045.116
45873.219
45820.06
45764.576
45634.467
45582.612
45487.245
45393.402
45317.923
45210.715
45122.698
45018.225
44915.605
44809.598
44698.611
44586.337
44468.338
44349.724
44229.025
44107.581
43985.786
43864.048
43743.095
43623.464
43505.886
43390.93
43279.188
43171.133
43067.17
42967.618
42872.703
42782.568
42697.288
42616.878
42541.304
42470.482
42404.276
42342.52
42285.046
42231.689
42182.267
42136.582
42094.439
42055.648
42020.021
41987.376
41957.537
41930.335
41905.607
41883.194
41862.944
41844.705
41828.333
41813.686
41800.628
41789.029
41778.757
41769.69
41761.712
41754.71
41748.582
41743.229
41738.565
41734.497
41731.039
41728.136
41725.69
41723.665
41721.955
41720.515
41719.307
41718.297
41717.46
41716.772
41716.211
41715.761
41715.403
41715.124
41714.912
41714.755
41714.644
41714.571
41714.528
41714.51
41714.512
41714.53
41714.56
41714.6
41714.646
41714.698
41714.752
41714.809
41714.865
41714.922
41714.977
41715.029
41715.079
41715.126
41715.17
41715.209
41715.245
41715.276
41715.302
41715.323
41715.338
41715.349
41715.354
41715.357
41715.359
41715.36
46973.541
46998.047
46971.156
46971.115
46970.059
46970.021
46970.001
46970
46970
46970
46970
46970
46970
46970
46970
46970
46970
46970
46970
46970
46970
46970.001
46970.008
46970.065
46970.432
46972.379
46980.696
47009.17
47085.015
47234.722
47415.18
47440.971
47107.312
46629.473
46417.072
46466.791
46363.49
46120.631
46078.402
46052.727
45881.304
45826.942
45772.885
45642.741
45590.748
45496.332
45402.27
45327.408
45220.357
45132.622
45028.447
44925.992
44820.242
44709.33
44597.129
44479.102
44360.385
44239.484
44117.739
43995.543
43873.298
43751.734
43631.392
43513.006
43397.159
43284.454
43175.375
43070.341
42969.687
42873.65
42782.388
42695.989
42614.48
42537.84
42465.996
42398.826
42336.17
42277.873
42223.78
42173.717
42127.493
42084.918
42045.805
42009.966
41977.215
41947.37
41920.255
41895.693
41873.515
41853.551
41835.638
41819.613
41805.323
41792.62
41781.358
41771.4
41762.618
41754.889
41748.102
41742.152
41736.944
41732.393
41728.424
41725.044
41722.235
41719.878
41717.935
41716.3
41714.919
41713.756
41712.78
41711.964
41711.285
41710.725
41710.264
41709.889
41709.584
41709.34
41709.145
41708.993
41708.875
41708.785
41708.72
41708.674
41708.644
41708.628
41708.622
41708.625
41708.634
41708.649
41708.668
41708.689
41708.713
41708.737
41708.762
41708.786
41708.81
41708.833
41708.854
41708.873
41708.89
41708.904
41708.916
41708.924
41708.929
41708.932
41708.933
41708.933
41708.933
46973.576
46998.046
46971.181
46971.111
46970.06
46970.021
46970.001
46970
46970
46970
46970
46970
46970
46970
46970
46970
46970
46970
46970
46970
46970
46970.001
46970.008
46970.064
46970.426
46972.351
46980.601
47008.927
47084.637
47234.77
47417.276
47447.828
47117.477
46638.173
46422.69
46472.203
46371.678
46128.412
46084.267
46060.415
45889.514
45833.9
45781.279
45651.126
45598.955
45505.528
45411.229
45336.983
45230.113
45142.649
45038.791
44936.501
44831.021
44720.193
44608.073
44490.032
44371.226
44250.137
44128.102
44005.517
43882.775
43760.609
43639.563
43520.377
43403.642
43289.973
43179.868
43073.759
42971.993
42874.823
42782.419
42694.882
42612.252
42534.52
42461.625
42393.453
42329.856
42270.687
42215.8
42165.025
42118.178
42075.072
42035.518
41999.326
41966.305
41936.268
41909.025
41884.392
41862.186
41842.226
41824.336
41808.344
41794.085
41781.403
41770.148
41760.178
41751.36
41743.572
41736.702
41730.646
41725.31
41720.611
41716.477
41712.902
41709.896
41707.326
41705.166
41703.307
41701.696
41700.302
41699.096
41698.056
41697.162
41696.394
41695.738
41695.179
41694.702
41694.298
41693.955
41693.666
41693.422
41693.218
41693.047
41692.905
41692.788
41692.691
41692.613
41692.55
41692.5
41692.462
41692.432
41692.41
41692.395
41692.384
41692.378
41692.376
41692.376
41692.377
41692.38
41692.384
41692.388
41692.392
41692.395
41692.397
41692.398
41692.397
41692.397
41692.396
41692.395
46973.611
46998.045
46971.207
46971.108
46970.061
46970.021
46970.001
46970
46970
46970
46970
46970
46970
46970
46970
46970
46970
46970
46970
46970
46970
46970.001
46970.008
46970.063
46970.419
46972.323
46980.503
47008.674
47084.236
47234.78
47419.357
47454.672
47127.915
46647.064
46428.449
46477.635
46379.967
46136.354
46090.205
46068.181
45897.852
45840.936
45789.759
45659.627
45607.233
45514.835
45420.282
45346.653
45239.985
45152.781
45049.257
44947.134
44841.935
44731.2
44619.17
44501.13
44382.246
44260.982
44138.669
44015.707
43892.479
43769.72
43647.979
43527.998
43410.378
43295.747
43184.614
43077.424
42974.539
42876.222
42782.661
42693.966
42610.192
42531.341
42457.361
42388.149
42323.564
42263.467
42207.718
42156.153
42108.589
42064.84
42024.714
41988.018
41954.557
41924.133
41896.55
41871.614
41849.131
41828.914
41810.776
41794.539
41780.032
41767.097
41755.579
41745.334
41736.231
41728.149
41720.977
41714.611
41708.963
41703.95
41699.505
41695.615
41692.313
41689.463
41687.047
41684.95
41683.113
41681.505
41680.096
41678.864
41677.789
41676.852
41676.038
41675.33
41674.717
41674.185
41673.725
41673.327
41672.983
41672.686
41672.43
41672.21
41672.02
41671.858
41671.719
41671.6
41671.499
41671.414
41671.343
41671.283
41671.233
41671.192
41671.158
41671.131
41671.109
41671.092
41671.078
41671.068
41671.06
41671.053
41671.049
41671.045
41671.042
41671.039
41671.037
41671.035
41671.033
46973.646
46998.044
46971.234
46971.104
46970.062
46970.02
46970.001
46970
46970
46970
46970
46970
46970
46970
46970
46970
46970
46970
46970
46970
46970
46970.001
46970.008
46970.061
46970.413
46972.293
46980.402
47008.412
47083.81
47234.75
47421.424
47461.555
47138.571
46656.162
46434.346
46483.085
46388.359
46144.462
46096.221
46076.026
45906.322
45848.054
45798.326
45668.249
45615.585
45524.26
45429.431
45356.42
45249.974
45163.019
45059.847
44957.894
44852.985
44742.352
44630.421
44512.395
44393.446
44272.021
44149.442
44026.112
43902.409
43779.067
43656.638
43535.869
43417.368
43301.775
43189.612
43081.337
42977.323
42877.849
42783.114
42693.242
42608.3
42528.3
42453.201
42382.907
42317.283
42256.199
42199.518
42147.078
42098.697
42054.188
42013.356
41976.005
41941.932
41910.934
41882.808
41857.352
41834.367
41813.658
41795.036
41778.316
41763.329
41749.911
41737.91
41727.182
41717.597
41709.035
41701.387
41694.554
41688.445
41682.982
41678.099
41673.773
41670.059
41666.822
41664.049
41661.622
41659.475
41657.574
41655.891
41654.404
41653.09
41651.933
41650.914
41650.019
41649.234
41648.544
41647.94
41647.41
41646.946
41646.54
41646.185
41645.875
41645.604
41645.367
41645.161
41644.983
41644.828
41644.694
41644.578
41644.479
41644.394
41644.321
41644.26
41644.208
41644.165
41644.129
41644.099
41644.074
41644.055
41644.039
41644.027
41644.018
41644.011
41644.007
41644.003
41644.001
41643.998
46973.68
46998.042
46971.263
46971.1
46970.063
46970.02
46970.001
46970
46970
46970
46970
46970
46970
46970
46970
46970
46970
46970
46970
46970
46970
46970.001
46970.007
46970.06
46970.406
46972.264
46980.298
47008.14
47083.36
47234.678
47423.478
47468.473
47149.453
46665.481
46440.381
46488.552
46396.86
46152.74
46102.317
46083.952
45914.927
45855.258
45806.981
45676.996
45624.012
45533.803
45438.678
45366.286
45260.082
45173.367
45070.563
44968.78
44864.172
44753.65
44641.827
44523.829
44404.827
44283.252
44160.419
44036.734
43912.566
43788.65
43665.541
43543.989
43424.611
43308.059
43194.864
43085.498
42980.347
42879.703
42783.778
42692.71
42606.576
42525.397
42449.143
42377.723
42311.011
42248.877
42191.191
42137.79
42088.492
42043.107
42001.438
41963.284
41928.438
41896.691
41867.836
41841.665
41817.976
41796.573
41777.261
41759.859
41744.195
41730.107
41717.444
41706.064
41695.839
41686.651
41678.393
41670.968
41664.287
41658.273
41652.86
41648.021
41643.82
41640.136
41636.954
41634.158
41631.67
41629.454
41627.481
41625.724
41624.164
41622.779
41621.553
41620.468
41619.508
41618.661
41617.912
41617.251
41616.668
41616.153
41615.699
41615.3
41614.948
41614.638
41614.366
41614.128
41613.919
41613.736
41613.577
41613.439
41613.319
41613.216
41613.127
41613.051
41612.986
41612.932
41612.886
41612.848
41612.817
41612.793
41612.773
41612.759
41612.749
41612.742
41612.737
41612.734
41612.732
46973.714
46998.04
46971.292
46971.095
46970.064
46970.02
46970.001
46970
46970
46970
46970
46970
46970
46970
46970
46970
46970
46970
46970
46970
46970
46970.001
46970.007
46970.059
46970.399
46972.233
46980.192
47007.858
47082.884
47234.562
47425.52
47475.4
47160.581
46675.031
46446.557
46494.034
46405.473
46161.193
46108.498
46091.96
45923.673
45862.551
45815.725
45685.874
45632.517
45543.469
45448.025
45376.255
45270.312
45183.827
45081.407
44979.796
44875.499
44765.095
44653.389
44535.431
44416.39
44294.678
44171.602
44047.573
43922.95
43798.469
43674.688
43552.36
43432.109
43314.597
43200.369
43089.907
42983.611
42881.786
42784.656
42692.371
42605.02
42522.634
42445.188
42372.6
42304.747
42241.504
42182.74
42128.294
42077.982
42031.612
41988.983
41949.889
41914.121
41881.467
41851.716
41824.659
41800.092
41777.818
41757.646
41739.392
41722.888
41707.975
41694.502
41682.332
41671.339
41661.406
41652.429
41644.311
41636.966
41630.317
41624.299
41618.876
41614.118
41609.926
41606.278
41603.064
41600.192
41597.623
41595.325
41593.271
41591.438
41589.804
41588.35
41587.057
41585.909
41584.89
41583.986
41583.184
41582.474
41581.844
41581.286
41580.792
41580.355
41579.969
41579.627
41579.327
41579.062
41578.829
41578.626
41578.447
41578.292
41578.157
41578.04
41577.939
41577.853
41577.78
41577.718
41577.667
41577.624
41577.591
41577.564
41577.545
41577.531
41577.522
41577.516
41577.512
41577.51
46973.747
46998.037
46971.322
46971.091
46970.066
46970.02
46970.001
46970
46970
46970
46970
46970
46970
46970
46970
46970
46970
46970
46970
46970
46970
46970.001
46970.007
46970.058
46970.392
46972.202
46980.083
47007.567
47082.382
47234.402
47427.555
47482.341
47171.948
46684.821
46452.881
46499.532
46414.205
46169.823
46114.77
46100.049
45932.56
45869.938
45824.558
45694.886
45641.103
45553.259
45457.474
45386.33
45280.666
45194.4
45092.38
44990.944
44886.965
44776.689
44665.108
44547.203
44428.134
44306.298
44182.992
44058.628
43933.562
43808.525
43684.079
43560.981
43439.862
43321.392
43206.129
43094.567
42987.117
42884.098
42785.748
42692.227
42603.635
42520.011
42441.339
42367.542
42298.498
42234.087
42174.178
42118.608
42067.192
42019.735
41976.033
41935.878
41899.057
41865.358
41834.566
41806.476
41780.882
41757.591
41736.412
41717.166
41699.687
41683.819
41669.417
41656.343
41644.475
41633.7
41623.913
41615.02
41606.935
41599.582
41592.894
41586.832
41581.459
41576.711
41572.549
41568.878
41565.591
41562.642
41559.996
41557.625
41555.501
41553.604
41551.91
41550.399
41549.054
41547.855
41546.789
41545.841
41544.998
41544.248
41543.582
41542.991
41542.466
41542.001
41541.589
41541.224
41540.902
41540.618
41540.368
41540.149
41539.957
41539.789
41539.644
41539.518
41539.41
41539.317
41539.239
41539.174
41539.12
41539.077
41539.043
41539.018
41539.001
41538.99
41538.983
41538.979
41538.976
46973.78
46998.033
46971.353
46971.086
46970.067
46970.02
46970.001
46970
46970
46970
46970
46970
46970
46970
46970
46970
46970
46970
46970
46970
46970
46970.001
46970.007
46970.056
46970.385
46972.17
46979.971
47007.266
47081.854
47234.196
47429.586
47489.28
47183.559
46694.86
46459.36
46505.047
46423.058
46178.633
46121.136
46108.221
45941.594
45877.425
45833.482
45704.039
45649.771
45563.173
45467.028
45396.518
45291.147
45205.09
45103.485
45002.224
44898.574
44788.433
44676.986
44559.145
44440.061
44318.114
44194.587
44069.901
43944.401
43818.817
43693.715
43569.853
43447.869
43328.444
43212.143
43099.477
42990.866
42886.643
42787.057
42692.28
42602.424
42517.535
42437.603
42362.555
42292.275
42226.641
42165.524
42108.759
42056.159
42007.525
41962.653
41921.33
41883.345
41848.482
41816.53
41787.283
41760.54
41736.109
41713.804
41693.45
41674.885
41657.958
41642.525
41628.453
41615.623
41603.922
41593.25
41583.511
41574.621
41566.503
41559.091
41552.339
41546.3
41540.948
41536.227
41532.061
41528.324
41524.965
41521.945
41519.232
41516.799
41514.619
41512.669
41510.927
41509.371
41507.983
41506.745
41505.642
41504.659
41503.783
41503.004
41502.31
41501.694
41501.145
41500.659
41500.227
41499.845
41499.508
41499.21
41498.947
41498.717
41498.516
41498.341
41498.189
41498.058
41497.945
41497.85
41497.771
41497.705
41497.652
41497.611
41497.58
41497.56
41497.546
41497.538
41497.533
41497.53
46973.813
46998.029
46971.384
46971.081
46970.068
46970.02
46970.001
46970
46970
46970
46970
46970
46970
46970
46970
46970
46970
46970
46970
46970
46970
46970.001
46970.007
46970.055
46970.378
46972.138
46979.856
47006.955
47081.299
47233.941
47431.606
47496.226
47195.418
46705.159
46466
46510.58
46432.037
46187.627
46127.605
46116.476
45950.778
45885.016
45842.496
45713.337
45658.527
45573.212
45476.69
45406.826
45301.757
45215.899
45114.725
45013.64
44910.326
44800.328
44689.024
44571.258
44452.172
44330.127
44206.39
44081.392
43955.469
43829.346
43703.596
43578.976
43456.132
43335.752
43218.414
43104.639
42994.86
42889.421
42788.584
42692.534
42601.39
42515.208
42433.984
42357.649
42286.09
42219.185
42156.804
42098.782
42044.928
41995.042
41948.918
41906.341
41867.099
41830.978
41797.769
41767.267
41739.277
41713.609
41690.083
41668.529
41648.789
41630.716
41614.171
41599.024
41585.158
41572.464
41560.841
41550.196
41540.445
41531.51
41523.325
41515.839
41509.09
41503.089
41497.767
41493.068
41488.85
41485.053
41481.634
41478.559
41475.796
41473.318
41471.097
41469.109
41467.331
41465.743
41464.324
41463.058
41461.928
41460.92
41460.021
41459.22
41458.507
41457.872
41457.308
41456.807
41456.362
41455.968
41455.62
41455.313
41455.043
41454.807
41454.6
41454.421
41454.266
41454.133
41454.02
41453.925
41453.847
41453.784
41453.735
41453.698
41453.674
41453.658
41453.649
41453.643
41453.64
46973.846
46998.023
46971.417
46971.076
46970.069
46970.019
46970.001
46970
46970
46970
46970
46970
46970
46970
46970
46970
46970
46970
46970
46970
46970
46970.001
46970.006
46970.054
46970.371
46972.105
46979.739
47006.634
47080.716
47233.636
47433.598
47503.195
47207.518
46715.728
46472.808
46516.133
46441.142
46196.808
46134.184
46124.815
45960.114
45892.719
45851.601
45722.784
45667.374
45583.376
45486.466
45417.258
45312.499
45226.829
45126.102
45025.194
44922.224
44812.378
44701.224
44583.544
44464.468
44342.336
44218.401
44093.101
43966.765
43840.113
43713.722
43588.351
43464.651
43343.318
43224.941
43110.053
42999.098
42892.433
42790.331
42692.99
42600.537
42513.038
42430.492
42352.837
42279.96
42211.74
42148.049
42088.717
42033.553
41982.355
41934.914
41891.016
41850.448
41812.998
41778.458
41746.629
41717.318
41690.341
41665.523
41642.699
41621.716
41602.432
41584.71
41568.427
41553.467
41539.723
41527.095
41515.493
41504.832
41495.035
41486.033
41477.773
41470.274
41463.584
41457.62
41452.35
41447.619
41443.355
41439.512
41436.052
41432.939
41430.143
41427.635
41425.387
41423.374
41421.573
41419.963
41418.524
41417.239
41416.091
41415.067
41414.153
41413.338
41412.612
41411.966
41411.391
41410.88
41410.427
41410.026
41409.672
41409.361
41409.087
41408.848
41408.639
41408.459
41408.304
41408.173
41408.062
41407.97
41407.896
41407.839
41407.796
41407.767
41407.749
41407.739
41407.733
41407.729
46973.879
46998.017
46971.451
46971.071
46970.071
46970.019
46970.001
46970
46970
46970
46970
46970
46970
46970
46970
46970
46970
46970
46970
46970
46970
46970.001
46970.006
46970.053
46970.363
46972.072
46979.618
47006.303
47080.105
47233.279
47435.563
47510.182
47219.862
46726.579
46479.787
46521.709
46450.375
46206.182
46140.881
46133.237
45969.606
45900.539
45860.799
45732.386
45676.316
45593.664
45496.376
45427.798
45323.379
45237.884
45137.619
45036.887
44934.27
44824.583
44713.588
44596.005
44476.95
44354.745
44230.621
44105.03
43978.289
43851.119
43724.094
43597.978
43473.426
43351.143
43231.726
43115.72
43003.582
42895.681
42792.301
42693.651
42599.87
42511.029
42427.136
42348.13
42273.902
42204.332
42139.291
42078.608
42022.091
41969.536
41920.732
41875.466
41833.524
41794.697
41758.78
41725.575
41694.896
41666.563
41640.407
41616.266
41593.994
41573.453
41554.511
41537.047
41520.948
41506.111
41492.437
41479.837
41468.226
41457.528
41447.673
41438.603
41430.322
41422.901
41416.259
41410.381
41405.107
41400.348
41396.055
41392.186
41388.703
41385.57
41382.757
41380.234
41377.973
41375.947
41374.134
41372.513
41371.063
41369.767
41368.61
41367.576
41366.654
41365.831
41365.098
41364.446
41363.865
41363.35
41362.894
41362.49
41362.134
41361.821
41361.547
41361.308
41361.101
41360.923
41360.771
41360.643
41360.537
41360.452
41360.385
41360.336
41360.303
41360.282
41360.27
41360.263
41360.258
46973.911
46998.008
46971.485
46971.066
46970.072
46970.019
46970.001
46970
46970
46970
46970
46970
46970
46970
46970
46970
46970
46970
46970
46970
46970
46970.001
46970.006
46970.051
46970.356
46972.037
46979.495
47005.961
47079.466
47232.869
47437.496
47517.189
47232.447
46737.721
46486.943
46527.314
46459.736
46215.751
46147.705
46141.74
45979.258
45908.485
45870.089
45742.147
45685.359
45604.078
45506.439
45438.433
45334.4
45249.065
45149.279
45048.724
44946.467
44836.945
44726.117
44608.641
44489.62
44367.353
44243.051
44117.178
43990.044
43862.363
43734.713
43607.857
43482.458
43359.225
43238.767
43121.641
43008.314
42899.166
42794.495
42694.521
42599.392
42509.188
42423.922
42343.54
42267.934
42196.985
42130.563
42068.5
42010.6
41956.658
41906.464
41859.804
41816.464
41776.237
41738.92
41704.319
41672.251
41642.541
41615.025
41589.546
41565.963
41544.142
41523.955
41505.285
41488.022
41472.065
41457.317
41443.69
41431.1
41419.471
41408.734
41398.827
41389.738
41381.551
41374.198
41367.678
41361.83
41356.55
41351.783
41347.483
41343.609
41340.122
41336.988
41334.174
41331.65
41329.387
41327.361
41325.546
41323.923
41322.471
41321.173
41320.014
41318.978
41318.054
41317.229
41316.495
41315.841
41315.26
41314.745
41314.289
41313.886
41313.532
41313.221
41312.95
41312.714
41312.511
41312.338
41312.192
41312.071
41311.973
41311.897
41311.84
41311.802
41311.778
41311.764
41311.757
41311.752
46973.944
46997.997
46971.521
46971.061
46970.073
46970.019
46970.001
46970
46970
46970
46970
46970
46970
46970
46970
46970
46970
46970
46970
46970
46970
46970.001
46970.006
46970.05
46970.348
46972.003
46979.37
47005.61
47078.796
47232.402
47439.391
47524.22
47245.265
46749.17
46494.277
46532.955
46469.226
46225.521
46154.667
46150.325
45989.074
45916.562
45879.472
45752.071
45694.506
45614.619
45516.653
45449.175
45345.568
45260.378
45161.084
45060.706
44958.816
44849.468
44738.813
44621.455
44502.48
44380.162
44255.691
44129.547
44002.028
43873.845
43745.577
43617.988
43491.746
43367.566
43246.067
43127.816
43013.292
42902.888
42796.914
42695.601
42599.106
42507.52
42420.861
42339.08
42262.072
42189.722
42121.899
42058.435
41999.135
41943.794
41892.199
41844.139
41799.399
41757.773
41719.06
41683.069
41649.62
41618.542
41589.673
41562.863
41537.973
41514.873
41493.442
41473.563
41455.131
41438.047
41422.216
41407.55
41393.968
41381.393
41369.756
41358.994
41349.08
41340.101
41332.012
41324.818
41318.369
41312.544
41307.281
41302.529
41298.245
41294.385
41290.914
41287.794
41284.994
41282.481
41280.229
41278.212
41276.405
41274.789
41273.343
41272.05
41270.894
41269.863
41268.942
41268.121
41267.39
41266.74
41266.163
41265.651
41265.199
41264.8
41264.451
41264.145
41263.879
41263.65
41263.454
41263.288
41263.151
41263.039
41262.952
41262.888
41262.844
41262.817
41262.802
41262.793
41262.788
46973.976
46997.985
46971.557
46971.055
46970.075
46970.019
46970.001
46970
46970
46970
46970
46970
46970
46970
46970
46970
46970
46970
46970
46970
46970
46970.001
46970.006
46970.049
46970.341
46971.967
46979.241
47005.248
47078.098
47231.878
47441.235
47531.278
47258.314
46760.94
46501.792
46538.639
46478.847
46235.495
46161.777
46158.989
45999.057
45924.779
45888.95
45762.163
45703.764
45625.287
45527.02
45460.03
45356.88
45271.832
45173.04
45072.835
44971.32
44862.152
44751.679
44634.448
44515.529
44393.173
44268.543
44142.138
44014.242
43885.567
43756.689
43628.372
43501.29
43376.165
43253.623
43134.244
43018.518
42906.849
42799.56
42696.893
42599.017
42506.03
42417.959
42334.761
42256.334
42182.565
42113.327
42048.453
41987.748
41931.007
41878.019
41828.571
41782.451
41739.452
41699.374
41662.029
41627.238
41594.83
41564.648
41536.544
41510.382
41486.037
41463.389
41442.327
41422.747
41404.552
41387.651
41371.958
41357.391
41343.874
41331.339
41319.719
41308.98
41299.196
41290.357
41282.468
41275.4
41269.011
41263.234
41258.015
41253.305
41249.06
41245.238
41241.8
41238.712
41235.939
41233.452
41231.222
41229.224
41227.435
41225.834
41224.402
41223.121
41221.977
41220.955
41220.044
41219.232
41218.509
41217.867
41217.298
41216.794
41216.349
41215.958
41215.617
41215.319
41215.062
41214.841
41214.655
41214.5
41214.374
41214.276
41214.203
41214.153
41214.123
41214.105
41214.096
41214.09
46974.009
46997.97
46971.594
46971.05
46970.076
46970.018
46970.001
46970
46970
46970
46970
46970
46970
46970
46970
46970
46970
46970
46970
46970
46970
46970.001
46970.006
46970.047
46970.333
46971.932
46979.11
47004.877
47077.368
47231.294
47443.02
47538.371
47271.584
46773.049
46509.491
46544.377
46488.598
46245.676
46169.048
46167.731
46009.211
45933.144
45898.523
45772.424
45713.139
45636.085
45537.545
45471.002
45368.328
45283.437
45185.151
45085.116
44983.983
44875.001
44764.715
44647.624
44528.771
44406.387
44281.608
44154.95
44026.687
43897.527
43768.046
43639.008
43511.09
43385.022
43261.437
43140.926
43023.99
42911.048
42802.432
42698.398
42599.126
42504.722
42415.223
42330.592
42250.732
42175.533
42104.873
42038.587