/*--------------------------------*- C++ -*----------------------------------*\
| =========                 |                                                 |
| \\      /  F ield         | OpenFOAM: The Open Source CFD Toolbox           |
|  \\    /   O peration     | Version:  2506                                  |
|   \\  /    A nd           | Website:  www.openfoam.com                      |
|    \\/     M anipulation  |                                                 |
\*---------------------------------------------------------------------------*/
FoamFile
{
    version     2.0;
    format      ascii;
    arch        "LSB;label=32;scalar=64";
    class       volScalarField;
    location    "2.3";
    object      p;
}
// * * * * * * * * * * * * * * * * * * * * * * * * * * * * * * * * * * * * * //

dimensions      [1 -1 -2 0 0 0 0];

internalField   nonuniform List<scalar> 
1376
(
47026.316
47026.424
47026.564
47026.713
47025.213
47025.41
47025.503
47025.637
47025.786
47025.946
47026.114
47026.297
47026.493
47026.69
47026.88
47024.268
47024.461
47024.545
47024.672
47024.807
47024.951
47025.104
47025.273
47025.466
47025.678
47025.903
47026.133
47026.365
47026.605
47026.852
47027.098
47023.387
47023.575
47023.656
47023.787
47023.93
47024.078
47024.225
47024.374
47024.531
47024.713
47024.927
47025.168
47025.424
47025.682
47025.943
47026.206
47026.475
47026.752
47027.036
47027.317
47022.554
47022.731
47022.788
47022.915
47023.072
47023.247
47023.426
47023.599
47023.765
47023.945
47024.148
47024.373
47024.607
47024.828
47025.039
47025.263
47025.52
47025.808
47026.124
47026.464
47026.817
47027.161
47027.472
47027.732
47027.95
47021.619
47021.799
47021.852
47021.976
47022.132
47022.319
47022.522
47022.725
47022.932
47023.142
47023.355
47023.581
47023.811
47024.032
47024.243
47024.467
47024.721
47024.996
47025.272
47025.551
47025.843
47026.15
47026.477
47026.828
47027.191
47027.543
47027.843
47028.09
47028.385
47020.651
47020.85
47020.92
47021.057
47021.217
47021.409
47021.62
47021.837
47022.056
47022.269
47022.468
47022.655
47022.846
47023.05
47023.269
47023.517
47023.808
47024.139
47024.482
47024.816
47025.131
47025.413
47025.648
47025.859
47026.116
47026.434
47026.803
47027.283
47027.896
47028.46
47028.795
47029.04
47029.372
47019.589
47019.837
47019.942
47020.109
47020.292
47020.498
47020.723
47020.952
47021.175
47021.376
47021.535
47021.66
47021.785
47021.945
47022.161
47022.433
47022.754
47023.114
47023.497
47023.883
47024.254
47024.604
47024.941
47025.262
47025.571
47025.891
47026.218
47026.552
47026.85
47027.107
47027.615
47028.371
47028.996
47029.565
47030.066
47030.543
47018.408
47018.679
47018.813
47019.006
47019.2
47019.408
47019.641
47019.891
47020.138
47020.359
47020.534
47020.668
47020.8
47020.971
47021.204
47021.483
47021.777
47022.07
47022.369
47022.688
47023.038
47023.406
47023.791
47024.227
47024.697
47025.152
47025.608
47026.027
47026.421
47026.838
47027.177
47027.435
47027.804
47028.407
47029.226
47030.224
47031.062
47031.77
47032.446
47017.334
47017.595
47017.731
47017.923
47018.102
47018.288
47018.499
47018.74
47018.989
47019.212
47019.401
47019.57
47019.751
47019.975
47020.249
47020.553
47020.846
47021.112
47021.375
47021.658
47021.967
47022.309
47022.67
47023.041
47023.475
47023.996
47024.525
47025.065
47025.655
47026.28
47026.84
47027.308
47027.825
47028.36
47028.877
47029.415
47030.068
47030.914
47031.928
47033.03
47033.91
47034.298
47016.25
47016.529
47016.659
47016.858
47017.053
47017.247
47017.447
47017.652
47017.864
47018.064
47018.252
47018.453
47018.682
47018.94
47019.222
47019.52
47019.823
47020.128
47020.451
47020.813
47021.198
47021.592
47022.023
47022.458
47022.826
47023.172
47023.6
47024.067
47024.55
47025.167
47025.923
47026.704
47027.396
47027.945
47028.55
47029.237
47029.962
47030.612
47031.243
47031.957
47032.625
47033.412
47034.296
47035.203
47036.248
47014.876
47015.155
47015.253
47015.456
47015.702
47015.962
47016.208
47016.434
47016.643
47016.858
47017.106
47017.379
47017.662
47017.93
47018.176
47018.415
47018.679
47018.991
47019.343
47019.724
47020.156
47020.625
47021.115
47021.662
47022.231
47022.713
47023.155
47023.652
47024.108
47024.441
47024.697
47025.019
47025.877
47027.138
47028.229
47028.967
47029.673
47030.235
47030.791
47031.502
47032.285
47033.214
47033.788
47034.273
47035.089
47036.224
47036.14
47013.405
47013.684
47013.755
47013.933
47014.172
47014.449
47014.712
47014.943
47015.16
47015.399
47015.68
47015.989
47016.3
47016.594
47016.873
47017.155
47017.463
47017.823
47018.238
47018.671
47019.101
47019.567
47020.052
47020.515
47021
47021.559
47022.09
47022.567
47023.152
47023.883
47024.657
47025.34
47025.829
47026.225
47026.763
47027.552
47028.189
47029.225
47030.399
47031.187
47031.955
47032.65
47033.268
47034.011
47034.811
47035.74
47035.591
47038.976
47034.677
47011.926
47012.28
47012.395
47012.575
47012.774
47012.997
47013.213
47013.416
47013.629
47013.87
47014.144
47014.454
47014.792
47015.151
47015.522
47015.895
47016.278
47016.694
47017.159
47017.656
47018.127
47018.543
47018.977
47019.443
47019.904
47020.321
47020.767
47021.335
47021.965
47022.631
47023.42
47024.296
47025.028
47025.533
47026.29
47027.111
47027.992
47028.641
47029.227
47030.221
47031.165
47031.808
47032.962
47033.983
47034.586
47035.768
47035.041
47038.905
47034.149
47010.066
47010.468
47010.644
47010.881
47011.098
47011.309
47011.518
47011.753
47012.021
47012.307
47012.605
47012.926
47013.279
47013.67
47014.086
47014.495
47014.91
47015.364
47015.857
47016.357
47016.87
47017.386
47017.856
47018.381
47018.996
47019.618
47020.116
47020.543
47021.013
47021.349
47021.672
47022.439
47023.6
47024.818
47025.856
47026.628
47027.444
47028.107
47028.821
47029.709
47030.75
47031.608
47031.933
47032.378
47033.605
47035.473
47034.898
47039.257
47033.645
47008.026
47008.367
47008.534
47008.797
47009.048
47009.289
47009.532
47009.807
47010.118
47010.434
47010.747
47011.075
47011.443
47011.873
47012.362
47012.884
47013.418
47013.959
47014.512
47015.055
47015.551
47016.063
47016.654
47017.224
47017.779
47018.332
47018.958
47019.651
47020.294
47021.05
47021.753
47022.247
47022.816
47023.493
47023.707
47024.509
47026.057
47027.361
47028.262
47028.904
47029.868
47030.942
47031.639
47032.475
47033.362
47034.478
47033.939
47038.997
47033.018
47006.326
47006.631
47006.777
47007.026
47007.277
47007.529
47007.79
47008.068
47008.367
47008.681
47009.014
47009.378
47009.788
47010.256
47010.776
47011.328
47011.868
47012.366
47012.853
47013.403
47014.028
47014.624
47015.227
47015.859
47016.368
47016.837
47017.502
47018.366
47019.25
47019.965
47020.723
47021.4
47021.988
47022.696
47023.694
47024.238
47024.398
47024.975
47026.355
47027.554
47028.643
47030.081
47031.345
47032.353
47033.142
47034.467
47033.258
47038.947
47032.225
47004.637
47005.005
47005.194
47005.481
47005.769
47006.073
47006.389
47006.725
47007.061
47007.406
47007.781
47008.176
47008.578
47008.986
47009.401
47009.807
47010.209
47010.623
47011.058
47011.528
47012.08
47012.718
47013.236
47013.762
47014.465
47015.285
47016.123
47016.874
47017.582
47018.468
47019.273
47019.839
47020.539
47021.457
47022.53
47023.289
47023.743
47024.285
47025.376
47026.526
47027.359
47028.037
47029.066
47030.463
47032.094
47034.218
47032.68
47039.071
47031.338
47002.575
47002.966
47003.181
47003.498
47003.839
47004.223
47004.619
47005.002
47005.352
47005.699
47006.072
47006.447
47006.795
47007.126
47007.466
47007.833
47008.266
47008.791
47009.349
47009.868
47010.301
47010.74
47011.36
47011.883
47012.429
47013.15
47013.967
47015.016
47016.028
47016.811
47017.447
47018.137
47019.007
47019.284
47020.117
47021.865
47023.28
47023.762
47024.272
47025.326
47026.275
47027.371
47028.669
47029.854
47031.152
47032.633
47031.374
47038.445
47030.1
47000.535
47000.851
47001.035
47001.344
47001.703
47002.115
47002.52
47002.87
47003.19
47003.528
47003.896
47004.268
47004.615
47004.938
47005.267
47005.64
47006.069
47006.529
47006.948
47007.302
47007.707
47008.161
47008.845
47009.993
47011.078
47011.914
47012.669
47013.269
47014.107
47014.985
47015.796
47016.71
47017.325
47017.884
47018.2
47018.932
47020.181
47021.788
47023.66
47025.397
47026.565
47026.894
47027.582
47028.954
47030.309
47032.663
47030.355
47038.144
47028.764
46998.829
46999.116
46999.3
46999.625
46999.984
47000.366
47000.721
47001.061
47001.414
47001.793
47002.194
47002.588
47002.924
47003.154
47003.302
47003.474
47003.708
47003.921
47004.111
47004.372
47004.883
47005.725
47006.673
47007.919
47009.411
47010.537
47011.174
47011.628
47011.859
47012.585
47013.751
47014.901
47015.904
47017.287
47018.516
47019.354
47019.976
47020.599
47021.226
47021.966
47022.954
47025.025
47027.195
47028.84
47029.55
47032.434
47029.381
47038.702
47027.202
46997.011
46997.335
46997.535
46997.877
46998.228
46998.558
46998.843
46999.161
46999.538
46999.965
47000.438
47000.878
47001.18
47001.358
47001.579
47001.996
47002.544
47003.027
47003.45
47003.968
47004.519
47004.951
47005.101
47004.807
47004.654
47005.573
47007.034
47008.444
47009.878
47011.484
47013.02
47014.026
47014.676
47015.54
47016.506
47017.233
47018.071
47019.424
47020.893
47022.083
47023.609
47025.269
47025.995
47026.429
47027.686
47030.431
47027.618
47038.192
47025.824
46994.803
46995.098
46995.25
46995.538
46995.83
46996.082
46996.29
46996.567
46996.954
46997.43
46997.908
46998.238
46998.421
46998.704
46999.309
47000.062
47000.663
47001.145
47001.669
47002.361
47003.101
47003.625
47004.162
47004.87
47005.448
47005.84
47006.133
47006.495
47007.08
47007.434
47007.914
47009.135
47010.949
47011.475
47012.951
47015.593
47017.481
47018.603
47019.571
47021.112
47022.464
47023.784
47025.214
47026.453
47027.366
47030.453
47026.282
47037.411
47023.948
46992.619
46992.817
46992.884
46993.083
46993.298
46993.501
46993.701
46993.975
46994.36
46994.783
46995.14
46995.39
46995.66
46996.166
46996.845
46997.418
46997.874
46998.482
46999.26
46999.922
47000.301
47000.694
47001.426
47002.181
47003.085
47003.994
47004.711
47005.212
47005.753
47006.694
47007.571
47008.58
47009.578
47011.105
47012.064
47011.838
47012.885
47014.373
47015.601
47017.592
47020.081
47022.301
47024.294
47025.867
47026.779
47030.492
47024.995
47038.307
47021.536
46990.76
46990.926
46990.963
46991.14
46991.34
46991.545
46991.78
46992.099
46992.471
46992.828
46993.119
46993.356
46993.662
46994.149
46994.705
46995.129
46995.458
46995.812
46996.013
46995.855
46995.868
46996.725
46997.746
46998.977
47000.358
47001.478
47002.687
47004.53
47005.134
47005.241
47005.915
47006.713
47007.8
47009.527
47010.844
47011.774
47012.882
47014.089
47015.566
47016.36
47016.797
47018.03
47019.851
47021.771
47023.854
47028.397
47023.737
47038.516
47020.403
46988.753
46988.932
46988.974
46989.14
46989.333
46989.545
46989.766
46990.055
46990.368
46990.65
46990.904
46991.177
46991.517
46991.935
46992.417
46992.895
46993.393
46994.011
46994.726
46995.396
46995.954
46996.431
46996.761
46996.7
46996.682
46996.518
46996.628
46997.532
46998.798
47000.745
47002.776
47004.203
47005.534
47007.037
47008.174
47009.451
47010.838
47012.417
47013.63
47014.426
47015.638
47017.152
47018.81
47020.793
47021.95
47025.866
47020.956
47036.92
47016.583
46986.335
46986.492
46986.507
46986.628
46986.764
46986.927
46987.115
46987.331
46987.57
46987.785
46987.992
46988.291
46988.667
46989.052
46989.433
46989.819
46990.198
46990.667
46991.412
46992.428
46993.41
46994.095
46994.712
46995.335
46995.854
46996.563
46997.02
46997.105
46997.497
46997.86
46998.168
46998.598
46999.301
47000.397
47001.904
47003.861
47006.006
47008.242
47010.229
47011.925
47013.595
47015.313
47017.04
47019.349
47019.744
47025.842
47017.671
47037.59
47013.209
46983.881
46983.997
46983.961
46984.002
46984.05
46984.12
46984.246
46984.447
46984.662
46984.87
46985.074
46985.283
46985.551
46985.865
46986.196
46986.561
46986.885
46987.145
46987.543
46988.257
46989.123
46989.846
46990.501
46991.301
46992.137
46993.129
46994.019
46994.776
46995.718
46996.553
46997.307
46998.195
46999.052
46999.823
47000.672
47001.482
47002.203
47003.084
47004.34
47005.838
47007.612
47009.666
47012.144
47015.034
47016.409
47024.078
47015.033
47037.703
47009.86
46981.533
46981.662
46981.62
46981.612
46981.625
46981.705
46981.847
46982.067
46982.305
46982.521
46982.692
46982.808
46982.926
46983.098
46983.352
46983.72
46984.133
46984.439
46984.643
46984.915
46985.352
46985.835
46986.279
46986.835
46987.495
46988.274
46989.216
46990.267
46991.362
46992.416
46993.48
46994.608
46995.727
46996.808
46997.938
46999.031
47000.077
47001.258
47002.688
47004.197
47005.749
47007.309
47009.253
47011.487
47012.338
47020.02
47009.722
47036.463
47003.694
46979.09
46979.226
46979.21
46979.245
46979.308
46979.477
46979.713
46979.954
46980.104
46980.182
46980.27
46980.391
46980.53
46980.692
46980.914
46981.254
46981.714
46982.146
46982.467
46982.751
46983.079
46983.448
46983.803
46984.11
46984.407
46984.724
46985.112
46985.589
46986.137
46986.794
46987.581
46988.56
46989.702
46991.003
46992.471
46993.982
46995.519
46997.146
46998.897
47000.686
47002.565
47004.474
47006.65
47010.032
47009.533
47019.316
47004.709
47037.112
46996.717
46976.664
46976.745
46976.712
46976.782
46976.877
46977.02
46977.197
46977.319
46977.321
46977.261
46977.285
46977.454
46977.65
46977.844
46978.039
46978.239
46978.502
46978.835
46979.196
46979.569
46979.944
46980.353
46980.814
46981.242
46981.681
46982.222
46982.77
46983.207
46983.49
46983.692
46983.951
46984.352
46984.892
46985.617
46986.516
46987.637
46989.008
46990.513
46992.14
46993.919
46995.902
46998.087
47000.369
47004.816
47003.808
47015.701
46998.233
47036.357
46990.308
46974.366
46974.35
46974.221
46974.24
46974.253
46974.25
46974.236
46974.23
46974.162
46974.167
46974.25
46974.37
46974.543
46974.707
46974.836
46974.875
46974.912
46975.088
46975.369
46975.631
46975.901
46976.219
46976.515
46976.824
46977.254
46977.822
46978.411
46978.904
46979.349
46979.888
46980.554
46981.307
46981.962
46982.512
46983.116
46983.8
46984.462
46985.088
46985.964
46987.111
46988.436
46990.023
46991.84
46995.607
46993.126
47009.85
46987.528
47034.957
46977.657
46971.982
46971.897
46971.696
46971.687
46971.618
46971.537
46971.433
46971.434
46971.505
46971.601
46971.659
46971.673
46971.752
46971.845
46971.855
46971.832
46971.882
46972.033
46972.048
46972.079
46972.261
46972.305
46972.408
46972.688
46973.035
46973.238
46973.354
46973.572
46973.925
46974.419
46974.978
46975.615
46976.026
46976.375
46977.027
46977.555
46977.619
46977.914
46978.912
46979.878
46980.707
46981.956
46983.494
46987.732
46983.194
47004.24
46975.786
47034.809
46967.215
)
;

boundaryField
{
    Side
    {
        type            empty;
    }
    Inlet
    {
        type            totalPressure;
        rho             rho;
        psi             none;
        gamma           1;
        p0              uniform 50000;
        value           nonuniform List<scalar> 
21
(
47038.527
47038.33
47038.129
47037.875
47037.633
47037.372
47037.017
47036.655
47036.305
47035.784
47035.147
47034.632
47033.823
47032.73
47031.651
47030.101
47028.152
47026.391
47023.517
47018.552
47020.047
)
;
    }
    Airfoil
    {
        type            zeroGradient;
    }
    Outlet
    {
        type            fixedValue;
        value           uniform 46970;
    }
    procBoundary13to6
    {
        type            processor;
        value           nonuniform List<scalar> 
34
(
47026.123
47026.123
47025.249
47024.33
47023.444
47022.606
47021.705
47020.733
47019.648
47018.469
47017.394
47016.267
47014.859
47013.378
47011.86
47010.023
47008.061
47006.362
47004.622
47002.568
47000.59
46998.909
46997.057
46994.858
46992.72
46990.853
46988.823
46986.417
46983.963
46981.578
46979.094
46976.685
46974.432
46972.078
)
;
    }
    procBoundary13to12
    {
        type            processor;
        value           nonuniform List<scalar> 
60
(
47027.202
47027.29
47027.412
47027.546
47026.866
47026.866
47027.021
47027.183
47027.346
47027.499
47027.648
47027.059
47027.059
47027.237
47027.428
47027.626
47027.822
47027.336
47027.336
47027.566
47027.784
47027.966
47027.576
47027.576
47027.804
47028.006
47028.166
47028.234
47028.135
47028.135
47028.281
47028.387
47028.513
47028.748
47028.748
47029.084
47029.347
47029.634
47029.84
47029.84
47030.37
47030.883
47031.144
47031.144
47031.848
47032.604
47033.162
47033.162
47033.755
47034.245
47034.749
47034.749
47035.362
47036
47036.809
47036.809
47036.034
47039.187
47039.187
47035.17
)
;
    }
}


// ************************************************************************* //
