/*--------------------------------*- C++ -*----------------------------------*\
| =========                 |                                                 |
| \\      /  F ield         | OpenFOAM: The Open Source CFD Toolbox           |
|  \\    /   O peration     | Version:  2506                                  |
|   \\  /    A nd           | Website:  www.openfoam.com                      |
|    \\/     M anipulation  |                                                 |
\*---------------------------------------------------------------------------*/
FoamFile
{
    version     2.0;
    format      ascii;
    arch        "LSB;label=32;scalar=64";
    class       volScalarField;
    location    "0.02";
    object      Co;
}
// * * * * * * * * * * * * * * * * * * * * * * * * * * * * * * * * * * * * * //

dimensions      [0 0 0 0 0 0 0];

internalField   nonuniform List<scalar> 
13761
(
0.022894426
0.023580173
0.024252465
0.024929164
0.025604248
0.026275186
0.026941291
0.027599193
0.028257457
0.028905737
0.029548885
0.030178954
0.030809814
0.031433258
0.03204873
0.032651703
0.033234933
0.033804666
0.034347758
0.034874123
0.035377296
0.035852089
0.036305455
0.036734717
0.037138312
0.03751357
0.037864627
0.038200371
0.038532257
0.038852835
0.039163053
0.039463671
0.039739269
0.040003082
0.040277819
0.040533683
0.040755839
0.040984468
0.041234635
0.041471349
0.04168449
0.04190206
0.042134155
0.042360833
0.042579616
0.042810729
0.043057132
0.043305832
0.04355606
0.043818262
0.044095552
0.04438168
0.044674709
0.044982132
0.04531028
0.045658053
0.046019555
0.046384708
0.046723557
0.046991967
0.047003192
0.04638139
0.045593263
0.044915694
0.044276321
0.043655128
0.043050551
0.042458912
0.041880982
0.041317453
0.040768012
0.040232918
0.039710469
0.039200151
0.038702033
0.038213391
0.037732142
0.037255667
0.036781034
0.036305165
0.035825499
0.035336381
0.03483582
0.034316893
0.033774831
0.033205548
0.032599034
0.031949323
0.031251889
0.030495296
0.029668433
0.028760615
0.027760251
0.026653829
0.025426397
0.024052999
0.022500298
0.020729177
0.018678977
0.016273279
0.013467139
0.010355131
0.0071853865
0.0041602606
0.0013597867
0.02274919
0.023443922
0.024126119
0.024812774
0.025497267
0.026177673
0.026853326
0.027520919
0.028188626
0.028846303
0.029498862
0.030146343
0.03080198
0.031443429
0.03207181
0.032687951
0.033284536
0.033867914
0.03442477
0.034965223
0.035482545
0.035971128
0.036438664
0.036882461
0.037300844
0.037690748
0.038056457
0.038399239
0.038715597
0.039001424
0.039268338
0.039533563
0.039796102
0.040055694
0.040324682
0.040573395
0.040786987
0.04100542
0.041243715
0.04146675
0.04166394
0.041862905
0.04207363
0.042275591
0.042465577
0.042662852
0.04286932
0.043071707
0.043270536
0.043476571
0.043690579
0.043903757
0.04411418
0.044328455
0.044547745
0.044765529
0.044982631
0.045208404
0.045440362
0.045660495
0.045714928
0.045090803
0.044309564
0.043703751
0.043181768
0.04271094
0.042277417
0.041873702
0.041493334
0.041131479
0.040783244
0.040445097
0.040112134
0.039781154
0.039450391
0.039116161
0.038776806
0.038430682
0.038075816
0.037710215
0.037332623
0.036938168
0.036526768
0.036092199
0.03563117
0.03514146
0.034612803
0.034040616
0.033421886
0.032743288
0.031991143
0.031151066
0.030204604
0.029127512
0.027892129
0.026456175
0.024766366
0.02276647
0.020380615
0.017535635
0.014232225
0.010656548
0.0071572519
0.0039938032
0.0012595349
0.023301616
0.023993761
0.024690353
0.025384317
0.026074275
0.026759583
0.027437023
0.028114365
0.028781693
0.029452656
0.030122131
0.030791883
0.031446088
0.03208737
0.032716678
0.033326688
0.033923768
0.034494397
0.03504868
0.035580295
0.036082941
0.036564443
0.037022694
0.037455662
0.037860237
0.038240519
0.03859804
0.03892921
0.039230048
0.039512
0.039775892
0.040005598
0.040213824
0.040422831
0.0406266
0.040823443
0.041032097
0.041258231
0.041466533
0.041646859
0.041827126
0.042016357
0.042193582
0.042356362
0.042523959
0.04269765
0.042863645
0.043020626
0.043178298
0.04333801
0.043491525
0.043636334
0.04377829
0.043920139
0.044057398
0.044183648
0.044292603
0.044370972
0.044406405
0.044260146
0.043441157
0.042497409
0.041690328
0.040937212
0.04021548
0.039517517
0.038840679
0.03818429
0.037547894
0.036930653
0.03633205
0.035750695
0.035185468
0.034635457
0.034098777
0.033573685
0.03305754
0.032547398
0.032040361
0.031533789
0.031023747
0.030507897
0.029981814
0.029441881
0.028884729
0.028304251
0.02769579
0.027054926
0.026373797
0.025643881
0.02485567
0.023997544
0.023054774
0.022009331
0.020835358
0.019496958
0.017947308
0.016123921
0.013958318
0.011435462
0.0086940241
0.0059799279
0.0034447157
0.0011171128
0.023153906
0.023855918
0.024562358
0.025265774
0.025965329
0.026660371
0.027347732
0.028034862
0.028718418
0.029408891
0.030092368
0.03077455
0.031441466
0.032095634
0.032738084
0.033361433
0.033972133
0.034556463
0.035124677
0.035670343
0.036187264
0.036682433
0.03715497
0.037602453
0.038021523
0.038416133
0.038788257
0.039133897
0.039449303
0.039745769
0.040024228
0.040268716
0.040491923
0.040715947
0.04091155
0.04106279
0.041209458
0.041366314
0.041510624
0.04165591
0.041820899
0.041992475
0.042149488
0.042289107
0.042429916
0.04257246
0.042703226
0.04282318
0.042942586
0.043060771
0.043168182
0.043263321
0.043353507
0.043439507
0.043515976
0.043583121
0.043651075
0.04371411
0.043772173
0.043662672
0.042879031
0.041952142
0.041153841
0.040409512
0.039701866
0.039025664
0.038378124
0.037756835
0.037159526
0.036583045
0.036025519
0.035484412
0.034957633
0.034443504
0.0339394
0.033442743
0.032950733
0.032461186
0.031971601
0.031479687
0.030981919
0.030476392
0.029959117
0.029426926
0.028876887
0.028303216
0.027701644
0.02706817
0.026395105
0.025673946
0.024895069
0.024046496
0.023112827
0.022075041
0.020905512
0.019566257
0.018009842
0.016172886
0.013987451
0.011441549
0.0086775021
0.0059449326
0.0034047708
0.0010972818
0.023000179
0.023712024
0.024428268
0.025141141
0.025850354
0.026555212
0.02725261
0.027951645
0.028652258
0.029359412
0.030055046
0.030749616
0.03142927
0.032096321
0.032751907
0.033388659
0.034013029
0.034611084
0.035193042
0.035752755
0.036284127
0.036793033
0.037279761
0.037741566
0.038175118
0.038583954
0.038970473
0.039330489
0.039660356
0.039971297
0.040264339
0.040523276
0.040761153
0.041000094
0.041210537
0.041377012
0.041539555
0.041712475
0.041861189
0.041974986
0.042081362
0.042190095
0.042280392
0.042350233
0.042419133
0.042493764
0.042579743
0.042671578
0.042758648
0.042842368
0.042914636
0.042973804
0.043025765
0.04307308
0.04311187
0.043139496
0.043149317
0.043148018
0.043131589
0.042954431
0.042143884
0.041158349
0.040316489
0.039534324
0.038788399
0.038070676
0.037377181
0.036705607
0.036054804
0.035424423
0.034814443
0.034223734
0.033651121
0.033095387
0.032554713
0.032027217
0.031510563
0.031001815
0.030497689
0.02999541
0.02949179
0.028984441
0.028469985
0.027945032
0.02740625
0.026848785
0.026268292
0.025660472
0.025018874
0.024336067
0.023603267
0.022809431
0.021940213
0.020977262
0.019894582
0.018655466
0.017210421
0.015492424
0.013429582
0.01100695
0.0083647822
0.0057458817
0.0033018758
0.0010666105
0.022841117
0.023562638
0.024288603
0.025010858
0.025729747
0.026444463
0.027151959
0.027866324
0.028583583
0.029302713
0.030010496
0.030717449
0.031409804
0.032089724
0.032758428
0.033408512
0.034046482
0.034658205
0.035254051
0.035827638
0.036373509
0.036896291
0.037396808
0.037872887
0.038320758
0.038743675
0.039144499
0.039518662
0.039862659
0.040187562
0.040494577
0.040767496
0.041019296
0.04127233
0.041497041
0.041677588
0.041854116
0.042041258
0.042204651
0.042333145
0.042454341
0.042578412
0.042684546
0.042770671
0.042856272
0.042943132
0.043018267
0.043081646
0.043144233
0.043207212
0.043263215
0.043311365
0.043358271
0.043406318
0.043453882
0.043498104
0.043531562
0.043563163
0.043584383
0.043425449
0.042551612
0.041361642
0.040334784
0.039374965
0.038531443
0.037804494
0.037107845
0.036438477
0.035793875
0.035172007
0.034570493
0.033987479
0.033421292
0.032870538
0.032333539
0.031808455
0.031292943
0.030784313
0.030280288
0.029778702
0.029276773
0.028771992
0.028260761
0.027739487
0.02720475
0.026651905
0.026076603
0.025474422
0.024838975
0.024162755
0.023436714
0.022649417
0.021786097
0.020827923
0.019748604
0.018511597
0.017067805
0.01535217
0.013295576
0.010885562
0.008263724
0.0056711046
0.0032562161
0.0010506097
0.022676126
0.02340725
0.024142853
0.024874453
0.025603043
0.026327676
0.027045426
0.027774151
0.02850742
0.029238494
0.029958377
0.030677662
0.031382734
0.032075531
0.032757358
0.033420827
0.034072449
0.034697887
0.035307425
0.035895067
0.03645519
0.036992293
0.037506493
0.037996678
0.038458844
0.038895788
0.039310728
0.039698938
0.040056942
0.040395779
0.040716787
0.041003421
0.04126895
0.041535809
0.04177421
0.041968412
0.042158831
0.042359959
0.042537479
0.042680045
0.042815513
0.042953852
0.043074205
0.043174531
0.043274109
0.04337474
0.043463763
0.043541706
0.043619783
0.043698791
0.043769902
0.043832845
0.043895464
0.043959857
0.044020507
0.044079294
0.044146206
0.044214116
0.044264598
0.044176414
0.043413865
0.042224565
0.041190746
0.040229061
0.039309267
0.03842404
0.037569469
0.036742873
0.035942528
0.035167515
0.034416945
0.033689709
0.032994551
0.032376503
0.03182395
0.031282247
0.030749398
0.030223537
0.029703019
0.029185827
0.028669472
0.028151478
0.027628918
0.027099013
0.026558914
0.026004952
0.02543301
0.024838509
0.02421547
0.023556485
0.022852427
0.022092046
0.021260869
0.020340066
0.019303659
0.018114874
0.016723112
0.015061854
0.013060326
0.010704303
0.0081342416
0.0055889794
0.0032139124
0.0010378918
0.023246482
0.023991586
0.024732424
0.02547069
0.026205246
0.026936449
0.027679147
0.028424096
0.029167055
0.029899016
0.030630633
0.031348384
0.032054047
0.032748971
0.033425762
0.034090977
0.034730075
0.035353483
0.035954966
0.036529334
0.03708077
0.037608556
0.038112804
0.038589088
0.039039972
0.039468973
0.039871093
0.040242909
0.040595276
0.040929789
0.041229811
0.04150844
0.041788451
0.042040216
0.042247285
0.042450164
0.042663829
0.042854292
0.043009508
0.043157368
0.043308461
0.043441758
0.043554954
0.043667482
0.043781386
0.04388332
0.043973291
0.044062556
0.044152293
0.044235117
0.044310243
0.04438412
0.044459312
0.044532692
0.044599489
0.044663035
0.044727251
0.044781844
0.044712724
0.044032273
0.042846777
0.04180544
0.040840164
0.039916213
0.039026277
0.038167216
0.037336746
0.036532808
0.035753366
0.034996623
0.034260763
0.033544175
0.032845525
0.032163522
0.031496976
0.030844709
0.030205516
0.029621563
0.029101826
0.028594197
0.028085106
0.027571868
0.027051701
0.026521472
0.025977154
0.025414232
0.024827808
0.024211699
0.023558307
0.022858503
0.022100865
0.021270759
0.020349274
0.01931059
0.018118237
0.016722116
0.015056207
0.013050087
0.010689993
0.0081176368
0.0055732475
0.0032023428
0.0010331266
0.023079847
0.023834299
0.024584322
0.025332242
0.026076748
0.026820651
0.027576755
0.028333291
0.029088098
0.02983209
0.03057598
0.031306408
0.032024942
0.032732977
0.033423135
0.034101984
0.034754822
0.035391922
0.036007375
0.036595943
0.037161915
0.037703623
0.038221518
0.038711904
0.039176704
0.039619626
0.040035554
0.04042105
0.040786934
0.041134976
0.041448188
0.041739866
0.042032853
0.042297463
0.042517135
0.042732437
0.042958416
0.043161286
0.043328559
0.04348822
0.043650905
0.04379564
0.043920016
0.044043212
0.044167503
0.044280027
0.0443812
0.044482475
0.044584535
0.044678578
0.044764634
0.044850508
0.044938093
0.045022721
0.045106232
0.045196563
0.045292322
0.045373271
0.045356586
0.044780561
0.043609759
0.042555854
0.041586872
0.040660681
0.03976807
0.038905257
0.038069965
0.037260428
0.03647501
0.035712403
0.034970996
0.034249292
0.033545933
0.032859291
0.032187822
0.031529905
0.0308839
0.030248161
0.029621079
0.029000762
0.028385437
0.027772961
0.027160987
0.026546969
0.025927601
0.025298899
0.024656221
0.023993791
0.023304245
0.022586079
0.021831523
0.021015001
0.020111043
0.019093835
0.017926631
0.016558311
0.014921905
0.012945517
0.010613212
0.0080653196
0.0055417139
0.0031872408
0.0010287397
0.022907995
0.023671605
0.024430686
0.02518819
0.025942615
0.026698461
0.027467313
0.02823535
0.029001925
0.029757907
0.030514064
0.031257131
0.031988527
0.032709638
0.033413094
0.034105525
0.034772047
0.035423026
0.036052323
0.036655119
0.037235197
0.037791096
0.038322588
0.038826891
0.039305518
0.039762319
0.040191973
0.040591048
0.040970136
0.041331343
0.041657518
0.041961687
0.042267158
0.042544491
0.042776274
0.043003029
0.043240441
0.043455192
0.043633945
0.04380459
0.043978509
0.044134681
0.044270229
0.044404471
0.044540029
0.044663376
0.04477404
0.044883639
0.04499365
0.045096812
0.045192394
0.045287023
0.045383624
0.045478891
0.045568185
0.045653103
0.045742968
0.045830036
0.045837786
0.045361625
0.044226468
0.043161759
0.042190626
0.041263318
0.040369659
0.039505867
0.038669709
0.037859263
0.037072453
0.036307596
0.035562757
0.034836314
0.034126915
0.033432903
0.032752844
0.032085245
0.031428569
0.030781244
0.030141724
0.029508018
0.028878391
0.028250465
0.027621766
0.026989659
0.026350635
0.025700838
0.025035984
0.024350532
0.023637522
0.022888202
0.022091357
0.021232255
0.020291418
0.019242248
0.018047128
0.016653924
0.014994427
0.012995749
0.010642258
0.00807941
0.0055496218
0.0031920752
0.0010300845
0.022730452
0.023503016
0.024271077
0.0250381
0.025802433
0.026569564
0.027350488
0.028129955
0.028908242
0.029676172
0.030444528
0.031200207
0.031944452
0.032678656
0.033395455
0.034101491
0.034781799
0.035446514
0.03608978
0.036706751
0.037301078
0.037871301
0.038416323
0.038934562
0.039426996
0.039897593
0.040340881
0.040753397
0.041145689
0.041520071
0.041859065
0.042175793
0.042493661
0.042783255
0.043026979
0.043265178
0.043513834
0.043739894
0.043929454
0.044110369
0.044294227
0.044460213
0.044605292
0.044748575
0.044893063
0.045025731
0.045146611
0.045267171
0.045388205
0.045501224
0.045606361
0.045711172
0.045818307
0.045925074
0.046032293
0.046143411
0.046258737
0.046367924
0.046412281
0.046029542
0.044937199
0.043852085
0.042874755
0.041943595
0.041045883
0.040177452
0.039336128
0.038520328
0.037728124
0.036957845
0.036207461
0.035475257
0.0347598
0.034059198
0.033371828
0.032696023
0.032030097
0.031372393
0.030721388
0.030075011
0.029431649
0.028788876
0.028144301
0.027495388
0.026838474
0.02616978
0.025485127
0.02477881
0.024043778
0.023271237
0.022449952
0.021565228
0.020597744
0.019520853
0.018296924
0.016874014
0.01518365
0.013152144
0.010763001
0.0081610215
0.0055948458
0.0032121053
0.0010351725
0.023329193
0.024106065
0.024882511
0.025656681
0.026434384
0.027226679
0.028017472
0.028807367
0.029587173
0.030367717
0.031135966
0.031893049
0.032640295
0.033370356
0.034089944
0.034783975
0.035462605
0.036119711
0.036750824
0.037359251
0.037943783
0.038502588
0.039034338
0.03954045
0.040024772
0.040481626
0.040907537
0.041312784
0.041700077
0.042051714
0.042380478
0.042710377
0.043012259
0.04326764
0.043516678
0.04377615
0.04401354
0.044214003
0.0444052
0.044599482
0.044776116
0.044931435
0.045084719
0.045239452
0.045382012
0.04551141
0.045639406
0.045767757
0.045889234
0.046002967
0.046115589
0.046230463
0.046344738
0.04645495
0.046562116
0.046672256
0.046788034
0.046859515
0.046576859
0.045559016
0.044459272
0.043479827
0.0425483
0.041650055
0.040781011
0.039938921
0.039122168
0.03832883
0.037557104
0.036804719
0.036069829
0.035350928
0.034645966
0.033953234
0.033270984
0.032597466
0.03193099
0.031270033
0.030612435
0.029956697
0.029300338
0.028641026
0.027976346
0.027302561
0.026615987
0.025912621
0.025186705
0.024431171
0.023637295
0.022793899
0.021886348
0.020895424
0.019794397
0.018545442
0.017096457
0.015378428
0.013316637
0.010893238
0.0082539144
0.005652603
0.0032413435
0.0010433829
0.02314967
0.023935226
0.024720998
0.025504957
0.026292624
0.027095563
0.027897584
0.028699007
0.029490648
0.030283293
0.031064056
0.031833942
0.03259424
0.033337614
0.034070763
0.034778612
0.035471039
0.036142119
0.036787343
0.03740999
0.03800871
0.038581636
0.039126871
0.03964664
0.040144661
0.040615011
0.041054181
0.041472385
0.041872559
0.042236723
0.042577678
0.042919557
0.043233309
0.043500221
0.043760089
0.044030161
0.044278226
0.044488809
0.044689444
0.044892744
0.045078272
0.045242172
0.045403586
0.045566459
0.045717715
0.045856989
0.045995631
0.046134583
0.046265673
0.046388852
0.046511375
0.046636546
0.04676221
0.046888602
0.047019053
0.04715092
0.047283368
0.047378918
0.04717572
0.046236881
0.045115885
0.044129475
0.043194068
0.042291888
0.041418807
0.04057264
0.039751802
0.038954486
0.03817899
0.03742287
0.036684131
0.035961151
0.035251676
0.034553811
0.03386563
0.033185235
0.032510797
0.031840728
0.031172744
0.030505393
0.029836096
0.029162538
0.028482404
0.027791882
0.027087383
0.02636508
0.0256192
0.024842723
0.024027048
0.023161126
0.022230359
0.021215611
0.020090063
0.018815677
0.01734023
0.015594102
0.013501222
0.011041882
0.0083622218
0.005721728
0.0032774242
0.0010538648
0.022965145
0.023759162
0.024554143
0.025347775
0.026144727
0.026957551
0.027770675
0.028583493
0.02938686
0.030191584
0.030984814
0.031767482
0.032540765
0.033297355
0.03404401
0.034765602
0.035471972
0.036156928
0.03681621
0.037452928
0.038065651
0.038652834
0.039211362
0.039744611
0.040256191
0.040739947
0.04119233
0.041623274
0.042036134
0.042412654
0.042765272
0.043118813
0.043444508
0.043722769
0.043993085
0.044273613
0.044532741
0.044753982
0.044964607
0.045177961
0.045373751
0.045547312
0.045717912
0.045890101
0.046050355
0.046197322
0.046342858
0.04648901
0.046628551
0.046760248
0.046890375
0.047022506
0.047154162
0.047282293
0.047408844
0.0475374
0.047676352
0.047794907
0.047680178
0.046852633
0.045722047
0.044732032
0.04379581
0.04289256
0.042018318
0.041171051
0.040349158
0.039550762
0.038774198
0.038016952
0.037276889
0.036552247
0.035840571
0.035139797
0.034447827
0.033762624
0.033082263
0.032405084
0.031728662
0.031051568
0.030371111
0.029684984
0.028990946
0.028285102
0.027563977
0.026823946
0.026059237
0.0252629
0.024426395
0.023538717
0.022585351
0.021547226
0.020397459
0.019097878
0.017596108
0.015821963
0.013697961
0.011202141
0.008480599
0.0057985093
0.0033183807
0.0010660935
0.022775154
0.023577471
0.024381531
0.025184754
0.025990421
0.026812326
0.027636431
0.028460537
0.029275585
0.030092276
0.030897888
0.031693281
0.032479544
0.033249398
0.034009555
0.034744973
0.035465175
0.036164139
0.036837446
0.037488378
0.038115136
0.038716607
0.039288678
0.039835343
0.040360497
0.040857614
0.041323084
0.041766763
0.042192225
0.04258099
0.042945468
0.043310619
0.043647841
0.043937311
0.044218
0.044508677
0.044778072
0.045009061
0.045228707
0.045450658
0.045654937
0.045836653
0.046014908
0.046194644
0.046362849
0.046518876
0.046674089
0.04682984
0.046978443
0.047119433
0.047259474
0.04740217
0.047545567
0.047689109
0.047835106
0.04798078
0.04813083
0.048264975
0.048213598
0.047493395
0.046355781
0.045356656
0.044416516
0.043509634
0.042631756
0.041780948
0.040955797
0.040154482
0.039375386
0.03861594
0.037873909
0.037147398
0.03643371
0.035730582
0.03503568
0.034346752
0.033661696
0.03297874
0.032295301
0.031609929
0.0309198
0.030222616
0.029516169
0.028796464
0.028060132
0.027303669
0.026521265
0.025705978
0.024849332
0.023940373
0.022964611
0.021903106
0.020728901
0.019403651
0.017874874
0.016071699
0.013915087
0.011380548
0.0086138003
0.0058859831
0.0033656419
0.001080385
0.022580427
0.02339079
0.024203783
0.025016447
0.025830156
0.026660311
0.027495249
0.028330492
0.029157069
0.029985682
0.030803619
0.031611701
0.032410861
0.033193866
0.033967459
0.03471662
0.035450759
0.036163629
0.036850922
0.037515862
0.038156568
0.038772231
0.039358008
0.039917614
0.040456078
0.040966418
0.041444888
0.041901073
0.042338972
0.042739772
0.043115518
0.043491939
0.043840703
0.044141189
0.044431943
0.044732713
0.045012889
0.045254313
0.045483718
0.045715486
0.045929823
0.046120876
0.046307762
0.04649604
0.046672314
0.046834932
0.046995898
0.047157858
0.047313902
0.047462439
0.047609295
0.047758217
0.04790698
0.04805265
0.048197323
0.048343785
0.048495833
0.048646437
0.048666021
0.048077651
0.04695397
0.045947125
0.045005611
0.044097576
0.043218275
0.042365908
0.041539331
0.040736895
0.039957076
0.039197298
0.038455288
0.037729052
0.037015669
0.036312664
0.035617467
0.034927568
0.034240648
0.033554766
0.032867117
0.032176196
0.031479035
0.030773266
0.030056692
0.0293252
0.028575413
0.027803943
0.027004936
0.02617145
0.02529505
0.024364889
0.023366557
0.022281203
0.021081858
0.019730065
0.018173193
0.016339754
0.014149119
0.011573965
0.0087592994
0.0059823741
0.0034182912
0.0010965328
0.023198743
0.024020502
0.0248425
0.025663687
0.026501196
0.027346825
0.028193064
0.029031116
0.029871519
0.030701668
0.031522361
0.032334381
0.033130569
0.033917582
0.034680552
0.03542852
0.036155413
0.036856646
0.037535654
0.038190425
0.038820037
0.039420055
0.039992617
0.040544413
0.041067959
0.041559324
0.042027997
0.042478179
0.042890898
0.043278104
0.043665692
0.044025545
0.044336818
0.044637436
0.04494785
0.045237814
0.045488602
0.045726654
0.04596671
0.046189303
0.046388379
0.04658286
0.046778507
0.046962292
0.047133094
0.047302208
0.04747166
0.047634687
0.047790701
0.047946002
0.048104503
0.048264338
0.048424191
0.04858574
0.048749677
0.048909773
0.049068289
0.049129736
0.048659437
0.047562595
0.046541644
0.045596198
0.04468522
0.04380275
0.042947034
0.04211722
0.041311946
0.040529926
0.039768656
0.039025861
0.038299483
0.037586426
0.036883993
0.036189363
0.03549977
0.03481262
0.034125736
0.033436029
0.032741837
0.032039945
0.031327857
0.030603328
0.029862055
0.029100681
0.028315917
0.027501829
0.026651447
0.025756448
0.024806053
0.023785894
0.022677236
0.021453082
0.020074846
0.018489752
0.01662562
0.014400109
0.011782767
0.0089176152
0.0060882859
0.0034768341
0.0011147268
0.023001999
0.023832338
0.024663489
0.025491468
0.026335386
0.027191568
0.028048641
0.028897971
0.029750084
0.030592374
0.031425617
0.0322504
0.033059639
0.033859987
0.034636667
0.035398533
0.036139337
0.036854492
0.037547375
0.038215985
0.038859434
0.039473497
0.040058869
0.040623604
0.041160117
0.041664212
0.042145095
0.042607371
0.043031717
0.043429705
0.043828034
0.044198856
0.044520607
0.044830684
0.045150573
0.045450707
0.045711376
0.045958619
0.04620795
0.046440121
0.04664806
0.046850643
0.047054291
0.047245678
0.047422602
0.047596814
0.047771416
0.047939948
0.048100804
0.048259946
0.048421905
0.04858489
0.048745721
0.048906126
0.049071459
0.049237753
0.049408908
0.049516489
0.049177488
0.048135498
0.047100737
0.046153379
0.045241372
0.044357275
0.043499489
0.042667533
0.041860341
0.041076863
0.040314785
0.039571946
0.038846314
0.038134676
0.037434175
0.036741784
0.036054482
0.035369404
0.034684095
0.03399514
0.033300661
0.032597157
0.031881924
0.031152569
0.030404574
0.0296345
0.028839061
0.028012219
0.027147006
0.026235097
0.025265743
0.024224666
0.02309326
0.021844497
0.020439672
0.018825913
0.016930432
0.014669101
0.012008224
0.0090901047
0.0062044704
0.00354123
0.0011347294
0.022800214
0.023638925
0.024479099
0.025315399
0.026165034
0.027029186
0.027896923
0.028757456
0.02962113
0.030475423
0.031321114
0.032158582
0.032980879
0.033794529
0.034584957
0.035360609
0.036115404
0.036844421
0.0375513
0.03823383
0.038891097
0.039519362
0.040117791
0.040695446
0.041244893
0.041761637
0.042254706
0.042728848
0.043164668
0.043573594
0.043982474
0.044363741
0.044695615
0.045014801
0.045343539
0.045652621
0.045921892
0.046177025
0.04643394
0.046673744
0.046889238
0.04709914
0.04730992
0.04750854
0.047693199
0.047874763
0.048055611
0.048229569
0.048395696
0.048560175
0.048727904
0.048897969
0.049069109
0.049242636
0.049419298
0.049592921
0.04977007
0.049899089
0.049667313
0.048696659
0.047643469
0.046691889
0.045777191
0.04488983
0.044028367
0.043192667
0.042382004
0.04159562
0.040831402
0.040087355
0.039361543
0.038650728
0.037951965
0.037262084
0.03657786
0.035896159
0.035214233
0.034528324
0.03383627
0.033134188
0.032419109
0.031688425
0.030937308
0.030162156
0.029359595
0.028523411
0.02764652
0.026720576
0.025734844
0.024675049
0.023522652
0.022250584
0.020820023
0.019177972
0.017250978
0.014953173
0.012247336
0.0092740898
0.0063294976
0.0036113275
0.0011568202
0.022594088
0.023440944
0.024289925
0.025135749
0.025990586
0.026860104
0.027738339
0.028609834
0.029484949
0.030351147
0.031209195
0.032059237
0.032894443
0.03372128
0.034525329
0.035314793
0.036083441
0.036826311
0.03754689
0.038243159
0.038914125
0.039556181
0.040167835
0.040757706
0.0413197
0.041848801
0.042353701
0.042839454
0.04328633
0.043705406
0.044124296
0.044515678
0.044857166
0.045184829
0.045521971
0.045840047
0.04611799
0.046381026
0.046645877
0.046893916
0.047116946
0.047333641
0.047551249
0.047756625
0.047946994
0.048133573
0.048319634
0.048498742
0.048668649
0.048834882
0.049002652
0.049171138
0.049337951
0.049505754
0.049680622
0.049860206
0.050045792
0.050201183
0.050078199
0.049205856
0.048137896
0.047183356
0.046267075
0.04537727
0.044512771
0.043673806
0.042859952
0.042070743
0.041304322
0.040558888
0.039832686
0.039122577
0.038425642
0.037738679
0.037058346
0.036381321
0.03570462
0.035024135
0.034337351
0.033640015
0.032928783
0.032200717
0.031450618
0.030674621
0.029869165
0.029027762
0.028143127
0.027206793
0.026207946
0.025132261
0.02396125
0.022667783
0.021212918
0.019543528
0.017585513
0.01525127
0.012500093
0.0094702019
0.006463707
0.0036870313
0.0011807989
0.023238045
0.024095677
0.024950903
0.025810267
0.026684001
0.027572558
0.028454913
0.0293413
0.030219241
0.031089518
0.031952015
0.032800104
0.033640084
0.034457748
0.035260885
0.036043432
0.036800071
0.037534468
0.038244455
0.038929159
0.039584871
0.040210131
0.040812384
0.041386872
0.041928233
0.042444929
0.042942007
0.043399733
0.043829027
0.044257628
0.044658519
0.045009114
0.045344764
0.045689504
0.046015122
0.046300243
0.046569682
0.046840559
0.04709463
0.047323663
0.04754623
0.047769523
0.04798067
0.048177276
0.048369749
0.048560823
0.048744707
0.048919606
0.049090786
0.049262978
0.049435209
0.049606216
0.049778133
0.049953766
0.050133659
0.050320504
0.050481256
0.050434841
0.049672313
0.048592052
0.047631639
0.046711716
0.045817664
0.044948494
0.044104674
0.043286024
0.042492355
0.041722103
0.040973682
0.040245481
0.039534515
0.038838004
0.038152827
0.037475659
0.036803159
0.036132211
0.035458489
0.034779173
0.034089537
0.033385743
0.032664373
0.031919761
0.031147692
0.030344316
0.029502847
0.028615716
0.027674192
0.026667253
0.025580429
0.024395131
0.023084089
0.02160818
0.019914087
0.017927077
0.015557771
0.01276175
0.0096748611
0.0066052351
0.0037678905
0.0012067988
0.023030958
0.023896997
0.0247614
0.025627383
0.026504518
0.027400069
0.028293014
0.029190501
0.03008005
0.030962434
0.031837259
0.03269806
0.033551032
0.03438215
0.035198933
0.035995201
0.036765616
0.037513511
0.038237037
0.038935209
0.039604215
0.04024277
0.040856971
0.041443468
0.041996606
0.042524629
0.043032681
0.043500692
0.043939278
0.044376878
0.044786684
0.045145607
0.045488282
0.045839782
0.046172517
0.046464261
0.046739367
0.047015755
0.047275438
0.047509254
0.047735746
0.047962997
0.048178248
0.048378362
0.048574067
0.048768897
0.048956525
0.049134108
0.049306553
0.049478959
0.049650025
0.049816323
0.049979656
0.05014588
0.050317868
0.050501355
0.05067485
0.050698582
0.050060307
0.048978306
0.048011156
0.047087423
0.046189052
0.045315139
0.04446631
0.043642558
0.04284397
0.042069273
0.041317108
0.040586017
0.039873173
0.039175968
0.038491412
0.037816308
0.037147381
0.03648155
0.035814505
0.035143336
0.034463167
0.033769791
0.033059281
0.032325349
0.031563104
0.030768118
0.029933092
0.02905004
0.028109896
0.027101305
0.026009494
0.024815616
0.023492163
0.02199975
0.020284773
0.018271839
0.015869855
0.013030777
0.0098875724
0.006753835
0.003853508
0.0012345222
0.022819368
0.023693628
0.02456707
0.025442598
0.026322673
0.027220498
0.028123916
0.029032323
0.029933291
0.030827619
0.031714615
0.032588063
0.033453964
0.03429849
0.035128738
0.035938733
0.036722807
0.037484303
0.038221289
0.038932861
0.039615338
0.040267193
0.040893651
0.041492039
0.042056801
0.042596062
0.043114748
0.043592773
0.044040606
0.044486779
0.044904799
0.045271383
0.045620478
0.045977771
0.046315967
0.046612654
0.046891762
0.047171538
0.047434349
0.047671074
0.047900175
0.048129531
0.048346623
0.048548705
0.048745933
0.048941634
0.049130542
0.049310174
0.049485177
0.049660417
0.049834752
0.050005605
0.05017355
0.050340216
0.050506408
0.050674478
0.050837127
0.050893296
0.050368711
0.0492938
0.048314456
0.047383523
0.046478026
0.045596739
0.044740381
0.043909111
0.043103166
0.042321559
0.041563161
0.040826683
0.040109514
0.039409211
0.038722965
0.038047739
0.037380398
0.036717944
0.036056192
0.035392247
0.034721337
0.034039258
0.033341886
0.032622636
0.031875984
0.031096687
0.030276674
0.029407138
0.028478263
0.027478077
0.026391231
0.025198358
0.023871481
0.022370734
0.020642
0.018609085
0.016179237
0.013300876
0.01010403
0.0069072185
0.0039431078
0.0012639303
0.023486237
0.024368481
0.025253394
0.02613791
0.027036899
0.02794798
0.028867084
0.029779298
0.030685421
0.031584441
0.032470337
0.033348972
0.034206706
0.03505035
0.035873843
0.036671571
0.037446342
0.038196542
0.038921408
0.039616711
0.040281338
0.040919762
0.041529377
0.042105095
0.042654934
0.043183773
0.04367107
0.044127072
0.044580901
0.045006236
0.045379376
0.045733536
0.04609535
0.046438054
0.046738431
0.047019963
0.047301651
0.047566049
0.047803181
0.048031474
0.048259687
0.048475542
0.048675755
0.048870703
0.049064417
0.049251033
0.049427541
0.049598646
0.049769627
0.049939225
0.050103961
0.050264893
0.050426008
0.050588169
0.050746333
0.0509071
0.050990422
0.050567108
0.049510649
0.048514576
0.047574594
0.046660833
0.045771138
0.044906195
0.044066408
0.043252139
0.042462548
0.041696713
0.040953505
0.04023055
0.039525591
0.038836012
0.038159001
0.037491624
0.036831068
0.03617344
0.035515888
0.034853859
0.034183279
0.033500107
0.032797962
0.032071188
0.031314044