/*--------------------------------*- C++ -*----------------------------------*\
| =========                 |                                                 |
| \\      /  F ield         | OpenFOAM: The Open Source CFD Toolbox           |
|  \\    /   O peration     | Version:  2506                                  |
|   \\  /    A nd           | Website:  www.openfoam.com                      |
|    \\/     M anipulation  |                                                 |
\*---------------------------------------------------------------------------*/
FoamFile
{
    version     2.0;
    format      ascii;
    arch        "LSB;label=32;scalar=64";
    class       volVectorField;
    location    "0.016";
    object      wallShearStress;
}
// * * * * * * * * * * * * * * * * * * * * * * * * * * * * * * * * * * * * * //

dimensions      [1 -1 -2 0 0 0 0];

internalField   uniform (0 0 0);

boundaryField
{
    Side
    {
        type            empty;
    }
    Inlet
    {
        type            calculated;
        value           uniform (0 0 0);
    }
    Airfoil
    {
        type            calculated;
        value           nonuniform List<vector> 
95
(
(-2.5434685 0.17913712 1.1238148e-16)
(-2.1494817 0.15157283 1.1264975e-16)
(-1.6540821 0.11695147 -1.1286263e-16)
(-1.0437051 0.075198146 2.260796e-16)
(-0.28932605 0.024693053 1.1317582e-16)
(0.6155011 -0.034818909 -2.1625669e-22)
(1.6085277 -0.099458398 -1.1330146e-16)
(2.4340417 -0.15311808 1.1331256e-16)
(2.5939923 -0.16554355 1.1334244e-16)
(1.5368362 -0.10344736 2.2700671e-16)
(-0.55880237 0.023960005 7.5231638e-37)
(-2.4745984 0.14465699 -3.6425051e-33)
(-3.3468557 0.20228979 4.3828582e-22)
(-3.4505833 0.20983613 -1.151787e-16)
(-3.1378769 0.19040594 -2.3097251e-16)
(-2.5909914 0.15681054 2.3147647e-16)
(-1.9189692 0.11602468 -2.2121863e-33)
(-1.1465993 0.070337481 1.1611193e-16)
(-0.21253278 0.017023089 6.7689667e-33)
(1.0215931 -0.051111886 -2.161865e-38)
(2.6464374 -0.13874193 -4.4285035e-22)
(4.452268 -0.23363061 1.1625842e-16)
(6.1893109 -0.32247672 4.4417266e-22)
(7.496431 -0.38808262 3.9759889e-22)
(7.9932708 -0.4123198 -4.4333736e-22)
(7.3536843 -0.37977368 -1.1592163e-16)
(5.3117911 -0.27986742 -1.1615643e-16)
(1.8780865 -0.11198098 -1.1665614e-16)
(-1.3025492 0.047184907 -1.1737949e-16)
(-2.4393816 0.11095636 -1.5894051e-24)
(-1.9312738 0.091390085 4.5139607e-22)
(-1.3259582 0.063214971 -3.1313034e-38)
(-0.96465268 0.045854443 -3.4192701e-25)
(-0.67708805 0.032248636 -1.1937609e-16)
(-0.4315103 0.020824665 -2.425643e-25)
(-0.12652156 0.0079439143 -5.9919781e-17)
(0.24010603 -0.0075436779 -6.0008276e-17)
(0.62284107 -0.022707358 -5.8596669e-25)
(0.94532402 -0.035671647 -6.0192225e-17)
(1.1326444 -0.042954719 9.2003119e-22)
(1.1215022 -0.042374764 -3.7669265e-25)
(0.90692369 -0.034777335 -4.6179984e-22)
(0.57372925 -0.022191439 -4.4731061e-38)
(0.22615328 -0.0099544333 4.6418013e-22)
(-0.058389286 0.00060353516 -2.2983612e-24)
(-0.2465276 0.0072258634 -6.118849e-17)
(-0.33159883 0.01030453 4.6814072e-22)
(-0.31488597 0.010024306 6.1555095e-17)
(-0.17842775 0.0061886476 -1.6927119e-36)
(0.11519329 -0.0015710754 -6.1914241e-17)
(0.59876684 -0.015067436 -6.2065186e-17)
(1.2629604 -0.03123582 -1.880791e-37)
(2.0558807 -0.051423615 -4.7490285e-22)
(2.8971502 -0.070335073 -1.2490878e-16)
(3.6398743 -0.087019822 6.2515037e-17)
(4.0879167 -0.094914303 -3.1310358e-17)
(4.0124135 -0.091457558 -9.5733956e-22)
(3.3137106 -0.074978229 -3.1429931e-17)
(2.2148041 -0.050259178 -6.3100951e-17)
(1.1281984 -0.028053642 1.0814548e-36)
(0.34555813 -0.01057528 2.8002332e-24)
(-0.12096456 -0.00073217666 4.7019774e-37)
(-0.36923715 0.004484739 -3.2059428e-17)
(-0.49713383 0.0071251228 4.9082364e-22)
(-0.58972213 0.0084917547 -3.2295092e-17)
(-0.6585846 0.0093475691 3.2412714e-17)
(-0.70891835 0.0095007956 -1.6264214e-17)
(-0.76012042 0.0096262055 3.2644441e-17)
(-0.81798982 0.0095032266 4.9985626e-22)
(-0.8845842 0.0093167004 1.6439238e-17)
(-0.95931751 0.008999964 -7.8179778e-34)
(-1.0410058 0.0085406246 -1.6562264e-17)
(-1.1280395 0.0078987847 -1.7632415e-38)
(-1.2195191 0.0070419802 -5.0934533e-22)
(-1.314113 0.005962705 5.1149503e-22)
(-1.4112674 0.0047401005 -6.1718533e-26)
(-1.511173 0.003341464 5.1574805e-22)
(-1.6131355 0.0016871036 -1.0609809e-18)
(-1.716868 -0.00022147871 -9.7542296e-26)
(-1.8220184 -0.0024081944 -5.2280451e-22)
(-1.9285297 -0.0048719385 7.6022625e-26)
(-2.036271 -0.0076308481 8.6445368e-18)
(-2.1452962 -0.010692651 5.3021972e-22)
(-2.2556359 -0.014073363 5.3281321e-22)
(-2.3674224 -0.017783426 -5.3533128e-22)
(-2.4807155 -0.021836744 1.7624274e-17)
(-2.5955551 -0.026250111 -2.1158898e-37)
(-2.7119034 -0.031036097 -1.7794176e-17)
(-2.8289179 -0.036142931 -5.4574587e-22)
(-2.9473193 -0.041394473 -5.4821578e-22)
(-3.0680125 -0.04699439 1.1018773e-21)
(-3.1906244 -0.052977935 -1.814062e-17)
(-3.3152676 -0.059360307 -5.5718081e-22)
(-3.4419375 -0.066156691 3.6630931e-17)
(-3.5706145 -0.073386688 -3.7615819e-37)
)
;
    }
    Outlet
    {
        type            calculated;
        value           nonuniform List<vector> 0();
    }
    procBoundary10to3
    {
        type            processor;
        value           uniform (0 0 0);
    }
    procBoundary10to9
    {
        type            processor;
        value           uniform (0 0 0);
    }
    procBoundary10to11
    {
        type            processor;
        value           uniform (0 0 0);
    }
}


// ************************************************************************* //
