0 	37390.846
0.0023115 	44446.104
0.009234 	48478.418
0.0207225 	49806.935
0.036708 	49974.835
0.05709 	49758.393
0.0817455 	49418.411
0.11052 	49131.118
0.143238 	48850.705
0.1796955 	48594.628
0.2196705 	48375.38
0.262914 	48197.982
0.3091605 	48060.488
0.3581265 	47928.464
0.4095075 	47789.52
0.462987 	47672.006
0.518238 	47593.057
0.5749155 	47541.178
0.6326745 	47466.319
0.691155 	47411.486
0.75 	47403.092
0.808845 	47353.832
0.8673255 	47263.689
0.9250845 	47240.126
0.981762 	47188.742
1.037013 	47150.285
1.0904925 	47342.533
1.1418735 	47271.901
1.1908395 	47207.2
1.237086 	47205.672
1.2803295 	47178.285
1.3203045 	47217.348
1.356762 	47207.478
1.38948 	47339.74
1.4182545 	47510.249
1.44291 	47381.442
1.463292 	47604.438
1.4792775 	47484.875
1.4976885 	47745.624
1.5 	47757.157
