/*--------------------------------*- C++ -*----------------------------------*\
| =========                 |                                                 |
| \\      /  F ield         | OpenFOAM: The Open Source CFD Toolbox           |
|  \\    /   O peration     | Version:  2506                                  |
|   \\  /    A nd           | Website:  www.openfoam.com                      |
|    \\/     M anipulation  |                                                 |
\*---------------------------------------------------------------------------*/
FoamFile
{
    version     2.0;
    format      ascii;
    arch        "LSB;label=32;scalar=64";
    class       volScalarField;
    location    "0.1";
    object      p;
}
// * * * * * * * * * * * * * * * * * * * * * * * * * * * * * * * * * * * * * //

dimensions      [1 -1 -2 0 0 0 0];

internalField   nonuniform List<scalar> 
1375
(
47080.17
47080.073
47079.971
47079.859
47079.737
47079.602
47081.504
47081.385
47081.26
47081.128
47080.983
47080.824
47080.649
47080.457
47080.246
47080.015
47079.764
47079.49
47079.195
47078.879
47078.544
47078.196
47077.843
47077.495
47077.165
47082.969
47082.822
47082.669
47082.508
47082.331
47082.137
47081.923
47081.689
47081.432
47081.15
47080.843
47080.509
47080.147
47079.759
47079.346
47078.913
47078.469
47078.022
47077.587
47077.183
47076.836
47076.573
47076.427
47076.432
47076.635
47077.123
47077.977
47084.545
47084.38
47084.207
47084.022
47083.82
47083.597
47083.353
47083.085
47082.791
47082.47
47082.118
47081.736
47081.321
47080.874
47080.396
47079.892
47079.367
47078.832
47078.301
47077.791
47077.329
47076.946
47076.685
47076.592
47076.709
47077.102
47077.876
47079.104
47080.829
47083.119
47086.003
47089.447
47093.316
47097.401
47086.077
47085.91
47085.731
47085.537
47085.322
47085.085
47084.823
47084.534
47084.216
47083.867
47083.485
47083.068
47082.615
47082.126
47081.601
47081.045
47080.462
47079.861
47079.257
47078.668
47078.121
47077.647
47077.292
47077.101
47077.124
47077.43
47078.113
47079.288
47081.003
47083.287
47086.171
47089.624
47093.527
47097.674
47101.782
47105.599
47108.953
47111.686
47087.441
47087.285
47087.113
47086.923
47086.71
47086.472
47086.207
47085.913
47085.588
47085.229
47084.835
47084.402
47083.929
47083.415
47082.863
47082.274
47081.656
47081.015
47080.367
47079.73
47079.132
47078.604
47078.189
47077.933
47077.888
47078.128
47078.74
47079.816
47081.468
47083.745
47086.622
47090.083
47094.03
47098.248
47102.468
47106.443
47109.992
47112.967
47115.119
47116.149
47116.169
47088.592
47088.454
47088.296
47088.119
47087.917
47087.688
47087.431
47087.144
47086.823
47086.468
47086.075
47085.645
47085.174
47084.66
47084.104
47083.508
47082.878
47082.221
47081.553
47080.892
47080.266
47079.709
47079.26
47078.969
47078.889
47079.087
47079.656
47080.666
47082.25
47084.483
47087.355
47090.833
47094.829
47099.142
47103.496
47107.64
47111.357
47114.445
47116.65
47117.703
47117.747
47116.495
47114.014
47110.833
47089.51
47089.392
47089.253
47089.093
47088.909
47088.698
47088.458
47088.188
47087.885
47087.545
47087.168
47086.75
47086.291
47085.789
47085.244
47084.656
47084.032
47083.377
47082.706
47082.037
47081.4
47080.829
47080.364
47080.057
47079.962
47080.14
47080.693
47081.692
47083.239
47085.433
47088.315
47091.83
47095.899
47100.311
47104.794
47109.094
47112.897
47115.948
47118.059
47119.124
47119.177
47117.71
47114.861
47111.523
47108.033
47105.863
47090.198
47090.104
47089.989
47089.851
47089.688
47089.498
47089.279
47089.028
47088.743
47088.422
47088.062
47087.661
47087.217
47086.729
47086.197
47085.622
47085.007
47084.36
47083.692
47083.023
47082.38
47081.8
47081.326
47081.01
47080.906
47081.085
47081.659
47082.705
47084.276
47086.498
47089.438
47093.021
47097.176
47101.666
47106.29
47110.675
47114.462
47117.357
47119.28
47120.355
47120.357
47118.696
47115.566
47112.154
47108.702
47106.46
47105.006
47103.822
47090.61
47090.544
47090.456
47090.345
47090.208
47090.043
47089.849
47089.622
47089.36
47089.06
47088.719
47088.333
47087.902
47087.425
47086.9
47086.331
47085.72
47085.075
47084.406
47083.732
47083.08
47082.489
47082.003
47081.675
47081.566
47081.758
47082.38
47083.515
47085.193
47087.536
47090.605
47094.311
47098.53
47103.159
47107.907
47112.281
47115.921
47118.601
47120.384
47121.358
47121.24
47119.451
47116.26
47112.748
47109.244
47106.888
47105.583
47104.061
47105.944
47090.824
47090.778
47090.708
47090.616
47090.499
47090.355
47090.18
47089.973
47089.73
47089.449
47089.125
47088.756
47088.337
47087.867
47087.345
47086.773
47086.155
47085.499
47084.817
47084.127
47083.458
47082.849
47082.347
47082.009
47081.894
47082.105
47082.8
47084.054
47085.876
47088.388
47091.665
47095.559
47099.972
47104.734
47109.471
47113.782
47117.239
47119.722
47121.369
47122.186
47121.864
47120.004
47116.952
47113.319
47109.642
47107.226
47105.739
47104.654
47105.156
47090.936
47090.901
47090.842
47090.761
47090.655
47090.52
47090.356
47090.159
47089.925
47089.652
47089.334
47088.969
47088.553
47088.083
47087.556
47086.975
47086.343
47085.668
47084.963
47084.248
47083.553
47082.914
47082.383
47082.018
47081.896
47082.122
47082.854
47084.187
47086.188
47088.93
47092.473
47096.66
47101.333
47106.227
47110.983
47115.165
47118.45
47120.757
47122.274
47122.916
47122.36
47120.488
47117.606
47113.908
47109.916
47107.49
47105.78
47105.176
47106.122
47090.985
47090.958
47090.906
47090.831
47090.73
47090.6
47090.439
47090.244
47090.013
47089.74
47089.423
47089.056
47088.635
47088.159
47087.624
47087.032
47086.384
47085.688
47084.958
47084.215
47083.488
47082.817
47082.251
47081.859
47081.722
47081.951
47082.709
47084.106
47086.23
47089.177
47092.994
47097.531
47102.51
47107.601
47112.406
47116.507
47119.653
47121.813
47123.168
47123.625
47122.871
47121.006
47118.169
47114.349
47110.205
47107.715
47105.944
47105.438
47107.26
47090.996
47090.976
47090.931
47090.863
47090.767
47090.641
47090.484
47090.291
47090.06
47089.787
47089.467
47089.096
47088.67
47088.185
47087.641
47087.036
47086.374
47085.661
47084.91
47084.139
47083.377
47082.665
47082.058
47081.626
47081.456
47081.659
47082.42
47083.876
47086.124
47089.247
47093.299
47098.14
47103.45
47108.792
47113.721
47117.858
47120.927
47122.971
47124.124
47124.4
47123.493
47121.568
47118.69
47114.821
47110.722
47108.094
47106.501
47105.729
47107.262
47090.962
47090.951
47090.916
47090.859
47090.774
47090.659
47090.511
47090.326
47090.101
47089.832
47089.515
47089.145
47088.718
47088.23
47087.679
47087.064
47086.387
47085.654
47084.877
47084.073
47083.275
47082.519
47081.863
47081.388
47081.188
47081.364
47082.121
47083.611
47085.939
47089.222
47093.471
47098.566
47104.196
47109.805
47114.933
47119.177
47122.286
47124.279
47125.265
47125.364
47124.337
47122.296
47119.316
47115.562
47111.558
47108.788
47107.467
47106.101
47107.761
47090.876
47090.877
47090.855
47090.812
47090.742
47090.642
47090.51
47090.343
47090.135
47089.88
47089.574
47089.213
47088.792
47088.307
47087.755
47087.132
47086.442
47085.689
47084.887
47084.052
47083.214
47082.419
47081.728
47081.222
47080.998
47081.164
47081.925
47083.453
47085.87
47089.277
47093.703
47098.989
47104.853
47110.72
47116.084
47120.5
47123.769
47125.796
47126.713
47126.69
47125.576
47123.349
47120.146
47116.603
47112.504
47109.738
47108.55
47106.955
47107.193
47090.73
47090.742
47090.732
47090.704
47090.65
47090.568
47090.454
47090.303
47090.111
47089.874
47089.587
47089.244
47088.839
47088.368
47087.825
47087.208
47086.516
47085.755
47084.935
47084.078
47083.218
47082.402
47081.699
47081.194
47080.984
47081.18
47081.96
47083.529
47086.024
47089.54
47094.114
47099.575
47105.626
47111.731
47117.313
47121.952
47125.404
47127.56
47128.524
47128.474
47127.252
47124.753
47121.355
47117.866
47113.575
47110.779
47109.452
47108.224
47107.636
47090.496
47090.518
47090.517
47090.501
47090.46
47090.394
47090.299
47090.169
47090
47089.784
47089.518
47089.194
47088.807
47088.355
47087.832
47087.236
47086.565
47085.82
47085.007
47084.153
47083.296
47082.487
47081.798
47081.321
47081.155
47081.421
47082.29
47083.926
47086.52
47090.181
47094.894
47100.533
47106.748
47113.038
47118.825
47123.623
47127.198
47129.518
47130.627
47130.617
47129.21
47126.441
47122.778
47119.047
47114.418
47111.452
47110.278
47109.227
47108.603
47090.168
47090.196
47090.204
47090.197
47090.167
47090.115
47090.037
47089.929
47089.785
47089.598
47089.361
47089.069
47088.714
47088.291
47087.797
47087.23
47086.588
47085.877
47085.106
47084.295
47083.477
47082.706
47082.06
47081.641
47081.558
47081.944
47082.962
47084.762
47087.504
47091.317
47096.229
47102.017
47108.353
47114.763
47120.642
47125.451
47129.082
47131.554
47132.802
47132.756
47131.084
47128.017
47124.076
47120.12
47114.979
47111.865
47110.847
47109.929
47111.524
47089.768
47089.801
47089.818
47089.823
47089.807
47089.772
47089.715
47089.632
47089.517
47089.365
47089.166
47088.914
47088.6
47088.218
47087.764
47087.235
47086.638
47085.974
47085.257
47084.509
47083.762
47083.072
47082.513
47082.192
47082.227
47082.783
47084.004
47086.03
47088.991
47093.043
47098.134
47104.021
47110.391
47116.74
47122.537
47127.334
47131.006
47133.506
47134.731
47134.525
47132.647
47129.397
47125.292
47120.847
47115.536
47112.263
47111.13
47110.463
47113.684
47089.344
47089.383
47089.413
47089.434
47089.438
47089.426
47089.396
47089.344
47089.265
47089.154
47089.002
47088.8
47088.538
47088.209
47087.807
47087.331
47086.785
47086.177
47085.521
47084.845
47084.191
47083.617
47083.197
47083.025
47083.232
47083.989
47085.442
47087.736
47090.972
47095.21
47100.413
47106.368
47112.616
47118.756
47124.404
47129.169
47132.805
47135.178
47136.223
47135.921
47133.984
47130.705
47126.435
47121.549
47116.231
47112.916
47111.473
47111.018
47113.525
47088.934
47088.984
47089.034
47089.076
47089.104
47089.12
47089.122
47089.107
47089.069
47089.004
47088.904
47088.76
47088.563
47088.301
47087.966
47087.556
47087.075
47086.536
47085.959
47085.373
47084.828
47084.391
47084.138
47084.161
47084.597
47085.584
47087.281
47089.833
47093.3
47097.651
47102.877
47108.761
47114.831
47120.743
47126.204
47130.826
47134.36
47136.58
47137.455
47137.049
47135.223
47131.999
47127.629
47122.526
47117.26
47114.041
47112.338
47111.852
47112.562
47088.509
47088.581
47088.659
47088.735
47088.794
47088.845
47088.886
47088.914
47088.922
47088.908
47088.865
47088.786
47088.661
47088.481
47088.235
47087.917
47087.531
47087.088
47086.615
47086.146
47085.729
47085.435
47085.353
47085.597
47086.281
47087.517
47089.441
47092.185
47095.799
47100.207
47105.368
47111.115
47117.002
47122.697
47127.938
47132.351
47135.743
47137.825
47138.547
47138.02
47136.384
47133.128
47128.794
47123.913
47118.762
47115.535
47113.355
47112.57
47112.102
47087.998
47088.084
47088.217
47088.338
47088.451
47088.55
47088.635
47088.714
47088.781
47088.831
47088.857
47088.852
47088.811
47088.727
47088.592
47088.4
47088.15
47087.848
47087.513
47087.183
47086.911
47086.769
47086.861
47087.312
47088.216
47089.666
47091.777
47094.665
47098.381
47102.847
47107.924
47113.48
47119.185
47124.662
47129.656
47133.864
47137.023
47138.909
47139.527
47138.961
47137.382
47134.211
47129.939
47125.416
47120.351
47116.997
47114.332
47112.855
47114.07
47087.401
47087.477
47087.678
47087.832
47088.001
47088.173
47088.323
47088.472
47088.616
47088.746
47088.858
47088.947
47089.011
47089.041
47089.033
47088.983
47088.892
47088.76
47088.604
47088.452
47088.351
47088.376
47088.637
47089.258
47090.341
47091.977
47094.267
47097.286
47101.071
47105.573
47110.634
47116.075
47121.55
47126.721
47131.396
47135.313
47138.205
47139.89
47140.392
47139.776
47138.118
47135.152
47131.073
47126.825
47121.841
47118.195
47115.28
47113.353
47113.944
47087.474
47087.709
47087.954
47088.188
47088.42
47088.647
47088.864
47089.068
47089.251
47089.409
47089.54
47089.645
47089.727
47089.787
47089.833
47089.889
47089.995
47090.217
47090.656
47091.438
47092.684
47094.49
47096.95
47100.134
47104.062
47108.618
47113.593
47118.877
47124.084
47128.875
47133.08
47136.552
47139.124
47140.615
47141.029
47140.357
47138.655
47135.908
47132.222
47128.05
47123.153
47119.41
47116.186
47113.887
47112.619
47088.558
47088.894
47089.223
47089.541
47089.845
47090.131
47090.4
47090.655
47090.908
47091.17
47091.457
47091.804
47092.263
47092.917
47093.891
47095.314
47097.304
47099.95
47103.268
47107.265
47111.884
47116.832
47121.887
47126.685
47130.956
47134.564
47137.497
47139.716
47141.042
47141.406
47140.733
47139.135
47136.529
47133.158
47129.118
47124.348
47120.567
47117.09
47114.241
47113.672
47091.276
47091.714
47092.159
47092.627
47093.14
47093.735
47094.459
47095.375
47096.592
47098.246
47100.413
47103.216
47106.751
47110.862
47115.374
47120.141
47124.873
47129.197
47132.864
47135.832
47138.198
47140.057
47141.26
47141.582
47140.928
47139.386
47136.978
47133.831
47129.985
47125.329
47121.632
47118.07
47114.572
47115.38
47094.988
47095.826
47096.816
47098.019
47099.52
47101.436
47103.917
47106.924
47110.437
47114.487
47118.872
47123.358
47127.642
47131.453
47134.556
47136.946
47138.798
47140.304
47141.34
47141.603
47140.877
47139.273
47137.01
47134.265
47130.679
47126.15
47122.583
47119.323
47115.486
47113.074
47102.725
47104.935
47107.513
47110.638
47114.246
47118.187
47122.289
47126.351
47130.137
47133.427
47136.056
47137.99
47139.394
47140.498
47141.257
47141.317
47140.434
47138.771
47136.737
47134.432
47131.416
47126.946
47123.583
47120.458
47116.322
47112.702
47118.065
47121.764
47125.508
47129.091
47132.354
47135.132
47137.342
47138.923
47139.923
47140.565
47140.895
47140.644
47139.586
47137.949
47136.182
47134.32
47131.97
47127.84
47124.639
47121.528
47117.173
47115.938
47131.553
47134.312
47136.586
47138.361
47139.603
47140.263
47140.418
47140.251
47139.686
47138.497
47136.871
47135.334
47133.846
47132.115
47128.727
47125.756
47122.612
47118.012
47117.849
47139.197
47140.031
47140.351
47140.1
47139.44
47138.497
47137.16
47135.528
47134.183
47133.032
47131.894
47129.23
47126.88
47123.734
47119.012
47117.216
47140.286
47139.667
47138.565
47137.2
47135.681
47134.093
47132.852
47131.98
47131.22
47129.312
47127.845
47124.785
47120.189
47116.375
47135.895
47134.223
47132.676
47131.449
47130.734
47130.343
47129.368
47128.531
47125.622
47121.11
47116.816
47131.742
47130.415
47129.786
47129.819
47129.47
47129.014
47126.324
47122.407
47120.401
47129.674
47129.889
47129.878
47129.828
47127.522
47124.27
47123.661
47130.81
47131.143
47131.425
47129.835
47127.491
47126.307
47133.89
47133.442
47131.989
47130.464
47137.234
47136.64
47135.014
47140.047
47141.114
)
;

boundaryField
{
    Side
    {
        type            empty;
    }
    Inlet
    {
        type            totalPressure;
        rho             rho;
        psi             none;
        gamma           1;
        p0              uniform 50000;
        value           nonuniform List<scalar> 
32
(
47041.31
47041.377
47041.503
47041.683
47041.901
47042.1
47042.333
47042.617
47042.903
46857.321
47043.407
47043.618
47043.804
47044.067
47044.387
47044.614
47044.629
47043.771
47044.025
47043.754
47043.798
47043.654
47043.129
47042.556
47042.24
47041.998
47040.907
47041.147
47040.566
47040.035
47039.713
47039.479
)
;
    }
    Airfoil
    {
        type            zeroGradient;
    }
    Outlet
    {
        type            fixedValue;
        value           nonuniform List<scalar> 0();
    }
    procBoundary4to3
    {
        type            processor;
        value           nonuniform List<scalar> 
57
(
47079.2
47079.128
47079.053
47078.972
47078.883
47078.785
47079.455
47079.455
47079.293
47079.116
47078.924
47078.715
47078.49
47078.249
47077.994
47077.73
47077.463
47077.202
47076.963
47076.87
47076.87
47076.632
47076.473
47076.423
47076.522
47076.83
47077.413
47078.315
47079.24
47079.24
47080.969
47083.254
47086.114
47089.516
47093.338
47097.371
47101.426
47101.426
47105.127
47108.287
47110.726
47113.621
47113.621
47114.566
47114.519
47115.097
47115.097
47112.952
47109.979
47107.359
47107.359
47105.099
47104.141
47104.141
47103.446
47105.77
47105.77
)
;
    }
    procBoundary4to5
    {
        type            processor;
        value           nonuniform List<scalar> 
64
(
47086.89
47087.078
47087.269
47087.269
47087.026
47087.288
47087.586
47087.903
47088.227
47088.227
47088.564
47089.011
47089.469
47089.93
47090.388
47090.836
47090.836
47092.348
47092.959
47093.586
47094.252
47094.252
47097.1
47098.164
47099.418
47100.903
47100.903
47106.085
47108.496
47111.338
47114.546
47114.546
47121.478
47124.966
47128.389
47128.389
47133.868
47136.132
47137.903
47137.903
47140.015
47140.388
47140.388
47140.189
47139.12
47137.609
47137.609
47134.928
47133.233
47133.233
47131.615
47130.242
47130.242
47130.82
47130.82
47132.644
47132.972
47132.972
47136.703
47136.703
47140.253
47140.253
47142.397
47144.355
)
;
    }
    procBoundary4to11
    {
        type            processor;
        value           nonuniform List<scalar> 
26
(
47081.5
47082.968
47084.55
47086.087
47087.452
47088.605
47089.524
47090.212
47090.621
47090.834
47090.943
47090.991
47091
47090.963
47090.878
47090.734
47090.507
47090.187
47089.793
47089.369
47088.952
47088.52
47088.004
47087.402
47080.261
47080.261
)
;
    }
    procBoundary4to12
    {
        type            processor;
        value           uniform 47086.806;
    }
}


// ************************************************************************* //
