/*--------------------------------*- C++ -*----------------------------------*\
| =========                 |                                                 |
| \\      /  F ield         | OpenFOAM: The Open Source CFD Toolbox           |
|  \\    /   O peration     | Version:  2506                                  |
|   \\  /    A nd           | Website:  www.openfoam.com                      |
|    \\/     M anipulation  |                                                 |
\*---------------------------------------------------------------------------*/
FoamFile
{
    version     2.0;
    format      ascii;
    arch        "LSB;label=32;scalar=64";
    class       volScalarField;
    location    "0.0195";
    object      yPlus;
}
// * * * * * * * * * * * * * * * * * * * * * * * * * * * * * * * * * * * * * //

dimensions      [0 0 0 0 0 0 0];

internalField   uniform 0;

boundaryField
{
    Side
    {
        type            empty;
    }
    Inlet
    {
        type            calculated;
        value           uniform 0;
    }
    Airfoil
    {
        type            calculated;
        value           nonuniform List<scalar> 
107
(
0.19655644
0.19288281
0.18895735
0.18438987
0.17882145
0.17177907
0.37627235
0.37598966
0.37570635
0.37542206
0.37513778
0.37485636
0.37459555
0.37429868
0.37393762
0.37356485
0.37318694
0.37280517
0.3724191
0.37203236
0.37164322
0.37125555
0.37086811
0.37048491
0.3701077
0.36974872
0.36940346
0.3690013
0.36854285
0.36808482
0.36762245
0.36716
0.36669535
0.36623271
0.36576982
0.36531173
0.3648582
0.36441529
0.36398272
0.36358701
0.36314676
0.36263165
0.36210399
0.36157607
0.36104696
0.36052072
0.3599945
0.35947361
0.35895703
0.35844853
0.35795196
0.3574694
0.3570318
0.35655701
0.35599712
0.35541769
0.35483581
0.35425182
0.35366738
0.35308307
0.35250141
0.35192376
0.35135331
0.35079369
0.35024986
0.34974551
0.3491917
0.34855319
0.34790121
0.34724397
0.34658389
0.34592251
0.34526063
0.34460119
0.34394632
0.34329996
0.34266398
0.34205713
0.3414674
0.34080583
0.3400805
0.33935158
0.33861823
0.33788463
0.33715038
0.3364194
0.33569344
0.3349757
0.33427046
0.33358261
0.33293879
0.33225817
0.33149471
0.33071589
0.32993357
0.32915185
0.32837212
0.32759712
0.32682855
0.32607029
0.32532501
0.3245962
0.32391298
0.3232182
0.32244558
0.32164228
0.32083744
)
;
    }
    Outlet
    {
        type            calculated;
        value           nonuniform List<scalar> 0();
    }
    procBoundary3to2
    {
        type            processor;
        value           uniform 0;
    }
    procBoundary3to4
    {
        type            processor;
        value           uniform 0;
    }
    procBoundary3to10
    {
        type            processor;
        value           uniform 0;
    }
    procBoundary3to11
    {
        type            processor;
        value           uniform 0;
    }
}


// ************************************************************************* //
