/*--------------------------------*- C++ -*----------------------------------*\
| =========                 |                                                 |
| \\      /  F ield         | OpenFOAM: The Open Source CFD Toolbox           |
|  \\    /   O peration     | Version:  2506                                  |
|   \\  /    A nd           | Website:  www.openfoam.com                      |
|    \\/     M anipulation  |                                                 |
\*---------------------------------------------------------------------------*/
FoamFile
{
    version     2.0;
    format      ascii;
    arch        "LSB;label=32;scalar=64";
    class       surfaceScalarField;
    location    "1.15";
    object      phi;
}
// * * * * * * * * * * * * * * * * * * * * * * * * * * * * * * * * * * * * * //

dimensions      [1 0 -1 0 0 0 0];

oriented        oriented;

internalField   nonuniform List<scalar> 
2671
(
9.5622678
0.44880094
8.7333123
0.41592891
7.9644999
0.3853663
7.2522715
0.35701805
6.5932663
0.3308366
5.9824019
0.30660358
5.4162145
0.28418865
4.8919321
0.26342276
4.4062456
0.24413051
3.9564026
0.22622242
3.5400893
0.20958152
3.154521
0.19420338
2.797145
0.18000094
2.4659783
0.16677984
2.1596193
0.15435863
1.8760994
0.14281516
1.6135258
0.13204842
1.3705842
0.12225077
1.1461103
0.11301936
0.93894391
0.10448258
0.74780691
0.096439295
0.57156892
0.088963163
0.40940864
0.082411933
0.26027096
0.07584027
0.12308805
0.069906952
0.06301734
63.412934
7.8219714
58.598503
7.2417852
54.139629
6.7054035
50.013226
6.209012
46.194276
5.7457833
42.66035
5.3297952
39.389055
4.9260056
36.351071
4.5546932
33.543926
4.22036
30.943792
3.9166713
28.535603
3.6270498
26.306501
3.3575979
24.241816
3.1077647
22.329498
2.8761235
20.558494
2.6621677
18.917835
2.4649506
17.398035
2.2829255
15.991176
2.1147423
14.688347
1.9591469
13.481162
1.8149579
12.363622
1.6813632
11.328683
1.5576327
10.369684
1.4430118
9.4817961
1.336823
8.6598319
1.2384444
7.8975319
1.1472507
7.1914547
1.0627939
6.5380448
0.98462763
5.9323699
0.91221102
5.3709571
0.8451754
4.8510641
0.78310974
4.3694404
0.72555806
3.9233608
0.67218808
3.5105606
0.62270912
3.1282358
0.57688763
2.7737818
0.5344161
2.4452905
0.49496793
2.1414403
0.45824245
1.8602761
0.42412743
1.5998879
0.3923673
1.3589238
0.36305161
1.1362423
0.33564634
0.93074886
0.31026027
0.74111516
0.28643041
0.56632462
0.26401848
0.40535299
0.24351197
0.25790881
0.22323049
0.12315078
0.20450571
0.1860511
61.8194
12.889076
57.126374
11.932756
52.780638
11.047425
48.75685
10.229177
45.034039
9.4696372
41.589251
8.7772827
38.400155
8.1175225
35.444064
7.51263
32.70357
6.9608959
30.168205
6.4516294
27.820875
5.9741101
25.647861
5.5306835
23.635444
5.1200911
21.771412
4.7404039
20.044619
4.389462
18.444838
4.0649249
16.963224
3.7646037
15.591738
3.4867999
14.321498
3.2297326
13.144656
2.9916025
12.05528
2.7710741
11.04631
2.5668786
10.111372
2.3777172
9.2458061
2.202519
8.4443889
2.0402921
7.7011885
1.8900279
7.0129082
1.7508917
6.3758439
1.6220412
5.7853415
1.5026674
5.2379841
1.392142
4.7310624
1.2897948
4.261441
1.194944
3.8265276
1.1070066
3.4240712
1.0255518
3.0512794
0.9500492
2.7055853
0.88001205
2.3852178
0.81498982
2.0889209
0.75456365
1.8147267
0.69847616
1.5608732
0.64618937
1.325858
0.59792536
1.1087103
0.55276266
0.90833305
0.51095137
0.72333185
0.47181184
0.55298827
0.43468002
0.39584621
0.40079119
0.25220185
0.36677831
0.12208491
0.33440849
0.30798945
59.268934
17.746154
54.769945
16.42931
50.603205
15.210666
46.746157
14.082612
43.17674
13.039516
39.874567
12.082541
36.81981
11.175063
33.985346
10.349477
31.358086
9.5896445
28.927842
8.8816474
26.677919
8.2239437
24.594247
7.6143212
22.66415
7.0499012
20.876645
6.5281397
19.221033
6.045483
17.687482
5.5985416
16.267433
5.1847928
14.95268
4.8020111
13.73471
4.4477269
12.606464
4.1196127
11.562133
3.815801
10.594681
3.5344647
9.6982547
3.2738528
8.868426
3.0325362
8.0999658
2.809126
7.3873588
2.6022516
6.7274704
2.4106777
6.1165921
2.2332372
5.5503787
2.0688718
5.0255203
1.9166542
4.5393912
1.7756752
4.0890137
1.6450649
3.671997
1.5239967
3.2860898
1.4118888
2.9285623
1.3078995
2.5969515
1.211447
2.2897084
1.1218778
2.0055146
1.0387771
1.7426807
0.96146581
1.4991143
0.88975764
1.273929
0.82301203
1.0656053
0.76111987
0.87345772
0.70344959
0.69643796
0.64920028
0.53200829
0.5994731
0.38282954
0.55004162
0.24471149
0.50474672
0.11788147
0.46098825
0.42571331
55.904402
22.327477
51.663054
20.6688
47.735877
19.135823
44.098097
17.717989
40.731377
16.407454
37.615301
15.201702
34.731752
14.061905
32.059268
13.023828
29.585628
12.064118
27.293754
11.173443
25.170997
10.34676
23.204613
9.5805242
21.383411
8.8707235
19.697444
8.2141936
18.136037
7.6068961
16.689753
7.044624
15.350538
6.5241038
14.110396
6.0423919
12.961454
5.5964532
11.897391
5.1834998
10.912458
4.8011356
9.9998297
4.4470381
9.1542698
4.1191294
8.3715556
3.8155588
7.646547
3.5344922
6.9742137
3.2742307
6.3516569
3.0331873
5.7752844
2.8099284
5.2410381
2.6031203
4.7458181
2.4115609
4.2871152
2.2341467
3.8621243
2.0698048
3.4686857
1.9175045
3.1045944
1.7764094
2.7671078
1.6456114
2.4541753
1.5241356
2.1642203
1.4115043
1.8961176
1.3068936
1.647945
1.2097961
1.4183798
1.1193714
1.2056862
1.0356702
1.00949
0.957438
0.82794395
0.88535505
0.65996091
0.81753145
0.5086833
0.75108881
0.36183829
0.69684837
0.23308832
0.63337757
0.11487485
0.57891744
0.54042263
51.911229
26.578113
47.970328
24.609166
44.324497
22.781132
40.947697
21.093314
37.821863
19.534294
34.930132
18.096341
32.255141
16.739681
29.774076
15.507202
27.476359
14.362279
25.347947
13.301757
23.377474
12.317862
21.552428
11.405524
19.862073
10.560844
18.296646
9.7795762
16.846891
9.0564338
15.504675
8.3867507
14.261824
7.7671035
13.110521
7.1937664
12.043693
6.6629599
11.055762
6.1713649
10.141088
5.7161141
9.293456
5.2944899
8.508267
4.9041157
7.7815037
4.5427151
7.1081838
4.208109
6.4837678
3.8982689
5.9056393
3.6113112
5.3703167
3.3455432
4.8740559
3.0993312
4.4140743
2.8712684
3.9879708
2.6600599
3.5931339
2.4644204
3.2277278
2.2830824
2.8893901
2.1151225
2.5758432
1.9592661
2.2850332
1.8146666
2.0156819
1.6805665
1.7664338
1.5561454
1.5360311
1.4403697
1.3227434
1.3327773
1.125378
1.2330866
0.9425234
1.1405191
0.77437827
1.0538353
0.61984153
0.97235809
0.47242948
0.89873717
0.34705854
0.82214809
0.22352733
0.75655856
0.10777516
0.6944182
0.64798758
47.479254
30.467456
43.882418
28.206673
40.55113
26.112836
37.463543
24.180303
34.603867
22.393332
31.964186
20.738896
29.513304
19.192866
27.245331
17.777263
25.141834
16.466282
23.194289
15.249507
21.39223
14.121158
19.722788
13.07499
18.176698
12.106923
16.745095
11.211083
15.419461
10.381929
14.191974
9.6144964
13.054986
8.9041843
12.001789
8.2467776
11.026214
7.6380917
10.12309
7.0744397
9.2867554
6.5525943
8.5115711
6.0694677
7.793366
5.6221858
7.1284842
5.2080224
6.5122807
4.8244751
5.9408631
4.4692555
5.4118909
4.1403003
4.9219739
3.8356447
4.4677826
3.5533964
4.0468569
3.2919894
3.6568783
3.0498896
3.2955273
2.8255987
2.961134
2.6177287
2.6514511
2.4250861
2.3643751
2.2463587
2.0981554
2.0806274
1.8514742
1.9269948
1.6234691
1.784138
1.4125625
1.6514792
1.21728
1.5282762
1.0363154
1.4142161
0.86939338
1.307748
0.71435477
1.2091209
0.5716892
1.1152202
0.44430737
1.0262667
0.31875144
0.94736361
0.20690742
0.86808504
0.10510711
0.79605999
0.7529337
42.814592
33.971115
39.571242
31.450506
36.563942
29.121396
33.779988
26.964518
31.203662
24.969567
28.826396
23.11936
26.617097
21.405301
24.571943
19.823796
22.675561
18.363437
20.92078
17.004981
19.298029
15.745375
17.794153
14.578659
16.401827
13.499442
15.111708
12.501347
13.916602
11.577243
12.810613
10.720924
11.785795
9.9288454
10.836087
9.1961417
9.9561317
8.517634
9.1414663
7.8891703
8.3868395
7.307257
7.6876523
6.7684525
7.040083
6.2696805
6.4407424
5.8078599
5.8849931
5.3802574
5.3695893
4.9842628
4.8924497
4.6174814
4.4504287
4.2777193
4.0406889
3.9629946
3.6609779
3.671577
3.3090599
3.4016652
2.9829943
3.1515468
2.6812888
2.9197205
2.401755
2.704804
2.1425781
2.5055253
1.9022853
2.3207158
1.6796977
2.1493273
1.4737326
1.9900786
1.2833711
1.8421233
1.1069479
1.7050536
0.94415673
1.5772789
0.79304505
1.4591392
0.65484292
1.3474351
0.52333114
1.2467508
0.40671924
1.1430066
0.29267989
1.0607026
0.19140869
0.96979569
0.094371538
0.89279324
0.84717699
38.094046
37.084638
35.210367
34.335775
32.537249
31.796083
30.061502
29.441656
27.772082
27.261509
25.654725
25.239096
23.690237
23.373615
21.869847
21.645339
20.18376
20.049929
18.624415
18.565064
17.181346
17.189383
15.843238
15.916489
14.603956
14.739132
13.456771
13.648828
12.395125
12.639237
11.411611
11.704553
10.499677
10.840399
9.6549362
10.040525
8.8728123
9.2994656
8.1489715
8.6132962
7.477862
7.9782729
6.8556549
7.3904241
6.2792348
6.8460475
5.7456881
6.3419088
5.2509439
5.8749168
4.7924244
5.4424748
4.3679201
5.0420568
3.9744475
4.6711957
3.6096983
4.3276692
3.2716334
4.009552
2.9582296
3.7148802
2.6679271
3.4417751
2.3992602
3.1886553
2.1502072
2.9539825
1.9194285
2.7363224
1.705342
2.5346242
1.506765
2.3476016
1.3233803
2.1734667
1.1535956
2.0123325
0.99673505
1.8623912
0.85117517
1.723102
0.71561947
1.594874
0.5911408
1.4718274
0.47704257
1.3607996
0.36896631
1.2508991
0.27536485
1.1537413
0.18504142
1.0601244
0.096119845
0.98170485
0.94308161
33.463587
39.826473
30.928035
36.87256
28.585169
34.137925
26.41451
31.612254
24.409033
29.269452
22.550367
27.099443
20.82644
25.099018
19.225244
23.246947
17.745043
21.529827
16.37559
19.934931
15.11046
18.45491
13.937613
17.089358
12.851101
15.825933
11.844241
14.656045
10.911239
13.572741
10.047151
12.568665
9.245431
11.641548
8.5027224
10.782684
7.8150627
9.9869494
7.1786086
9.2500595
6.5888872
8.5678345
6.0426271
7.936555
5.5363433
7.3523061
5.0675987
6.8110386
4.6325762
6.3097157
4.2292217
5.8455246
3.8558868
5.4154788
3.5100361
5.0171146
3.1894663
4.6482986
2.8921672
4.3067704
2.6164597
3.9903409
2.3611777
3.6970136
2.1248398
3.4252189
1.9057587
3.1731899
1.7026347
2.939504
1.5138805
2.72315
1.3393571
2.5217539
1.1777394
2.3351848
1.0288485
2.1618137
0.89111901
2.000632
0.76178683
1.8526175
0.64562508
1.7111025
0.53236645
1.5847496
0.43219605
1.4610599
0.33124427
1.3512915
0.24752036
1.2374757
0.15733197
1.1500873
0.074832623
1.0641811
1.0177991
29.077741
42.192206
26.883715
39.066347
24.842212
36.178668
22.954188
33.500472
21.212146
31.013953
19.594888
28.719429
18.097935
26.59646
16.707834
24.636564
15.425171
22.81129
14.241639
21.11859
13.142593
19.553949
12.121055
18.111226
11.176046
16.77137
10.301495
15.531414
9.4933646
14.381665
8.7437506
13.318235
8.048034
12.336618
7.4040833
11.426046
6.8082996
10.582826
6.2560848
9.8024029
5.7434555
9.0802219
5.2685327
8.4114936
4.8289723
7.7919431
4.4221251
7.2182295
4.0445002
6.6871194
3.6944316
6.1952919
3.3702158
5.7397844
3.0696598
5.317845
2.7910494
4.9270715
2.5326135
4.565127
2.2928384
4.2298415
2.0708078
3.9190435
1.8651765
3.6310556
1.6746632
3.363876
1.4978057
3.1164115
1.3336923
2.8869051
1.1814001
2.6736469
1.0407672
2.4760978
0.9105914
2.2926939
0.78836113
2.1232606
0.67732743
1.9637678
0.57154313
1.8167488
0.4768312
1.6791479
0.38640728
1.5514554
0.31144778
1.4257033
0.22853625
1.3195715
0.18501079
1.1943064
0.10713574
1.1412874
1.1248147
24.96878
44.238598
23.077035
40.956465
21.334923
37.919788
19.723525
35.112976
18.232076
32.508012
16.847648
30.106938
15.561611
27.882893
14.374908
25.822739
13.277787
23.907325
12.258125
22.138512
11.310037
20.501842
10.435213
18.986123
9.6250513
17.582295
8.8766155
16.281096
8.182853
15.076335
7.5377664
13.963422
6.9390867
12.934936
6.3850818
11.979817
5.8730307
11.095159
5.3991233
10.276477
4.9597486
9.5193566
4.5524584
8.8188269
4.1748546
8.1696495
3.8249853
7.56833
3.5004092
7.0114779
3.1996342
6.4958792
2.9210243
6.0185093
2.6627816
5.5763338
2.4230762
5.1668646
2.2005786
4.7874743
1.9942494
4.4358921
1.8032903
4.1100653
1.6263885
3.8081675
1.4622443
3.5282379
1.3096864
3.2689407
1.1679717
3.0281039
1.03688
2.8044131
0.91601915
2.5974703
0.80413008
2.4052306
0.70134412
2.2262319
0.60425228
2.0608446
0.51299047
1.9076971
0.42981009
1.7621595
0.34850869
1.6326636
0.26988622
1.5042634
0.19816733
1.3905221
0.1203314
1.2738391
0.049910748
1.2110889
1.17445
21.262876
45.956196
19.663458
42.554085
18.175831
39.406317
16.801687
36.487849
15.530477
33.781263
14.353758
31.286094
13.262397
28.97411
12.252043
26.832645
11.31374
24.844842
10.446352
23.005919
9.6450848
21.302876
8.9025636
19.728294
8.2148175
18.270647
7.5792783
16.917817
6.9861178
15.669973
6.437246
14.51216
5.9309634
13.440677
5.4621369
12.448669
5.027258
11.530277
4.6235956
10.680303
4.2492349
9.8935899
3.9023739
9.1657377
3.5812542
8.4909513
3.2841389
7.8656378
3.0079349
7.287416
2.751639
6.7521642
2.5142195
6.2561153
2.2942955
5.7966031
2.0901416
5.3709706
1.9006209
4.976739
1.7246973
4.6115519
1.5618414
4.2730502
1.4108593
3.9593623
1.270777
3.6685409
1.1405799
3.3989558
1.0196952
3.1483593
0.90690255
2.9171155
0.80302236
2.7020229
0.70585824
2.5028059
0.61570813
2.3164951
0.53138355
2.1451329
0.45615166
1.9826835
0.38102321
1.8370404
0.3163491
1.6976783
0.24895684
1.5711071
0.19288453
1.4467402
0.15872994
1.3097076
0.096724051
1.2728179
1.2707015
17.931367
47.406918
16.585095
43.897644
15.339142
40.652658
14.185402
37.642245
13.116086
34.851929
12.122898
32.280023
11.201911
29.89438
10.352615
27.681079
9.5667708
25.629898
8.8373953
23.735055
8.1606519
21.979212
7.5332038
20.355819
6.9549355
18.849765
6.4174189
17.456281
5.9218275
16.165699
5.4623213
14.971197
5.0342456
13.868233
4.6370762
12.845753
4.2711702
11.89632
3.9311198
11.02047
3.616065
10.208684
3.3244522
9.4573267
3.0539887
8.761577
2.8023123
8.1175285
2.5686228
7.5208271
2.3532222
6.9676831
2.153604
6.4559523
1.9681162
5.9823982
1.7955325
5.543423
1.6352924
5.1366911
1.4867359
4.759893
1.3491731
4.4107947
1.2213907
4.0873417
1.1027389
3.7873523
0.99235473
3.5089838
0.88861603
3.2514734
0.79410948
3.0118353
0.70726317
2.7894596
0.62586472
2.5843164
0.5479848
2.3944166
0.47774943
2.2155122
0.40811871
2.0520686
0.34382322
1.901143
0.29100638
1.7511788
0.22249976
1.638915
0.1643515
1.5056712
0.045544341
1.4289393
0.0039029235
1.3164134
1.2744789
15.004197
48.623691
13.881437
45.017701
12.84508
41.691833
11.883409
38.605825
10.990034
35.746774
10.16329
33.106361
9.3971059
30.659466
8.6857808
28.391092
8.0261385
26.28875
7.4206247
24.340626
6.8554827
22.543629
6.3325736
20.879135
5.8501926
19.333284
5.4022184
17.904701
4.985736
16.582065
4.5984113
15.358107
4.2440371
14.222452
3.9148722
13.174923
3.6088408
12.202612
3.325362
11.303997
3.0621683
10.47209
2.8179898
9.701457
2.5915659
8.9882567
2.3826004
8.326738
2.1878434
7.7151401
2.0064937
7.1492506
1.8386743
6.6241128
1.6831748
6.1379491
1.5388165
5.6875617
1.4044697
5.2708144
1.2795038
4.8847422
1.1639113
4.5266027
1.0566634
4.1947514
0.95681347
3.8872398
0.86314674
3.6021466
0.7770339
3.33712
0.69731722
3.0920587
0.62058421
2.8665523
0.55056858
2.6543274
0.4876491
2.4575972
0.42551232
2.2778654
0.36349733
2.1134428
0.31372426
1.9511451
0.25663027
1.8091158
0.20768537
1.6877757
0.16150031
1.5521557
0.11426917
1.4755985
0.070895226
1.3602517
1.3466713
12.466643
49.628895
11.539
45.945073
10.680306
42.551354
9.8851791
39.402961
9.1462102
36.487292
8.4607849
33.790945
7.8303582
31.288876
7.2445306
28.976079
6.6992767
26.83291
6.1901556
24.849285
5.7198701
23.012983
5.2918782
21.307299
4.8931377
19.733054
4.5222403
18.2757
4.1784381
16.92534
3.8604718
15.675691
3.5639729
14.518912
3.2899017
13.449222
3.0367128
12.456048
2.8016423
11.539087
2.5834494
10.690546
2.3807761
9.9040599
2.1936522
9.1755863
2.0196497
8.5008405
1.8577787
7.8767789
1.7083977
7.2986744
1.5696481
6.7634326
1.4398634
6.2675509
1.3191723
5.8079451
1.2072331
5.3825472
1.1035972
4.9883697
1.007312
4.6231458
0.91738099
4.2847975
0.83354005
3.9709423
0.75525473
3.6798319
0.68163413
3.4105586
0.61328552
3.161027
0.55130852
2.9285587
0.49093822
2.7147579
0.43388895
2.5154875
0.38004153
2.3316089
0.33252527
2.1598563
0.28103434
2.0025261
0.23102574
1.859804
0.19296436
1.7262386
0.13961602
1.6053523
0.11271672
1.5020309
0.083731774
1.3895122
1.4310172
10.298792
50.447798
9.5338607
46.711489
8.8293454
43.257231
8.178121
40.057005
7.5722331
37.094802
7.0098547
34.35263
6.4841432
31.814044
5.9999723
29.459775
5.5556795
27.276379
5.141519
25.261968
4.7603843
23.393354
4.4053923
21.66249
4.0758156
20.063295
3.7696125
18.581685
3.4873234
17.207044
3.227578
15.935093
2.9850917
14.761287
2.7598421
13.674892
2.5498342
12.66603
2.355656
11.733379
2.1762332
10.870155
2.0105002
10.069772
1.8562393
9.3301894
1.7119409
8.6448111
1.5784816
8.0102307
1.4547297
7.4225517
1.3400421
6.8786009
1.2331735
6.3742531
1.1339437
5.906911
1.0409598
5.4753458
0.95430001
5.0750442
0.87425529
4.7034696
0.7997673
4.3593561
0.72973447
4.0406912
0.66403716
3.7449742
0.60398145
3.4706949
0.54803228
3.2174449
0.49346299
2.9829088
0.44483518
2.763742
0.39748852
2.5637301
0.34816131
2.3801337
0.30464248
2.2016881
0.27124569
2.0353274
0.22930432
1.9026512
0.19246579
1.7648271
0.1452447
1.6527262
0.081316367
1.5671437
0.0037911326
1.4690269
1.4333106
8.4549895
51.11915
7.8359862
47.328977
7.2626109
43.830518
6.7301496
40.591626
6.234758
37.591607
5.7747691
34.812245
5.3502701
32.238342
4.9598857
29.850031
4.5938264
27.6418
4.2557926
25.598918
3.9426721
23.706018
3.6536858
21.952024
3.3855738
20.331697
3.1386907
18.828101
2.9076962
17.437655
2.6901911
16.152286
2.491576
14.959836
2.3092582
13.857771
2.138448
12.83668
1.9806026
11.891496
1.8343348
11.016489
1.6970788
10.207106
1.5708566
9.4567262
1.4540906
8.7612643
1.3449297
8.1194439
1.2438243
7.5239955
1.1496275
6.9728959
1.0614414
6.4621628
0.97951003
5.9887046
0.9032999
5.5514602
0.83251868
5.1458592
0.76617634
4.7700554
0.70335501
4.4221928
0.64445151
4.0992338
0.58896234
3.8000923
0.53713394
3.5229013
0.48753419
3.2673517
0.44008053
3.0301398
0.39554397
2.8092161
0.35539328
2.6045686
0.31628801
2.4175221
0.27095955
2.2443756
0.20605895
2.099549
0.15870427
1.9490141
0.12090649
1.802948
0.096743286
1.6779211
0.10705939
1.5573537
0.081129382
1.4950179
1.5132435
6.9086004
51.668419
6.4126575
47.825644
5.946621
44.296676
5.5140487
41.025387
5.1130569
37.993433
4.7417136
35.183252
4.3986952
32.581363
4.0807107
30.168002
3.7824191
27.939322
3.5076887
25.872798
3.2545135
23.958849
3.0228967
22.184225
2.8031952
20.55153
2.6011988
19.02989
2.4129976
17.625667
2.2385112
16.3266
2.077193
15.121272
1.9287776
14.006782
1.791333
12.97407
1.6634343
12.019854
1.5445506
11.135332
1.4350546
10.316711
1.3328158
9.5591383
1.2361138
8.8577028
1.1469001
8.2088124
1.0641109
7.6070666
0.98665182
7.0501872
0.91436709
6.5341633
0.84676331
6.0562429
0.78363003
5.614583
0.7248353
5.2047059
0.66964227
4.8253782
0.61817921
4.4735982
0.56921465
4.1477752
0.5236392
3.8455439
0.480003
3.5670038
0.43816735
3.3091523
0.40150497
3.0667151
0.36505841
2.8468063
0.32186471
2.6477815
0.28515022
2.4517838
0.25010457
2.2769081
0.28140207
2.0726932
0.25291815
1.9711651
0.16987438
1.8794114
0.12316116
1.723918
0.0081138307
1.6740329
-0.031137776
1.5330495
1.4808985
5.6174653
52.107869
5.2289288
48.215464
4.8533806
44.672687
4.5088604
41.370325
4.1859908
38.316637
3.8869154
35.482124
3.6108859
32.857443
3.3514675
30.427432
3.1143158
28.175755
2.8949281
26.091271
2.691466
24.162399
2.5017445
22.37454
2.3280481
20.725179
2.1642163
19.193567
2.0130525
17.776558
1.8768669
16.462725
1.7476835
15.250602
1.628934
14.125904
1.5176447
13.085508
1.4143569
12.123566
1.3177116
11.231866
1.2281631
10.406397
1.1453134
9.6420846
1.0678118
8.9350102
0.99621115
8.280648
0.92932115
7.674155
0.86648198
7.1127036
0.80797057
6.5924927
0.75277083
6.1113667
0.70091465
5.6664958
0.65220161
5.2534621
0.6061854
4.8714459
0.56191109
4.517747
0.52048342
4.1888604
0.48171636
3.8844851
0.44595515
3.6031178
0.41103976
3.343758
0.37222608
3.1059588
0.338064
2.8820004
0.31315595
2.6713281
0.27607621
2.4867504
0.225884
2.3289935
0.095539009
2.2268797
0.053123848
2.0185147
0.084708044
1.8331746
0.071238263
1.7337362
0.048862096
1.6963054
0.033901224
1.5485523
1.5191736
0.010466713
1.5091125
-0.0057941742
1.566516
-0.009844692
1.7021742
-0.031831371
1.755166
-0.06214178
1.8692168
-0.06642205
2.0247459
-0.05706199
2.2060421
-0.053034837
2.3248146
-0.068666139
2.5010304
-0.08610172
2.687624
-0.091605603
2.8881892
-0.096174708
3.1110442
-0.10480736
3.3520515
-0.11263993
3.6112216
-0.11868237
3.8909027
-0.12296953
4.1930425
-0.12622259
4.5207849
-0.12940144
4.8745775
-0.13207256
5.2560876
-0.1346892
5.6691685
-0.13736641
6.1139944
-0.13902712
6.5941799
-0.14012146
7.1135109
-0.14117931
7.675352
-0.14169821
8.2814695
-0.14184419
8.9350622
-0.14204659
9.6423341
-0.14180035
10.40625
-0.14125349
11.231223
-0.13966639
12.122103
-0.13764467
13.083803
-0.13589617
14.124214
-0.1328222
15.247662
-0.13255794
16.462349
-0.12797253
17.77151
-0.11807718
19.183197
-0.11165795
20.718537
-0.10629041
22.369635
-0.099144042
24.155436
-0.092074606
26.083348
-0.084228168
28.167289
-0.07653271
30.419527
-0.067353678
32.848209
-0.057379294
35.47204
-0.047787675
38.307033
-0.038216539
41.360508
-0.026975441
44.66244
-0.026939978
48.210515
52.095228
-0.012502145
1.521088
-0.035747717
1.5890236
-0.040017653
1.7080268
-0.051196006
1.7686234
-0.10757473
1.9335682
-0.11118338
2.027687
-0.075219828
2.1566815
-0.082817437
2.3321392
-0.08770205
2.5054607
-0.094616736
2.6932093
-0.10576539
2.8996411
-0.10991868
3.1159219
-0.11543841
3.3569458
-0.1190472
3.614799
-0.12189768
3.8941497
-0.12709593
4.198349
-0.13169099
4.525276
-0.13533961
4.8781303
-0.13873797
5.2593479
-0.14110267
5.6715967
-0.14339114
6.1162772
-0.14550785
6.5964276
-0.14771779
7.1155641
-0.14835332
7.6759957
-0.14837523
8.2817638
-0.14947787
8.936089
-0.14830163
9.6411593
-0.14638393
10.404388
-0.14578795
11.230562
-0.14443287
12.12056
-0.14147435
13.081219
-0.1366901
14.119627
-0.13120503
15.242458
-0.12525175
16.456364
-0.12226347
17.767993
-0.12301909
19.183638
-0.11770626
20.712948
-0.11147381
22.363524
-0.10419855
24.148357
-0.097868557
26.076442
-0.089957601
28.158693
-0.080378504
30.409522
-0.069840436
32.837516
-0.06026041
35.46236
-0.0509527
38.297655
-0.040733827
41.350401
-0.03006096
44.653075
-0.019605012
48.207106
52.089612
0.0101713
1.5106003
-0.0046928971
1.600549
-0.024746776
1.7265804
-0.036730516
1.7804369
-0.033422971
1.9344747
-0.046184245
2.0406701
-0.063911984
2.1709627
-0.072681698
2.3413023
-0.068725454
2.5026762
-0.072982876
2.6965962
-0.078036765
2.9047092
-0.090752577
3.1295375
-0.096089067
3.3618685
-0.10449593
3.6230815
-0.11253056
3.9026026
-0.11579289
4.2020042
-0.11994516
4.5294638
-0.12429885
4.8823959
-0.12797867
5.2628351
-0.130869
5.6745253
-0.13359323
6.1189837
-0.13569583
6.5986105
-0.13688219
7.1166554
-0.13852204
7.6775412
-0.1386404
8.2820767
-0.13762169
8.9349789
-0.13889816
9.6424315
-0.13874983
10.404472
-0.13620642
11.22803
-0.13388954
12.117966
-0.13183062
13.079499
-0.13143471
14.119656
-0.12871367
15.240212
-0.12259976
16.45081
-0.11968263
17.765077
-0.11686607
19.18012
-0.11270672
20.708494
-0.10879332
22.359408
-0.10191406
24.141757
-0.094663682
26.068878
-0.086573907
28.149838
-0.078668218
30.400985
-0.06953425
32.828249
-0.05765349
35.45031
-0.046794366
38.286623
-0.037611881
41.341256
-0.02679963
44.642538
-0.019055679
48.20093
52.075734
0.031625642
1.480274
0.02197597
1.6088194
0.014562463
1.7284933
0.0014041186
1.7914706
-0.015612528
1.957219
-0.022581842
2.04662
-0.029315458
2.1770161
-0.035083799
2.3480916
-0.058592816
2.5282309
-0.07626926
2.7146306
-0.082340808
2.911062
-0.080379235
3.1282704
-0.092876032
3.3742795
-0.098604876
3.628563
-0.10249863
3.906655
-0.10975548
4.2097591
-0.11369292
4.5335782
-0.11742329
4.8860983
-0.12117907
5.2663964
-0.1241409
5.6774733
-0.12674978
6.1215434
-0.12883844
6.6007111
-0.1303861
7.1182028
-0.13067388
7.6777254
-0.13200627
8.2834901
-0.13343849
8.9363719
-0.13200749
9.6408856
-0.13163697
10.404482
-0.13186578
11.228388
-0.13072991
12.116669
-0.12790205
13.07672
-0.12324455
14.115263
-0.12085078
15.238048
-0.12060512
16.45097
-0.11524678
17.759912
-0.11189895
19.176527
-0.10669352
20.703004
-0.10137435
22.353592
-0.097092086
24.137827
-0.092005874
26.063709
-0.084403296
28.141683
-0.075120185
30.391104
-0.067021513
32.819901
-0.056948257
35.440284
-0.045537521
38.275075
-0.036364478
41.332014
-0.025897834
44.631683
-0.013335002
48.186383
52.065123
0.0095125232
1.4710438
0.0049838948
1.6145602
0.023935153
1.7075841
0.0078857863
1.806334
-0.014517399
1.9799644
-0.0048745777
2.0366304
-0.031576741
2.2043067
-0.043867926
2.3616382
-0.043619832
2.5284779
-0.050126152
2.7212761
-0.066219169
2.9273322
-0.082091005
3.1447296
-0.084053137
3.3758161
-0.08956744
3.6337266
-0.095569434
3.9125263
-0.098739922
4.2131546
-0.10493215
4.5400304
-0.10947082
4.8907842
-0.11344476
5.270307
-0.11623662
5.6802797
-0.11839104
6.1237005
-0.12143322
6.6036909
-0.12396795
7.1208062
-0.12530395
7.6790266
-0.12535398
8.2834057
-0.12643124
8.9372981
-0.1282332
9.6423841
-0.1262677
10.402956
-0.12450373
11.226742
-0.12456678
12.116753
-0.12303207
13.074985
-0.12206415
14.114572
-0.1199015
15.236007
-0.1153587
16.446511
-0.11120466
17.755972
-0.10680165
19.171917
-0.10305251
20.698907
-0.098883995
22.348924
-0.092764057
24.131828
-0.086507468
26.057351
-0.079656113
28.134406
-0.07148911
30.382647
-0.0641493
32.812421
-0.056546935
35.432823
-0.046807303
38.265455
-0.035130474
41.320457
-0.027351306
44.624095
-0.014145521
48.174384
52.059112
0.001340301
-0.0062184731
-0.057845974
-0.058649904
-0.0035047224
1.9297397
-0.024141769
2.0575211
-0.049783992
2.2320755
-0.047390764
2.3600779
-0.056174229
2.5379204
-0.062276113
2.7275978
-0.062561853
2.9271063
-0.06438786
3.1463213
-0.070172172
3.3813311
-0.081253542
3.6441727
-0.088743272
3.9196958
-0.094066245
4.2185466
-0.096792006
4.5428818
-0.10148892
4.8956662
-0.10578278
5.2746763
-0.11002311
5.6845963
-0.11375482
6.1275237
-0.11563792
6.6053955
-0.11804221
7.1231559
-0.12099568
7.6818964
-0.12140658
8.2836829
-0.11953035
8.9353041
-0.11975771
9.6421027
-0.12042913
10.404037
-0.11776339
11.224393
-0.11486664
12.113965
-0.11428094
13.074185
-0.11203262
14.112784
-0.11077872
15.235006
-0.11055469
16.446318
-0.10658348
17.752066
-0.10175147
19.166748
-0.098422361
20.695257
-0.094640766
22.344661
-0.088394782
24.125559
-0.0806356
26.04949
-0.075523634
28.128928
-0.068440024
30.375539
-0.060223739
32.803917
-0.052284896
35.42484
-0.044164484
38.2575
-0.034406953
41.311115
-0.026635432
44.61723
-0.011798085
48.16446
52.052136
0.0049064899
-0.0018277234
-0.0077572234
-0.020717256
-0.03524223
-0.045524323
-0.048703002
-0.060954713
-0.076978988
3.3967226
-0.072472314
3.6391289
-0.07785009
3.9244946
-0.08665282
4.2272542
-0.093226812
4.5495518
-0.096750922
4.8992572
-0.10073516
5.2788081
-0.10413433
5.6880657
-0.1063193
6.1298636
-0.10977355
6.6086738
-0.11076161
7.1240428
-0.10940691
7.6805358
-0.11130516
8.2857347
-0.11283648
8.9371184
-0.1114607
9.6402961
-0.11027541
10.4028
-0.11050081
11.225162
-0.10873765
12.112535
-0.10625461
13.07157
-0.10410762
14.1109
-0.10157907
15.232818
-0.09881519
16.443665
-0.098554766
17.751844
-0.095907217
19.163729
-0.092522244
20.691484
-0.088011229
22.339735
-0.082989542
24.120442
-0.077298009
26.043982
-0.071077723
28.122577
-0.064730961
30.369208
-0.057179352
32.795954
-0.04802491
35.415677
-0.039612431
38.249218
-0.032486099
41.304189
-0.025163744
44.610173
-0.013716611
48.156496
52.043759
-0.042044184
-0.065137397
-0.071676717
-0.073609519
-0.079760068
-0.085304431
-0.088680168
-0.091620038
-0.094708438
-0.09549107
-0.097762305
7.1262858
-0.10111685
7.6841982
-0.10229499
8.2871539
-0.10433664
8.9391705
-0.10665106
9.6423977
-0.10621671
10.402059
-0.10490752
11.224034
-0.10434892
12.112323
-0.10311858
13.070245
-0.10062002
14.108376
-0.095945909
15.228513
-0.091546837
16.439507
-0.090697336
17.750945
-0.087663805
19.16037
-0.08264775
20.686097
-0.079128469
22.335802
-0.076656949
24.117868
-0.072995393
26.040494
-0.066747189
28.116404
-0.060335524
30.362938
-0.053963547
32.789346
-0.046214039
35.408101
-0.038393766
38.241691
-0.029636874
41.295482
-0.022467606
44.602962
-0.015279606
48.150855
52.034571
-0.099597755
-0.10024464
-0.097757027
-0.097502242
-0.099424386
-0.099582165
-0.098890083
-0.097373448
-0.096222444
-0.094319882
-0.091453135
-0.088076961
-0.082211446
17.745175
-0.079107248
19.156851
-0.079059217
20.685606
-0.075072981
22.33135
-0.069321771
24.111759
-0.064779256
26.036014
-0.060416735
28.112315
-0.054712049
30.357376
-0.049715742
32.784246
-0.043854043
35.402564
-0.037047594
38.235243
-0.028054392
41.286484
-0.020936361
44.595803
-0.018648533
48.15062
52.025922
-0.078102112
-0.076017848
-0.072751598
-0.068274265
-0.063257125
-0.058066556
-0.053450374
-0.049587601
-0.04502526
-0.039963721
-0.034030399
-0.026047467
-0.019500041
-0.011983454
)
;

boundaryField
{
    Side
    {
        type            empty;
    }
    Inlet
    {
        type            calculated;
        value           nonuniform List<scalar> 
29
(
-68.616549
-66.891836
-64.131095
-60.491295
-56.167549
-51.373405
-46.322048
-41.210149
-36.205316
-31.442479
-27.015541
-22.986881
-19.387233
-16.221433
-13.474642
-11.12263
-9.1279796
-7.4551103
-6.0583356
-0.016374868
-0.006663592
-0.0085185624
-0.004643555
-0.0022054695
-0.00018029039
-0.0037718623
-0.0069831207
-0.012320232
-0.0057264006
)
;
    }
    Airfoil
    {
        type            calculated;
        value           uniform 0;
    }
    Outlet
    {
        type            calculated;
        value           nonuniform List<scalar> 0();
    }
    procBoundary0to1
    {
        type            processor;
        value           nonuniform List<scalar> 
53
(
1.4675531
1.6226853
1.7572401
1.8054487
-0.045273391
1.9647574
2.0639617
2.2394589
2.3737814
2.5549157
2.7397149
2.9309321
3.1579506
0.051277753
3.3868112
3.6621043
3.9305962
4.2287657
4.55558
4.9048352
5.2824533
5.6911857
6.133297
6.6094757
0.094748112
7.1307099
7.6850701
8.28505
8.9385004
9.6440136
10.40234
11.223211
12.11101
13.069045
14.106406
15.226081
16.436791
0.08060822
17.742785