/*--------------------------------*- C++ -*----------------------------------*\
| =========                 |                                                 |
| \\      /  F ield         | OpenFOAM: The Open Source CFD Toolbox           |
|  \\    /   O peration     | Version:  2506                                  |
|   \\  /    A nd           | Website:  www.openfoam.com                      |
|    \\/     M anipulation  |                                                 |
\*---------------------------------------------------------------------------*/
FoamFile
{
    version     2.0;
    format      ascii;
    arch        "LSB;label=32;scalar=64";
    class       volScalarField;
    location    "1.25";
    object      nut;
}
// * * * * * * * * * * * * * * * * * * * * * * * * * * * * * * * * * * * * * //

dimensions      [0 2 -1 0 0 0 0];

internalField   nonuniform List<scalar> 
1376
(
0.025090027
0.025120517
0.025494474
0.02591132
0.02640714
0.026963911
0.02755088
0.028163148
0.028820239
0.029583339
0.030306933
0.027900601
0.028150057
0.028494354
0.028997596
0.029606073
0.030240724
0.030863835
0.031480333
0.03222097
0.032782934
0.031434887
0.031819538
0.032318539
0.032967031
0.033691916
0.034428214
0.035161781
0.035869982
0.036720729
0.037144074
0.037701754
0.03797701
0.038430986
0.039051333
0.039745188
0.040465568
0.041232058
0.041980766
0.042958817
0.043137542
0.049433654
0.049237265
0.049335303
0.049623514
0.049956916
0.050313779
0.050771804
0.051218418
0.052143046
0.051615952
0.065282816
0.064684319
0.064487838
0.06446263
0.064378934
0.064248002
0.064227755
0.064142654
0.064925244
0.063181923
0.082635793
0.081882727
0.08160293
0.081433809
0.081074936
0.080592313
0.080203722
0.079671893
0.079974447
0.077357079
0.10004402
0.099291483
0.099004631
0.098754905
0.098243995
0.097600821
0.097046879
0.096235824
0.096143581
0.092872641
0.11692914
0.11618328
0.11580176
0.11541409
0.11481855
0.11418117
0.11364362
0.11269994
0.11233399
0.10866558
0.13291931
0.13207005
0.13143014
0.13081262
0.1301805
0.12969433
0.1293215
0.12835668
0.12781611
0.12398799
0.1475434
0.14645116
0.1454338
0.14454208
0.14392568
0.14371175
0.1436164
0.14271909
0.14210384
0.13832361
0.16125811
0.16024862
0.15885989
0.15748261
0.15635984
0.15581504
0.15593615
0.15616527
0.15540159
0.15482517
0.15127343
0.17179899
0.17061747
0.16903453
0.16745423
0.16622609
0.16579881
0.16621438
0.16670685
0.16610636
0.16567539
0.16249053
0.17974779
0.17856885
0.17700547
0.17544128
0.17427435
0.17397904
0.17453301
0.17511598
0.17466439
0.17442114
0.17168563
0.18522412
0.18426931
0.18295525
0.18162101
0.18065984
0.18046397
0.18094964
0.18141601
0.18108326
0.18085091
0.17875832
0.18867561
0.18800905
0.18707901
0.1861134
0.18542493
0.18526975
0.18554267
0.18577501
0.18550391
0.18522061
0.1838351
0.1906113
0.19018128
0.18960498
0.18900045
0.18855524
0.18839945
0.18845132
0.18846723
0.18822108
0.18795788
0.18708811
0.19145281
0.19117131
0.19082674
0.19047118
0.19018956
0.19003074
0.18994849
0.18984217
0.1896212
0.18939245
0.18887713
0.19153332
0.19133179
0.19110716
0.19088325
0.1906916
0.19054374
0.19041657
0.19027388
0.19008665
0.18988738
0.18959619
0.19114445
0.19098616
0.19081873
0.19065629
0.19050988
0.19037825
0.19024909
0.19010893
0.18995243
0.18977474
0.18961164
0.1905514
0.19041438
0.19027359
0.19013973
0.19001604
0.18989643
0.18977263
0.18963894
0.18949947
0.18933511
0.18923345
0.18995231
0.18982262
0.18969166
0.18956863
0.18945386
0.18933928
0.18921742
0.18908494
0.18894942
0.18879104
0.18870644
0.18944685
0.18931908
0.18919024
0.18906858
0.18895388
0.18883876
0.18871622
0.1885829
0.1884456
0.18828878
0.18819562
0.18905683
0.18893117
0.18880351
0.18868082
0.18856313
0.18844503
0.18832086
0.18818702
0.18804754
0.18789126
0.1877802
0.18876936
0.18864743
0.18852269
0.18840029
0.18828016
0.18815868
0.18803213
0.18789781
0.18775746
0.18760294
0.18747569
0.18867287
0.18856322
0.18844523
0.18832391
0.18820287
0.18808189
0.1879584
0.18783007
0.18769527
0.18755477
0.18740269
0.18726528
0.18852496
0.18841799
0.1883033
0.18818465
0.18806459
0.18794295
0.18781797
0.18768825
0.18755286
0.18741238
0.18726257
0.18712114
0.18842538
0.18832003
0.18820803
0.18809134
0.18797166
0.18784907
0.18772258
0.18759135
0.18745492
0.1873137
0.18716542
0.18701988
0.18836068
0.18825513
0.18814438
0.18802958
0.1879114
0.18778911
0.18766187
0.18752961
0.18739235
0.18725022
0.18710204
0.18695446
0.18831344
0.18820871
0.18809927
0.18798573
0.18786837
0.18774687
0.18762078
0.18749011
0.18735426
0.18721285
0.18706554
0.18691625
0.18828017
0.18817603
0.1880677
0.18795536
0.18783879
0.18771796
0.18759273
0.18746337
0.18732914
0.18718979
0.18704495
0.18689595
0.18836098
0.18826038
0.18815651
0.18804846
0.18793654
0.18782072
0.187701
0.18757734
0.18744938
0.1873165
0.18717904
0.1870368
0.18688929
0.18835251
0.18825179
0.18814717
0.18803919
0.18792793
0.18781314
0.18769419
0.18757133
0.18744455
0.18731361
0.18717843
0.18703858
0.18689301
0.18834467
0.18824558
0.18814234
0.18803557
0.18792517
0.18781128
0.18769338
0.18757133
0.18744507
0.18731494
0.18718101
0.18704288
0.18689905
0.1884383
0.18834396
0.18824577
0.18814338
0.18803747
0.18792816
0.18781536
0.18769854
0.18757764
0.18745287
0.18732429
0.18719177
0.18705518
0.18691288
0.18844127
0.1883478
0.18825043
0.18814912
0.18804418
0.1879358
0.18782417
0.18770885
0.1875896
0.18746657
0.18733977
0.18720889
0.18707405
0.18693345
0.188451
0.18835822
0.18826247
0.18816296
0.18805924
0.1879518
0.18784086
0.1877269
0.18760956
0.18748847
0.18736341
0.18723417
0.18710131
0.18696271
0.18855747
0.18846838
0.18837655
0.18828166
0.18818331
0.18808105
0.18797515
0.18786589
0.18775344
0.18763741
0.18751768
0.18739404
0.18726654
0.18713574
0.18699939
0.18858506
0.18849764
0.18840694
0.18831253
0.18821444
0.18811299
0.18800843
0.18790085
0.18778989
0.1876752
0.18755658
0.18743438
0.18730875
0.18718024
0.18704613
0.18870729
0.18862346
0.18853647
0.18844635
0.18835303
0.18825655
0.18815696
0.18805417
0.187948
0.18783823
0.18772494
0.18760815
0.18748809
0.18736468
0.18723836
0.18710598
0.1888404
0.18876031
0.18867733
0.18859129
0.18850217
0.18841002
0.18831485
0.18821657
0.18811515
0.18801044
0.18790227
0.18779083
0.18767578
0.18755765
0.18743619
0.187312
0.18718173
0.18891204
0.18883265
0.18875058
0.18866571
0.188578
0.18848747
0.18839399
0.18829742
0.18819762
0.18809457
0.18798816
0.18787847
0.18776552
0.18764942
0.18752988
0.18740766
0.18727929
0.18908436
0.18900835
0.18892994
0.18884917
0.18876592
0.18867992
0.18859107
0.18849927
0.18840438
0.18830629
0.18820501
0.18810066
0.18799308
0.1878825
0.18776856
0.18765133
0.18753149
0.18740535
0.18928598
0.18921319
0.18913833
0.18906127
0.18898182
0.18889995
0.18881549
0.18872836
0.18863843
0.18854559
0.18844977
0.18835094
0.18824901
0.18814396
0.1880357
0.18792424
0.1878096
0.18769242
0.18756855
0.18952909
0.18945904
0.18938704
0.18931302
0.18923697
0.18915874
0.18907823
0.18899537
0.18891004
0.18882222
0.18873178
0.18863858
0.18854259
0.18844371
0.18834188
0.18823701
0.18812906
0.18801776
0.18790411
0.18778348
0.18989975
0.18983362
0.18976579
0.18969621
0.18962481
0.18955152
0.18947631
0.18939911
0.18931986
0.1892385
0.18915496
0.1890692
0.18898115
0.18889075
0.18879785
0.18870237
0.18860421
0.18850331
0.18839956
0.18829265
0.18818357
0.1880675
0.19029633
0.19023164
0.19016545
0.1900977
0.19002838
0.18995742
0.18988478
0.18981041
0.18973425
0.18965624
0.18957639
0.18949463
0.18941095
0.18932535
0.18923774
0.18914806
0.18905623
0.18896215
0.18886573
0.18876693
0.18866542
0.18856207
0.18845165
0.19091593
0.19085263
0.19078803
0.19072212
0.19065488
0.1905863
0.1905163
0.19044489
0.19037196
0.19029753
0.19022159
0.19014408
0.19006503
0.18998449
0.18990231
0.18981844
0.18973286
0.1896455
0.18955619
0.18946487
0.18937155
0.18927624
0.18917904
0.18907995
0.18897823
0.19139615
0.19131557
0.19123271
0.19114753
0.19105991
0.19096987
0.1908774
0.19078267
0.19068604
0.19058787
0.1904884
0.19038779
0.19028618
0.19018338
0.19007863
0.18997078
0.18985887
0.18974245
0.1896214
0.18949605
0.18936693
0.189235
0.18910125
0.18896697
0.18882909
0.18869909
0.18851014
0.031117016
0.033838666
0.038597123
0.045140036
0.054191903
0.066183043
0.080612576
0.096170264
0.11182907
0.12689744
0.14089161
0.15341541
0.1641647
0.17295215
0.17964511
0.18435478
0.1873003
0.18885825
0.1894239
0.1893563
0.18895222
0.188436
0.18795064
0.18756146
0.18727912
0.18708523
0.18695129
0.18686547
0.18680383
0.18676932
0.18675312
0.18675027
0.18675666
0.18676556
0.18678203
0.1868052
0.18683717
0.18687663
0.18692587
0.18698796
0.18706638
0.18716612
0.18729434
0.18745987
0.18767764
0.18796533
0.18835464
0.18888038
0.18836098
0.031824584
0.034820203
0.040033828
0.047197422
0.056935748
0.069512523
0.084269561
0.099934864
0.11551607
0.13035762
0.1439952
0.15605358
0.16629814
0.17458678
0.18075218
0.18497664
0.18754579
0.1888397
0.18924241
0.1890945
0.18867065
0.18817013
0.1877136
0.1873532
0.18709412
0.18691565
0.18679516
0.18672533
0.18666351
0.18663478
0.1866224
0.18662283
0.18663169
0.18664358
0.1866628
0.18668861
0.18672301
0.1867649
0.18681637
0.1868805
0.18696102
0.18706252
0.18719232
0.18735943
0.18757891
0.18786892
0.18826197
0.18878468
0.18820808
0.032495273
0.035758068
0.041453898
0.049272515
0.059740965
0.072951571
0.088086052
0.10389927
0.11942732
0.13403698
0.14728412
0.15883525
0.16853425
0.17623267
0.1818148
0.18554384
0.18774085
0.188783
0.1890374
0.18882192
0.18838634
0.18790508
0.18747894
0.18714812
0.18691114
0.18674624
0.18664758
0.18658255
0.18652449
0.1865013
0.18649268
0.186496
0.18650732
0.18652233
0.18654433
0.18657291
0.1866096
0.18665368
0.18670747
0.18677382
0.18685633
0.18695956
0.18709088
0.18725948
0.1874804
0.18777234
0.18816866
0.18868767
0.18804788
0.03320476
0.036740638
0.042937193
0.051423206
0.062619934
0.076446817
0.091952035
0.10789978
0.12334967
0.13768857
0.15050137
0.16150874
0.17063302
0.17770521
0.18272421
0.18599707
0.18786029
0.18868291
0.18881294
0.18854518
0.1881055
0.18764608
0.18725065
0.18694787
0.18672987
0.18658398
0.18650451
0.18643701
0.18638679
0.18636875
0.18636387
0.18637001
0.18638368
0.18640187
0.18642658
0.18645771
0.1864966
0.186543
0.18659919
0.18666772
0.18675206
0.18685715
0.18698996
0.18715992
0.18738205
0.18767546
0.18807466
0.18858934
0.18788038
0.033980457
0.037828943
0.044551298
0.053707687
0.065603351
0.079988202
0.095805574
0.1118267
0.12713802
0.14115333
0.15349594
0.16394414
0.17249522
0.17895983
0.18346649
0.18633537
0.1879093
0.18854631
0.18857513
0.18826882
0.18783151
0.18739595
0.1870305
0.18675246
0.18655123
0.18643155
0.18635839
0.18629224
0.18625037
0.18623723
0.18623601
0.18624486
0.18626085
0.18628204
0.1863094
0.1863431
0.18638411
0.1864327
0.18649124
0.186562
0.18664826
0.18675524
0.18688955
0.18706071
0.18728377
0.18757835
0.18798002
0.18848976
0.18770676
0.03478501
0.03899912
0.046272116
0.056093026
0.068642699
0.083508543
0.099554159
0.115568
0.13067418
0.14432365
0.15618368
0.16608692
0.17409815
0.18000807
0.18406103
0.18657752
0.18790239
0.18838263
0.18832933
0.18799568
0.18756608
0.1871556
0.18681762
0.18655975
0.18638005
0.18628499
0.1862081
0.18614902
0.18611547
0.18610689
0.18610909
0.18612057
0.1861389
0.18616298
0.18619288
0.18622895
0.18627206
0.18632283
0.18638361
0.18645668
0.18654497
0.18665378
0.18678954
0.18696183
0.18718561
0.18748099
0.18788468
0.18838909
0.18752899
0.035550525
0.040156572
0.047979459
0.058435159
0.071577075
0.086840732
0.10303087
0.11896724
0.13382389
0.14709698
0.15849753
0.16790377
0.17543545
0.18086553
0.18452815
0.18674213
0.18785326
0.18820032
0.18808002
0.18772793
0.18731017
0.18692469
0.18661048
0.1863708
0.18621967
0.18613524
0.1860578
0.18600756
0.18598202
0.18597771
0.18598303
0.18599703
0.18601775
0.18604453
0.1860769
0.18611518
0.18616026
0.18621329
0.18627646
0.1863516
0.18644199
0.18655272
0.18668983
0.18686323
0.18708755
0.1873834
0.18778875
0.18828748
0.18734934
0.036226206
0.041199313
0.049527456
0.060551432
0.074201842
0.089778067
0.10604373
0.12186088
0.1364608
0.14938688
0.16038784
0.16937494
0.17650575
0.18154399
0.18488262
0.18684233
0.18777166
0.1880057
0.18783091
0.18746759
0.18706448
0.18670243
0.18640784
0.18618839
0.18606783
0.18598192
0.18590921
0.18586799
0.18584993
0.18584956
0.18585777
0.18587421
0.1858973
0.18592652
0.1859611
0.18600152
0.18604883
0.18610415
0.18616958
0.18624685
0.18633914
0.1864517
0.18659037
0.1867648
0.18698957
0.18728573
0.18769232
0.18818495
0.18716918
0.036811737
0.0420843
0.050841804
0.062342057
0.076402405
0.092208395
0.10849922
0.12418381
0.13855027
0.15118472
0.16186421
0.17052015
0.17732993
0.18206167
0.18513731
0.18688624
0.1876628
0.18780238
0.18758451
0.18721605
0.18682888
0.18648726
0.18621009
0.18601888
0.18591835
0.18582711
0.18576334
0.1857304
0.18571897
0.18572225
0.18573322
0.18575199
0.18577734
0.18580877
0.18584546
0.18588804
0.1859376
0.18599527
0.18606278
0.18614214
0.18623653
0.18635078
0.18649091
0.1866664
0.18689168
0.18718815
0.1875955
0.18808147
0.18698743
0.037365485
0.042863038
0.05198073
0.063873072
0.07825175
0.094214757
0.11049375
0.12604464
0.14020629
0.15259991
0.16302209
0.17141482
0.17796235
0.18244984
0.18530737
0.18687964
0.18752854
0.18759111
0.18734114
0.18697289
0.18660188
0.18627787
0.18601892
0.18586166
0.18576642
0.18567499
0.18562051
0.18559469
0.18558891
0.1855956
0.18560926
0.18563029
0.18565779
0.18569135
0.18573012
0.18577485
0.18582658
0.18588644
0.18595601
0.18603742
0.18613387
0.1862498
0.18639148
0.18656803
0.18679383
0.18709069
0.18749843
0.18797677
0.18680071
0.0379803
0.043667405
0.053121275
0.065363077
0.079998991
0.096063376
0.1122971
0.12770333
0.14166608
0.15383507
0.16402144
0.17217445
0.1784819
0.18274982
0.18541162
0.18682884
0.18736977
0.18737107
0.18709932
0.18673562
0.18637964
0.18607119
0.18583849
0.18571146
0.18561182
0.18552649
0.18548057
0.18546081
0.18545975
0.18546963
0.18548595
0.18550917
0.18553873
0.18557427
0.18561507
0.18566194
0.18571584
0.18577773
0.18584934
0.18593274
0.18603104
0.1861487
0.18629199
0.18646968
0.186696
0.1869933
0.1874012
0.18787078
0.18660551
0.038727855
0.04464128
0.054469222
0.067075866
0.081954867
0.098090755
0.11424829
0.12948089
0.14321336
0.15512447
0.16504198
0.17292582
0.17897436
0.18300678
0.18547275
0.18674355
0.18718958
0.18714227
0.18685729
0.186501
0.18615882
0.18586774
0.18567007
0.18556084
0.18545575
0.18538138
0.18534312
0.18532869
0.18533156
0.18534432
0.18536318
0.18538857
0.18542017
0.18545764
0.18550041
0.18554929
0.18560526
0.18566914
0.18574265
0.18582809
0.18592828
0.1860476
0.18619245
0.18637128
0.18659818
0.186896
0.18730377
0.18776341
0.18639884
0.13163117
0.14507686
0.15665935
0.16623068
0.17377446
0.17951668
0.18326466
0.18551643
0.18663798
0.18699504
0.18690737
0.18661493
0.18626737
0.18593846
0.18566927
0.18551104
0.18540439
0.1853015
0.18523875
0.18520753
0.18519804
0.18520432
0.18521968
0.18524091
0.18526838
0.18530194
0.18534129
0.18538592
0.18543665
0.18549463
0.18556067
0.18563632
0.18572365
0.18582559
0.18594655
0.18609284
0.1862728
0.18650033
0.18679867
0.18720612
0.18765467
0.18617989
0.18603449
0.18571945
0.18548262
0.18535576
0.18524297
0.18514991
0.18509797
0.18507338
0.18506853
0.18507784
0.18509555
0.18511899
0.18514841
0.18518379
0.18522496
0.18527148
0.18532416
0.1853843
0.18545263
0.18553024
0.18561931
0.18572294
0.18584554
0.18599321
0.18617425
0.18640234
0.1867012
0.18710804
0.18754465
0.18595063
0.18493997
0.18495207
0.18497188
0.18499732
0.18502859
0.18506573
0.18510869
0.18515723
0.18521205
0.18527429
0.18534463
0.18542424
0.18551518
0.18562046
0.18574463
0.18589355
0.18607556
0.1863042
0.18660352
0.18700946
0.18743344
0.18571176
0.18504317
0.1851001
0.18516436
0.18523669
0.18531839
0.18541129
0.18551824
0.18564382
0.18579387
0.18597674
0.18620588
0.18650557
0.18691056
0.18732107
0.1854228
0.18521264
0.18530749
0.18541616
0.18554311
0.18569422
0.18587785
0.18610738
0.18640737
0.18681126
0.18720774
0.18511796
0.18559461
0.18577891
0.18600876
0.18630891
0.18671138
0.18709394
0.18489811
0.18591006
0.18621025
0.18661103
0.18697985
0.18467452
0.18651035
0.18686519
0.18443542
0.18417692
)
;

boundaryField
{
    Side
    {
        type            empty;
    }
    Inlet
    {
        type            calculated;
        value           nonuniform List<scalar> 
48
(
0.19921538
0.19921523
0.19921467
0.19921477
0.19921473
0.19921485
0.19921648
0.19921972
0.19922013
0.19921907
0.19921716
0.19921469
0.19921069
0.19920452
0.1991969
0.19919153
0.1991903
0.19919045
0.19919039
0.19919059
0.1991924
0.19919437
0.19919434
0.19919323
0.19919038
0.1991885
0.19918964
0.1991928
0.19919791
0.19920504
0.19921346
0.19922114
0.19922748
0.19923307
0.19923901
0.19924562
0.19924869
0.19924797
0.19924833
0.1992507
0.19925581
0.19926263
0.19927106
0.19928251
0.19929728
0.19930623
0.19930731
0.19930865
)
;
    }
    Airfoil
    {
        type            nutkWallFunction;
        blending        stepwise;
        value           nonuniform List<scalar> 0();
    }
    Outlet
    {
        type            calculated;
        value           nonuniform List<scalar> 0();
    }
    procBoundary10to2
    {
        type            processor;
        value           uniform 0.024642299;
    }
    procBoundary10to3
    {
        type            processor;
        value           nonuniform List<scalar> 
23
(
0.03030951
0.029562575
0.028737897
0.028034909
0.027465702
0.027014471
0.026598393
0.026137025
0.025612944
0.025612944
0.027810898
0.031112908
0.031827886
0.032536873
0.033290386
0.034076892
0.034841824
0.035535251
0.036147054
0.036716761
0.037318736
0.038021395
0.038836452
)
;
    }
    procBoundary10to9
    {
        type            processor;
        value           nonuniform List<scalar> 
66
(
0.024708203
0.027585021
0.030982882
0.037437439
0.049785015
0.066183447
0.083790864
0.1011962
0.11794031
0.13379653
0.14841165
0.14841165
0.1609386
0.17169693
0.17991692
0.1855397
0.18900941
0.19089247
0.19167383
0.19170781
0.1912855
0.19067434
0.19006981
0.18956363
0.18917238
0.18888207
0.18888207
0.18877324
0.18862428
0.18852473
0.18846048
0.18841328
0.18838069
0.18838069
0.18845871
0.18844849
0.18843968
0.18843968
0.18852905
0.18853133
0.18854124
0.18854124
0.18864387
0.18866966
0.18866966
0.1887883
0.1887883
0.18891785
0.18898892
0.18898892
0.18915797
0.18915797
0.1893567
0.1893567
0.18966357
0.18959726
0.18959726
0.18996424
0.18996424
0.19042134
0.19035955
0.19035955
0.19103874
0.19097794
0.19097794
0.19147452
)
;
    }
    procBoundary10to11
    {
        type            processor;
        value           nonuniform List<scalar> 
58
(
0.039612783
0.045852109
0.056137835
0.069173124
0.084331649
0.10054707
0.11661175
0.11661175
0.13425253
0.14736037
0.1585361
0.16767035
0.17478552
0.18015033
0.18355677
0.18556598
0.18652792
0.18679604
0.18667165
0.18637403
0.18637403
0.18580501
0.18550761
0.18531014
0.18519801
0.18508083
0.18500119
0.18495873
0.1849404
0.1849404
0.18481218
0.18482694
0.18484874
0.18487602
0.18490901
0.18494786
0.18499263
0.18499263
0.18492937
0.18498833
0.18505456
0.18512893
0.18512893
0.18510691
0.18520378
0.18531424
0.18544255
0.18544255
0.18549516
0.18568007
0.18568007
0.18581139
0.18611148
0.18611148
0.18640949
0.18674967
0.18674967
0.18389855
)
;
    }
}


// ************************************************************************* //
