/*--------------------------------*- C++ -*----------------------------------*\
| =========                 |                                                 |
| \\      /  F ield         | OpenFOAM: The Open Source CFD Toolbox           |
|  \\    /   O peration     | Version:  2506                                  |
|   \\  /    A nd           | Website:  www.openfoam.com                      |
|    \\/     M anipulation  |                                                 |
\*---------------------------------------------------------------------------*/
FoamFile
{
    version     2.0;
    format      ascii;
    arch        "LSB;label=32;scalar=64";
    class       volScalarField;
    location    "0.0185";
    object      p;
}
// * * * * * * * * * * * * * * * * * * * * * * * * * * * * * * * * * * * * * //

dimensions      [1 -1 -2 0 0 0 0];

internalField   nonuniform List<scalar> 
13761
(
44132.126
44088.98
44048.54
44010.684
43975.289
43942.229
43911.376
43882.61
43855.814
43830.874
43807.68
43786.125
43766.105
43747.525
43730.291
43714.316
43699.522
43685.832
43673.177
43661.484
43650.705
43640.806
43631.76
43623.574
43616.477
43610.376
43605.082
43600.579
43596.826
43593.763
43591.329
43589.462
43588.103
43587.183
43586.623
43586.33
43586.211
43586.177
44802.782
44741.376
44683.138
44628.028
44575.977
44526.898
44480.691
44437.25
44396.471
44358.243
44322.455
44288.99
44257.729
44228.552
44201.347
44176.003
44152.413
44130.47
44110.074
44091.126
44073.532
44057.204
44042.056
44028.012
44014.999
44002.953
43991.818
43981.54
43972.096
43963.489
43955.726
43948.751
43942.552
43937.349
43933.063
43929.506
43926.604
43924.307
43922.559
43921.298
43920.457
43919.954
43919.7
43919.606
43919.596
45083.83
45026.245
44971.643
44919.979
44871.183
44825.172
44781.849
44741.117
44702.879
44667.032
44633.47
44602.085
44572.764
44545.396
44519.875
44496.099
44473.966
44453.381
44434.248
44416.476
44399.98
44384.678
44370.492
44357.354
44345.195
44333.953
44323.564
44313.984
44305.179
44297.113
44289.774
44283.393
44277.989
44273.328
44269.327
44266.004
44263.316
44261.203
44259.607
44258.467
44257.717
44257.278
44257.065
44256.998
44257.013
45361.224
45307.517
45256.577
45208.37
45162.838
45119.903
45079.478
45041.475
45005.804
44972.369
44941.073
44911.812
44884.482
44858.978
44835.199
44813.051
44792.438
44773.269
44755.455
44738.907
44723.545
44709.289
44696.066
44683.807
44672.45
44661.94
44652.225
44643.259
44635.014
44627.483
44620.67
44614.572
44609.27
44604.796
44601.046
44597.935
44595.423
44593.462
44591.996
44590.965
44590.296
44589.916
44589.743
44589.701
44589.738
45634.026
45584.186
45536.932
45492.226
45450.003
45410.188
45372.699
45337.456
45304.375
45273.368
45244.345
45217.207
45191.859
45168.202
45146.146
45125.602
45106.482
45088.703
45072.181
45056.838
45042.599
45029.393
45017.153
45005.819
44995.332
44985.639
44976.683
44968.424
44960.833
44953.88
44947.554
44941.929
44937.107
44933.023
44929.578
44926.726
44924.43
44922.645
44921.319
44920.394
44919.805
44919.479
44919.341
44919.322
44919.382
45949.416
45901.011
45855.002
45811.372
45770.088
45731.095
45694.326
45659.711
45627.173
45596.639
45568.026
45541.248
45516.215
45492.835
45471.02
45450.683
45431.742
45414.118
45397.731
45382.503
45368.359
45355.229
45343.046
45331.745
45321.271
45311.568
45302.589
45294.29
45286.631
45279.583
45273.139
45267.296
45262.137
45257.733
45253.991
45250.816
45248.191
45246.088
45244.465
45243.271
45242.448
45241.934
45241.659
45241.555
45241.557
45241.636
46206.037
46161.554
46119.271
46079.184
46041.262
46005.445
45971.669
45939.868
45909.975
45881.922
45855.633
45831.028
45808.025
45786.54
45766.492
45747.802
45730.396
45714.2
45699.142
45685.151
45672.159
45660.103
45648.922
45638.561
45628.967
45620.092
45611.891
45604.315
45597.329
45590.909
45585.032
45579.689
45574.864
45570.682
45567.199
45564.297
45561.904
45559.989
45558.52
45557.449
45556.72
45556.274
45556.046
45555.971
45555.994
45556.089
46498.015
46455.319
46414.639
46375.981
46339.328
46304.643
46271.878
46240.976
46211.884
46184.542
46158.886
46134.847
46112.35
46091.319
46071.676
46053.348
46036.263
46020.353
46005.549
45991.785
45978.996
45967.117
45956.09
45945.858
45936.369
45927.573
45919.425
45911.887
45904.921
45898.491
45892.575
45887.163
45882.249
45877.913
45874.221
45871.095
45868.458
45866.287
45864.56
45863.244
45862.292
45861.654
45861.272
45861.086
45861.039
45861.079
45861.189
46735.664
46696.843
46659.838
46624.659
46591.3
46559.735
46529.916
46501.79
46475.309
46450.418
46427.06
46405.172
46384.685
46365.53
46347.639
46330.943
46315.379
46300.886
46287.401
46274.864
46263.214
46252.396
46242.357
46233.047
46224.419
46216.431
46209.043
46202.217
46195.914
46190.102
46184.76
46179.873
46175.429
46171.392
46167.883
46164.997
46162.61
46160.65
46159.095
46157.917
46157.074
46156.517
46156.192
46156.046
46156.023
46156.079
46156.202
47001.988
46965.203
46930.033
46896.514
46864.66
46834.454
46805.861
46778.837
46753.344
46729.341
46706.782
46685.614
46665.779
46647.213
46629.853
46613.639
46598.508
46584.404
46571.271
46559.051
46547.689
46537.13
46527.323
46518.219
46509.772
46501.937
46494.675
46487.949
46481.725
46475.975
46470.669
46465.787
46461.32
46457.265
46453.674
46450.612
46448.043
46445.897
46444.14
46442.754
46441.71
46440.971
46440.49
46440.22
46440.109
46440.107
46440.177
46440.31
47253.611
47219.109
47186.017
47154.38
47124.221
47095.54
47068.327
47042.558
47018.201
46995.223
46973.586
46953.248
46934.159
46916.267
46899.516
46883.85
46869.215
46855.557
46842.825
46830.968
46819.935
46809.676
46800.142
46791.288
46783.07
46775.449
46768.386
46761.846
46755.799
46750.213
46745.057
46740.302
46735.933
46731.938
46728.306
46725.011
46722.148
46719.804
46717.883
46716.317
46715.085
46714.164
46713.519
46713.108
46712.886
46712.806
46712.824
46712.905
46713.047
47490.681
47458.637
47427.781
47398.166
47369.831
47342.809
47317.112
47292.727
47269.628
47247.783
47227.168
47207.751
47189.499
47172.366
47156.306
47141.268
47127.203
47114.063
47101.801
47090.369
47079.722
47069.815
47060.601
47052.038
47044.083
47036.698
47029.844
47023.487
47017.595
47012.137
47007.088
47002.423
46998.119
46994.16
46990.537
46987.25
46984.339
46981.863
46979.801
46978.094
46976.705
46975.62
46974.815
46974.259
46973.912
46973.734
46973.682
46973.717
46973.808
46973.956
47683.164
47654.698
47627.275
47600.943
47575.752
47551.725
47528.857
47507.133
47486.539
47467.059
47448.676
47431.36
47415.078
47399.789
47385.45
47372.019
47359.453
47347.71
47336.75
47326.53
47317.01
47308.15
47299.908
47292.247
47285.131
47278.524
47272.396
47266.717
47261.458
47256.595
47252.104
47247.961
47244.139
47240.629
47237.422
47234.508
47231.869
47229.581
47227.718
47226.207
47224.984
47224.033
47223.334
47222.857
47222.568
47222.43
47222.403
47222.453
47222.551
47222.704
47892.953
47867.084
47842.036
47817.871
47794.651
47772.414
47751.177
47730.949
47711.726
47693.498
47676.249
47659.961
47644.61
47630.168
47616.602
47603.876
47591.952
47580.794
47570.366
47560.631
47551.553
47543.095
47535.221
47527.896
47521.086
47514.757
47508.881
47503.426
47498.366
47493.675
47489.329
47485.308
47481.594
47478.168
47475.017
47472.135
47469.521
47467.207
47465.25
47463.636
47462.31
47461.24
47460.413
47459.812
47459.409
47459.173
47459.07
47459.065
47459.127
47459.232
47459.387
48088.115
48064.884
48042.276
48020.36
47999.204
47978.858
47959.361
47940.734
47922.976
47906.081
47890.042
47874.855
47860.511
47846.99
47834.265
47822.305
47811.079
47800.556
47790.705
47781.495
47772.895
47764.871
47757.394
47750.431
47743.952
47737.926
47732.326
47727.127
47722.302
47717.829
47713.687
47709.856
47706.319
47703.056
47700.048
47697.285
47694.763
47692.474
47690.41
47688.625
47687.183
47686.027
47685.1
47684.389
47683.878
47683.542
47683.353
47683.282
47683.297
47683.369
47683.478
47683.635
48268.353
48247.919
48227.916
48208.414
48189.482
48171.185
48153.576
48136.686
48120.524
48105.094
48090.405
48076.459
48063.253
48050.771
48038.995
48027.901
48017.467
48007.668
47998.479
47989.874
47981.827
47974.309
47967.293
47960.751
47954.658
47948.985
47943.707
47938.801
47934.243
47930.01
47926.082
47922.439
47919.064
47915.942
47913.058
47910.397
47907.951
47905.715
47903.69
47901.894
47900.38
47899.167
47898.187
47897.394
47896.79
47896.362
47896.089
47895.944
47895.902
47895.934
47896.015
47896.127
47896.285
48434.527
48416.976
48399.643
48382.613
48365.963
48349.767
48334.089
48318.972
48304.442
48290.521
48277.225
48264.558
48252.522
48241.114
48230.327
48220.15
48210.564
48201.549
48193.083
48185.144
48177.709
48170.755
48164.26
48158.197
48152.546
48147.28
48142.379
48137.819
48133.581
48129.644
48125.99
48122.601
48119.464
48116.562
48113.884
48111.415
48109.139
48107.052
48105.149
48103.424
48101.873
48100.533
48099.489
48098.68
48098.031
48097.542
48097.203
48096.995
48096.896
48096.882
48096.932
48097.021
48097.136
48097.293
48586.612
48571.936
48557.273
48542.729
48528.388
48514.329
48500.628
48487.343
48474.517
48462.181
48450.354
48439.042
48428.256
48418.005
48408.292
48399.107
48390.436
48382.263
48374.572
48367.347
48360.572
48354.227
48348.295
48342.754
48337.584
48332.764
48328.275
48324.097
48320.211
48316.599
48313.245
48310.131
48307.242
48304.565
48302.086
48299.795
48297.68
48295.731
48293.94
48292.305
48290.828
48289.524
48288.437
48287.584
48286.912
48286.378
48285.981
48285.713
48285.557
48285.493
48285.501
48285.562
48285.655
48285.77
48285.923
48725.044
48713.339
48701.449
48689.489
48677.56
48665.747
48654.126
48642.761
48631.704
48620.991
48610.647
48600.693
48591.152
48582.043
48573.373
48565.143
48557.346
48549.977
48543.028
48536.487
48530.341
48524.576
48519.176
48514.125
48509.404
48504.999
48500.891
48497.064
48493.501
48490.187
48487.106
48484.245
48481.59
48479.129
48476.851
48474.746
48472.805
48471.018
48469.373
48467.865
48466.494
48465.256
48464.149
48463.195
48462.447
48461.883
48461.447
48461.129
48460.919
48460.804
48460.768
48460.792
48460.86
48460.955
48461.067
48461.213
48841.919
48832.822
48823.445
48813.903
48804.292
48794.691
48785.173
48775.813
48766.666
48757.773
48749.169
48740.884
48732.936
48725.338
48718.098
48711.22
48704.703
48698.539
48692.72
48687.236
48682.077
48677.233
48672.693
48668.444
48664.472
48660.762
48657.302
48654.076
48651.071
48648.275
48645.674
48643.258
48641.015
48638.934
48637.006
48635.22
48633.571
48632.05
48630.648
48629.362
48628.189
48627.133
48626.202
48625.433
48624.838
48624.38
48624.027
48623.775
48623.615
48623.536
48623.522
48623.559
48623.631
48623.725
48623.834
48623.973
48957.777
48951.468
48944.682
48937.536
48930.151
48922.626
48915.051
48907.508
48900.051
48892.723
48885.56
48878.594
48871.846
48865.34
48859.096
48853.129
48847.442
48842.033
48836.902
48832.048
48827.467
48823.155
48819.103
48815.303
48811.744
48808.413
48805.3
48802.393
48799.681
48797.153
48794.8
48792.611
48790.576
48788.688
48786.937
48785.316
48783.819
48782.439
48781.169
48780.001
48778.932
48777.962
48777.088
48776.313
48775.645
48775.125
48774.746
48774.466
48774.271
48774.154
48774.103
48774.107
48774.152
48774.227
48774.32
48774.423
48774.554
49061.782
49058.344
49054.24
49049.56
49044.447
49039.036
49033.422
49027.674
49021.846
49015.993
49010.172
49004.431
48998.809
48993.341
48988.058
48982.977
48978.105
48973.45
48969.015
48964.805
48960.818
48957.049
48953.495
48950.15
48947.008
48944.06
48941.299
48938.715
48936.299
48934.044
48931.941
48929.982
48928.159
48926.464
48924.89
48923.429
48922.075
48920.821
48919.664
48918.597
48917.615
48916.714
48915.895
48915.159
48914.515
48913.989
48913.589
48913.29
48913.07
48912.922
48912.838
48912.811
48912.828
48912.88
48912.955
48913.044
48913.142
48913.264
49154.51
49153.767
49152.283
49150.053
49147.194
49143.853
49140.151
49136.167
49131.968
49127.623
49123.204
49118.767
49114.355
49110.004
49105.744
49101.595
49097.573
49093.693
49089.965
49086.396
49082.99
49079.749
49076.676
49073.771
49071.033
49068.456
49066.036
49063.764
49061.634
49059.641
49057.777
49056.038
49054.416
49052.906
49051.502
49050.197
49048.986
49047.864
49046.828
49045.874
49044.996
49044.19
49043.453
49042.785
49042.187
49041.66
49041.208
49040.858
49040.614
49040.446
49040.338
49040.283
49040.273
49040.301
49040.356
49040.431
49040.516
49040.608
49040.721
49236.687
49238.702
49239.684
49239.842
49239.247
49238.025
49236.293
49234.149
49231.657
49228.886
49225.899
49222.765
49219.544
49216.278
49213.002
49209.745
49206.536
49203.398
49200.347
49197.398
49194.56
49191.842
49189.252
49186.79
49184.458
49182.252
49180.169
49178.205
49176.357
49174.621
49172.993
49171.469
49170.046
49168.717
49167.48
49166.327
49165.255
49164.258
49163.333
49162.477
49161.687
49160.959
49160.289
49159.676
49159.12
49158.623
49158.191
49157.844
49157.588
49157.404
49157.277
49157.199
49157.166
49157.17
49157.205
49157.262
49157.334
49157.414
49157.499
49157.603
49308.367
49313.355
49317.059
49319.597
49321.198
49322.03
49322.227
49321.893
49321.089
49319.847
49318.246
49316.37
49314.303
49312.098
49309.79
49307.414
49305.01
49302.61
49300.236
49297.906
49295.637
49293.44
49291.322
49289.287
49287.339
49285.483
49283.718
49282.047
49280.468
49278.978
49277.575
49276.258
49275.023
49273.867
49272.788
49271.78
49270.841
49269.966
49269.152
49268.397
49267.7
49267.058
49266.468
49265.926
49265.432
49264.987
49264.59
49264.243
49263.948
49263.725
49263.578
49263.486
49263.435
49263.419
49263.434
49263.474
49263.531
49263.6
49263.674
49263.753
49263.848
49370.229
49378.061
49384.516
49389.626
49393.55
49396.487
49398.61
49400.016
49400.83
49401.133
49400.969
49400.42
49399.564
49398.473
49397.192
49395.764
49394.23
49392.626
49390.979
49389.309
49387.637
49385.978
49384.345
49382.75
49381.202
49379.712
49378.283
49376.919
49375.619
49374.384
49373.212
49372.104
49371.059
49370.078
49369.157
49368.294
49367.487
49366.732
49366.028
49365.372
49364.761
49364.196
49363.675
49363.194
49362.752
49362.349
49361.984
49361.66
49361.381
49361.162
49361.006
49360.905
49360.844
49360.813
49360.81
49360.832
49360.874
49360.93
49360.995
49361.064
49361.136
49361.221
49433.364
49442.574
49450.281
49456.616
49461.794
49466.005
49469.348
49471.868
49473.688
49474.919
49475.649
49475.973
49475.96
49475.669
49475.139
49474.408
49473.514
49472.499
49471.399
49470.242
49469.05
49467.843
49466.637
49465.449
49464.287
49463.158
49462.066
49461.012
49460.001
49459.035
49458.114
49457.241
49456.416
49455.638
49454.907
49454.22
49453.576
49452.972
49452.408
49451.882
49451.393
49450.94
49450.524
49450.141
49449.79
49449.471
49449.183
49448.929
49448.71
49448.524
49448.387
49448.31
49448.271
49448.256
49448.263
49448.291
49448.333
49448.387
49448.447
49448.511
49448.576
49448.653
49479.992
49492.004
49502.307
49511.017
49518.379
49524.604
49529.831
49534.11
49537.506
49540.14
49542.15
49543.644
49544.704
49545.405
49545.796
49545.913
49545.798
49545.496
49545.055
49544.506
49543.876
49543.183
49542.448
49541.687
49540.913
49540.134
49539.357
49538.59
49537.839
49537.109
49536.404
49535.725
49535.076
49534.459
49533.874
49533.32
49532.798
49532.306
49531.843
49531.408
49531
49530.621
49530.268
49529.943
49529.643
49529.367
49529.114
49528.887
49528.687
49528.515
49528.38
49528.288
49528.237
49528.214
49528.211
49528.226
49528.256
49528.299
49528.35
49528.406
49528.463
49528.522
49528.591
49518.542
49533.257
49546.076
49557.125
49566.678
49574.98
49582.161
49588.265
49593.345
49597.514
49600.915
49603.672
49605.874
49607.587
49608.891
49609.844
49610.49
49610.872
49611.037
49611.03
49610.883
49610.623
49610.274
49609.858
49609.39
49608.885
49608.357
49607.816
49607.272
49606.732
49606.2
49605.681
49605.181
49604.7
49604.241
49603.804
49603.388
49602.994
49602.62
49602.266
49601.932
49601.619
49601.327
49601.056
49600.806
49600.576
49600.365
49600.173
49599.999
49599.848
49599.718
49599.613
49599.538
49599.498
49599.487
49599.493
49599.513
49599.544
49599.586
49599.633
49599.684
49599.736
49599.789
49599.85
49549.092
49566.482
49581.82
49595.3
49607.179
49617.674
49626.883
49634.828
49641.578
49647.264
49652.042
49656.058
49659.415
49662.175
49664.404
49666.177
49667.566
49668.628
49669.412
49669.969
49670.341
49670.557
49670.641
49670.616
49670.504
49670.324
49670.094
49669.827
49669.535
49669.226
49668.907
49668.584
49668.262
49667.944
49667.631
49667.326
49667.029
49666.742
49666.465
49666.198
49665.943
49665.701
49665.472
49665.257
49665.057
49664.872
49664.7
49664.541
49664.396
49664.266
49664.152
49664.056
49663.98
49663.929
49663.906
49663.905
49663.918
49663.941
49663.974
49664.013
49664.057
49664.103
49664.149
49664.197
49664.25
49592.343
49610.39
49626.421
49640.7
49653.374
49664.554
49674.292
49682.68
49689.881
49696.067
49701.384
49705.94
49709.791
49712.998
49715.637
49717.79
49719.537
49720.946
49722.066
49722.942
49723.617
49724.119
49724.472
49724.7
49724.826
49724.87
49724.85
49724.778
49724.666
49724.524
49724.359
49724.177
49723.983
49723.781
49723.575
49723.368
49723.162
49722.96
49722.761
49722.569
49722.383
49722.205
49722.037
49721.879
49721.732
49721.597
49721.472
49721.357
49721.252
49721.158
49721.077
49721.01
49720.957
49720.919
49720.902
49720.905
49720.923
49720.948
49720.979
49721.016
49721.056
49721.097
49721.138
49721.18
49721.227
49611.489
49632.089
49650.582
49667.144
49681.964
49695.111
49706.691
49716.818
49725.65
49733.359
49740.073
49745.887
49750.877
49755.114
49758.689
49761.693
49764.206
49766.299
49768.035
49769.465
49770.633
49771.582
49772.337
49772.92
49773.355
49773.669
49773.882
49774.014
49774.082
49774.097
49774.07
49774.009
49773.921
49773.814
49773.693
49773.562
49773.425
49773.284
49773.142
49773
49772.86
49772.724
49772.593
49772.469
49772.352
49772.243
49772.143
49772.05
49771.964
49771.886
49771.817
49771.758
49771.709
49771.674
49771.656
49771.656
49771.668
49771.688
49771.712
49771.742
49771.776
49771.811
49771.848
49771.884
49771.921
49771.961
49623.417
49646.644
49667.703
49686.766
49703.941
49719.327
49732.962
49744.975
49755.517
49764.765
49772.857
49779.903
49785.995
49791.232
49795.708
49799.519
49802.754
49805.494
49807.808
49809.751
49811.369
49812.704
49813.793
49814.668
49815.357
49815.895
49816.309
49816.623
49816.854
49817.018
49817.125
49817.185
49817.206
49817.195
49817.161
49817.107
49817.04
49816.963
49816.878
49816.79
49816.699
49816.608
49816.518
49816.43
49816.346
49816.267
49816.194
49816.126
49816.063
49816.005
49815.952
49815.905
49815.866
49815.834
49815.812
49815.798
49815.797
49815.81
49815.831
49815.856
49815.884
49815.915
49815.947
49815.979
49816.011
49816.042
49816.077
49629.524
49655.687
49679.49
49701.08
49720.521
49737.921
49753.409
49767.117
49779.236
49789.938
49799.376
49807.665
49814.919
49821.225
49826.682
49831.387
49835.432
49838.909
49841.893
49844.442
49846.61
49848.438
49849.969
49851.243
49852.296
49853.163
49853.876
49854.464
49854.949
49855.346
49855.666
49855.92
49856.115
49856.261
49856.364
49856.433
49856.475
49856.495
49856.497
49856.486
49856.464
49856.435
49856.399
49856.359
49856.318
49856.275
49856.234
49856.194
49856.157
49856.121
49856.086
49856.055
49856.026
49856.003
49855.985
49855.974
49855.969
49855.974
49855.988
49856.009
49856.034
49856.06
49856.087
49856.116
49856.144
49856.172
49856.2
49856.23
49658.692
49684.968
49708.79
49730.36
49749.744
49767.158
49782.763
49796.769
49809.34
49820.557
49830.46
49839.109
49846.61
49853.075
49858.648
49863.467
49867.631
49871.228
49874.323
49876.959
49879.186
49881.058
49882.62
49883.92
49885.002
49885.911
49886.678
49887.325
49887.867
49888.315
49888.68
49888.971
49889.201
49889.38
49889.517
49889.621
49889.697
49889.751
49889.788
49889.81
49889.82
49889.82
49889.813
49889.801
49889.785
49889.767
49889.748
49889.73
49889.712
49889.694
49889.677
49889.661
49889.646
49889.634
49889.626
49889.623
49889.624
49889.631
49889.643
49889.662
49889.684
49889.708
49889.732
49889.757
49889.781
49889.805
49889.829
49889.854
49655.482
49684.391
49710.886
49734.994
49756.919
49776.69
49794.513
49810.419
49824.589
49837.097
49848.172
49857.892
49866.377
49873.792
49880.217
49885.815
49890.721
49895.004
49898.745
49901.991
49904.769
49907.122
49909.115
49910.809
49912.26
49913.51
49914.586
49915.508
49916.291
49916.949
49917.493
49917.938
49918.297
49918.585
49918.815
49919
49919.148
49919.267
49919.361
49919.435
49919.492
49919.536
49919.567
49919.589
49919.603
49919.611
49919.615
49919.616
49919.616
49919.613
49919.61
49919.605
49919.6
49919.595
49919.592
49919.591
49919.593
49919.599
49919.609
49919.624
49919.642
49919.663
49919.684
49919.705
49919.727
49919.748
49919.768
49919.788
49919.81
49647.798
49679.412
49708.432
49734.959
49759.064
49780.893
49800.516
49818.12
49833.788
49847.76
49860.1
49870.991
49880.661
49889.287
49896.958
49903.801
49909.864
49915.138
49919.663
49923.467
49926.666
49929.365
49931.657
49933.629
49935.339
49936.821
49938.102
49939.198
49940.119
49940.88
49941.501
49942.005
49942.412
49942.742
49943.012
49943.233
49943.417
49943.569
49943.696
49943.801
49943.886
49943.956
49944.011
49944.054
49944.087
49944.113
49944.132
49944.147
49944.159
49944.168
49944.175
49944.18
49944.184
49944.186
49944.189
49944.191
49944.195
49944.201
49944.209
49944.219
49944.231
49944.247
49944.264
49944.283
49944.301
49944.319
49944.337
49944.354
49944.371
49944.389
49668.446
49699.978
49728.903
49755.328
49779.381
49801.187
49820.905
49838.646
49854.548
49868.756
49881.369
49892.558
49902.403
49911.177
49918.809
49925.397
49931.024
49935.835
49939.979
49943.582
49946.694
49949.405
49951.768
49953.842
49955.679
49957.297
49958.704
49959.903
49960.902
49961.726
49962.405
49962.968
49963.441
49963.843
49964.188
49964.488
49964.747
49964.971
49965.161
49965.322
49965.455
49965.565
49965.655
49965.727
49965.785
49965.831
49965.869
49965.899
49965.925
49965.946
49965.963
49965.977
49965.988
49965.997
49966.005
49966.012
49966.019
49966.027
49966.037
49966.047
49966.06
49966.074
49966.09
49966.106
49966.122
49966.137
49966.152
49966.166
49966.181
49966.195
49653.437
49687.622
49719.098
49748.022
49774.371
49798.364
49820.02
49839.63
49857.168
49872.892
49886.808
49899.159
49909.962
49919.318
49927.418
49934.572
49940.944
49946.58
49951.603
49956.018
49959.966
49963.462
49966.568
49969.279
49971.583
49973.451
49974.949
49976.156
49977.15
49977.98
49978.68
49979.277
49979.791
49980.238
49980.629
49980.971
49981.269
49981.529
49981.751
49981.94
49982.098
49982.229
49982.336
49982.424
49982.496
49982.555
49982.602
49982.642
49982.675
49982.703
49982.728
49982.749
49982.767
49982.782
49982.794
49982.805
49982.815
49982.824
49982.834
49982.844
49982.854
49982.865
49982.876
49982.889
49982.902
49982.915
49982.928
49982.941
49982.953
49982.964
49982.976
49633.166
49669.968
49703.957
49735.251
49763.882
49790.061
49813.773
49835.237
49854.464
49871.75
49887.19
49901.017
49913.357
49924.37
49934.194
49942.769
49950.273
49956.799
49962.567
49967.626
49972.061
49975.907
49979.213
49982.025
49984.405
49986.416
49988.129
49989.582
49990.812
49991.863
49992.785
49993.606
49994.344
49995.002
49995.583
49996.094
49996.538
49996.918
49997.239
49997.504
49997.723
49997.9
49998.044
49998.16
49998.254
49998.33
49998.391
49998.442
49998.484
49998.52
49998.551
49998.577
49998.6
49998.619
49998.635
49998.648
49998.66
49998.67
49998.679
49998.689
49998.699
49998.709
49998.719
49998.73
49998.742
49998.753
49998.764
49998.775
49998.784
49998.794
49998.803
49998.813
49648.601
49685.053
49718.845
49749.941
49778.437
49804.404
49828.029
49849.369
49868.635
49885.885
49901.291
49914.929
49926.953
49937.49
49946.768
49954.927
49962.023
49968.203
49973.518
49978.081
49982.027
49985.397
49988.319
49990.834
49993.024
49994.946
49996.668
49998.225
49999.626
50000.873
50001.973
50002.937
50003.776
50004.499
50005.111
50005.619
50006.036
50006.376
50006.654
50006.881
50007.067
50007.221
50007.35
50007.457
50007.548
50007.624
50007.689
50007.745
50007.793
50007.835
50007.872
50007.904
50007.932
50007.955
50007.975
50007.991
50008.005
50008.017
50008.028
50008.038
50008.048
50008.057
50008.066
50008.075
50008.084
50008.092
50008.101
50008.11
50008.118
50008.126
50008.134
50008.142
49622.592
49661.614
49697.834
49731.284
49761.995
49790.13
49815.737
49838.912
49859.737
49878.427
49895.15
49910.092
49923.422
49935.314
49945.905
49955.251
49963.467
49970.69
49977.001
49982.497
49987.274
49991.402
49995
49998.138
50000.941
50003.456
50005.708
50007.72
50009.514
50011.102
50012.487
50013.679
50014.698
50015.564
50016.297
50016.913
50017.426
50017.853
50018.21
50018.509
50018.761
50018.976
50019.161
50019.321
50019.458
50019.577
50019.681
50019.77
50019.847
50019.914
50019.973
50020.023
50020.067
50020.103
50020.134
50020.159
50020.18
50020.198
50020.212
50020.225
50020.236
50020.246
50020.255
50020.263
50020.272
50020.279
50020.287
50020.294
50020.301
50020.308
50020.315
50020.321
50020.327
49592.962
49634.574
49673.34
49709.274
49742.4
49772.847
49800.659
49826.014
49848.97
49869.804
49888.438
49905.155
49920.036
49933.252
49944.847
49955.035
49963.987
49971.841
49978.69
49984.629
49989.789
49994.259
49998.132
50001.471
50004.334
50006.769
50008.835
50010.586
50012.071
50013.337
50014.426
50015.373
50016.198
50016.914
50017.536
50018.076
50018.55
50018.974
50019.358
50019.706
50020.021
50020.304
50020.56
50020.788
50020.992
50021.174
50021.334
50021.476
50021.601
50021.711
50021.809
50021.894
50021.969
50022.033
50022.087
50022.132
50022.17
50022.2
50022.225
50022.245
50022.262
50022.276
50022.287
50022.297
50022.306
50022.315
50022.322
50022.329
50022.336
50022.343
50022.349
50022.355
50022.361
50022.366
49603.491
49644.719
49683.087
49718.566
49751.295
49781.258
49808.62
49833.369
49855.782
49875.845
49893.907
49909.995
49924.319
49936.999
49948.276
49958.237
49967.059
49974.86
49981.72
49987.74
49993.012
49997.627
50001.661
50005.186
50008.275
50010.994
50013.374
50015.445
50017.24
50018.795
50020.144
50021.313
50022.332
50023.226
50024.017
50024.722
50025.355
50025.921
50026.425
50026.876
50027.28
50027.641
50027.964
50028.252
50028.508
50028.734
50028.934
50029.108
50029.261
50029.393
50029.508
50029.609
50029.696
50029.77
50029.833
50029.886
50029.928
50029.961
50029.988
50030.009
50030.025
50030.038
50030.049
50030.057
50030.065
50030.072
50030.078
50030.083
50030.088
50030.093
50030.098
50030.103
50030.107
50030.111
49568.915
49612.65
49653.492
49691.428
49726.53
49758.802
49788.396
49815.32
49839.817
49862.026
49882.109
49900.111
49916.21
49930.502
49943.157
49954.283
49964.024
49972.518
49979.898
49986.318
49991.892
49996.713
50000.861
50004.415
50007.442
50010.001
50012.154
50013.967
50015.493
50016.77
50017.835
50018.719
50019.45
50020.052
50020.543
50020.943
50021.266
50021.524
50021.728
50021.89
50022.021
50022.127
50022.213
50022.282
50022.341
50022.39
50022.433
50022.471
50022.503
50022.53
50022.554
50022.575
50022.593
50022.609
50022.623
50022.634
50022.643
50022.649
50022.654
50022.658
50022.66
50022.662
50022.663
50022.663
50022.663
50022.664
50022.664
50022.664
50022.664
50022.664
50022.664
50022.665
50022.665
50022.665
50022.666
49577.028
49620.323
49660.681
49698.153
49732.734
49764.535
49793.595
49820.078
49844.064
49865.645
49884.94
49902.173
49917.487
49931.091
49943.131
49953.809
49963.255
49971.623
49978.996
49985.462
49991.123
49996.08
50000.419
50004.212
50007.531
50010.445
50012.977
50015.162
50017.04
50018.654
50020.038
50021.223
50022.235
50023.098
50023.833
50024.456
50024.984
50025.428
50025.802
50026.114
50026.37
50026.576
50026.742
50026.875
50026.98
50027.062
50027.127
50027.178
50027.218
50027.249
50027.274
50027.294
50027.31
50027.323
50027.334
50027.342
50027.349
50027.353
50027.357
50027.36
50027.362
50027.364
50027.365
50027.367
50027.368
50027.369
50027.371
50027.372
50027.374
50027.375
50027.377
50027.378
50027.38
50027.381
50027.383
49538.195
49583.899
49626.705
49666.573
49703.53
49737.613
49768.9
49797.465
49823.439
49846.95
49868.137
49887.21
49904.321
49919.606
49933.184
49945.195
49955.748
49964.976
49972.998
49979.949
49985.975
49991.18
49995.653
49999.477
50002.722
50005.455
50007.736
50009.643
50011.255
50012.62
50013.775
50014.75
50015.574
50016.268
50016.856
50017.353
50017.776
50018.139
50018.45
50018.716
50018.941
50019.128
50019.278
50019.398
50019.49
50019.561
50019.614
50019.653
50019.681
50019.7
50019.713
50019.722
50019.729
50019.732
50019.735
50019.735
50019.734
50019.733
50019.73
50019.727
50019.724
50019.72
50019.717
50019.714
50019.712
50019.71
50019.708
50019.707
50019.706
50019.705
50019.705
50019.705
50019.705
50019.705
50019.705
50019.705
49496.19
49544.29
49589.483
49631.754
49671.075
49707.478
49741.004
49771.744
49799.774
49825.228
49848.223
49868.907
49887.437
49903.948
49918.556
49931.429
49942.768
49952.756
49961.547
49969.271
49976.054
49981.999
49987.186
49991.698
49995.618
49999.031
50002.018
50004.652
50006.948
50008.923
50010.606
50012.027
50013.217
50014.211
50015.036
50015.718
50016.28
50016.74
50017.115
50017.418
50017.665
50017.865
50018.029
50018.163
50018.272
50018.36
50018.431
50018.486
50018.529
50018.561
50018.584
50018.601
50018.613
50018.622
50018.628
50018.632
50018.634
50018.634
50018.633
50018.631
50018.628
50018.625
50018.623
50018.62
50018.618
50018.616
50018.615
50018.614
50018.613
50018.613
50018.613
50018.613
50018.613
50018.614
50018.614
50018.615
50018.615
49501.698
49549.283
49593.937
49635.648
49674.403
49710.232
49743.19
49773.365
49800.852
49825.762
49848.23
49868.407
49886.454
49902.522
49916.813
49929.51
49940.733
49950.603
49959.236
49966.753
49973.27
49978.896
49983.742
49987.911
49991.488
49994.545
49997.139
49999.315
50001.135
50002.653
50003.927
50005
50005.899
50006.651
50007.277
50007.795
50008.221
50008.57
50008.85
50009.075
50009.255
50009.4
50009.518
50009.614
50009.693
50009.756
50009.807
50009.847
50009.877
50009.898
50009.913
50009.923
50009.928
50009.931
50009.932
50009.931
50009.928
50009.923
50009.917
50009.911
50009.904
50009.898
50009.892
50009.886
50009.881
50009.877
50009.873
50009.87
50009.867
50009.865
50009.863
50009.862
50009.862