/*--------------------------------*- C++ -*----------------------------------*\
| =========                 |                                                 |
| \\      /  F ield         | OpenFOAM: The Open Source CFD Toolbox           |
|  \\    /   O peration     | Version:  2506                                  |
|   \\  /    A nd           | Website:  www.openfoam.com                      |
|    \\/     M anipulation  |                                                 |
\*---------------------------------------------------------------------------*/
FoamFile
{
    version     2.0;
    format      ascii;
    arch        "LSB;label=32;scalar=64";
    class       volScalarField;
    location    "0.0185";
    object      p;
}
// * * * * * * * * * * * * * * * * * * * * * * * * * * * * * * * * * * * * * //

dimensions      [1 -1 -2 0 0 0 0];

internalField   nonuniform List<scalar> 
13761
(
38276.976
38195.135
38118.601
38047.105
37980.379
37918.162
37860.193
37806.228
37756.029
37709.367
37666.019
37625.772
37588.425
37553.787
37521.678
37491.93
37464.385
37438.9
37415.388
37393.838
37374.269
37356.671
37340.979
37327.089
37314.871
37304.194
37294.924
37286.941
37280.133
37274.394
37269.635
37265.786
37262.786
37260.589
37259.142
37258.333
37258.002
37257.913
39460.59
39339.804
39225.742
39118.21
39016.99
38921.851
38832.55
38748.834
38670.452
38597.148
38528.663
38464.744
38405.138
38349.599
38297.891
38249.789
38205.072
38163.528
38124.954
38089.155
38055.95
38025.168
37996.646
37970.236
37945.795
37923.223
37902.487
37883.602
37866.58
37851.381
37837.92
37826.081
37815.741
37806.773
37799.061
37792.494
37786.969
37782.4
37778.715
37775.857
37773.777
37772.42
37771.676
37771.387
37771.336
39900.431
39785.325
39676.631
39574.168
39477.724
39387.082
39302.008
39222.264
39147.607
39077.794
39012.579
38951.719
38894.974
38842.107
38792.893
38747.118
38704.571
38665.048
38628.355
38594.307
38562.732
38533.463
38506.348
38481.244
38458.014
38436.552
38416.802
38398.768
38382.473
38367.9
38354.986
38343.63
38333.719
38325.136
38317.766
38311.504
38306.249
38301.917
38298.437
38295.752
38293.814
38292.566
38291.897
38291.654
38291.643
40338.026
40228.757
40125.588
40028.345
39936.826
39850.824
39770.115
39694.473
39623.666
39557.462
39495.625
39437.925
39384.133
39334.023
39287.381
39244.004
39203.688
39166.242
39131.481
39099.229
39069.321
39041.6
39015.921
38992.148
38970.152
38949.825
38931.098
38913.957
38898.428
38884.513
38872.17
38861.316
38851.851
38843.665
38836.649
38830.702
38825.726
38821.638
38818.37
38815.864
38814.072
38812.934
38812.342
38812.145
38812.173
40771.614
40668.244
40570.661
40478.695
40392.158
40310.848
40234.555
40163.061
40096.146
40033.589
39975.167
39920.659
39869.85
39822.523
39778.476
39737.516
39699.451
39664.099
39631.284
39600.84
39572.61
39546.447
39522.213
39499.779
39479.023
39459.841
39442.154
39425.935
39411.201
39397.969
39386.215
39375.877
39366.867
39359.084
39352.428
39346.8
39342.106
39338.266
39335.212
39332.887
39331.242
39330.215
39329.698
39329.548
39329.612
41302.733
41199.641
41102.161
41010.152
40923.455
40841.888
40765.259
40693.369
40626.01
40562.974
40504.051
40449.029
40397.7
40349.858
40305.299
40263.834
40225.277
40189.449
40156.176
40125.294
40096.644
40070.081
40045.463
40022.661
40001.555
39982.029
39963.984
39947.338
39932.05
39918.129
39905.595
39894.442
39884.626
39876.074
39868.696
39862.4
39857.09
39852.679
39849.086
39846.245
39844.101
39842.602
39841.684
39841.241
39841.135
39841.233
41717.721
41620.773
41529.117
41442.621
41361.131
41284.474
41212.47
41144.928
41081.651
41022.443
40967.104
40915.436
40867.24
40822.323
40780.492
40741.569
40705.379
40671.753
40640.527
40611.547
40584.664
40559.739
40536.642
40515.249
40495.448
40477.131
40460.204
40444.585
40430.226
40417.124
40405.299
40394.754
40385.463
40377.369
40370.395
40364.455
40359.461
40355.328
40351.979
40349.349
40347.383
40346.028
40345.216
40344.844
40344.781
40344.909
42220.791
42124.789
42033.875
41947.938
41866.852
41790.472
41718.632
41651.161
41587.88
41528.603
41473.144
41421.316
41372.929
41327.799
41285.744
41246.582
41210.145
41176.268
41144.794
41115.569
41088.447
41063.289
41039.966
41018.353
40998.336
40979.81
40962.673
40946.837
40932.224
40918.781
40906.495
40895.381
40885.448
40876.684
40869.046
40862.471
40856.883
40852.199
40848.339
40845.229
40842.806
40841.013
40839.798
40839.089
40838.785
40838.761
40838.917
42612.814
42523.02
42437.999
42357.646
42281.84
42210.443
42143.299
42080.248
42021.118
41965.737
41913.928
41865.516
41820.323
41778.176
41738.903
41702.335
41668.314
41636.686
41607.303
41580.021
41554.703
41531.221
41509.451
41489.279
41470.598
41453.308
41437.317
41422.54
41408.905
41396.355
41384.873
41374.466
41365.144
41356.906
41349.722
41343.541
41338.298
41333.917
41330.323
41327.445
41325.222
41323.598
41322.517
41321.906
41321.666
41321.679
41321.858
43083.703
42995.409
42911.654
42832.363
42757.436
42686.759
42620.2
42557.615
42498.85
42443.747
42392.142
42343.87
42298.767
42256.667
42217.406
42180.826
42146.768
42115.084
42085.63
42058.268
42032.865
42009.291
41987.427
41967.159
41948.379
41930.987
41914.892
41900.006
41886.252
41873.56
41861.877
41851.179
41841.468
41832.754
41825.038
41818.304
41812.512
41807.607
41803.521
41800.186
41797.533
41795.503
41794.04
41793.086
41792.568
41792.387
41792.433
41792.634
43536.529
43450.11
43367.973
43290.071
43216.331
43146.658
43080.944
43019.067
42960.89
42906.269
42855.056
42807.098
42762.241
42720.331
42681.214
42644.739
42610.755
42579.115
42549.682
42522.323
42496.908
42473.312
42451.417
42431.111
42412.287
42394.846
42378.695
42363.749
42349.926
42337.155
42325.371
42314.522
42304.583
42295.552
42287.435
42280.236
42273.947
42268.539
42263.965
42260.168
42257.082
42254.646
42252.801
42251.492
42250.659
42250.227
42250.099
42250.175
42250.394
43970.541
43886.371
43806.205
43730.023
43657.778
43589.4
43524.801
43463.879
43406.519
43352.592
43301.966
43254.502
43210.057
43168.488
43129.652
43093.406
43059.608
43028.12
42998.806
42971.536
42946.188
42922.642
42900.782
42880.499
42861.686
42844.248
42828.091
42813.13
42799.284
42786.48
42774.651
42763.737
42753.689
42744.482
42736.109
42728.575
42721.885
42716.034
42711.003
42706.755
42703.238
42700.395
42698.167
42696.499
42695.335
42694.615
42694.261
42694.182
42694.284
42694.517
44303.58
44225.738
44151.613
44081.18
44014.395
43951.192
43891.487
43835.184
43782.175
43732.343
43685.562
43641.704
43600.637
43562.229
43526.347
43492.859
43461.633
43432.541
43405.458
43380.264
43356.846
43335.092
43314.896
43296.157
43278.777
43262.666
43247.739
43233.917
43221.125
43209.296
43198.369
43188.288
43179.006
43170.501
43162.763
43155.795
43149.601
43144.182
43139.522
43135.592
43132.349
43129.741
43127.714
43126.214
43125.187
43124.57
43124.287
43124.25
43124.374
43124.62
44701.225
44626.052
44554.318
44486.023
44421.142
44359.63
44301.424
44246.444
44194.601
44145.793
44099.91
44056.837
44016.455
43978.642
43943.276
43910.236
43879.398
43850.643
43823.853
43798.912
43775.71
43754.143
43734.108
43715.509
43698.249
43682.242
43667.404
43653.655
43640.924
43629.143
43618.249
43608.185
43598.902
43590.355
43582.523
43575.397
43568.977
43563.269
43558.271
43553.976
43550.358
43547.383
43545.004
43543.17
43541.83
43540.93
43540.408
43540.189
43540.188
43540.332
43540.588
45078.887
45006.693
44937.662
44871.813
44809.141
44749.62
44693.205
44639.834
44589.431
44541.912
44497.18
44455.133
44415.664
44378.661
44344.012
44311.604
44281.325
44253.063
44226.707
44202.149
44179.284
44158.011
44138.235
44119.861
44102.802
44086.971
44072.287
44058.675
44046.062
44034.381
44023.572
44013.576
44004.343
43995.827
43987.987
43980.804
43974.269
43968.381
43963.144
43958.561
43954.624
43951.315
43948.603
43946.447
43944.799
43943.613
43942.833
43942.398
43942.235
43942.267
43942.427
43942.691
45436.296
45367.339
45301.269
45238.126
45177.923
45120.653
45066.288
45014.784
44966.082
44920.109
44876.784
44836.017
44797.712
44761.767
44728.08
44696.545
44667.057
44639.511
44613.805
44589.836
44567.504
44546.712
44527.368
44509.385
44492.676
44477.161
44462.76
44449.401
44437.015
44425.535
44414.903
44405.062
44395.961
44387.553
44379.797
44372.658
44366.117
44360.166
44354.806
44350.039
44345.87
44342.292
44339.292
44336.843
44334.908
44333.445
44332.407
44331.742
44331.388
44331.279
44331.34
44331.515
44331.785
45773.412
45707.892
45644.982
45584.742
45527.204
45472.38
45420.258
45370.811
45323.996
45279.756
45238.022
45198.717
45161.757
45127.052
45094.509
45064.03
45035.519
45008.878
44984.011
44960.822
44939.216
44919.102
44900.389
44882.994
44866.834
44851.832
44837.912
44825.003
44813.037
44801.949
44791.682
44782.178
44773.389
44765.266
44757.767
44750.855
44744.497
44738.677
44733.387
44728.627
44724.399
44720.706
44717.545
44714.903
44712.758
44711.077
44709.821
44708.947
44708.404
44708.136
44708.079
44708.169
44708.357
44708.631
46090.432
46028.499
45968.9
45911.71
45856.982
45804.742
45754.999
45707.738
45662.932
45620.539
45580.503
45542.759
45507.235
45473.852
45442.525
45413.166
45385.687
45359.995
45336.002
45313.619
45292.756
45273.327
45255.247
45238.435
45222.812
45208.306
45194.843
45182.355
45170.778
45160.049
45150.111
45140.91
45132.397
45124.525
45117.252
45110.54
45104.356
45098.67
45093.468
45088.744
45084.496
45080.729
45077.443
45074.637
45072.299
45070.411
45068.944
45067.86
45067.12
45066.675
45066.472
45066.453
45066.561
45066.755
45067.026
46387.661
46329.432
46273.256
46219.228
46167.415
46117.864
46070.596
46025.614
45982.904
45942.437
45904.173
45868.058
45834.03
45802.022
45771.958
45743.76
45717.346
45692.634
45669.54
45647.982
45627.876
45609.143
45591.703
45575.478
45560.395
45546.382
45533.372
45521.3
45510.105
45499.728
45490.112
45481.206
45472.962
45465.334
45458.282
45451.767
45445.757
45440.219
45435.131
45430.477
45426.254
45422.462
45419.102
45416.177
45413.684
45411.616
45409.954
45408.673
45407.737
45407.11
45406.746
45406.597
45406.608
45406.728
45406.923
45407.188
46611.101
46558.435
46507.652
46458.838
46412.052
46367.333
46324.699
46284.151
46245.672
46209.236
46174.8
46142.316
46111.725
46082.962
46055.96
46030.645
46006.941
45984.772
45964.063
45944.736
45926.718
45909.935
45894.314
45879.786
45866.282
45853.74
45842.097
45831.297
45821.282
45811.999
45803.4
45795.436
45788.065
45781.246
45774.943
45769.122
45763.752
45758.807
45754.264
45750.112
45746.348
45742.971
45739.984
45737.389
45735.184
45733.361
45731.905
45730.791
45729.988
45729.46
45729.166
45729.061
45729.096
45729.225
45729.418
45729.676
46874.029
46824.938
46777.466
46731.713
46687.753
46645.641
46605.41
46567.075
46530.632
46496.067
46463.352
46432.449
46403.31
46375.88
46350.101
46325.909
46303.237
46282.015
46262.175
46243.646
46226.36
46210.249
46195.245
46181.283
46168.302
46156.238
46145.035
46134.638
46124.994
46116.053
46107.767
46100.092
46092.985
46086.408
46080.324
46074.702
46069.51
46064.722
46060.315
46056.267
46052.571
46049.223
46046.224
46043.575
46041.279
46039.334
46037.733
46036.461
46035.497
46034.811
46034.37
46034.136
46034.066
46034.119
46034.254
46034.443
46034.692
47118.815
47073.35
47029.24
46986.599
46945.514
46906.056
46868.271
46832.189
46797.82
46765.162
46734.2
46704.907
46677.246
46651.175
46626.642
46603.593
46581.971
46561.713
46542.757
46525.04
46508.498
46493.07
46478.693
46465.308
46452.855
46441.278
46430.522
46420.535
46411.268
46402.673
46394.706
46387.323
46380.486
46374.155
46368.297
46362.88
46357.874
46353.252
46348.991
46345.07
46341.471
46338.187
46335.215
46332.556
46330.213
46328.187
46326.476
46325.074
46323.967
46323.136
46322.552
46322.186
46322.002
46321.962
46322.029
46322.166
46322.35
46322.588
47346.108
47304.311
47263.605
47224.116
47185.948
47149.181
47113.879
47080.083
47047.82
47017.098
46987.915
46960.255
46934.095
46909.4
46886.131
46864.242
46843.682
46824.4
46806.339
46789.444
46773.656
46758.918
46745.175
46732.372
46720.453
46709.367
46699.063
46689.49
46680.602
46672.357
46664.711
46657.624
46651.057
46644.976
46639.347
46634.138
46629.321
46624.871
46620.764
46616.978
46613.495
46610.3
46607.387
46604.754
46602.402
46600.333
46598.549
46597.048
46595.824
46594.864
46594.149
46593.655
46593.353
46593.211
46593.195
46593.272
46593.408
46593.586
46593.813
47556.59
47518.494
47481.227
47444.926
47409.708
47375.668
47342.88
47311.4
47281.268
47252.507
47225.125
47199.12
47174.478
47151.176
47129.184
47108.466
47088.98
47070.682
47053.525
47037.457
47022.428
47008.387
46995.282
46983.064
46971.682
46961.089
46951.237
46942.08
46933.574
46925.679
46918.354
46911.563
46905.268
46899.437
46894.037
46889.038
46884.414
46880.138
46876.188
46872.543
46869.184
46866.095
46863.263
46860.683
46858.354
46856.277
46854.454
46852.887
46851.573
46850.506
46849.676
46849.063
46848.647
46848.399
46848.293
46848.296
46848.38
46848.514
46848.684
46848.898
47750.956
47716.591
47682.793
47649.713
47617.476
47586.193
47555.948
47526.813
47498.837
47472.059
47446.499
47422.166
47399.057
47377.162
47356.459
47336.922
47318.519
47301.212
47284.962
47269.727
47255.46
47242.118
47229.654
47218.023
47207.179
47197.079
47187.679
47178.937
47170.814
47163.268
47156.265
47149.768
47143.744
47138.161
47132.99
47128.201
47123.769
47119.668
47115.877
47112.376
47109.146
47106.17
47103.434
47100.927
47098.646
47096.589
47094.757
47093.154
47091.779
47090.631
47089.705
47088.988
47088.465
47088.115
47087.915
47087.837
47087.856
47087.943
47088.074
47088.235
47088.436
47929.902
47899.294
47868.996
47839.166
47809.942
47781.444
47753.772
47727.008
47701.214
47676.441
47652.722
47630.079
47608.52
47588.043
47568.64
47550.294
47532.98
47516.671
47501.334
47486.933
47473.432
47460.79
47448.967
47437.923
47427.617
47418.009
47409.06
47400.732
47392.988
47385.791
47379.107
47372.903
47367.148
47361.812
47356.868
47352.287
47348.046
47344.12
47340.488
47337.132
47334.031
47331.172
47328.538
47326.118
47323.902
47321.887
47320.072
47318.46
47317.052
47315.848
47314.847
47314.044
47313.427
47312.982
47312.69
47312.528
47312.475
47312.504
47312.593
47312.719
47312.871
47313.059
48067.291
48040.52
48013.971
47987.791
47962.111
47937.04
47912.674
47889.089
47866.345
47844.489
47823.554
47803.559
47784.517
47766.425
47749.279
47733.062
47717.756
47703.337
47689.775
47677.04
47665.099
47653.917
47643.46
47633.69
47624.574
47616.074
47608.158
47600.791
47593.939
47587.572
47581.659
47576.17
47571.079
47566.358
47561.983
47557.931
47554.178
47550.705
47547.492
47544.523
47541.781
47539.252
47536.924
47534.785
47532.828
47531.05
47529.451
47528.034
47526.799
47525.747
47524.876
47524.18
47523.65
47523.273
47523.029
47522.901
47522.867
47522.904
47522.993
47523.113
47523.256
47523.431
48221.254
48198.038
48174.801
48151.697
48128.866
48106.43
48084.494
48063.145
48042.457
48022.487
48003.281
47984.87
47967.277
47950.511
47934.575
47919.465
47905.169
47891.672
47878.952
47866.986
47855.748
47845.208
47835.337
47826.103
47817.476
47809.425
47801.917
47794.924
47788.416
47782.363
47776.737
47771.512
47766.662
47762.162
47757.99
47754.124
47750.542
47747.225
47744.156
47741.316
47738.692
47736.269
47734.035
47731.978
47730.09
47728.363
47726.796
47725.389
47724.144
47723.063
47722.144
47721.387
47720.786
47720.332
47720.013
47719.811
47719.71
47719.691
47719.735
47719.822
47719.936
47720.069
47720.231
48361.833
48342.201
48322.307
48302.315
48282.37
48262.603
48243.129
48224.049
48205.447
48187.391
48169.939
48153.134
48137.008
48121.583
48106.871
48092.879
48079.603
48067.035
48055.163
48043.971
48033.437
48023.54
48014.255
48005.557
47997.419
47989.813
47982.713
47976.093
47969.924
47964.182
47958.841
47953.877
47949.265
47944.984
47941.012
47937.329
47933.916
47930.753
47927.824
47925.114
47922.607
47920.289
47918.15
47916.178
47914.363
47912.697
47911.175
47909.796
47908.559
47907.467
47906.52
47905.72
47905.063
47904.545
47904.157
47903.887
47903.721
47903.643
47903.636
47903.683
47903.767
47903.875
47903.998
47904.147
48489.657
48473.636
48457.12
48440.275
48423.253
48406.194
48389.222
48372.448
48355.965
48339.855
48324.186
48309.011
48294.376
48280.312
48266.842
48253.981
48241.736
48230.108
48219.091
48208.678
48198.853
48189.602
48180.905
48172.743
48165.093
48157.933
48151.239
48144.988
48139.158
48133.724
48128.665
48123.958
48119.583
48115.517
48111.743
48108.24
48104.992
48101.981
48099.191
48096.607
48094.215
48092.003
48089.959
48088.071
48086.332
48084.731
48083.263
48081.923
48080.709
48079.623
48078.666
48077.839
48077.141
48076.572
48076.126
48075.795
48075.568
48075.432
48075.372
48075.375
48075.424
48075.504
48075.605
48075.719
48075.856
48592.944
48579.84
48566.18
48552.123
48537.815
48523.386
48508.958
48494.634
48480.507
48466.654
48453.142
48440.025
48427.346
48415.138
48403.427
48392.229
48381.552
48371.402
48361.775
48352.666
48344.065
48335.96
48328.335
48321.174
48314.459
48308.171
48302.29
48296.795
48291.668
48286.889
48282.437
48278.295
48274.442
48270.862
48267.537
48264.452
48261.589
48258.936
48256.477
48254.199
48252.091
48250.14
48248.338
48246.674
48245.141
48243.73
48242.437
48241.258
48240.191
48239.237
48238.399
48237.677
48237.071
48236.578
48236.194
48235.912
48235.721
48235.611
48235.566
48235.576
48235.625
48235.702
48235.795
48235.9
48236.025
48700.696
48691.038
48680.604
48669.556
48658.043
48646.205
48634.169
48622.048
48609.945
48597.948
48586.134
48574.568
48563.303
48552.385
48541.846
48531.714
48522.006
48512.735
48503.906
48495.522
48487.578
48480.07
48472.987
48466.318
48460.05
48454.167
48448.654
48443.495
48438.673
48434.171
48429.972
48426.06
48422.418
48419.03
48415.88
48412.954
48410.238
48407.718
48405.381
48403.216
48401.209
48399.352
48397.633
48396.045
48394.579
48393.228
48391.986
48390.848
48389.811
48388.873
48388.037
48387.304
48386.674
48386.147
48385.721
48385.392
48385.152
48384.992
48384.902
48384.87
48384.884
48384.933
48385.006
48385.092
48385.188
48385.302
48797.436
48791.258
48784.091
48776.097
48767.429
48758.231
48748.637
48738.768
48728.736
48718.64
48708.566
48698.589
48688.774
48679.175
48669.837
48660.795
48652.078
48643.704
48635.69
48628.043
48620.768
48613.865
48607.331
48601.158
48595.34
48589.865
48584.723
48579.899
48575.381
48571.156
48567.208
48563.523
48560.088
48556.889
48553.911
48551.142
48548.569
48546.179
48543.961
48541.903
48539.996
48538.229
48536.592
48535.078
48533.679
48532.387
48531.197
48530.104
48529.102
48528.189
48527.365
48526.632
48525.991
48525.441
48524.984
48524.615
48524.332
48524.128
48523.994
48523.921
48523.899
48523.917
48523.965
48524.032
48524.112
48524.199
48524.302
48883.678
48881.012
48877.153
48872.26
48866.487
48859.983
48852.885
48845.323
48837.415
48829.269
48820.982
48812.638
48804.313
48796.071
48787.966
48780.045
48772.343
48764.89
48757.71
48750.819
48744.227
48737.942
48731.967
48726.3
48720.94
48715.879
48711.112
48706.628
48702.417
48698.47
48694.775
48691.319
48688.092
48685.081
48682.274
48679.661
48677.228
48674.967
48672.866
48670.914
48669.104
48667.424
48665.867
48664.425
48663.091
48661.857
48660.719
48659.67
48658.705
48657.822
48657.019
48656.295
48655.651
48655.089
48654.609
48654.211
48653.892
48653.649
48653.475
48653.363
48653.304
48653.289
48653.309
48653.355
48653.418
48653.49
48653.57
48653.663
48960.787
48960.274
48958.529
48955.704
48951.949
48947.405
48942.207
48936.481
48930.341
48923.893
48917.232
48910.443
48903.6
48896.767
48889.999
48883.344
48876.84
48870.518
48864.403
48858.513
48852.862
48847.46
48842.311
48837.419
48832.781
48828.396
48824.259
48820.362
48816.699
48813.261
48810.04
48807.024
48804.206
48801.575
48799.121
48796.835
48794.706
48792.725
48790.884
48789.174
48787.587
48786.114
48784.749
48783.484
48782.313
48781.231
48780.233
48779.312
48778.467
48777.693
48776.99
48776.357
48775.795
48775.306
48774.89
48774.546
48774.272
48774.065
48773.918
48773.825
48773.779
48773.771
48773.792
48773.836
48773.894
48773.96
48774.032
48774.116
49031.041
49033.911
49035.359
49035.536
49034.588
49032.659
49029.887
49026.403
49022.33
49017.78
49012.857
49007.655
49002.258
48996.74
48991.167
48985.595
48980.07
48974.634
48969.319
48964.153
48959.155
48954.341
48949.724
48945.312
48941.107
48937.113
48933.329
48929.752
48926.377
48923.2
48920.215
48917.414
48914.79
48912.335
48910.041
48907.9
48905.904
48904.044
48902.313
48900.703
48899.207
48897.817
48896.528
48895.332
48894.224
48893.198
48892.25
48891.374
48890.568
48889.828
48889.15
48888.535
48887.982
48887.492
48887.067
48886.707
48886.41
48886.175
48885.998
48885.874
48885.798
48885.762
48885.758
48885.781
48885.822
48885.875
48885.935
48886
48886.076
49092.207
49098.493
49103.178
49106.408
49108.326
49109.075
49108.794
49107.619
49105.677
49103.088
49099.963
49096.405
49092.508
49088.356
49084.022
49079.572
49075.064
49070.546
49066.061
49061.642
49057.319
49053.113
49049.044
49045.125
49041.365
49037.771
49034.348
49031.096
49028.015
49025.103
49022.358
49019.773
49017.345
49015.067
49012.934
49010.938
49009.074
49007.334
49005.712
49004.202
49002.796
49001.488
49000.274
48999.146
48998.099
48997.13
48996.232
48995.401
48994.635
48993.929
48993.281
48992.689
48992.151
48991.668
48991.242
48990.872
48990.56
48990.304
48990.103
48989.952
48989.848
48989.785
48989.757
48989.758
48989.78
48989.818
48989.867
48989.921
48989.98
48990.048
49154.424
49162.386
49168.719
49173.56
49177.05
49179.329
49180.531
49180.789
49180.229
49178.969
49177.119
49174.781
49172.048
49169.003
49165.723
49162.273
49158.712
49155.089
49151.447
49147.824
49144.248
49140.746
49137.336
49134.034
49130.853
49127.8
49124.881
49122.1
49119.459
49116.957
49114.592
49112.362
49110.263
49108.291
49106.441
49104.71
49103.09
49101.576
49100.164
49098.848
49097.622
49096.481
49095.42
49094.435
49093.52
49092.673
49091.887
49091.161
49090.491
49089.873
49089.306
49088.788
49088.319
49087.898
49087.527
49087.206
49086.936
49086.715
49086.543
49086.415
49086.327
49086.276
49086.254
49086.257
49086.279
49086.314
49086.359
49086.408
49086.46
49086.52
49202.087
49213.36
49222.841
49230.661
49236.956
49241.861
49245.512
49248.044
49249.585
49250.26
49250.186
49249.472
49248.22
49246.522
49244.463
49242.119
49239.556
49236.833
49234.003
49231.11
49228.19
49225.277
49222.396
49219.57
49216.814
49214.144
49211.569
49209.096
49206.732
49204.478
49202.337
49200.309
49198.391
49196.583
49194.881
49193.282
49191.782
49190.378
49189.064
49187.837
49186.692
49185.624
49184.63
49183.706
49182.846
49182.048
49181.307
49180.621
49179.986
49179.4
49178.861
49178.365
49177.913
49177.503
49177.136
49176.814
49176.536
49176.302
49176.112
49175.964
49175.856
49175.782
49175.74
49175.724
49175.728
49175.749
49175.782
49175.822
49175.866
49175.913
49175.966
49241.844
49256.453
49269.124
49279.975
49289.135
49296.735
49302.909
49307.789
49311.508
49314.193
49315.968
49316.949
49317.244
49316.955
49316.175
49314.989
49313.473
49311.696
49309.716
49307.587
49305.354
49303.057
49300.728
49298.397
49296.085
49293.812
49291.593
49289.439
49287.36
49285.363
49283.452
49281.629
49279.897
49278.255
49276.703
49275.239
49273.861
49272.566
49271.351
49270.213
49269.149
49268.155
49267.227
49266.362
49265.557
49264.808
49264.112
49263.466
49262.867
49262.313
49261.802
49261.331
49260.898
49260.503
49260.146
49259.827
49259.546
49259.305
49259.104
49258.94
49258.814
49258.721
49258.66
49258.625
49258.613
49258.619
49258.639
49258.669
49258.704
49258.744
49258.786
49258.832
49292.004
49307.897
49321.826
49333.909
49344.27
49353.038
49360.343
49366.318
49371.093
49374.795
49377.546
49379.461
49380.649
49381.213
49381.245
49380.83
49380.046
49378.961
49377.636
49376.125
49374.475
49372.727
49370.914
49369.066
49367.208
49365.36
49363.538
49361.756
49360.024
49358.35
49356.74
49355.198
49353.727
49352.328
49351.001
49349.747
49348.563
49347.449
49346.401
49345.419
49344.498
49343.637
49342.832
49342.081
49341.381
49340.73
49340.124
49339.561
49339.039
49338.556
49338.11
49337.699
49337.322
49336.978
49336.667
49336.389
49336.146
49335.937
49335.763
49335.623
49335.514
49335.436
49335.385
49335.356
49335.347
49335.354
49335.372
49335.399
49335.431
49335.466
49335.503
49335.545
49320.333
49339.472
49356.519
49371.578
49384.762
49396.194
49406.001
49414.313
49421.259
49426.97
49431.57
49435.183
49437.923
49439.899
49441.214
49441.961
49442.225
49442.085
49441.609
49440.861
49439.894
49438.757
49437.491
49436.132
49434.71
49433.251
49431.776
49430.304
49428.849
49427.422
49426.033
49424.688
49423.393
49422.152
49420.966
49419.838
49418.768
49417.756
49416.8
49415.9
49415.053
49414.259
49413.515
49412.818
49412.168
49411.561
49410.995
49410.468
49409.979
49409.525
49409.105
49408.716
49408.358
49408.03
49407.73
49407.46
49407.219
49407.008
49406.827
49406.677
49406.557
49406.464
49406.398
49406.355
49406.331
49406.325
49406.332
49406.349
49406.373
49406.402
49406.433
49406.465
49406.501
49341.746
49364.146
49384.341
49402.42
49418.486
49432.651
49445.034
49455.762
49464.963
49472.766
49479.301
49484.693
49489.064
49492.529
49495.197
49497.172
49498.546
49499.406
49499.83
49499.89
49499.647
49499.158
49498.47
49497.628
49496.667
49495.618
49494.51
49493.364
49492.199
49491.031
49489.872
49488.732
49487.621
49486.543
49485.504
49484.507
49483.553
49482.645
49481.783
49480.967
49480.197
49479.471
49478.788
49478.146
49477.545
49476.983
49476.458
49475.968
49475.511
49475.086
49474.692
49474.327
49473.989
49473.678
49473.392
49473.132
49472.897
49472.688
49472.505
49472.349
49472.22
49472.117
49472.038
49471.981
49471.945
49471.926
49471.922
49471.929
49471.944
49471.966
49471.991
49472.019
49472.047
49472.079
49382.202
49405.566
49426.703
49445.701
49462.661
49477.692
49490.915
49502.454
49512.437
49520.992
49528.25
49534.335
49539.369
49543.468
49546.741
49549.292
49551.214
49552.595
49553.514
49554.041
49554.24
49554.168
49553.874
49553.403
49552.79
49552.069
49551.268
49550.41
49549.514
49548.598
49547.674
49546.754
49545.848
49544.961
49544.099
49543.267
49542.467
49541.702
49540.972
49540.279
49539.623
49539.002
49538.417
49537.867
49537.35
49536.865
49536.412
49535.988
49535.593
49535.225
49534.884
49534.567
49534.274
49534.004
49533.756
49533.53
49533.326
49533.145
49532.987
49532.853
49532.742
49532.653
49532.586
49532.538
49532.508
49532.493
49532.49
49532.496
49532.51
49532.53
49532.552
49532.576
49532.601
49532.629
49393.916
49420.456
49444.677
49466.65
49486.46
49504.207
49520.001
49533.96
49546.208
49556.874
49566.086
49573.973
49580.661
49586.272
49590.922
49594.722
49597.774
49600.173
49602.007
49603.356
49604.29
49604.875
49605.167
49605.217
49605.068
49604.76
49604.326
49603.793
49603.186
49602.527
49601.831
49601.114
49600.386
49599.659
49598.94
49598.234
49597.547
49596.882
49596.242
49595.629
49595.044
49594.488
49593.96
49593.461
49592.991
49592.548
49592.132
49591.742
49591.377
49591.036
49590.718
49590.423
49590.149
49589.895
49589.661
49589.447
49589.251
49589.075
49588.918
49588.782
49588.666
49588.571
49588.495
49588.438
49588.398
49588.372
49588.36
49588.358
49588.364
49588.377
49588.394
49588.413
49588.434
49588.457
49588.48
49429.264
49456.583
49481.563
49504.271
49524.795
49543.231
49559.689
49574.288
49587.153
49598.41
49608.191
49616.622
49623.832
49629.942
49635.069
49639.323
49642.809
49645.621
49647.847
49649.568
49650.856
49651.775
49652.383
49652.731
49652.865
49652.822
49652.637
49652.338
49651.952
49651.498
49650.995
49650.459
49649.9
49649.33
49648.757
49648.188
49647.628
49647.082
49646.552
49646.041
49645.551
49645.083
49644.637
49644.214
49643.814
49643.436
49643.08
49642.746
49642.433
49642.14
49641.866
49641.612
49641.375
49641.156
49640.954
49640.769
49640.6
49640.448
49640.313
49640.195
49640.096
49640.014
49639.95
49639.901
49639.867
49639.846
49639.836
49639.834
49639.84
49639.852
49639.867
49639.884
49639.902
49639.921
49639.942
49432.238
49462.656
49490.662
49516.306
49539.658
49560.801
49579.834
49596.867
49612.019
49625.414
49637.18
49647.448
49656.346
49664.003
49670.541
49676.077
49680.722
49684.579
49687.746
49690.311
49692.353
49693.945
49695.153
49696.035
49696.642
49697.02
49697.207
49697.239
49697.145
49696.95
49696.676
49696.341
49695.962
49695.551
49695.119
49694.674
49694.225
49693.777
49693.334
49692.901
49692.48
49692.073
49691.682
49691.308
49690.952
49690.613
49690.293
49689.99
49689.705
49689.437
49689.186
49688.952
49688.733
49688.53
49688.341
49688.167
49688.007
49687.862
49687.731
49687.615
49687.514
49687.429
49687.359
49687.304
49687.263
49687.234
49687.216
49687.208
49687.207
49687.213
49687.223
49687.236
49687.251
49687.267
49687.283
49687.301
49429.62
49463.123
49494.162
49522.767
49548.989
49572.896
49594.573
49614.119
49631.643
49647.266
49661.112
49673.31
49683.992
49693.288
49701.324
49708.226
49714.109
49719.086
49723.262
49726.732
49729.585
49731.902
49733.756
49735.213
49736.33
49737.16
49737.749
49738.136
49738.355
49738.438
49738.409
49738.292
49738.104
49737.862
49737.579
49737.267
49736.935
49736.591
49736.24
49735.888
49735.54
49735.198
49734.864
49734.541
49734.23
49733.932
49733.648
49733.378
49733.122
49732.88
49732.652
49732.438
49732.238
49732.051
49731.877
49731.715
49731.566
49731.429
49731.304
49731.191
49731.092
49731.005
49730.933
49730.873
49730.826
49730.791
49730.767
49730.752
49730.745
49730.745
49730.75
49730.759
49730.77
49730.783
49730.797
49730.811
49730.827
49458.208
49492.271
49523.849
49552.972
49579.69
49604.072
49626.203
49646.183
49664.122
49680.141
49694.365
49706.926
49717.955
49727.584
49735.939
49743.146
49749.322
49754.579
49759.023
49762.749
49765.848
49768.399
49770.476
49772.145
49773.464
49774.486
49775.256
49775.814
49776.196
49776.432
49776.547
49776.565
49776.504
49776.382
49776.211
49776.004
49775.77
49775.517
49775.251
49774.979
49774.705
49774.432
49774.162
49773.899
49773.644
49773.397
49773.161
49772.935
49772.719
49772.516
49772.323
49772.142
49771.972
49771.812
49771.664
49771.526
49771.398
49771.281
49771.174
49771.078
49770.993
49770.919
49770.857
49770.806
49770.767
49770.737
49770.717
49770.705
49770.699