/*--------------------------------*- C++ -*----------------------------------*\
| =========                 |                                                 |
| \\      /  F ield         | OpenFOAM: The Open Source CFD Toolbox           |
|  \\    /   O peration     | Version:  2506                                  |
|   \\  /    A nd           | Website:  www.openfoam.com                      |
|    \\/     M anipulation  |                                                 |
\*---------------------------------------------------------------------------*/
FoamFile
{
    version     2.0;
    format      ascii;
    arch        "LSB;label=32;scalar=64";
    class       volScalarField;
    location    "3e-05";
    object      alphat;
}
// * * * * * * * * * * * * * * * * * * * * * * * * * * * * * * * * * * * * * //

dimensions      [1 -1 -1 0 0 0 0];

internalField   nonuniform List<scalar> 
13761
(
1.479937e-09
1.485427e-09
1.4766763e-09
1.4722928e-09
1.4724768e-09
1.4613597e-09
1.4554303e-09
1.4580775e-09
1.4553707e-09
1.4542273e-09
1.4586192e-09
1.4648606e-09
1.4641905e-09
1.4485754e-09
1.4212462e-09
1.3899853e-09
1.3765118e-09
1.3852659e-09
1.4049064e-09
1.4212453e-09
1.4287287e-09
1.4394643e-09
1.4623625e-09
1.4962664e-09
1.5298167e-09
1.5663289e-09
1.6197399e-09
1.6797539e-09
1.7467058e-09
1.8177932e-09
1.853773e-09
1.8645304e-09
1.8366146e-09
1.7355024e-09
1.6403275e-09
1.6076408e-09
1.6752094e-09
1.755402e-09
1.7597953e-09
1.7302969e-09
1.7607195e-09
1.8289987e-09
1.8850459e-09
1.9311312e-09
1.9822665e-09
2.0216003e-09
2.0497996e-09
2.0869283e-09
2.1339705e-09
2.1802565e-09
2.2196956e-09
2.2633709e-09
2.3251232e-09
2.4111109e-09
2.5216394e-09
2.6386882e-09
2.7525194e-09
2.842568e-09
3.0053464e-09
9.6312983e-09
3.154814e-05
0.00067280913
0.0020943995
0.0038290414
0.0056148591
0.0073075094
0.0088315016
0.010154199
0.011268336
0.012181559
0.012908621
0.01346586
0.013870617
0.014139869
0.014289381
0.014333566
0.01428556
0.014156545
0.013956609
0.013694537
0.013377708
0.013012384
0.012603715
0.012155609
0.011670385
0.011148607
0.010588596
0.0099861252
0.0093348993
0.0086271812
0.0078551265
0.0070140127
0.0061085202
0.0051546181
0.0041823131
0.0032341738
0.002359683
0.0016049651
0.0010020137
0.00056102651
0.00027081275
0.00010399213
2.6470647e-05
1.9319778e-06
1.1525883e-20
1.4787122e-09
1.4857888e-09
1.4770833e-09
1.4726363e-09
1.4729266e-09
1.4618607e-09
1.4557438e-09
1.4583138e-09
1.4553999e-09
1.4541209e-09
1.458109e-09
1.4635727e-09
1.4616735e-09
1.4435709e-09
1.4126834e-09
1.3768176e-09
1.3577447e-09
1.3600244e-09
1.3714568e-09
1.3805559e-09
1.3807387e-09
1.383501e-09
1.3968019e-09
1.4189093e-09
1.4393237e-09
1.4607489e-09
1.4949072e-09
1.5277827e-09
1.5547429e-09
1.5863578e-09
1.6249922e-09
1.6639302e-09
1.6901282e-09
1.6702239e-09
1.6195697e-09
1.6050718e-09
1.6814634e-09
1.768425e-09
1.7755269e-09
1.7472684e-09
1.779986e-09
1.8508368e-09
1.9098296e-09
1.9584417e-09
2.0108244e-09
2.0519445e-09
2.0826342e-09
2.1219259e-09
2.1720166e-09
2.2213637e-09
2.2641501e-09
2.3086318e-09
2.3724945e-09
2.461257e-09
2.5733982e-09
2.6903681e-09
2.7994685e-09
2.8937781e-09
3.4098842e-09
1.3193591e-07
5.4533455e-05
0.0008479702
0.002399428
0.0042239069
0.0060746927
0.0078126328
0.0093668648
0.010708219
0.011831721
0.01274496
0.013462253
0.014001154
0.014380135
0.014617232
0.014729213
0.014731431
0.014637983
0.014460539
0.014210237
0.01389645
0.013527402
0.0131103
0.012651366
0.012155756
0.011627192
0.011067773
0.010477509
0.0098539273
0.0091923382
0.0084861019
0.0077276476
0.0069110815
0.0060378085
0.0051188188
0.004178036
0.0032526856
0.0023895822
0.0016354014
0.0010255972
0.00057509581
0.00027658139
0.00010487062
2.5754688e-05
1.5386203e-06
1.9263064e-21
1.4861614e-09
1.4775023e-09
1.4729663e-09
1.473374e-09
1.4623909e-09
1.4560734e-09
1.4586239e-09
1.4557086e-09
1.4541214e-09
1.457954e-09
1.4632044e-09
1.4613664e-09
1.4431276e-09
1.4119916e-09
1.3756208e-09
1.3557451e-09
1.3570434e-09
1.3661305e-09
1.3738675e-09
1.372454e-09
1.3734248e-09
1.384205e-09
1.4032683e-09
1.4205781e-09
1.4385615e-09
1.4679689e-09
1.4945008e-09
1.5133025e-09
1.5339889e-09
1.5590215e-09
1.5840686e-09
1.5952846e-09
1.5621354e-09
1.5112515e-09
1.5059426e-09
1.5848325e-09
1.6928806e-09
1.7272482e-09
1.7236607e-09
1.765674e-09
1.8436429e-09
1.9080555e-09
1.9596264e-09
2.0140157e-09
2.0576398e-09
2.090651e-09
2.1314501e-09
2.1838492e-09
2.2369566e-09
2.2843333e-09
2.3324048e-09
2.3971751e-09
2.486551e-09
2.5985623e-09
2.7155857e-09
2.8236323e-09
2.9169609e-09
3.3048514e-09
9.2558147e-08
4.4947759e-05
0.00084070043
0.0024165454
0.0042673763
0.0061464445
0.0079131656
0.0094955592
0.010862671
0.012006947
0.012935634
0.013663563
0.014209005
0.01459122
0.014828941
0.01493946
0.014938427
0.014840233
0.014656753
0.014399315
0.014077445
0.013699515
0.013272897
0.012803992
0.012298155
0.011759347
0.011190012
0.010590504
0.0099586886
0.0092901738
0.008578495
0.0078160442
0.0069965577
0.0061206133
0.0051980416
0.0042515871
0.0033176928
0.0024432082
0.001675894
0.0010529924
0.0005912097
0.00028438162
0.00010759424
2.6174627e-05
1.4899344e-06
2.0861836e-21
1.4865674e-09
1.4779332e-09
1.4733136e-09
1.4738185e-09
1.462942e-09
1.4564269e-09
1.4589864e-09
1.4561198e-09
1.4544331e-09
1.4579539e-09
1.4630733e-09
1.46135e-09
1.4434496e-09
1.4128272e-09
1.3766526e-09
1.3563804e-09
1.357068e-09
1.365184e-09
1.3725148e-09
1.3705686e-09
1.3710792e-09
1.3809376e-09
1.3989783e-09
1.4156063e-09
1.433183e-09
1.4622592e-09
1.4883343e-09
1.5060774e-09
1.5245801e-09
1.5462043e-09
1.5672477e-09
1.5741169e-09
1.5396057e-09
1.4839165e-09
1.4720419e-09
1.5364246e-09
1.6379761e-09
1.6715838e-09
1.6697569e-09
1.7109882e-09
1.7933908e-09
1.8677268e-09
1.9281576e-09
1.9892361e-09
2.0418441e-09
2.0837649e-09
2.1283581e-09
2.1832106e-09
2.2387817e-09
2.2892711e-09
2.3408454e-09
2.4073719e-09
2.4976487e-09
2.609644e-09
2.7269676e-09
2.8345611e-09
2.92642e-09
3.2424909e-09
5.616457e-08
3.0786676e-05
0.0007194559
0.0022686681
0.0041305644
0.0060463052
0.0078567947
0.0094804986
0.010884408
0.012062583
0.013023448
0.013782158
0.014356806
0.01476597
0.015027737
0.015159234
0.015175979
0.015092191
0.014919865
0.014670269
0.014353102
0.013976898
0.013549212
0.013076644
0.012564742
0.012017621
0.011437814
0.010825706
0.010179137
0.0094936647
0.0087627816
0.0079788911
0.0071359404
0.0062349825
0.005286939
0.0043161524
0.0033608388
0.0024692498
0.0016898018
0.0010594359
0.00059380293
0.00028538965
0.00010809577
2.6470362e-05
1.5716813e-06
1.7186723e-21
1.4869712e-09
1.4783706e-09
1.473663e-09
1.4742542e-09
1.463503e-09
1.4567903e-09
1.4593565e-09
1.4565781e-09
1.454827e-09
1.4582318e-09
1.4631822e-09
1.4617598e-09
1.444104e-09
1.4138452e-09
1.3778699e-09
1.3574084e-09
1.3579585e-09
1.3649904e-09
1.3720134e-09
1.3696731e-09
1.3699478e-09
1.3791049e-09
1.3963726e-09
1.4126472e-09
1.4302587e-09
1.4596808e-09
1.4863102e-09
1.5044691e-09
1.5232127e-09
1.5445665e-09
1.565381e-09
1.571962e-09
1.5382703e-09
1.4810267e-09
1.4664842e-09
1.5214956e-09
1.6201712e-09
1.6538777e-09
1.6528544e-09
1.6888072e-09
1.76915e-09
1.8454956e-09
1.9077042e-09
1.9696426e-09
2.0260512e-09
2.071713e-09
2.118425e-09
2.174995e-09
2.2346715e-09
2.2895824e-09
2.3436857e-09
2.4109955e-09
2.5013753e-09
2.612991e-09
2.730253e-09
2.8376202e-09
2.9285468e-09
3.1701255e-09
3.2312218e-08
1.9806074e-05
0.00061137479
0.0021250253
0.0039712338
0.0058897705
0.0077170472
0.0093674557
0.010802914
0.012013201
0.013004072
0.013789579
0.014387549
0.014816809
0.015095971
0.015242074
0.015270655
0.015196083
0.015030539
0.014785324
0.014470303
0.014094164
0.013664655
0.013188604
0.01267182
0.012118703
0.011532106
0.010912747
0.010258805
0.0095661584
0.0088285588
0.0080385761
0.0071901687
0.0062841788
0.0053311562
0.0043550193
0.0033937148
0.0024954572
0.001709076
0.0010722055
0.00060117633
0.00028888637
0.00010927162
2.662767e-05
1.5447059e-06
1.592168e-21
1.4873086e-09
1.4788107e-09
1.474013e-09
1.4746832e-09
1.4640751e-09
1.4571584e-09
1.4597269e-09
1.4570481e-09
1.4552619e-09
1.4585691e-09
1.4634888e-09
1.462337e-09
1.445059e-09
1.4152781e-09
1.3795621e-09
1.3588887e-09
1.3592241e-09
1.3653433e-09
1.3718999e-09
1.3692914e-09
1.3693963e-09
1.3777984e-09
1.3942364e-09
1.4100196e-09
1.4274471e-09
1.4571326e-09
1.484583e-09
1.5036206e-09
1.5230375e-09
1.5444971e-09
1.5661628e-09
1.5745369e-09
1.5463022e-09
1.4883913e-09
1.4695654e-09
1.5175087e-09
1.615716e-09
1.651043e-09
1.6504791e-09
1.6825885e-09
1.7608597e-09
1.8383478e-09
1.901324e-09
1.9632361e-09
2.0220198e-09
2.0695819e-09
2.1169379e-09
2.1736235e-09
2.2343112e-09
2.291957e-09
2.3490288e-09
2.4165501e-09
2.5060874e-09
2.6161528e-09
2.7326949e-09
2.8400464e-09
2.9298943e-09
3.1117928e-09
1.801936e-08
1.0676449e-05
0.00047249498
0.0019091502
0.0037167544
0.0056325675
0.0074778335
0.0091561167
0.010624016
0.011868921
0.012895247
0.013716068
0.014348346
0.01481027
0.01511973
0.015293467
0.015346784
0.015293843
0.015146925
0.014917207
0.014614727
0.014248286
0.013825747
0.013354046
0.012839099
0.012285399
0.011695868
0.011071262
0.010409769
0.0097072552
0.0089574866
0.0081531317
0.0072884313
0.0063647183
0.0053934834
0.0043999323
0.0034233748
0.0025130697
0.001718287
0.0010763763
0.00060283897
0.00028956443
0.00010964799
2.6857136e-05
1.6076819e-06
1.5078204e-21
1.4862932e-09
1.4792336e-09
1.4743653e-09
1.475103e-09
1.464651e-09
1.4575333e-09
1.4600924e-09
1.4575169e-09
1.4556942e-09
1.4589287e-09
1.4638336e-09
1.4629853e-09
1.4461253e-09
1.4168507e-09
1.3814253e-09
1.36055e-09
1.3607235e-09
1.366394e-09
1.3721228e-09
1.3692334e-09
1.3692696e-09
1.3770333e-09
1.3926976e-09
1.4079638e-09
1.4250918e-09
1.4548952e-09
1.4830758e-09
1.5029652e-09
1.5230952e-09
1.5448225e-09
1.5674236e-09
1.5774758e-09
1.5538758e-09
1.4964888e-09
1.4759281e-09
1.5161778e-09
1.6142762e-09
1.6532573e-09
1.6565907e-09
1.6822254e-09
1.7596075e-09
1.8378298e-09
1.9012456e-09
1.9630867e-09
2.0237665e-09
2.0763301e-09
2.1254058e-09
2.1817248e-09
2.2441965e-09
2.3048873e-09
2.3631259e-09
2.430124e-09
2.5180547e-09
2.6261488e-09
2.7415126e-09
2.847947e-09
2.9356244e-09
3.0807278e-09
1.1044649e-08
5.7043291e-06
0.0003564144
0.0017084438
0.0034743993
0.0053804476
0.0072354174
0.0089356856
0.01043299
0.011711146
0.012771953
0.013626726
0.014291278
0.014783124
0.015119752
0.015317574
0.015391966
0.015356936
0.015224953
0.015007149
0.014713758
0.014353727
0.013935111
0.013465077
0.012949776
0.012393955
0.011800785
0.011171263
0.010503806
0.0097945008
0.0090372955
0.008224997
0.0073519469
0.006419528
0.0054393535
0.0044368554
0.0034516776
0.0025334738
0.0017319314
0.001084695
0.00060735015
0.00029164988
0.00011039661
2.7024928e-05
1.618694e-06
1.4518602e-21
1.4796288e-09
1.4747208e-09
1.4755201e-09
1.4652279e-09
1.4579084e-09
1.4604566e-09
1.4579839e-09
1.4561119e-09
1.4592788e-09
1.4641856e-09
1.46364e-09
1.447224e-09
1.418476e-09
1.383351e-09
1.3622666e-09
1.3622908e-09
1.3675759e-09
1.3724878e-09
1.3693707e-09
1.3692755e-09
1.3765298e-09
1.391453e-09
1.4061669e-09
1.4228933e-09
1.4526876e-09
1.4815784e-09
1.5024114e-09
1.5235023e-09
1.5457396e-09
1.5691293e-09
1.5807656e-09
1.5618847e-09
1.5053161e-09
1.4823842e-09
1.5157236e-09
1.61308e-09
1.6575056e-09
1.6643929e-09
1.6857887e-09
1.7613773e-09
1.8423065e-09
1.9077922e-09
1.9701905e-09
2.0340447e-09
2.0893734e-09
2.1399184e-09
2.1961526e-09
2.2592056e-09
2.3221266e-09
2.3826456e-09
2.4497769e-09
2.5363123e-09
2.642642e-09
2.7570517e-09
2.8638477e-09
2.9523945e-09
3.0681977e-09
7.16283e-09
2.640034e-06
0.00025051119
0.0014924696
0.0032064786
0.0051006163
0.0069677813
0.0086930198
0.010221541
0.011533866
0.012630038
0.013520403
0.014220061
0.014745983
0.015115172
0.015343781
0.015446687
0.015437656
0.015329176
0.015132006
0.014856393
0.014511228
0.014104532
0.013643458
0.013134161
0.012581377
0.01198825
0.011355735
0.010682195
0.0099636742
0.0091941202
0.0083664401
0.0074752782
0.0065225707
0.0055210193
0.0044975603
0.0034935039
0.0025598369
0.0017469683
0.001092416
0.00061095962
0.00029326247
0.00011113933
2.7356453e-05
1.6957925e-06
1.4868246e-21
1.4800084e-09
1.4750798e-09
1.4759384e-09
1.4658089e-09
1.4582907e-09
1.4608161e-09
1.458449e-09
1.4565193e-09
1.4596105e-09
1.4645217e-09
1.4642691e-09
1.4483166e-09
1.420102e-09
1.3852794e-09
1.3639722e-09
1.3638488e-09
1.3688333e-09
1.3728479e-09
1.3696216e-09
1.3694599e-09
1.3761528e-09
1.3903728e-09
1.4045147e-09
1.4207583e-09
1.4503915e-09
1.4799047e-09
1.5016423e-09
1.5236464e-09
1.5466068e-09
1.570867e-09
1.5842148e-09
1.5701425e-09
1.5151192e-09
1.4896592e-09
1.5156908e-09
1.6114785e-09
1.6618465e-09
1.6726958e-09
1.6901788e-09
1.7643755e-09
1.8467597e-09
1.9143269e-09
1.978046e-09
2.0446522e-09
2.1039687e-09
2.156789e-09
2.2133462e-09
2.2771163e-09
2.3423741e-09
2.4053727e-09
2.4730531e-09
2.5583105e-09
2.6629604e-09
2.7764378e-09
2.8834035e-09
2.9722001e-09
3.0728556e-09
5.3458449e-09
1.2175193e-06
0.00016941248
0.0012881304
0.0029497202
0.0048284918
0.0067041271
0.0084517857
0.010010361
0.011356514
0.012487943
0.013413599
0.014147705
0.014706668
0.015107084
0.015364795
0.015494418
0.015509498
0.015422472
0.01524394
0.014984005
0.014651567
0.014254637
0.013800393
0.013295059
0.012743463
0.012148854
0.011512295
0.010832255
0.01010489
0.0093242765
0.0084834852
0.0075774263
0.006608442
0.005589962
0.0045499201
0.0035307469
0.0025843794
0.0017618128
0.0011005971
0.00061505955
0.00029514899
0.00011194903
2.7658997e-05
1.7545285e-06
1.5146218e-21
1.4803474e-09
1.475447e-09
1.4763538e-09
1.4663958e-09
1.4586733e-09
1.4611703e-09
1.4589137e-09
1.4569254e-09
1.4599266e-09
1.4648409e-09
1.4648608e-09
1.4493854e-09
1.4217043e-09
1.3871813e-09
1.3656444e-09
1.3653732e-09
1.3701372e-09
1.3731771e-09
1.3698872e-09
1.3696366e-09
1.3758391e-09
1.3893977e-09
1.4029553e-09
1.4186373e-09
1.4479328e-09
1.4779436e-09
1.5005475e-09
1.5236233e-09
1.5473686e-09
1.5724928e-09
1.5877026e-09
1.5782816e-09
1.5256345e-09
1.4975077e-09
1.5164731e-09
1.6098497e-09
1.6661622e-09
1.6810948e-09
1.6956173e-09
1.7676949e-09
1.8511205e-09
1.9210624e-09
1.9865534e-09
2.0559656e-09
2.1194103e-09
2.1750128e-09
2.2323164e-09
2.2966532e-09
2.3640111e-09
2.4298251e-09
2.4987578e-09
2.5830506e-09
2.6862036e-09
2.7988796e-09
2.9065976e-09
2.9965024e-09
3.0868634e-09
4.3200727e-09
5.0555131e-07
0.00010712807
0.001081892
0.0026876992
0.0045490788
0.0064339697
0.0082054235
0.0097949466
0.011175256
0.012341954
0.013302897
0.014071656
0.014664219
0.015096866
0.015385162
0.015543469
0.015585116
0.01552236
0.015365795
0.015125239
0.014809543
0.014426591
0.013983447
0.013486222
0.012939616
0.012346719
0.011708414
0.01102298
0.010286411
0.00949271
0.0086350429
0.0077087245
0.0067168844
0.0056743962
0.0046111013
0.0035714402
0.0026088474
0.0017749647
0.001106933
0.00061793247
0.00029654001
0.0001127293
2.8073614e-05
1.8677365e-06
1.683927e-21
1.4792976e-09
1.4758144e-09
1.4767626e-09
1.466988e-09
1.4590616e-09
1.4615099e-09
1.4593781e-09
1.4573307e-09
1.4602358e-09
1.4651481e-09
1.4654212e-09
1.4504303e-09
1.4232809e-09
1.3890525e-09
1.3672778e-09
1.3668576e-09
1.3714873e-09
1.3734677e-09
1.3701455e-09
1.3698183e-09
1.3755634e-09
1.3885136e-09
1.4014836e-09
1.4165368e-09
1.4453316e-09
1.4757142e-09
1.4991424e-09
1.5230832e-09
1.5477694e-09
1.5738334e-09
1.5911254e-09
1.5860116e-09
1.5367022e-09
1.50574e-09
1.5185927e-09
1.6077585e-09
1.6699829e-09
1.6893201e-09
1.701988e-09
1.7711839e-09
1.8549606e-09
1.9274259e-09
1.9951239e-09
2.0672008e-09
2.1349207e-09
2.1938093e-09
2.2522554e-09
2.3170671e-09
2.3862049e-09
2.4549343e-09
2.5256702e-09
2.6093909e-09
2.711231e-09
2.8232083e-09
2.9316275e-09
3.0231647e-09
3.1090433e-09
3.8219464e-09
2.1074924e-07
6.3853824e-05
0.00088638283
0.0024316111
0.004269867
0.0061605063
0.0079540861
0.0095739468
0.010988228
0.012190094
0.013186132
0.01398923
0.014614981
0.015079396
0.015397811
0.015584353
0.015652212
0.015613437
0.015478603
0.015257223
0.014958095
0.014588962
0.014156766
0.013667505
0.013125766
0.012534507
0.011894461
0.011203754
0.010458263
0.0096519516
0.0087781166
0.0078324883
0.006818964
0.0057538057
0.0046686478
0.0036097918
0.0026320377
0.0017875615
0.0011130619
0.00062065823
0.0002977747
0.00011339439
2.8445964e-05
1.9756462e-06
1.8649636e-21
1.4761603e-09
1.4771707e-09
1.4675886e-09
1.4594554e-09
1.4618361e-09
1.4598365e-09
1.4577322e-09
1.4605433e-09
1.465446e-09
1.4659467e-09
1.4514538e-09
1.4248344e-09
1.3908972e-09
1.3688748e-09
1.3682975e-09
1.3728842e-09
1.3737584e-09
1.370389e-09
1.3699958e-09
1.3753154e-09
1.3877175e-09
1.4001015e-09
1.4144781e-09
1.4426432e-09
1.4732569e-09
1.4974274e-09
1.5222735e-09
1.5478321e-09
1.5747862e-09
1.5943375e-09
1.5930373e-09
1.5481352e-09
1.5142565e-09
1.5217935e-09
1.6050383e-09
1.6730139e-09
1.6971912e-09
1.7093699e-09
1.7748312e-09
1.8582325e-09
1.9332054e-09
2.0034344e-09
2.0780586e-09
2.1502027e-09
2.2129212e-09
2.2728087e-09
2.3379458e-09
2.4084758e-09
2.4800603e-09
2.5531065e-09
2.636763e-09
2.7373895e-09
2.8486966e-09
2.9579972e-09
3.0514008e-09
3.1337504e-09
3.5451742e-09
8.4319179e-08
3.512753e-05
0.00070103148
0.0021783684
0.0039887649
0.0058842571
0.007700418
0.0093510754
0.010799364
0.012036012
0.013066469
0.013903109
0.014561265
0.0150568
0.015404896
0.015619496
0.015713772
0.015699472
0.015587158
0.015385991
0.015104685
0.014750783
0.014331031
0.013851231
0.013315761
0.012727343
0.01208645
0.011390944
0.010636494
0.0098169829
0.0089258489
0.0079593426
0.0069223277
0.005832712
0.0047242129
0.0036452234
0.0026519749
0.0017971762
0.0011169435
0.00062206243
0.00029843749
0.00011391992
2.8834321e-05
2.1060551e-06
2.1674028e-21
1.4764756e-09
1.4775816e-09
1.468197e-09
1.4598509e-09
1.4621472e-09
1.4602879e-09
1.4581305e-09
1.4608472e-09
1.465731e-09
1.4664408e-09
1.4524568e-09
1.426371e-09
1.3927209e-09
1.3704459e-09
1.3696811e-09
1.3743375e-09
1.3741375e-09
1.3706518e-09
1.3701615e-09
1.3750962e-09
1.3870102e-09
1.3988283e-09
1.4125035e-09
1.4399189e-09
1.4706154e-09
1.4953899e-09
1.5209591e-09
1.5473504e-09
1.5753032e-09
1.5972559e-09
1.5993069e-09
1.5598969e-09
1.5231286e-09
1.5258366e-09
1.6021654e-09
1.6752004e-09
1.7045681e-09
1.7176193e-09
1.7786088e-09
1.8609525e-09
1.9382528e-09
2.0112153e-09
2.0883477e-09
2.1650042e-09
2.232077e-09
2.2937967e-09
2.3591477e-09
2.4307155e-09
2.5049174e-09
2.5806094e-09
2.6647784e-09
2.7644384e-09
2.875145e-09
2.9851359e-09
3.0807123e-09
3.1619809e-09
3.4201466e-09
3.6181612e-08
1.7928926e-05
0.00053255803
0.0019302828
0.0037049743
0.0056019532
0.0074397952
0.0091213811
0.010604036
0.011875694
0.012940535
0.01381044
0.014500543
0.015026649
0.015403864
0.015646193
0.015766502
0.015776441
0.015686617
0.015505894
0.015242763
0.014904603
0.014497926
0.014028294
0.013499834
0.012914989
0.012273932
0.011574234
0.010811338
0.0099790469
0.0090709632
0.0080838906
0.0070236533
0.005909861
0.0047783273
0.0036795347
0.0026712175
0.0018065084
0.0011208078
0.0006235401
0.00029917638
0.00011449557
2.9249077e-05
2.2473087e-06
2.5377122e-21
1.4767792e-09
1.4779882e-09
1.468816e-09
1.4602619e-09
1.4624483e-09
1.460731e-09
1.458526e-09
1.4611422e-09
1.4660036e-09
1.4669058e-09
1.4534406e-09
1.4278886e-09
1.3945356e-09
1.3719988e-09
1.37099e-09
1.3758419e-09
1.3747205e-09
1.3709981e-09
1.370314e-09
1.3749105e-09
1.3863954e-09
1.3976819e-09
1.4106389e-09
1.4371848e-09
1.4677882e-09
1.4930789e-09
1.5193192e-09
1.5465876e-09
1.5754672e-09
1.5998036e-09
1.6049809e-09
1.5719461e-09
1.5324188e-09
1.5307596e-09
1.5993159e-09
1.6763598e-09
1.7112202e-09
1.7265592e-09
1.7826066e-09
1.8632569e-09
1.9425166e-09
2.0182778e-09
2.0979874e-09
2.1791884e-09
2.2511133e-09
2.3152105e-09
2.3806436e-09
2.4528746e-09
2.5293329e-09
2.6078595e-09
2.6931995e-09
2.7921918e-09
2.9022895e-09
3.0129757e-09
3.110655e-09
3.1916263e-09
3.3629173e-09
1.685402e-08
8.3916485e-06
0.00038548611
0.0016899171
0.0034229581
0.0053196449
0.0071791912
0.0088921914
0.010409506
0.011716059
0.012814733
0.013717005
0.014437923
0.014993364
0.015398466
0.015667273
0.015812592
0.015846034
0.01577806
0.015617494
0.015372504
0.015050291
0.014657087
0.014198158
0.013677319
0.01309666
0.012455984
0.011752501
0.010981381
0.010136315
0.0092110823
0.0082031008
0.0071193167
0.0059811956
0.0048268565
0.0037089703
0.0026865845
0.0018130796
0.0011229493
0.00062410866
0.00029953982
0.00011498049
2.9679058e-05
2.4087897e-06
3.0839212e-21
1.4770501e-09
1.4783823e-09
1.4694453e-09
1.4606797e-09
1.4627427e-09
1.4611697e-09
1.4589175e-09
1.4614276e-09
1.4662651e-09
1.4673441e-09
1.4544011e-09
1.4293859e-09
1.3963417e-09
1.3735345e-09
1.372233e-09
1.3773448e-09
1.375561e-09
1.371458e-09
1.3704538e-09
1.3747564e-09
1.385872e-09
1.3966692e-09
1.4088874e-09
1.4344759e-09
1.4648675e-09
1.49059e-09
1.5174609e-09
1.5455986e-09
1.5753879e-09
1.6018157e-09
1.6101602e-09
1.5840237e-09
1.5422657e-09
1.5367676e-09
1.5968223e-09
1.6767333e-09
1.7171107e-09
1.735964e-09
1.7870168e-09
1.8654074e-09
1.9461033e-09
2.0245732e-09
2.1069895e-09
2.1926389e-09
2.2698457e-09
2.337084e-09
2.4026006e-09
2.4750981e-09
2.5533853e-09
2.6347349e-09
2.7217975e-09
2.8205952e-09
2.9302206e-09
3.0414054e-09
3.1412367e-09
3.2236067e-09
3.3517755e-09
9.3457041e-09
3.6322356e-06
0.00026382327
0.0014567975
0.0031407847
0.0050339387
0.0069147166
0.0086599285
0.010212987
0.011555306
0.012688237
0.013622811
0.014374032
0.01495794
0.015389818
0.015683858
0.015852917
0.015908662
0.015861446
0.015720098
0.015492484
0.01518565
0.014805542
0.014357117
0.013843855
0.013267472
0.012627373
0.011920388
0.011141392
0.010283974
0.0093421227
0.0083139064
0.0072074038
0.0060460187
0.0048700807
0.0037343196
0.0026990236
0.001817723
0.0011239343
0.0006240507
0.00029960197
0.00011534395
3.007691e-05
2.5727536e-06
3.7708982e-21
1.4759279e-09
1.4787512e-09
1.4700842e-09
1.4611067e-09
1.4630262e-09
1.4616039e-09
1.4593095e-09
1.4617075e-09
1.466519e-09
1.4677591e-09
1.4553378e-09
1.4308638e-09
1.3981379e-09
1.3750561e-09
1.3734245e-09
1.3787969e-09
1.3766024e-09
1.3719788e-09
1.3705779e-09
1.3746269e-09
1.3854277e-09
1.395781e-09
1.407271e-09
1.4318516e-09
1.4619443e-09
1.4879979e-09
1.5153914e-09
1.5443106e-09
1.5746553e-09
1.6034076e-09
1.6149304e-09
1.5957751e-09
1.5530029e-09
1.5436886e-09
1.5948853e-09
1.6766029e-09
1.7222921e-09
1.7455564e-09
1.7920839e-09
1.8677094e-09
1.9491914e-09
2.0301316e-09
2.115405e-09
2.2053679e-09
2.2881564e-09
2.3592861e-09
2.4251373e-09
2.4974661e-09
2.577169e-09
2.6611507e-09
2.750375e-09
2.8495396e-09
2.9588257e-09
3.0706092e-09
3.172406e-09
3.2566584e-09
3.3607156e-09
6.1296149e-09
1.4557076e-06
0.00016982709
0.0012343694
0.0028649189
0.0047523694
0.006654329
0.008432666
0.010022491
0.011401235
0.012568516
0.013534865
0.014315292
0.014926095
0.015382831
0.015699977
0.01589062
0.015966544
0.015938103
0.015814206
0.015602463
0.015309802
0.014941887
0.01450335
0.013997309
0.013425058
0.012785548
0.012075164
0.011288452
0.0104189
0.0094607278
0.0084127433
0.0072843154
0.0061007964
0.0049047283
0.0037528143
0.002706418
0.0018190051
0.0011229289
0.00062297467
0.00029924116
0.00011558943
3.0474015e-05
2.753968e-06
4.7621744e-21
1.4790807e-09
1.4707238e-09
1.4615458e-09
1.4633125e-09
1.4620327e-09
1.459699e-09
1.461984e-09
1.4667695e-09
1.4681551e-09
1.4562568e-09
1.4323205e-09
1.3999236e-09
1.3765708e-09
1.3745728e-09
1.3801726e-09
1.3777943e-09
1.3725294e-09
1.370693e-09
1.3745192e-09
1.3850488e-09
1.3950138e-09
1.4058026e-09
1.4293646e-09
1.4590459e-09
1.4853209e-09
1.5131532e-09
1.5428264e-09
1.5738418e-09
1.6045718e-09
1.6192654e-09
1.6068861e-09
1.5646644e-09
1.5515935e-09
1.5937042e-09
1.6745909e-09
1.7268359e-09
1.7550835e-09
1.7980094e-09
1.8704523e-09
1.9520009e-09
2.0350387e-09
2.1232457e-09
2.2173462e-09
2.3058494e-09
2.3815828e-09
2.4483738e-09
2.5201241e-09
2.60081e-09
2.6870814e-09
2.7786651e-09
2.8787932e-09
2.9881455e-09
3.1005743e-09
3.204464e-09
3.2913771e-09
3.3838581e-09
4.7467766e-09
5.4920274e-07
0.00010290263
0.0010187966
0.0025934396
0.0044719005
0.0063944967
0.008207101
0.0098354597
0.011252302
0.01245515
0.013453843
0.014263369
0.014900314
0.015380606
0.015719115
0.015929271
0.016023087
0.016011082
0.015902363
0.015704341
0.015423872
0.015066406
0.014636293
0.014136302
0.013567322
0.012927861
0.012213873
0.011419613
0.010538455
0.0095649231
0.0084985662
0.0073499645
0.0061463848
0.0049323521
0.0037663742
0.002710706
0.001818518
0.001121008
0.0006214691
0.00029869573
0.00011576258
3.0855643e-05
2.9394007e-06
6.0297179e-21
1.4793844e-09
1.4713616e-09
1.4619987e-09
1.4635992e-09
1.4624552e-09
1.4600927e-09
1.462256e-09
1.4670189e-09
1.4685313e-09
1.4571637e-09
1.4337557e-09
1.4016993e-09
1.3780804e-09
1.3756833e-09
1.3814642e-09
1.379117e-09
1.3731344e-09
1.3708043e-09
1.3744162e-09
1.3847204e-09
1.3943513e-09
1.4045015e-09
1.4270031e-09
1.4561937e-09
1.4825824e-09
1.5107544e-09
1.5411473e-09
1.5728868e-09
1.6051582e-09
1.6232035e-09
1.6171794e-09
1.5772095e-09
1.5606587e-09
1.5933892e-09
1.6715915e-09
1.7306114e-09
1.7642658e-09
1.8048929e-09
1.8738285e-09
1.9547282e-09
2.0394104e-09
2.1304999e-09
2.2285279e-09
2.3227063e-09
2.4037152e-09
2.4722965e-09
2.543224e-09
2.6244162e-09
2.7125918e-09
2.8065236e-09
2.908141e-09
3.0180582e-09
3.1314266e-09
3.2372107e-09
3.3269006e-09
3.4135386e-09
4.1042286e-09
1.9985376e-07
5.8053876e-05
0.00081859925
0.0023323507
0.0041980736
0.0061408633
0.0079891333
0.0096580861
0.011115035
0.012355034
0.013387039
0.014225962
0.01488869
0.015391592
0.015749974
0.015977827
0.016087472
0.0160897
0.015993955
0.015807576
0.015537363
0.015188625
0.014765436
0.014270218
0.013703435
0.013063125
0.012344789
0.011542366
0.010649201
0.0096601517
0.0085755609
0.0074072351
0.0061843482
0.0049534514
0.0037747213
0.0027111139
0.0018154358
0.0011175628
0.00061919482
0.00029783547
0.0001158487
3.1232989e-05
3.1386353e-06
7.853671e-21
1.4796504e-09
1.4719832e-09
1.4624622e-09
1.4638784e-09
1.4628733e-09
1.4604844e-09
1.4625267e-09
1.4672676e-09
1.4688867e-09
1.4580611e-09
1.435174e-09
1.4034644e-09
1.3795853e-09
1.3767648e-09
1.3826688e-09
1.3805515e-09
1.3738295e-09
1.3709197e-09
1.3743137e-09
1.384429e-09
1.3938027e-09
1.4033553e-09
1.4247912e-09
1.4534251e-09
1.4798288e-09
1.5082348e-09
1.5392712e-09
1.5716499e-09
1.6053111e-09
1.6268942e-09
1.6265479e-09
1.5905665e-09
1.5709494e-09
1.5937923e-09
1.6689604e-09
1.7333939e-09
1.7728674e-09
1.8127286e-09
1.8780114e-09
1.9576207e-09
2.0434132e-09
2.1371569e-09
2.2388981e-09
2.3386833e-09
2.4254889e-09
2.4967774e-09
2.5670512e-09
2.6481882e-09
2.7378619e-09
2.8339196e-09
2.9373432e-09
3.0484007e-09
3.1630607e-09
3.2711586e-09
3.3640249e-09
3.4476817e-09
3.8252778e-09
7.3551989e-08
3.0272885e-05
0.00063530541
0.0020801008
0.0039277466
0.0058897177
0.0077750812
0.0094871411
0.010986977
0.012266714
0.013334122
0.014203872
0.01489306
0.01541848
0.015796052
0.016040205
0.016163755
0.016177898
0.016092372
0.015914736
0.015651792
0.015308809
0.014889696
0.014396633
0.01382976
0.01318674
0.012462715
0.011651408
0.010746155
0.0097421519
0.0086404964
0.0074541503
0.0062140108
0.0049683999
0.0037789006
0.0027089829
0.0018109737
0.0011134432
0.00061660792
0.00029682411
0.00011585627
3.157633e-05
3.3349411e-06
1.0212026e-20
1.4785587e-09
1.4725726e-09
1.4629424e-09
1.4641589e-09
1.4632863e-09
1.4608792e-09
1.4627948e-09
1.4675119e-09
1.4692254e-09
1.4589509e-09
1.436578e-09
1.405216e-09
1.3810867e-09
1.3778245e-09
1.3837868e-09
1.3820738e-09
1.3746486e-09
1.3710671e-09
1.3742225e-09
1.3841799e-09
1.3933641e-09
1.4023737e-09
1.4227494e-09
1.4507817e-09
1.4771091e-09
1.5056396e-09
1.5372166e-09
1.5701588e-09
1.6051509e-09
1.6304086e-09
1.6349835e-09
1.6044713e-09
1.5822991e-09
1.5966631e-09
1.666667e-09
1.7348939e-09
1.780632e-09
1.8213658e-09
1.8831261e-09
1.9609367e-09
2.047289e-09
2.1433089e-09
2.2484916e-09
2.353699e-09
2.4466557e-09
2.5216492e-09
2.5918595e-09
2.672391e-09
2.7631613e-09
2.8609696e-09
2.9662212e-09
3.0788945e-09
3.1953678e-09
3.3057495e-09
3.4020125e-09
3.4856965e-09
3.7077905e-09
2.9482788e-08
1.4597594e-05
0.0004744315
0.0018413379
0.0036662174
0.0056468664
0.0075710493
0.0093289495
0.010874694
0.012197065
0.013302377
0.01420493
0.014921861
0.015470393
0.015867029
0.016126748
0.01626289
0.016287145
0.016209648
0.016038288
0.015779977
0.015440041
0.015022291
0.014528725
0.013959221
0.013311132
0.012579286
0.011757214
0.01083831
0.0098181756
0.0086987492
0.007494163
0.0062370687
0.0049775071
0.0037783384
0.0027033324
0.0018041527
0.0011079143
0.00061328642
0.00029548865
0.00011575168
3.1896639e-05
3.5362113e-06
1.3552177e-20
1.4731355e-09
1.4634387e-09
1.4644294e-09
1.4636982e-09
1.461277e-09
1.4630602e-09
1.4677486e-09
1.4695523e-09
1.459829e-09
1.437965e-09
1.4069521e-09
1.3825895e-09
1.3788695e-09
1.3848172e-09
1.3836562e-09
1.3756152e-09
1.3713129e-09
1.3741533e-09
1.383981e-09
1.39303e-09
1.4015503e-09
1.4208912e-09
1.4482908e-09
1.4744707e-09
1.5030111e-09
1.5350138e-09
1.5684874e-09
1.6041951e-09
1.6334223e-09
1.642518e-09
1.6185673e-09
1.5943802e-09
1.6013401e-09
1.6649929e-09
1.7354528e-09
1.7874703e-09
1.8306252e-09
1.8893238e-09
1.9649373e-09
2.0512747e-09
2.1490742e-09
2.2573959e-09
2.3678019e-09
2.4670726e-09
2.5466094e-09
2.6177595e-09
2.6974523e-09
2.7887792e-09
2.8878488e-09
2.9946877e-09
3.1093069e-09
3.2282144e-09
3.3417092e-09
3.4412759e-09
3.5254681e-09
3.6771983e-09
1.3916488e-08
6.5397499e-06
0.00033828935
0.0016144697
0.0034110428
0.0054095758
0.0073742333
0.0091808217
0.010775846
0.012144354
0.013290906
0.014229122
0.01497607
0.015549415
0.015965976
0.016241272
0.016389187
0.016421957
0.016350192
0.016182186
0.015925094
0.015584454
0.015164173
0.01466627
0.014090539
0.013434173
0.012691843
0.011857034
0.010923298
0.0098866712
0.0087498647
0.0075280569
0.0062554069
0.0049833741
0.0037758221
0.0026967155
0.0017969641
0.0011022756
0.00060990292
0.0002940805
0.00011557173
3.2171013e-05
3.7285762e-06
1.7839584e-20
1.4736659e-09
1.4639352e-09
1.4647033e-09
1.4641113e-09
1.4616781e-09
1.4633203e-09
1.4679798e-09
1.4698696e-09
1.4606945e-09
1.4393334e-09
1.4086739e-09
1.3840952e-09
1.3798977e-09
1.3857785e-09
1.385265e-09
1.3767385e-09
1.3717102e-09
1.3741054e-09
1.3838238e-09
1.392792e-09
1.4008752e-09
1.4192196e-09
1.4459568e-09
1.4719345e-09
1.5003695e-09