/*--------------------------------*- C++ -*----------------------------------*\
| =========                 |                                                 |
| \\      /  F ield         | OpenFOAM: The Open Source CFD Toolbox           |
|  \\    /   O peration     | Version:  2506                                  |
|   \\  /    A nd           | Website:  www.openfoam.com                      |
|    \\/     M anipulation  |                                                 |
\*---------------------------------------------------------------------------*/
FoamFile
{
    version     2.0;
    format      ascii;
    arch        "LSB;label=32;scalar=64";
    class       volScalarField;
    location    "1.75";
    object      T;
}
// * * * * * * * * * * * * * * * * * * * * * * * * * * * * * * * * * * * * * //

dimensions      [0 0 0 1 0 0 0];

internalField   nonuniform List<scalar> 
1376
(
247.17247
246.6623
246.30685
246.14884
246.04161
245.97211
245.91543
245.86537
245.8214
245.78268
245.75243
245.7284
245.69838
245.67056
245.6616
245.64249
245.62372
245.60863
245.59859
245.59232
245.58397
245.57406
245.56854
245.56563
245.56444
245.56422
245.56284
246.79695
246.20893
246.00004
245.87632
245.85891
245.82608
245.79944
245.7709
245.74782
245.72523
245.70508
245.68006
245.66182
245.64592
245.62667
245.6123
245.60306
245.59248
245.57977
245.56988
245.56504
245.55987
245.55703
245.55682
245.55768
245.55921
245.55889
245.55863
245.56172
246.45966
245.91869
245.76086
245.73417
245.7139
245.70445
245.69532
245.6819
245.67339
245.65918
245.64877
245.63134
245.6191
245.60236
245.59262
245.58575
245.57613
245.56724
245.56002
245.55489
245.55254
245.55173
245.54991
245.54921
245.55083
245.55345
245.55381
245.55436
245.55848
245.56283
246.26498
245.73789
245.63389
245.5765
245.57469
245.5725
245.57572
245.57895
245.58403
245.57899
245.58155
245.57447
245.56735
245.55998
245.55661
245.55121
245.5498
245.55015
245.54584
245.54076
245.53963
245.53921
245.53977
245.54028
245.54333
245.54729
245.54907
245.55089
245.5557
245.56027
245.56358
246.05067
245.56681
245.45664
245.4482
245.4505
245.46256
245.47757
245.48687
245.49914
245.50388
245.51627
245.5174
245.52185
245.5198
245.51895
245.5199
245.52172
245.52637
245.52459
245.5219
245.52393
245.52691
245.52935
245.53281
245.53703
245.54202
245.54508
245.54767
245.55291
245.55778
245.56135
245.56499
245.56707
245.99715
245.44235
245.34604
245.32245
245.34161
245.36054
245.37781
245.38997
245.41051
245.4276
245.44855
245.45682
245.46728
245.47236
245.48037
245.48847
245.49262
245.49745
245.5044
245.50572
245.50807
245.51525
245.5207
245.52603
245.5308
245.53639
245.54066
245.54434
245.55009
245.55524
245.5593
245.56339
245.56575
245.56685
245.88512
245.35106
245.20696
245.21063
245.23711
245.26915
245.29243
245.3043
245.33226
245.35414
245.38552
245.39895
245.41755
245.4306
245.44287
245.45552
245.46635
245.46998
245.48146
245.49121
245.49344
245.50106
245.51165
245.51904
245.52411
245.53066
245.53624
245.54103
245.54744
245.55286
245.55722
245.56166
245.56447
245.56572
245.56718
245.89523
245.2287
245.12297
245.11066
245.15503
245.18268
245.2119
245.23144
245.26117
245.27895
245.32006
245.34215
245.36546
245.3841
245.40435
245.41997
245.44021
245.44816
245.45644
245.47317
245.48138
245.48739
245.50086
245.51193
245.51758
245.52488
245.53196
245.53758
245.54459
245.55049
245.55527
245.5599
245.56311
245.56467
245.56631
245.56821
245.68584
245.17935
245.02437
245.01174
245.0769
245.08695
245.13418
245.16653
245.20686
245.22182
245.26012
245.28758
245.32116
245.3451
245.36947
245.38291
245.40379
245.42932
245.43864
245.45164
245.46926
245.47723
245.48996
245.50334
245.51115
245.5189
245.52766
245.53445
245.54166
245.54817
245.55349
245.55818
245.56169
245.56367
245.56548
245.56759
245.65868
245.00784
244.99964
244.9049
245.00079
244.98829
245.05371
245.0912
245.14994
245.17391
245.20683
245.23115
245.27132
245.30377
245.33827
245.35936
245.37222
245.39932
245.42469
245.43589
245.45224
245.46726
245.48095
245.49397
245.50449
245.51344
245.52342
245.53176
245.53896
245.54573
245.55182
245.55656
245.56028
245.56276
245.56472
245.56704
245.56968
245.46324
244.93019
244.87371
244.84841
244.93316
244.92992
244.99744
245.02157
245.08572
245.11895
245.16444
245.18654
245.22536
245.26252
245.30118
245.3378
245.3559
245.36894
245.40036
245.42607
245.43861
245.45419
245.47264
245.48636
245.498
245.50871
245.51925
245.52891
245.5367
245.54346
245.55005
245.55502
245.55901
245.56197
245.56396
245.56651
245.56922
245.57178
245.40835
244.80536
244.81794
244.80806
244.87846
244.89445
244.94873
244.96968
245.02566
245.05073
245.11424
245.15157
245.18993
245.22356
245.26144
245.301
245.34271
245.35624
245.37382
245.40997
245.43129
245.4435
245.46183
245.47943
245.4921
245.5046
245.51572
245.52588
245.53447
245.54166
245.5483
245.55348
245.55782
245.56128
245.56326
245.56594
245.56885
245.57144
245.57366
245.4203
244.60239
244.79042
244.73231
244.80333
244.82624
244.89873
244.92055
244.98944
245.00793
245.05964
245.10873
245.1666
245.19488
245.22554
245.26607
245.31023
245.34945
245.36262
245.38725
245.42075
245.43763
245.45244
245.47151
245.48679
245.50074
245.51287
245.52334
245.53169
245.54011
245.54684
245.55213
245.55661
245.56059
245.56264
245.56536
245.56853
245.57104
245.57328
245.57501
245.27366
244.5778
244.68688
244.73584
244.75586
244.76137
244.85402
244.85663
244.93807
244.97845
245.02348
245.0627
245.12874
245.16666
245.19682
245.24389
245.28254
245.32319
245.35789
245.3764
245.40366
245.43098
245.44732
245.46478
245.48144
245.49652
245.51025
245.52135
245.52919
245.5382
245.54562
245.5511
245.55545
245.55983
245.56203
245.5649
245.56818
245.57065
245.57288
245.57469
245.57506
245.04643
244.52507
244.5767
244.57962
244.70306
244.70142
244.79879
244.814
244.89051
244.92148
244.99228
245.03776
245.0872
245.12955
245.18008
245.2287
245.26985
245.30182
245.34073
245.37027
245.39425
245.41838
245.44268
245.46106
245.47699
245.49239
245.5072
245.51933
245.52739
245.53617
245.54424
245.55019
245.55452
245.559
245.56138
245.5645
245.56779
245.57025
245.57248
245.57438
245.57479
245.57586
245.073
244.3605
244.58094
244.5511
244.62357
244.64541
244.72816
244.763
244.86608
244.88584
244.94709
245.01316
245.07259
245.10822
245.16062
245.21024
245.25715
245.29382
245.3232
245.36076
245.38885
245.41073
245.43476
245.45812
245.47436
245.48925
245.50402
245.51641
245.52574
245.53502
245.54287
245.54909
245.55377
245.55822
245.56075
245.56398
245.56738
245.56986
245.57215
245.57408
245.57453
245.57571
245.57642
244.97008
244.35308
244.49381
244.4777
244.59467
244.57766
244.70076
244.7116
244.82314
244.87411
244.9328
244.97265
245.05556
245.10345
245.14544
245.19651
245.24123
245.28171
245.31684
245.3479
245.38257
245.40752
245.42952
245.45318
245.47196
245.48709
245.50138
245.5136
245.52398
245.53413
245.54204
245.5479
245.55299
245.55748
245.5602
245.56341
245.56697
245.56954
245.57189
245.57373
245.57428
245.57563
245.57621
245.57624
244.9462
244.27402
244.47115
244.3798
244.54749
244.53013
244.68987
244.68985
244.77914
244.8299
244.92434
244.96456
245.0182
245.09243
245.14741
245.18473
245.22921
245.27048
245.31094
245.34346
245.37321
245.40331
245.42764
245.44944
245.4683
245.48492
245.49943
245.51186
245.52224
245.53282
245.54136
245.547
245.55212
245.55674
245.55959
245.5631
245.56656
245.56929
245.5717
245.57347
245.57406
245.57554
245.57602
245.57611
245.57551
244.87482
244.15143
244.45561
244.33376
244.4968
244.48277
244.64123
244.65595
244.7704
244.81379
244.89269
244.94986
245.00876
245.06929
245.13446
245.1873
245.21922
245.26396
245.30598
245.33917
245.36822
245.39716
245.42489
245.44741
245.46586
245.48237
245.49777
245.51066
245.52119
245.5317
245.54047
245.54606
245.55149
245.55598
245.55892
245.56291
245.5661
245.56917
245.57161
245.57324
245.57391
245.57549
245.57577
245.57598
245.57545
245.57701
244.72474
244.08833
244.35321
244.30897
244.48618
244.44815
244.58285
244.58639
244.71867
244.82509
244.89162
244.92555
244.99938
245.06832
245.11237
245.17003
245.22001
245.25967
245.29974
245.33671
245.36677
245.39442
245.4216
245.44447
245.46536
245.48083
245.49638
245.50977
245.52028
245.53121
245.53964
245.5451
245.55106
245.55534
245.55841
245.56272
245.56579
245.56916
245.57158
245.57303
245.57376
245.57541
245.57556
245.57598
245.5754
245.57714
245.57944
244.72212
243.93999
244.32439
244.20507
244.45685
244.45686
244.57665
244.58107
244.69643
244.77567
244.86465
244.9324
244.99086
245.06009
245.10542
245.16216
245.21776
245.26054
245.29693
245.32852
245.36433
245.39404
245.42
245.44204
245.46358
245.48012
245.49608
245.50947
245.51954
245.53063
245.53908
245.54451
245.55079
245.55491
245.55781
245.5626
245.5657
245.56932
245.57153
245.57271
245.5737
245.57541
245.57539
245.57614
245.57547
245.57724
245.57954
245.57828
245.57059
244.6655
243.85907
244.29579
244.2014
244.43733
244.39828
244.56969
244.60064
244.69034
244.76278
244.82535
244.91691
244.99306
245.05662
245.11669
245.1662
245.21734
245.25831
245.29487
245.32473
245.36011
245.39518
245.42071
245.44117
245.46197
245.47964
245.49653
245.50961
245.51959
245.52994
245.53841
245.54415
245.55042
245.5544
245.55735
245.56248
245.56572
245.56954
245.57154
245.57244
245.57372
245.57544
245.57525
245.57628
245.57562
245.57731
245.57966
245.57842
245.57063
244.55523
243.87004
244.26876
244.20584
244.38883
244.38631
244.52146
244.59249
244.68506
244.78174
244.83041
244.94307
245.00297
245.06031
245.12011
245.16525
245.21712
245.25895
245.2924
245.32839
245.36645
245.39613
245.41908
245.44169
245.46268
245.48001
245.4964
245.50908
245.52049
245.53015
245.53798
245.54403
245.54971
245.55397
245.55718
245.56232
245.56581
245.56982
245.57168
245.57243
245.5738
245.57533
245.57503
245.57634
245.57569
245.57763
245.57974
245.57873
245.57072
244.46089
243.8551
244.18078
244.15451
244.36548
244.40963
244.55869
244.60669
244.66981
244.8096
244.85012
244.9487
244.97724
245.05686
245.11645
245.17489
245.23028
245.26418
245.29689
245.33464
245.36886
245.3951
245.41984
245.44365
245.462
245.48007
245.4956
245.5087
245.52088
245.53056
245.53769
245.54406
245.5495
245.55385
245.55696
245.5621
245.56602
245.57009
245.57171
245.57253
245.57383
245.57502
245.57478
245.57628
245.57585
245.5784
245.57986
245.5791
245.57072
244.47819
243.78156
244.1823
244.12208
244.31678
244.40121
244.58092
244.64925
244.67579
244.81217
244.84808
244.95001
244.98247
245.06562
245.12928
245.19313
245.23259
245.25857
245.29418
245.33651
245.37039
245.39397
245.42132
245.44138
245.45996
245.48165
245.49806
245.50979
245.5217
245.53054
245.53767
245.54388
245.54925
245.55342
245.55697
245.56213
245.56629
245.57023
245.57168
245.57262
245.57384
245.57469
245.57462
245.57642
245.57622
245.57893
245.58013
245.5792
245.57055
244.42148
243.74262
244.17648
244.1784
244.28729
244.40248
244.52885
244.65369
244.6743
244.83223
244.84648
244.9509
245.02151
245.09055
245.13376
245.18318
245.22045
245.25832
245.30211
245.34391
245.37686
245.40403
245.42482
245.44599
245.46893
245.48572
245.49975
245.5111
245.52174
245.53005
245.53741
245.54372
245.54905
245.55362
245.55748
245.56277
245.5668
245.57032
245.57143
245.5726
245.57397
245.57488
245.57479
245.57646
245.57657
245.57909
245.58033
245.57926
245.57049
244.38774
243.71071
244.18026
244.19931
244.29127
244.4302
244.42472
244.6541
244.69874
244.84241
244.88941
244.99332
245.03948
245.09089
245.14633
245.2095
245.24519
245.28116
245.31614
245.3516
245.38264
245.40764
245.42832
245.45214
245.47183
245.48607
245.49859
245.51299
245.52352
245.53119
245.53831
245.54478
245.54975
245.55378
245.55825
245.56285
245.56691
245.57008
245.5714
245.57298
245.5742
245.57524
245.57488
245.57639
245.57691
245.57933
245.58042
245.57942
245.57053
244.38807
243.67787
244.1432
244.20784
244.315
244.39941
244.55559
244.68783
244.69582
244.86203
244.91974
245.00821
245.05696
245.11181
245.17817
245.22663
245.26101
245.28851
245.32174
245.35752
245.38892
245.41249
245.43439
245.45492
245.47285
245.48755
245.50209
245.51468
245.52414
245.53244
245.5395
245.54474
245.54988
245.55421
245.55888
245.56294
245.56691
245.56978
245.5716
245.57308
245.57426
245.5752
245.57535
245.57664
245.57715
245.57959
245.58057
245.57925
245.57078
244.23657
243.77611
244.12339
244.1767
244.30378
244.47978
244.61073
244.66008
244.78089
244.89747
244.91456
245.01259
245.0771
245.14474
245.19066
245.22344
245.26339
245.30238
245.33868
245.3706
245.39791
245.42048
245.44107
245.46255
245.48023
245.49448
245.50637
245.51664
245.52589
245.5325
245.54044
245.54411
245.54951
245.55426
245.55939
245.563
245.56741
245.56978
245.57148
245.57303
245.57447
245.57533
245.57577
245.5769
245.57766
245.58
245.58059
245.57897
245.57113
244.18157
243.72702
244.14411
244.25593
244.309
244.5654
244.50567
244.736
244.86743
244.92877
244.97728
245.06152
245.09723
245.14873
245.20717
245.25746
245.28952
245.32353
245.35593
245.38363
245.40655
245.42691
245.44658
245.46715
245.48493
245.49766
245.50823
245.52049
245.52703
245.53314
245.53977
245.54363
245.55067
245.5547
244.14587
243.80848
244.17026
244.25236
244.29237
244.60626
244.60692
244.81426
244.87862
244.98979
245.05495
245.0909
245.13957
245.20476
245.24784
245.28116
245.308
245.33894
245.37005
245.39747
245.41883
244.13119
243.92804
244.09379
244.26341
244.38218
244.64314
244.6436
244.84817
244.95892
245.03932
245.07668
244.22382
243.96194
246.72237
246.92305
247.06248
247.05875
246.90128
246.70496
246.5347
246.40795
246.31592
246.65527
246.59237
246.46358
246.32578
246.2722
246.24213
246.30685
246.23698
246.12933
246.00366
245.94685
245.91908
246.17528
246.10151
246.01161
245.91186
245.85325
245.81696
246.09501
246.03168
245.95797
245.87115
245.8138
245.78251
246.02784
245.97561
245.91745
245.85
245.79703
245.77205
245.96864
245.92446
245.88024
245.8283
245.77757
245.76295
245.91663
245.87912
245.84961
245.80861
245.76581
245.75491
245.86874
245.84011
245.82167
245.79011
245.7555
245.82529
245.80649
245.79431
245.7725
245.74747
245.78956
245.77872
245.7698
245.75331
245.73692
245.75704
245.75774
245.74937
245.73598
245.72283
245.72926
245.73525
245.72891
245.72346
245.70748
245.70682
245.71317
245.70735
245.70772
245.69743
245.68154
245.69239
245.69264
245.68955
245.66387
245.67259
245.67782
245.67384
245.64448
245.65889
245.65961
245.66157
245.6226
245.64307
245.64296
245.64496
245.60765
245.62435
245.63574
245.59955
245.61062
245.62344
245.59161
245.59865
245.60949
245.58443
245.58873
245.57928
245.58272
245.5761
245.57957
245.57254
245.57038
)
;

boundaryField
{
    Side
    {
        type            empty;
    }
    Inlet
    {
        type            totalTemperature;
        gamma           1.4;
        T0              uniform 250;
        value           nonuniform List<scalar> 9(245.5798 245.57984 245.57985 245.57983 245.57981 245.57979 245.57981 245.57988 245.58);
    }
    Airfoil
    {
        type            zeroGradient;
    }
    Outlet
    {
        type            inletOutlet;
        inletValue      nonuniform List<scalar> 0();
        value           nonuniform List<scalar> 0();
    }
    procBoundary8to1
    {
        type            processor;
        value           nonuniform List<scalar> 8(247.14369 246.33892 246.42918 246.54846 246.54846 246.44734 246.56035 246.63708);
    }
    procBoundary8to7
    {
        type            processor;
        value           nonuniform List<scalar> 
53
(
245.55963
245.56477
245.5682
245.56961
245.57138
245.57302
245.57484
245.57586
245.57601
245.57699
245.57824
245.58021
245.58045
245.57898
245.57141
245.4363
245.45554
245.47275
245.48777
245.50011
245.51343
245.52304
245.52739
245.5352
245.54189
245.54653
245.55154
245.55963
245.5562
245.13052
245.1957
245.23591
245.27155
245.2984
245.3295
245.35912
245.38872
245.4112
245.4363
245.42994
243.99288
244.42694
244.462
244.71959
244.71343
244.85539
244.97856
245.06641
245.13052
245.11933
244.10314
243.99288
243.98771
)
;
    }
    procBoundary8to9
    {
        type            processor;
        value           nonuniform List<scalar> 
75
(
245.56241
245.56725
245.56241
245.56491
245.56564
245.56564
245.56565
245.56565
245.56666
245.56666
245.56835
245.56794
245.56794
245.56808
245.56808
245.56889
245.56889
245.57077
245.57023
245.57023
245.57209
245.57209
245.57402
245.57402
245.5753
245.5753
245.57529
245.57529
245.57604
245.57604
245.57663
245.57663
245.57624
245.57624
245.57562
245.57562
245.57707
245.57707
245.57941
245.57941
245.57817
245.57817
245.57053
246.2491
246.21962
245.89082
245.78705
245.75907
245.74653
245.73855
245.73462
245.74652
245.74652
245.73639
245.7283
245.71965
245.707
245.69314
245.69033
245.69033
245.67512
245.66191
245.65386
245.6337
245.6337
245.62204
245.60937
245.59875
245.59875
245.5885
245.58381
245.57799
245.57799
245.57508
245.56725
)
;
    }
}


// ************************************************************************* //
