/*--------------------------------*- C++ -*----------------------------------*\
| =========                 |                                                 |
| \\      /  F ield         | OpenFOAM: The Open Source CFD Toolbox           |
|  \\    /   O peration     | Version:  2506                                  |
|   \\  /    A nd           | Website:  www.openfoam.com                      |
|    \\/     M anipulation  |                                                 |
\*---------------------------------------------------------------------------*/
FoamFile
{
    version     2.0;
    format      ascii;
    arch        "LSB;label=32;scalar=64";
    class       volScalarField;
    location    "0.0095";
    object      Co;
}
// * * * * * * * * * * * * * * * * * * * * * * * * * * * * * * * * * * * * * //

dimensions      [0 0 0 0 0 0 0];

internalField   nonuniform List<scalar> 
13761
(
0.016485793
0.017031748
0.017580929
0.018132938
0.01868716
0.019242773
0.019798925
0.020354466
0.020908131
0.021458446
0.02200382
0.022542482
0.023072601
0.023592247
0.024099499
0.024592458
0.025069335
0.025528445
0.025968281
0.026387601
0.026785378
0.027160795
0.027513331
0.027842684
0.028148761
0.028431667
0.028691712
0.028929315
0.029145019
0.029339538
0.029513616
0.029668046
0.029803661
0.029921347
0.030021983
0.030123666
0.030251643
0.030394262
0.030532219
0.030666669
0.030798721
0.030929566
0.031060249
0.031191802
0.031325089
0.031461021
0.031600448
0.031744087
0.031892569
0.032046381
0.032205781
0.032370715
0.032540579
0.03271375
0.032886894
0.033052392
0.033190932
0.033239689
0.03299052
0.03234466
0.031642185
0.030992699
0.030388696
0.029821815
0.029287406
0.028782501
0.028304239
0.027850665
0.027419462
0.02700853
0.026615343
0.0262381
0.025873834
0.025520423
0.025176399
0.024838761
0.024505255
0.024173335
0.023840396
0.023503973
0.023162138
0.022811124
0.022449828
0.02207407
0.021681319
0.021269745
0.020833828
0.020371036
0.01987986
0.019354562
0.018789859
0.018180741
0.017521235
0.016803713
0.016019431
0.015153455
0.014184095
0.013083721
0.01180949
0.01030632
0.0085388807
0.0065657037
0.0045510525
0.0026291518
0.00085674391
0.016389129
0.016942356
0.017499084
0.018058902
0.018621189
0.019185112
0.019749823
0.020314173
0.020876902
0.021436537
0.021991493
0.02254
0.023080225
0.023610233
0.024128089
0.024631881
0.025119793
0.025590123
0.026041329
0.02647214
0.026881503
0.027268572
0.027632801
0.027973873
0.028291675
0.028586311
0.028858087
0.029107432
0.029334901
0.029541235
0.029727206
0.029893643
0.030041431
0.030171509
0.030284823
0.03038237
0.030465049
0.03053373
0.030593785
0.030682214
0.030801495
0.0309176
0.031031381
0.031143619
0.031254955
0.031366042
0.031477438
0.031589589
0.031702869
0.031817594
0.031934042
0.032052503
0.032173351
0.03229702
0.032423787
0.032551581
0.032667235
0.032707989
0.032444048
0.031744508
0.030993515
0.030323922
0.029720651
0.029171167
0.028668079
0.028205919
0.027779469
0.027384388
0.027016232
0.026670996
0.026344574
0.026033834
0.025734847
0.025444768
0.025161628
0.024882126
0.024603877
0.024324321
0.02404093
0.023751385
0.023453973
0.023144968
0.022823566
0.022485464
0.022128168
0.021749884
0.021344407
0.020908889
0.02044156
0.019935312
0.01938336
0.018779113
0.018114674
0.017380057
0.016564233
0.015648946
0.014609293
0.01341697
0.012029777
0.01039775
0.0084999338
0.0064211493
0.0043559099
0.00245715
0.00078069858
0.016848101
0.017412259
0.017979787
0.018550056
0.019122222
0.019695436
0.020268551
0.020840306
0.021409236
0.021973753
0.022532091
0.023082414
0.023622778
0.024151238
0.024665863
0.025164814
0.025646365
0.026108942
0.026551245
0.026972186
0.027370893
0.027746791
0.028099542
0.028429015
0.028735305
0.029018714
0.029279669
0.02951874
0.029736683
0.029934291
0.030112426
0.030272007
0.030414025
0.03053948
0.030649399
0.030744776
0.030826591
0.030895807
0.030953407
0.031000161
0.031036993
0.031064716
0.031117242
0.031204512
0.031293864
0.031381063
0.031466455
0.03155032
0.031632912
0.031714458
0.031795168
0.031875243
0.031954711
0.032032917
0.032106077
0.032157998
0.032123136
0.031782478
0.030997397
0.030141506
0.029357184
0.02862895
0.027945913
0.027302779
0.02669627
0.02612355
0.025582276
0.025070027
0.02458448
0.024123154
0.023683916
0.023264192
0.022861807
0.022474947
0.022101209
0.021738536
0.021384774
0.021037759
0.020695404
0.020355867
0.020016449
0.019675623
0.019330415
0.018978478
0.018617714
0.018244111
0.0178548
0.017447183
0.017016249
0.016556628
0.016062365
0.015526117
0.014938486
0.014287896
0.013557188
0.012722206
0.011751313
0.01059968
0.0092143506
0.0075715238
0.0057537815
0.0039399039
0.0022539442
0.00072580534
0.016749033
0.017320493
0.017895623
0.01847378
0.01905411
0.019635764
0.020217589
0.020798329
0.021376515
0.021950566
0.022518712
0.023079114
0.023629821
0.024168875
0.024694326
0.025204311
0.025697077
0.026171021
0.026624806
0.027057316
0.027467646
0.027855187
0.028219581
0.028560677
0.028878554
0.029173507
0.02944596
0.02969649
0.02992586
0.030134882
0.030324438
0.030495476
0.030649024
0.03078612
0.030907828
0.031015205
0.031109301
0.03119114
0.031261726
0.031321989
0.031372893
0.031415332
0.031450182
0.031478139
0.031499945
0.0315163
0.031527819
0.031535045
0.031538476
0.031556115
0.031598383
0.031647369
0.031694038
0.031737826
0.031775181
0.031790359
0.031720568
0.031365164
0.030580517
0.029714879
0.028924725
0.028195386
0.027516124
0.026881121
0.026286321
0.025728048
0.025203012
0.024707998
0.024239977
0.023795903
0.023373121
0.022968758
0.022580367
0.022205919
0.021842967
0.021489414
0.02114313
0.020802016
0.020464047
0.020127448
0.019789689
0.019449283
0.019103436
0.018749933
0.018386759
0.018010131
0.017617299
0.017205752
0.016770736
0.016307083
0.015809051
0.015269545
0.014679459
0.014027528
0.013297143
0.012464936
0.011500117
0.010359293
0.0089915663
0.0073756984
0.0055953008
0.0038245442
0.0021830591
0.00070053519
0.016645205
0.01722383
0.017806441
0.018392387
0.018980796
0.019570817
0.020161294
0.02075097
0.021338377
0.021921932
0.022499864
0.02307033
0.023631371
0.024181012
0.024717287
0.025238307
0.025742295
0.026227612
0.026692884
0.027136963
0.02755891
0.027958085
0.028334105
0.028686791
0.029016208
0.029322638
0.029606497
0.029868366
0.030109012
0.030329256
0.030529992
0.030712192
0.030876908
0.031025206
0.031158179
0.031276927
0.031382548
0.03147611
0.031558651
0.03163118
0.031694704
0.03175018
0.03179851
0.031840495
0.03187692
0.031908548
0.031936046
0.031960027
0.031981058
0.031999658
0.032016276
0.032031299
0.032044928
0.032056655
0.032062876
0.032047518
0.031945421
0.031539631
0.030635631
0.029571768
0.028608071
0.027790007
0.027075181
0.026404072
0.025773189
0.025179455
0.024619934
0.024091906
0.02359271
0.023119581
0.022669931
0.022241119
0.021830723
0.021436596
0.021056444
0.02068816
0.020329656
0.019978862
0.019633764
0.019292496
0.018952774
0.01861287
0.018270331
0.017922934
0.017568564
0.017204011
0.016826464
0.016433174
0.016019902
0.015581822
0.015113329
0.014607452
0.014055206
0.01344519
0.012761118
0.011979843
0.011069866
0.0099872929
0.0086807477
0.0071287379
0.00541469
0.0037086356
0.0021232056
0.00068295002
0.016536682
0.017122322
0.017712285
0.018305906
0.0189023
0.01950061
0.020099675
0.020698234
0.02129482
0.021887845
0.022475538
0.023056052
0.023627415
0.024187639
0.024734739
0.0252668
0.025782015
0.026278711
0.02675548
0.027211137
0.027644711
0.028055518
0.028443153
0.028807408
0.029148332
0.029466187
0.02976138
0.03003449
0.030286284
0.030517585
0.030729297
0.030922404
0.031097979
0.031257101
0.03140089
0.031530472
0.031646977
0.031751505
0.031845127
0.031928892
0.032003845
0.032070986
0.032131254
0.032185498
0.032234546
0.03227921
0.032320205
0.032358195
0.0323938
0.032427583
0.032460067
0.032491703
0.032522729
0.032552689
0.032577969
0.032582522
0.032503071
0.03213865
0.031282774
0.030223628
0.029222447
0.028289382
0.027413362
0.026588497
0.025810663
0.025076191
0.024414348
0.023851315
0.023348773
0.022872796
0.022420609
0.021989542
0.0215771
0.021181033
0.020799089
0.020429198
0.020069324
0.019717453
0.019371611
0.019029929
0.01869026
0.018350815
0.018009293
0.017663521
0.017311347
0.016949779
0.016576012
0.016187216
0.015779342
0.015347662
0.01488662
0.014389283
0.013846725
0.013247518
0.012575513
0.011807766
0.010912677
0.0098464603
0.0085579719
0.007026098
0.0053347346
0.0036526761
0.0020905534
0.00067183937
0.016423534
0.017016028
0.017613202
0.018214378
0.018818653
0.019425165
0.020032744
0.020640128
0.021245844
0.021848304
0.022445731
0.023036273
0.023617948
0.024188752
0.024746678
0.025289784
0.025816239
0.02632433
0.026812611
0.027279859
0.027725069
0.028147517
0.02854677
0.028922586
0.029274994
0.029604238
0.029910708
0.03019498
0.030457816
0.030700037
0.030922552
0.031126354
0.031312525
0.031482158
0.031636385
0.031776354
0.031903219
0.032018099
0.032122092
0.032216274
0.032301719
0.032379458
0.032450467
0.032515627
0.032575801
0.032631848
0.032684518
0.032734523
0.032782532
0.032829156
0.032874983
0.032920535
0.032966128
0.033011439
0.033053076
0.033075695
0.033019479
0.032699064
0.031897838
0.03085066
0.029845751
0.028908922
0.028029365
0.02720102
0.02641974
0.025681793
0.024983661
0.024322061
0.023693935
0.023096307
0.022526446
0.021981769
0.021459931
0.020958852
0.02050877
0.02011995
0.019754431
0.01939801
0.019048704
0.018704602
0.018363686
0.018024036
0.017683522
0.017339983
0.016991225
0.016634514
0.016267014
0.015885757
0.015486919
0.015065908
0.014617176
0.014133818
0.013606926
0.013024955
0.012371853
0.011624714
0.01075157
0.0097083234
0.0084433771
0.0069351567
0.0052675633
0.0036086085
0.0020670017
0.0006644947
0.016905016
0.017509249
0.018117849
0.018729892
0.019344509
0.019960523
0.020576665
0.02119146
0.021803312
0.022410444
0.023010992
0.023602966
0.024184343
0.024753096
0.025307257
0.025844963
0.026364465
0.026864277
0.027343137
0.027800001
0.028234104
0.028644982
0.029032359
0.02939624
0.029736847
0.030054552
0.030349924
0.030623717
0.030876746
0.031109921
0.03132424
0.031520792
0.031700676
0.031865036
0.032015033
0.032151835
0.032276582
0.03239039
0.032494356
0.032589576
0.032677109
0.032757961
0.032833041
0.032903244
0.032969467
0.033032495
0.033093085
0.033151949
0.033209741
0.033267103
0.03332462
0.033382671
0.03344106
0.033496702
0.033535363
0.033501845
0.033226159
0.032482584
0.031449372
0.030437759
0.029493144
0.028605751
0.027769413
0.026980047
0.026233999
0.025527922
0.024858478
0.024222482
0.023616842
0.023038786
0.022485605
0.021954904
0.021444583
0.020952592
0.020477132
0.020016507
0.019569085
0.019133299
0.018707641
0.01829053
0.017885629
0.017515875
0.017173002
0.016825646
0.016471248
0.016106926
0.015729608
0.0153356
0.014920377
0.014478414
0.014002773
0.013484534
0.01291207
0.012269373
0.011533571
0.010672405
0.0096415173
0.00838886
0.0068922618
0.0052355891
0.0035870498
0.0020549919
0.00066045416
0.016789358
0.017400487
0.018016367
0.018636054
0.019258672
0.019883032
0.020507858
0.021131671
0.02175287
0.022369669
0.022980199
0.023582455
0.024174399
0.024753981
0.025319203
0.025868173
0.026399105
0.026910469
0.027400963
0.027869504
0.028315281
0.028737799
0.029136743
0.029512095
0.02986405
0.03019296
0.030499383
0.030784063
0.031047809
0.031291529
0.03151622
0.031722978
0.031912905
0.032087152
0.032246891
0.032393304
0.032527544
0.032650743
0.032764014
0.032868473
0.032965204
0.033055238
0.033139511
0.033218945
0.033294474
0.033366914
0.033437061
0.033505669
0.033573433
0.033641047
0.033709152
0.033778197
0.033848137
0.033916289
0.033969867
0.03395903
0.033729212
0.033048453
0.032035606
0.031018873
0.030067864
0.029174345
0.028331935
0.027536528
0.026784463
0.026072425
0.025397039
0.024755064
0.024143306
0.023558938
0.022999117
0.022461374
0.021943609
0.021443681
0.020959712
0.020489921
0.020032628
0.019586237
0.019149264
0.01872004
0.018297087
0.017878656
0.017462968
0.017048152
0.016631902
0.016211666
0.015784612
0.015347261
0.014895271
0.01442321
0.013924162
0.013395347
0.012827183
0.012194379
0.011469302
0.010619342
0.0095997432
0.0083577833
0.0068702405
0.0052206425
0.0035778941
0.0020505394
0.00065902037
0.016669133
0.017286983
0.01790999
0.018537188
0.019167689
0.019800297
0.020433727
0.021066492
0.021696983
0.022323409
0.022943889
0.023556408
0.02415891
0.024749319
0.025325609
0.025885859
0.026428238
0.026951176
0.027453328
0.027933572
0.028391047
0.028825224
0.029235749
0.029622574
0.02998587
0.030325963
0.030643401
0.030938914
0.031213303
0.031467471
0.031702418
0.03191924
0.032119044
0.032302985
0.032472246
0.032628017
0.032771466
0.032903738
0.033025959
0.033139264
0.033244756
0.033343494
0.033436434
0.03352452
0.033608724
0.033689889
0.033768847
0.033846389
0.033923246
0.03400016
0.034077827
0.034156756
0.034237053
0.034316475
0.034383837
0.034394941
0.034210549
0.033596297
0.032610135
0.03158866
0.030630752
0.029730599
0.028881556
0.028079497
0.027320803
0.02660223
0.025920402
0.025272062
0.024653937
0.02406314
0.023496687
0.022952031
0.022427027
0.021919401
0.021427208
0.020948604
0.020481859
0.020025348
0.019577599
0.01913688
0.018701817
0.018270578
0.017841398
0.017412487
0.016981417
0.016545689
0.016102602
0.015648589
0.015179267
0.014689225
0.014171591
0.013617377
0.013014743
0.012347373
0.011591888
0.010715152
0.0096716332
0.0084078606
0.0069006021
0.005235219
0.0035838026
0.0020535301
0.00065992096
0.016544426
0.01716881
0.017798777
0.018433339
0.0190716
0.019712349
0.020354291
0.020995931
0.021635654
0.02227166
0.022902057
0.023524816
0.024137861
0.024739094
0.025326456
0.025897995
0.026451841
0.026986378
0.027500213
0.027992187
0.028461385
0.028907243
0.029329365
0.029727673
0.030102307
0.030453569
0.030781993
0.031088296
0.031373267
0.031637805
0.031882911
0.032109683
0.032319228
0.032512712
0.03269132
0.032856257
0.033008699
0.033149806
0.033280716
0.033402578
0.033516513
0.033623604
0.033724824
0.033821143
0.033913557
0.034002939
0.034090152
0.034176019
0.034261306
0.034346796
0.034433233
0.034521188
0.034610915
0.034700623
0.03478078
0.034812874
0.034672825
0.034128279
0.033176717
0.03215216
0.03118777
0.03028151
0.02942641
0.028618289
0.027853566
0.027129084
0.026441494
0.025787526
0.025163837
0.024567486
0.02399535
0.023444785
0.022913584
0.022399336
0.021900013
0.021413685
0.020938549
0.020472933
0.020015373
0.019564055
0.019117666
0.018674308
0.018232247
0.017789752
0.017344289
0.016893432
0.016434599
0.015964153
0.015477702
0.014969856
0.014433768
0.01386049
0.013238267
0.012550688
0.011774266
0.010875883
0.0098098195
0.0085221234
0.0069890069
0.00529669
0.0036201501
0.0020701394
0.00066403134
0.017046049
0.017682799
0.01832457
0.018970452
0.019619223
0.020269577
0.020920011
0.021568897
0.022214428
0.022854701
0.02348767
0.02411124
0.024723289
0.025321724
0.025904564
0.026469893
0.027016049
0.027541594
0.028045325
0.028526273
0.028983837
0.029417574
0.029827377
0.030213351
0.030575773
0.03091516
0.031232216
0.031527717
0.031802559
0.032057741
0.032294365
0.032513542
0.032716441
0.032904258
0.033078207
0.033239476
0.033389236
0.033528636
0.033658836
0.033780977
0.033896159
0.034005373
0.034109604
0.034209877
0.034307086
0.034402123
0.034495839
0.03458903
0.034682518
0.034777087
0.034873363
0.034971739
0.035070861
0.035162811
0.035214589
0.035116918
0.034643939
0.033735389
0.032709849
0.031739041
0.030826782
0.029965733
0.029151623
0.028380924
0.027650601
0.02695736
0.026297952
0.025668984
0.025067469
0.024490156
0.023934305
0.023397631
0.022877574
0.022372006
0.021878895
0.021396343
0.020922625
0.020456251
0.019995306
0.019538539
0.019083975
0.018629897
0.018174636
0.01771557
0.017250327
0.016776442
0.016290218
0.015787243
0.015262172
0.014708178
0.014116328
0.013474923
0.012767494
0.011970444
0.01105062
0.0099620069
0.0086500464
0.0070901006
0.005368914
0.0036652021
0.0020930135
0.00067046782
0.016918784
0.017562128
0.018210938
0.018864294
0.019520959
0.020179615
0.020838747
0.02149672
0.022151716
0.022801815
0.02344496
0.024079032
0.024701885
0.025311393
0.025905538
0.026482365
0.027040161
0.027577439
0.028092953
0.028585678
0.029054971
0.029500343
0.029921652
0.03031897
0.030692543
0.031042875
0.03137065
0.031676634
0.031961718
0.032226903
0.032473293
0.032702001
0.032914206
0.033111112
0.033293942
0.033463896
0.033622159
0.033769887
0.033908252
0.034038407
0.034161472
0.034278448
0.034390338
0.034498188
0.034602909
0.034705419
0.034806593
0.034907252
0.035008251
0.035110411
0.035214409
0.03532076
0.035428515
0.035531276
0.035601243
0.035543399
0.035142577
0.034285922
0.033262615
0.032285613
0.031367631
0.030500944
0.029681118
0.028904691
0.028168769
0.027470151
0.026805638
0.026171809
0.025565646
0.024983779
0.024423368
0.023882051
0.023357112
0.022846303
0.022347474
0.021858621
0.021377923
0.020903845
0.020434373
0.019968286
0.019503516
0.019038345
0.018571158
0.018099243
0.01762028
0.017131913
0.016630396
0.016111303
0.015569319
0.014997665
0.01438741
0.013726914
0.012999642
0.012181864
0.011240395
0.010128898
0.0087920418
0.007204036
0.0054518355
0.0037180868
0.002120627
0.00067851228
0.016787109
0.017436844
0.018092513
0.018753183
0.019417602
0.020084439
0.020752168
0.02141914
0.022083529
0.022743399
0.023396678
0.024041222
0.024674861
0.025295433
0.025900887
0.026489222
0.027058676
0.027607709
0.028135031
0.028639558
0.029120603
0.029577629
0.030010456
0.030419121
0.030803838
0.031165093
0.031503554
0.031819974
0.03211524
0.032390353
0.032646421
0.032884565
0.033105968
0.033311846
0.033503433
0.033681942
0.033848567
0.034004474
0.034150844
0.034288844
0.034419606
0.034544143
0.03466347
0.034778647
0.034890606
0.035000282
0.035108569
0.035216312
0.035324393
0.035433664
0.035544844
0.03565856
0.03577422
0.035886809
0.035973315
0.035952233
0.035622694
0.034826659
0.033809972
0.032826933
0.031903395
0.031031281
0.030205897
0.029423846
0.028682413
0.027978522
0.027309051
0.026670592
0.026060112
0.025474148
0.024909766
0.024364518
0.023835532
0.023320431
0.022816932
0.022322899
0.021836405
0.021355839
0.020879057
0.020404841
0.019931019
0.019455857
0.018977774
0.018493955
0.018002119
0.017500017
0.016983847
0.016449185
0.015890739
0.015301746
0.014673324
0.013993878
0.013246805
0.012408257
0.011444954
0.0103102
0.0089477909
0.0073305006
0.0055451836
0.0037786048
0.0021528484
0.00068810749
0.01665112
0.017307032
0.017969367
0.018637178
0.019309199
0.019984085
0.020660297
0.021336174
0.022009877
0.022679454
0.023342815
0.023997797
0.024642199
0.025273822
0.025890582
0.02649043
0.027071555
0.027632363
0.028171513
0.028687863
0.029180681
0.029649376
0.03009373
0.030513742
0.030909592
0.031281747
0.031630857
0.031957662
0.032263044
0.032548005
0.03281366
0.033061132
0.033291618
0.033506341
0.033706551
0.033893471
0.034068309
0.034232239
0.034386449
0.034532116
0.034670387
0.034802282
0.034928824
0.03505109
0.035170021
0.035286567
0.035401641
0.035516104
0.035630861
0.035746793
0.035864652
0.035985155
0.036108027
0.036229469
0.036330781
0.036343051
0.036082508
0.035355184
0.03435095
0.033362095
0.032433169
0.031555862
0.030725093
0.029937526
0.029190642
0.028481535
0.027807203
0.027164275
0.026549734
0.025960038
0.025392182
0.02484364
0.024311387
0.023792915
0.023285786
0.022787723
0.022296667
0.021810907
0.021328155
0.020847151
0.020365591
0.019881711
0.019393923
0.0188993
0.018395605
0.017880655
0.017350589
0.016800977
0.016226563
0.015620617
0.014974263
0.014275982
0.013509097
0.012649617
0.0116642
0.010505721
0.0091170132
0.0074691887
0.005648686
0.0038465514
0.0021895587
0.00069921979
0.01651092
0.017172783
0.01784158
0.018516349
0.019195808
0.019878599
0.02056317
0.021247844
0.021930771
0.022609982
0.023283369
0.023948742
0.024603875
0.02524653
0.025874587
0.026485951
0.027078755
0.027651348
0.028202346
0.028730537
0.029235144
0.02971552
0.030171406
0.03060276
0.031009727
0.031392753
0.031752467
0.032089595
0.032405016
0.032699734
0.032974866
0.033231544
0.033470975
0.033694396
0.033903068
0.03409823
0.034281101
0.034452865
0.034614719
0.034767848
0.034913411
0.035052435
0.035185949
0.035315039
0.035440658
0.035563767
0.035685292
0.035806105
0.035927132
0.036049272
0.036173307
0.036300032
0.03642943
0.03655875
0.036673093
0.036715073
0.036519906
0.035868144
0.034883697
0.033889363
0.032955158
0.03207285
0.031236816
0.030443771
0.029691422
0.028977061
0.028297842
0.027650473
0.027031979
0.026438775
0.025867802
0.025316468
0.024781605
0.024260579
0.023750803
0.02324984
0.022755483
0.022265898
0.021778615
0.021292308
0.020804527
0.020313422
0.019817377
0.019313341
0.018799054
0.018272398
0.017729459
0.017165778
0.016576108
0.015953758
0.015289874
0.014572972
0.013786328
0.01290583
0.011898016
0.01071534
0.0092996012
0.0076200009
0.0057622935
0.0039219001
0.002230711
0.00071182401
0.017034195
0.017709235
0.018390765
0.019077488
0.019768029
0.020460823
0.021154176
0.021846229
0.02253499
0.023218335
0.023894047
0.024559873
0.025213533
0.025852872
0.026475743
0.027080229
0.027664616
0.02822747
0.028767514
0.029283921
0.029775983
0.0302434
0.030686084
0.031104144
0.031498001
0.031868264
0.032215643
0.032541011
0.032845373
0.033129851
0.033395585
0.033643794
0.033875728
0.034092663
0.034295852
0.03448653
0.03466589
0.034835138
0.034995469
0.035148053
0.035293922
0.035434112
0.035569715
0.035701692
0.035831013
0.03595861
0.036085368
0.036212224
0.036340094
0.036469781
0.036602137
0.03673736
0.036873575
0.036999165
0.037067093
0.036932515
0.036361404
0.035405509
0.034406317
0.033466894
0.032579736
0.031738521
0.03093999
0.030182092
0.029462363
0.028778139
0.028126239
0.027503766
0.026907125
0.02633323
0.025779439
0.025242473
0.024719575
0.024208016
0.023705204
0.023208768
0.022716735
0.022226441
0.021736454
0.021244135
0.020747519
0.02024493
0.019733135
0.019209845
0.018672975
0.018118502
0.017541909
0.016937978
0.016300033
0.015619216
0.014884099
0.0140779
0.013176379
0.012145974
0.010938691
0.0094952185
0.0077826952
0.0058858597
0.0040045745
0.0022762823
0.00072591323
0.01689137
0.017572424
0.018260507
0.018954305
0.019652427
0.020353296
0.021055201
0.021756268
0.022454485
0.023147711
0.0238337
0.024510169
0.025174801
0.025825397
0.026459761
0.027075923
0.027672106
0.028246822
0.028798723
0.029326932
0.029830678
0.030309616
0.030763609
0.031192728
0.031597365
0.031978107
0.032335646
0.032670847
0.032984717
0.033278381
0.033552987
0.033809765
0.034049979
0.034274922
0.034485864
0.034684055
0.034870703
0.03504702
0.035214216
0.035373468
0.035525818
0.035672306
0.035814028
0.035951952
0.036087055
0.036220274
0.0363525
0.036484678
0.036617735
0.036752488
0.036889834
0.037030136
0.037172234
0.037307277
0.037397357
0.037317637
0.03683004
0.035912579
0.034909672
0.033964998
0.033073065
0.03222668
0.031422581
0.030658973
0.029933653
0.029244181
0.028587525
0.027960885
0.027360698
0.026783878
0.026227765
0.025688991
0.0251647
0.024652037
0.024148267
0.023650864
0.023157697
0.022665898
0.022173901
0.021678864
0.021178665
0.0206715
0.020153949
0.019623625
0.019078402
0.018514133
0.017926245
0.017309475
0.016657119
0.015960329
0.015207714
0.014382418
0.013460072
0.012407
0.011174758
0.0097029186
0.0079563845
0.0060186798
0.0040941568
0.002326132
0.0007414965
0.016744424
0.01743125
0.018125663
0.018826335
0.019531859
0.020240642
0.020950958
0.021660917
0.022368486
0.023071504
0.023767698
0.024454753
0.02513031
0.02579213
0.026437967
0.027065791
0.027673759
0.028260332
0.028824088
0.029364093
0.029879512
0.03036995
0.03083522
0.031275348
0.0316907
0.032081833
0.03244942
0.032794317
0.033117528
0.033420181
0.033703431
0.033968519
0.034216723
0.034449352
0.034667696
0.034873024
0.035066557
0.03524952
0.035423135
0.035588594
0.035746947
0.035899238
0.036046569
0.036189913
0.03633025
0.036468521
0.036605621
0.036742501
0.036880093
0.037019224
0.037160818
0.037305364
0.037452266
0.037594955
0.037703413
0.037672113
0.037268367
0.036399792
0.035395133
0.034445052
0.033548302
0.032696666
0.031886829
0.031117256
0.030386033
0.029690958
0.029029182
0.028398037
0.027794018
0.027214077
0.026655553
0.026115033
0.025589595
0.025076285
0.024572247
0.024074813
0.023581698
0.023089846
0.022597537
0.022101688
0.021600002
0.021090518
0.020569572
0.020034629
0.019483461
0.018911746
0.018314772
0.017687199
0.017022272
0.016311088
0.015542253
0.014698824
0.013756289
0.012680857
0.011423641
0.0099230391
0.0081416266
0.006161397
0.0041911298
0.0023804573
0.00075858959
0.016593469
0.017285813
0.017986323
0.018693656
0.019406389
0.020122913
0.020841486
0.021560203
0.022277008
0.022989719
0.023696033
0.024393607
0.025080035
0.025753037
0.026410312
0.027049774
0.027669511
0.028267927
0.028843523
0.029395308
0.029922377
0.030424281
0.030900782
0.031351857
0.031777838
0.032179253
0.03255675
0.032911175
0.033243525
0.033554929
0.033846546
0.034119627
0.034375462
0.034615379
0.034840684
0.035052668
0.03525257
0.03544163
0.035621085
0.035792146
0.035955874
0.03611332
0.03626559
0.036413664
0.036558524
0.03670111
0.036842321
0.036983109
0.037124409
0.037267053
0.037411984
0.037559781
0.037710283
0.03785876
0.037981857
0.037992058
0.03766984
0.036860391
0.035857062
0.034901232
0.033999437
0.033142315
0.032326431
0.031550502
0.030812911
0.03011173
0.029444308
0.028808127
0.028199783
0.027616279
0.027054994
0.026512505
0.025985854
0.02547203
0.024968087
0.024471244
0.023979102
0.023488421
0.022997321
0.022502521
0.022001507
0.02149211
0.020970399
0.020433638
0.019879435
0.019303223
0.018700082
0.018064513
0.017389623
0.016666389
0.015883359
0.015023461
0.014062019
0.012965076
0.011683262
0.010153843
0.0083369803
0.0063129625
0.0042949509
0.0024391175
0.00077721817
0.017136221
0.017842581
0.01855635
0.019276085
0.020000166
0.02072683
0.021454158
0.022180069
0.022902363
0.023618704
0.024326715
0.025023947
0.025708077
0.026376748
0.027027815
0.027659292
0.028269524
0.028856934
0.02942047
0.029959153
0.030472477
0.030960145
0.031422085
0.031858589
0.032270152
0.032657394
0.033021145
0.033362392
0.033682262
0.033981913
0.034262604
0.034525637
0.034772352
0.035004075
0.035222118
0.035427738
0.035622194
0.035806744
0.03598262
0.0361509
0.036312647
0.036468976
0.036620874
0.036769325
0.036915265
0.037059594
0.03720326
0.037347192
0.037492227
0.037639316
0.037789106
0.037941758
0.038093991
0.038227968
0.038272439
0.03802679
0.037285545
0.036287983
0.035325831
0.03441851
0.033555455
0.032733015
0.031950142
0.031205537
0.030497552
0.029823758
0.029181803
0.028568403
0.02798065
0.027415972
0.02687097
0.026342698
0.025828124
0.025324254
0.024828254
0.024337624
0.023848999
0.023360368
0.022868258
0.022369965
0.021863108
0.02134348
0.020808094
0.020254305
0.019677256
0.019071746
0.018432006
0.017750901
0.01701919
0.016225241
0.015351752
0.014373791
0.013257185
0.011952068
0.010394511
0.0085422441
0.0064735888
0.0044059023
0.0025022557
0.00079739795
0.016982602
0.017694554
0.018414519
0.019141039
0.019872477
0.020607053
0.021342832
0.02207771
0.022809462
0.02353572
0.024254077
0.024962036
0.025657228
0.026337239
0.026999862
0.027643037
0.028265048
0.028864233
0.029439477
0.029989721
0.0305144
0.031013154
0.031485854
0.031932751
0.032354299
0.032751088
0.033123924
0.033473783
0.03380178
0.034109072
0.034396921
0.034666633
0.034919561
0.035157046
0.035380419
0.035590957
0.035789937
0.035978639
0.036158319
0.036330082
0.036495008
0.036654228
0.036808744
0.036959547
0.037107574
0.037253719
0.037398921
0.037544096
0.037690068
0.037837782
0.037987924
0.038140892
0.038294515
0.03843542
0.03850662
0.038330026
0.037663779
0.036677738
0.0357084
0.034794679
0.033924894
0.033095066
0.032304356
0.031551786
0.030836
0.030154807
0.029506033
0.028886533
0.028293495
0.027724416
0.027175955
0.026645205
0.026129153
0.025624816
0.025129335
0.024640171
0.024153908
0.023668434
0.023180165
0.022686227
0.022184053
0.021669221
0.021138464
0.020588855
0.020015202
0.019411946
0.018772958
0.018090719
0.017355615
0.016555655
0.01567317
0.014682831
0.01355006
0.012224374
0.010640619
0.0087540572
0.0066409704
0.0045227608
0.0025695044
0.00081915362
0.016825078
0.01754235
0.018268261
0.019001334
0.019739918
0.020482214
0.021226272
0.02196996
0.022711033
0.02344709
0.024175688
0.024894283
0.025600458
0.02629174
0.026965859
0.027620677
0.028254414
0.02886532
0.029452211
0.030013947
0.030549896
0.031059632
0.031542964
0.032000096
0.032431436
0.032837535
0.033219174
0.03357731
0.03391304
0.034227515
0.034521991
0.034797777
0.035056229
0.035298701
0.035526537
0.03574103
0.035943473
0.036135163
0.036317385
0.03649127
0.036657921
0.036818491
0.036974008
0.037125483
0.037273866
0.03742006
0.037564995
0.037709574
0.037854597
0.038000981
0.038149409
0.038300413
0.038452629
0.038596183
0.038686215
0.03856872
0.037980727
0.037012725
0.036034804
0.035113105
0.034235181
0.03339658
0.032596637
0.031834687
0.031109659
0.03041961
0.029762536
0.029135455
0.028535656
0.027960693
0.027407322
0.026872687
0.026353831
0.025847819
0.025351828
0.024863324
0.024378925
0.023896468
0.023412358
0.022923651
0.022427635
0.02191978
0.021396596
0.020854862
0.020289113
0.019693417
0.01906121
0.018384501
0.017653131
0.016854522
0.015970403
0.014974787
0.013832385
0.012491796
0.010886403
0.00896888
0.0068132578
0.0046447175
0.0026405537
0.00084240654
0.017386094
0.018117688
0.01885707
0.019602575
0.020352387
0.021104536
0.021856868
0.022607112
0.023352833
0.024091553
0.024820679
0.025537744
0.026240215
0.026925755
0.027592145
0.028237539
0.028860093
0.029458553
0.03003169
0.030578804
0.031099391
0.0315932
0.032060376
0.032501278
0.032916411
0.033306524
0.033672547
0.034015554
0.034336682
0.034637175
0.034918335
0.035181518
0.035428077
0.035659366
0.035876685
0.036081334
0.036274624
0.036457857
0.036632186
0.036798736
0.036958678
0.037113071
0.037262953
0.037409298
0.037553037
0.037695122
0.037836463
0.037977866
0.038120222
0.038264207
0.038410409
0.038557997
0.038699707
0.038800593
0.038730405
0.038219646
0.037276145
0.036287383
0.03535472
0.034465852
0.033615773
0.032803964
0.032030078
0.031293334
0.030592039
0.029924346
0.029287437
0.02867869
0.028095698
0.027535315
0.026994741
0.026471086
0.025961489
0.025463178
0.024973663
0.024489697
0.024009086
0.023528355
0.02304458