/*--------------------------------*- C++ -*----------------------------------*\
| =========                 |                                                 |
| \\      /  F ield         | OpenFOAM: The Open Source CFD Toolbox           |
|  \\    /   O peration     | Version:  2506                                  |
|   \\  /    A nd           | Website:  www.openfoam.com                      |
|    \\/     M anipulation  |                                                 |
\*---------------------------------------------------------------------------*/
FoamFile
{
    version     2.0;
    format      ascii;
    arch        "LSB;label=32;scalar=64";
    class       volVectorField;
    location    "0.00021";
    object      wallShearStress;
}
// * * * * * * * * * * * * * * * * * * * * * * * * * * * * * * * * * * * * * //

dimensions      [1 -1 -2 0 0 0 0];

internalField   uniform (0 0 0);

boundaryField
{
    Side
    {
        type            empty;
    }
    Inlet
    {
        type            calculated;
        value           uniform (0 0 0);
    }
    Airfoil
    {
        type            calculated;
        value           nonuniform List<vector> 
142
(
(-7713.871 -2065.4241 -6.808983e-23)
(-7131.161 -1855.671 2.744227e-18)
(-7406.2341 -1810.1608 1.7155634e-18)
(-7287.8089 -1760.5997 -5.018937e-18)
(-7236.1359 -1730.4457 9.4039548e-38)
(-7031.0138 -1689.5485 3.2006804e-18)
(-6970.9379 -1635.3868 4.6952987e-23)
(-6824.4833 -1585.9928 3.3710427e-18)
(-6785.957 -1560.558 4.9558842e-35)
(-6711.3775 -1541.2756 -5.2295252e-18)
(-6619.257 -1531.1858 4.9450573e-23)
(-6474.3887 -1507.3222 1.7502222e-18)
(-6385.827 -1477.1872 -4.8901044e-23)
(-6294.1769 -1442.2989 -5.2940675e-18)
(-6136.9746 -1413.2357 3.4534866e-18)
(-5962.7814 -1385.8638 -4.9901445e-23)
(-5948.35 -1341.8112 9.4039548e-38)
(-5917.6737 -1324.2203 -1.9185047e-18)
(-5839.9688 -1349.591 -9.4039548e-38)
(-5827.2232 -1340.6781 1.9102125e-18)
(-5741.3298 -1328.3586 1.1253467e-22)
(-5588.0974 -1324.7666 1.8909695e-18)
(-5458.9461 -1291.2369 1.9022205e-18)
(-5349.8024 -1248.4031 -4.0123153e-18)
(-5272.877 -1227.2314 -1.880791e-37)
(-5138.0156 -1188.7926 6.4012384e-18)
(-5068.5412 -1158.3162 2.1539084e-18)
(-5085.8582 -1115.5985 7.0529661e-36)
(-5087.2605 -1114.0407 -4.9671111e-18)
(-5050.1465 -1153.7432 0)
(-5057.097 -1132.9176 1.1708297e-35)
(-5122.9309 -1030.0683 4.7019774e-38)
(-4957.9121 -1021.3155 -5.6439497e-18)
(-4736.085 -982.88141 -5.5184212e-18)
(-4491.9151 -931.58729 7.8770365e-18)
(-4402.1843 -906.83155 -5.4621216e-18)
(-4368.4493 -938.5085 1.6024469e-22)
(-4411.5838 -956.3789 -7.9611779e-18)
(-4505.5094 -995.11612 9.4039548e-38)
(-4532.9634 -994.55168 -2.6141033e-18)
(-4459.8124 -981.31299 5.792002e-18)
(-4207.2592 -886.87592 1.693624e-22)
(-3802.7761 -731.50875 5.844284e-18)
(-3667.125 -649.22005 6.0762453e-18)
(-3683.343 -662.82785 -1.8400511e-22)
(-3915.3438 -723.74138 2.8653756e-18)
(-3976.732 -750.1051 -9.4039548e-38)
(-3903.0573 -717.9264 2.0025387e-22)
(-3707.2199 -605.70819 -3.9572606e-18)
(-3676.2221 -552.74755 7.3017891e-18)
(-3709.5186 -512.56312 2.2477624e-22)
(-3728.4786 -477.7523 8.0895872e-18)
(-3674.2651 -437.87546 -8.2962669e-18)
(-3613.3729 -446.2115 0)
(-3546.9537 -506.79023 -2.2678466e-22)
(-3480.9227 -544.83495 -3.258131e-18)
(-3413.8848 -551.87118 1.1616387e-23)
(-3342.9643 -607.13263 4.0870336e-18)
(-3292.8236 -454.7648 9.4039548e-38)
(-3136.2204 -357.95155 -3.4599873e-18)
(-3064.7023 -251.68556 3.6247833e-18)
(-2856.3732 -180.2562 -8.5782791e-18)
(-2802.4953 -149.16035 5.0852484e-18)
(-2782.1845 -98.865938 9.0343804e-18)
(-2723.4848 -28.690296 -2.8382391e-22)
(-2592.3427 129.27692 -6.9161092e-24)
(-2352.4228 293.29371 3.0007778e-22)
(-2327.3134 421.06169 4.319817e-18)
(-2420.2864 500.51024 0)
(-3135.2669 121.78752 -1.1284746e-35)
(-4662.8065 -838.4279 4.8680558e-18)
(-5032.1726 -1086.732 4.9146811e-18)
(-5026.1405 -1155.3528 0)
(-4844.4011 -1250.5249 -3.2382024e-22)
(-4515.3136 -1306.3702 6.8811939e-23)
(-4142.6019 -1612.9834 5.3542635e-22)
(-4215.7347 -1439.0701 -2.6197905e-22)
(-3540.1979 -801.32253 -4.6643616e-35)
(-3366.6597 -438.16083 -4.5707137e-18)
(869.4495 3017.6211 0)
(1910.7736 3996.8095 1.9248187e-17)
(2576.2832 4626.5083 -8.3034781e-22)
(2944.3588 4851.8386 1.3978047e-23)
(3036.0778 4758.108 3.7281915e-22)
(3199.3 4591.7308 -3.3473068e-22)
(3026.1393 4819.481 3.2554825e-22)
(2780.2708 4987.4477 1.3251516e-17)
(1330.7685 3702.2538 -5.0933048e-18)
(-1356.6306 1565.5544 5.3649638e-18)
(-1508.796 1584.6389 -3.7615819e-37)
(-1016.5959 1930.5448 -2.0909879e-17)
(-1164.3738 2080.9827 2.9002652e-23)
(-1129.9737 2217.2899 1.6905421e-17)
(-789.16328 2097.0408 3.5829112e-22)
(-113.77895 1674.2091 -6.3149956e-22)
(-1.7227139 1813.8736 -3.9456583e-18)
(-22.42542 1979.3097 -2.5202599e-35)
(-328.93406 2187.3561 -9.7452155e-36)
(-405.6148 2352.2826 -4.2550691e-35)
(-316.60448 2169.6753 -7.0729907e-18)
(471.02492 1560.3502 7.1694724e-18)
(146.35578 223.69593 7.5772079e-23)
(-221.51831 1872.6053 -2.9575461e-22)
(-89.544642 2175.0011 2.8099395e-22)
(622.03395 1677.102 -4.7019774e-38)
(817.16534 1763.0629 -6.8177921e-19)
(-19.96523 2103.8693 -1.4719161e-22)
(-19.288183 2420.7843 -6.11023e-18)
(-906.67209 1623.7586 -6.7190465e-22)
(-727.12355 2543.705 6.5004428e-18)
(-1002.4391 1779.2315 -3.5710784e-22)
(-912.55931 1654.1092 2.1015528e-18)
(-332.49932 2524.0488 6.2926422e-18)
(97.39407 2472.7742 1.2426032e-18)
(134.36126 2637.6444 1.1400959e-18)
(378.00605 2692.9085 -1.2142057e-23)
(465.78589 2772.0657 2.810038e-19)
(-107.91112 250.15912 -5.4032192e-19)
(-987.02271 -3805.8695 -7.4245627e-23)
(-1737.5695 -3661.6639 -1.383609e-18)
(-1939.4578 -3661.7288 5.8774718e-39)
(-1694.242 -3874.9117 -1.7292401e-18)
(-1681.4931 -3844.6276 -4.2625717e-19)
(-601.39106 69.680382 -5.5248234e-36)
(-619.60563 72.006918 9.3185222e-40)
(-1155.2685 -61.904961 7.6180603e-43)
(-4626.0909 -979.01135 -4.8265798e-35)
(-6799.7362 -1549.7786 -1.5693865e-18)
(-6886.8833 -1569.16 -2.2976686e-23)
(-6943.0075 -1574.8183 2.8491359e-18)
(-7017.4165 -1580.2909 0)
(-7164.9265 -1588.6564 2.9112839e-23)
(-7237.5162 -1589.3055 -2.9702686e-23)
(-7209.3882 -1582.6347 -3.3270867e-35)
(-7122.3628 -1568.9041 3.0365658e-23)
(-7053.5232 -1556.7545 -3.0368233e-23)
(-7000.1988 -1514.9395 -1.3533319e-18)
(-5915.6655 -1301.9856 -2.6025445e-35)
(-1801.7682 -438.59723 1.1880368e-19)
(-1305.0102 -312.01457 1.2704653e-23)
(-887.81347 -221.96863 -1.2750068e-23)
(-1406.3484 -397.63416 -6.0914843e-19)
)
;
    }
    Outlet
    {
        type            calculated;
        value           nonuniform List<vector> 0();
    }
    procBoundary8to0
    {
        type            processor;
        value           uniform (0 0 0);
    }
    procBoundary8to1
    {
        type            processor;
        value           uniform (0 0 0);
    }
    procBoundary8to2
    {
        type            processor;
        value           uniform (0 0 0);
    }
    procBoundary8to7
    {
        type            processor;
        value           uniform (0 0 0);
    }
    procBoundary8to9
    {
        type            processor;
        value           uniform (0 0 0);
    }
}


// ************************************************************************* //
