/*--------------------------------*- C++ -*----------------------------------*\
| =========                 |                                                 |
| \\      /  F ield         | OpenFOAM: The Open Source CFD Toolbox           |
|  \\    /   O peration     | Version:  2506                                  |
|   \\  /    A nd           | Website:  www.openfoam.com                      |
|    \\/     M anipulation  |                                                 |
\*---------------------------------------------------------------------------*/
FoamFile
{
    version     2.0;
    format      ascii;
    arch        "LSB;label=32;scalar=64";
    class       volScalarField;
    location    "2.25";
    object      T;
}
// * * * * * * * * * * * * * * * * * * * * * * * * * * * * * * * * * * * * * //

dimensions      [0 0 0 1 0 0 0];

internalField   nonuniform List<scalar> 
1376
(
245.61089
245.60855
245.59537
245.58391
245.59767
245.60937
245.60678
245.59363
245.58235
245.57544
245.57198
245.57047
245.56984
245.56955
245.56942
245.59602
245.60757
245.60477
245.59167
245.58058
245.57384
245.5705
245.56903
245.56842
245.56817
245.56808
245.56808
245.56815
245.56829
245.56848
245.5687
245.59418
245.60558
245.60259
245.58955
245.57864
245.5721
245.56887
245.56747
245.56688
245.56664
245.56659
245.56663
245.56676
245.56696
245.56719
245.56745
245.56771
245.56796
245.56822
245.56848
245.59211
245.60335
245.60017
245.58717
245.57645
245.57015
245.56713
245.56587
245.5654
245.56525
245.56527
245.5654
245.56563
245.5659
245.56617
245.56642
245.56664
245.56685
245.56709
245.56734
245.56759
245.56783
245.56809
245.56836
245.56862
245.59018
245.60124
245.59784
245.58477
245.57412
245.56796
245.56509
245.56395
245.56357
245.5635
245.56361
245.56385
245.5642
245.56459
245.56496
245.56531
245.56563
245.56591
245.56617
245.5664
245.56659
245.56676
245.56689
245.56695
245.56703
245.56728
245.56769
245.56823
245.56892
245.58837
245.59931
245.59576
245.58265
245.57205
245.56597
245.56316
245.56204
245.56166
245.56158
245.5617
245.56197
245.56236
245.56281
245.56326
245.56372
245.56415
245.56454
245.5649
245.56523
245.56557
245.56591
245.56618
245.56632
245.56634
245.56633
245.56632
245.56632
245.56655
245.56725
245.56824
245.56929
245.57014
245.58656
245.59742
245.59375
245.58064
245.57013
245.56414
245.56139
245.56032
245.55998
245.55994
245.56007
245.56034
245.56072
245.56115
245.56161
245.56206
245.56246
245.5628
245.5631
245.56341
245.56376
245.56414
245.56452
245.56493
245.56536
245.56572
245.566
245.56631
245.56654
245.56649
245.56627
245.56641
245.56729
245.56862
245.56998
245.57114
245.58486
245.59554
245.59167
245.57848
245.56798
245.562
245.55924
245.55817
245.55785
245.55785
245.55804
245.55836
245.5588
245.55931
245.55988
245.56041
245.56086
245.56119
245.56143
245.56162
245.56178
245.56194
245.56216
245.56246
245.56294
245.56372
245.56453
245.56519
245.56573
245.5662
245.56653
245.56702
245.56731
245.56722
245.56741
245.56844
245.56977
245.57122
245.57224
245.58304
245.5936
245.58957
245.57638
245.56594
245.56
245.55722
245.55607
245.55568
245.55563
245.55574
245.55602
245.55641
245.55691
245.55747
245.55807
245.55865
245.55921
245.55977
245.56029
245.56075
245.56117
245.56157
245.56185
245.56185
245.56159
245.56154
245.56199
245.56294
245.56403
245.56536
245.56635
245.5671
245.56773
245.56823
245.56846
245.56871
245.56944
245.56973
245.57116
245.57291
245.57466
245.58092
245.59141
245.58729
245.57424
245.56405
245.55831
245.55565
245.55455
245.55413
245.554
245.55401
245.55417
245.55444
245.5548
245.55525
245.55576
245.55634
245.55697
245.55766
245.55837
245.55906
245.55974
245.56039
245.56093
245.56135
245.56164
245.56192
245.56213
245.56228
245.56255
245.56296
245.56379
245.56512
245.56647
245.56743
245.56801
245.56874
245.56914
245.56982
245.57045
245.57135
245.5731
245.57431
245.57577
245.5767
245.57846
245.58883
245.58453
245.57158
245.56164
245.55613
245.55361
245.55261
245.55225
245.55214
245.5522
245.55238
245.55265
245.55298
245.55337
245.55382
245.55435
245.55495
245.5556
245.55625
245.55689
245.55747
245.55806
245.55871
245.55933
245.56008
245.56091
245.56166
245.56231
245.56299
245.56369
245.56402
245.56389
245.56401
245.56456
245.56602
245.56695
245.56774
245.56874
245.56978
245.57103
245.57285
245.57438
245.57462
245.57523
245.57533
245.57549
245.57612
245.58633
245.58176
245.56879
245.55893
245.55355
245.55113
245.55016
245.54983
245.54978
245.54988
245.55011
245.55042
245.55079
245.55123
245.55174
245.55236
245.55308
245.55386
245.55465
245.55541
245.55614
245.55676
245.55726
245.5577
245.55783
245.55782
245.55832
245.5594
245.56055
245.56168
245.56282
245.56389
245.56476
245.56484
245.56456
245.56454
245.56498
245.56625
245.56898
245.5703
245.57167
245.57325
245.57486
245.57589
245.57528
245.57419
245.57433
245.57373
245.57404
245.58414
245.5793
245.56635
245.55667
245.55147
245.54918
245.5483
245.54803
245.548
245.54811
245.54833
245.54863
245.54898
245.54938
245.54983
245.55036
245.55096
245.55164
245.55239
245.55317
245.55399
245.55485
245.5556
245.55634
245.55718
245.55789
245.55852
245.55903
245.55953
245.55978
245.55989
245.56076
245.562
245.5637
245.5646
245.56507
245.56634
245.56741
245.56752
245.56898
245.57056
245.57124
245.57353
245.57542
245.57584
245.57424
245.57484
245.57314
245.57169
245.58166
245.57653
245.56362
245.55416
245.54918
245.54705
245.54631
245.54614
245.54617
245.54631
245.54657
245.54695
245.54739
245.54786
245.54835
245.54882
245.54929
245.54979
245.55032
245.55088
245.55142
245.55206
245.55296
245.55383
245.55482
245.55637
245.55772
245.55851
245.55913
245.55983
245.56034
245.56059
245.56095
245.56212
245.56385
245.56479
245.56527
245.5664
245.56774
245.56901
245.56959
245.57089
245.57141
245.57295
245.57396
245.57377
245.57462
245.57296
245.56909
245.57883
245.57332
245.56033
245.55096
245.54609
245.54403
245.54332
245.54316
245.54318
245.54333
245.54369
245.5442
245.54476
245.54537
245.54599
245.54658
245.5472
245.54787
245.54854
245.54925
245.54995
245.55051
245.55093
245.55158
245.55229
245.55285
245.55401
245.55576
245.55695
245.55791
245.55925
245.56056
245.56122
245.56121
245.56185
245.5635
245.56411
245.56442
245.56608
245.56815
245.56968
245.57132
245.57256
245.5729
245.572
245.57148
245.57261
245.57258
245.56683
245.57636
245.57058
245.55757
245.54828
245.54348
245.54145
245.5407
245.54044
245.54036
245.54051
245.54092
245.54143
245.54198
245.54256
245.54311
245.54364
245.54418
245.54476
245.54546
245.54633
245.54741
245.54848
245.54928
245.54997
245.55113
245.5523
245.55315
245.55387
245.55481
245.55568
245.55651
245.55748
245.55922
245.56061
245.55998
245.56015
245.56268
245.56419
245.56434
245.56606
245.56895
245.57079
245.5718
245.57226
245.57265
245.57126
245.57229
245.57148
245.56444
245.57395
245.56806
245.55513
245.54602
245.54136
245.53941
245.53871
245.53847
245.53842
245.53861
245.53901
245.53948
245.54
245.54052
245.541
245.54145
245.54192
245.54239
245.54295
245.54356
245.54394
245.54481
245.54624
245.54747
245.54827
245.54939
245.5514
245.55235
245.55301
245.55403
245.55534
245.55633
245.55662
245.55781
245.55986
245.56135
245.56174
245.56206
245.56322
245.56315
245.56486
245.56793
245.56997
245.57161
245.57253
245.57138
245.57312
245.5708
245.5614
245.57086
245.56478
245.55189
245.54295
245.53844
245.53657
245.5359
245.5357
245.53573
245.53599
245.53641
245.5369
245.53743
245.53797
245.53854
245.53923
245.54002
245.54089
245.54187
245.54302
245.54423
245.5447
245.54411
245.54386
245.54448
245.5447
245.54438
245.54636
245.5494
245.55146
245.55276
245.55425
245.55594
245.55684
245.55797
245.5594
245.56101
245.56214
245.56347
245.56487
245.56652
245.56688
245.56679
245.568
245.56826
245.56996
245.57154
245.57059
245.55814
245.56746
245.56119
245.54829
245.53944
245.53502
245.5332
245.53254
245.53235
245.53239
245.53265
245.53305
245.53349
245.534
245.5346
245.53536
245.53629
245.53732
245.53836
245.53932
245.54009
245.54089
245.54168
245.54302
245.54474
245.54514
245.54593
245.54615
245.54573
245.54596
245.54643
245.54763
245.54945
245.55092
245.55367
245.5569
245.55859
245.55963
245.56092
245.56236
245.56401
245.5654
245.56667
245.56796
245.56858
245.56886
245.56923
245.5697
245.56924
245.55521
245.56443
245.55803
245.54521
245.53654
245.53228
245.53055
245.52997
245.52983
245.52989
245.53013
245.53045
245.53083
245.53131
245.53193
245.53269
245.53345
245.53426
245.53529
245.53657
245.53776
245.53867
245.5395
245.54046
245.54182
245.54313
245.54334
245.54347
245.54515
245.54679
245.54758
245.54913
245.55066
245.55191
245.55254
245.55304
245.55344
245.55399
245.55588
245.55766
245.56004
245.56259
245.56563
245.56796
245.56882
245.56925
245.56833
245.57063
245.56878
245.55212
245.56127
245.55476
245.54201
245.53351
245.52946
245.52794
245.52752
245.52747
245.52763
245.52794
245.52835
245.52896
245.52975
245.53057
245.53116
245.53154
245.53197
245.53252
245.53289
245.53306
245.53337
245.53445
245.5358
245.53703
245.53861
245.54018
245.54212
245.5432
245.54464
245.54658
245.54773
245.54875
245.54993
245.55206
245.55352
245.55405
245.55472
245.55539
245.55659
245.55775
245.55785
245.56057
245.56295
245.56514
245.56552
245.56679
245.56906
245.56895
245.54861
245.55764
245.55098
245.53828
245.5299
245.52597
245.52459
245.52428
245.52431
245.5245
245.52486
245.52534
245.526
245.52683
245.52762
245.52823
245.52879
245.52952
245.53029
245.53093
245.53156
245.53208
245.5324
245.53248
245.53231
245.53266
245.53414
245.53637
245.53797
245.53953
245.54162
245.54337
245.54484
245.5461
245.54707
245.54894
245.55076
245.55236
245.55415
245.55563
245.55747
245.56012
245.56254
245.56381
245.56405
245.56257
245.5641
245.56519
245.56698
245.54521
245.55399
245.54709
245.53441
245.52616
245.52231
245.52097
245.52069
245.52074
245.52094
245.52129
245.52177
245.52239
245.52312
245.52382
245.52436
245.52476
245.52514
245.52552
245.52584
245.52631
245.52728
245.52846
245.52971
245.53077
245.53187
245.53348
245.53531
245.53646
245.53691
245.53685
245.53687
245.53718
245.53867
245.54043
245.54212
245.54457
245.54781
245.55075
245.55287
245.55487
245.55749
245.55987
245.56133
245.563
245.56442
245.56423
245.56642
245.56484
245.54221
245.55077
245.54362
245.53098
245.52287
245.51915
245.51784
245.51755
245.51757
245.51776
245.5181
245.51856
245.51911
245.51973
245.52042
245.5211
245.52164
245.522
245.5223
245.52261
245.52285
245.523
245.52343
245.5243
245.52541
245.5266
245.52795
245.52978
245.53164
245.53332
245.53476
245.53629
245.53786
245.53936
245.54042
245.54118
245.54208
245.54314
245.54428
245.54607
245.54835
245.5504
245.55225
245.55473
245.55885
245.56071
245.56263
245.56483
245.56404
245.53905
245.54757
245.54029
245.52773
245.51977
245.51617
245.5149
245.51457
245.5145
245.51464
245.51495
245.51539
245.51588
245.51636
245.51686
245.51746
245.51807
245.51856
245.51902
245.51971
245.52058
245.52127
245.52176
245.52222
245.52264
245.52293
245.52321
245.52386
245.52507
245.52669
245.52856
245.5303
245.5322
245.53406
245.53598
245.5381
245.54032
245.54251
245.54466
245.54667
245.54859
245.55016
245.55094
245.55084
245.55215
245.55305
245.55743
245.55931
245.56175
245.53518
245.54366
245.5363
245.52381
245.51595
245.5124
245.51112
245.51073
245.51058
245.51065
245.51093
245.51136
245.51188
245.51234
245.51275
245.51319
245.51374
245.51433
245.51496
245.51582
245.51697
245.51801
245.51871
245.51922
245.51976
245.52034
245.52102
245.52167
245.52252
245.52362
245.52484
245.52578
245.52663
245.5277
245.52918
245.531
245.53313
245.53572
245.5387
245.54137
245.54379
245.54644
245.54948
245.55291
245.55476
245.55529
245.55667
245.55776
245.55838
245.5312
245.53948
245.53194
245.51947
245.51166
245.5081
245.50682
245.50641
245.50625
245.50628
245.50647
245.50682
245.50728
245.50778
245.50825
245.5087
245.50921
245.5098
245.51044
245.51122
245.5122
245.51323
245.51407
245.51477
245.51546
245.51627
245.51717
245.51797
245.51887
245.51985
245.52097
245.52211
245.52324
245.52441
245.5258
245.52732
245.52893
245.53082
245.53298
245.53524
245.53769
245.54058
245.54365
245.5473
245.55049
245.55147
245.55482
245.55727
245.55742
245.52753
245.53559
245.52781
245.51534
245.50761
245.50411
245.50285
245.50248
245.50235
245.50232
245.50239
245.50257
245.50291
245.50336
245.50384
245.5043
245.50476
245.50523
245.5057
245.50621
245.50681
245.50752
245.50825
245.50894
245.50962
245.51036
245.51114
245.51199
245.51295
245.51391
245.51503
245.51635
245.5178
245.51932
245.52101
245.52285
245.52478
245.52686
245.52903
245.53119
245.53359
245.53649
245.53963
245.54102
245.54286
245.54366
245.54971
245.55175
245.55076
245.5239
245.53174
245.52373
245.51128
245.50367
245.50028
245.49905
245.49867
245.49855
245.49854
245.49857
245.49867
245.49891
245.49923
245.49957
245.49991
245.50022
245.50055
245.50088
245.50122
245.50159
245.502
245.5025
245.50304
245.50352
245.50406
245.50464
245.50534
245.50612
245.50689
245.50782
245.50899
245.51036
245.51187
245.5136
245.51555
245.51771
245.52007
245.52255
245.52506
245.52772
245.53075
245.53445
245.53709
245.53811
245.53926
245.5442
245.54613
245.54645
245.51937
245.52704
245.51879
245.50635
245.49887
245.49554
245.4943
245.49391
245.49385
245.49393
245.49403
245.49415
245.49429
245.49442
245.49454
245.49464
245.49474
245.49492
245.49519
245.49544
245.49559
245.49577
245.4961
245.49649
245.49681
245.49717
245.49765
245.49819
245.49879
245.49937
245.50003
245.50086
245.50179
245.50285
245.50411
245.50555
245.50729
245.50936
245.51175
245.51438
245.51722
245.52053
245.52451
245.52678
245.52817
245.53235
245.53546
245.53415
245.53884
245.51624
245.52373
245.51528
245.50288
245.49542
245.49213
245.49091
245.49054
245.49048
245.49055
245.49068
245.49076
245.49078
245.49081
245.49081
245.49078
245.49082
245.49095
245.49107
245.49109
245.49107
245.4912
245.49147
245.49172
245.49196
245.49226
245.49263
245.49306
245.49361
245.49421
245.49488
245.4956
245.4964
245.4973
245.49828
245.49942
245.50083
245.50256
245.50465
245.50708
245.50982
245.51305
245.51705
245.51957
245.52143
245.52783
245.5306
245.53832
245.53219
245.50936
245.51658
245.50786
245.49532
245.48797
245.48475
245.48357
245.48308
245.48281
245.4827
245.48265
245.48244
245.48226
245.48221
245.48208
245.48196
245.48182
245.48165
245.48143
245.48118
245.48103
245.48097
245.48087
245.48074
245.48067
245.48056
245.48041
245.48039
245.48035
245.48032
245.48033
245.48029
245.48021
245.4801
245.47992
245.47978
245.47971
245.47969
245.47967
245.47969
245.47976
245.48008
245.48051
245.47595
245.48237
245.46175
245.50275
245.42826
245.53697
)
;

boundaryField
{
    Side
    {
        type            empty;
    }
    Inlet
    {
        type            totalTemperature;
        gamma           1.4;
        T0              uniform 250;
        value           nonuniform List<scalar> 
21
(
245.58256
245.58228
245.58193
245.58162
245.58125
245.58068
245.58014
245.57957
245.57874
245.5779
245.57713
245.57604
245.57468
245.5735
245.57151
245.5688
245.56623
245.56326
245.55883
245.55203
245.55409
)
;
    }
    Airfoil
    {
        type            zeroGradient;
    }
    Outlet
    {
        type            inletOutlet;
        inletValue      uniform 245.48;
        value           nonuniform List<scalar> 
49
(
245.50936
245.51658
245.50785
245.49532
245.48797
245.48475
245.48356
245.48308
245.48281
245.4827
245.48265
245.48245
245.48227
245.4822
245.48208
245.48196
245.48181
245.48165
245.48143
245.48118
245.48102
245.48097
245.48087
245.48074
245.48067
245.48056
245.48041
245.48039
245.48035
245.48032
245.48032
245.48028
245.48021
245.48009
245.47992
245.47978
245.47971
245.47969
245.47968
245.47969
245.47977
245.48008
245.48051
245.47596
245.48237
245.46175
245.50275
245.42826
245.53697
)
;
    }
    procBoundary13to6
    {
        type            processor;
        value           nonuniform List<scalar> 
34
(
245.59909
245.59909
245.59769
245.59606
245.59426
245.59228
245.59048
245.58871
245.58691
245.5853
245.58352
245.58134
245.57891
245.57656
245.57436
245.57195
245.56943
245.56716
245.56467
245.56157
245.55838
245.5554
245.55231
245.54887
245.54557
245.54259
245.53926
245.53527
245.53132
245.52769
245.52411
245.51967
245.51664
245.50986
)
;
    }
    procBoundary13to12
    {
        type            processor;
        value           nonuniform List<scalar> 
60
(
245.61208
245.60997
245.5968
245.5852
245.57681
245.57681
245.57321
245.57161
245.5709
245.57054
245.57036
245.56938
245.56938
245.5694
245.56948
245.56962
245.56981
245.56895
245.56895
245.5692
245.56943
245.56962
245.56872
245.56872
245.56895
245.56916
245.56936
245.56959
245.56886
245.56886
245.56916
245.56951
245.56988
245.56956
245.56956
245.57003
245.57048
245.57102
245.57075
245.57075
245.57128
245.57166
245.57182
245.57182
245.57229
245.57298
245.57304
245.57304
245.57396
245.57473
245.57567
245.57567
245.57638
245.57702
245.57675
245.57675
245.57605
245.57536
245.57536
245.57424
)
;
    }
}


// ************************************************************************* //
