/*--------------------------------*- C++ -*----------------------------------*\
| =========                 |                                                 |
| \\      /  F ield         | OpenFOAM: The Open Source CFD Toolbox           |
|  \\    /   O peration     | Version:  2506                                  |
|   \\  /    A nd           | Website:  www.openfoam.com                      |
|    \\/     M anipulation  |                                                 |
\*---------------------------------------------------------------------------*/
FoamFile
{
    version     2.0;
    format      ascii;
    arch        "LSB;label=32;scalar=64";
    class       volScalarField;
    location    "0.0025";
    object      yPlus;
}
// * * * * * * * * * * * * * * * * * * * * * * * * * * * * * * * * * * * * * //

dimensions      [0 0 0 0 0 0 0];

internalField   uniform 0;

boundaryField
{
    Side
    {
        type            empty;
    }
    Inlet
    {
        type            calculated;
        value           uniform 0;
    }
    Airfoil
    {
        type            calculated;
        value           nonuniform List<scalar> 
1047
(
0.71323544
0.64086609
0.64136529
0.62440737
0.6201912
0.61394568
0.61086173
0.60817053
0.60669155
0.60587309
0.60576345
0.60619648
0.60714752
0.60855906
0.610406
0.61266221
0.61531488
0.61835271
0.621775
0.62558198
0.62978796
0.63441331
0.6394944
0.64502114
0.65130274
0.65545053
0.6548858
0.65394416
0.65451489
0.65515051
0.65611359
0.6571781
0.6583701
0.65963829
0.66097765
0.66237165
0.66381763
0.66530725
0.66683954
0.66841082
0.6700201
0.67166636
0.67335203
0.6750742
0.67683544
0.67863633
0.68047724
0.68235986
0.68428465
0.68625692
0.688339
0.69049776
0.69265256
0.69483348
0.69704263
0.69928554
0.70156511
0.7038836
0.70624298
0.70864391
0.71108846
0.71357859
0.71611499
0.71869966
0.72133412
0.72401989
0.72675878
0.72955155
0.73240152
0.73531225
0.73828561
0.74132543
0.74443244
0.74757681
0.7507362
0.75392387
0.75714695
0.76040909
0.76371379
0.76706462
0.77046413
0.77391618
0.77742373
0.78098755
0.78461136
0.78829976
0.79205588
0.79588309
0.79978557
0.80376828
0.80783827
0.81198106
0.81604773
0.82002556
0.82405539
0.82810779
0.83216748
0.83621924
0.84024767
0.84423518
0.84815968
0.85199559
0.85571368
0.85927899
0.86264935
0.86577646
0.86861329
0.871135
0.87354717
0.87621824
0.87815513
0.8784572
0.87760816
0.87567354
0.87272454
0.8687825
0.86385673
0.85795037
0.85107182
0.84322335
0.83443514
0.82476784
0.81433918
0.80328266
0.79141444
0.77843449
0.76452536
0.75012247
0.73543077
0.72056485
0.70554948
0.69036825
0.67496427
0.6592864
0.64330734
0.62701393
0.61039939
0.59348551
0.57626466
0.5583005
0.53959024
0.52069216
0.50167919
0.48255913
0.46337343
0.44414824
0.42490658
0.40566769
0.38644172
0.36722832
0.34801196
0.32876486
0.30945615
0.29003991
0.27045015
0.25060182
0.23038176
0.20963745
0.18807596
0.16569311
0.14134541
0.11580723
0.090908597
0.051954462
0.05763031
0.094692306
0.11969433
0.13907279
0.15513294
0.16882226
0.18073171
0.19123201
0.20058026
0.20896446
0.21653341
0.22340641
0.22968283
0.23545734
0.24082649
0.24588355
0.25072173
0.25542763
0.2600716
0.26469527
0.26930921
0.27389666
0.27842609
0.28286232
0.28717359
0.29133682
0.29533838
0.29917188
0.30283678
0.30633686
0.30967837
0.31286759
0.31591088
0.31881271
0.32157394
0.32423368
0.32681047
0.32928944
0.3316768
0.3339798
0.33620423
0.33835519
0.3404401
0.34246286
0.34443029
0.3463435
0.34821005
0.35003169
0.35181616
0.35356546
0.35528965
0.35699224
0.35868583
0.36037973
0.36209735
0.3638582
0.36573473
0.36770461
0.37045185
0.37280583
0.37269479
0.37148965
0.3706478
0.37002487
0.36960064
0.36933265
0.3692027
0.36919882
0.3693217
0.36957222
0.36996263
0.37051159
0.37124015
0.37217037
0.3733341
0.3747742
0.37655107
0.37874133
0.38147341
0.38485382
0.3893567
0.39460094
0.40428202
0.40938228
0.45395241
0.22769726
0.2283499
0.055649041
0.10612503
0.06970648
0.094112069
0.098653334
0.10989836
0.11912943
0.1283143
0.13674858
0.14428125
0.15099698
0.15738732
0.16342507
0.16910597
0.17446726
0.17950494
0.18399998
0.18818636
0.19234399
0.19635525
0.20022946
0.20396908
0.20761292
0.21097148
0.21406692
0.21716356
0.22023942
0.22324438
0.22618286
0.2290541
0.23190222
0.23459118
0.23715032
0.2397844
0.24248201
0.24518952
0.24789211
0.25057798
0.25324934
0.25587868
0.25834692
0.26076384
0.26325278
0.26575096
0.26824313
0.27072475
0.27318873
0.2756277
0.27799446
0.2801991
0.28233581
0.28451286
0.2866762
0.28881623
0.29091735
0.29299674
0.29504288
0.29705682
0.29895929
0.30077804
0.30264952
0.30454528
0.3064625
0.30839679
0.3103501
0.31231535
0.31428204
0.31622597
0.31806153
0.31985878
0.32168926
0.32353204
0.32536952
0.32722353
0.32907355
0.3309446
0.3328247
0.33472164
0.33655991
0.33841226
0.34038115
0.3424832
0.3447526
0.34721349
0.34988958
0.35269075
0.35555349
0.35830301
0.36079706
0.36299801
0.36494849
0.36674079
0.36835963
0.36989594
0.37132764
0.37273104
0.37408335
0.37544252
0.37674651
0.37798954
0.3791836
0.38039415
0.38165508
0.38295347
0.38436687
0.38589066
0.38760184
0.3895017
0.39162641
0.39390938
0.39623855
0.3985873
0.40086735
0.40293276
0.40456606
0.40558087
0.40573581
0.40474666
0.40258333
0.39927733
0.39589416
0.39360735
0.39407364
0.39771496
0.40374802
0.4110578
0.41826514
0.42491324
0.43044769
0.43508127
0.43872886
0.44168629
0.44392658
0.44566867
0.44705453
0.44821649
0.44917933
0.45001095
0.45073831
0.4513953
0.45200186
0.45257034
0.45311256
0.45361522
0.45401565
0.45435897
0.45473018
0.45510729
0.45548003
0.4558518
0.45621502
0.45657816
0.45693593
0.4572981
0.45765991
0.45799809
0.45825536
0.45850521
0.45881374
0.45915219
0.45951369
0.45989619
0.46029815
0.46071815
0.46116132
0.46161509
0.46208146
0.46252729
0.46289117
0.46324919
0.46366282
0.46410858
0.46458116
0.4650775
0.46559673
0.46613821
0.46669991
0.46728093
0.46788072
0.46848243
0.46900559
0.46949377
0.47005284
0.47065205
0.47128491
0.47194573
0.47263279
0.47334343
0.47407367
0.47482169
0.47558262
0.47635288
0.4770578
0.47767408
0.47830371
0.47896105
0.47961907
0.48027018
0.48090824
0.48152898
0.48213004
0.48271019
0.48326959
0.48380828
0.48431571
0.48471022
0.48502922
0.4853893
0.48576654
0.48615885
0.48656179
0.48697597
0.48739814
0.48783238
0.488272
0.4887223
0.48917898
0.48962617
0.48997705
0.4902894
0.49066298
0.49106686
0.49149005
0.49193163
0.49238534
0.49284987
0.49332004
0.49379428
0.49426945
0.49474476
0.4952045
0.4955697
0.49587616
0.49622578
0.49658925
0.49696327
0.49734371
0.49772958
0.49811797
0.49851006
0.49890351
0.49930093
0.49969817
0.50009837
0.50043504
0.50070386
0.5009948
0.50131386
0.50164628
0.50199253
0.5023471
0.50271032
0.50308157
0.50346052
0.50384478
0.50423639
0.50463396
0.50502538
0.50534685
0.50562936
0.50594876
0.50627927
0.50661976
0.50696626
0.50731879
0.50767659
0.50803683
0.50839847
0.50876238
0.50912706
0.50949276
0.50984923
0.51014882
0.51041456
0.51070138
0.51099146
0.51128571
0.5115813
0.51187798
0.51217496
0.51247246
0.51277058
0.51306856
0.51336591
0.51366282
0.51396018
0.51423091
0.51446624
0.51469936
0.51493131
0.51515693
0.51537494
0.5155838
0.51578223
0.51597026
0.5161468
0.51631297
0.51646907
0.51661786
0.51676184
0.51690514
0.517043
0.5171762
0.51731822
0.51747595
0.51765627
0.51786557
0.51810568
0.5183808
0.51869511
0.5190487
0.51944216
0.51987621
0.52034988
0.52086339
0.52141646
0.52201391
0.52266174
0.52334438
0.52405296
0.52479847
0.52558175
0.52640715
0.52727616
0.52819149
0.5291531
0.53015788
0.53120641
0.53229753
0.53342527
0.53458874
0.53578362
0.5370002
0.53826823
0.53957927
0.54087541
0.54215578
0.54342296
0.54467929
0.54592388
0.54715681
0.54837749
0.54958841
0.55079293
0.55198985
0.55318288
0.55437612
0.55557137
0.55677108
0.55797711
0.5591819
0.56044116
0.56175905
0.56305026
0.56431529
0.5655657
0.56680365
0.56803117
0.56924943
0.57045736
0.57165419
0.57284291
0.57402514
0.57519953
0.57636706
0.57753064
0.57869297
0.57985113
0.58100018
0.58215533
0.58318476
0.5849133
0.58910984
0.59337028
0.59581187
0.59770047
0.59888072
0.59958607
0.59983127
0.59969331
0.59921302
0.5984356
0.59739435
0.59612255
0.59465618
0.59302601
0.59126073
0.58938477
0.58741717
0.58536328
0.58321262
0.58090389
0.57838974
0.57508844
0.57412221
0.55327895
0.66335826
0.42272568
0.35406708
0.36951345
0.37160703
0.37561106
0.37862157
0.38128278
0.38368123
0.38591974
0.38804477
0.39007265
0.3920135
0.39386138
0.39560987
0.39724082
0.39873823
0.40008023
0.40124244
0.40219611
0.40290849
0.40333642
0.40344422
0.40312055
0.4023607
0.40036114
0.39845515
0.39825041
0.39853534
0.39871616
0.39887233
0.39900294
0.39912477
0.39923953
0.39935343
0.39946569
0.39957842
0.39968956
0.39980273
0.39991509
0.40002828
0.40014254
0.40025444
0.40036317
0.4004678
0.40055664
0.40062843
0.40074557
0.40090684
0.40106929
0.40123753
0.40141062
0.40158805
0.40177015
0.40195505
0.40214248
0.40233061
0.40252048
0.40270946
0.40289936
0.40308576
0.40327021
0.40344823
0.40361499
0.40376759
0.40395126
0.40416482
0.40438623
0.40461519
0.404854
0.40510233
0.40535971
0.40562571
0.40589976
0.40618156
0.4064695
0.40676226
0.40705982
0.40735976
0.40766036
0.40795362
0.40824798
0.40855754
0.40887593
0.40919937
0.4095283
0.40985741
0.41019632
0.41053305
0.41087855
0.41122258
0.41157464
0.41192447
0.41228222
0.41263583
0.41299549
0.41334858
0.41369791
0.41403687
0.41438303
0.41472692
0.41507603
0.41542154
0.4157703
0.41611735
0.41646587
0.41681243
0.4171585
0.4175024
0.41784522
0.41818827
0.41853094
0.4188461
0.4191398
0.41943543
0.41973274
0.42003354
0.42034059
0.42065314
0.42097251
0.42129986
0.42163411
0.42197578
0.42232551
0.42268343
0.42306219
0.42341621
0.42372248
0.42402231
0.42432268
0.42462475
0.42492979
0.42523909
0.4255544
0.42587851
0.42621507
0.42656435
0.42692669
0.4273048
0.42771771
0.42810108
0.42842332
0.42874036
0.42906302
0.42938792
0.42971573
0.43004224
0.43037453
0.43070685
0.43105081
0.43139762
0.43176159
0.43214305
0.43255408
0.43290416
0.43320781
0.43351192
0.43382586
0.43414145
0.43446425
0.4347885
0.43512594
0.4354723
0.43583603
0.43621285
0.43661373
0.43705867
0.4374623
0.43778688
0.43810295
0.43842326
0.43874868
0.43908252
0.43942014
0.43976742
0.44012489
0.44049866
0.44089195
0.44130883
0.44178084
0.44221605
0.44256838
0.44290778
0.44325334
0.44360513
0.44396453
0.4443312
0.44470612
0.4450875
0.44547692
0.44587783
0.44629359
0.44674133
0.4471195
0.44738918
0.44762631
0.44783389
0.44802589
0.4482032
0.44838253
0.44856722
0.44876997
0.448987
0.44921855
0.44947481
0.4497382
0.44991008
0.45001042
0.4501049
0.4501967
0.4502911
0.45038819
0.45049088
0.45059893
0.45071407
0.4508409
0.45098622
0.45117937
0.45132568
0.45138637
0.45143647
0.45149411
0.45156187
0.4516454
0.45174437
0.45186326
0.45200313
0.45216823
0.45236212
0.45261705
0.4528594
0.45302128
0.4531579
0.4533017
0.45345247
0.45361313
0.45378589
0.45396994
0.45416947
0.45438971
0.45463359
0.45493151
0.45521904
0.45543059
0.45561365
0.45579863
0.45598617
0.45617868
0.45637831
0.45658777
0.45681293
0.45706064
0.45734011
0.45768462
0.45801859
0.45830333
0.45860889
0.45896083
0.45936741
0.45983658
0.46037518
0.46098935
0.46168395
0.46246128
0.46333326
0.46429444
0.46524652
0.46617869
0.46714605
0.46813128
0.46912655
0.47013063
0.47113047
0.47211889
0.47309034
0.47404031
0.47499354
0.47585672
0.47658285
0.47723634
0.47783133
0.47836527
0.47883623
0.47924868
0.47961436
0.47995004
0.48026263
0.48059531
0.48088746
0.48108743
0.48125943
0.48143454
0.48161782
0.48181409
0.48202685
0.48225788
0.48251199
0.48279447
0.4831325
0.48345184
0.48370843
0.48396492
0.48422956
0.48450727
0.48481737
0.48515137
0.48550998
0.48590398
0.4863468
0.48684316
0.48730262
0.48771305
0.48813505
0.48857688
0.48904131
0.48952764
0.49003743
0.49057576
0.49115145
0.49179166
0.49238897
0.49289164
0.49338265
0.49387182
0.49436398
0.49487238
0.49539041
0.49593857
0.49651803
0.49716634
0.49780108
0.49834919
0.49888502
0.49944489
0.50002733
0.50063261
0.50127041
0.50195231
0.50268772
0.50349928
0.50425226
0.50490778
0.50558859
0.50629736
0.50702652
0.50778717
0.50860164
0.509464
0.51045284
0.51141701
0.51225267
0.51307597
0.51393028
0.51482072
0.51575966
0.51674848
0.51780173
0.51899597
0.52017551
0.52121815
0.52225202
0.52333166
0.52444831
0.52561832
0.52686087
0.52820101
0.52965852
0.53099893
0.53221251
0.53347554
0.53479658
0.53619277
0.53767544
0.53930062
0.54108959
0.54275094
0.54426242
0.54586704
0.54756222
0.54938666
0.55137622
0.55370209
0.55602535
0.55815347
0.56038585
0.5627749
0.56537102
0.56828249
0.57159402
0.57485693
0.57808601
0.58171339
0.5858652
0.59087085
0.59708753
0.60334775
0.61364474
0.6230037
0.66450743
0.75590086
)
;
    }
    Outlet
    {
        type            calculated;
        value           uniform 0;
    }
}


// ************************************************************************* //
