/*--------------------------------*- C++ -*----------------------------------*\
| =========                 |                                                 |
| \\      /  F ield         | OpenFOAM: The Open Source CFD Toolbox           |
|  \\    /   O peration     | Version:  2506                                  |
|   \\  /    A nd           | Website:  www.openfoam.com                      |
|    \\/     M anipulation  |                                                 |
\*---------------------------------------------------------------------------*/
FoamFile
{
    version     2.0;
    format      ascii;
    arch        "LSB;label=32;scalar=64";
    class       volScalarField;
    location    "0.005";
    object      nut;
}
// * * * * * * * * * * * * * * * * * * * * * * * * * * * * * * * * * * * * * //

dimensions      [0 2 -1 0 0 0 0];

internalField   nonuniform List<scalar> 
13761
(
0.00058818123
0.00064311145
0.00070061825
0.00076074034
0.00082350196
0.00088897739
0.00095734646
0.0010289491
0.0011043202
0.0011842455
0.0012697811
0.0013622093
0.0014628349
0.0015725101
0.0016906974
0.0018139712
0.0019340454
0.002035896
0.0020973265
0.0020917314
0.0019951351
0.0017954519
0.001496762
0.0011127358
2.5644472e-10
7.1130681e-10
1.2566616e-08
1.1433168e-07
5.9483412e-07
2.0807125e-06
5.3469585e-06
1.0858904e-05
1.8652497e-05
2.8585807e-05
4.05394e-05
5.4458541e-05
7.0337602e-05
8.8213515e-05
0.00010815462
0.00013024695
0.00015458481
0.0001812603
0.0002103492
0.00024191997
0.00027604153
0.00031276376
0.00035211988
0.00039413591
0.00043881815
0.00048616328
0.00053616257
0.00058881497
0.00064406226
0.00070187504
0.00076224986
0.0008252242
0.00089089527
0.00095946204
0.0010312758
0.0011068806
0.0011870649
0.0012728907
0.0013656427
0.0014666323
0.0015767162
0.0016953598
0.0018191335
0.0019397395
0.0020421313
0.0021040902
0.0020989415
0.0020025219
0.0018026375
0.0015033624
2.5797798e-10
7.1635114e-10
1.266108e-08
1.1517854e-07
5.9904191e-07
2.0942127e-06
5.3776181e-06
1.0912989e-05
1.873346e-05
2.86955e-05
4.067916e-05
5.4629808e-05
7.054191e-05
8.8452409e-05
0.00010842964
0.00013055948
0.00015493606
0.00018165151
0.00021078185
0.00024239599
0.00027656354
0.00031333563
0.00035274699
0.00039482535
0.0004395787
0.00048700418
0.00053708765
0.00058980423
0.00064513023
0.00070304786
0.00076355502
0.00082668844
0.00089254403
0.00096132029
0.0010333686
0.0011092341
0.0011897075
0.0012758535
0.0013689613
0.0014703502
0.0015808867
0.0017000378
0.0018243715
0.0019455748
0.0020485502
0.0021110959
0.0021063343
0.0020098318
2.5939012e-10
7.2046501e-10
1.2735223e-08
1.1584298e-07
6.0232418e-07
2.1046002e-06
5.4007748e-06
1.095307e-05
1.8792509e-05
2.8774571e-05
4.0779197e-05
5.4751915e-05
7.0687272e-05
8.8622356e-05
0.00010862555
0.00013078265
0.00015518795
0.00018193357
0.00021109571
0.00024274363
0.00027694748
0.00031375906
0.0003532141
0.00039534158
0.00044015087
0.00048764109
0.00053780004
0.00059060538
0.00064603511
0.00070407331
0.00076471952
0.000828012
0.00089404809
0.0009630274
0.0010353035
0.0011114251
0.0011921872
0.0012786533
0.0013721134
0.0014738964
0.0015848799
0.0017045319
0.0018294293
0.0019512185
0.0020546328
0.0021175566
2.6050719e-10
7.2411683e-10
1.2803826e-08
1.1645865e-07
6.0538011e-07
2.1143591e-06
5.4227942e-06
1.0991726e-05
1.8850377e-05
2.8853315e-05
4.0880399e-05
5.4877097e-05
7.083788e-05
8.8799587e-05
0.00010883031
0.00013101556
0.00015544946
0.0001822239
0.00021141511
0.00024309236
0.00027732627
0.00031416919
0.00035365784
0.00039582254
0.00044067466
0.00048821572
0.00053843721
0.0005913204
0.00064684619
0.00070500077
0.00076578628
0.00082924308
0.00089547045
0.00096466957
0.0010371959
0.0011136068
0.0011947028
0.0012815437
0.0013754154
0.0014775999
0.0015890464
0.0017092285
0.0018347396
2.6150432e-10
7.2763782e-10
1.2871265e-08
1.1706441e-07
6.0839373e-07
2.124024e-06
5.4447539e-06
1.1030441e-05
1.890835e-05
2.8931833e-05
4.0980225e-05
5.4998543e-05
7.0980985e-05
8.8963915e-05
0.0001090149
0.00013121894
0.0001556698
0.00018245911
0.00021166306
0.00024335125
0.0002775951
0.00031444826
0.00035394911
0.00039613046
0.00044100629
0.00048858205
0.00053885486
0.00059181107
0.00064743289
0.00070571094
0.00076665141
0.00083029866
0.00089675537
0.00096622519
0.0010390595
0.0011157687
0.0011971989
0.0012844294
0.0013787191
2.6257279e-10
7.3101828e-10
1.2933582e-08
1.1762197e-07
6.1114992e-07
2.1327515e-06
5.4641805e-06
1.1063966e-05
1.8957623e-05
2.8997704e-05
4.1063158e-05
5.5098771e-05
7.109845e-05
8.9098247e-05
0.00010916542
0.0001313847
0.0001558498
0.00018265281
0.00021187061
0.00024357429
0.00027783765
0.00031471781
0.00035425828
0.00039649794
0.00044145633
0.00048913507
0.00053949462
0.00059251153
0.00064821552
0.00070661808
0.00076773094
0.00083159764
0.00089831938
0.00096810184
0.0010412783
2.6381091e-10
7.3533507e-10
1.3016026e-08
1.1836231e-07
6.1482114e-07
2.1444422e-06
5.4904306e-06
1.1109711e-05
1.9025362e-05
2.9088453e-05
4.1177299e-05
5.5236254e-05
7.1259089e-05
8.9281684e-05
0.00010937149
0.00013161337
0.00015610159
0.00018292914
0.00021217447
0.00024391106
0.00027821634
0.00031515352
0.00035477577
0.00039713688
0.00044227072
0.00049015075
2.7285777e-10
7.3730938e-10
1.2887184e-08
1.1718956e-07
6.0895885e-07
2.1237425e-06
5.4337988e-06
1.0985844e-05
1.8802167e-05
2.8744593e-05
4.0705576e-05
5.4647797e-05
7.0586772e-05
8.8585282e-05
0.00010874376
0.00013118624
0.00015605127
0.0001834754
0.00021358547
0.00024650421
0.00028235869
0.00032126011
0.0003633062
0.00040859117
0.00045719125
0.00050917394
0.00056459463
0.00062349578
0.00068591276
0.0007518795
0.00082142818
0.00089459564
0.00097144418
0.0010520796
0.0011367511
0.001225859
0.00132001
0.0014200559
0.0015271054
0.0016425965
0.0017678151
0.001903507
0.0020488766
0.002200057
0.0023481041
0.0024771357
0.0025636364
0.0025787984
0.002494819
2.7237703e-10
7.3745952e-10
1.2900339e-08
1.1731092e-07
6.0960152e-07
2.1261616e-06
5.4404479e-06
1.0998981e-05
1.8821097e-05
2.8764224e-05
4.072029e-05
5.465141e-05
7.0573174e-05
8.8549014e-05
0.00010868046
0.00013109297
0.00015592422
0.00018331627
0.00021339913
0.00024629684
0.00028213752
0.00032103302
0.0003630812
0.00040837606
0.0004569929
0.0005089979
0.00056444409
0.00062336999
0.00068581075
0.00075179423
0.00082134308
0.00089449574
0.00097132067
0.0010519497
0.0011366326
0.0012257615
0.0013199437
0.0014200378
0.0015271829
0.0016427222
0.0017679707
0.0019036741
0.0020490248
0.002200139
0.0023480606
0.0024768754
0.0025631118
0.002577935
0.0024935906
0.0022922958
0.0019729716
0.0015499984
0.0010427912
0.00043230989
5.9667706e-05
1.4504302e-05
1.0325883e-05
1.0100969e-05
1.0096157e-05
1.0095413e-05
1.0094798e-05
1.0094603e-05
1.0094754e-05
1.0095004e-05
1.0095163e-05
1.0095336e-05
1.0095551e-05
1.0095724e-05
1.0095772e-05
1.0095766e-05
1.0095994e-05
1.009646e-05
1.009679e-05
1.009681e-05
1.0096921e-05
1.0097497e-05
1.0097789e-05
1.0097705e-05
1.0098058e-05
1.0099949e-05
1.0100773e-05
1.009524e-05
1.0098376e-05
1.0112535e-05
1.0103979e-05
1.0074546e-05
1.0079837e-05
1.0116762e-05
1.0156132e-05
1.0172763e-05
2.7237626e-10
7.391641e-10
1.2942735e-08
1.1769712e-07
6.1157678e-07
2.1329677e-06
5.4578291e-06
1.1034138e-05
1.8880686e-05
2.885268e-05
4.0839042e-05
5.4798908e-05
7.0745441e-05
8.8740171e-05
0.00010888328
0.00013129951
0.00015612894
0.00018351532
0.0002135887
0.00024647488
0.00028230365
0.00032118839
0.00036322828
0.0004085182
0.00045713416
0.00050914256
0.00056459657
0.00062353526
0.00068599007
0.00075198604
0.00082154624
0.00089470618
0.00097153606
0.0010521708
0.0011368553
0.0012259868
0.0013201676
0.0014202639
0.0015274121
0.0016429568
0.0017682115
0.0019039163
0.0020492494
0.0022003
0.0023480814
0.0024766584
0.0025625289
0.0025768643
0.0024918592
0.0022899629
0.0019703225
0.0015468532
0.0010390532
0.00042773134
5.883844e-05
1.4497253e-05
1.032964e-05
1.0105888e-05
1.0101044e-05
1.0100298e-05
1.0099681e-05
1.0099488e-05
1.0099632e-05
1.0099883e-05
1.0100039e-05
1.0100202e-05
1.0100403e-05
1.0100558e-05
1.0100599e-05
1.0100598e-05
1.0100825e-05
1.010126e-05
1.0101545e-05
1.0101568e-05
1.0101699e-05
1.0102218e-05
1.0102451e-05
1.0102373e-05
1.0102654e-05
1.0104594e-05
1.0105376e-05
1.0099439e-05
1.0102783e-05
1.0117138e-05
1.0108166e-05
1.0078193e-05
1.0083537e-05
1.0120777e-05
1.0160152e-05
1.0176556e-05
1.0165347e-05
1.0142199e-05
1.0126397e-05
1.0121228e-05
1.0121721e-05
1.0124166e-05
1.0127122e-05
1.0131083e-05
1.0135818e-05
2.7210136e-10
7.400768e-10
1.2970721e-08
1.179514e-07
6.1288254e-07
2.1375612e-06
5.4697164e-06
1.1057626e-05
1.8917891e-05
2.8902405e-05
4.0897172e-05
5.4859735e-05
7.0802411e-05
8.8786933e-05
0.00010891422
0.00013131094
0.00015611843
0.00018348105
0.000213531
0.00024639621
0.00028220841
0.00032108264
0.00036311938
0.00040841434
0.00045704389
0.00050907431
0.0005645583
0.00062353411
0.0006860324
0.00075207709
0.00082168516
0.00089489862
0.00097178362
0.0010524729
0.0011372093
0.0012263885
0.0013206103
0.0014207396
0.0015279088
0.0016434592
0.001768699
0.0019043622
0.002049624
0.002200546
0.0023481268
0.0024764162
0.0025618933
0.002575699
0.0024900229
0.0022874219
0.0019672393
0.0015432546
0.0010349041
0.00042326244
5.7928505e-05
1.4471092e-05
1.0331601e-05
1.0110231e-05
1.0105414e-05
1.0104667e-05
1.0104048e-05
1.0103864e-05
1.010401e-05
1.0104262e-05
1.0104418e-05
1.0104572e-05
1.0104764e-05
1.0104915e-05
1.0104964e-05
1.0104978e-05
1.0105216e-05
1.0105638e-05
1.0105901e-05
1.0105932e-05
1.010609e-05
1.0106577e-05
1.0106769e-05
1.0106689e-05
1.0106929e-05
1.0108885e-05
1.0109644e-05
1.0103327e-05
1.0106853e-05
1.0121426e-05
1.0112028e-05
1.0081522e-05
1.0086899e-05
1.012449e-05
1.016397e-05
1.0180155e-05
1.0169412e-05
1.0145717e-05
1.012935e-05
1.0123658e-05
1.0123718e-05
1.0125765e-05
1.0128355e-05
1.013205e-05
1.0136611e-05
1.0141289e-05
1.0145043e-05
1.0149771e-05
1.015337e-05
1.0154316e-05
2.7201044e-10
7.4170357e-10
1.3012804e-08
1.1833331e-07
6.14836e-07
2.1443311e-06
5.4869822e-06
1.1091818e-05
1.897354e-05
2.8980884e-05
4.0996898e-05
5.4976461e-05
7.0929882e-05
8.8917399e-05
0.00010904082
0.0001314266
0.0001562172
0.00018355877
0.00021358574
0.00024642856
0.00028222149
0.00032108196
0.00036311245
0.00040841012
0.00045705224
0.00050910527
0.00056462159
0.00062363871
0.00068618594
0.0007522837
0.00082195132
0.00089522364
0.00097216347
0.0010529074
0.0011377004
0.0012269351
0.0013212105
0.0014213899
0.0015286033
0.0016441854
0.0017694254
0.0019050392
0.0020501785
0.0022009313
0.0023482895
0.0024762826
0.002561364
0.0025746738
0.0024884076
0.0022850194
0.0019640659
0.0015394188
0.0010305987
0.00041883948
5.6967148e-05
1.4436271e-05
1.0332906e-05
1.0113789e-05
1.0109019e-05
1.0108281e-05
1.0107669e-05
1.0107503e-05
1.0107663e-05
1.0107928e-05
1.0108093e-05
1.0108239e-05
1.0108425e-05
1.0108577e-05
1.0108646e-05
1.0108689e-05
1.0108946e-05
1.0109362e-05
1.0109615e-05
1.0109673e-05
1.0109887e-05
1.0110355e-05
1.0110525e-05
1.0110471e-05
1.0110699e-05
1.011272e-05
1.0113507e-05
1.0106789e-05
1.0110571e-05
1.0125474e-05
1.011564e-05
1.0084597e-05
1.0090093e-05
1.012816e-05
1.0167797e-05
1.018381e-05
1.0173232e-05
1.0148944e-05
1.0132013e-05
1.0125876e-05
1.0125594e-05
1.012732e-05
1.0129673e-05
1.0133278e-05
1.01378e-05
1.0142217e-05
1.0146644e-05
1.0151501e-05
1.0154626e-05
1.0155784e-05
1.0155913e-05
1.0155752e-05
1.0154931e-05
2.7193329e-10
7.4314395e-10
1.3050016e-08
1.1867165e-07
6.1657312e-07
2.1503942e-06
5.5026063e-06
1.1123158e-05
1.9025319e-05
2.9055196e-05
4.109323e-05
5.5092113e-05
7.1060154e-05
8.9057103e-05
0.00010918269
0.00013156303
0.00015634099
0.00018366391
0.00021366804
0.00024648619
0.00028225521
0.0003210952
0.00036311116
0.00040840241
0.00045704774
0.00050911436
0.00056465453
0.0006237046
0.00068629196
0.00075243441
0.00082215304
0.00089548257
0.00097248533
0.0010532905
0.0011381358
0.0012274127
0.0013217186
0.0014219131
0.0015291224
0.0016446792
0.0017698859
0.0019054574
0.0020505426
0.0022011959
0.0023483848
0.0024761146
0.0025608128
0.0025736063
0.0024867055
0.002282619
0.0019608514
0.0015354889
0.0010261737
0.00041430842
5.5966834e-05
1.4396436e-05
1.0333038e-05
1.0116857e-05
1.0112148e-05
1.0111427e-05
1.0110826e-05
1.0110686e-05
1.0110863e-05
1.0111147e-05
1.0111323e-05
1.0111465e-05
1.0111646e-05
1.0111798e-05
1.011189e-05
1.0111973e-05
1.0112255e-05
1.0112668e-05
1.0112922e-05
1.0113025e-05
1.0113313e-05
1.0113766e-05
1.0113933e-05
1.0113922e-05
1.0114166e-05
1.0116286e-05
1.0117139e-05
1.0110078e-05
1.0114144e-05
1.0129417e-05
1.0119232e-05
1.0087743e-05
1.009342e-05
1.0132029e-05
1.0171916e-05
1.0187858e-05
1.0177091e-05
1.0152254e-05
1.0134876e-05
1.012837e-05
1.0127794e-05
1.0129298e-05
1.0131399e-05
1.0134766e-05
1.0139177e-05
1.0143585e-05
1.0148214e-05
1.0152794e-05
1.0155757e-05
1.0157094e-05
1.0157159e-05
1.0156662e-05
1.0155982e-05
1.015416e-05
1.0151534e-05
1.0153519e-05
2.7183753e-10
7.4414721e-10
1.3076759e-08
1.1891543e-07
6.1783526e-07
2.1548778e-06
5.5144387e-06
1.1147426e-05
1.906614e-05
2.9114672e-05
4.1171429e-05
5.5187294e-05
7.1169538e-05
8.9175692e-05
0.00010930404
0.00013167983
0.00015644569
0.00018374951
0.00021372883
0.00024651841
0.00028225762
0.00032106937
0.00036306148
0.00040833588
0.00045697346
0.00050904286
0.00056459686
0.00062367129
0.00068629206
0.00075247619
0.00082223738
0.00089560706
0.00097264897
0.0010534912
0.0011383696
0.0012276741
0.0013220015
0.0014222114
0.0015294313
0.0016449932
0.0017701912
0.001905738
0.0020507734
0.0022013343
0.0023483619
0.0024758301
0.0025601334
0.0025723787
0.0024847881
0.0022799292
0.0019573829
0.0015313311
0.0010215669
0.00040945607
5.4884025e-05
1.435161e-05
1.033268e-05
1.0119621e-05
1.0114985e-05
1.0114284e-05
1.0113696e-05
1.0113578e-05
1.0113773e-05
1.011408e-05
1.0114275e-05
1.0114428e-05
1.011462e-05
1.0114782e-05
1.01149e-05
1.0115026e-05
1.0115344e-05
1.0115784e-05
1.0116057e-05
1.0116201e-05
1.0116568e-05
1.0117056e-05
1.0117239e-05
1.0117284e-05
1.0117548e-05
1.0119796e-05
1.0120723e-05
1.0113327e-05
1.0117707e-05
1.0133401e-05
1.0122886e-05
1.0091082e-05
1.009696e-05
1.0136155e-05
1.0176453e-05
1.0192455e-05
1.018131e-05
1.0156109e-05
1.0138423e-05
1.0131667e-05
1.0130872e-05
1.0132085e-05
1.0133835e-05
1.0136873e-05
1.0140953e-05
1.0145197e-05
1.0149746e-05
1.0153928e-05
1.0156772e-05
1.0158313e-05
1.0158304e-05
1.0157775e-05
1.015722e-05
1.0155232e-05
1.0152696e-05
1.0154295e-05
1.0158357e-05
1.0161547e-05
1.0167285e-05
2.7172721e-10
7.446674e-10
1.309179e-08
1.1905281e-07
6.1855686e-07
2.1575315e-06
5.5217453e-06
1.1162926e-05
1.9092753e-05
2.9153874e-05
4.122348e-05
5.525132e-05
7.1242938e-05
8.925432e-05
0.00010938221
0.00013175062
0.00015650138
0.00018378226
0.00021373143
0.00024648518
0.00028218501
0.00032095665
0.00036291104
0.00040815332
0.00045676731
0.00050882399
0.00056437767
0.00062346464
0.00068611052
0.00075233113
0.00082213926
0.000895561
0.00097264968
0.0010535291
0.0011384416
0.0012277792
0.0013221336
0.0014223615
0.0015295899
0.0016451493
0.0017703312
0.0019058426
0.0020508132
0.002201264
0.0023481102
0.002475293
0.0025591701
0.0025708256
0.0024824935
0.0022768073
0.0019534534
0.0015266257
0.0010161882
0.00040383586
5.3693488e-05
1.4301463e-05
1.0331416e-05
1.012207e-05
1.011752e-05
1.0116839e-05
1.0116264e-05
1.0116163e-05
1.0116371e-05
1.0116697e-05
1.0116905e-05
1.0117067e-05
1.0117267e-05
1.0117433e-05
1.0117568e-05
1.011773e-05
1.0118078e-05
1.0118536e-05
1.011882e-05
1.0119e-05
1.0119443e-05
1.0119954e-05
1.0120145e-05
1.0120247e-05
1.0120566e-05
1.0122923e-05
1.0123977e-05
1.011641e-05
1.0121072e-05
1.0137156e-05
1.0126492e-05
1.0094363e-05
1.0100533e-05
1.0140407e-05
1.0181116e-05
1.0197305e-05
1.0185965e-05
1.0160536e-05
1.0142648e-05
1.0135783e-05
1.0134842e-05
1.0135809e-05
1.01372e-05
1.0139759e-05
1.0143435e-05
1.0147193e-05
1.0151318e-05
1.0154943e-05
1.0157725e-05
1.0159455e-05
1.0159398e-05
1.015895e-05
1.0158472e-05
1.015628e-05
1.0153639e-05
1.0154997e-05
1.0158609e-05
1.0161486e-05
1.0166834e-05
1.0168407e-05
1.0166959e-05
2.714497e-10
7.445565e-10
1.3094604e-08
1.190812e-07
6.18737e-07
2.1584191e-06
5.5248812e-06
1.1170705e-05
1.9107372e-05
2.9176646e-05
4.1254567e-05
5.528977e-05
7.1286482e-05
8.929915e-05
0.00010942283
0.00013177997
0.00015651114
0.00018376346
0.00021367514
0.00024638335
0.0002820313
0.00032074725
0.00036264528
0.00040783403
0.00045640097
0.00050842038
0.00056394931
0.00062302579
0.00068567612
0.00075191563
0.00082175587
0.00089522033
0.00097235982
0.0010532924
0.00113825
0.0012276153
0.0013219896
0.0014222337
0.0015294679
0.0016450187
0.0017701737
0.0019056349
0.002050523
0.0022008442
0.0023474907
0.0024743725
0.0025578124
0.0025688714
0.0024797947
0.0022732801
0.0019491152
0.0015215286
0.0010102798
0.00039772842
5.246691e-05
1.4247312e-05
1.0329038e-05
1.0123924e-05
1.0119466e-05
1.0118795e-05
1.0118243e-05
1.0118172e-05
1.01184e-05
1.0118752e-05
1.0118986e-05
1.0119162e-05
1.0119359e-05
1.0119532e-05
1.0119711e-05
1.0119948e-05
1.0120362e-05
1.0120845e-05
1.0121126e-05
1.0121379e-05
1.0121941e-05
1.01225e-05
1.0122682e-05
1.012288e-05
1.0123251e-05
1.0125709e-05
1.0126794e-05
1.0119086e-05
1.0123915e-05
1.0140371e-05
1.0129498e-05
1.0097223e-05
1.0103649e-05
1.0144141e-05
1.0185421e-05
1.0201889e-05
1.0190655e-05
1.0165151e-05
1.0147233e-05
1.0140312e-05
1.0139311e-05
1.0140133e-05
1.0141197e-05
1.0143354e-05
1.0146562e-05
1.0149759e-05
1.0153076e-05
1.0155957e-05
1.0158663e-05
1.0160464e-05
1.0160411e-05
1.0160166e-05
1.0159689e-05
1.0157216e-05
1.0154426e-05
1.015554e-05
1.0158861e-05
1.0161304e-05
1.016606e-05
1.0167469e-05
1.0165777e-05
1.0166208e-05
1.0167477e-05
2.70919e-10
7.4357711e-10
1.3080926e-08
1.1896227e-07
6.1818819e-07
2.1569675e-06
5.522673e-06
1.1168973e-05
1.9107653e-05
2.9180006e-05
4.1261385e-05
5.5299676e-05
7.1298048e-05
8.9309598e-05
0.00010942773
0.00013177319
0.00015648499
0.00018370915
0.00021358331
0.00024624491
0.00028183816
0.00032049324
0.00036232688
0.00040745099
0.00045595664
0.00050792171
0.00056340659
0.00062245186
0.00068508554
0.0007513233
0.0008211762
0.00089466581
0.00097184073
0.0010528152
0.0011378175
0.0012272267
0.0013216326
0.0014218856
0.0015291182
0.0016446523
0.0017697705
0.0019051693
0.0020499605
0.0022001368
0.0023465688
0.0024731377
0.0025561343
0.0025665997
0.002476796
0.0022695058
0.0019445517
0.0015161011
0.001004066
0.00039141072
5.1260328e-05
1.4194119e-05
1.0326152e-05
1.0124534e-05
1.0120191e-05
1.0119521e-05
1.0118979e-05
1.0118918e-05
1.0119155e-05
1.0119519e-05
1.0119763e-05
1.0119943e-05
1.0120129e-05
1.0120302e-05
1.0120506e-05
1.012079e-05
1.0121249e-05
1.0121734e-05
1.0121998e-05
1.0122309e-05
1.0122969e-05
1.0123553e-05
1.0123708e-05
1.0124028e-05
1.012446e-05
1.0127066e-05
1.0128394e-05
1.0120345e-05
1.0125741e-05
1.0142747e-05
1.0131577e-05
1.0099145e-05
1.0106072e-05
1.014725e-05
1.0188967e-05
1.0205686e-05
1.0194778e-05
1.0169239e-05
1.0151341e-05
1.0144573e-05
1.0143693e-05
1.0144469e-05
1.014538e-05
1.0147277e-05
1.0150069e-05
1.0152754e-05
1.0155128e-05
1.0157197e-05
1.0159712e-05
1.0161174e-05
1.0161288e-05
1.0161359e-05
1.0160859e-05
1.0158016e-05
1.0155102e-05
1.0156007e-05
1.0158716e-05
1.0160682e-05
1.0164759e-05
1.0165971e-05
1.0163904e-05
1.0165217e-05
1.0166876e-05
1.0170088e-05
2.7028731e-10
7.4209919e-10
1.3056923e-08
1.1875059e-07
6.171768e-07
2.1540118e-06
5.5169686e-06
1.1160951e-05
1.9098488e-05
2.9170803e-05
4.1252877e-05
5.529208e-05
7.1290746e-05
8.9300793e-05
0.00010941413
0.00013174984
0.00015644536
0.00018364536
0.00021348663
0.00024610642
0.00028164951
0.00032024746
0.00036201917
0.00040707941
0.00045552261
0.0005074301
0.00056286563
0.00062187255
0.00068448086
0.00075070708
0.00082056191
0.0008940654
0.00097126364
0.0010522677
0.0011373027
0.0012267436
0.0013211761
0.0014214477
0.0015286782
0.0016441908
0.0017692655
0.0019045931
0.0020492765
0.0021992935
0.0023454925
0.0024717255
0.0025542539
0.0025641095
0.002473585
0.0022654378
0.0019395721
0.0015102536
0.0009975701
0.00038502668
5.0084102e-05
1.4140828e-05
1.0322888e-05
1.0124725e-05
1.012047e-05
1.0119798e-05
1.0119263e-05
1.0119209e-05
1.0119455e-05
1.0119828e-05
1.0120079e-05
1.0120259e-05
1.0120434e-05
1.012061e-05
1.0120834e-05
1.0121153e-05
1.0121638e-05
1.0122116e-05
1.0122364e-05
1.0122715e-05
1.0123421e-05
1.0124011e-05
1.0124155e-05
1.0124528e-05
1.0124975e-05
1.0127667e-05
1.0129015e-05
1.012086e-05
1.0126426e-05
1.0143664e-05
1.0132253e-05
1.0099631e-05
1.0106892e-05
1.0148885e-05
1.0191353e-05
1.0208529e-05
1.0198049e-05
1.0172616e-05
1.0154627e-05
1.0147939e-05
1.0147294e-05
1.0148287e-05
1.01493e-05
1.0151121e-05
1.0153691e-05
1.0155998e-05
1.0157416e-05
1.0158809e-05
1.0160894e-05
1.016182e-05
1.0161991e-05
1.0162441e-05
1.016195e-05
1.0158794e-05
1.0155824e-05
1.015652e-05
1.015831e-05
1.015974e-05
1.0163168e-05
1.0163995e-05
1.016165e-05
1.0163693e-05
1.0165956e-05
1.0169854e-05
1.0172279e-05
1.0171431e-05
2.6959006e-10
7.4021551e-10
1.3024164e-08
1.1845962e-07
6.1576481e-07
2.1497243e-06
5.5080675e-06
1.1146929e-05
1.9079839e-05
2.9148249e-05
4.1227013e-05
5.5263228e-05
7.1258654e-05
8.9264301e-05
0.00010937081
0.00013169587
0.00015637541
0.00018355282
0.00021336396
0.0002459457
0.00028144309
0.00031998877
0.00036170347
0.0004067045
0.00045508932
0.00050694257
0.00056233122
0.00062130141
0.00068388524
0.00075010017
0.00081995675
0.00089347359
0.00097069424
0.0010517264
0.0011367912
0.0012262597
0.001320714
0.0014209976
0.001528226
0.0016437165
0.001768746
0.0019039995
0.0020485699
0.002198419
0.0023443713
0.0024702471
0.0025522769
0.0025614831
0.0024701245
0.0022610377
0.0019342427
0.0015041296
0.00099093745
0.00037876962
4.8955138e-05
1.408839e-05
1.0319623e-05
1.0124588e-05
1.012029e-05
1.0119613e-05
1.0119086e-05
1.0119042e-05
1.0119299e-05
1.0119683e-05
1.011994e-05
1.0120117e-05
1.0120273e-05
1.0120451e-05
1.0120702e-05
1.0121065e-05
1.0121581e-05
1.0122036e-05
1.0122253e-05
1.012266e-05
1.012343e-05
1.0124013e-05
1.0124134e-05
1.012459e-05
1.0125054e-05
1.0127849e-05
1.012922e-05
1.0120925e-05
1.0126706e-05
1.0144159e-05
1.0132516e-05
1.0099728e-05
1.0107212e-05
1.0149682e-05
1.0192504e-05
1.0209889e-05
1.0199515e-05
1.0174146e-05
1.0156607e-05
1.0150457e-05
1.0150028e-05
1.0151311e-05
1.0152627e-05
1.0154706e-05
1.0157259e-05
1.0159338e-05
1.0160065e-05
1.0160887e-05
1.0162342e-05
1.016256e-05
1.0162727e-05
1.0163445e-05
1.0162942e-05
1.0159624e-05
1.0156672e-05
1.015711e-05
1.0157836e-05
1.0158722e-05
1.0161675e-05
1.0161961e-05
1.0159474e-05
1.0161842e-05
1.016469e-05
1.0169458e-05
1.0172199e-05
1.0171464e-05
1.0167408e-05
2.6885927e-10
7.3809703e-10
1.2986245e-08
1.1812207e-07
6.1411801e-07
2.14465e-06
5.4972645e-06
1.1129318e-05
1.9055489e-05
2.9117606e-05
4.1190494e-05
5.5221053e-05
7.1210607e-05
8.92094e-05
0.00010930702
0.00013161989
0.00015628262
0.00018343741
0.00021321918
0.00024576436
0.00028121812
0.00031971392
0.00036137408
0.00040631814
0.00045464637
0.00050644651
0.00056178866
0.00062072177
0.00068328011
0.00074948244
0.00081933942
0.00089286874
0.00097011175
0.0010511731
0.0011362701
0.0012257697
0.0013202499
0.0014205504
0.0015277831
0.0016432597
0.0017682528
0.0019034405
0.0020479053
0.002197592
0.0023432993
0.0024688122
0.0025503186
0.0025588009
0.0024665501
0.0022564971
0.0019288019
0.0014979816
0.0009843496
0.00037275371
4.788027e-05
1.4036647e-05
1.0316413e-05
1.0124522e-05
1.012028e-05
1.0119598e-05
1.0119073e-05
1.0119032e-05
1.0119296e-05
1.0119673e-05
1.0119919e-05
1.0120072e-05
1.0120193e-05
1.0120361e-05
1.012062e-05
1.0121e-05
1.0121508e-05
1.01219e-05
1.0122067e-05
1.0122501e-05
1.0123285e-05
1.0123813e-05
1.0123898e-05
1.0124379e-05
1.0124814e-05
1.0127688e-05
1.0129049e-05
1.0120528e-05
1.0126547e-05
1.0144216e-05
1.0132283e-05
1.0099312e-05
1.0107039e-05
1.0150062e-05
1.0193259e-05
1.0210822e-05
1.0200451e-05
1.0174998e-05
1.0157429e-05
1.0151424e-05
1.0151765e-05
1.0153661e-05
1.0155306e-05
1.0157832e-05
1.0160714e-05
1.0162691e-05
1.0163121e-05
1.0163608e-05
1.0164245e-05
1.0163621e-05
1.0163605e-05
1.0164443e-05
1.0163835e-05
1.0160508e-05
1.0157575e-05
1.0157589e-05
1.0157346e-05
1.0157771e-05
1.0160407e-05
1.0160203e-05
1.0157541e-05
1.0159943e-05
1.0163281e-05
1.0168688e-05
1.0171962e-05
1.0171367e-05
1.0167545e-05
1.0164841e-05
2.6811235e-10
7.3581847e-10
1.2944638e-08
1.1775073e-07
6.1229772e-07
2.1389801e-06
5.4849678e-06
1.1108764e-05
1.9026221e-05
2.9079605e-05
4.1143786e-05
5.5165564e-05
7.1145988e-05
8.9134758e-05
0.00010922064
0.00013151905
0.00015616352
0.00018329517
0.00021304808
0.0002455582
0.00028097069
0.00031941966
0.00036102871
0.0004059194
0.0004541945
0.0005059447
0.00056124313
0.0006201416
0.00068267669
0.00074886863
0.00081872844
0.00089227313
0.00096954204
0.001050637
0.0011357717
0.0012253092
0.0013198237
0.0014201515
0.0015273996
0.0016428752
0.0017678467
0.0019029849
0.0020473613
0.0021969038
0.0023423853
0.0024675542
0.0025485516
0.0025562977
0.0024631469
0.0022521372
0.001923573
0.0014920677
0.00097798119
0.00036699683
4.685419e-05
1.3985232e-05
1.0313727e-05
1.0124792e-05
1.0120681e-05
1.0120008e-05
1.0119487e-05
1.011945e-05
1.011972e-05
1.0120096e-05
1.0120334e-05
1.0120477e-05
1.0120586e-05
1.0120756e-05
1.0121025e-05
1.0121413e-05
1.0121909e-05
1.0122267e-05
1.012241e-05
1.0122861e-05
1.0123634e-05
1.01241e-05
1.0124147e-05
1.0124591e-05
1.012492e-05
1.012785e-05
1.0129095e-05
1.0120195e-05
1.0126444e-05
1.0144245e-05
1.0131951e-05
1.0098732e-05
1.0106594e-05
1.0150051e-05
1.0193561e-05
1.021126e-05
1.0200851e-05
1.0175325e-05
1.0157748e-05
1.0151927e-05
1.0152461e-05
1.0154882e-05
1.0157481e-05
1.0160435e-05
1.0163801e-05
1.0166026e-05
1.0166537e-05
1.0166937e-05
1.0166765e-05
1.0165275e-05
1.0164781e-05
1.0165484e-05
1.0164674e-05
1.0161425e-05
1.0158452e-05
1.0157933e-05
1.0156839e-05
1.0156902e-05
1.0159261e-05
1.0158679e-05
1.0155707e-05
1.01581e-05
1.0161884e-05
1.0167743e-05
1.0171342e-05
1.0170918e-05
1.016759e-05
1.0165028e-05
1.0166107e-05
1.0169038e-05
2.6737588e-10
7.3351477e-10
1.2902196e-08
1.1737144e-07
6.1043264e-07
2.133138e-06
5.4721834e-06
1.1087136e-05
1.8995001e-05
2.9038461e-05
4.1092424e-05
5.5103593e-05
7.1072826e-05
8.9049421e-05
0.00010912156
0.00013140391
0.00015602916
0.00018313759
0.00021286262
0.00024533973
0.00028071404
0.00031912012
0.00036068265
0.0004055248
0.00045375157
0.00050545629
0.00056071489
0.00061958196
0.00068209639
0.00074828017
0.00081814493
0.00089170745
0.00096900541
0.0010501381
0.0011353158
0.0012248976
0.0013194533
0.0014198156
0.0015270863
0.0016425737
0.0017675427
0.0019026582
0.0020469795
0.0021964148
0.0023417098
0.0024665784
0.0025471251
0.0025542438
0.0024602144
0.002248248
0.0019187973
0.0014865752
0.0009719808
0.00036153092
4.5887971e-05
1.3935053e-05
1.0311408e-05
1.0125608e-05
1.0121516e-05
1.0120844e-05
1.012032e-05
1.0120282e-05
1.0120552e-05
1.0120913e-05
1.0121129e-05
1.0121242e-05
1.012132e-05
1.0121479e-05
1.0121749e-05
1.0122134e-05
1.0122596e-05
1.0122894e-05
1.0123009e-05
1.0123472e-05
1.0124232e-05
1.0124652e-05
1.0124693e-05
1.0125118e-05
1.01254e-05
1.0128432e-05
1.0129637e-05
1.0120446e-05
1.0126901e-05
1.0144843e-05
1.0132134e-05
1.0098554e-05
1.0106439e-05
1.0150255e-05
1.0193921e-05
1.021155e-05
1.0200954e-05
1.0175204e-05
1.0157541e-05
1.0151893e-05
1.0152714e-05
1.0155452e-05
1.0158394e-05
1.0162473e-05
1.0166366e-05
1.0169094e-05
1.0170161e-05
1.0170684e-05
1.0169874e-05
1.016762e-05
1.0166389e-05
1.0166644e-05
1.0165524e-05
1.0162366e-05
1.0159311e-05
1.0158225e-05
1.0156345e-05
1.0156066e-05
1.0158097e-05
1.0157173e-05
1.0153783e-05
1.0156248e-05
1.0160487e-05
1.0166824e-05
1.0170605e-05
1.01704e-05
1.0167321e-05
1.0165159e-05
1.0166313e-05
1.0169242e-05
1.0170503e-05
2.66648e-10
7.3121856e-10
1.2859783e-08
1.1699221e-07
6.0856296e-07
2.1272502e-06
5.4591829e-06
1.1064857e-05
1.8962333e-05
2.8994617e-05
4.1036609e-05
5.5034935e-05
7.0990354e-05
8.8951964e-05
0.00010900765
0.00013127164
0.00015587612
0.00018296085
0.00021265878
0.00024510511
0.00028044492
0.00031881311
0.00036033522
0.00040513578
0.00045332171
0.0005049887
0.00056021533
0.000619059
0.0006815611
0.00074774575
0.0008176257
0.00089121801
0.00096855922
0.0010497463
0.0011349861
0.0012246339
0.0013192551
0.0014196768
0.0015269887
0.0016424994
0.0017674726
0.0019025719
0.0020468504
0.0021961985
0.0023413317
0.0024659272
0.0025460552
0.002552602
0.0024578717
0.0022449864
0.0019145971
0.0014815902
0.00096641565
0.00035635216
4.4970388e-05
1.388497e-05
1.0309771e-05
1.0127126e-05
1.0123077e-05
1.012241e-05
1.012188e-05
1.0121841e-05
1.012211e-05
1.0122453e-05
1.0122641e-05
1.0122716e-05
1.0122757e-05
1.01229e-05
1.0123166e-05
1.0123538e-05
1.0123953e-05
1.012417e-05
1.0124232e-05
1.0124689e-05
1.0125416e-05
1.0125738e-05
1.0125735e-05
1.0126098e-05
1.0126272e-05
1.0129404e-05
1.0130505e-05
1.012093e-05
1.0127567e-05
1.0145662e-05
1.0132691e-05
1.0098943e-05
1.0106865e-05
1.015102e-05
1.0194889e-05
1.0212467e-05
1.020156e-05
1.0175287e-05
1.0157265e-05
1.0151562e-05
1.0152541e-05
1.0155603e-05
1.0158884e-05
1.0163275e-05
1.016834e-05
1.017172e-05
1.0173661e-05
1.0174565e-05
1.017349e-05
1.0170655e-05
1.0168526e-05
1.0168001e-05
1.0166471e-05
1.0163354e-05
1.0160223e-05
1.0158548e-05
1.0155899e-05
1.015521e-05
1.0156846e-05
1.015554e-05
1.0151706e-05
1.0154292e-05
1.0159018e-05
1.0165923e-05
1.0169946e-05
1.0169978e-05
1.0167021e-05
1.0165007e-05
1.0166475e-05
1.0169389e-05
1.017071e-05
1.0170358e-05
2.6592585e-10
7.2898137e-10
1.2818685e-08
1.166244e-07
6.0674655e-07
2.1215092e-06
5.44643e-06
1.1042828e-05
1.8929677e-05
2.8950175e-05
4.0979087e-05
5.4962905e-05
7.0902283e-05
8.8846212e-05
0.00010888247
0.0001311251
0.00015570609
0.00018276498
0.00021243456
0.00024484991
0.0002801562
0.0003184887
0.0003599737
0.00040473691
0.00045288696
0.00050452171
0.00055972229
0.0006185488
0.00068104529
0.00074723825
0.00081714209
0.00089077481
0.00096817273
0.0010494315
0.0011347557
0.0012244974
0.0013192207
0.0014197401
0.0015271491
0.0016427429
0.0017677706
0.001902881
0.0020471155
0.0021963556
0.0023413025
0.0024656056
0.0025453007
0.0025512543
0.0024558
0.0022421509
0.0019108976
0.0014770616
0.00096124925
0.0003514394
4.4100497e-05