/*--------------------------------*- C++ -*----------------------------------*\
| =========                 |                                                 |
| \\      /  F ield         | OpenFOAM: The Open Source CFD Toolbox           |
|  \\    /   O peration     | Version:  2506                                  |
|   \\  /    A nd           | Website:  www.openfoam.com                      |
|    \\/     M anipulation  |                                                 |
\*---------------------------------------------------------------------------*/
FoamFile
{
    version     2.0;
    format      ascii;
    arch        "LSB;label=32;scalar=64";
    class       volScalarField;
    location    "2.35";
    object      p;
}
// * * * * * * * * * * * * * * * * * * * * * * * * * * * * * * * * * * * * * //

dimensions      [1 -1 -2 0 0 0 0];

internalField   nonuniform List<scalar> 
1376
(
47521.483
47446.342
47412.253
47345.246
47321.105
47285.741
47253.716
47225.583
47199.564
47175.45
47152.91
47131.604
47111.222
47095.313
47084.843
47077.122
47064.597
47050.509
47042.732
47035.68
47031.704
47030.894
47030.063
47029.223
47027.669
47025.078
47024.15
47252.775
47263.086
47238.09
47240.908
47220.264
47206.904
47189.689
47170.997
47151.76
47133.253
47116.591
47102.391
47089.167
47077.834
47067.945
47056.555
47044.805
47038.175
47032.987
47027.295
47023.308
47021.82
47022.799
47022.916
47021.608
47020.171
47020.554
47021.189
47022.143
47127.2
47128.557
47134.936
47123.353
47124.455
47116.065
47109.504
47102.377
47093.847
47085.317
47075.85
47065.544
47056.745
47049.304
47040.574
47032.831
47027.329
47023.196
47019.529
47016.347
47013.085
47013.382
47014.671
47015.61
47015.432
47015.806
47017.285
47018.372
47019.985
47021.833
46975.806
47007.951
47004.898
47023.659
47027.503
47034.414
47037.163
47038.488
47037.568
47034.971
47031.466
47029.11
47024.543
47018.685
47014.174
47011.175
47008.405
47006.424
47006.345
47006.265
47005.485
47006.713
47008.39
47009.617
47010.591
47012.036
47014.196
47015.674
47017.887
47020.069
47021.397
46902.515
46911.377
46929.337
46937.971
46948.793
46958.403
46965.625
46973.279
46978.039
46981.01
46982.617
46984.921
46986.501
46989.049
46989.354
46988.754
46989.195
46990.116
46992.248
46995.682
46998.182
46999.513
47001.244
47003.071
47005.699
47008.282
47010.845
47012.898
47015.869
47018.441
47019.932
47021.854
47024.029
46800.175
46836.618
46840.288
46861.015
46872.754
46888.487
46900.249
46912.149
46922.728
46932.43
46939.489
46946.418
46951.911
46958.031
46962.35
46966.981
46970.85
46974.758
46978.284
46983.235
46988.717
46991.624
46994.208
46997.302
47001.357
47004.935
47007.77
47010.384
47013.996
47016.83
47018.494
47020.712
47023.174
47024.648
46754.357
46740.373
46771.829
46788.146
46804.263
46823.214
46837.878
46854.819
46869.638
46884.919
46897.223
46907.052
46913.944
46924.419
46935.547
46945.171
46952.034
46959.386
46965.786
46971.543
46978.576
46983.91
46988.416
46992.616
46997.349
47001.623
47004.84
47008.083
47012.217
47015.34
47017.138
47019.61
47022.314
47024.061
47026.694
46653.797
46705.882
46704.817
46734.606
46745.815
46769.298
46784.072
46802.582
46817.729
46836.346
46854.589
46873.822
46885.367
46894.165
46906.834
46922.13
46933.644
46943.23
46953.474
46961.72
46968.229
46975.07
46981.936
46987.768
46993.061
46998.03
47001.793
47005.901
47010.462
47013.814
47015.838
47018.531
47021.407
47023.496
47026.215
47027.831
46635.342
46618.178
46652.53
46680.39
46691.252
46719.151
46731.673
46755.176
46770.966
46791.792
46811.732
46834.071
46857.098
46874.977
46884.824
46899.194
46915.161
46926.821
46938.374
46951.314
46960.334
46966.861
46974.809
46982.372
46988.627
46994.476
46998.828
47003.788
47008.69
47012.224
47014.597
47017.508
47020.5
47022.942
47025.78
47027.44
46538.106
46622.964
46575.416
46629.064
46630.584
46667.056
46682.471
46713.739
46737.351
46765.72
46781.202
46797.868
46821.45
46848.909
46866.079
46879.539
46896.713
46912.861
46924.653
46937.959
46951.648
46961.119
46968.523
46976.536
46983.888
46990.847
46995.988
47001.746
47006.907
47010.605
47013.385
47016.527
47019.632
47022.393
47025.366
47027.069
47028.076
46556.529
46458.331
46504.249
46578.359
46583.038
46620.541
46638.403
46669.588
46694.899
46730.187
46755.237
46774.648
46787.275
46814.654
46841.988
46863.241
46879.336
46898.16
46914.228
46926.285
46940.747
46954.324
46963.709
46971.569
46979.292
46987.011
46993.166
46999.671
47005.172
47009.066
47012.189
47015.539
47018.83
47021.893
47024.966
47026.693
47027.741
47028.753
46327.459
46614.764
46469.405
46533.302
46544.896
46580.489
46599.269
46633.283
46654.812
46682.834
46716.727
46756.903
46775.236
46792.023
46814.431
46842.06
46863.648
46881.923
46902.497
46918.766
46931.786
46946.222
46958.127
46967.542
46975.507
46983.477
46990.513
46997.522
47003.428
47007.759
47011.125
47014.534
47018.093
47021.459
47024.587
47026.31
47027.376
47028.451
47029.583
46366.8
46525.267
46480.961
46495.152
46502.83
46544.401
46561.908
46603.804
46630.146
46657.312
46678.795
46714.642
46753.627
46785.847
46798.095
46819.763
46847.634
46869.398
46889.134
46909.98
46926.28
46939.794
46951.788
46962.68
46972.047
46980.605
46988.381
46995.479
47001.545
47006.518
47010.237
47013.6
47017.436
47021.054
47024.237
47025.932
47026.977
47028.137
47029.413
47030.675
46413.669
46217.006
46364.523
46463.211
46454.617
46511.31
46531.542
46566.137
46596.697
46639.568
46663.396
46687.329
46715.756
46759.766
46791.258
46807.683
46831.69
46859.23
46879.549
46899.688
46918.92
46935.123
46946.853
46957.814
46968.269
46977.957
46986.698
46993.826
46999.764
47005.107
47009.349
47012.852
47016.917
47020.647
47023.888
47025.557
47026.577
47027.825
47029.246
47030.561
47032.016
46534.936
46194.82
46376.792
46409.614
46417.423
46476.524
46502.327
46540.261
46559.401
46597.729
46635.615
46678.13
46699.136
46728.131
46764.121
46801.61
46822.129
46848.227
46872.582
46892.374
46910.69
46928.914
46943.038
46954.098
46964.991
46975.302
46984.772
46992.423
46998.434
47003.699
47008.283
47012.2
47016.591
47020.269
47023.514
47025.166
47026.199
47027.536
47029.093
47030.433
47031.981
47033.353
45969.793
46475.996
46212.99
46374.501
46372.352
46438.027
46462.217
46521.674
46543.71
46571.273
46592.991
46650.831
46692.882
46719.385
46743.529
46783.149
46816.326
46840.047
46864.085
46886.573
46904.97
46922.532
46938.185
46951.195
46962.834
46973.215
46982.522
46990.582
46997.354
47002.732
47007.162
47011.467
47016.344
47019.976
47023.131
47024.739
47025.833
47027.285
47028.995
47030.338
47031.925
47033.269
47033.985
46182.257
46363.569
46241.499
46310.401
46326.955
46395.021
46418.506
46472.538
46520.578
46569.644
46579.486
46619.453
46667.623
46717.369
46738.816
46769.054
46804.875
46834.847
46857.24
46880.015
46900.994
46918.331
46933.648
46947.96
46961.146
46971.774
46980.613
46988.471
46995.974
47001.946
47006.462
47010.675
47015.993
47019.764
47022.769
47024.276
47025.485
47027.062
47028.927
47030.307
47031.86
47033.191
47033.907
47034.855
46154.357
46236.338
46219.268
46296.929
46306.343
46358.998
46392.001
46440.581
46469.604
46541.497
46584.686
46617.288
46642.324
46698.219
46740.93
46767.268
46796.703
46827.251
46851.972
46874.835
46897.175
46916.036
46930.864
46945.137
46958.935
46970.283
46979.218
46986.976
46994.32
47000.713
47006.106
47010.124
47015.561
47019.554
47022.427
47023.801
47025.177
47026.858
47028.807
47030.325
47031.831
47033.095
47033.815
47034.901
47035.703
46108.981
46209.722
46194.306
46256.062
46279.653
46332.177
46359.695
46433.3
46454.486
46517.879
46558.942
46617.043
46642.753
46683.518
46725.619
46770.695
46796.5
46821.596
46846.415
46871.568
46893.618
46913.767
46930.216
46943.577
46956.79
46968.369
46977.919
46985.906
46993.187
46999.426
47005.224
47010.099
47015.216
47019.338
47022.058
47023.38
47024.909
47026.711
47028.66
47030.306
47031.814
47032.982
47033.743
47034.992
47035.675
47036.205
46056.456
46121.301
46139.152
46230.453
46259.33
46344.231
46334.036
46423.167
46455.871
46511.486
46544.882
46606.617
46642.726
46680.58
46716.982
46763.429
46796.535
46818.721
46843.665
46869.996
46891.304
46910.784
46929.009
46943.962
46955.595
46966.522
46976.455
46984.723
46992.37
46998.451
47004.633
47009.998
47015.048
47018.952
47021.655
47023.115
47024.676
47026.609
47028.565
47030.214
47031.782
47032.892
47033.664
47035.027
47035.705
47036.32
47036.074
45990.278
46112.128
46084.351
46209.632
46202.511
46309.13
46345.967
46405.234
46446.63
46515.368
46536.306
46609.332
46640.299
46679.354
46715.774
46758.199
46792.221
46819.9
46844.6
46870.185
46890.2
46908.626
46927.631
46942.768
46954.311
46965.353
46975.03
46983.323
46991.567
46998.184
47004.169
47010.004
47014.898
47018.465
47021.327
47022.965
47024.51
47026.526
47028.501
47030.154
47031.738
47032.787
47033.576
47035.057
47035.715
47036.432
47036.174
47036.183
47035.858
45982.152
46185.527
46052.113
46209.926
46184.442
46271.663
46314.681
46417.03
46438.586
46512.704
46542.653
46611.061
46637.674
46687.311
46717.543
46759.511
46793.709
46818.829
46843.526
46867.439
46888.555
46907.964
46926.577
46941.503
46953.329
46964.818
46974.166
46982.674
46991.219
46998.133
47004.024
47010.067
47014.812
47018.277
47021.062
47022.743
47024.362
47026.431
47028.393
47030.154
47031.742
47032.752
47033.533
47035.052
47035.683
47036.607
47036.289
47036.29
47036.002
45964.767
46108.922
46049.094
46200.296
46186.32
46285.654
46301.714
46425.527
46446.862
46511.937
46527.951
46610.725
46637.98
46692.836
46721.959
46755.147
46792.219
46818.338
46840.095
46868.01
46888.163
46908.743
46929.406
46942.426
46952.626
46964.323
46973.904
46982.867
46991.076
46998.105
47004.222
47010.125
47014.942
47018.327
47020.718
47022.413
47024.246
47026.366
47028.341
47030.251
47031.816
47032.7
47033.511
47035.052
47035.663
47036.733
47036.327
47036.339
47036.284
45916.65
46071.939
46059.93
46161.234
46161.686
46343.789
46306.272
46410.723
46422.69
46531.084
46545.545
46611.99
46637.762
46684.027
46719.487
46757.022
46789.249
46814.607
46844.483
46870.298
46892.014
46911.96
46929.06
46942.69
46953.481
46963.33
46973.87
46982.567
46990.845
46998.335
47004.449
47010.451
47015.227
47017.999
47020.312
47022.277
47024.299
47026.415
47028.303
47030.283
47031.842
47032.655
47033.493
47035.038
47035.706
47036.767
47036.276
47036.304
47036.717
46037.605
45755.552
45999.364
46140.006
46143.963
46326.652
46293.248
46437.856
46414.01
46535.519
46549.358
46605.683
46641.889
46689.57
46738.588
46764.298
46787.395
46822.712
46855.693
46875.175
46893.677
46911.419
46928.033
46941.822
46953.032
46963.977
46974.036
46982.929
46991.939
46998.854
47004.929
47010.657
47015.292
47017.851
47020.198
47022.444
47024.276
47026.203
47028.273
47030.35
47031.786
47032.687
47033.476
47035.201
47035.72
47036.771
47036.178
47036.172
47037.072
45708.633
46118.361
45963.835
46158.4
46168.006
46331.257
46283.23
46465.11
46443.017
46538.137
46549.305
46613.173
46658.832
46708.128
46739.212
46765.967
46798.183
46831.207
46854.575
46875.277
46895.109
46913.457
46927.092
46941.941
46954.745
46966.297
46976.245
46984.418
46991.959
46998.234
47005.405
47011.111
47015.462
47017.972
47020.326
47022.532
47024.032
47026.076
47028.312
47030.419
47031.899
47032.841
47033.456
47035.421
47035.724
47036.729
47036.023
47036.116
47037.342
45841.528
46018.976
45961.712
46176.012
46153.116
46362.122
46286.514
46496.717
46428.253
46559.799
46587.146
46630.792
46663.452
46701.076
46737.682
46779.709
46809.852
46833.98
46858.867
46882.911
46902.433
46918.407
46930.713
46944.816
46956.545
46966.48
46975.638
46984.488
46991.873
46999.374
47006.674
47011.796
47015.196
47018.261
47020.413
47022.322
47024.311
47026.399
47028.562
47030.543
47032.119
47033.072
47033.553
47035.27
47035.716
47036.812
47036.02
47036.35
47037.36
45870.101
45987.448
45950.946
46214.061
46153.635
46362.04
46283.295
46526.187
46461.836
46583.557
46589.036
46629.795
46666.415
46712.829
46761.538
46795.773
46817.176
46842.496
46868.919
46889.306
46906.04
46919.809
46933.232
46947.945
46959.054
46967.181
46976.705
46984.984
46993.948
47001.707
47007.132
47012.057
47015.32
47018.114
47020.388
47022.515
47024.633
47026.457
47028.662
47030.605
47032.225
47032.901
47033.676
47035.375
47035.744
47036.969
47036.136
47036.468
47037.266
45767.775
46036.093
45991.81
46227.468
46131.099
46377.514
46317.274
46534.221
46493.566
46573.594
46599.21
46659.925
46694.983
46736.323
46775.941
46801.295
46827.694
46853.704
46874.853
46891.979
46908.672
46924.021
46938.55
46952.078
46960.451
46968.668
46980.279
46988.545
46996.015
47002.221
47007.677
47012.043
47015.887
47018.025
47020.49
47022.743
47024.728
47026.329
47028.708
47030.862
47032.322
47032.882
47033.871
47035.607
47035.839
47037.221
47036.292
47036.192
47037.346
45766.777
46072.514
45966.668
46270.548
46149.047
46391.067
46382.223
46528.419
46483.951
46572.749
46638.106
46679.92
46719.254
46752.81
46786.216
46817.454
46841.324
46863.668
46881.691
46899.832
46918.015
46931.101
46943.157
46954.856
46961.645
46971.052
46982.824
46989.799
46997.088
47003.055
47008.995
47013.121
47016.392
47018.52
45771.002
46114.398
45965.733
46304.57
46179.3
46424.745
46440.944
46526.083
46521.369
46617.668
46667.805
46703.718
46744.264
46779.539
46812.676
46833.889
46853.696
46874.124
46891.894
46910.033
46924.765
45785.962
46080.577
45983.957
46336.831
46223.26
46445.327
46391.45
46560.318
46605.897
46645.596
46697.109
45711.622
46115.934
47352.182
47506.818
47625.522
47628.082
47500.042
47356.022
47261.886
47201.434
47176.763
47564.911
47466.02
47339.267
47249.912
47194.738
47174.135
47503.753
47432.867
47326.288
47246.052
47189.61
47170.745
47455.309
47408.346
47312.196
47240.171
47180.111
47158.889
47401.516
47365.625
47288.848
47229.546
47170.924
47154.542
47351.169
47328.932
47270.906
47219.472
47162.001
47156.421
47306.59
47293.964
47249.502
47206.783
47152.434
47151.667
47267.794
47261.03
47227.8
47194.464
47158.872
47143.134
47232.948
47229.919
47205.567
47179.422
47151.279
47202.115
47202.158
47185.122
47166.449
47135.042
47174.328
47176.752
47167.181
47153.227
47133.302
47148.68
47155.156
47150.626
47140.747
47125.503
47127.951
47135.255
47130.096
47128.556
47119.217
47119.121
47116.359
47112.546
47113.804
47112.501
47098.214
47100.65
47102.279
47100.423
47081.682
47091.06
47091.49
47089.589
47075.026
47077.152
47080.369
47081.526
47063.197
47071.334
47071.909
47075.105
47051.509
47063.403
47065.679
47046.988
47055.911
47059.586
47041.949
47051.052
47053.956
47036.834
47044.918
47034.394
47040.124
47030.81
47034.748
47029.51
47028.187
)
;

boundaryField
{
    Side
    {
        type            empty;
    }
    Inlet
    {
        type            totalPressure;
        rho             rho;
        psi             none;
        gamma           1;
        p0              uniform 50000;
        value           nonuniform List<scalar> 9(47036.706 47036.726 47036.712 47036.665 47036.649 47036.72 47036.813 47036.879 47036.954);
    }
    Airfoil
    {
        type            zeroGradient;
    }
    Outlet
    {
        type            fixedValue;
        value           nonuniform List<scalar> 0();
    }
    procBoundary8to1
    {
        type            processor;
        value           nonuniform List<scalar> 8(47518.431 47178.218 47201.565 47261.393 47261.393 47331.599 47470.002 47558.263);
    }
    procBoundary8to7
    {
        type            processor;
        value           nonuniform List<scalar> 
53
(
47020.574
47023.029
47024.503
47026.466
47029.11
47031.138
47032.402
47033.1
47034.184
47035.645
47035.947
47037.439
47036.443
47035.65
47037.712
46935.374
46947.927
46958.917
46965.719
46975.344
46983.9
46990.071
46998.829
47006.958
47010.844
47014.14
47016.535
47020.574
47018.471
46747.096
46774.13
46803.8
46827.915
46845.701
46865.755
46884.894
46901.587
46918.173
46935.374
46931.165
45980.868
46334.769
46264.663
46480.827
46494.853
46602.101
46639.804
46699.579
46747.096
46746.129
45728.545
45980.868
46130.505
)
;
    }
    procBoundary8to9
    {
        type            processor;
        value           nonuniform List<scalar> 
75
(
47024.237
47026.923
47024.237
47024.569
47023.59
47023.59
47022.846
47022.846
47023.016
47023.016
47024.894
47025.287
47025.287
47027.214
47027.214
47028.247
47028.247
47028.732
47028.404
47028.404
47029.041
47029.041
47029.767
47029.767
47030.78
47030.78
47032.053
47032.053
47033.447
47033.447
47034.047
47034.047
47034.858
47034.858
47035.7
47035.7
47036.136
47036.136
47036
47036
47036.047
47036.047
47035.872
47159.269
47155.887
47155.473
47156.974
47157.772
47155.856
47153.21
47145.172
47137.926
47137.926
47135.293
47127.015
47121.669
47114.998
47107.932
47101.242
47101.242
47091.096
47082.76
47076.019
47067.185
47067.185
47060.345
47053.874
47047.108
47047.108
47042.625
47040.311
47032.585
47032.585
47031.625
47026.923
)
;
    }
}


// ************************************************************************* //
