/*--------------------------------*- C++ -*----------------------------------*\
| =========                 |                                                 |
| \\      /  F ield         | OpenFOAM: The Open Source CFD Toolbox           |
|  \\    /   O peration     | Version:  2506                                  |
|   \\  /    A nd           | Website:  www.openfoam.com                      |
|    \\/     M anipulation  |                                                 |
\*---------------------------------------------------------------------------*/
FoamFile
{
    version     2.0;
    format      ascii;
    arch        "LSB;label=32;scalar=64";
    class       volScalarField;
    location    "0.007";
    object      rho;
}
// * * * * * * * * * * * * * * * * * * * * * * * * * * * * * * * * * * * * * //

dimensions      [1 -3 0 0 0 0 0];

internalField   nonuniform List<scalar> 
13761
(
0.66494282
0.66494266
0.66494255
0.66494268
0.66494311
0.66494345
0.66494368
0.66494385
0.6659577
0.66494414
0.66595805
0.66494459
0.6659583
0.66494496
0.66595857
0.6649451
0.66595907
0.66494527
0.66595932
0.66494542
0.66595925
0.66494532
0.66595914
0.66494516
0.66515749
0.66595854
0.66494502
0.6651576
0.66595789
0.66494497
0.66515808
0.6659577
0.66494505
0.66515847
0.66595773
0.6649452
0.66515863
0.66595783
0.66494541
0.66515873
0.66595804
0.6649455
0.66515884
0.66595832
0.66494542
0.66520145
0.66515869
0.66595887
0.6649452
0.6652016
0.66515822
0.66595939
0.66494478
0.66520172
0.66515796
0.66595967
0.66494448
0.66520179
0.66515796
0.66595989
0.66494449
0.66520195
0.66515818
0.66596031
0.66494478
0.66520215
0.66515809
0.66596083
0.66494495
0.66520263
0.66515738
0.66596098
0.66520299
0.665157
0.66596065
0.66509213
0.66520303
0.66515714
0.66596025
0.66509227
0.66520294
0.6651574
0.66596032
0.66509242
0.66520283
0.66515759
0.66596048
0.66509254
0.66520277
0.66515773
0.66596045
0.66509263
0.66520279
0.66515751
0.66596057
0.6650927
0.66520284
0.66515724
0.66596078
0.66509274
0.66520286
0.66515738
0.665961
0.66509277
0.66520285
0.66515786
0.66508044
0.66509281
0.66520284
0.66515824
0.66508046
0.66509284
0.66520283
0.66515852
0.66508048
0.66509287
0.66520287
0.66515868
0.66508049
0.66509288
0.66520296
0.66515876
0.66508051
0.66509289
0.66520312
0.66515844
0.66508053
0.66509288
0.66520334
0.66515731
0.66508055
0.66509288
0.66520357
0.66515652
0.66507245
0.66508058
0.66509284
0.66520376
0.66515633
0.66507245
0.66508061
0.6650928
0.6652039
0.66507245
0.66508064
0.66509268
0.66520422
0.66507246
0.66508066
0.66509257
0.66520445
0.66507246
0.66508067
0.66509255
0.66520446
0.66507246
0.66508066
0.66509264
0.66520434
0.66507246
0.66508065
0.66509279
0.66520419
0.66507099
0.66507247
0.66508064
0.66509294
0.66520407
0.66507099
0.66507247
0.66508064
0.66509307
0.66520399
0.66507099
0.66507247
0.66508064
0.66509315
0.66520395
0.66507099
0.66507248
0.66508064
0.66509321
0.66507099
0.66507248
0.66508065
0.66509324
0.66507099
0.66507248
0.66508066
0.66509325
0.665071
0.66507248
0.66508067
0.66509324
0.66507062
0.665071
0.66507249
0.66508069
0.66509322
0.66507062
0.665071
0.66507249
0.66508072
0.66509318
0.66507062
0.665071
0.66507249
0.66508075
0.66509315
0.66507062
0.665071
0.6650725
0.66508077
0.66509306
0.66507062
0.665071
0.6650725
0.6650808
0.66507062
0.665071
0.6650725
0.6650808
0.66507062
0.665071
0.6650725
0.66508079
0.66507056
0.66507062
0.66507101
0.66507251
0.66508078
0.66507056
0.66507062
0.66507101
0.66507251
0.66508077
0.66507056
0.66507062
0.66507101
0.66507251
0.66508077
0.66507056
0.66507062
0.66507101
0.66507251
0.66508078
0.66507056
0.66507062
0.66507101
0.66507251
0.66508079
0.66507056
0.66507062
0.66507101
0.66507252
0.6650808
0.66507056
0.66507062
0.66507101
0.66507252
0.66507055
0.66507056
0.66507062
0.66507102
0.66507252
0.66507055
0.66507056
0.66507062
0.66507102
0.66507252
0.66507055
0.66507056
0.66507062
0.66507102
0.66507252
0.66507055
0.66507056
0.66507062
0.66507102
0.66507253
0.66507055
0.66507056
0.66507062
0.66507102
0.66507253
0.66507055
0.66507056
0.66507062
0.66507102
0.66507253
0.66507055
0.66507055
0.66507056
0.66507062
0.66507102
0.66507253
0.66507055
0.66507055
0.66507056
0.66507062
0.66507103
0.66507254
0.66507055
0.66507055
0.66507056
0.66507062
0.66507103
0.66507055
0.66507055
0.66507056
0.66507062
0.66507103
0.66507055
0.66507055
0.66507056
0.66507062
0.66507103
0.66507055
0.66507055
0.66507056
0.66507062
0.66507103
0.66507055
0.66507055
0.66507056
0.66507062
0.66507103
0.66507055
0.66507055
0.66507055
0.66507056
0.66507062
0.66507103
0.66507055
0.66507055
0.66507055
0.66507056
0.66507062
0.66507103
0.66507055
0.66507055
0.66507055
0.66507056
0.66507062
0.66507104
0.66507055
0.66507055
0.66507055
0.66507056
0.66507062
0.66507055
0.66507055
0.66507055
0.66507056
0.66507062
0.66507055
0.66507055
0.66507055
0.66507056
0.66507062
0.66507055
0.66507055
0.66507055
0.66507055
0.66507056
0.66507062
0.66507055
0.66507055
0.66507055
0.66507055
0.66507056
0.66507062
0.66507055
0.66507055
0.66507055
0.66507055
0.66507056
0.66507062
0.66507055
0.66507055
0.66507055
0.66507055
0.66507056
0.66507062
0.66507055
0.66507055
0.66507055
0.66507055
0.66507056
0.66507062
0.66507055
0.66507055
0.66507055
0.66507055
0.66507056
0.66507056
0.66507055
0.66507055
0.66507055
0.66507055
0.66507056
0.66507056
0.66507055
0.66507055
0.66507055
0.66507055
0.66507056
0.66507056
0.66507055
0.66507055
0.66507055
0.66507055
0.66507056
0.66507057
0.66507055
0.66507055
0.66507055
0.66507055
0.66507056
0.66507057
0.66507055
0.66507055
0.66507055
0.66507055
0.66507056
0.66506982
0.66507057
0.66507055
0.66507055
0.66507055
0.66507055
0.66507056
0.66506989
0.66507057
0.66507055
0.66507055
0.66507055
0.66507055
0.66507056
0.66506996
0.66507057
0.66507055
0.66507055
0.66507055
0.66507055
0.66507003
0.66507058
0.66507055
0.66507055
0.66507055
0.66507055
0.66507009
0.66507058
0.66507055
0.66507055
0.66507055
0.66507055
0.66507016
0.66507058
0.66507055
0.66507055
0.66507055
0.66507055
0.66505956
0.66507021
0.66507058
0.66507055
0.66507055
0.66507055
0.66507055
0.66506021
0.66507027
0.66507058
0.66507055
0.66507055
0.66507055
0.66507055
0.66506084
0.66507032
0.66507058
0.66507055
0.66507055
0.66507055
0.66507055
0.66506146
0.66507037
0.66507058
0.66507055
0.66507055
0.66507055
0.66507055
0.66506206
0.66507042
0.66507058
0.66507055
0.66507055
0.66507055
0.66499976
0.66506265
0.66507047
0.66507058
0.66507055
0.66507055
0.66507055
0.66500284
0.66506321
0.66507051
0.66507059
0.66507055
0.66507055
0.66507055
0.66500588
0.66506377
0.66507055
0.66507059
0.66507055
0.66507055
0.66507055
0.66500887
0.66506431
0.66507059
0.66507059
0.66507055
0.66507055
0.66507055
0.6650118
0.66506483
0.66507063
0.66507059
0.66507055
0.66507055
0.66507055
0.66477477
0.66501468
0.66506534
0.66507066
0.66507059
0.66507055
0.66507055
0.66507055
0.66478519
0.66501751
0.66506583
0.6650707
0.66507059
0.66507055
0.66507055
0.66479553
0.66502028
0.66506631
0.66507073
0.66507059
0.66507055
0.66507055
0.66480576
0.66502301
0.66506678
0.66507076
0.66507059
0.66507055
0.66507055
0.66416388
0.66481588
0.66502567
0.66506723
0.66507078
0.66507059
0.66507055
0.66507055
0.66418722
0.6648259
0.66502829
0.66506766
0.66507081
0.66507059
0.66507055
0.66507055
0.66421041
0.66483581
0.66503086
0.66506809
0.66507083
0.66507059
0.66507055
0.66507055
0.66423337
0.6648456
0.66503337
0.66506849
0.66507085
0.66507059
0.66507055
0.66507055
0.66425614
0.66485526
0.66503583
0.66506889
0.66507087
0.66507059
0.66507055
0.66507055
0.66287679
0.66427872
0.66486479
0.66503824
0.66506926
0.66507089
0.66507059
0.66507055
0.66292345
0.66430112
0.66487418
0.66504059
0.66506963
0.66507091
0.66507059
0.66507055
0.66296987
0.66432334
0.66488342
0.6650429
0.66506998
0.66507092
0.66507059
0.66507055
0.66301592
0.66434541
0.66489249
0.66504515
0.66507032
0.66507093
0.66507059
0.66507055
0.66037968
0.66306164
0.66436732
0.66490138
0.66504736
0.66507064
0.66507095
0.66507059
0.66507055
0.66045629
0.66310702
0.6643891
0.6649101
0.66504951
0.66507095
0.66507096
0.66507059
0.66507055
0.66053273
0.66315204
0.66441074
0.66491863
0.66505161
0.66507125
0.66507097
0.66507059
0.66507055
0.66060875
0.66319671
0.66443226
0.66492696
0.66505367
0.66507153
0.66507098
0.66507059
0.65655982
0.66068441
0.66324102
0.66445364
0.66493511
0.66505567
0.6650718
0.66507098
0.66507059
0.65666061
0.66075969
0.66328496
0.66447487
0.66494308
0.66505763
0.66507206
0.66507099
0.66507059
0.65676148
0.6608346
0.66332852
0.66449596
0.66495088
0.66505953
0.6650723
0.665071
0.66507059
0.65686207
0.66090912
0.6633717
0.6645169
0.66495852
0.66506139
0.66507253
0.665071
0.66507059
0.65217516
0.6569625
0.66098325
0.6634145
0.66453768
0.664966
0.6650632
0.66507275
0.66507101
0.66507059
0.65228009
0.65706272
0.66105698
0.66345692
0.6645583
0.66497332
0.66506495
0.66507296
0.66507101
0.66507059
0.65238534
0.65716271
0.66113031
0.66349895
0.66457876
0.6649805
0.66506666
0.66507315
0.66507102
0.65249052
0.65726245
0.66120324
0.66354059
0.66459907
0.66498752
0.66506833
0.66507333
0.66507102
0.6488633
0.65259575
0.65736194
0.66127576
0.66358183
0.66461921
0.66499441
0.66506994
0.66507351
0.66507103
0.64895216
0.65270094
0.65746117
0.66134787
0.66362267
0.6646392
0.66500115
0.6650715
0.66507367
0.66507103
0.64904131
0.65280613
0.65756015
0.66141956
0.6636631
0.66465903
0.66500775
0.66507302
0.66507382
0.66507103
0.64913054
0.65291129
0.65765886
0.66149084
0.66370311
0.6646787
0.66501421
0.66507449
0.66507396
0.66507104
0.64766937
0.64921992
0.65301643
0.65775731
0.66156169
0.6637427
0.66469823
0.66502054
0.66507591
0.66507409
0.66507104
0.64774251
0.64930938
0.65312155
0.65785546
0.66163212
0.66378187
0.6647176
0.66502674
0.66507729
0.66507421
0.64781579
0.64939895
0.65322665
0.65795332
0.66170211
0.6638206
0.66473682
0.66503279
0.66507861
0.66507433
0.64717945
0.64788919
0.64948863
0.65333172
0.65805087
0.66177168
0.6638589
0.66475588
0.66503872
0.66507989
0.66507443
0.64725786
0.64796269
0.64957843
0.65343676
0.6581481
0.6618408
0.66389676
0.66477479
0.66504451
0.66508112
0.66507453
0.64733719
0.64803628
0.6496684
0.65354176
0.65824503
0.66190949
0.6639342
0.66479353
0.66505018
0.6650823
0.66507462
0.645873
0.64741726
0.64810994
0.64975851
0.6536467
0.65834166
0.66197772
0.66397122
0.66481209
0.66505571
0.66508344
0.66507471
0.64594473
0.64749798
0.64818367
0.64984877
0.65375158
0.65843798
0.66204549
0.66400786
0.66483046
0.66506112
0.66508453
0.64601847
0.64757923
0.64825743
0.64993912
0.65385639
0.65853398
0.6621128
0.66404415
0.66484859
0.6650664
0.66508557
0.64429676
0.64609395
0.64766095
0.64833121
0.65002953
0.65396113
0.65862967
0.66217964
0.66408012
0.66486645
0.66507156
0.66508657
0.64433791
0.64617106
0.64774303
0.64840497
0.65011994
0.65406576
0.65872503
0.66224603
0.66411582
0.66488401
0.66507659
0.66508752
0.64438348
0.64624971
0.64782545
0.64847873
0.65021034
0.65417031
0.65882006
0.66231195
0.6641513
0.66490123
0.6650815
0.66508842
0.6439116
0.64443283
0.64632976
0.64790813
0.64855245
0.6503007
0.65427477
0.65891475
0.6623774
0.6641866
0.66491805
0.66508629
0.66508927
0.64390491
0.6444855
0.64641112
0.647991
0.64862615
0.65039104
0.65437915
0.65900908
0.66244238
0.66422177
0.66493446
0.66509096
0.66509009
0.64419163
0.64390584
0.6445415
0.64649361
0.64807396
0.64869979
0.65048135
0.65448344
0.65910306
0.66250687
0.66425682
0.66495044
0.6650955
0.64406422
0.64391599
0.6446011
0.6465771
0.64815694
0.64877337
0.65057166
0.65458765
0.65919666
0.66257088
0.66429175
0.664966
0.66509994
0.64395116
0.6439349
0.64466422
0.64666143
0.64823984
0.64884684
0.65066195
0.65469176
0.6592899
0.66263439
0.66432655
0.66498116
0.66510425
0.64482046
0.64385364
0.6439598
0.64473063
0.64674655
0.64832262
0.64892023
0.65075224
0.65479576
0.65938278
0.66269739
0.66436118
0.66499596
0.66510845
0.64453966
0.64377272
0.64399003
0.64480006
0.64683236
0.64840524
0.64899351
0.65084253
0.65489964
0.65947528
0.66275987
0.66439562
0.66501041
0.66511253
0.64726564
0.64428188
0.64370808
0.64402478
0.64487209
0.64691886
0.6484877
0.64906673
0.65093282
0.6550034
0.65956742
0.66282182
0.66442988
0.66502454
0.6651165
0.64672971
0.64404738
0.64365884
0.64406371
0.64494618
0.64700597
0.64857
0.64913987
0.65102311
0.65510705
0.65965916
0.66288322
0.66446393
0.66503836
0.64621789
0.64383515
0.64362449
0.64410658
0.64502202
0.64709364
0.64865215
0.64921295
0.65111339
0.65521057
0.65975051
0.66294406
0.6644978
0.66505188
0.65091925
0.64573294
0.64364388
0.64360451
0.64415341
0.64509938
0.64718179
0.64873414
0.64928594
0.65120367
0.65531397
0.65984145
0.66300433
0.66453147
0.66506511
0.65015099
0.64527809
0.64347243
0.64359739
0.64420473
0.64517807
0.64727034
0.64881597
0.64935884
0.65129396
0.65541724
0.65993198
0.663064
0.66456497
0.66507806
0.65592765
0.6493876
0.64485594
0.64332028
0.64359905
0.64426051
0.64525788
0.6473592
0.6488976
0.6494316
0.65138424
0.65552037
0.66002208
0.66312306
0.66459828
0.66509073
0.65527751
0.64863407
0.64446787
0.64318697
0.64361333
0.64432009
0.64533868
0.64744837
0.64897899
0.64950423
0.65147453
0.65562337
0.66011175
0.66318151
0.66463143
0.66510312
0.65641806
0.65448078
0.64789692
0.64411384
0.64307305
0.64363656
0.64438274
0.64542033
0.64753777
0.64906009
0.64957673
0.65156482
0.65572622
0.66020097
0.66323932
0.6646644
0.65702756
0.65357594
0.64719148
0.64379244
0.64297995
0.64366851
0.64444805
0.64550277
0.6476274
0.64914084
0.64964911
0.65165509
0.65582892
0.66028974
0.6632965
0.66469719
0.65350733
0.65743936
0.65260584
0.64652834
0.64350241
0.64290732
0.6437073
0.6445158
0.64558586
0.6477172
0.64922119
0.64972138
0.65174533
0.65593147
0.66037806
0.66335306
0.66472979
0.65097578
0.65402198
0.65757417
0.65161961
0.64590356
0.64324287
0.64285388
0.64375201
0.6445859
0.64566951
0.64780713
0.64930113
0.64979355
0.65183552
0.65603385
0.66046592
0.663409
0.66476217
0.65108663
0.65456985
0.65745131
0.65064213
0.64531175
0.64301257
0.64281799
0.64380307
0.64465819
0.64575353
0.64789712
0.64938067
0.64986563
0.65192566
0.65613606
0.66055333
0.66346436
0.66479428
0.65043446
0.65130857
0.65514857
0.65707032
0.64967808
0.64475712
0.64281041
0.64279807
0.6438612
0.64473248
0.64583783
0.64798714
0.64945981
0.64993762
0.65201574
0.65623809
0.66064028
0.66351918
0.66482609
0.65004865
0.65042734
0.65166999
0.65577379
0.65646856
0.64872888
0.64424733
0.64263494
0.64279279
0.64392603
0.64480851
0.64592227
0.64807716
0.64953856
0.6500095
0.65210576
0.65633995
0.6607268
0.66357351
0.64991748
0.65044112
0.65217409
0.65648402
0.65558755
0.64779561
0.64378795
0.64248455
0.64279823
0.64399617
0.64488612
0.6460068
0.64816713
0.64961695
0.65008126
0.65219571
0.65644163
0.66081286
0.66362741
0.64940624
0.64979241
0.65049188
0.65280965
0.65724743
0.65443839
0.64689098
0.64337955
0.64236
0.64281712
0.6440703
0.64496504
0.64609135
0.64825701
0.64969497
0.6501529
0.6522856
0.65654314
0.66089848
0.66368094
0.6490108
0.64927615
0.64968819
0.65059551
0.65355798
0.65819098
0.65310377
0.6460402
0.64301933
0.64226354
0.64284749
0.64414784
0.64504505
0.64617591
0.6483468
0.64977264
0.65022442
0.65237541
0.65664446
0.66098364
0.66373412
0.64866267
0.64889197
0.64915599
0.64961215
0.65078709
0.6543897
0.65887167
0.65170023
0.64525246
0.6427044
0.64219507
0.64288646
0.64422851
0.64512585
0.64626044
0.64843646
0.64984995
0.65029582
0.65246513
0.65674561
0.66106833
0.66378701
0.64853579
0.64876256
0.64904348
0.64959012
0.65110829
0.65529413
0.65906984
0.65031791
0.64451786
0.64243227
0.64215248
0.64293175
0.64431211
0.64520719
0.64634493
0.648526
0.64992689
0.65036712
0.65255476
0.65684656
0.66115255
0.64807242
0.64839126
0.64862147
0.64893478
0.64961935
0.65159881
0.65626627
0.65875331
0.64899691
0.64383429
0.6421995
0.6421357
0.64298365
0.64439809
0.6452888
0.64642934
0.64861541
0.65000347
0.6504383
0.6526443
0.65694731
0.66123626
0.64755075
0.64792617
0.648232
0.64846817
0.64883342
0.64972071
0.65229518
0.65733688
0.65774155
0.64774718
0.64321445
0.64200166
0.64213812
0.64304352
0.64448582
0.64537057
0.64651365
0.64870467
0.65007968
0.65050935
0.65273374
0.65704785
0.66131947
0.64703252
0.64742304
0.64777538
0.64806404
0.6483084
0.64874294
0.64993286
0.65322047
0.65851837
0.65614811
0.64655559
0.64267193
0.64183684
0.64215397
0.64311113
0.64457472
0.64545239
0.64659781
0.64879376
0.65015552
0.65058027
0.6528231
0.65714815
0.66140214
0.64620888
0.64654137
0.64691177
0.64728968
0.64762182
0.64789215
0.64815031
0.6487021
0.65029497
0.65439649
0.65994491
0.65412365
0.6454416
0.64221166
0.64170768
0.64218642
0.64318451
0.64466449
0.64553425
0.64668179
0.64888266
0.65023097
0.65065105
0.6529124
0.6572482
0.66148428
0.64577206
0.64606847
0.64640791
0.64677926
0.64714707
0.64746458
0.64772118
0.64800344
0.64872259
0.65085271
0.65582858
0.66138984
0.65191447
0.64442984
0.6418292
0.64161573
0.64223041
0.64326172
0.64475491
0.64561608
0.64676555
0.64897134
0.65030602
0.65072168
0.65300164
0.65734796
0.66156587
0.64536806
0.64562201
0.64591959
0.64626102
0.64663116
0.64699016
0.64729913
0.64755217
0.64787719
0.64883795
0.65166764
0.65751315
0.66200746
0.64976754
0.64351429
0.64151562
0.64155996
0.64228497
0.64334192
0.64484584
0.64569784
0.64684909
0.64905979
0.65038064
0.65079218
0.65309083
0.65744743
0.64481424
0.64499269
0.64521958
0.64547057
0.64576366
0.64610034
0.64646567
0.64681733
0.64712269
0.64738758
0.64780377
0.6491158
0.65282053
0.65954165
0.66157744
0.64782191
0.64268579
0.64126077
0.64154102
0.64234799
0.64342495
0.64493701
0.64577944
0.6469324
0.64914801
0.65045482
0.65086256
0.65317997
0.65754657
0.64451074
0.64466189
0.64484462
0.64507289
0.64531776
0.64560114
0.64592942
0.64628644
0.6466282
0.6469342
0.64723207
0.64780985
0.64962678
0.65439877
0.66186177
0.65917955
0.64611172
0.64195763
0.64105547
0.64154439
0.64241806
0.64351066
0.64502826
0.64586085
0.64701552
0.64923598
0.65052858
0.65093283
0.65326905
0.65764537
0.64404895
0.64420675
0.64435132
0.64450653
0.64469648
0.64492473
0.64516198
0.64543476
0.64575155
0.64609536
0.64642735
0.6467391
0.64709055
0.64791283
0.65046168
0.65652221
0.66477671
0.65540455
0.64462989
0.64135405
0.64089741
0.64156817
0.64249447
0.6435985
0.64511946
0.64594203
0.64709843
0.6493237
0.65060193
0.65100302
0.65335805
0.65774384
0.64341423
0.64354902
0.64370227
0.64388628
0.64403954
0.64418584
0.64434704
0.64454354
0.64477138
0.64500152
0.64526413
0.64556898
0.64589825
0.64622194
0.64655014
0.64701105
0.64820372
0.65173988
0.65931096
0.66683356
0.65148955
0.64335892
0.64088486
0.64078635
0.64160872
0.64257645
0.64368777
0.64521064
0.64602298
0.64718115
0.64941113
0.65067491
0.65107312
0.65344698
0.65784198
0.64288789
0.64300974
0.64313227
0.64325185
0.64338562
0.64353849
0.64371861
0.64386679
0.64401474
0.64418126
0.64438263
0.64460889
0.64483342
0.64508903
0.64538167
0.6456994
0.64601968
0.64638419
0.64701652
0.64877211
0.65362312
0.66287831
0.66709595
0.6481356
0.64225196
0.64053801
0.64072383
0.6416633
0.64266254
0.64377782
0.64530191
0.64610366
0.64726366
0.64949826
0.65074753
0.65114314
0.65353581
0.64248009
0.64256012
0.64262094
0.64272603
0.64284873
0.6429637
0.64308223
0.64321897
0.64337431
0.64354939
0.64369021
0.64383838
0.6440082
0.64421131
0.644435
0.64465513
0.64490474
0.64519106
0.64550258
0.64583523
0.64627384
0.64715737
0.64975523
0.65634714
0.66758926
0.66309703
0.64550236
0.64129562
0.64028714
0.64070826
0.64173076
0.64275095
0.64386833
0.64539339
0.64618401
0.64734595
0.64958508
0.6508198
0.65121306
0.65362457
0.64192125
0.64198335
0.64200547
0.64210185
0.64216555
0.64222324
0.64232441
0.6423828
0.64244756
0.64256524
0.64268184
0.64279028
0.64291225
0.64305338
0.64321134
0.6433794
0.64351139
0.64365746
0.64382814
0.64403064
0.64424921
0.64446446
0.64471206
0.64499626
0.64531305
0.64567819
0.64626394
0.64754214
0.6513485
0.66021297
0.67225983
0.65622567
0.64350288
0.64051945
0.64010966
0.64072223
0.64180892
0.64284017
0.64395914
0.64548509
0.64626391
0.64742801
0.64967157
0.65089173
0.65128288
0.65371323
0.64152343
0.64155111
0.64152072
0.64157865
0.64156773
0.64161183
0.6416305
0.64166507
0.64170591
0.64175254
0.64180835
0.64183667
0.64192883
0.64197244
0.64205926
0.64215289
0.64219651
0.64227969
0.64240528
0.64251033
0.64261513
0.64274324
0.64288894
0.64304789
0.6432074
0.64333029
0.64347349
0.64364427
0.6438423
0.64405253
0.64426251
0.64451097
0.64480263
0.64514247
0.64558573
0.64637423
0.64832145
0.65382167
0.66553991
0.67439671
0.65002215
0.6419725
0.6399437
0.63999124
0.64076119
0.64189514
0.64292968
0.64405026
0.64557692
0.64634324
0.64750988
0.64975773
0.65096329
0.65135258
0.65380182
0.63448004
0.63448008
0.63448011
0.63447996
0.63447938
0.63447819
0.63447618
0.63447336
0.63446974
0.63446537
0.63446026
0.63445441
0.63444779
0.63444038
0.63443213
0.63442299
0.63441291
0.63440183
0.63438968
0.63437639
0.63436189
0.63434611
0.63432897
0.63431041
0.63429033
0.63426869
0.63424543
0.63422049
0.63419384
0.63416547
0.6341354
0.63410365
0.6340703
0.63403543
0.63399916
0.63396158
0.63392279
0.63388288
0.63384185
0.63379966
0.63375615
0.6337111
0.63366416
0.63361494
0.63356303
0.63350812
0.63345018
0.63338982
0.63332892
0.63327239
0.63323343
0.6332891
0.63386221
0.63517154
0.63702364
0.63913628
0.64067945
0.64131074
0.64143587
0.64146524
0.64145563
0.64140335
0.64140784
0.64141934
0.64138472
0.64139219
0.64138759
0.64131871
0.64134793
0.64134982
0.64133371
0.64137574
0.64134111
0.6413875
0.64138529
0.64142094
0.64145873
0.64148679
0.64152985
0.64156995
0.64162662
0.64166627
0.64174318
0.64177848
0.64188981
0.64196509
0.64200934
0.64212042
0.64223817
0.64233188
0.6424408
0.64257598
0.64272402
0.64288051
0.64303173
0.64314718
0.64328855
0.64345611
0.64364764
0.64384663
0.64405341
0.64430682
0.64461631
0.64500059
0.64559095
0.64670626
0.6496918
0.65760394
0.67286119
0.66962571
0.6455719
0.64074627
0.63955045
0.63993123
0.64081982
0.64198699
0.64301955
0.64414155
0.64566863
0.64642193
0.6475916
0.64984356
0.65103447
0.65142216
0.65389033
0.63427157
0.63427218
0.63427332
0.63427487
0.63427632
0.63427735
0.6342774
0.63427636
0.63427413
0.63427086
0.63426657
0.63426135
0.6342552
0.63424816
0.63424021
0.63423135
0.63422154
0.63421074
0.63419892
0.63418602
0.63417199
0.63415678
0.63414033
0.63412258
0.63410347
0.63408295
0.63406098
0.63403752
0.63401255
0.63398607
0.6339581
0.63392867
0.63389786
0.63386575
0.63383245
0.63379806
0.63376267
0.63372634
0.6336891
0.63365088
0.63361156
0.6335709
0.63352859
0.63348424
0.63343744
0.63338785
0.63333535
0.63328029
0.63322403
0.63317015
0.6331279
0.63315528
0.63360531
0.6348758
0.63680253
0.63901366
0.64053982
0.64110571
0.64121027
0.6412412
0.64124806
0.64120274
0.64119999
0.64121744
0.6411743
0.64116755
0.64117372
0.64110811
0.64114562
0.64116715
0.64114251
0.64119763
0.64116648
0.64119925
0.64120344
0.6412257
0.64128141
0.64130217
0.64135071
0.64138439
0.64144141
0.64149315
0.64155431
0.64159066
0.64171465
0.64176261
0.64182881
0.64196173
0.64205996
0.64214861
0.64226687
0.64240723
0.6425556
0.64270733
0.64285145
0.64296115
0.64309997
0.6432641
0.64344682
0.64363723
0.64384166
0.64410957
0.64445604
0.64493595
0.64572544
0.64741252
0.65196643
0.66325257
0.67972628
0.65900047
0.64264742
0.63977535
0.63930015
0.63992131
0.64089287
0.64208274
0.64311008
0.6442329
0.64576
0.64650002
0.64767324
0.64992907
0.65110523
0.65149163
0.63409562
0.63409598
0.63409671
0.63409765
0.6340986
0.63409923
0.63409922
0.63409835
0.63409657
0.63409391
0.63409038
0.63408602
0.63408083
0.63407481
0.63406793
0.63406018
0.63405152
0.63404189
0.63403126
0.63401957
0.63400676
0.63399277
0.63397753
0.63396098
0.63394307
0.63392374
0.63390293
0.63388062
0.63385677
0.63383137
0.63380444
0.63377602
0.63374616
0.63371494
0.63368247
0.63364884
0.63361413
0.6335784
0.63354168
0.6335039
0.63346492
0.63342454
0.63338243
0.63333822
0.63329152
0.63324204
0.63318971
0.63313507
0.63307988
0.63302882
0.63299493
0.63305125
0.63358689
0.63496248
0.63693382
0.63894911
0.64032872
0.6408488
0.6409469
0.64098231
0.64100161
0.6409659
0.6409565
0.64098589
0.64095654
0.64095985
0.64098912
0.64095028
0.64097244
0.64099982
0.64095758
0.64101191
0.64100081
0.64101055
0.64102691
0.64103693
0.64110022
0.64111736
0.64116978
0.64119805
0.64125816
0.64131564
0.64136691
0.64141346
0.64153044
0.64155874
0.64166293
0.64179179
0.6418691
0.64196292
0.64209455
0.64223829
0.64238025
0.64252705
0.64266278
0.64276802
0.64290619
0.64306553
0.64324266
0.64342467
0.64363571
0.64393245
0.64433911
0.64496866
0.64607667
0.64868279
0.65563626
0.67150506
0.68204189
0.64986879
0.64072904
0.63905915
0.63915418
0.63994734
0.64097661
0.64218116
0.64320123
0.64432411
0.64585075
0.64657762
0.64775484
0.65001424
0.65117558
0.65156098
0.63390433
0.63390439
0.63390451
0.63390458
0.63390431
0.63390343
0.63390168
0.63389899
0.63389541
0.63389098
0.63388575
0.63387973
0.63387293
0.63386534
0.63385693
0.63384768
0.63383755
0.63382648
0.63381443
0.63380135
0.63378718
0.63377186
0.63375532
0.63373752
0.63371838
0.63369786
0.6336759
0.63365248
0.63362756
0.63360114
0.63357323
0.63354385
0.63351308
0.63348099
0.63344766
0.63341319
0.63337765
0.6333411
0.63330355
0.63326491
0.63322504
0.63318369
0.63314053
0.63309516
0.63304716
0.63299622
0.63294227
0.6328859
0.63282899
0.63277654
0.63274249
0.6328031
0.63338596
0.63478697
0.63672965
0.63878842
0.64019744
0.64072896
0.64082417
0.6408434
0.64085121
0.64080628
0.6407721
0.64079632
0.64078121
0.64077237
0.64081228
0.64077859
0.64077036
0.64079504
0.64075118
0.64081628
0.6408299
0.64082485
0.64085329
0.64084879
0.64091763
0.64093183
0.64098952
0.64101893
0.64107383
0.64113451
0.64118403
0.64125191
0.64133378
0.64136533
0.64150021
0.64160311
0.64167214
0.64178585
0.64192561
0.6420606
0.64219552
0.64233645
0.64246359
0.64256599
0.64270337
0.64285972
0.64303188
0.64321528
0.64344367
0.6437894
0.64431945
0.64515364
0.64679711
0.6508509
0.66137702
0.68181357
0.67141056
0.64396399
0.63939049
0.63857928
0.63909111
0.64000196
0.64106852
0.64228145
0.64329279
0.64441507
0.64594072
0.64665498
0.64783643
0.65009905
0.6512455
0.65163023
0.63367746
0.63367792
0.63367894
0.63368044
0.63368231
0.63368419
0.63368567
0.63368634
0.63368604
0.63368472
0.63368237
0.63367902
0.63367468
0.63366936
0.63366306
0.63365577
0.63364746
0.63363812
0.63362772
0.63361622
0.63360358
0.63358976
0.6335747
0.63355837
0.63354072
0.63352169
0.63350125
0.63347937
0.63345602
0.6334312
0.6334049
0.63337718
0.63334807
0.63331765
0.633286
0.63325321
0.63321934
0.63318443
0.6331485
0.63311145
0.63307315
0.63303334
0.63299168
0.63294778
0.63290121
0.63285163
0.63279893
0.63274357
0.63268713
0.63263382
0.63259477
0.63263351
0.63313481
0.63450951
0.63651162
0.63866392
0.64007762
0.64057211
0.64064623
0.64064934
0.64065808
0.64062636
0.64058729
0.64060514
0.64058807
0.64055156
0.64058745
0.64056086
0.64054668
0.64059424
0.64056524
0.64062161
0.6406514
0.64063856
0.64068143
0.6406684
0.640738
0.64075225
0.64080904
0.64084054
0.64089285
0.64095259
0.64100593
0.64108835
0.64113523
0.64119349
0.64133459
0.64140362
0.64147891
0.64161683
0.64175456
0.64187475
0.6420022
0.64213473
0.64225324
0.64235281
0.6424897
0.64264359
0.64281881
0.64301343
0.64328352
0.64372242
0.64440322
0.64557375
0.64807445
0.65442851
0.67012958
0.68927014
0.65672186
0.64053954
0.63843672
0.63829106
0.639084
0.64007826
0.64116632
0.6423828
0.64338449
0.64450562
0.64602977
0.64673234
0.64791797
0.6501835
0.651315
0.65169937
0.63351385
0.63351435
0.63351545
0.63351714
0.63351928
0.63352149
0.63352336
0.63352445
0.63352463
0.63352381
0.63352204
0.63351932
0.63351567
0.63351107
0.63350553
0.63349901
0.63349149
0.63348293
0.63347329
0.63346252
0.63345056
0.63343737
0.63342289
0.63340707
0.63338984
0.63337116
0.63335099
0.63332929
0.63330602
0.63328119
0.63325479
0.63322687
0.63319747
0.63316667
0.63313456
0.63310121
0.63306671
0.6330311
0.63299439
0.63295651
0.63291732
0.63287656
0.63283393
0.63278903
0.63274144
0.63269086
0.63263723
0.63258111
0.63252434
0.63247172
0.6324364
0.63248889
0.63303375
0.63452679
0.6365812
0.63858074
0.63985907
0.64032587
0.64039909
0.64040749
0.64042586
0.640417
0.6403804
0.64039634
0.64038508
0.64033787
0.64037982
0.64038806
0.64038941
0.64043813
0.64039051
0.64042355
0.64047447
0.64046242
0.64051685
0.6405001
0.64056281
0.6405757
0.64062813
0.64066767
0.64071369
0.64077372
0.64083656
0.6409136
0.64095169
0.64103306
0.64115971
0.64119752
0.6412999
0.64145595
0.64157445
0.64168095
0.64180035
0.64192339
0.64203341
0.64212691
0.64226417
0.64241984
0.64260459
0.64283008
0.64316601
0.64374971
0.64467241
0.64639175
0.65026346
0.66017935
0.68223514
0.68316569
0.64636563
0.63857608
0.63778604
0.63814602
0.63911457
0.64016975
0.64126777
0.64248451
0.64347626
0.64459568
0.64611795
0.64680989
0.64799936
0.65026755
0.65138407
0.65176841
0.63334757
0.63334781
0.63334827
0.63334884
0.63334931
0.63334946
0.63334901
0.63334784
0.63334586
0.63334308
0.63333948
0.63333506
0.63332977
0.63332361
0.63331654
0.63330852
0.63329951
0.63328946
0.63327832
0.63326603
0.63325255
0.63323781
0.63322175
0.63320433
0.63318549
0.63316518
0.63314335
0.63311998
0.63309505
0.63306855
0.63304049
0.63301091
0.63297987
0.63294745
0.63291373
0.6328788
0.63284274
0.63280557
0.63276731
0.63272787
0.63268709
0.63264471
0.63260038
0.63255367
0.63250416
0.63245149
0.63239562
0.63233713
0.63227796
0.63222324
0.63218692
0.63224243
0.63282041
0.63433183
0.63640882
0.63844979
0.63971393
0.64016432
0.64024027
0.64023994
0.64024793
0.64024016
0.64019372
0.64020421
0.64020655
0.64016131
0.64020617
0.64023851
0.64021085
0.64024868
0.64021521
0.64023278
0.64029722
0.64027943
0.64034834
0.6403439
0.64038974
0.64040689
0.64045413
0.64050041
0.64054081
0.64059947
0.64066561
0.64073562
0.64078194
0.64088013
0.64097548
0.64100152
0.6411401
0.64128711
0.64138383
0.64148029
0.64159421
0.64170811
0.6418016
0.64189203
0.64203
0.64219133
0.6423983
0.64267725
0.64315434
0.64391846
0.64522492
0.64782389
0.65394369
0.66922498
0.69291508
0.6641678
0.64056764
0.6374065
0.63738228
0.63810758
0.63917219
0.64027077
0.64137089
0.64258604
0.64356804
0.64468512
0.64620535
0.64688772
0.64808048
0.65035121
0.65145272
0.63315562
0.63315681
0.63315911
0.63316251
0.63316634
0.63317024
0.6331733