/*--------------------------------*- C++ -*----------------------------------*\
| =========                 |                                                 |
| \\      /  F ield         | OpenFOAM: The Open Source CFD Toolbox           |
|  \\    /   O peration     | Version:  2506                                  |
|   \\  /    A nd           | Website:  www.openfoam.com                      |
|    \\/     M anipulation  |                                                 |
\*---------------------------------------------------------------------------*/
FoamFile
{
    version     2.0;
    format      ascii;
    arch        "LSB;label=32;scalar=64";
    class       volScalarField;
    location    "0.011";
    object      Co;
}
// * * * * * * * * * * * * * * * * * * * * * * * * * * * * * * * * * * * * * //

dimensions      [0 0 0 0 0 0 0];

internalField   nonuniform List<scalar> 
13761
(
0.031170505
0.030446205
0.029784105
0.040168341
0.040986404
0.041879577
0.042845474
0.043884739
0.038090058
0.038856792
0.039693865
0.040598931
0.041572516
0.042620465
0.043753843
0.03610406
0.036821646
0.037605025
0.038451894
0.039362651
0.040342738
0.041402491
0.042551685
0.04380058
0.034231269
0.034903416
0.035637156
0.036430234
0.037282954
0.038200392
0.0391922
0.04026753
0.041435952
0.042699615
0.044052337
0.032452929
0.033082318
0.033769357
0.034511846
0.035310004
0.036168559
0.037096533
0.038102498
0.039195386
0.040377156
0.041641925
0.042974807
0.044355185
0.030760068
0.031348953
0.031991764
0.032686361
0.033432884
0.034235737
0.035103355
0.036043754
0.03706527
0.038169692
0.039351423
0.040596462
0.041885397
0.043196175
0.044508576
0.029159292
0.029710468
0.030312113
0.030962145
0.031660641
0.032411704
0.033223223
0.034102711
0.035057951
0.036090587
0.037195322
0.038358966
0.039563285
0.040787584
0.042012884
0.043222794
0.04440276
0.045537613
0.027641157
0.028156985
0.028720044
0.029328318
0.029981832
0.030684411
0.031443436
0.032265939
0.033159203
0.034124744
0.035157551
0.036245238
0.037370687
0.038514487
0.039658842
0.040788388
0.041889492
0.042947911
0.04394625
0.04486323
0.026203848
0.026686687
0.027213746
0.027783072
0.028394646
0.029052031
0.029762144
0.03053158
0.031367147
0.032270254
0.033236184
0.034253309
0.035305574
0.036374796
0.037444326
0.03849976
0.039528332
0.040516706
0.041448571
0.042303912
0.043060675
0.043700314
0.024843387
0.025295464
0.025788953
0.026321968
0.026894457
0.027509744
0.028174313
0.028894339
0.029676214
0.030521251
0.031425015
0.032376615
0.033361014
0.034361193
0.035361568
0.036348675
0.037310574
0.038234797
0.039106066
0.039905537
0.040612223
0.04120783
0.041682239
0.042041249
0.023548877
0.023971872
0.024433636
0.024932351
0.025467931
0.02604348
0.026665073
0.027338503
0.028069757
0.028860063
0.02970527
0.030595181
0.031515733
0.032451029
0.033386514
0.034309612
0.035209179
0.036073559
0.036888463
0.037636202
0.038296815
0.038852285
0.039291388
0.039616797
0.039857529
0.040086641
0.022322115
0.022717919
0.023150022
0.023616682
0.024117783
0.024656221
0.025237696
0.025867636
0.026551662
0.027290935
0.028081571
0.028914044
0.029775231
0.030650284
0.031525627
0.032389537
0.033231615
0.034041006
0.034804361
0.03550508
0.036124183
0.036643988
0.037052302
0.037348863
0.037557507
0.037744003
0.038028024
0.03855818
0.039458307
0.021162559
0.021533118
0.02193769
0.022374592
0.0228437
0.02334772
0.023891999
0.024481628
0.025121891
0.02581389
0.026554016
0.027333381
0.028139736
0.028959249
0.029779279
0.030588912
0.031378463
0.032137806
0.032854498
0.033512985
0.034095255
0.034583963
0.034966045
0.035238572
0.035420453
0.035570409
0.035799826
0.036250614
0.037041964
0.038286441
0.040168364
0.020063735
0.020410706
0.020789554
0.021198669
0.02163791
0.022109803
0.02261937
0.0231714
0.02377086
0.024418801
0.025111871
0.025841796
0.026597179
0.027365144
0.028133933
0.028893389
0.029634515
0.030347909
0.031021965
0.031642132
0.03219135
0.032652651
0.033012227
0.033264666
0.033424214
0.033542763
0.033723655
0.034102411
0.034794181
0.035903919
0.037595391
0.040119728
0.044554377
0.064725752
0.019022362
0.019347292
0.019702108
0.020085265
0.020496615
0.020938523
0.021415707
0.021932662
0.022494062
0.023100923
0.023750151
0.024434056
0.025142037
0.02586213
0.026583416
0.027296483
0.02799298
0.028664163
0.029299256
0.02988466
0.030404231
0.030841459
0.031181914
0.03141787
0.031559164
0.031651024
0.031788961
0.032102375
0.03270288
0.033688844
0.035205207
0.037489586
0.041612629
0.056113146
0.02372278
0.023971121
0.03070301
0.018035203
0.018339524
0.018671871
0.019030767
0.019416061
0.019829965
0.020276907
0.020761117
0.021287001
0.021855543
0.022463892
0.023104913
0.023768775
0.024444377
0.025121603
0.025791731
0.026447031
0.027079412
0.027678857
0.028232692
0.028725689
0.029141814
0.029466163
0.029688926
0.029815708
0.029885235
0.029985313
0.030239424
0.030756135
0.031628188
0.032983371
0.035047497
0.03884091
0.048772458
0.022277812
0.022605182
0.028773558
0.017099146
0.01738419
0.017695523
0.018031737
0.018392675
0.018780411
0.019199104
0.019652735
0.02014546
0.020678233
0.02124844
0.021849485
0.02247226
0.023106482
0.023742804
0.024373171
0.024990439
0.025587121
0.026153941
0.0266791
0.02714827
0.027545955
0.02785691
0.028069489
0.028185253
0.028236499
0.028303432
0.028503765
0.028943434
0.029710503
0.030917155
0.032778033
0.03622238
0.043266028
0.020801862
0.021334416
0.026967004
0.016212666
0.01647975
0.016771508
0.017086597
0.017424858
0.017788236
0.018180643
0.018605823
0.0190677
0.019567209
0.020101969
0.020665883
0.021250534
0.021846431
0.022444942
0.023038638
0.023620951
0.02418497
0.024722113
0.025221419
0.02566944
0.026051273
0.026351485
0.026556786
0.026664946
0.026701959
0.026740354
0.026892175
0.027261169
0.027931639
0.029001704
0.030675728
0.033765009
0.039315621
0.019451618
0.020155323
0.025282279
0.015375707
0.015626198
0.015899867
0.01619544
0.016512755
0.016853641
0.017221773
0.017620686
0.018054089
0.0185229
0.019024958
0.019554649
0.020104214
0.020664895
0.021228751
0.021788953
0.022339463
0.022873923
0.023384414
0.023860772
0.024290406
0.024659035
0.024951179
0.025152186
0.025256252
0.025283121
0.025297634
0.025406131
0.025710608
0.026292581
0.0272376
0.028740763
0.031492082
0.036256586
0.018265344
0.01906924
0.023722868
0.014583153
0.014818191
0.015075018
0.015352418
0.015650238
0.015970193
0.016315745
0.016690226
0.017097136
0.017537393
0.01800905
0.018506948
0.019023948
0.019551994
0.020083789
0.020613087
0.021134355
0.021641754
0.022127999
0.022583689
0.022997064
0.023354508
0.023640657
0.023839737
0.02394265
0.023963036
0.023957819
0.024027479
0.024272563
0.024772704
0.02560235
0.026948288
0.029384598
0.033681353
0.017218179
0.018060065
0.022268969
0.013831643
0.014052249
0.014293343
0.014553774
0.014833393
0.015133813
0.015458288
0.015809965
0.016192162
0.016605785
0.017049086
0.017517347
0.018004014
0.018501696
0.019003724
0.01950439
0.019998642
0.020481148
0.020945218
0.021382176
0.021781082
0.022129026
0.022410875
0.022610041
0.022714478
0.022731827
0.022710863
0.022745839
0.022936049
0.023360174
0.024082935
0.025283755
0.027429891
0.031358367
0.016281015
0.017118659
0.020909948
0.013121606
0.013328863
0.013555408
0.013800145
0.014062936
0.014345297
0.014650289
0.014980887
0.015340234
0.015729236
0.016146335
0.016587221
0.017045903
0.017515624
0.017990294
0.018464719
0.018934321
0.019394239
0.019838346
0.020258664
0.020645043
0.020985288
0.021264659
0.021466019
0.021574747
0.021592699
0.021560249
0.021564904
0.02170475
0.022058498
0.022682656
0.023750217
0.02563092
0.029216554
0.015432945
0.016248092
0.019650598
0.012449721
0.01264459
0.012857629
0.013087803
0.013334976
0.013600579
0.013887495
0.014198535
0.014536677
0.014902826
0.015295613
0.015711117
0.016143872
0.016587715
0.017037113
0.017487372
0.017934349
0.018373637
0.018799651
0.019205067
0.019580506
0.019914511
0.020192847
0.020398113
0.020513554
0.020535559
0.020495793
0.020474296
0.020567807
0.020855989
0.021388656
0.022333154
0.023969599
0.027231546
0.014653099
0.015439273
0.018479668
0.011813716
0.011997075
0.012197566
0.012414208
0.012646877
0.012896917
0.013167045
0.01345992
0.013778364
0.014123285
0.014493489
0.014885423
0.015294121
0.015713981
0.016140001
0.016567948
0.016994107
0.017414508
0.01782408
0.018216126
0.018581993
0.018910988
0.019189475
0.01940008
0.019524389
0.01955373
0.019510923
0.019467571
0.019518552
0.019745378
0.020192778
0.021023105
0.022433581
0.025397587
0.01393333
0.014686647
0.017390259
0.01121303
0.011385768
0.011574676
0.011778829
0.011998111
0.012233789
0.01248842
0.01276452
0.013064773
0.013390089
0.013739432
0.014109603
0.014496107
0.014893867
0.015298382
0.015705874
0.016113029
0.016516288
0.016911067
0.017291266
0.017648949
0.017974167
0.018253963
0.018471247
0.01860645
0.018646439
0.018605126
0.018544584
0.018556947
0.018726346
0.019094198
0.019818566
0.021019857
0.023711911
0.013273139
0.013990035
0.016382067
0.010644426
0.010807308
0.010985468
0.01117803
0.011384889
0.011607237
0.011847487
0.012108019
0.012391381
0.012698484
0.013028451
0.013378412
0.013744305
0.014121568
0.014506171
0.014894754
0.015284394
0.015671932
0.016053249
0.016422817
0.01677337
0.017095699
0.017377605
0.017602512
0.017750209
0.017803809
0.017768535
0.017695766
0.017673453
0.017788787
0.01808179
0.018706955
0.01971363
0.022153605
0.012664676
0.013341315
0.015444823
0.01010726
0.010261048
0.010429285
0.010611149
0.010806539
0.011016585
0.011243553
0.011489702
0.011757454
0.012047721
0.012359772
0.012691044
0.013037895
0.013396233
0.013762472
0.014133664
0.014507252
0.014880462
0.015249625
0.015609747
0.015954213
0.016274538
0.016559306
0.01679264
0.016954188
0.017024173
0.016999656
0.016920247
0.016867714
0.01693226
0.017154585
0.017686552
0.018512137
0.020719399
0.012106151
0.012739827
0.014577416
0.0095993763
0.0097447589
0.0099038225
0.010075792
0.01026058
0.010459247
0.010673933
0.010906773
0.011160073
0.011434745
0.011730195
0.012044149
0.012373355
0.012714163
0.013063416
0.013418548
0.01377736
0.014137448
0.014495567
0.014847243
0.015186473
0.015505481
0.01579365
0.016035932
0.016212289
0.016300974
0.016291809
0.016211923
0.016134359
0.016151417
0.016306509
0.016750121
0.017406698
0.019404075
0.011592442
0.012180845
0.013773678
0.0091192155
0.0092568329
0.0094074204
0.0095702488
0.0097452375
0.0099333898
0.010136718
0.010357247
0.010597168
0.010857394
0.011137457
0.011435356
0.011748204
0.012072771
0.012406295
0.012746576
0.01309176
0.013439799
0.013787858
0.01413196
0.014466697
0.014784953
0.015076911
0.015328451
0.015520211
0.0156294
0.015639909
0.015566271
0.015469952
0.015443272
0.015534121
0.015893223
0.016391817
0.018206585
0.011120996
0.011661395
0.013029437
0.0086654308
0.0087958865
0.0089386517
0.0090930436
0.0092589895
0.0094374334
0.0096302727
0.0098394241
0.010066971
0.010313829
0.010579646
0.01086267
0.011160357
0.011469868
0.011788818
0.012115358
0.01244796
0.012784913
0.013123792
0.013461094
0.013791968
0.014109951
0.014405996
0.014666932
0.014874343
0.015005242
0.015039172
0.014978829
0.014871458
0.014805857
0.014835299
0.015112773
0.015463716
0.01712159
0.010690468
0.011179182
0.012341279
0.008236729
0.0083605901
0.0084961496
0.0086427664
0.0088003757
0.0089698701
0.0091530347
0.0093516852
0.0095678025
0.0098022954
0.010054923
0.010324171
0.010607809
0.010903366
0.011208809
0.011522616
0.011843577
0.012170319
0.012500795
0.012831965
0.013159526
0.013477627
0.013777957
0.014048294
0.014271301
0.014424481
0.01448469
0.014444502
0.014335238
0.014237354
0.014208667
0.014406556
0.014619795
0.016137205
0.01029967
0.010732211
0.011705981
0.0078317111
0.0079495002
0.0080784221
0.0082178764
0.0083678062
0.0085290524
0.0087032929
0.0088922485
0.0090978017
0.0093208588
0.0095612781
0.0098177563
0.010088361
0.010370962
0.010663857
0.01096584
0.011275995
0.011593271
0.011916004
0.012241601
0.012566279
0.012884787
0.013189519
0.013469147
0.013707453
0.013882877
0.013971082
0.013956974
0.013855922
0.013734865
0.01365278
0.013772729
0.013858017
0.015237658
0.0099463837
0.010318261
0.01112004
0.0074495983
0.0075618228
0.0076846577
0.0078175404
0.0079604222
0.0081140945
0.0082801363
0.0084601746
0.0086559999
0.0088685128
0.0090976576
0.0093423319
0.0096008794
0.0098714807
0.010152744
0.010443753
0.010743885
0.011052401
0.011367999
0.011688523
0.012010709
0.012329878
0.012639103
0.012927901
0.013181122
0.013378319
0.013495092
0.013511344
0.013428437
0.013295873
0.013167859
0.013212105
0.013179213
0.014413211
0.0096292026
0.0099368298
0.010581805
0.0070886261
0.0071957352
0.0073129703
0.0074398064
0.0075762002
0.0077228982
0.0078813833
0.0080531958
0.0082400375
0.0084427952
0.0086614968
0.0088952219
0.0091425618
0.0094019924
0.0096724079
0.0099531645
0.010243916
0.01054422
0.010853133
0.011168931
0.011488849
0.011808785
0.012122463
0.012420201
0.012687828
0.012906009
0.013050889
0.013099626
0.013042916
0.012911764
0.012748899
0.012721788
0.012580879
0.013657962
0.0093445111
0.0095851556
0.010087018
0.0067475243
0.0068499283
0.00696201
0.0070832786
0.0072136984
0.0073539716
0.0075054906
0.0076697118
0.0078482463
0.0080419737
0.0082509917
0.0084745442
0.0087114541
0.008960463
0.0092207276
0.0094918632
0.0097737806
0.010066326
0.010368906
0.010680211
0.010997977
0.011318671
0.011636678
0.011943081
0.012224606
0.012462928
0.012634914
0.012716416
0.012690903
0.012572854
0.01238912
0.012298779
0.012061477
0.012974364
0.0090909452
0.0092620099
0.0096330171
0.0064256656
0.0065237635
0.0066311245
0.0067472915
0.0068722345
0.0070066135
0.0071517339
0.0073089721
0.007479858
0.0076652538
0.0078653192
0.00807945
0.0083066758
0.0085459818
0.0087967676
0.0090588844
0.0093324823
0.0096176861
0.0099142368
0.010221237
0.010536919
0.010858321
0.011180493
0.011495288
0.011790303
0.012048096
0.012246212
0.012359835
0.012367729
0.012271301
0.012081129
0.01193974
0.01162016
0.012368341
0.0088701243
0.0089681427
0.009218991
0.0061217484
0.0062158997
0.0063189305
0.0064304146
0.0065503284
0.0066792924
0.0068185302
0.0069693408
0.0071331706
0.0073108668
0.0075026418
0.0077080254
0.0079262355
0.0081564783
0.0083983712
0.0086519812
0.0089176854
0.0091958668
0.00948659
0.009789357
0.010102894
0.010424817
0.010750854
0.011073672
0.011381742
0.011658475
0.011882029
0.012027146
0.012069362
0.012000185
0.011816322
0.01163825
0.011252747
0.011840073
0.0086834383
0.0087032356
0.008842756
0.0058350098
0.005925554
0.006024622
0.0061318196
0.0062471282
0.0063711295
0.0065049701
0.006649874
0.0068072088
0.0069778022
0.0071619126
0.0073591897
0.0075690168
0.0077907981
0.0080243479
0.0082699269
0.0085281168
0.0087995475
0.0090845894
0.0093831336
0.0096943888
0.01001655
0.010346062
0.010676434
0.01099708
0.011292343
0.011541026
0.011717613
0.011795264
0.011757872
0.011591215
0.011390926
0.010956909
0.011388348
0.0085342929
0.0084689844
0.0085039191
0.0055644713
0.0056517206
0.005747166
0.0058504419
0.005961534
0.0060809898
0.0062098805
0.006349359
0.0065007171
0.0066647609
0.0068417838
0.0070315407
0.0072335648
0.0074474376
0.007673143
0.0079111147
0.0081621207
0.0084270105
0.0087064463
0.0090006943
0.0093094311
0.0096314387
0.0099638828
0.010301176
0.010633783
0.010947097
0.011220753
0.011429275
0.011544137
0.011543213
0.011403629
0.011195044
0.010730444
0.011011229
0.0084263475
0.0082676768
0.0082022316
0.0053093311
0.005393577
0.0054857145
0.005585407
0.0056926468
0.0058079459
0.005932304
0.0060668071
0.0062126723
0.0063706809
0.0065411573
0.006723948
0.0069187152
0.0071251928
0.0073435162
0.0075742691
0.0078183791
0.0080769015
0.0083507614
0.0086405773
0.0089464858
0.0092678393
0.0096025415
0.0099459573
0.010289684
0.010620358
0.010918725
0.011159758
0.01131395
0.011354456
0.011251402
0.011048435
0.010572085
0.010710165
0.0083647855
0.008103543
0.0079388224
0.0050685496
0.0051500527
0.005239167
0.0053355829
0.0054392958
0.0055507866
0.0056709896
0.0058009234
0.0059417334
0.0060941759
0.0062585982
0.0064349232
0.0066229273
0.0068224775
0.0070338356
0.0072577095
0.0074951673
0.0077474368
0.0080156874
0.0083008669
0.0086035345
0.0089236066
0.009259728
0.0096082317
0.0099619512
0.010308938
0.010631346
0.010905106
0.011100501
0.01118721
0.011129787
0.010946896
0.010479133
0.010488252
0.0083558197
0.0079824308
0.0077157768
0.004841518
0.0049205256
0.0050068839
0.0051003099
0.0052008041
0.0053088176
0.0054252202
0.0055509683
0.0056871389
0.0058344594
0.0059932933
0.0061636317
0.0063453467
0.0065384163
0.0067432084
0.0069605331
0.00719157
0.007437697
0.0077002917
0.0079805965
0.0082795778
0.0085976794
0.0089342645
0.0092866526
0.0096489662
0.010010832
0.010356115
0.010662203
0.010899972
0.011036957
0.011033595
0.010885751
0.010448434
0.010349643
0.0084081611
0.0079141645
0.0075384594
0.0046273673
0.004704102
0.004787947
0.0048786433
0.0049761972
0.0050810322
0.0051939581
0.0053158708
0.0054477802
0.0055903849
0.0057440605
0.0059088526
0.0060847138
0.0062717176
0.0064703138
0.0066813924
0.0069062201
0.0071462898
0.0074031576
0.0076783248
0.0079731143
0.0082884689
0.0086244366
0.0089793074
0.0093485194
0.0097233835
0.010089732
0.010426901
0.010707155
0.010897287
0.010955181
0.010857317
0.010473136
0.010294352
0.0085303801
0.0079116222
0.0074152236
0.0044253544
0.0045000204
0.0045815727
0.0046697771
0.0047646464
0.0048665765
0.0049763208
0.0050947189
0.0052227171
0.0053609835
0.0055098991
0.0056695552
0.0058399741
0.0060213021
0.006214056
0.0064191806
0.0066379994
0.0068720952
0.0071231636
0.0073929194
0.0076829995
0.0079947903
0.0083289751
0.008684772
0.0090589201
0.0094444765
0.0098294286
0.010195482
0.010517066
0.010761611
0.01088614
0.010852153
0.010543355
0.010318387
0.0087299234
0.0079919002
0.0073601006
0.0042350196
0.0043078107
0.004387281
0.0044732195
0.0045656449
0.0046649292
0.0047717738
0.0048869635
0.0050113831
0.0051456708
0.0052902097
0.0054451279
0.0056105023
0.0057865397
0.0059738043
0.0061732742
0.0063863096
0.006614546
0.0068597791
0.0071238892
0.0074087724
0.0077161965
0.0080474159
0.0084025028
0.0087794484
0.0091730386
0.0095735368
0.0099653421
0.010325705
0.010624037
0.010818218
0.010859819
0.010646558
0.010413914
0.0090106397
0.0081752848
0.0073953797
0.0040555416
0.0041266295
0.0042042036
0.0042880765
0.0043782732
0.0044751426
0.0045793376
0.0046915926
0.0048127334
0.0049433685
0.0050838778
0.0052344209
0.0053951174
0.0055662226
0.0057483306
0.0059424341
0.0061499046
0.0063724003
0.006611778
0.0068700338
0.0071492605
0.0074515316
0.0077785879
0.0081312587
0.0085086864
0.008907323
0.0093197128
0.0097331458
0.010128223
0.010477491
0.010741373
0.010866825
0.010765377
0.010566236
0.0093676218
0.0084791592
0.0075520972
0.0038863398
0.0039558827
0.0040317321
0.0041137234
0.0042018878
0.0042965549
0.0043983317
0.0045079041
0.0046260436
0.0047533286
0.0048901341
0.0050366433
0.0051930117
0.0053595293
0.0055368062
0.0057258371
0.0059279793
0.0061448863
0.006378439
0.006630697
0.0069038834
0.007200299
0.0075220655
0.0078706508
0.0082462084
0.0086467166
0.0090669055
0.0094969972
0.0099212618
0.010316279
0.010646548
0.010859442
0.010880277
0.010754618
0.0097858769
0.008912661
0.007870864
0.0037268892
0.0037950336
0.003869317
0.0039495964
0.0040359099
0.0041285695
0.0042281401
0.004335264
0.0044506601
0.0045748772
0.0047082849
0.0048510838
0.0050034571
0.0051657207
0.005338491
0.0055227462
0.0057198161
0.0059313276
0.0061591446
0.0064053442
0.0066722159
0.0069621977
0.0072776869
0.0076206486
0.0079920653
0.0083912428
0.0088148944
0.0092560368
0.0097026832
0.010135978
0.010525693
0.010823898
0.010969753
0.010950555
0.010236668
0.0094662992
0.008394446
0.0035766212
0.0036434993
0.0037163597
0.0037950806
0.0038797072
0.0039705364
0.0040680945
0.0041729821
0.0042858701
0.0044072791
0.0045375707
0.0046769595
0.0048256517
0.0049839792
0.0051525549
0.0053323341
0.0055246055
0.005730944
0.0059531704
0.0061933387
0.0064537417
0.0067368749
0.0070452971
0.007381309
0.0077465278
0.0081413296
0.0085641
0.0090103617
0.0094716468
0.0099337578
0.010372401
0.010747425
0.011011648
0.011118559
0.010675663
0.010099791
0.0091452446
0.0034350149
0.0035007483
0.0035723167
0.0036496185
0.0037327077
0.0038218666
0.0039175869
0.0040204318
0.0041310266
0.0042498658
0.0043773028
0.0045135626
0.0046588678
0.0048135612
0.0049782487
0.0051538522
0.0053416088
0.0055430286
0.0057598693
0.0059941229
0.0062480363
0.00652409
0.0068248929
0.0071529372
0.0075102597
0.0078980118
0.0083158885
0.0087614608
0.0092292962
0.0097094685
0.010183615
0.010620829
0.010986728
0.011221216
0.01104549
0.010732508
0.010073094
0.003301589
0.0033662879
0.0034366834
0.003512694
0.0035943809
0.003682015
0.003776057
0.003877035
0.0039855333
0.0041020222
0.0042268455
0.0043602368
0.0045024308
0.0046537784
0.0048148724
0.0049865971
0.005170131
0.0053669142
0.0055786214
0.0058071599
0.0060546929
0.006323625
0.0066165271
0.0069359495
0.0072841462
0.0076627573
0.0080723868
0.0085121134
0.0089788663
0.0094661741
0.0099609175
0.010441166
0.010883367
0.011227478
0.011286232
0.011248496
0.010986999
0.003175832
0.003239596
0.0033089265
0.0033837597
0.0034641656
0.0035504053
0.0036429112
0.0037421799
0.0038487587
0.0039630943
0.0040855227
0.0042162838
0.004355623
0.0045038944
0.0046616735
0.0048298062
0.0050094108
0.0052018507
0.005408709
0.0056317945
0.0058731597
0.0061350947
0.0064200694
0.0067305799
0.0070689366
0.0074370193
0.0078359665
0.0082658283
0.0087251348
0.0092098751
0.0097109755
0.010213854
0.010702782
0.011124402
0.011359793
0.011546971
0.011643938
0.0030573769
0.0031202992
0.0031886641
0.003262426
0.0033416635
0.0034266283
0.0035177282
0.0036154318
0.0037202528
0.0038326174
0.0039528541
0.0040812077
0.0042179314
0.0043633801
0.0045181124
0.0046829343
0.0048589034
0.0050473028
0.0052496251
0.005467571
0.005703071
0.0059582768
0.0062355147
0.0065371591
0.0068654642
0.00722236
0.0076092248
0.0080266361
0.0084740601
0.0089489854
0.0094450953
0.009953002
0.010461631
0.010926064
0.011274021
0.011608054
0.011944021
0.0029457613
0.0030079246
0.0030754135
0.0031481994
0.0032263684
0.0033101651
0.0033999751
0.0034962423
0.0035994499
0.0037100061
0.003828232
0.003954379
0.0040887048
0.0042315654
0.0043835005
0.0045452764
0.0047178901
0.0049025483
0.0051006519
0.005313793
0.0055437766
0.005792606
0.0060624462
0.0063555173
0.0066739435
0.0070195915
0.00739389
0.0077976356
0.0082307456
0.0086915064
0.0091753421
0.0096761301
0.010185105
0.010665447
0.011074557
0.011488849
0.011953117
0.0028406318
0.0029021136
0.0029688102
0.0030407077
0.0031179004
0.0032006266
0.0032892527
0.0033841998
0.0034859244
0.0035948193
0.0037112007
0.0038353235
0.0039674519
0.004107941
0.004257311
0.0044162911
0.0045858199
0.0047670302
0.0049612316
0.005169913
0.0053947557
0.0056376164
0.0059004948
0.0061854435
0.0064944271
0.0068291958
0.0071911224
0.0075810505
0.0079990736
0.0084438577
0.0089119187
0.0093990337
0.009897438
0.010377521
0.010814672
0.0112659
0.011782339
0.0027415979
0.0028024679
0.0028684469
0.0029395359
0.0030158359
0.0030975801
0.0031851168
0.0032788476
0.0033792063
0.0034865713
0.0036012546
0.0037235168
0.0038536283
0.0039919409
0.0041389591
0.004295375
0.0044620718
0.0046401107
0.0048307169
0.0050352781
0.0052553563
0.0054926701
0.0057490586
0.0060264104
0.0063265258
0.0066510173
0.0070011616
0.0073777748
0.0077809875
0.0082096703
0.0086610877
0.0091320866
0.0096154191
0.010087848
0.010535657
0.011001441
0.011529755
0.002648282
0.0027086036
0.0027739336
0.002844286
0.002919769
0.0030006106
0.0030871434
0.0031797516
0.0032788474
0.003384798
0.0034979136
0.0036184601
0.0037467134
0.0038830252
0.0040278835
0.0041819452
0.0043460412
0.0045211675
0.0047084675
0.0049092325
0.0051249153
0.0053570998
0.0056074788
0.0058777797
0.0061696506
0.006484564
0.0068236958
0.0071878051
0.007577018
0.007990358
0.0084256576
0.008880381
0.0093477835
0.0098101855
0.010260611
0.010730728
0.011253651
0.0025603744
0.0026202064
0.0026849504
0.0027546336
0.0028293695
0.0029093819
0.0029949897
0.0030865598
0.0031844868
0.003289128
0.0034007926
0.0035197521
0.0036462898
0.0037807562
0.0039236257
0.0040755232
0.0042372329
0.0044096862
0.0045939517
0.0047912313
0.0050028719
0.0052303321
0.0054751707
0.0057389649
0.0060232223
0.0063292861
0.0066582349
0.0070107684
0.0073870009
0.0077861057
0.0082063913
0.0086457032
0.0090979634
0.0095501893
0.0099995797
0.010469349
0.010981507
0.00247756
0.0025369556
0.002601172
0.0026702471
0.0027443003
0.0028235515
0.002908306
0.0029989161
0.0030957601
0.0031991864
0.0033095037
0.0034269901
0.003551936
0.0036846941
0.0038257257
0.0039756282
0.004135142
0.0043051391
0.0044866201
0.0046807017
0.0048886323
0.0051117575
0.005351505
0.0056093213
0.0058865807
0.0061845105
0.0065040984
0.0068459941
0.0072103119
0.0075963817
0.0080029173
0.0084280354
0.0088664857
0.0093091042
0.0097555503
0.010222488
0.010723464
0.0023995246
0.0024585313
0.0025222723
0.0025907954
0.0026642253
0.0027427769
0.0028267445
0.0029164663
0.0030123051
0.0031146018
0.003223665
0.0033397794
0.003463243
0.0035944109
0.0037337343
0.0038817875
0.0040392703
0.004207004
0.0043859234
0.0045770694
0.0047815981
0.0050007496
0.0052358335
0.0054881744
0.0057590253
0.0060495078
0.0063605326
0.0066927077
0.007046154
0.0074203726
0.0078144102
0.008226621
0.0086526921
0.0090864085
0.0095287359
0.0099913678
0.010482348
0.0023260129
0.002384674
0.0024479877
0.0025160116
0.0025888731
0.0026667832
0.0027500263
0.0028389268
0.0029338342
0.0030350816
0.0031429768
0.0032578115
0.0033798906
0.0035095721
0.0036473006
0.0037936296
0.0039492251
0.0041148616
0.0042914168
0.0044798608
0.0046812674
0.0048967796
0.0051276003
0.0053749424
0.0056399489
0.0059236466
0.0062268806
0.0065502153
0.0068937991
0.0072573059
0.00764004
0.0080406084
0.0084556431
0.0088811683
0.0093186861
0.0097762314
0.010258696
0.0022567243
0.0023150784
0.0023780077
0.0024455783
0.0025179213
0.0025952435
0.0026778187
0.00276596
0.0028600038
0.0029602758
0.0030670833
0.0031807229
0.0033015059
0.0034297931
0.0035660233
0.0037107338
0.00386456
0.0040282381
0.0042025941
0.0043885356
0.0045870631
0.0047992326
0.0050261517
0.0052689319
0.0055286197
0.005806159
0.0061023307
0.0064176672
0.0067523566
0.0071062194
0.0074787778
0.0078689001
0.0082741224
0.0086920965
0.009124435
0.0095766127
0.010051895
0.0021914099
0.0022494918
0.0023120752
0.0023792345
0.002451104
0.0025278868
0.0026098473
0.0026972875
0.0027905319
0.0028898988
0.0029956943
0.0031082188
0.0032277883
0.0033547667
0.0034895872
0.0036327714
0.0037849306
0.0039467665
0.0041190589
0.0043026639
0.0044985157
0.0047075961
0.0049309283
0.0051695372
0.0054243863
0.0056963456
0.005986142
0.0062942851
0.0066210027
0.0069662425
0.0073296977
0.0077105101
0.0081070148
0.0085179884
0.0089449635
0.0093917091
0.0098607276
0.0021298532
0.0021876941
0.0022499668
0.0023167535
0.0023881909
0.0024644792
0.0025458743
0.002632668
0.0027251731
0.0028237017
0.0029285585
0.0030400457
0.0031584831
0.003284236
0.0034177309
0.0035594762
0.0037100608
0.003870155
0.0040404994
0.0042219044
0.0044152483
0.0046214476
0.0048414559
0.0050762251
0.0053266484
0.0055935385
0.0058775824
0.0061792774
0.0064988936
0.0068364888
0.0071918873
0.0075644984
0.0079533134
0.0083578659
0.0087795044
0.0092208707
0.0096841501
0.0020718124
0.00212944
0.0021914334
0.0022578817
0.002328924
0.0024047579
0.002485632
0.0025718282
0.0026636499
0.0027614026
0.0028653885
0.002975912
0.0030932959
0.003217904
0.0033501564
0.0034905487
0.0036396472
0.003798094
0.0039665947
0.0041459181
0.0043368918
0.0045403794
0.0047572739
0.004988467
0.0052347989
0.0054970379
0.0057758476
0.0060717293
0.0063850022
0.0067158278
0.0070641551
0.0074296383
0.0078117859
0.0082106037
0.0086272519
0.00906361
0.0095216735
0.0020170744
0.0020745131
0.0021362552
0.0022023957
0.0022730764
0.0023484927
0.0024288859
0.0025145292
0.0026057182
0.0027027518
0.0028059308
0.0029155605
0.0030319648
0.0031555063
0.0032865995
0.0034257254
0.0035734297
0.0037303262
0.0038970877
0.0040744439
0.0042631777
0.0044641041
0.0046780621
0.0049058959
0.0051484008
0.0054063159
0.0056802917
0.0059708493
0.0062783697
0.0066031097
0.006945155
0.0073043987
0.0076807291
0.0080744625
0.0084866115
0.0089185667
0.0093720593
0.0019654367
0.002022708
0.0020842234
0.0021500835
0.0022204329
0.0022954645
0.0023754131
0.0024605449
0.0025511469
0.0026475133
0.0027499427
0.0028587414
0.0029742348
0.0030967845
0.0032267981
0.003364743
0.0035111456
0.003666593
0.0038317273
0.0040072399
0.0041938719
0.0043923905
0.0046035911
0.0048282693
0.0050671839
0.0053210525
0.0055905178
0.0058761278
0.0061783233
0.0064974597
0.0068337574
0.0071873334
0.0075583662
0.0079473692
0.0083552702
0.0087831871
0.0092325446
0.0019167131
0.0019738359
0.0020351461
0.0021007503
0.0021707953
0.0022454718
0.0023250094
0.0024096671
0.0024997242
0.0025954708
0.0026972033
0.0028052283
0.002919873
0.0030414975
0.0031705032
0.0033073472
0.0034525371
0.0036066368
0.0037702583
0.0039440572
0.0041287374
0.0043250226
0.0045336632
0.0047554103
0.0049909931
0.0052411023
0.005506378
0.0057873909
0.0060846388
0.0063985613
0.0067295028
0.0070777741
0.0074437802
0.0078281559
0.0082317962
0.0086557138
0.0091011371
0.0018707215
0.0019277124
0.0019888363
0.0020542056
0.0021239697
0.0021983177
0.0022774745
0.0023616924
0.002451244
0.0025464147
0.0026474983
0.002754802
0.0028686537
0.0029894116
0.0031174742
0.0032532867
0.0033973428
0.0035501845
0.0037123989
0.0038846111
0.0040674904
0.0042617201
0.0044680119
0.0046870791
0.0049196191
0.0051662991
0.0054277562
0.0057045749
0.0059972997
0.0063064338
0.0066324309
0.0069757548
0.00733697
0.0077168004
0.0081161331
0.0085359982
0.0089776357
0.0018272966
0.0018841703
0.0019451246
0.0020102775
0.0020797813
0.0021538238
0.0022326262
0.0023164352
0.0024055174
0.0025001532
0.0026006338
0.002707266
0.0028203769
0.0029403238
0.0030674999
0.003202342
0.0033453312
0.0034969913
0.0036578881
0.0038286214
0.0040098298
0.0042021653
0.004406309
0.0046229402
0.004852731
0.0050963302
0.0053543712
0.005627451
0.0059161479
0.0062210164
0.0065425941
0.006881454
0.0072382728
0.0076138308
0.008009034
0.0084249627
0.0088630104
0.0018430426
0.0019038425
0.0019687951
0.0020380559
0.0021118124