/*--------------------------------*- C++ -*----------------------------------*\
| =========                 |                                                 |
| \\      /  F ield         | OpenFOAM: The Open Source CFD Toolbox           |
|  \\    /   O peration     | Version:  2506                                  |
|   \\  /    A nd           | Website:  www.openfoam.com                      |
|    \\/     M anipulation  |                                                 |
\*---------------------------------------------------------------------------*/
FoamFile
{
    version     2.0;
    format      ascii;
    arch        "LSB;label=32;scalar=64";
    class       volScalarField;
    location    "0.011";
    object      p;
}
// * * * * * * * * * * * * * * * * * * * * * * * * * * * * * * * * * * * * * //

dimensions      [1 -1 -2 0 0 0 0];

internalField   nonuniform List<scalar> 
13761
(
47278.229
47252.867
47248.541
47248.517
47252.921
47278.177
47244.922
47249.856
47248.488
47252.959
47278.133
47244.912
47249.935
47300.775
47447.703
47248.457
47252.999
47278.087
47244.902
47250.02
47300.55
47447.686
47323.567
47395.597
47248.423
47253.041
47278.039
47244.893
47250.113
47300.319
47447.671
47323.457
47395.715
47314.01
47290.861
47248.387
47253.085
47277.987
47244.884
47250.214
47300.075
47447.658
47323.333
47395.845
47313.991
47291.022
47416.616
47512.528
47248.349
47253.133
47277.932
47244.876
47250.324
47299.811
47447.646
47323.195
47395.988
47313.973
47291.196
47416.433
47512.304
47545.952
47552.114
47248.309
47253.183
47277.874
47244.869
47250.444
47299.525
47447.635
47323.041
47396.146
47313.956
47291.385
47416.233
47512.065
47545.649
47552.363
47408.514
47283.029
47279.698
47248.266
47253.236
47277.812
47244.863
47250.574
47299.219
47447.623
47322.87
47396.319
47313.941
47291.589
47416.017
47511.808
47545.326
47552.624
47408.762
47283.255
47279.897
47443.299
47624.803
47248.22
47253.293
47277.746
47244.859
47250.715
47298.892
47447.609
47322.68
47396.506
47313.928
47291.81
47415.783
47511.533
47544.981
47552.895
47409.027
47283.499
47280.111
47443.046
47624.978
47710.03
47656.755
47248.172
47253.353
47277.677
47244.857
47250.868
47298.544
47447.592
47322.472
47396.707
47313.918
47292.049
47415.532
47511.239
47544.614
47553.178
47409.311
47283.761
47280.341
47442.777
47625.17
47710.321
47656.749
47595.572
47610.649
47248.12
47253.416
47277.602
47244.859
47251.033
47298.175
47447.572
47322.243
47396.921
47313.911
47292.307
47415.263
47510.923
47544.222
47553.471
47409.615
47284.044
47280.589
47442.491
47625.378
47710.635
47656.735
47595.395
47611.099
47761.622
47739.707
47248.066
47253.483
47277.523
47244.864
47251.213
47297.784
47447.546
47321.994
47397.147
47313.908
47292.586
47414.975
47510.584
47543.804
47553.775
47409.941
47284.349
47280.856
47442.189
47625.604
47710.976
47656.708
47595.2
47611.578
47763.152
47740.34
47535.286
47437.498
47404.656
47248.008
47253.554
47277.439
47244.874
47251.408
47297.368
47447.515
47321.723
47397.384
47313.91
47292.887
47414.667
47510.22
47543.356
47554.089
47410.292
47284.677
47281.145
47441.869
47625.848
47711.346
47656.664
47594.985
47612.09
47764.783
47741.019
47535.677
47437.062
47403.481
47468.729
47624.363
47247.947
47253.629
47277.349
47244.89
47251.62
47296.924
47447.479
47321.427
47397.634
47313.918
47293.213
47414.336
47509.83
47542.879
47554.413
47410.669
47285.031
47281.456
47441.534
47626.111
47711.748
47656.6
47594.747
47612.638
47766.516
47741.743
47536.115
47436.642
47402.427
47466.871
47623.105
47719.256
47817.996
47874.042
47247.882
47253.709
47277.253
47244.91
47251.851
47296.45
47447.44
47321.103
47397.897
47313.932
47293.567
47413.981
47509.411
47542.368
47554.746
47411.075
47285.412
47281.792
47441.185
47626.393
47712.178
47656.514
47594.484
47613.222
47768.353
47742.519
47536.609
47436.237
47401.47
47465.08
47621.983
47719.038
47820.291
47877.793
47851.052
47605.591
47613.158
47247.812
47253.793
47277.151
47244.937
47252.103
47295.94
47447.399
47320.747
47398.174
47313.956
47293.952
47413.601
47508.96
47541.821
47555.087
47411.511
47285.824
47282.155
47440.824
47626.694
47712.636
47656.407
47594.195
47613.846
47770.294
47743.351
47537.167
47435.824
47400.477
47463.354
47620.975
47718.705
47821.514
47879.735
47853.819
47547.881
47616.269
47247.739
47253.882
47277.042
47244.97
47252.379
47295.389
47447.359
47320.355
47398.466
47313.99
47294.371
47413.191
47508.477
47541.237
47555.436
47411.98
47286.268
47282.546
47440.451
47627.016
47713.123
47656.274
47593.874
47614.513
47772.34
47744.249
47537.798
47435.398
47399.425
47461.511
47619.904
47718.186
47821.534
47879.909
47855.57
47512.678
47619.264
47247.661
47253.977
47276.925
47245.01
47252.681
47294.79
47447.324
47319.922
47398.778
47314.036
47294.828
47412.749
47507.958
47540.611
47555.791
47412.486
47286.75
47282.968
47440.069
47627.36
47713.641
47656.109
47593.519
47615.225
47774.493
47745.22
47538.511
47434.959
47398.33
47459.5
47618.721
47717.599
47821.382
47879.956
47856.315
47500.42
47622.675
47247.578
47254.077
47276.8
47245.06
47253.006
47294.146
47447.293
47319.44
47399.11
47314.097
47295.329
47412.269
47507.4
47539.942
47556.152
47413.031
47287.273
47283.422
47439.679
47627.727
47714.191
47655.908
47593.127
47615.985
47776.749
47746.274
47539.314
47434.507
47397.2
47457.328
47617.433
47716.978
47821.332
47880.236
47857.037
47500.529
47625.91
47247.49
47254.182
47276.667
47245.119
47253.351
47293.463
47447.265
47318.904
47399.466
47314.177
47295.879
47411.749
47506.801
47539.226
47556.517
47413.618
47287.841
47283.909
47439.282
47628.119
47714.772
47655.665
47592.696
47616.793
47779.107
47747.419
47540.216
47434.039
47396.044
47454.997
47616.041
47716.312
47821.313
47880.607
47857.914
47505.259
47628.922
47247.397
47254.294
47276.526
47245.187
47253.718
47292.67
47447.314
47318.307
47399.848
47314.276
47296.483
47411.182
47506.157
47538.462
47556.883
47414.251
47288.461
47284.431
47438.879
47628.54
47715.383
47655.373
47592.226
47617.648
47781.564
47748.664
47541.23
47433.556
47394.869
47452.504
47614.536
47715.589
47821.269
47880.994
47858.849
47512.448
47631.437
47247.297
47254.412
47276.374
47245.266
47254.107
47291.754
47447.452
47317.64
47400.259
47314.399
47297.15
47410.564
47505.466
47537.645
47557.248
47414.933
47289.138
47284.991
47438.472
47628.99
47716.014
47655.026
47591.718
47618.547
47784.111
47750.017
47542.364
47433.058
47393.685
47449.843
47612.909
47714.801
47821.184
47881.385
47859.809
47522.262
47633.458
47247.192
47254.537
47276.212
47245.358
47254.521
47290.801
47447.589
47316.895
47400.699
47314.549
47297.885
47409.887
47504.723
47536.773
47557.61
47415.669
47289.879
47285.591
47438.062
47629.474
47716.679
47654.615
47591.177
47619.483
47786.738
47751.484
47543.631
47432.55
47392.499
47447.01
47611.149
47713.945
47821.058
47881.789
47860.798
47535.676
47634.9
47247.081
47254.669
47276.038
47245.465
47254.961
47289.816
47447.726
47316.061
47401.173
47314.73
47298.698
47409.146
47503.925
47535.844
47557.965
47416.462
47290.689
47286.235
47437.651
47629.993
47717.365
47654.128
47590.61
47620.448
47789.433
47753.068
47545.044
47432.033
47391.317
47443.995
47609.245
47713.018
47820.89
47882.195
47861.846
47552.107
47635.831
47246.963
47254.808
47275.852
47245.592
47255.428
47288.797
47447.862
47315.127
47401.681
47314.944
47299.598
47408.331
47503.068
47534.853
47558.309
47417.317
47291.575
47286.926
47437.241
47630.55
47718.07
47653.556
47590.032
47621.431
47792.176
47754.77
47546.616
47431.515
47390.145
47440.787
47607.185
47712.018
47820.683
47882.575
47862.995
47569.826
47636.316
47246.837
47254.954
47275.655
47245.738
47255.921
47287.748
47447.999
47314.081
47402.228
47315.198
47300.596
47407.436
47502.146
47533.798
47558.636
47418.236
47292.545
47287.668
47436.837
47631.147
47718.783
47652.887
47589.458
47622.416
47794.94
47756.585
47548.367
47431
47388.982
47437.37
47604.952
47710.947
47820.445
47882.918
47864.275
47586.934
47636.531
47246.704
47255.109
47275.45
47245.905
47256.435
47286.67
47448.139
47312.907
47402.818
47315.495
47301.704
47406.448
47501.157
47532.677
47558.94
47419.225
47293.607
47288.468
47436.443
47631.786
47719.497
47652.098
47588.907
47623.384
47797.696
47758.485
47550.333
47430.496
47387.832
47433.729
47602.53
47709.808
47820.19
47883.242
47865.695
47601.608
47636.651
47246.563
47255.273
47275.232
47246.098
47256.968
47285.566
47448.261
47311.61
47403.454
47315.842
47302.938
47405.356
47500.096
47531.487
47559.213
47420.291
47294.772
47289.335
47436.06
47632.468
47720.212
47651.196
47588.356
47624.312
47800.417
47760.452
47552.531
47430.011
47386.694
47429.846
47599.898
47708.606
47819.935
47883.57
47867.265
47612.859
47636.831
47246.413
47255.447
47274.995
47246.321
47257.52
47284.443
47448.336
47310.206
47404.142
47316.245
47304.312
47404.147
47498.957
47530.227
47559.445
47421.441
47296.054
47290.279
47435.689
47633.196
47720.924
47650.223
47587.777
47625.179
47803.063
47762.467
47554.982
47429.557
47385.572
47425.71
47597.037
47707.346
47819.7
47883.933
47868.999
47620.316
47637.178
47246.254
47255.631
47274.74
47246.561
47258.092
47283.309
47448.353
47308.687
47404.886
47316.711
47305.847
47402.804
47497.737
47528.895
47559.624
47422.686
47297.46
47291.316
47435.325
47633.971
47721.622
47649.208
47587.176
47625.957
47805.587
47764.505
47557.711
47429.151
47384.469
47421.314
47593.922
47706.036
47819.5
47884.369
47870.914
47624.525
47637.754
47246.085
47255.822
47274.483
47246.816
47258.676
47282.18
47448.302
47307.044
47405.693
47317.245
47307.564
47401.312
47496.429
47527.491
47559.735
47424.034
47298.996
47292.463
47434.956
47634.8
47722.289
47648.142
47586.552
47626.622
47807.933
47766.53
47560.741
47428.823
47383.393
47416.666
47590.531
47704.685
47819.355
47884.914
47873.039
47626.635
47638.592
47245.907
47255.994
47274.241
47247.114
47259.26
47281.073
47448.17
47305.267
47406.571
47317.855
47309.49
47399.652
47495.028
47526.014
47559.762
47425.494
47300.667
47293.746
47434.566
47635.687
47722.908
47647.011
47585.913
47627.144
47810.041
47768.501
47564.098
47428.608
47382.344
47411.787
47586.837
47703.303
47819.288
47885.594
47875.408
47628.137
47639.698
47245.719
47256.12
47274.009
47247.5
47259.837
47280.008
47447.943
47303.349
47407.528
47318.549
47311.653
47397.806
47493.527
47524.464
47559.69
47427.073
47302.483
47295.192
47434.128
47636.635
47723.463
47645.818
47585.277
47627.488
47811.853
47770.368
47567.805
47428.555
47381.322
47406.712
47582.813
47701.904
47819.327
47886.438
47878.053
47630.481
47641.07
47245.521
47256.204
47273.796
47247.947
47260.398
47279.003
47447.605
47301.284
47408.567
47319.338
47314.083
47395.756
47491.92
47522.848
47559.5
47428.773
47304.465
47296.831
47433.612
47637.647
47723.94
47644.559
47584.651
47627.621
47813.3
47772.073
47571.887
47428.724
47380.311
47401.489
47578.429
47700.507
47819.505
47887.481
47881.004
47634.742
47642.706
47245.317
47256.269
47273.565
47248.46
47260.94
47278.08
47447.137
47299.067
47409.694
47320.24
47316.81
47393.48
47490.201
47521.179
47559.153
47430.599
47306.639
47298.692
47432.985
47638.718
47724.315
47643.232
47584.05
47627.494
47814.306
47773.554
47576.372
47429.183
47379.279
47396.173
47573.653
47699.138
47819.866
47888.767
47884.277
47641.472
47644.639
47245.108
47256.322
47273.223
47249.135
47261.459
47277.263
47446.518
47296.698
47410.902
47321.273
47319.864
47390.955
47488.371
47519.474
47558.594
47432.564
47309.031
47300.798
47432.22
47639.821
47724.584
47641.831
47583.495
47627.045
47814.781
47774.75
47581.283
47429.968
47378.176
47390.821
47568.454
47697.828
47820.466
47890.354
47887.87
47650.686
47646.954
47244.894
47256.363
47272.788
47249.954
47261.941
47276.556
47445.726
47294.183
47412.235
47322.41
47323.278
47388.143
47486.434
47517.751
47557.767
47434.708
47311.648
47303.168
47431.284
47640.775
47724.926
47640.33
47583.024
47626.208
47814.632
47775.59
47586.612
47431.117
47376.956
47385.487
47562.801
47696.625
47821.379
47892.321
47891.752
47661.995
47649.737
47244.68
47256.393
47272.314
47250.848
47262.373
47276.228
47444.737
47291.575
47413.537
47323.786
47327.078
47385.018
47484.4
47516.014
47556.63
47437.074
47314.485
47305.829
47430.187
47641.358
47725.55
47638.691
47582.706
47624.897
47813.771
47775.984
47592.373
47432.703
47375.6
47380.271
47556.699
47695.587
47822.696
47894.778
47895.858
47674.77
47652.98
47244.466
47256.408
47271.808
47251.812
47262.739
47275.967
47443.533
47288.997
47414.609
47325.525
47331.207
47381.656
47482.267
47514.256
47555.169
47439.689
47317.534
47308.829
47428.959
47641.521
47726.497
47636.927
47582.593
47623.026
47812.107
47775.805
47598.617
47434.984
47374.111
47375.462
47550.219
47694.803
47824.539
47897.858
47900.088
47688.202
47656.552
47244.252
47256.406
47271.268
47252.841
47263.016
47276.023
47442.095
47286.581
47415.454
47327.52
47335.603
47378.176
47480.039
47512.45
47553.42
47442.537
47320.787
47312.217
47427.644
47641.197
47727.278
47635.576
47582.748
47620.519
47809.567
47774.858
47605.556
47438.045
47372.297
47371.667
47543.566
47694.38
47827.07
47901.72
47904.3
47701.392
47660.214
47244.039
47256.39
47270.687
47253.931
47263.178
47276.428
47440.407
47284.433
47415.965
47329.813
47340.262
47374.719
47477.666
47510.583
47551.445
47445.575
47324.252
47316.101
47426.214
47640.368
47726.806
47635.619
47583.282
47617.308
47806.168
47772.804
47613.294
47441.715
47369.718
47369.835
47536.82
47694.332
47830.445
47906.478
47908.287
47713.659
47663.707
47243.823
47256.366
47270.061
47255.075
47263.195
47277.27
47438.484
47282.64
47415.996
47332.447
47345.161
47371.485
47475.078
47508.621
47549.565
47448.509
47327.9
47320.676
47424.542
47639.153
47725.195
47636.703
47584.399
47613.346
47802.182
47769.054
47621.605
47445.83
47365.915
47370.733
47529.624
47694.415
47834.457
47911.813
47911.714
47724.652
47666.92
47243.604
47256.346
47269.382
47256.263
47263.022
47278.622
47436.336
47281.313
47415.344
47335.497
47350.273
47368.605
47472.276
47506.402
47548.142
47451.314
47331.551
47326.269
47422.42
47637.804
47722.801
47637.791
47586.316
47608.675
47798.498
47763.031
47629.823
47450.626
47362.239
47373.517
47521.396
47694.121
47838.273
47917.155
47914.152
47734.315
47670.041
47243.379
47256.348
47268.64
47257.48
47262.829
47280.362
47433.962
47280.637
47413.812
47339.018
47355.574
47366.131
47469.243
47503.595
47547.431
47454.579
47334.922
47333.289
47419.571
47636.417
47719.311
47638.959
47588.874
47604.027
47794.798
47754.618
47637.849
47456.113
47360.342
47376.952
47511.539
47693.143
47840.92
47921.529
47915.496
47742.985
47673.367
47243.148
47256.399
47267.824
47258.703
47262.861
47282.281
47431.363
47280.879
47411.182
47343.014
47361.031
47364.114
47465.967
47499.949
47547.926
47458.028
47338.345
47341.827
47415.913
47634.898
47714.542
47640.275
47591.438
47600.944
47789.609
47744.249
47644.688
47462.964
47360.805
47381.32
47499.804
47691.67
47842.227
47924.876
47916.187
47751.547
47677.027
47242.911
47256.53
47266.919
47259.907
47263.171
47284.411
47428.524
47281.723
47407.67
47347.521
47366.295
47362.276
47462.781
47495.553
47549.411
47461.018
47342.435
47351.395
47411.998
47633.301
47708.582
47641.814
47593.542
47600.182
47782.438
47733.136
47649.203
47471.308
47364.6
47386.131
47486.257
47689.913
47842.642
47928.107
47916.794
47761.125
47680.972
47242.645
47256.778
47265.914
47261.07
47263.811
47286.731
47425.423
47282.7
47403.91
47352.08
47370.448
47361.78
47460.157
47491.033
47550.708
47463.669
47347.876
47360.923
47408.82
47631.579
47701.512
47643.434
47594.897
47602.023
47772.995
47721.965
47652.167
47480.651
47372.212
47392.457
47472.281
47687.138
47842.685
47931.13
47917.755
47772.375
47685.162
47242.327
47257.116
47264.849
47262.186
47264.784
47289.207
47422.041
47283.756
47400.1
47356.408
47372.983
47364.005
47457.972
47487.776
47550.162
47465.886
47354.473
47368.809
47409.284
47629.409
47693.295
47644.952
47595.364
47606.811
47761.643
47710.554
47653.601
47491.508
47383.575
47399.688
47459.125
47682.545
47842.207
47934.243
47919.668
47783.98
47689.639
47241.965
47257.475
47263.85
47263.212
47266.098
47291.843
47418.255
47284.931
47396.241
47360.811
47375.129
47367.104
47456.316
47486.39
47547.292
47468.129
47361.5
47373.874
47419.83
47626.036
47684.834
47646.278
47595.469
47614.12
47748.556
47697.887
47654.322
47503.666
47398.259
47405.628
47448.766
47676.573
47841.243
47937.934
47923.09
47793.679
47695.02
47241.576
47257.754
47263.13
47263.962
47267.801
47294.669
47413.668
47286.643
47392.275
47365.233
47377.462
47369.293
47454.688
47486.082
47543.723
47470.444
47369.166
47377.937
47429.005
47621.327
47676.103
47647.386
47596.14
47622.67
47733.805
47684.196
47654.91
47516.849
47415.863
47407.312
47447.521
47669.044
47839.692
47941.468
47927.61
47801.123
47701.529
47241.176
47257.841
47262.922
47264.374
47269.776
47297.734
47407.823
47289.284
47388.123
47369.662
47379.683
47371.364
47452.163
47485.966
47540.227
47472.451
47377.361
47383.635
47437.558
47615.229
47667.199
47648.206
47597.561
47631.821
47717.696
47672.335
47655.104
47530.31
47433.638
47410.32
47459.494
47658.77
47837.463
47943.091
47932.258
47809.605
47707.448
47240.778
47257.784
47263.059
47264.542
47271.972
47301.031
47400.876
47293.03
47383.844
47374.002
47381.938
47373.734
47449.503
47485.131
47536.524
47474.162
47385.419
47390.947
47443.273
47608.524
47659.308
47648.012
47599.945
47638.522
47703.294
47665.743
47653.96
47543.187
47450.562
47421.462
47473.935
47643.372
47835.552
47940.641
47933.374
47823.191
47713.714
47240.384
47257.665
47263.246
47264.648
47274.295
47304.525
47392.626
47297.676
47379.333
47378.179
47384.215
47375.689
47447.557
47483.736
47532.881
47475.544
47392.981
47398.271
47447.309
47601.85
47652.745
47645.941
47602.502
47640.624
47694.284
47662.905
47650.386
47554.945
47468.746
47439.965
47485.875
47626.885
47834.6
47928.572
47927.998
47842.869
47721.79
47239.998
47257.493
47263.479
47264.73
47276.678
47307.951
47384.176
47302.717
47374.717
47382.207
47386.587
47377.037
47445.641
47482.018
47529.08
47476.531
47400.175
47405.3
47452.349
47594.823
47647.059
47642.824
47605.065
47640.04
47687.259
47660.221
47646.457
47565.555
47489.41
47462.354
47497.604
47628.151
47818.74
47905.668
47912.957
47847.71
47727.057
47239.62
47257.274
47263.712
47264.763
47279.09
47310.744
47376.353
47307.907
47370.365
47386.076
47388.879
47378.409
47443.646
47479.755
47524.862
47477.336
47406.773
47411.308
47457.648
47587.746
47641.861
47639.726
47607.367
47638.572
47679.086
47657.577
47643.271
47575.308
47509.594
47484.117
47516.574
47639.502
47782.815
47883.327
47892.392
47833.429
47727.668
47239.236
47257.015
47263.902
47264.828
47281.416
47312.676
47369.077
47313.272
47366.186
47389.583
47390.975
47379.465
47441.597
47477.53
47520.831
47477.93
47413.032
47416.75
47462.783
47580.899
47636.229
47636.662
47609.157
47636.228
47669.936
47654.507
47641.038
47584.598
47527.803
47506.417
47538.707
47645.817
47772.265
47857.886
47867.316
47814.455
47728.831
47238.838
47256.75
47264.033
47265.029
47283.595
47313.811
47362.771
47318.716
47362.385
47392.885
47392.858
47380.107
47439.208
47475.202
47516.521
47477.994
47418.883
47422.429
47467.456
47574.045
47630.49
47633.403
47610.163
47633.38
47660.791
47650.094
47637.607
47592.009
47546.43
47529.317
47558.983
47648.976
47756.935
47831.517
47840.525
47795.186
47726.425
47238.435
47256.49
47264.089
47265.376
47285.419
47314.467
47356.77
47323.753
47359.005
47395.602
47394.212
47381.081
47436.379
47472.894
47512.49
47477.948
47424.577
47428.086
47472.252
47567.446
47624.317
47629.997
47610.541
47629.501
47651.132
47644.617
47635.025
47597.348
47561.57
47549.841
47576.245
47651.149
47741.973
47805.118
47814.584
47778.238
47721.126
47238.035
47256.177
47264.117
47265.78
47287.036
47314.45
47351.465
47327.869
47357.031
47397.826
47395.224
47382.179
47432.775
47470.606
47508.767
47477.313
47429.577
47433.405
47476.702
47562.018
47617.626
47625.777
47610.018
47624.825
47642.174
47638.592
47632.641
47602.365
47575.191
47566.92
47589.861
47652.163
47726.784
47780.192
47790.254
47761.624
47715.272
47237.63
47255.803
47264.15
47266.152
47288.277
47313.687
47346.562
47330.827
47356.65
47399.283
47395.757
47383.377
47428.656
47468.443
47505.094
47476.496
47434.191
47438.411
47480.564
47557.375
47610.795
47620.958
47608.547
47619.478
47633.31
47631.97
47629.79
47606.475
47587.606
47581.915
47600.801
47650.984
47710.873
47755.125
47766.201
47744.548
47707.935
47237.221
47255.377
47264.17
47266.507
47289.256
47312.383
47342.329
47332.868
47357.677
47400.02
47396.026
47384.045
47424.714
47466.769
47501.053
47475.328
47438.249
47443.354
47484.004
47553.609
47603.439
47615.391
47606.359
47613.486
47624.653
47625.346
47627.152
47609.975
47597.398
47593.304
47608.568
47647.808
47695.521
47731.85
47743.414
47727.992
47699.064
47236.818
47254.892
47264.119
47266.748
47290.093
47311.031
47338.175
47334.852
47359.626
47399.356
47396.156
47384.242
47420.957
47464.848
47496.82
47473.97
47441.768
47448.119
47487.285
47550.183
47595.296
47609.774
47602.678
47606.773
47616.112
47618.548
47623.91
47612.423
47604.744
47600.821
47612.162
47643.311
47680.484
47710.979
47721.657
47711.687
47689.611
47236.421
47254.257
47264.056
47266.736
47290.699
47309.532
47334.156
47337.196
47361.796
47397.45
47396.208
47384.283
47417.64
47462.929
47492.598
47472.425
47444.66
47452.267
47490.958
47546.827
47587.039
47603.659
47597.206
47599.58
47607.362
47611.544
47620.067
47614.085
47609.514
47605.291
47613.922
47637.255
47666.512
47691.687
47702.269
47696.586
47680.067
47236.019
47253.55
47264.032
47266.509
47290.764
47308.051
47330.385
47339.133
47364.062
47395.526
47395.715
47384.049
47414.429
47460.677
47488.028
47470.651
47447.071
47456.117
47495.112
47543.355
47578.971
47595.876
47591.428
47592.677
47599.425
47606.147
47615.514
47614.595
47611.783
47607.447
47613.965
47630.482
47652.787
47674.209
47683.867
47681.852
47670.282
47235.685
47252.763
47263.873
47266.26
47290.335
47306.963
47326.983
47340.325
47366.304
47393.369
47394.577
47383.31
47411.616
47458.217
47483.038
47468.823
47449.563
47460.036
47497.496
47539.716
47570.881
47586.853
47585.007
47585.684
47592.016
47600.334
47611.419
47614.171
47611.669
47606.341
47611.056
47623.101
47640.892
47658.727
47668
47667.661
47659.41
47235.321
47251.996
47263.532
47265.782
47289.598
47306.195
47323.956
47340.795
47368.799
47391.057
47392.7
47381.987
47409.441
47455.681
47477.952
47467.252
47452.311
47463.409
47497.508
47535.408
47562.924
47577.412
47578.25
47579.485
47586.073
47594.657
47607.656
47612.813
47609.25
47602.588
47606.691
47616.645
47631.107
47645.609
47654.687
47655.322
47649.046
47234.942
47251.367
47262.94
47265.029
47288.717
47305.7
47321.269
47340.829
47370.888
47388.444
47390.081
47380.459
47406.875
47452.301
47473.679
47466.014
47455.121
47465.818
47496.098
47530.269
47554.75
47568.41
47571.954
47574.432
47579.983
47588.864
47603.002
47609.777
47605.151
47598.04
47601.065
47608.373
47621.289
47633.403
47641.453
47642.547
47637.744
47234.529
47250.733
47262.256
47264.486
47287.716
47305.135
47319.156
47340.976
47372.273
47385.726
47386.596
47378.576
47404.28
47449.076
47470.209
47464.454
47456.96
47467.048
47494.074
47524.789
47546.645
47560.059
47566.224
47569.76
47573.487
47582.734
47596.347
47603.896
47599.923
47592.977
47594.382
47599.879
47611.428
47621.565
47628.741
47629.041
47622.862
47234.078
47250.112
47261.636
47264.15
47286.202
47304.366
47317.975
47341.154
47372.382
47382.651
47382.07
47376.005
47401.917
47445.877
47467.257
47462.246
47456.453
47466.124
47490.768
47518.615
47539.141
47552.754
47560.055
47564.461
47567.703
47575.943
47586.731
47594.545
47593.295
47588.83
47591.544
47595.662
47603.037
47611.842
47617.088
47616.823
47611.685
47233.528
47249.448
47260.956
47263.387
47283.621
47303.262
47317.861
47341.24
47371.894
47379.06
47376.14
47372.928
47400.571
47443.232
47464.362
47460.049
47454.276
47462.831
47486.344
47512.791
47532.971
47545.823
47552.728
47558.456
47562.704
47568.33
47575.362
47583.495
47586.901
47583.151
47583.372
47589.476
47595.913
47603.31
47606.902
47605.542
47600.428
47248.604
47260.142
47262.643
47280.671
47301.619
47318.363
47342.102
47370.739
47375.058
47370.145
47370.324
47399.922
47440.935
47460.239
47457.484
47451.606
47459.277
47481.641
47507.249
47527.4
47539.032
47544.481
47550.957
47558.428
47563.224
47565.488
47568.89
47575.287
47580.645
47583.007
47587.773
47592.768
47597.529
47599.073
47596.438
47591.482
47247.638
47259.273
47262.059
47277.949
47299.594
47318.44
47343.454
47367.908
47369.151
47364.474
47368.805
47399.888
47439.035
47455.023
47453.205
47447.845
47455.763
47477.421
47502.345
47521.31
47531.754
47536.353
47543.012
47552.487
47558.489
47560.202
47558.634
47559.691
47566.764
47574.531
47582.325
47588.716
47591.774
47590.844
47585.885
47578.515
47246.569
47258.323
47261.814
47275.687
47297.491
47318.791
47343.908
47362.991
47361.347
47358.973
47368.679
47400.708
47436.488
47449.474
47447.39
47443.245
47452.083
47472.214
47495.564
47514.156
47524.881
47529.502
47535.114
47544.025
47550.523
47553.762
47554.462
47552.844
47554.193
47558.555
47563.167
47566.769
47567.548
47565.314
47560.866
47556.124
47245.355
47257.385
47261.941
47274.47
47295.482
47319.789
47343.034
47356.225
47353.477
47354.156
47369.649
47402.101
47433.103
47443.294
47441.272
47439.316
47448.687
47467.543
47488.715
47507.39
47518.86
47523.916
47527.513
47533.884
47539.014
47541.333
47545.684
47550.543
47553.057
47555.454
47556.744
47556.95
47556.099
47554.159
47551.424
47548.883
47243.93
47256.425
47262.513
47273.51
47293.382
47319.318
47339.807
47348.093
47346.723
47351.376
47370.753
47403.126
47428.847
47436.64
47435.2
47434.675
47443.681
47461.546
47481.335
47500.295
47513.29
47519.192
47519.969
47521.152
47526.957
47533.745
47539.783
47545.159
47548.202
47549.57
47549.991
47549.9
47549.407
47548.404
47546.962
47545.185
47242.387
47255.14
47263.319
47273.199
47292.18
47316.01
47334.216
47340.262
47341.872
47350.246
47371.937
47403.451
47423.832
47429.346
47427.532
47426.786
47436.77
47455.826
47476.357
47494.115
47506.551
47513.547
47514.638
47511.968
47512.78
47519.283
47527.341
47533.362
47537.439
47540.207
47542.266
47543.726
47544.104
47543.327
47541.65
47539.225
47240.674
47253.677
47264.063
47273.817
47290.765
47310.214
47327.464
47333.687
47338.74
47349.99
47372.687
47401.866
47417.82
47421.076
47417.358
47417.708
47431.039
47452.656
47473.094
47488.048
47497.066
47501.155
47503.925
47505.632
47507.205
47509.876
47513.651
47517.398
47520.903
47524.208
47527.019
47528.953
47529.459
47528.742
47527.07
47524.787
47238.908
47252.03
47264.054
47274.571
47288.617
47302.901
47319.008
47328.17
47336.155
47349.655
47373.117
47398.538
47409.965
47410.355
47406.242
47410.086
47427.482
47450.846
47468.978
47479.907
47484.797
47484.821
47486.499
47491.89
47498.586
47505.072
47510.596
47515.61
47520.11
47523.857
47526.346
47527.457
47527.378
47525.907
47523.617
47520.61
47236.806
47249.92
47263.274
47274.315
47285.683
47296.803
47310.062
47321.765
47334.305
47350.556
47372.844
47392.436
47398.367
47396.905
47396.927
47405.461
47423.025
47445.047
47461.152
47467.911
47470.389
47472.761
47473.279
47476.139
47482.225
47490.283
47499.038
47507.309
47513.85
47517.963
47519.921
47520.201
47518.694
47515.848
47512.199
47507.995
47234.671
47247.214
47261.289
47273.751
47282.728
47290.756
47301.812
47316.166
47332.92
47350.775
47369.852
47382.933
47386.579
47384.771
47388.415
47400.885
47418.974
47437.674
47452.448
47460.186
47459.14
47456.132
47455.539
47458.953
47466.758
47477.042
47487.533
47496.178
47501.244
47503.35
47503.296
47501.445
47498.42
47494.587
47490.361
47486.324
47232.702
47244.213
47258.09
47271.462
47280.007
47287.01
47297.701
47311.036
47329.883
47350.477
47365.318
47371.17
47372.462
47374.131
47382.71
47398.403
47417.035
47431.798
47438.705
47441.257
47442.691
47442.999
47446.207
47453.193
47462.631
47472.348
47480.142
47484.822
47486.273
47485.72
47483.661
47480.884
47477.847
47474.79
47472.095
47470.413
47231.714
47241.577
47253.536
47267.36
47278.061
47285.06
47295.137
47309.303
47327.136
47345.383
47355.34
47357.749
47360.438
47366.998
47380.117
47397.636
47413.773
47423.934
47428.218
47427.225
47425.797
47428.25
47435.042
47444.531
47454.466
47462.713
47468.213
47470.617
47470.719
47469.24
47467.115
47464.949
47463.296
47462.224
47461.778
47461.962
47230.812
47239.781
47249.277
47260.997
47273.76
47284.335
47292.416
47305.749
47321
47335.508
47343.727
47346.223
47351.363
47362.062
47376.831
47393.971
47408.336
47414.574
47414.456
47413.195
47413.408
47416.977
47423.482
47431.589
47439.549
47445.642
47449.112
47450.25
47449.874
47448.789
47447.853
47447.433
47447.679
47448.146
47448.382
47448.229
47229.755
47238.603
47246.596
47255.954
47267.551
47280.315
47291.647
47303.254
47313.403
47323.094
47331.633
47337.416
47344.838
47357.548
47373.334
47386.308
47393.866
47397.916
47399.792
47401.185
47404.119
47408.971
47415.285
47421.921
47427.591
47431.399
47433.289
47433.897
47433.892
47433.831
47434.164
47434.865
47435.666
47436.095
47435.782
47434.887
47228.082
47237.667
47244.963
47252.848
47263.609
47275.224
47286.254
47296.25
47304.061
47310.068
47317.867
47328.282
47339.689
47352.425
47365.388
47375.552
47381.111
47382.984
47383.689
47385.161
47389.043
47395.545
47403.398
47410.759
47416.352
47419.879
47421.721
47422.647
47423.179
47423.487
47423.758
47423.9
47423.778
47423.241
47422.055
47420.38
47224.504
47235.341
47244.247
47251.13
47258.546
47268.172
47278.336
47286.547
47294.156
47300.395
47308.154
47320.975
47336.176
47349.202
47357.475
47361.111
47362.383
47363.246
47365.494
47370.393
47377.95
47386.86
47395.211
47401.498
47405.48
47407.632
47408.602
47408.898
47408.582
47407.822
47406.909
47406.06
47405.237
47404.344
47403.181
47401.795
47220.706
47230.781
47240.891
47248.915
47255.456
47262.841
47271.673
47278.855
47285.957
47294.285
47303.965
47314.622
47325.751
47335.068
47341.072
47344.064
47345.938
47348.761
47353.589
47360.428
47368.434
47376.071
47381.856
47385.225
47386.565
47386.813
47386.036