/*--------------------------------*- C++ -*----------------------------------*\
| =========                 |                                                 |
| \\      /  F ield         | OpenFOAM: The Open Source CFD Toolbox           |
|  \\    /   O peration     | Version:  2506                                  |
|   \\  /    A nd           | Website:  www.openfoam.com                      |
|    \\/     M anipulation  |                                                 |
\*---------------------------------------------------------------------------*/
FoamFile
{
    version     2.0;
    format      ascii;
    arch        "LSB;label=32;scalar=64";
    class       volScalarField;
    location    "1.4";
    object      Cp;
}
// * * * * * * * * * * * * * * * * * * * * * * * * * * * * * * * * * * * * * //

dimensions      [0 0 0 0 0 0 0];

internalField   nonuniform List<scalar> 
1376
(
0.01751411
0.017628313
0.018143397
0.018417075
0.018951166
0.019582597
0.019691337
0.019977389
0.020169512
0.020503228
0.021017371
0.021455478
0.021498197
0.021493517
0.021660524
0.02181856
0.022178148
0.022002813
0.022166597
0.021965036
0.022268974
0.022208052
0.017589903
0.017973816
0.018592347
0.019319502
0.019480572
0.019814543
0.020049102
0.0204111
0.020920862
0.021383165
0.02145125
0.021462381
0.02163156
0.021801675
0.022160039
0.022011291
0.022170519
0.021967494
0.02225275
0.022211914
0.017489225
0.018222176
0.019043024
0.019267521
0.019649108
0.019926925
0.020313711
0.020827069
0.021303198
0.021409213
0.021427863
0.021603103
0.021783658
0.022142135
0.022021332
0.022171842
0.021975142
0.022238413
0.022216289
0.017859668
0.018771961
0.019062716
0.019472294
0.019795417
0.020206441
0.020734944
0.021224436
0.021369351
0.021386023
0.021570813
0.021769687
0.022128996
0.022027024
0.022171471
0.021998153
0.022222156
0.022219955
0.018854475
0.019292862
0.019655352
0.020097423
0.020651956
0.021144547
0.021326164
0.021338919
0.021531616
0.021756716
0.02212028
0.022030474
0.022167964
0.022007679
0.022203021
0.022223467
0.019110734
0.019510061
0.019983558
0.020570986
0.021069429
0.021277832
0.021288937
0.021494362
0.021760254
0.022111743
0.02203094
0.022151164
0.022023483
0.022188017
0.022228232
0.019366234
0.019872857
0.020494549
0.02100346
0.021224166
0.021238616
0.021465596
0.021772207
0.022095017
0.022036041
0.022130626
0.022049266
0.022173435
0.022231982
0.019770597
0.020420982
0.020942989
0.0211667
0.021191121
0.021437136
0.021776042
0.022075153
0.022049345
0.022108995
0.022070895
0.022160852
0.022232331
0.019680987
0.020352256
0.020889427
0.02110841
0.021145593
0.021413882
0.021773705
0.022046736
0.02206458
0.022089885
0.022081296
0.022148971
0.022228969
0.020292081
0.020841781
0.021047218
0.021104169
0.021390453
0.021764943
0.022025079
0.022076159
0.022081999
0.022081971
0.022137194
0.022224089
0.020797498
0.020984601
0.02106259
0.02136305
0.021762899
0.02202117
0.02207521
0.022079899
0.022080625
0.022128425
0.022217395
0.020921253
0.021021851
0.021336841
0.021766638
0.022028275
0.022053953
0.022058046
0.022084201
0.022123248
0.022208991
0.02098067
0.021306302
0.021767457
0.0220379
0.022023524
0.022059609
0.022087662
0.022118586
0.022209002
0.021283002
0.021759116
0.022050286
0.022014436
0.022070412
0.022072015
0.022116319
0.022218401
0.021747003
0.022055368
0.022005652
0.022058487
0.022064444
0.02212184
0.022231004
0.022046562
0.021992139
0.022052373
0.022063857
0.022136074
0.02223472
0.021986614
0.022050855
0.022068675
0.022148237
0.022250389
0.022052099
0.02207127
0.022172108
0.022278098
0.02206652
0.022194246
0.022317544
0.022224494
0.022360738
0.062109176
0.059525288
0.056277961
0.052848463
0.048631428
0.044544827
0.04123013
0.038527695
0.036636077
0.035048861
0.033645902
0.032273562
0.030937748
0.029919755
0.029114098
0.028516334
0.027934869
0.02724208
0.026611552
0.02616652
0.025825956
0.025520422
0.025152356
0.061539239
0.059204156
0.056176007
0.052458516
0.04787034
0.044104683
0.041063776
0.038342676
0.036474745
0.034854527
0.03357165
0.032182073
0.030883761
0.029866938
0.029080342
0.02847346
0.027904031
0.027225646
0.026594618
0.026148069
0.025811189
0.025509875
0.02514259
0.060883948
0.058966489
0.056287417
0.052145988
0.047595761
0.043970808
0.04089239
0.038397705
0.036394107
0.034802997
0.033510139
0.032090087
0.030882301
0.02985912
0.029060575
0.028450581
0.027893101
0.027224015
0.02659119
0.026135657
0.025804463
0.025504303
0.025138401
0.060249421
0.058687955
0.055649895
0.051593412
0.047226945
0.04339105
0.04052577
0.038171609
0.036176942
0.034588683
0.033403607
0.031973988
0.030836368
0.029819642
0.02901409
0.028394802
0.027866424
0.027208883
0.026580808
0.026117143
0.025793335
0.025495068
0.025133382
0.059690741
0.058592906
0.055043797
0.050939142
0.046689091
0.04294413
0.04023165
0.038031652
0.036128084
0.034425673
0.03326058
0.03188133
0.03079522
0.029771344
0.028985087
0.028349818
0.02783546
0.027197137
0.026563248
0.026101986
0.025782297
0.025484069
0.025127516
0.058880564
0.057620084
0.053907638
0.049974904
0.045993614
0.042414497
0.039872372
0.037833342
0.035889151
0.034277512
0.03303586
0.031765126
0.030693247
0.029712627
0.0289167
0.028305904
0.027797512
0.027178559
0.026540216
0.026088001
0.025769026
0.025467851
0.02511845
0.057737129
0.056025379
0.052560349
0.048894591
0.045245661
0.041848012
0.039495085
0.037602725
0.035676915
0.034064102
0.032832643
0.031664154
0.03057909
0.029646841
0.028844823
0.028260316
0.027765117
0.027154645
0.026516218
0.026068934
0.025760128
0.02544778
0.025105074
0.056227504
0.054369209
0.051214755
0.047802978
0.044427106
0.041258178
0.039113912
0.037321665
0.035399104
0.033803068
0.032629678
0.031544367
0.030452862
0.029561213
0.028771296
0.028208567
0.027721328
0.02712201
0.026489306
0.026037286
0.025760259
0.02542536
0.025087369
0.058029735
0.054420178
0.052657018
0.049811783
0.046643123
0.043525895
0.040661774
0.038690224
0.036963438
0.035064409
0.033506079
0.032425209
0.03139504
0.030325392
0.029472257
0.028692521
0.028150753
0.027670676
0.027081684
0.026457782
0.026007022
0.02574523
0.025408
0.025066836
0.055781994
0.053001745
0.050948351
0.048493377
0.045440415
0.042542412
0.040043382
0.038206536
0.036518594
0.034673615
0.033189613
0.032217311
0.031216117
0.030192649
0.029375737
0.028607631
0.028083919
0.027611877
0.027033639
0.02641771
0.025980889
0.025718704
0.025391437
0.025043092
0.053229912
0.050964925
0.049614364
0.047242581
0.044131941
0.041451487
0.039383435
0.037657323
0.035984293
0.034227635
0.032879637
0.031995648
0.031008112
0.030051165
0.029268092
0.028514981
0.028007518
0.027544266
0.026975108
0.026372224
0.025950703
0.025691682
0.025367132
0.025016352
0.050038837
0.048890878
0.048333441
0.045857239
0.042730862
0.040322211
0.038682629
0.037029985
0.035372041
0.033747272
0.032582875
0.031738181
0.030774529
0.029901621
0.029147617
0.028411137
0.027920965
0.027467524
0.026906961
0.026319779
0.025917106
0.025659548
0.025335789
0.048160783
0.047188063
0.046165841
0.044006386
0.041108621
0.039218964
0.03792915
0.036306315
0.034681302
0.033264483
0.032293708
0.031438938
0.030522271
0.029743165
0.029013372
0.028290471
0.027823151
0.027383238
0.026829635
0.02625932
0.025880022
0.025619172
0.025297639
0.047061905
0.044905834
0.043871763
0.041953178
0.039408954
0.038205518
0.037051775
0.035460394
0.033947057
0.032821259
0.031988198
0.031105219
0.030255193
0.029573005
0.028860883
0.028148066
0.027714958
0.027292966
0.026742577
0.026187749
0.02583588
0.0255714
0.0252538
0.044693207
0.04373997
0.042659437
0.041941448
0.039884438
0.037999002
0.037292256
0.036041916
0.034554712
0.033273505
0.03236348
0.031603239
0.030738892
0.029987735
0.029391478
0.028677734
0.027980299
0.027598437
0.027197496
0.026644073
0.026101331
0.02578277
0.025517937
0.025205591
0.041191906
0.040329628
0.040626112
0.039842117
0.037717097
0.036984383
0.036249844
0.034954897
0.033729859
0.032633336
0.03179265
0.031132968
0.030353851
0.029729473
0.029177663
0.028440318
0.027795842
0.027480127
0.027096071
0.026526321
0.026001433
0.025723558
0.025458696
0.025153114
0.037399028
0.038080749
0.038430033
0.037177325
0.036135901
0.03591492
0.034854994
0.034031275
0.033028087
0.03177789
0.031148409
0.030650026
0.029961706
0.029448674
0.028892609
0.028148357
0.027614706
0.027358775
0.026981975
0.026383164
0.02590104
0.025656258
0.02539222
0.025095797
0.034932135
0.035633124
0.035707003
0.034987961
0.034721349
0.03426136
0.033659013
0.033206805
0.031906385
0.030974351
0.030724682
0.030154947
0.029489418
0.029119886
0.028534776
0.027829458
0.027447652
0.027229383
0.02684488
0.026215783
0.025815005
0.025571098
0.025318485
0.025034685
0.031957158
0.033595137
0.032916903
0.032951311
0.033498958
0.032546505
0.032434002
0.032452157
0.03180789
0.030791554
0.030629208
0.030330795
0.029378571
0.029008876
0.02876535
0.028098431
0.027522824
0.027288262
0.027072688
0.026661285
0.02605543
0.025725682
0.025466356
0.02524108
0.024968898
0.028850945
0.030686638
0.03156548
0.03116714
0.031275341
0.031200435
0.031047423
0.030537059
0.030346104
0.030270489
0.030160436
0.02937639
0.028751444
0.028742841
0.028278313
0.02760727
0.027301917
0.027130509
0.026880961
0.026440849
0.025919997
0.025589068
0.025350182
0.025159644
0.024894014
0.027297693
0.02792259
0.029689466
0.029469359
0.029037798
0.02988768
0.029632042
0.029324905
0.029137259
0.029540528
0.029327246
0.028462364
0.02847315
0.028326809
0.027663639
0.027279688
0.027150706
0.026923459
0.026650544
0.026220766
0.02574411
0.025417947
0.025240093
0.025070988
0.02480753
0.024630838
0.026090439
0.026835554
0.027235491
0.027947601
0.027694901
0.028006221
0.028200881
0.028596219
0.028246525
0.028395957
0.02825873
0.02804658
0.027986848
0.027635436
0.027218784
0.02710673
0.026938588
0.026688347
0.026393173
0.025948451
0.025501268
0.025270425
0.025140481
0.024960021
0.024700717
0.023179976
0.024165872
0.025661812
0.025805359
0.026010771
0.026887326
0.026702976
0.027168436
0.027403637
0.027502198
0.027458078
0.027400045
0.027598287
0.027381166
0.027020393
0.026898777
0.026859953
0.02670246
0.026463753
0.026068294
0.025597829
0.025279809
0.025157028
0.025025187
0.024818738
0.024578035
0.022048147
0.022780349
0.02409336
0.024903602
0.024917952
0.025807572
0.026054389
0.026257994
0.026488839
0.026625279
0.026715835
0.026870636
0.026910457
0.026701595
0.026511588
0.026500388
0.02650777
0.026410629
0.0261085
0.025698746
0.025304435
0.02509262
0.025010817
0.024868283
0.024667093
0.02445366
0.019607242
0.021004512
0.021870832
0.022930128
0.024046788
0.024369393
0.024779714
0.025062516
0.025263855
0.025770477
0.025903648
0.025922799
0.026198625
0.026195426
0.026134259
0.026060945
0.026119517
0.026067962
0.025941329
0.025746753
0.025428713
0.025032217
0.024861469
0.024851092
0.024697812
0.024515971
0.024313028
0.019119029
0.020330053
0.021380911
0.022102596
0.023229326
0.023581755
0.023884097
0.024702643
0.024523701
0.024918133
0.025337817
0.025396142
0.025387293
0.025558341
0.025490803
0.025601765
0.025701885
0.025584445
0.025488281
0.025417968
0.024988249
0.024819033
0.024757323
0.024675031
0.024506197
0.024373493
0.01811391
0.018999299
0.019999185
0.020947584
0.021660394
0.022481689
0.023189721
0.023405773
0.023982696
0.024032892
0.023913038
0.024234932
0.024850028
0.02470076
0.024848073
0.025005261
0.025114493
0.025123985
0.025158281
0.025094856
0.024934489
0.024639073
0.024731959
0.024570688
0.024435588
0.024352199
0.02421907
0.018298372
0.018967638
0.019787559
0.020529716
0.021236204
0.021773745
0.022421013
0.022898441
0.022954133
0.023416511
0.023976836
0.02374151
0.023870451
0.024201418
0.024213594
0.024563037
0.024683769
0.024670132
0.024765522
0.024694329
0.024495945
0.024482901
0.024480106
0.02435926
0.024259492
0.024195284
0.02392397
0.018298255
0.018846165
0.019484033
0.02015353
0.020764006
0.021355527
0.021800303
0.022340995
0.0226653
0.022932028
0.023510617
0.023294105
0.023213857
0.023691199
0.023944433
0.024111753
0.024352752
0.024315285
0.024328169
0.02437593
0.024303457
0.024222205
0.024160047
0.024202275
0.024064619
0.02386506
0.023631969
0.018686194
0.019104452
0.019546151
0.020029652
0.02044619
0.020938999
0.021298868
0.021672553
0.022141792
0.022343679
0.022798224
0.023334454
0.023308388
0.023432458
0.023872543
0.023879687
0.023934954
0.023977275
0.023893455
0.023995407
0.024057123
0.024032723
0.023960155
0.023882104
0.023745618
0.023578774
0.023518378
0.01886494
0.019239455
0.01956491
0.019942221
0.020294653
0.020700201
0.02116034
0.021524051
0.021977268
0.022341467
0.022588144
0.023115237
0.023304046
0.023149364
0.023368453
0.023555721
0.023474366
0.023590305
0.023539835
0.02359642
0.023751856
0.023755962
0.023660257
0.023585514
0.023489697
0.023454507
0.023458455
0.019307028
0.019654315
0.019983721
0.020329626
0.020662611
0.020984913
0.021346438
0.021632708
0.021880384
0.022179625
0.022367048
0.02259773
0.022885569
0.022919195
0.022941131
0.023067619
0.023096552
0.023193383
0.023347189
0.023413032
0.023450418
0.023462787
0.023353419
0.023313309
0.023326554
0.023334192
0.019836674
0.020080188
0.020310311
0.020556856
0.020789411
0.021036468
0.021273113
0.021491127
0.021675709
0.021853323
0.022047407
0.022188869
0.022364792
0.022523285
0.022683695
0.02286639
0.022960996
0.022977601
0.023128713
0.023190788
0.02308845
0.023157839
0.023204149
0.02315954
0.023189136
0.023218148
0.019884397
0.020072968
0.02025929
0.020472048
0.020690679
0.020917494
0.021174695
0.021380005
0.021572181
0.021743228
0.02190649
0.022063076
0.022202539
0.02237551
0.022479592
0.022601952
0.022738264
0.022836188
0.022769466
0.022855021
0.022913222
0.022939547
0.023052471
0.023089223
0.02307359
0.023123654
0.0201245
0.020266652
0.020417274
0.0205725
0.020754345
0.020942973
0.021161789
0.021360418
0.021510436
0.021640419
0.02174461
0.021861807
0.021958784
0.022091817
0.02228301
0.022428824
0.022454604
0.022603833
0.02269885
0.022651824
0.02280187
0.022889133
0.022949062
0.023003828
0.023003912
0.020281643
0.020388032
0.020504217
0.020635198
0.020786708
0.020939165
0.021097466
0.021261176
0.021410572
0.021545894
0.021637507
0.021748328
0.021897953
0.022006681
0.022140526
0.022372658
0.022533816
0.022590793
0.022735785
0.022762908
0.022777477
0.022839774
0.02276899
0.022798991
0.022906956
0.020581171
0.020657159
0.020747788
0.020853097
0.020973611
0.021111554
0.021265083
0.02144215
0.021601557
0.021741663
0.02185934
0.021928837
0.022044717
0.022209861
0.022295468
0.022405204
0.022511461
0.022566783
0.022635976
0.02274052
0.022683612
0.022718772
0.022816906
0.022831441
0.022850639
0.021105327
0.021174877
0.021235728
0.021290996
0.021366723
0.021459173
0.021556563
0.021683694
0.021808287
0.02191947
0.022035937
0.022118173
0.022171181
0.022292997
0.022396501
0.022436546
0.022537717
0.022558574
0.022614744
0.022713759
0.022662839
0.022637625
0.0227968
0.022910924
0.021524144
0.021579886
0.021623889
0.02165658
0.021685516
0.021733131
0.021788239
0.021860483
0.021952911
0.02203919
0.022121601
0.022213625
0.022288736
0.022365766
0.022438229
0.022476039
0.022561735
0.022534701
0.022523834
0.022634413
0.022745027
0.022730343
0.022746417
0.022777974
0.021550583
0.021606452
0.021662638
0.02171787
0.021774701
0.021828854
0.021882609
0.021936702
0.021986687
0.022051616
0.022123623
0.022188113
0.022255206
0.022334797
0.02242041
0.022369317
0.022414959
0.022531762
0.022512845
0.022512175
0.022589922
0.022650661
0.02263561
0.021529764
0.0215681
0.021613023
0.021661957
0.02170831
0.021751182
0.021796915
0.021850955
0.021899868
0.021942101
0.022003071
0.022075289
0.022122716
0.02213835
0.022238603
0.022318624
0.022242465
0.022332703
0.022438304
0.022447622
0.022457237
0.022472293
0.021689768
0.021723564
0.021764472
0.021806582
0.021853681
0.021902856
0.021938961
0.021965096
0.02199918
0.022041138
0.022077591
0.022144399
0.022242276
0.02228244
0.022280738
0.022345146
0.022412224
0.022396279
0.022449819
0.022515823
0.022556126
0.02259108
0.021833988
0.021852575
0.021874819
0.021900688
0.021925706
0.021952987
0.0219801
0.022012092
0.022052139
0.022093623
0.022132201
0.022171576
0.022216773
0.022258813
0.022272867
0.022298023
0.022349989
0.022363387
0.022396059
0.02245196
0.022492597
0.022194237
0.022211263
0.022225225
0.022233803
0.022245273
0.022251602
0.022254142
0.022260448
0.022257716
0.022256602
0.022271479
0.022278793
0.022282125
0.02229834
0.022312779
0.022333525
0.022380255
0.022423881
0.02242984
0.022455402
0.021991323
0.021989411
0.021992916
0.021995295
0.021996062
0.021993168
0.021985908
0.021982929
0.021982296
0.02198148
0.021993231
0.02201391
0.022030639
0.022053758
0.022079752
0.022100668
0.022125983
0.022156814
0.02218428
0.022161445
0.022156516
0.022154481
0.022150504
0.022139204
0.022131426
0.02212526
0.022118173
0.022113359
0.022113754
0.022116003
0.022118817
0.022126932
0.022158791
0.022196571
0.022212784
0.022231749
0.021958611
0.021953024
0.021952593
0.021958254
0.02196501
0.021971688
0.021979852
0.021990631
0.022000532
0.022010282
0.022025813
0.022044512
0.022057874
0.022072598
0.022103107
0.022135246
0.022285106
0.022294908
0.022301264
0.022306392
0.022311764
0.022317134
0.022322401
0.022329553
0.02233773
0.022342845
0.022350768
0.022363749
0.022380953
0.022398667
0.0222051
0.022203684
0.022206432
0.022208845
0.022210857
0.022218596
0.022228936
0.022240149
0.022248835
0.022254027
0.022261403
0.022271814
)
;

boundaryField
{
    Side
    {
        type            empty;
    }
    Inlet
    {
        type            calculated;
        value           nonuniform List<scalar> 
32
(
0.022420185
0.022403577
0.022385658
0.022367665
0.022350889
0.022336416
0.022324213
0.022313433
0.022304291
0.022298844
0.022297128
0.022296373
0.022296122
0.022300167
0.022301768
0.022300998
0.022302142
0.022315704
0.022327094
0.0223389
0.022434071
0.022442595
0.022445951
0.022446685
0.022446447
0.022443842
0.022437033
0.022425004
0.022406504
0.022383108
0.022358609
0.022337913
)
;
    }
    Airfoil
    {
        type            calculated;
        value           nonuniform List<scalar> 0();
    }
    Outlet
    {
        type            calculated;
        value           nonuniform List<scalar> 0();
    }
    procBoundary9to2
    {
        type            processor;
        value           nonuniform List<scalar> 
23
(
0.025153689
0.025522045
0.025828315
0.02617016
0.026603887
0.027233562
0.027935102
0.028521747
0.029113315
0.029900951
0.030930163
0.032310832
0.033753439
0.03501601
0.03651429
0.038593727
0.041432419
0.044522949
0.048319807
0.051996115
0.056435431
0.05989111
0.062365034
)
;
    }
    procBoundary9to8
    {
        type            processor;
        value           nonuniform List<scalar> 
75
(
0.017131051
0.017131051
0.016539251
0.016925963
0.016925963
0.01702948
0.01702948
0.017020527
0.017020527
0.017499998
0.01849356
0.01849356
0.018648096
0.018648096
0.018928251
0.018928251
0.019227421
0.019227421
0.01909317
0.019603748
0.019603748
0.020238187
0.020238187
0.020747953
0.020747953
0.020860393
0.020860393
0.02094397
0.02094397
0.021270894
0.021270894
0.021737728
0.021737728
0.022043651
0.022043651
0.021988175
0.021988175
0.022038422
0.022038422
0.022064286
0.022064286
0.022260322
0.022397784
0.067257755
0.065586283
0.064592723
0.062389654
0.060795521
0.060488325
0.059858528
0.059151106
0.059151106
0.063253757
0.060470862
0.057253023
0.054132301
0.050222712
0.046747496
0.046747496
0.043971643
0.041784301
0.038878076
0.035977777
0.035977777
0.030460766
0.028851391
0.026888777
0.026888777
0.023656933
0.022268144
0.020546789
0.020546789
0.018460829
0.018127609
0.018127609
)
;
    }
    procBoundary9to10
    {
        type            processor;
        value           nonuniform List<scalar> 
66
(
0.024806117
0.024801429
0.024797637
0.024790775
0.02478371
0.02477444
0.024762977
0.024748477
0.024730826
0.024711859
0.024691362
0.024987727
0.024987727
0.024956025
0.024921291
0.02488329
0.024840499
0.024790615
0.024731766
0.024664839
0.024590451
0.024508308
0.024419405
0.024325943
0.024226376
0.024109692
0.0241497
0.0241497
0.023964259
0.023745229
0.023595596
0.023522406
0.023419178
0.023334528
0.023334528
0.023207381
0.02313315
0.022993389
0.022993389
0.022968737
0.022933653
0.022900002
0.022900002
0.022753225
0.022628627
0.022628627
0.022491438
0.022491438
0.022598919
0.022524205
0.022524205
0.022509585
0.022509585
0.022211853
0.022261076
0.022211853
0.022284941
0.022261076
0.022158097
0.022414129
0.022158097
0.022429025
0.022282478
0.022414129
0.022291143
0.022282478
)
;
    }
}


// ************************************************************************* //
