/*--------------------------------*- C++ -*----------------------------------*\
| =========                 |                                                 |
| \\      /  F ield         | OpenFOAM: The Open Source CFD Toolbox           |
|  \\    /   O peration     | Version:  2506                                  |
|   \\  /    A nd           | Website:  www.openfoam.com                      |
|    \\/     M anipulation  |                                                 |
\*---------------------------------------------------------------------------*/
FoamFile
{
    version     2.0;
    format      ascii;
    arch        "LSB;label=32;scalar=64";
    class       volVectorField;
    location    "7e-05";
    object      wallShearStress;
}
// * * * * * * * * * * * * * * * * * * * * * * * * * * * * * * * * * * * * * //

dimensions      [1 -1 -2 0 0 0 0];

internalField   uniform (0 0 0);

boundaryField
{
    Side
    {
        type            empty;
    }
    Inlet
    {
        type            calculated;
        value           uniform (0 0 0);
    }
    Airfoil
    {
        type            calculated;
        value           nonuniform List<vector> 
117
(
(-471.09359 71.922104 -2.1067477e-18)
(-476.27389 78.660178 -2.1419402e-18)
(-493.08356 97.882989 2.2040481e-18)
(-492.45347 96.342139 2.7636028e-18)
(-353.5742 -430.11397 4.5521167e-23)
(-349.41254 -363.84631 2.9622953e-18)
(-319.90411 -275.16068 3.9142123e-23)
(-290.2602 -236.94042 2.4933246e-18)
(-209.6281 -78.981412 -2.5515069e-23)
(6.7117115 22.427063 -1.3055448e-18)
(5.493871 24.039598 0)
(6.5634602 26.106741 1.3516412e-18)
(6.4816671 26.80495 -1.2062472e-18)
(5.9927866 27.337936 -6.2140706e-20)
(5.6924527 27.428147 -1.8532028e-23)
(6.5971105 30.633424 -2.3333126e-18)
(7.2878232 32.082993 1.7779444e-23)
(7.2062222 33.474412 -2.0005989e-18)
(6.4867583 33.795077 -4.7019774e-38)
(6.1735644 32.344435 0)
(6.782721 33.236294 -1.8957345e-18)
(6.6503892 34.456982 2.0118886e-18)
(4.5529766 34.871 2.0507299e-18)
(0.20825392 19.065012 2.0072942e-18)
(-17.551291 -0.046863095 3.5194174e-23)
(-0.92527582 4.2786157 2.2969813e-18)
(2.5792876 13.465625 2.3545397e-18)
(2.7775353 12.336396 4.9356106e-18)
(3.0098229 16.184887 2.4326179e-18)
(2.4459953 14.802879 1.8863804e-23)
(2.7036771 16.497893 -4.9783182e-18)
(2.2539676 14.655661 3.7610249e-23)
(1.6973554 13.29983 -1.8802645e-23)
(1.9283025 13.330907 9.4989064e-35)
(2.5104375 13.83738 4.7019774e-38)
(2.9144425 17.572411 -2.4616985e-18)
(2.8276625 16.88159 2.4684037e-18)
(3.3898958 17.979622 -4.7019774e-38)
(1.9050895 9.9712615 1.4906997e-34)
(0.76447938 7.0605243 1.7742374e-40)
(2.0487402 14.696504 0)
(1.6933495 12.903075 -2.3185456e-18)
(2.7915203 18.526897 1.8341221e-23)
(0.71707238 4.082112 2.1665311e-18)
(-9.255877 -3.7741822 0)
(-0.60450504 9.1662304 1.9689659e-18)
(0.84824583 10.160793 2.9387359e-39)
(1.2501679 8.6675256 1.8177084e-18)
(2.0169847 13.569557 1.7569154e-18)
(-99.105855 -31.730219 -2.0039303e-18)
(-40.391567 -6.7193543 -1.9056289e-18)
(-69.192536 -14.232594 -1.5050007e-23)
(-129.21577 -34.118709 -2.0798824e-18)
(-107.9563 -24.941376 -1.9145964e-18)
(-200.90735 -69.059033 2.2523197e-18)
(-89.622692 -19.902115 4.7019774e-38)
(-106.34658 -34.900444 -2.0571128e-18)
(0.2137217 5.7203833 3.9267017e-18)
(1.7251784 14.546136 1.5094268e-23)
(1.6759439 14.758967 -1.4970306e-23)
(1.5617016 14.840325 3.9406026e-20)
(1.2568086 13.408145 7.5807932e-27)
(1.0914949 12.801543 -1.8522931e-18)
(1.1413302 13.022749 1.8615614e-18)
(0.78618657 9.1477276 1.8359874e-18)
(0.98388726 10.495082 2.6607385e-20)
(1.0533432 11.818092 -1.7833489e-18)
(0.59398937 8.8211746 3.566292e-18)
(0.71841477 7.7426562 -1.3579242e-23)
(0.99454169 12.995325 -3.5420573e-18)
(-0.38474862 4.6186035 1.712924e-18)
(-0.64033962 4.2280561 1.1754944e-38)
(-0.20322338 5.8690925 3.3145114e-18)
(1.2934199 10.273973 -1.744001e-18)
(1.2262131 9.9080064 6.5968743e-35)
(1.3928943 15.592667 -1.3681261e-23)
(1.689888 15.811067 1.7118225e-18)
(1.6705336 18.765657 -1.7246268e-18)
(1.2423691 17.505429 -3.3603555e-18)
(1.3188913 17.747335 2.3509887e-38)
(1.4925708 17.404252 0)
(1.4557333 19.420869 -1.6729614e-18)
(0.81426618 17.317431 -2.5553355e-23)
(1.2588756 17.231079 1.3009899e-23)
(1.3872218 17.568098 1.2782683e-23)
(0.75600629 17.175147 -1.2513838e-23)
(0.62371351 13.578399 -1.5847012e-18)
(1.1183076 16.587485 1.5470183e-18)
(1.2593872 16.365936 1.1754944e-38)
(1.3852087 15.851399 3.1312164e-18)
(0.66185878 18.096217 -1.5432253e-18)
(-0.010336778 14.575143 -1.5376684e-18)
(0.42881527 11.181321 -1.2197998e-23)
(1.1383333 14.195791 3.4782878e-35)
(0.95385441 15.693579 -1.5597654e-18)
(0.40215444 13.715238 1.5430976e-18)
(0.49099007 14.032696 -1.2082904e-23)
(0.5206454 14.062073 1.527817e-18)
(0.49837843 12.001708 -1.19481e-23)
(0.652253 14.63107 1.161281e-23)
(0.47403259 14.475885 -1.1610585e-23)
(0.64201443 13.950169 -1.4960434e-18)
(0.63349802 16.293922 -1.4269401e-18)
(0.38835064 13.899381 -1.4559608e-18)
(0.51150129 14.526038 -7.2184517e-19)
(0.50908103 14.441107 1.1225558e-23)
(0.28292902 13.029338 -1.0776008e-23)
(-0.062094312 10.735645 6.8004081e-19)
(0.099701394 11.650879 6.7266955e-19)
(0.26038873 11.303811 6.8247159e-19)
(0.30710182 10.768609 6.7560818e-19)
(-0.10825884 8.1759552 6.5662077e-19)
(-0.28534967 6.7852344 -6.6151424e-19)
(-0.16149202 5.9213423 1.2949704e-18)
(-0.62212935 5.5959197 -9.9999887e-24)
(-87.227356 -15.375999 -1.3437268e-18)
(1.1861075 10.392223 -1.0330534e-23)
)
;
    }
    Outlet
    {
        type            calculated;
        value           nonuniform List<vector> 0();
    }
    procBoundary2to1
    {
        type            processor;
        value           uniform (0 0 0);
    }
    procBoundary2to3
    {
        type            processor;
        value           uniform (0 0 0);
    }
    procBoundary2to8
    {
        type            processor;
        value           uniform (0 0 0);
    }
    procBoundary2to9
    {
        type            processor;
        value           uniform (0 0 0);
    }
}


// ************************************************************************* //
