/*--------------------------------*- C++ -*----------------------------------*\
| =========                 |                                                 |
| \\      /  F ield         | OpenFOAM: The Open Source CFD Toolbox           |
|  \\    /   O peration     | Version:  2506                                  |
|   \\  /    A nd           | Website:  www.openfoam.com                      |
|    \\/     M anipulation  |                                                 |
\*---------------------------------------------------------------------------*/
FoamFile
{
    version     2.0;
    format      ascii;
    arch        "LSB;label=32;scalar=64";
    class       surfaceScalarField;
    location    "0.032";
    object      phi;
}
// * * * * * * * * * * * * * * * * * * * * * * * * * * * * * * * * * * * * * //

dimensions      [1 0 -1 0 0 0 0];

oriented        oriented;

internalField   nonuniform List<scalar> 
38210
(
5.6792527
-51.550646
51.997433
5.2755415
-47.746519
48.134267
4.8481059
-44.320634
44.725737
4.5079988
-41.009535
41.34409
4.2083017
-38.003262
38.336857
3.9561028
-35.184795
35.482221
3.677553
-32.600226
32.88683
3.3982085
-30.19681
30.455304
3.1509096
-27.956185
28.190784
2.9322443
-25.879209
26.098487
2.7264983
-23.968086
24.174663
2.5349658
-22.20073
22.391485
2.357707
-20.563107
20.739377
2.1935392
-19.046378
19.209832
2.0412589
-17.642305
17.79394
1.899915
-16.342534
16.483159
1.7687193
-15.139104
15.269538
1.6469443
-14.024779
14.1458
1.5338871
-12.992972
13.10529
1.4288839
-12.037583
12.14186
1.3313205
-11.152957
11.249814
1.2406266
-10.333857
10.423872
1.1562686
-9.5754222
9.6591399
1.0777476
-8.8731466
8.9510714
1.0045968
-8.2228512
8.2954521
0.93638003
-7.6206638
7.6883762
0.87269039
-7.0629995
7.1262291
0.8131479
-6.5465385
6.605664
0.75739646
-6.0682072
6.123583
0.70510096
-5.6251609
5.6771199
0.65594347
-5.2147701
5.2636274
0.60962388
-4.8345941
4.8806464
0.56585017
-4.4824052
4.5259417
0.52435141
-4.1560853
4.1973737
0.48486917
-3.8536075
3.8929033
0.44710855
-3.5734699
3.6110657
0.410779
-3.3141002
3.3502841
0.37558418
-3.0739964
3.1090626
0.34121485
-2.8518402
2.8860959
0.30735706
-2.6464878
2.6802452
0.27351461
-2.4570197
2.4907735
0.24000857
-2.2823843
2.3158119
0.20378363
-2.1233534
2.159509
0.17206379
-1.9744871
2.0061456
0.12928607
-1.8521717
1.8948952
0.10169229
-1.7178333
1.7453789
0.057833947
-1.6486374
1.6924533
0.022071917
-1.5264378
1.5621619
-1.5031896
1.5252281
6.9717154
-50.995235
6.4617604
-47.253555
5.9456868
-43.831911
5.5081515
-40.581556
5.1338548
-37.59328
4.8127273
-34.811863
4.4744383
-32.248512
4.1314933
-29.874661
3.8215648
-27.660941
3.5472064
-25.605458
3.2915393
-23.712673
3.0536559
-21.963867
2.8332712
-20.343719
2.6291462
-18.843055
2.4398715
-17.453839
2.2642929
-16.167798
2.1014186
-14.977053
1.9503195
-13.87447
1.8101093
-12.853535
1.6799661
-11.908201
1.5591343
-11.032864
1.4469115
-10.222336
1.3426408
-9.4718089
1.2457096
-8.7768239
1.1555474
-8.1332476
1.0716231
-7.5372498
0.99344349
-6.9852836
0.92054983
-6.4740635
0.85251453
-6.0005472
0.78893763
-5.5619185
0.72944298
-5.1555724
0.67367752
-4.7790914
0.62130373
-4.4302632
0.57200669
-4.1069924
0.52548878
-3.8072691
0.48143046
-3.5295692
0.43951395
-3.2723217
0.39942028
-3.0340237
0.36081963
-2.8133454
0.32335834
-2.6091191
0.28662328
-2.4203657
0.25031957
-2.2461514
0.21328385
-2.0863797
0.17752495
-1.9387825
0.13605643
-1.8107507
0.10079941
-1.682618
0.057259994
-1.6051344
0.014579152
-1.483789
-1.4886385
8.5248474
-50.311437
7.8901913
-46.636571
7.2674485
-43.241615
6.7165455
-40.047104
6.2502052
-37.090762
5.8471999
-34.349971
5.4365015
-31.818402
5.0203174
-29.476872
4.6381195
-27.295112
4.2968041
-25.268003
3.9816761
-23.398901
3.688971
-21.672014
3.4174644
-20.073132
3.1659173
-18.592521
2.9327801
-17.221736
2.7166312
-15.952619
2.5162097
-14.777516
2.3303447
-13.689441
2.1579396
-12.681951
1.9979872
-11.749056
1.8495617
-10.885216
1.711802
-10.085308
1.5839032
-9.3445896
1.4651164
-8.658663
1.3547465
-8.0234507
1.2521481
-7.4351735
1.156723
-6.8903316
1.0679167
-6.385683
0.98521382
-5.9182245
0.90813429
-5.4851765
0.83622941
-5.0839658
0.76908027
-4.7122049
0.70629067
-4.3677041
0.64749272
-4.0483963
0.59234308
-3.7522959
0.54048506
-3.4778648
0.49156607
-3.2235363
0.44524035
-2.9878139
0.40115673
-2.7693625
0.3589437
-2.5669933
0.31819034
-2.3796878
0.27846762
-2.206494
0.23907695
-2.0470455
0.20015839
-1.8999128
0.15853317
-1.7691678
0.118875
-1.6429964
0.073088177
-1.5593792
0.030018791
-1.4407469
-1.4586431
10.373327
-49.474607
9.5938001
-45.875079
8.8419461
-42.527081
8.1572591
-39.388334
7.5769819
-36.476368
7.0763955
-33.782726
6.5789095
-31.292866
6.0770011
-28.989804
5.6095942
-26.846146
5.1880673
-24.854716
4.8016221
-23.014356
4.4433448
-21.314409
4.1108789
-19.741836
3.8028172
-18.285846
3.5174124
-16.937593
3.2529079
-15.689192
3.0077194
-14.533282
2.7803983
-13.463025
2.5696036
-12.472045
2.3741051
-11.554422
2.1927699
-10.704702
2.0245445
-9.9178477
1.8684469
-9.1891984
1.7235649
-8.5144295
1.5890529
-7.8895315
1.4641279
-7.3107876
1.3480645
-6.7747559
1.2401914
-6.2782476
1.1398859
-5.8183087
1.0465698
-5.3922052
0.95970463
-4.9974043
0.87878972
-4.6315565
0.80335499
-4.2925022
0.73296452
-3.9782088
0.66721671
-3.6867244
0.60570437
-3.416505
0.54802974
-3.1659934
0.49381067
-2.9337083
0.44266707
-2.7183165
0.39420612
-2.5186161
0.34800292
-2.3335564
0.30359879
-2.1621513
0.26038965
-2.0038889
0.21800132
-1.8575693
0.17458413
-1.7257889
0.13240315
-1.600848
0.084116931
-1.5111207
0.037333812
-1.3939873
-1.4213292
12.553604
-48.458024
11.605786
-44.94442
10.700012
-41.66212
9.8603553
-38.586209
9.1419318
-35.730236
8.5256159
-33.091914
7.9259079
-30.653658
7.324145
-28.397725
6.7573848
-26.299718
6.241914
-24.350401
5.7711014
-22.546271
5.3352605
-20.879986
4.9310783
-19.339397
4.556586
-17.913015
4.2096779
-16.592073
3.88824
-15.368931
3.5903399
-14.236447
3.3142131
-13.187907
3.058229
-12.217029
2.8208879
-11.318004
2.6008081
-10.485487
2.3967089
-9.7145499
2.2073993
-9.0006259
2.0317746
-8.3394802
1.8688112
-7.7271849
1.7175621
-7.1600991
1.5771506
-6.6348506
1.4467658
-6.1483161
1.3256567
-5.6976024
1.2131269
-5.280031
1.1085298
-4.8931196
1.0112657
-4.5345656
0.9207742
-4.2022487
0.83653672
-3.8941779
0.75807965
-3.6084459
0.68493053
-3.3435097
0.61663395
-3.0978288
0.55276002
-2.8699474
0.49288953
-2.6585424
0.43659951
-2.4624082
0.38344426
-2.2804708
0.3329517
-2.1117177
0.28453835
-1.9555254
0.23767758
-1.8107505
0.19101821
-1.6791648
0.14519862
-1.555058
0.094515958
-1.4604628
0.044728511
-1.3442204
-1.3766177
15.097389
-47.231951
13.955605
-43.818479
12.870481
-40.619797
11.852199
-37.6173
10.968885
-34.830115
10.215321
-32.257685
9.4968518
-29.882021
8.7799944
-27.683148
8.0987371
-25.639668
7.474792
-23.740448
6.9047651
-21.981395
6.3781175
-20.356314
5.8904739
-18.853822
5.4386845
-17.462902
5.0201219
-16.175003
4.6323344
-14.982502
4.2730219
-13.878376
3.9400469
-12.856066
3.6314302
-11.90946
3.3453518
-11.032901
3.0801387
-10.221183
2.8342447
-9.4694962
2.6062365
-8.7733904
2.3947846
-8.1287357
2.1986573
-7.5317027
2.0167145
-6.9787417
1.8479018
-6.4665655
1.6912441
-5.9921302
1.5458392
-5.552616
1.4108511
-5.1454117
1.285505
-4.768097
1.1690834
-4.4184264
1.0609182
-4.094329
0.96039182
-3.793864
0.86694344
-3.5151806
0.78001948
-3.2567427
0.69909362
-3.017037
0.62367555
-2.7946433
0.55329466
-2.5882582
0.48748623
-2.3966814
0.42577458
-2.2188279
0.36766979
-2.0536706
0.31259144
-1.9004952
0.259976
-1.7581752
0.20867625
-1.6278983
0.15858587
-1.5049949
0.10527667
-1.407176
0.052222025
-1.2911838
-1.3244103
18.029928
-45.765569
16.665159
-42.468212
15.373985
-39.372262
14.153077
-36.456482
13.077013
-33.752551
12.161084
-31.259092
11.305736
-28.957939
10.45823
-26.82753
9.646564
-24.849139
8.8985317
-23.009563
8.2135072
-21.304949
7.5824171
-19.729146
6.9986678
-18.272155
6.4578567
-16.923906
5.9567878
-15.675739
5.4926347
-14.519996
5.062652
-13.449828
4.6642575
-12.45892
4.2950691
-11.541387
3.9528993
-10.691757
3.6357398
-9.9049777
3.3417398
-9.1763817
3.0691862
-8.5016513
2.8164902
-7.8767839
2.5821794
-7.2980685
2.3648904
-6.7620651
2.1633626
-6.2655888
1.9764309
-5.8056904
1.8030171
-5.3796383
1.6421235
-4.9849022
1.492826
-4.6191359
1.3542694
-4.2801634
1.2256595
-3.9659738
1.1062628
-3.6746873
0.99541509
-3.404522
0.89246482
-3.1539541
0.79680133
-2.921511
0.70786036
-2.7058187
0.6251064
-2.5056023
0.54802015
-2.3196775
0.47608462
-2.1469612
0.40878181
-1.986425
0.34552486
-1.8372855
0.28574113
-1.6984303
0.22839092
-1.5705798
0.17308246
-1.4497121
0.11615762
-1.3502718
0.059496424
-1.2345389
-1.2649266
21.364165
-44.028293
19.746471
-40.864067
18.221412
-37.889949
16.773478
-35.077309
15.476778
-32.47381
14.370871
-30.074429
13.358965
-27.861223
12.364872
-25.812261
11.407045
-23.910511
10.519138
-22.141297
9.7035286
-20.501359
8.9535327
-18.984464
8.2603791
-17.581844
7.6183907
-16.284378
7.0237027
-15.083283
6.4729117
-13.971091
5.962718
-12.941209
5.4900527
-11.987602
5.0520956
-11.104623
4.6462476
-10.287
4.2701178
-9.5298614
3.9215065
-8.8287101
3.5983819
-8.1793891
3.2988599
-7.5780464
3.0211937
-7.0211123
2.7637655
-6.5052773
2.5250798
-6.027478
2.3037542
-5.5848778
2.0985104
-5.1748489
1.9081652
-4.7949573
1.7316239
-4.4429453
1.5678735
-4.1167188
1.4159747
-3.8143402
1.2750607
-3.5340022
1.1443475
-3.274005
1.023068
-3.032842
0.91051459
-2.8090995
0.80603476
-2.6014587
0.70901387
-2.4086819
0.61886488
-2.2296124
0.53501702
-2.063183
0.45691206
-1.9083775
0.383946
-1.7643666
0.31553826
-1.6300608
0.25072071
-1.5057932
0.18901615
-1.3880321
0.12724027
-1.2885153
0.066482327
-1.1737959
-1.1984555
25.094735
-41.989817
23.195436
-38.978281
21.408046
-36.143337
19.710011
-33.45359
18.16648
-30.970953
16.842208
-28.682589
15.652103
-26.572109
14.495854
-24.618569
13.377341
-22.806147
12.334107
-21.119726
11.372729
-19.555887
10.489337
-18.108615
9.673646
-16.77019
8.9185555
-15.532286
8.2193413
-14.386453
7.5717621
-13.32549
6.971907
-12.343068
6.4162178
-11.433412
5.9014018
-10.591123
5.4243937
-9.8111739
4.9823681
-9.08892
4.5727319
-8.4200724
4.1930953
-7.8006641
3.8412438
-7.2270197
3.5151229
-6.6957342
3.2128307
-6.2036525
2.932608
-5.7478534
2.6728291
-5.3256323
2.4319906
-4.9344835
2.2087017
-4.5720855
2.0016755
-4.2362849
1.8097217
-3.925084
1.6317375
-3.6366326
1.4667057
-3.369209
1.3137044
-3.1212079
1.1718367
-2.8911485
1.0402853
-2.6776954
0.91829461
-2.4795918
0.80515684
-2.2956478
0.70020448
-2.1247462
0.60280033
-1.96585
0.5123335
-1.817969
0.42817078
-1.6802513
0.34971526
-1.5516435
0.27605219
-1.4321605
0.20669632
-1.3187001
0.13875287
-1.2205903
0.073188937
-1.1082457
-1.1252766
29.193688
-39.622475
26.985713
-36.785091
24.907708
-34.104364
22.940002
-31.563279
21.127757
-29.222585
19.558355
-27.063917
18.166942
-25.072097
16.833461
-23.229013
15.542034
-21.519741
14.329385
-19.930136
13.208512
-18.454769
12.178359
-17.088663
11.227814
-15.82511
10.348585
-14.656566
9.5346648
-13.575106
8.780818
-12.573853
8.0825215
-11.646765
7.435703
-10.788322
6.8365362
-9.993423
6.2814331
-9.2573471
5.7670894
-8.5757269
5.2904806
-7.9445151
4.848823
-7.3599622
4.4395383
-6.8185963
4.0602349
-6.3172035
3.7086978
-5.8528078
3.3828787
-5.4226538
3.0808837
-5.0241902
2.8009621
-4.6550529
2.5414939
-4.3130511
2.3009808
-3.9961526
2.0780366
-3.7024723
1.8713788
-3.4302632
1.6798237
-3.1779024
1.502291
-2.9438882
1.3377478
-2.7267865
1.1852519
-2.5253527
1.0439303
-2.3383987
0.91296951
-2.1647942
0.79160989
-2.0034753
0.67913601
-1.8534492
0.5748724
-1.713765
0.47814423
-1.5835713
0.38832715
-1.4618649
0.30454495
-1.3484087
0.22632944
-1.2405081
0.15106585
-1.1453445
0.079774827
-1.0369676
-1.0455109
33.604257
-36.902791
31.061735
-34.257905
28.670895
-31.751912
26.418684
-29.388851
24.321629
-27.210065
22.483891
-25.200651
20.868512
-23.345567
19.343957
-21.62897
17.870315
-20.037881
16.476803
-18.559822
15.185527
-17.186101
13.997297
-15.913677
12.901404
-14.736613
11.888632
-13.648045
10.951301
-12.64074
10.083159
-11.708277
9.2790446
-10.84492
8.5342826
-10.04546
7.8444435
-9.3051522
7.2053819
-8.6196306
6.6132897
-7.9848397
6.0646824
-7.3970051
5.5563511
-6.8526253
5.0853239
-6.3484626
4.6488457
-5.8815247
4.244365
-5.4490418
3.8695221
-5.0484499
3.5221347
-4.6773737
3.200185
-4.3336112
2.9018065
-4.0151222
2.6252724
-3.720014
2.3689857
-3.4465314
2.13147
-3.1930476
1.9113608
-2.958052
1.7074027
-2.7401517
1.5184234
-2.5379958
1.3433408
-2.3504292
1.1811517
-2.1763431
1.0309274
-2.0146809
0.8918059
-1.8644456
0.76298311
-1.7247017
0.6437085
-1.5945515
0.53325403
-1.473166
0.43095659
-1.3596065
0.33596409
-1.2534467
0.24783178
-1.152399
0.16419384
-1.0617239
0.086279491
-0.95906553
-0.95923965
38.23135
-33.808211
35.336555
-31.377748
32.624069
-29.076076
30.074742
-26.915156
27.683702
-24.919912
25.561376
-23.080043
23.703143
-21.381022
21.976105
-19.808032
20.31395
-18.35127
18.7326
-16.999344
17.263851
-15.741391
15.909295
-14.575926
14.66058
-13.497482
13.507449
-12.500017
12.440463
-11.577149
11.452334
-10.722999
10.537181
-9.9321896
9.6896316
-9.1998943
8.9046098
-8.5217753
8.1774057
-7.89385
7.5036979
-7.3124053
6.8795188
-6.773976
6.3012078
-6.2753482
5.7653759
-5.8135554
5.2688854
-5.3858588
4.8088323
-4.9897243
4.3825297
-4.6228046
3.9874922
-4.2829236
3.6214212
-3.9680639
3.2821906
-3.6763559
2.9678335
-3.4060659
2.6765308
-3.1555868
2.4066009
-2.923429
2.1564898
-2.7082094
1.9247613
-2.5086533
1.7100904
-2.3235207
1.5112462
-2.1517502
1.3270893
-1.9923247
1.156568
-1.8442746
0.99870998
-1.7066826
0.85261436
-1.5786837
0.71744717
-1.4594473
0.59241734
-1.3481866
0.47681301
-1.244042
0.36979238
-1.1464569
0.2709238
-1.0535538
0.17808178
-0.96889902
0.092845902
-0.87384153
-0.86640142
42.954267
-30.327875
39.700468
-28.138223
36.660766
-26.071272
33.808586
-24.134635
31.122976
-22.345879
28.709006
-20.69714
26.596952
-19.172952
24.660274
-17.761662
22.806557
-16.455767
21.036506
-15.24447
19.387865
-14.117046
17.863366
-13.071901
16.45853
-12.104436
15.161869
-11.209509
13.96237
-10.381634
12.85175
-9.6155396
11.823277
-8.9062959
10.870801
-8.2495288
9.9885997
-7.6413556
9.1714091
-7.0782088
8.4143904
-6.5567522
7.7130767
-6.0738715
7.0633387
-5.6266835
6.4613597
-5.2125308
5.9036123
-4.8289603
5.3868332
-4.4737012
4.908002
-4.144648
4.4643235
-3.839848
4.053212
-3.55749
3.6722753
-3.2958966
3.3193011
-3.0535129
2.9922432
-2.828898
2.6892098
-2.6207169
2.4084527
-2.4277297
2.1483547
-2.2487932
1.9074278
-2.0827964
1.6842901
-1.9287836
1.4776629
-1.7858408
1.286367
-1.6530977
1.1093156
-1.5297293
0.94550584
-1.4149541
0.7940151
-1.3080213
0.65398223
-1.2082054
0.52463881
-1.1147392
0.40514132
-1.0269907
0.29505975
-0.94349575
0.1924808
-0.86633712
0.099459621
-0.78083192
-0.766949
47.619036
-26.465751
44.011737
-24.543853
40.646712
-22.739188
37.496317
-21.051223
34.525401
-19.491375
31.824232
-18.054609
29.45698
-16.724226
27.308382
-15.492936
25.265434
-14.353892
23.312755
-13.29765
21.487156
-12.315261
19.795138
-11.403437
18.236044
-10.559278
16.797321
-9.7782437
15.466784
-9.0558009
14.235189
-8.3873845
13.094821
-7.7686126
12.038706
-7.1956419
11.060513
-6.6650827
10.15445
-6.1738097
9.3151641
-5.718901
8.5376824
-5.297638
7.8174089
-4.9075109
7.1501058
-4.5462071
6.5318629
-4.21159
5.9590633
-3.9016785
5.4283573
-3.6146342
4.9366431
-3.348751
4.4810504
-3.102447
4.058924
-2.8742582
3.6678083
-2.6628281
3.3054325
-2.4669005
2.969697
-2.2853112
2.6586614
-2.1169794
2.3705305
-1.9609074
2.1036534
-1.8161281
1.856498
-1.6818047
1.6276476
-1.5571382
1.4157961
-1.4413691
1.219742
-1.3337763
1.0383797
-1.2336743
0.87069623
-1.1404044
0.71575697
-1.0533192
0.57273202
-0.97175575
0.44076761
-0.89505821
0.31941441
-0.8221663
0.20695452
-0.75389429
0.10598113
-0.6798699
-0.6609747
52.043892
-22.240502
48.101604
-20.612733
44.42753
-19.096414
40.994272
-17.679957
37.756373
-16.370466
34.785959
-15.165204
32.173768
-14.047398
29.818369
-13.013303
27.595389
-12.056092
25.47255
-11.168888
23.479624
-10.344873
21.629346
-9.5788423
19.92387
-8.8697346
18.350074
-8.2133628
16.895079
-7.6062685
15.548712
-7.04468
14.302182
-6.5248437
13.147724
-6.0435191
12.078454
-5.5978465
11.088089
-5.1851768
10.170769
-4.8030432
9.3210343
-4.4491643
8.5338452
-4.1214403
7.8045688
-3.8179346
7.1289342
-3.5368547
6.5029902
-3.2765352
5.9230743
-3.0354289
5.3857929
-2.8120999
4.8880045
-2.605218
4.4268035
-2.413553
3.9995031
-2.2359658
3.6036191
-2.0714016
3.2368549
-1.9188832
2.8970872
-1.7775034
2.5823526
-1.6464237
2.2908443
-1.524834
2.0208874
-1.412029
1.7709334
-1.3073361
1.5395556
-1.2101175
1.3254423
-1.1197669
1.1273892
-1.0357059
0.94429538
-0.9573789
0.77515372
-0.88423176
0.61907156
-0.81571599
0.47517958
-0.75119866
0.34298586
-0.68999663
0.22099155
-0.63191709
0.11213922
-0.57102881
-0.54884203
56.03187
-17.686243
51.788762
-16.379454
47.835192
-15.173299
44.147311
-14.049517
40.671432
-13.009458
37.461494
-12.053046
34.626481
-11.164738
32.080166
-10.343007
29.694179
-9.5813589
27.419432
-8.8762184
25.27624
-8.2221301
23.284211
-7.6133852
21.446767
-7.0498588
19.750917
-6.527888
18.183577
-6.0451368
16.733713
-5.5986567
15.391441
-5.1854062
14.148283
-4.8028132
12.996891
-4.4485857
11.93053
-4.1205881
10.942865
-3.8168481
10.027989
-3.5355579
9.1804655
-3.2750584
8.3953091
-3.0338165
7.6679273
-2.8104077
6.994068
-2.6035057
6.3697863
-2.4118774
5.7914241
-2.2343798
5.2555946
-2.0699547
4.7591655
-1.9176242
4.2992413
-1.7764835
3.8731451
-1.6456946
3.4784022
-1.5244813
3.1127251
-1.4121227
2.7739983
-1.3079525
2.4602743
-1.2113286
2.1697488
-1.1216886
1.9007545
-1.0384971
1.6517553
-0.96124746
1.4213396
-0.88945752
1.2082129
-0.82266585
1.0111942
-0.76043001
0.82920902
-0.70230193
0.66130459
-0.64785476
0.50659505
-0.59652207
0.36452297
-0.54794888
0.23385084
-0.50126216
0.11731893
-0.45450808
-0.43152944
59.384617
-12.850772
54.890714
-11.894751
50.702137
-11.015054
46.800463
-10.201727
43.125988
-9.4467014
39.716372
-8.7533727
36.69293
-8.1084986
33.98329
-7.5117058
31.459243
-6.9576805
29.057042
-6.4456478
26.788196
-5.9711171
24.677783
-5.5292726
22.729282
-5.1201096
20.93046
-4.7407813
19.268463
-4.389997
17.731483
-4.0656336
16.308599
-3.765434
14.990756
-3.4875382
13.770237
-3.2302677
12.639923
-2.9920493
11.593066
-2.7714405
10.623372
-2.5671312
9.7250688
-2.3779233
8.8928796
-2.2027072
8.1219439
-2.0404482
7.4077581
-1.8901806
6.7461391
-1.7510073
6.1332053
-1.6220971
5.5653625
-1.5026815
5.039287
-1.3920504
4.5519069
-1.2895468
4.1003834
-1.1945624
3.6820919
-1.1065335
3.2946067
-1.024937
2.9356845
-0.94928933
2.603259
-0.87912512
2.295417
-0.81403488
2.0103909
-0.75362919
1.7465526
-0.69754063
1.5024059
-0.64541911
1.2765802
-0.59692846
1.0678264
-0.55174723
0.87501295
-0.50954477
0.697134
-0.47001969
0.53329136
-0.43271282
0.38284145
-0.39752356
0.24483459
-0.36327258
0.12136898
-0.33105362
-0.31016665
61.926355
-7.8003112
57.239965
-7.2177317
52.87587
-6.6814355
48.812341
-6.1896644
44.987712
-5.7313917
41.427263
-5.3113979
38.26122
-4.9202522
35.426491
-4.5580403
32.796912
-4.2213424
30.29828
-3.9106474
27.934778
-3.6229695
25.735102
-3.3550778
23.702448
-3.1068478
21.825311
-2.8764699
20.091453
-2.6634812
18.488412
-2.4665949
17.004382
-2.2843856
15.629872
-2.1157209
14.356911
-1.9595812
13.178097
-1.815008
12.086358
-1.6811226
11.075099
-1.5571288
10.13829
-1.4423003
9.2704323
-1.3359643
8.4664659
-1.2374924
7.7216979
-1.1462979
7.0317648
-1.0618364
6.3926153
-0.9836036
5.8004968
-0.91113326
5.25194
-0.8439946
4.7437393
-0.78178903
4.2729327
-0.72414754
3.8367824
-0.67072825
3.4327577
-0.62121388
3.0585185
-0.5753114
2.7119087
-0.53273951
2.390932
-0.49324875
2.0937454
-0.45660272
1.8186506
-0.42257908
1.5640874
-0.39096567
1.3286277
-0.36155817
1.1109706
-0.33416211
0.90994267
-0.30857383
0.72449612
-0.28461751
0.55373139
-0.26198183
0.39690194
-0.24071889
0.25335835
-0.21974635
0.12400705
-0.20171344
-0.18616568
63.513691
-2.6151585
58.706518
-2.420307
54.233344
-2.2392708
50.068274
-2.0745372
46.150218
-1.9211284
42.496036
-1.7805394
39.241435
-1.6494834
36.32803
-1.5279564
33.632272
-1.4149225
31.073577
-1.310705
28.651179
-1.2142685
26.395892
-1.1244379
24.310658
-1.0411806
22.384376
-0.9638386
20.605573
-0.89234812
18.961299
-0.82629191
17.439092
-0.76516614
16.02918
-0.70858068
14.723454
-0.65619329
13.514342
-0.60768546
12.39457
-0.56276376
11.357348
-0.52116186
10.396485
-0.4826364
9.5063476
-0.44696072
8.6817494
-0.41392281
7.9178794
-0.3833255
7.2102612
-0.35498639
6.5547368
-0.32873689
5.9474551
-0.30442109
5.3848555
-0.28189486
4.8636491
-0.26102473
4.380797
-0.24168712
3.9334907
-0.22376756
3.5191341
-0.20715984
3.1353264
-0.19176621
2.7798552
-0.17749398
2.4506736
-0.16425893
2.1458911
-0.15198165
1.8637659
-0.14058823
1.602698
-0.13000832
1.361224
-0.1201743
1.1380116
-0.11102223
0.93186453
-0.10248424
0.741707
-0.094504669
0.56666237
-0.086971125
0.40585232
-0.079933747
0.25901482
-0.072926261
0.12477105
-0.067480798
-0.061400649
64.05429
2.615159
59.203494
2.4203075
54.693785
2.2392713
50.495437
2.0745385
46.545692
1.9211362
42.859701
1.7805765
39.575052
1.649595
36.634699
1.5281752
33.916453
1.4152661
31.337449
1.311202
28.895041
1.2149855
26.620769
1.125465
24.517647
1.0424661
22.574573
0.96529096
20.780439
0.89393395
19.122135
0.82801454
17.586948
0.76702933
16.165001
0.7105809
14.848138
0.65832397
13.628726
0.60993975
12.499418
0.56513365
11.453359
0.52363706
10.484311
0.48520617
9.5865936
0.44961685
8.7549775
0.41666056
7.9846102
0.38614204
7.2709759
0.35787871
6.6098803
0.33170071
5.9974389
0.30745079
5.4300605
0.28498386
4.9044278
0.26416589
4.4174761
0.2448729
3.9663728
0.22699
3.5484995
0.21041055
3.1614347
0.19503564
2.8029472
0.18076754
2.4709728
0.16752316
2.1636057
0.15522373
1.879089
0.14379382
1.6158093
0.13316038
1.3722923
0.12325233
1.1471956
0.11400183
0.9393174
0.10533639
0.74757238
0.097195572
0.57110589
0.089461374
0.40896414
0.082183066
0.26112553
0.074894925
0.12446609
0.069167538
0.063059459
63.513691
7.8003117
58.706518
7.2177322
54.233344
6.6814362
50.06828
6.1896661
46.150248
5.7314011
42.496124
5.3114379
39.241538
4.9203733
36.328144
4.5582636
33.632429
4.2216961
31.073778
3.9111624
28.651467
3.6237207
26.396127
3.3561063
24.310812
3.1081269
22.384508
2.877929
20.605709
2.6650782
18.961434
2.4683245
17.439215
2.2862536
16.02929
2.1177276
14.723552
1.9617209
13.514427
1.8172724
12.394639
1.6835017
11.3574
1.5596124
10.396523
1.4448792
9.5063729
1.3386314
8.6817645
1.2402424
7.9178844
1.149127
7.2102555
1.0647408
6.5547198
0.98657901
5.9474263
0.91417427
5.3848149
0.8470949
4.8635967
0.78494155
4.3807331
0.72734473
3.9334156
0.67396202
3.519048
0.62447567
3.1352298
0.57859144
2.779749
0.53602293
2.4505585
0.49652185
2.1457686
0.45985243
1.8636374
0.42579072
1.6025655
0.3941217
1.3610901
0.36463758
1.1378797
0.33713985
0.93173837
0.31142029
0.74159121
0.28729809
0.56656127
0.26445741
0.40577257
0.24294689
0.25895538
0.22169473
0.12476962
0.20334218
0.18782309
61.926355
12.850772
57.239965
11.894751
52.875871
11.015055
48.812355
10.201731
44.987776
9.4467152
41.427436
8.7534213
38.261432
8.1086336
35.426725
7.5119419
32.797231
6.9580524
30.298733
6.4461891
27.935326
5.9719062
25.735548
5.5303291
23.70275
5.1214005
21.825557
4.7422493
20.091696
4.3916048
18.488656
4.0673741
17.004613
3.7673142
15.630082
3.4895611
14.357097
3.2324269
13.178254
2.9943338
12.086484
2.773839
11.075194
2.5696331
10.138358
2.3805203
9.2704786
2.2053933
8.4664926
2.0432186
7.721705
1.8930313
7.0317512
1.7539339
6.3925796
1.6250949
5.8004382
1.505745
5.2518581
1.3951733
4.7436343
1.292722
4.2728049
1.1977822
3.8366324
1.1097897
3.4325861
1.0282207
3.0583264
0.95259025
2.7116974
0.88242795
2.3907035
0.81732544
2.093502
0.7568939
1.8183955
0.70076407
1.5638247
0.64858282
1.3283627
0.60001029
1.1107099
0.55472083
0.90969412
0.51237916
0.72426906
0.47267884
0.55353569
0.43515711
0.39674874
0.39970911
0.25325299
0.36517318
0.12397184
0.33261224
0.3117889
59.384616
17.686243
54.890715
16.379455
50.702142
15.173303
46.800487
14.049524
43.126095
13.009479
39.716635
12.053107
36.693252
11.16489
33.983644
10.343254
31.45974
9.5817472
29.057774
8.8767898
26.788971
8.2229638
24.678403
7.6144744
22.72972
7.051165
20.930816
6.5293645
19.268811
6.0467577
17.731836
5.6004158
16.308939
5.1873085
14.991064
4.8048609
13.770505
4.4507718
12.640146
4.1229001
11.593243
3.8192731
10.623506
3.5380849
9.7251671
3.2776798
8.8929473
3.0365277
8.1219831
2.8132054
7.4077683
2.6063861
6.7461186
2.414836
6.1331523
2.2374108
5.5652757
2.073052
5.0391658
1.9207812
4.5517516
1.7796928
4.1001943
1.6489483
3.68187
1.5277707
3.2943529
1.4154386
2.9354003
1.3112843
2.6029466
1.2146601
2.295079
1.1250051
2.0100309
1.0417841
1.7461752
0.96448844
1.5020172
0.89263265
1.2761881
0.82575126
1.0674408
0.76339735
0.8746456
0.70511813
0.69679897
0.65048171
0.53300371
0.59891908
0.3826169
0.55007142
0.2446826
0.50309027
0.12130397
0.45597978
0.43308675
56.03187
22.240503
51.788765
20.612734
47.835203
19.09642
44.147352
17.679969
40.671591
16.37049
37.461853
15.165268
34.626911
14.047557
32.080644
13.013549
29.694874
12.056484
27.42047
11.169487
25.27722
10.345752
23.284955
9.579965
21.447325
8.8710618
19.751384
8.2148531
18.184031
7.6079077
16.734173
7.0464647
15.391884
6.5267762
14.148683
6.0455994
12.997234
5.6000664
11.930811
5.1875225
10.943088
4.8055008
10.028161
4.4517237
9.1805945
4.124095
8.3954006
3.8206813
7.6679819
3.5396907
6.9940841
3.2794568
6.3697615
3.0384307
5.7913563
2.8151756
5.2554825
2.6083606
4.7590087
2.4167551
4.2990397
2.2392199
3.8728994
2.0746996
3.4781134
1.9222162
3.1123946
1.7808616
2.773628
1.6497958
2.4598669
1.5282031
2.1693077
1.4153794
1.9002842
1.3106525
1.6512619
1.2133818
1.420831
1.1229574
1.2076996
1.0387963
1.0106891
0.96033823
0.82872796
0.88702407
0.66086615
0.81830046
0.50621931
0.75353311
0.36422985
0.69203666
0.23365356
0.63364947
0.1172288
0.57239343
0.55030931
52.043894
26.465751
48.101611
24.543852
44.427552
22.739187
40.994338
21.051226
37.756593
19.491385
34.786417
18.054652
32.174301
16.724371
29.818985
15.493171
27.596321
14.354289
25.473855
13.298289
23.480778
12.31619
21.630194
11.404608
19.92453
10.560634
18.350648
9.7797607
16.895638
9.0574723
15.549274
8.3892079
14.302723
7.7705872
13.148209
7.1977656
12.078866
6.6673473
11.088425
6.1762013
10.171036
5.7214052
9.3212423
5.3002447
8.5340051
4.9102146
7.8046852
4.5490047
7.1290061
4.2144786
6.5030143
3.904654
5.9230477
3.617691
5.3857133
3.351882
4.8878709
3.105645
4.4266154
2.8775156
3.9992606
2.6661371
3.603323
2.4702527
3.2365061
2.2886973
2.8966874
2.1203892
2.581904
1.9643288
2.29035
1.8195433
2.0203514
1.6851973
1.7703611
1.5604912
1.5389542
1.4446628
1.3248216
1.3369864
1.1267618
1.2367716
0.94367745
1.1433545
0.77456492
1.0560825
0.61853494
0.97428823
0.47472011
0.89731567
0.34262726
0.82410561
0.22075161
0.75550815
0.11201492
0.68111896
0.66231781
47.619041
30.327861
44.011746
28.138207
40.646745
26.071248
37.496413
24.134617
34.525684
22.345865
31.82479
20.697159
29.457618
19.173084
27.30916
17.761906
25.266647
16.45621
23.31427
15.245188
21.488438
14.118047
19.796063
13.073142
18.236793
12.105845
16.797997
11.211072
15.467441
10.383356
14.235841
9.6174182
13.095444
8.9083286
12.039265
8.251711
11.060985
7.6436784
10.154834
7.0806582
9.3154694
6.559314
8.537924
6.0765361
7.8175981
5.6294463
7.1502464
5.2153894
6.5319521
4.8319115
5.9590966
4.47674
5.428331
4.1477684
4.9365552
3.8430428
4.4808997
3.5607518
4.0587101
3.2992177
3.6675313
3.0568854
3.305093
2.8323131
2.9692961
2.6241649
2.6582007
2.4311999
2.3700127
2.2522724
2.1030818
2.0862659
1.8558769
1.9322261
1.6269829
1.7892378
1.4150961
1.6564271
1.2190179
1.5329637
1.0376464
1.4180609
0.86997278
1.3109619
0.7150668
1.2109358
0.57210258
1.1172111
0.44022875
1.0291578
0.31899328
0.94531749
0.20667315
0.8678114
0.10583256
0.7819483
0.76814368
42.954273
33.808165
39.70048
31.377712
36.66081
29.076034
33.808718
26.915128
31.123333
24.919896
28.709651
23.080075
26.5977
21.381163
24.661251
19.808333
22.808066
18.351813
21.038155
17.000192
19.389221
15.742489
17.86434
14.57725
16.459346
13.498971
15.162633
12.501652
13.963117
11.578936
12.852481
10.724941
11.823967
9.9342844
10.871418
9.202135
9.9891224
8.5241523
9.1718354
7.8963512
8.4147326
7.3150192
7.7133517
6.7766952
7.0635573
6.2781694
6.4615243
5.8164763
5.9037191
5.3888755
5.3868768
4.9928307
4.9079786
4.6259937
4.4642308
4.2861881
4.053049
3.9713959
3.6720416
3.6797477
3.3189967
3.4095091
2.9918686
3.1590723
2.6887659
2.9269467
2.407941
2.7117478
2.1477783
2.5121976
1.90679
2.327052
1.683595
2.1552505
1.4769167
1.9957732
1.2855788
1.8476464
1.1084979
1.7099469
0.94467542
1.5818036
0.79319372
1.4623791
0.65319701
1.3508811
0.52392152
1.2464462
0.40452683
1.1485214
0.29457851
1.0552425
0.19215823
0.97021482
0.099290341
0.87480475
0.86742701
38.231353
36.902708
35.336574
34.257859
32.624126
31.751882
30.074913
29.388837
27.684141
27.210067
25.562098
25.2007
23.704018
23.345737
21.977311
21.629371
20.315731
20.038546
18.734318
18.560803
17.265215
17.1873
15.910303
15.915085
14.661444
14.738182
13.508281
13.649759
12.441281
12.642602
11.453128
11.710295
10.537922
10.84709
9.690291
10.047772
8.9051713
9.3075931
8.1778692
8.6221895
7.5040769
7.9875086
6.8798292
7.3997805
6.3014582
6.8555063
5.7655664
6.3514477
5.2690113
5.8846092
4.8088884
5.4522189
4.3825121
5.0517118
3.987399
4.6807123
3.6212515
4.3370187
3.2819438
4.0185903
2.9675095
3.7235339
2.6761299
3.4500938
2.4061235
3.1966421
2.1559369
2.9616662
1.9241378
2.7437671
1.7093981
2.5415965
1.5104885
2.3539952
1.3262728
2.179851
1.155702
2.0181025
0.99780808
1.8677462
0.85169492
1.7278394
0.71653443
1.5974771
0.59154193
1.4758235
0.47601106
1.3619376
0.36910411
1.2553977
0.27038298
1.1539405
0.17771772
1.0628632
0.092655524
0.95985524
0.9600751
33.604253
39.622384
31.061768
36.785059
28.67097
34.104382
26.418891
31.5633
24.322135
29.222606
22.484713
27.063952
20.869562
25.072323
19.345386
23.229536
17.87226
21.520516
16.478545
19.931185
15.186867
18.456054
13.998328
17.090146
12.902309
15.826734
11.889516