/*--------------------------------*- C++ -*----------------------------------*\
| =========                 |                                                 |
| \\      /  F ield         | OpenFOAM: The Open Source CFD Toolbox           |
|  \\    /   O peration     | Version:  2506                                  |
|   \\  /    A nd           | Website:  www.openfoam.com                      |
|    \\/     M anipulation  |                                                 |
\*---------------------------------------------------------------------------*/
FoamFile
{
    version     2.0;
    format      ascii;
    arch        "LSB;label=32;scalar=64";
    class       volScalarField;
    location    "0.032";
    object      rho;
}
// * * * * * * * * * * * * * * * * * * * * * * * * * * * * * * * * * * * * * //

dimensions      [1 -3 0 0 0 0 0];

internalField   nonuniform List<scalar> 
19257
(
0.66543204
0.66631661
0.66617648
0.6666144
0.66639289
0.66570989
0.66509549
0.66528661
0.66570044
0.66581484
0.66578091
0.66577335
0.6657835
0.66579105
0.66578887
0.66577831
0.66576234
0.66574314
0.66572155
0.66569721
0.66566987
0.66563998
0.6656083
0.66557544
0.66554188
0.66550808
0.66547456
0.66544185
0.66541058
0.66538143
0.66535521
0.66533276
0.66531448
0.66530172
0.66529605
0.66529832
0.66530649
0.66531774
0.66532911
0.66533348
0.6653221
0.66528005
0.66514501
0.66505814
0.66423268
0.66460662
0.66122439
0.66311779
0.65624328
0.6653943
0.66627176
0.66624455
0.66660564
0.66648451
0.66580155
0.66516393
0.66524424
0.66562575
0.66579305
0.66578745
0.665775
0.66578283
0.6657907
0.66578947
0.66578048
0.66576695
0.66575076
0.66573261
0.66571213
0.66568922
0.66566442
0.6656385
0.66561214
0.66558586
0.66556023
0.66553588
0.66551353
0.665494
0.6654782
0.66546723
0.6654622
0.66546413
0.66547471
0.66549621
0.66553082
0.66557741
0.66563467
0.66570194
0.66577525
0.66585039
0.66591293
0.66593596
0.66594536
0.66555784
0.66578089
0.66332988
0.66482833
0.65739244
0.66534246
0.66622589
0.66627809
0.66660995
0.66658253
0.66592515
0.66523989
0.66519913
0.66554486
0.66576283
0.66578655
0.66577971
0.66578337
0.66578915
0.66578852
0.66578196
0.66577135
0.66575832
0.66574355
0.66572692
0.66570852
0.66568892
0.66566886
0.66564901
0.66562998
0.6656124
0.66559704
0.66558476
0.66557654
0.6655735
0.66557698
0.66558836
0.66560912
0.66564126
0.66568771
0.66575188
0.66583351
0.66593261
0.66605064
0.66618651
0.6663402
0.66650051
0.66666061
0.6667997
0.66675523
0.66695823
0.66536546
0.66647524
0.65998167
0.66528109
0.66618778
0.6662914
0.66661763
0.66668443
0.66606566
0.66531856
0.66516953
0.66546963
0.66571671
0.66577567
0.66578354
0.66578452
0.66578708
0.66578732
0.66578376
0.66577646
0.66576668
0.66575532
0.66574267
0.66572901
0.66571487
0.6657009
0.66568775
0.66567607
0.66566661
0.66566023
0.66565791
0.66566078
0.66567012
0.66568747
0.66571443
0.66575291
0.66580508
0.66587453
0.66596566
0.66607899
0.6662156
0.6663788
0.66657008
0.66679303
0.667041
0.66731861
0.66759588
0.66781167
0.66811039
0.66726037
0.66819932
0.66240372
0.66520833
0.66615473
0.66629075
0.66661416
0.66678068
0.66622812
0.66542162
0.66515795
0.66539464
0.66565351
0.66576134
0.66578459
0.66578411
0.66578423
0.66578599
0.66578568
0.66578168
0.66577514
0.66576734
0.66575891
0.66575024
0.66574178
0.66573407
0.66572774
0.6657235
0.6657222
0.66572479
0.66573235
0.66574614
0.66576756
0.66579833
0.66584024
0.66589555
0.66596656
0.66605746
0.66617349
0.66631586
0.66648662
0.66669063
0.66693166
0.66721654
0.66754276
0.66792481
0.66833112
0.66876874
0.66922375
0.66906249
0.66989477
0.66549722
0.66512252
0.66612298
0.66628622
0.66659491
0.66686196
0.66641093
0.66555445
0.66516376
0.66532308
0.66558593
0.66573901
0.6657776
0.66578099
0.66578238
0.66578577
0.66578765
0.66578653
0.66578346
0.66577964
0.66577578
0.66577233
0.66576971
0.6657684
0.665769
0.66577231
0.66577925
0.66579085
0.66580828
0.66583287
0.66586616
0.66591001
0.66596636
0.6660378
0.66612668
0.66623776
0.66637701
0.66654626
0.66674835
0.6669895
0.66727546
0.66761584
0.66801206
0.66848665
0.6690108
0.66963945
0.67027007
0.67069102
0.67152933
0.66855668
0.66501956
0.6660932
0.66628341
0.66655788
0.66691802
0.66660484
0.66572239
0.66519637
0.66525762
0.66551063
0.66569731
0.66576076
0.66577676
0.66578239
0.66578566
0.66578845
0.66579043
0.66579152
0.66579223
0.66579321
0.66579509
0.66579835
0.66580348
0.66581112
0.66582207
0.66583732
0.66585796
0.66588522
0.66592052
0.66596549
0.6660221
0.66609246
0.66617941
0.66628535
0.66641559
0.66657659
0.66677087
0.66700197
0.66727719
0.66760404
0.66799452
0.66845364
0.66901067
0.66964105
0.67043716
0.67124322
0.67216831
0.67311024
0.67182744
0.66489688
0.66606369
0.66628512
0.66650364
0.66694152
0.66679363
0.66592525
0.66526137
0.66520037
0.66542939
0.665641
0.66573919
0.66577207
0.66578007
0.6657831
0.66578783
0.66579382
0.66579958
0.66580501
0.66581091
0.66581811
0.66582725
0.66583888
0.66585362
0.6658723
0.6658959
0.66592558
0.66596261
0.66600849
0.66606492
0.66613399
0.66621793
0.66631981
0.66644209
0.66659057
0.666772
0.66698968
0.66724777
0.66755444
0.66791872
0.66835466
0.66887059
0.66950124
0.67022729
0.67117029
0.67214292
0.6735045
0.6746207
0.67501425
0.66475499
0.66603134
0.6662882
0.66643753
0.66692674
0.6669589
0.66615508
0.66536402
0.66515898
0.66534636
0.66557105
0.66570542
0.66575869
0.6657733
0.66577957
0.66578787
0.66579765
0.66580745
0.66581734
0.66582816
0.66584077
0.66585586
0.66587403
0.66589592
0.66592235
0.6659543
0.66599294
0.66603962
0.66609586
0.66616349
0.66624465
0.66634172
0.66645792
0.66659584
0.66676165
0.66696226
0.66720184
0.66748512
0.66782091
0.66821956
0.6686969
0.66926429
0.66996085
0.67077311
0.671845
0.67297239
0.67471487
0.67604135
0.67807659
0.66459414
0.66599075
0.66628876
0.66636744
0.66687137
0.66708446
0.66639769
0.66550702
0.66514272
0.6652642
0.66548795
0.66565869
0.66573819
0.66576449
0.66577649
0.6657882
0.66580067
0.6658139
0.66582833
0.66584438
0.66586261
0.66588372
0.66590841
0.6659374
0.6659715
0.66601167
0.66605911
0.66611519
0.66618152
0.66625997
0.66635277
0.66646244
0.66659228
0.66674511
0.66692724
0.6671458
0.66740586
0.66771262
0.66807535
0.66850557
0.66902064
0.6696347
0.6703903
0.67128026
0.672465
0.67373468
0.67580692
0.67735558
0.68093361
0.66441766
0.66593064
0.66628577
0.66629541
0.66678316
0.66716206
0.66663452
0.66568665
0.66516078
0.66518677
0.6653963
0.66560003
0.66570802
0.66575145
0.66577127
0.66578596
0.66580116
0.66581847
0.66583803
0.6658596
0.66588349
0.66591049
0.66594151
0.66597737
0.66601891
0.66606706
0.66612299
0.66618812
0.66626412
0.66635292
0.66645682
0.66657843
0.66672115
0.66688806
0.66708534
0.66732064
0.66759975
0.66792827
0.6683158
0.6687749
0.66932425
0.66998053
0.67078895
0.67174878
0.67303197
0.67443163
0.67679286
0.67855881
0.68355175
0.66424213
0.66584641
0.6662731
0.6662247
0.66667198
0.66718902
0.66684589
0.66589311
0.66521802
0.66512088
0.66530392
0.66553027
0.66566771
0.66573314
0.66576352
0.6657821
0.66580049
0.66582223
0.66584695
0.66587382
0.66590303
0.66593559
0.66597261
0.66601502
0.66606364
0.66611938
0.66618339
0.6662571
0.66634223
0.66644077
0.66655509
0.66668788
0.66684261
0.66702261
0.66723389
0.66748461
0.6677812
0.66812963
0.66853981
0.66902512
0.6696054
0.67029961
0.67115499
0.67217734
0.67354583
0.67506406
0.67765314
0.67963627
0.68589319
0.66407523
0.66575404
0.66625381
0.66616028
0.66654787
0.6671677
0.66701872
0.66611256
0.66531183
0.66507444
0.66521783
0.66545149
0.66561891
0.66570979
0.66575286
0.66577684
0.66579898
0.66582494
0.6658543
0.665886
0.66592023
0.66595812
0.66600089
0.6660495
0.66610476
0.66616757
0.66623908
0.66632076
0.66641436
0.66652191
0.66664583
0.66678891
0.66695464
0.6671466
0.6673707
0.66763535
0.66794768
0.66831407
0.66874462
0.66925342
0.66986125
0.67058917
0.67148588
0.67256362
0.67400534
0.67562964
0.67841689
0.68060483
0.68792031
0.66392198
0.66566348
0.66623199
0.66610506
0.66642545
0.66710877
0.66714876
0.66632806
0.665432
0.66505402
0.66514273
0.66536887
0.66556441
0.66568145
0.66573875
0.66576967
0.66579643
0.66582629
0.6658595
0.66589546
0.66593452
0.66597764
0.66602589
0.66608021
0.66614149
0.66621066
0.66628895
0.66637784
0.66647909
0.66659478
0.66672735
0.66687967
0.66705527
0.66725792
0.66749344
0.66777043
0.66809667
0.66847891
0.66892744
0.66945688
0.67008883
0.67084618
0.6717787
0.67290478
0.67440828
0.67612768
0.67907339
0.68144167
0.6896468
0.66378533
0.66558198
0.6662131
0.6660608
0.66631497
0.6670293
0.66723735
0.66652165
0.66556499
0.66506098
0.66508154
0.66528922
0.66550747
0.6656492
0.66572169
0.66576116
0.66579317
0.66582653
0.66586291
0.66590269
0.66594629
0.6659943
0.66604751
0.66610682
0.66617324
0.66624788
0.66633202
0.66642719
0.66653515
0.66665797
0.66679811
0.66695848
0.66714266
0.66735459
0.66759999
0.66788762
0.66822579
0.66862164
0.6690856
0.66963271
0.67028524
0.67106765
0.67203045
0.67319775
0.67475226
0.67655504
0.67962495
0.68217399
0.69108932
0.66366468
0.66551471
0.6661996
0.66602931
0.66622423
0.66694748
0.66729214
0.66668164
0.66569699
0.66508991
0.6650368
0.66521883
0.6654525
0.66561557
0.66570282
0.66575177
0.66578932
0.66582567
0.66586459
0.66590772
0.66595549
0.66600795
0.66606544
0.66612887
0.66619944
0.66627851
0.66636749
0.6664679
0.66658148
0.66671028
0.66685678
0.66702389
0.66721524
0.66743488
0.66768849
0.66798492
0.66833295
0.66874002
0.66921671
0.66977839
0.67044782
0.67125077
0.67223824
0.67343947
0.67503455
0.67690857
0.68007159
0.68278164
0.69226176
0.66355236
0.66546557
0.6661948
0.66601132
0.66615545
0.6668743
0.66732217
0.66680434
0.6658149
0.66512976
0.66500897
0.66516306
0.66540442
0.66558371
0.66568385
0.66574237
0.66578529
0.66582399
0.66586472
0.66591052
0.66596184
0.66601806
0.66607905
0.66614571
0.66621949
0.66630198
0.66639472
0.66649924
0.66661725
0.66675079
0.6669023
0.66707473
0.6672717
0.66749738
0.66775741
0.66806071
0.66841639
0.66883218
0.66931878
0.66989178
0.67057429
0.67139315
0.67239957
0.67362716
0.67525261
0.6771845
0.68041207
0.68326865
0.69312296
0.66345857
0.66543721
0.66619747
0.66599932
0.6661048
0.66681587
0.66733629
0.66689017
0.66590608
0.66516846
0.66499546
0.66512434
0.66536742
0.66555707
0.66566696
0.66573401
0.66578168
0.66582206
0.66586382
0.66591147
0.66596546
0.66602449
0.66608804
0.66615699
0.66623302
0.66631792
0.6664133
0.66652075
0.66664193
0.66677885
0.66693394
0.66711015
0.66731111
0.66754108
0.66780564
0.6681138
0.66847487
0.66889681
0.6693904
0.66997137
0.67066305
0.67149306
0.67251262
0.67375875
0.67540455
0.67737915
0.68064605
0.6836309
0.69368973
0.6634041
0.66542212
0.66619739
0.66598934
0.66607339
0.66678042
0.66734282
0.66694011
0.66596171
0.66519589
0.66499093
0.66510203
0.66534428
0.66553889
0.66565444
0.66572753
0.66577873
0.66582031
0.66586258
0.66591121
0.66596673
0.66602744
0.66609251
0.66616277
0.66624005
0.66632628
0.66642317
0.6665323
0.66665533
0.66679422
0.66695139
0.66712979
0.66733307
0.66756551
0.66783271
0.66814368
0.66850786
0.66893334
0.66943096
0.67001652
0.67071345
0.67154982
0.67257675
0.67383347
0.67549013
0.67748996
0.68077652
0.68384764
0.69399792
0.66338623
0.66541991
0.66619574
0.66598399
0.66606309
0.66676942
0.66734503
0.66695633
0.66597973
0.66520513
0.66498971
0.66509357
0.66533547
0.66553207
0.66564928
0.66572424
0.66577656
0.66581856
0.66586104
0.66590998
0.66596599
0.66602726
0.66609282
0.66616346
0.66624104
0.66632758
0.66642485
0.66653444
0.666658
0.66679747
0.66695525
0.66713429
0.66733824
0.66757141
0.6678394
0.66815124
0.66851635
0.66894289
0.66944171
0.67002863
0.67072711
0.67156534
0.6725944
0.67385411
0.67551391
0.67751952
0.68081822
0.68387046
0.69408037
0.6634041
0.66542212
0.66619739
0.66598933
0.6660733
0.6667801
0.66734217
0.66693916
0.66596064
0.66519437
0.66498822
0.66509909
0.66534193
0.66553704
0.66565282
0.66572582
0.66577673
0.66581807
0.66586025
0.6659089
0.66596449
0.66602524
0.66609028
0.66616043
0.66623753
0.66632356
0.66642028
0.66652929
0.66665223
0.66679104
0.66694814
0.66712646
0.66732967
0.66756205
0.66782923
0.66814022
0.66850447
0.66893005
0.66942785
0.67001367
0.67071095
0.67154774
0.67257519
0.67383245
0.67548965
0.67748977
0.68077642
0.68384677
0.69399369
0.66345857
0.66543721
0.66619746
0.66599929
0.66610461
0.66681519
0.66733493
0.66688832
0.66590386
0.66516515
0.66499012
0.66511856
0.66536288
0.66555342
0.66566356
0.66573036
0.66577754
0.66581751
0.6658591
0.66590678
0.66596085
0.6660199
0.66608335
0.66615205
0.66622774
0.66631228
0.66640735
0.66651452
0.66663549
0.66677222
0.66692713
0.66710316
0.66730397
0.66753381
0.66779832
0.66810652
0.66846771
0.66888987
0.6693838
0.66996529
0.67065768
0.67148856
0.67250916
0.67375642
0.67540334
0.67737865
0.68064562
0.6836291
0.69368204
0.66355236
0.66546557
0.66619479
0.66601124
0.66615511
0.66687318
0.66732003
0.6668016
0.66581147
0.66512445
0.66500099
0.66515481
0.665398
0.66557838
0.66567871
0.6657368
0.66577906
0.66581718
0.66585764
0.66590344
0.66595484
0.66601106
0.66607188
0.66613816
0.66621146
0.66629344
0.66638569
0.66648978
0.66660742
0.66674062
0.66689181
0.66706395
0.66726067
0.66748614
0.66774607
0.66804943
0.66840528
0.66882138
0.66930849
0.66988227
0.67056583
0.67138604
0.67239406
0.67362339
0.67525057
0.67718368
0.68041132
0.68326632
0.69311154
0.66366468
0.6655147
0.66619957
0.66602917
0.66622369
0.66694586
0.66728922
0.66667807
0.66569233
0.66508234
0.66502636
0.66520859
0.66544454
0.66560879
0.66569604
0.66574433
0.66578103
0.66581668
0.66585524
0.66589832
0.66594619
0.66599865
0.66605589
0.6661188
0.66618871
0.66626708
0.6663554
0.6664552
0.66656824
0.66669654
0.66684258
0.66700927
0.66720024
0.66741958
0.66767304
0.66796953
0.66831775
0.66872521
0.66920257
0.66976528
0.67043613
0.67124091
0.67223057
0.67343421
0.67503168
0.6769075
0.68007064
0.68277913
0.69224596
0.66378533
0.66558196
0.66621306
0.66606062
0.66631423
0.6670272
0.66723378
0.66651734
0.665559
0.66505084
0.66506892
0.66527747
0.66549825
0.66564109
0.66571329
0.66575184
0.66578285
0.66581544
0.66585144
0.66589116
0.66593482
0.66598277
0.6660356
0.66609421
0.66615976
0.66623351
0.66631683
0.66641123
0.66651849
0.66664065
0.66678018
0.66693998
0.66712366
0.66733517
0.66758035
0.66786802
0.6682064
0.6686027
0.66906747
0.66961587
0.6702702
0.67105492
0.67202053
0.67319098
0.67474861
0.67655385
0.67962395
0.68217157
0.69107138
0.66392199
0.66566348
0.66623199
0.66610489
0.66642456
0.66710623
0.66714462
0.66632295
0.66542426
0.66504102
0.66512817
0.6653559
0.66555404
0.66567197
0.66572867
0.66575839
0.66578402
0.66581314
0.66584599
0.66588188
0.66592093
0.66596384
0.66601153
0.66606496
0.66612518
0.66619331
0.66627062
0.66635861
0.66645902
0.66657389
0.66670569
0.66685728
0.66703224
0.66723434
0.66746956
0.66774654
0.66807297
0.6684557
0.66890518
0.66943614
0.67007027
0.67083047
0.67176647
0.67289649
0.67440394
0.67612653
0.67907266
0.68143942
0.68962824
0.66407532
0.66575413
0.6662539
0.66616013
0.66654677
0.66716457
0.66701387
0.66610622
0.66530157
0.66505839
0.66520146
0.66543751
0.66560732
0.66569881
0.66574101
0.66576357
0.66578453
0.66580981
0.66583892
0.66587058
0.66590471
0.6659422
0.66598416
0.66603166
0.66608568
0.66614729
0.66621769
0.66629833
0.66639093
0.6664975
0.66662047
0.66676265
0.66692759
0.66711885
0.66734253
0.66760709
0.66791956
0.66828645
0.66871806
0.66922862
0.66983901
0.67057033
0.67147126
0.67255382
0.67400041
0.67562876
0.67841673
0.68060371
0.68789919
0.66424238
0.66584657
0.66627318
0.66622442
0.66667045
0.66718508
0.66683998
0.66588493
0.66520458
0.66510203
0.66528596
0.66551548
0.66565481
0.66572048
0.66574982
0.6657669
0.66578414
0.66580533
0.66582994
0.66585686
0.66588591
0.66591783
0.66595376
0.6659948
0.66604198
0.66609635
0.66615909
0.66623159
0.66631554
0.66641292
0.6665261
0.6666578
0.66681155
0.66699067
0.66720142
0.66745192
0.66774855
0.66809745
0.66850877
0.66899607
0.66957929
0.67027749
0.67113788
0.67216602
0.67354047
0.67506369
0.6776542
0.67963431
0.68586943
0.66441802
0.66593075
0.66628567
0.66629483
0.66678107
0.66715733
0.6666272
0.66567611
0.66514403
0.66516589
0.66537719
0.66558455
0.66569409
0.66573724
0.6657558
0.66576887
0.66578283
0.66579967
0.66581929
0.66584104
0.66586473
0.66589092
0.66592062
0.6659549
0.66599482
0.66604144
0.66609594
0.66615968
0.6662343
0.66632172
0.66642427
0.66654458
0.66668611
0.66685193
0.6670485
0.66728341
0.66756243
0.66789135
0.66828008
0.66874136
0.66929404
0.66995491
0.67076921
0.67173594
0.67302636
0.67443209
0.67679538
0.67856005
0.68352748
0.66459443
0.66599051
0.66628821
0.6663664
0.66686873
0.66707886
0.66638845
0.66549398
0.66512332
0.66524223
0.66546836
0.6656428
0.6657236
0.66574922
0.66575992
0.66576991
0.66578106
0.66579375
0.66580818
0.66582427
0.6658421
0.6658622
0.66588539
0.66591267
0.66594505
0.66598358
0.66602943
0.66608393
0.66614867
0.66622553
0.66631676
0.66642489
0.66655329
0.66670482
0.66688595
0.66710392
0.66736373
0.6676708
0.66803473
0.66846728
0.66898604
0.66960532
0.67036776
0.67126584
0.67245936
0.6737363
0.67581246
0.67736002
0.68091162
0.66475478
0.6660304
0.66628697
0.66643595
0.66692365
0.66695189
0.66614325
0.66534887
0.66513806
0.66532385
0.66555168
0.66568974
0.66574352
0.66575698
0.66576187
0.66576881
0.66577763
0.66578693
0.66579656
0.66580698
0.66581873
0.66583245
0.66584889
0.66586896
0.66589359
0.66592381
0.66596072
0.66600565
0.66606011
0.66612592
0.66620527
0.66630055
0.66641503
0.66655142
0.66671592
0.66691566
0.66715476
0.66743821
0.66777513
0.66817622
0.66865758
0.66923083
0.66993526
0.67075703
0.67183959
0.67297553
0.67472423
0.67605013
0.67805844
0.66489577
0.66606191
0.6662832
0.66650167
0.6669379
0.66678411
0.66591043
0.66524502
0.6651789
0.66540646
0.66562202
0.66572434
0.66575733
0.66576303
0.66576371
0.66576719
0.66577285
0.6657786
0.66578385
0.66578904
0.66579491
0.66580224
0.66581185
0.6658246
0.66584137
0.66586313
0.66589094
0.66592605
0.66596994
0.66602434
0.66609135
0.66617324
0.6662731
0.66639357
0.66654044
0.66672064
0.66693752
0.66719556
0.66750323
0.66786997
0.66831021
0.66883264
0.66947228
0.67020938
0.67116548
0.67214791
0.67351928
0.6746348
0.67500562
0.66501718
0.66609066
0.66628111
0.6665559
0.66691339
0.66659116
0.66570474
0.6651799
0.66523573
0.66548708
0.66567833
0.66574566
0.66576315
0.66576635
0.66576638
0.6657671
0.66576847
0.66576973
0.66577043
0.66577062
0.66577088
0.66577199
0.66577484
0.66578028
0.66578918
0.66580243
0.66582104
0.6658462
0.66587931
0.66592202
0.66597633
0.66604436
0.66612895
0.66623278
0.66636109
0.66652042
0.6667135
0.6669442
0.66722019
0.66754941
0.66794439
0.66841062
0.66897786
0.669621
0.67043343
0.67125039
0.67219088
0.67313221
0.67182285
0.66511859
0.66612005
0.66628402
0.66659341
0.66685526
0.66639146
0.66553491
0.66514799
0.66529946
0.66556092
0.66572133
0.66576138
0.66576508
0.66576544
0.66576686
0.66576665
0.66576437
0.66576102
0.66575699
0.66575222
0.66574702
0.66574209
0.66573833
0.66573657
0.66573766
0.66574243
0.66575182
0.66576695
0.66578915
0.66581995
0.66586123
0.66591496
0.66598371
0.66607012
0.6661789
0.66631599
0.66648355
0.66668482
0.66692638
0.6672145
0.66755947
0.66796331
0.66844947
0.66898803
0.66963774
0.67027904
0.67072537
0.67156184
0.66858985
0.66520244
0.66615198
0.6662893
0.66661326
0.66677002
0.66620222
0.66540273
0.66514426
0.66536743
0.66562457
0.66574599
0.66577124
0.66576674
0.66576457
0.6657658
0.6657648
0.66575984
0.66575252
0.66574395
0.66573427
0.6657237
0.66571288
0.66570267
0.66569388
0.66568727
0.66568361
0.6656838
0.66568886
0.66570002
0.66571872
0.66574664
0.66578562
0.66583788
0.66590601
0.66599416
0.66610746
0.66624753
0.66641685
0.6666207
0.66686344
0.66715278
0.66748701
0.66788195
0.6683046
0.6687701
0.66923409
0.66911332
0.66993715
0.66547719
0.66527249
0.66618573
0.66629094
0.6666161
0.66666729
0.66603444
0.66530409
0.66515899
0.66543903
0.66568268
0.66575862
0.66577309
0.66576888
0.66576628
0.66576555
0.66576245
0.66575496
0.66574423
0.66573149
0.66571707
0.66570127
0.66568473
0.66566825
0.66565259
0.66563843
0.66562645
0.66561748
0.66561246
0.6656125
0.66561887
0.66563311
0.66565683
0.66569189
0.66574076
0.66580698
0.6658948
0.66600517
0.66613969
0.66630208
0.66649451
0.66672169
0.66697762
0.66727032
0.66756312
0.66782109
0.66811555
0.667344
0.66825469
0.66251757
0.66533036
0.66622582
0.66627866
0.6666058
0.66655748
0.66589054
0.66523296
0.66518823
0.66550875
0.66573221
0.66576799
0.66576798
0.66576824
0.66576855
0.66576604
0.66576007
0.6657499
0.66573606
0.66571948
0.66570054
0.66567968
0.66565756
0.66563496
0.66561254
0.6655909
0.66557063
0.66555247
0.66553726
0.66552595
0.66551965
0.66551967
0.66552742
0.6655443
0.66557261
0.6656151
0.66567503
0.66575261
0.66584837
0.66596421
0.66609977
0.66625672
0.6664244
0.66660104
0.66675559
0.66677543
0.66695303
0.6655021
0.66655305
0.65997377
0.66537742
0.66627445
0.66624377
0.66659689
0.66645207
0.66576663
0.66516622
0.6652279
0.66557679
0.66576883
0.66577439
0.66576034
0.66576458
0.66576943
0.66576651
0.66575799
0.66574515
0.66572843
0.66570834
0.66568521
0.66565956
0.66563213
0.66560366
0.66557473
0.66554582
0.66551745
0.66549024
0.66546488
0.66544216
0.665423
0.66540845
0.66539965
0.6653975
0.665404
0.66542131
0.66545151
0.66549383
0.66554746
0.66561224
0.6656849
0.6657633
0.66583044
0.66588088
0.66587614
0.66563112
0.66570107
0.6635876
0.66487556
0.65769297
0.66541016
0.66632448
0.6661742
0.66660077
0.66635439
0.66568005
0.66510374
0.66526508
0.66563368
0.66579209
0.66577866
0.66575903
0.6657626
0.66576835
0.66576561
0.66575546
0.66574007
0.6657204
0.66569685
0.66566962
0.66563919
0.66560637
0.66557186
0.66553616
0.66549962
0.66546265
0.66542575
0.66538941
0.66535422
0.66532084
0.66529001
0.66526253
0.66523875
0.66522025
0.6652078
0.66520252
0.66520256
0.66520559
0.66520898
0.66520574
0.66519361
0.66514725
0.66504552
0.66491791
0.66433868
0.66445275
0.66160863
0.66325865
0.65619703
0.66605403
0.66759499
0.66825179
0.66840699
0.66825911
0.66801207
0.66773054
0.66743556
0.66715142
0.66688541
0.66664322
0.66642642
0.66623456
0.66607095
0.6659318
0.66581838
0.6657231
0.66564624
0.66558238
0.66553323
0.66549705
0.66547487
0.6654669
0.66547535
0.66549779
0.6655219
0.66553797
0.66555724
0.6655966
0.66565068
0.66570376
0.66575166
0.66579621
0.66583707
0.66586934
0.66589407
0.6658985
0.66589897
0.6658635
0.66587066
0.66577117
0.66577121
0.66571873
0.66587228
0.66577947
0.66579479
0.66565852
0.66571913
0.66570938
0.66623576
0.66692843
0.66722981
0.66734266
0.66724623
0.6671226
0.6669667
0.66679135
0.6666123
0.66643377
0.6662648
0.66611015
0.66596783
0.66584518
0.66573912
0.66565465
0.66558294
0.66552693
0.66548078
0.66544788
0.66542596
0.66541607
0.66541734
0.66543204
0.66546174
0.665499
0.66552802
0.66554906
0.665584
0.66563892
0.66569692
0.665748
0.66579349
0.6658345
0.66586666
0.66589111
0.66589549
0.6658956
0.66586163
0.66586656
0.66576812
0.66577137
0.66572264
0.6658661
0.66577111
0.66579057
0.66566084
0.66572424
0.6657119
0.66445247
0.66535795
0.66581025
0.66608439
0.66614703
0.66616887
0.66614209
0.66608225
0.66600552
0.66591672
0.66582464
0.66573712
0.66565144
0.66557773
0.66551179
0.66546284
0.66542051
0.66539047
0.66536624
0.66535287
0.66534777
0.66535242
0.66536531
0.66538778
0.66542299
0.66547014
0.66551439
0.66554301
0.66557399
0.66562638
0.66568832
0.66574347
0.66579041
0.66583167
0.6658638
0.66588806
0.66589239
0.66589235
0.66585973
0.66586249
0.66576509
0.66577174
0.66572626
0.6658599
0.66576239
0.66578636
0.66566312
0.66572961
0.66571451
0.66357668
0.66446837
0.66485924
0.66515639
0.66525378
0.6653402
0.665383
0.66539855
0.66539828
0.66538445
0.66536094
0.66533817
0.66530863
0.66528655
0.66526385
0.66525408
0.66524431
0.66524324
0.66524339
0.66525162
0.66526497
0.66528558
0.66531173
0.66534387
0.66538453
0.66543784
0.66549517
0.66553715
0.66556768
0.66561478
0.66567832
0.66573797
0.66578699
0.66582862
0.66586078
0.66588488
0.66588913
0.66588895
0.66585759
0.66585844
0.66576205
0.66577206
0.66572983
0.66585395
0.6657534
0.66578204
0.66566537
0.66573536
0.66571731
0.66266648
0.66361007
0.66400919
0.66431871
0.66443282
0.66457968
0.6646793
0.66475422
0.66481359
0.66486215
0.66489723
0.6649332
0.66495524
0.66498369
0.66500408
0.66503459
0.66505869
0.66508826
0.66511432
0.66514551
0.66517841
0.66521586
0.66525623
0.66529965
0.66534715
0.66540453
0.66547144
0.66552875
0.66556429
0.66560538
0.66566736
0.66573119
0.66578308
0.66582535
0.6658576
0.66588164
0.66588578
0.6658855
0.66585527
0.66585447
0.665759
0.66577249
0.66573338
0.66584807
0.66574401
0.66577768
0.66566758
0.66574149
0.66572024
0.66193771
0.66291166
0.66327419
0.66360165
0.66373319
0.66390885
0.66404072
0.66415911
0.66426332
0.66436328
0.66444685
0.66453497
0.66460296
0.66467911
0.66474064
0.66481094
0.66486878
0.66492945
0.66498196
0.66503673
0.66508973
0.66514444
0.66519944
0.66525504
0.66531106
0.66537228
0.6654448
0.66551609
0.66556223
0.66559926
0.66565644
0.66572311
0.66577856
0.66582191
0.66585432
0.66587836
0.66588241
0.66588199
0.6658528
0.66585052
0.66575587
0.66577306
0.66573695
0.66584227
0.66573432
0.66577317
0.66566978
0.66574805
0.66572324
0.66126456
0.66227985
0.66261277
0.66295385
0.66309323
0.66329903
0.66345215
0.66360818
0.66374847
0.6638929
0.6640166
0.66415125
0.66425931
0.66437969
0.66447944
0.66458807
0.66467854
0.6647699
0.6648487
0.66492708
0.66500028
0.66507234
0.66514202
0.66521008
0.66527586
0.66534205
0.66541703
0.66549856
0.66555918
0.66559661
0.66564678
0.66571386
0.66577323
0.66581828
0.66585096
0.66587503
0.66587904
0.66587845
0.66585023
0.66584665
0.66575269
0.66577382
0.66574057
0.66583663
0.66572448
0.66576849
0.66567199
0.66575512
0.66572619
0.66065218
0.66170871
0.66200346
0.66236397
0.66250347
0.66273917
0.6629153
0.66310167
0.66326881
0.66345274
0.66360962
0.66378647
0.66392933
0.66409051
0.66422513
0.66437014
0.66449152
0.66461254
0.66471688
0.66481838
0.66491147
0.66500065
0.66508481
0.66516518
0.66524126
0.66531397
0.66539048
0.6654775
0.665553
0.66559661
0.66563965
0.66570393
0.6657669
0.6658144
0.66584757
0.66587166
0.66587566
0.66587493
0.66584761
0.66584287
0.66574944
0.66577475
0.66574423
0.66583108
0.66571439
0.66576371
0.66567426
0.66576266
0.6657293
0.66007849
0.6611828
0.66143759
0.66182247
0.66196233
0.66222708
0.66241617
0.66263466
0.66282409
0.66304527
0.66322956
0.66344539
0.66361811
0.66381694
0.66398273
0.66416176
0.66431174
0.66446078
0.66458934
0.66471294
0.66482512
0.66493081
0.66502895
0.66512115
0.66520738
0.66528771
0.66536646
0.66545473
0.66554243
0.66559753
0.66563596
0.66569426
0.6657595
0.66581013
0.66584415
0.66586826
0.66587225
0.66587143
0.66584494
0.66583919
0.66574617
0.66577576
0.66574791
0.66582543
0.66570378
0.66575878
0.66567663
0.66577068
0.66573296
0.65953628
0.66069017
0.66090198
0.66131706
0.66145365
0.66175068
0.66195106
0.66220193
0.66240913
0.66266691
0.66287418
0.66312703
0.6633256
0.66355963
0.66375336
0.66396417
0.66414053
0.66431582
0.66446716
0.66461163
0.66474197
0.6648634
0.66497492
0.66507839
0.66517427
0.66526267
0.66534515
0.66543257
0.66552751
0.66559713
0.66563578
0.66568598
0.66575113
0.66580525
0.66584065
0.6658648
0.66586871
0.66586793
0.66584226
0.66583556
0.66574292
0.66577683
0.66575158
0.6658196
0.6656925
0.66575366
0.66567927
0.66577894
0.66573738
0.65901646
0.66022342
0.66038856
0.66084129
0.66097194
0.66130529
0.6615131
0.6617996
0.66202095
0.66231623
0.66254267
0.66283163
0.66305257
0.66331991
0.66353846
0.66377898
0.66397945
0.66417911
0.66435162
0.66451557
0.66466293
0.66479914
0.6649233
0.6650374
0.66514229
0.66523855
0.66532613
0.66541264
0.6655096
0.66559349
0.66563827
0.6656802
0.66574215
0.66579952
0.66583696
0.66586126
0.66586499
0.6658644
0.66583958
0.66583198
0.66573965
0.66577783
0.66575527
0.66581357
0.66568045
0.66574856
0.66568236
0.66578802
0.66574237
0.65851144
0.65977666
0.6598908
0.66039093
0.66051281
0.66088812
0.66109968
0.66142609
0.66165793
0.66199259
0.66223478
0.66255972
0.66279992
0.66309907
0.66333942
0.66360767
0.66383002
0.66405205
0.66424399
0.66442583
0.6645889
0.66473879
0.66487469
0.66499868
0.66511188
0.66521539
0.66530883
0.66539575
0.66549077
0.66558544
0.66564169
0.66567803
0.6657334
0.66579278
0.66583289
0.66585764
0.66586113
0.66586082
0.66583687
0.66582846
0.6657363
0.66577882
0.66575898
0.66580743
0.6656675
0.66574361
0.66568557
0.66579808
0.66574787
0.65802155
0.65935487
0.65941119
0.65996952
0.66007862
0.6605019
0.66071225
0.66108379
0.66132221
0.6616986
0.661953
0.66231408
0.66257044
0.66289994
0.66315886
0.66345276
0.66369457
0.66393674
0.6641461
0.664344
0.66452122
0.66468343
0.66482995
0.66496293
0.66508365
0.66519359
0.66529284
0.66538191
0.66547335
0.66557333
0.66564384
0.66567952
0.66572609
0.66578506
0.66582824
0.6658539
0.66585718
0.6658572
0.66583408
0.665825
0.6657328
0.66577988
0.66576281
0.66580117
0.66565342
0.66573882
0.66568906
0.66580916
0.66575369
0.65754596
0.65895841
0.65894735
0.65957265
0.65966556
0.66014255
0.66034774
0.66076958
0.6610112
0.66143167
0.6616955
0.6620929
0.66236307
0.66272161
0.66299641
0.66331384
0.66357307
0.66383318
0.6640581
0.66427023
0.66446007
0.66463324
0.66478925
0.66493029
0.66505777
0.66517336
0.66527785
0.6653704
0.66545886
0.6655583
0.66564274
0.66568388
0.66572105
0.66577664
0.66582276
0.66584993
0.66585321
0.66585351
0.66583116
0.66582154
0.66572922
0.66578111
0.66576674
0.66579449
0.66563786
0.66573452
0.66569303
0.66582104
0.66575994
0.65708208
0.65858172
0.65849907
0.65919911
0.65927201
0.65981017
0.66000649
0.66048426
0.66072495
0.66119229
0.66146244
0.66189682
0.66217825
0.66256494
0.66285296
0.66319173
0.6634663
0.66374216
0.66398071
0.66420518
0.66440602
0.66458872
0.66475302
0.66490112
0.66503454
0.66515503
0.66526394
0.66536051
0.66544783
0.66554263
0.66563716
0.66568934
0.66571973
0.66576872
0.66581621
0.66584554
0.66584928
0.66584973
0.66582811
0.66581802
0.66572567
0.66578265
0.66577071
0.66578726
0.66562036
0.66573132
0.66569748
0.66583372
0.66576659
0.65663113
0.65821972
0.65806657
0.65885028
0.65889905
0.65950694
0.65968934
0.66022894
0.66046435
0.6609814
0.66125472
0.66172682
0.66201685
0.66243084
0.66272954
0.66308735
0.66337509
0.66366446
0.66391464
0.66414949
0.66435964
0.66455037
0.66472168
0.66487575
0.66501424