/*--------------------------------*- C++ -*----------------------------------*\
| =========                 |                                                 |
| \\      /  F ield         | OpenFOAM: The Open Source CFD Toolbox           |
|  \\    /   O peration     | Version:  2506                                  |
|   \\  /    A nd           | Website:  www.openfoam.com                      |
|    \\/     M anipulation  |                                                 |
\*---------------------------------------------------------------------------*/
FoamFile
{
    version     2.0;
    format      ascii;
    arch        "LSB;label=32;scalar=64";
    class       volScalarField;
    location    "0.0105";
    object      Co;
}
// * * * * * * * * * * * * * * * * * * * * * * * * * * * * * * * * * * * * * //

dimensions      [0 0 0 0 0 0 0];

internalField   nonuniform List<scalar> 
13761
(
0.042921633
0.043133185
0.043318825
0.043478708
0.043613838
0.043723788
0.043809143
0.043870997
0.043908663
0.043922248
0.043911465
0.043875897
0.043815144
0.043729053
0.043615666
0.043474689
0.043301087
0.043081469
0.042784764
0.042376921
0.041843697
0.041185925
0.040410721
0.039527492
0.038543014
0.03745839
0.036267706
0.034957986
0.033505096
0.031870697
0.029999255
0.027804604
0.025153032
0.021849238
0.017692206
0.012771193
0.0075954509
0.0025383905
0.040262007
0.040674591
0.041056681
0.041408358
0.041730499
0.042024193
0.042289702
0.042528262
0.042740347
0.04292666
0.043087298
0.043223301
0.043334159
0.04342047
0.043483415
0.04352223
0.043537037
0.043527536
0.043493305
0.043433956
0.04334942
0.043237612
0.043098489
0.042927617
0.04271558
0.042437291
0.042055506
0.04154821
0.040911235
0.04014931
0.039271883
0.038286961
0.037197065
0.035997489
0.034676349
0.033210044
0.031560672
0.029673849
0.027464721
0.0248024
0.021498892
0.017369786
0.012520395
0.0074429887
0.0024881314
0.039840665
0.040251541
0.040632298
0.040982955
0.041304377
0.041597657
0.041863006
0.042101685
0.042314117
0.042501002
0.042662391
0.042799352
0.042911284
0.042998793
0.043063136
0.043103464
0.043119903
0.043112131
0.043079707
0.04302225
0.042939763
0.042830035
0.042693242
0.042525199
0.042319001
0.042055331
0.04169748
0.041216613
0.040602272
0.039855616
0.038985503
0.038001007
0.036906142
0.035697529
0.034364472
0.032883949
0.031218454
0.02931473
0.027089306
0.024414375
0.021110208
0.01701119
0.012240002
0.0072707367
0.0024304555
0.039367552
0.039774109
0.0401509
0.040497897
0.040815959
0.041106195
0.041368777
0.041604992
0.041815251
0.042000256
0.042160025
0.042295669
0.042406519
0.042493208
0.042557071
0.042597202
0.042613745
0.042606373
0.042574643
0.042518188
0.042437086
0.042329025
0.042194371
0.04202903
0.041827633
0.041575508
0.041239039
0.04078493
0.040195694
0.039467603
0.038608051
0.037626873
0.036529597
0.035314316
0.033971647
0.03247928
0.030800235
0.028882428
0.026643911
0.023960306
0.020661181
0.016601471
0.011921468
0.0070750733
0.0023645585
0.038848777
0.03924912
0.039620084
0.039961602
0.040274535
0.040560005
0.040818155
0.041050297
0.041256829
0.041438456
0.041595167
0.041728104
0.041836544
0.041921132
0.041983274
0.042022006
0.042037485
0.042029379
0.041997235
0.041940699
0.041859907
0.041752465
0.041618896
0.041455129
0.041256739
0.041012475
0.040692927
0.040263459
0.039699995
0.038992701
0.038146334
0.037170905
0.036073353
0.034853339
0.033502912
0.032000629
0.030310142
0.028380579
0.026131685
0.023443009
0.020154593
0.01614398
0.011568708
0.0068594972
0.0022920784
0.037867272
0.038290399
0.038683167
0.039046997
0.03938179
0.03968841
0.039967992
0.040220655
0.040447734
0.040649612
0.040826997
0.040979852
0.041109347
0.041214702
0.041296578
0.041356435
0.041393261
0.041407221
0.041397972
0.041365054
0.041308119
0.041227356
0.041120294
0.040987594
0.040825165
0.040629176
0.040390736
0.040084511
0.039677119
0.039139542
0.038455147
0.03762472
0.036657596
0.035561824
0.034338653
0.032981654
0.031470398
0.029769287
0.027828749
0.025570448
0.022878412
0.019604538
0.015650811
0.011190766
0.0066290976
0.0022145518
0.037283291
0.037697364
0.038081543
0.038437272
0.038764432
0.039063889
0.039336792
0.039583233
0.039804569
0.040001169
0.040173741
0.040322221
0.040447801
0.040549653
0.040628445
0.040685686
0.040720317
0.040732509
0.040721909
0.04068805
0.040630588
0.040549759
0.040443023
0.040311164
0.040150055
0.039956243
0.039722436
0.039426652
0.03903828
0.038525649
0.037865528
0.037053514
0.036097147
0.035005077
0.033780057
0.032417253
0.030897367
0.029185686
0.027234038
0.024966291
0.022271723
0.019015767
0.01512648
0.01079139
0.0063863881
0.0021329299
0.036235594
0.036669704
0.037073874
0.037448666
0.03779555
0.038114383
0.038406035
0.038671664
0.038911342
0.039126438
0.039317309
0.039484663
0.039628409
0.039749756
0.039847833
0.039923311
0.039977742
0.040010024
0.040020334
0.040008309
0.039973474
0.03991549
0.039834636
0.039728308
0.039597402
0.039437744
0.039246136
0.039016363
0.038728962
0.038356566
0.037867028
0.037231648
0.036440075
0.035496798
0.034410309
0.033184619
0.031816522
0.030287945
0.02856523
0.026601749
0.024323963
0.02162737
0.018392896
0.01457587
0.010374742
0.0061339868
0.0020480985
0.035606929
0.036029908
0.0364235
0.036788271
0.037125715
0.037435672
0.037719012
0.037976901
0.03820939
0.038417859
0.038602653
0.038764473
0.038903207
0.039020078
0.039114169
0.039186158
0.03923763
0.039267446
0.039275784
0.039262275
0.039226435
0.03916793
0.039087074
0.038981212
0.038851336
0.038693225
0.038503856
0.038277748
0.037997236
0.037637992
0.037168925
0.036557554
0.035787556
0.034859221
0.033779907
0.032554474
0.03118128
0.029643635
0.027909088
0.025932771
0.023644256
0.020946456
0.017737864
0.014001964
0.0099440072
0.0058742586
0.0019610045
0.034515334
0.034955783
0.035367033
0.035749488
0.036103718
0.036431237
0.036731866
0.037006479
0.037256245
0.037481195
0.037682718
0.037861145
0.038017173
0.038150665
0.038262853
0.038352785
0.038421139
0.038469527
0.038496777
0.03850307
0.038488025
0.038451153
0.038392124
0.038311282
0.038205926
0.038077129
0.037920627
0.037733514
0.037510815
0.037236123
0.036887655
0.036436167
0.035847143
0.035098982
0.034187005
0.033116315
0.031891977
0.030513718
0.028966353
0.027218895
0.025228607
0.022928936
0.02023171
0.017055101
0.013410299
0.0095039737
0.0056101498
0.0018725957
0.033400334
0.033857272
0.034284899
0.034683938
0.035054799
0.035398057
0.035715244
0.036006167
0.036271697
0.036513005
0.036730106
0.036924393
0.037096181
0.037246161
0.037374177
0.037481463
0.037567035
0.037631569
0.037676699
0.037701222
0.037705319
0.037688601
0.037650572
0.037590903
0.037509964
0.037405014
0.037277194
0.037122193
0.036937186
0.036717549
0.036447739
0.036107986
0.035671095
0.035101901
0.034374712
0.03347967
0.032418594
0.031195918
0.02981244
0.02825453
0.026493043
0.024487894
0.02217744
0.019484281
0.016348205
0.012805764
0.0090587355
0.0053443248
0.0017838145
0.032267104
0.032739435
0.033182523
0.033596918
0.033983356
0.034342255
0.034674193
0.034980716
0.035261615
0.035517759
0.035750318
0.035959287
0.036146061
0.03631094
0.036454606
0.03657688
0.036679001
0.03675995
0.036820399
0.036861999
0.03688352
0.036885137
0.036866454
0.036826966
0.036766346
0.036684983
0.036580097
0.036452887
0.036298996
0.036115646
0.035898458
0.035632475
0.035299462
0.034874148
0.034321609
0.033613389
0.032734837
0.031683786
0.030463136
0.029074267
0.027505202
0.025729044
0.023709105
0.021389964
0.018706906
0.015622296
0.012194325
0.0086135058
0.0050802748
0.0016959781
0.031607136
0.032064681
0.032493597
0.03289445
0.033267995
0.033614654
0.03393501
0.034230614
0.034501247
0.034747768
0.034971346
0.035171955
0.035350983
0.035508717
0.035645824
0.035762104
0.035858791
0.035934836
0.035990904
0.036028653
0.036046827
0.036045596
0.036024554
0.035983184
0.035921157
0.035838874
0.035733523
0.03560634
0.035452921
0.035270511
0.03505489
0.0347915
0.034463266
0.034046576
0.033507243
0.032815206
0.031951846
0.030910763
0.029692514
0.028298452
0.026718205
0.02492765
0.022894459
0.020570968
0.017906888
0.01488693
0.011584939
0.0081745061
0.0048216746
0.0016103263
0.030465078
0.030936073
0.031378621
0.031793165
0.032180288
0.032540756
0.032874999
0.033183599
0.033468116
0.033728315
0.033965052
0.034179486
0.034371575
0.0345427
0.034693127
0.034823509
0.034933621
0.035024688
0.035095631
0.035147099
0.035180752
0.035195305
0.035190919
0.03516717
0.035123533
0.035059667
0.034975981
0.034869626
0.034741866
0.034588246
0.034406013
0.034191042
0.033929035
0.033603789
0.033193069
0.032663618
0.031984651
0.031134583
0.030103039
0.028887711
0.027489358
0.025899069
0.024096033
0.022053323
0.019732515
0.01709884
0.014157086
0.01098999
0.0077502352
0.0045729183
0.0015280878
0.02931721
0.029801083
0.030256452
0.030683997
0.031084177
0.031457585
0.031804996
0.032126837
0.032423689
0.032697111
0.032946856
0.033173768
0.033379002
0.033562499
0.033725632
0.033868654
0.033992205
0.034096043
0.034181384
0.034247122
0.034293896
0.034323364
0.034334214
0.034326592
0.034300059
0.034254068
0.034188265
0.034103053
0.033995547
0.033867017
0.033712952
0.033530573
0.033315797
0.033054487
0.032731079
0.032324469
0.031802357
0.031133829
0.030295282
0.029272946
0.028061524
0.026660651
0.025062694
0.023250504
0.0212035
0.018893661
0.016301764
0.013449102
0.010420759
0.0073471576
0.0043372599
0.0014502835
0.028167634
0.028663234
0.029131072
0.029571061
0.029983902
0.030370068
0.030730161
0.031064954
0.03137487
0.031660475
0.031923317
0.032163124
0.032380723
0.032577245
0.032752604
0.032908157
0.033044134
0.033161158
0.033258966
0.033338766
0.033399433
0.033441602
0.033466935
0.033474107
0.033463265
0.03343397
0.03338567
0.033318011
0.033231407
0.033122941
0.032993896
0.032839711
0.032657577
0.032443413
0.032183159
0.031861722
0.031458891
0.030943238
0.030284032
0.029456407
0.028443925
0.027238475
0.025838332
0.024236788
0.02242044
0.020375516
0.01808472
0.015543177
0.012784449
0.0098908086
0.0069718918
0.0041168344
0.0013771356
0.027017176
0.02752384
0.028002927
0.028454952
0.028879859
0.029278382
0.029651018
0.029998381
0.030321258
0.030620069
0.030895375
0.03114872
0.031379813
0.031589458
0.031778766
0.031947616
0.032097338
0.032228124
0.032340559
0.032434334
0.032510625
0.032568252
0.032607811
0.032630939
0.032636268
0.032623908
0.032593387
0.03254413
0.032475761
0.032388689
0.032279959
0.032150867
0.031996784
0.031814854
0.031600986
0.031341105
0.031020484
0.030619688
0.030108097
0.029455432
0.028636235
0.027632255
0.026433134
0.025035858
0.023434491
0.02161914
0.019582776
0.01731819
0.014832625
0.012167589
0.0094001576
0.0066226417
0.0039094699
0.0013075079
0.025849617
0.026364068
0.026851603
0.027312106
0.027746131
0.028153656
0.028535443
0.028892004
0.029223972
0.029532138
0.029816929
0.030078907
0.030319611
0.030538746
0.030737109
0.030915803
0.0310747
0.03121512
0.031337249
0.031441665
0.031528057
0.031597589
0.031649084
0.031683136
0.031701377
0.031702435
0.031686428
0.031652884
0.031601227
0.031531081
0.031442849
0.031333574
0.031204524
0.031051038
0.030870194
0.03065783
0.030399886
0.030081867
0.029684907
0.029179166
0.028534952
0.027726678
0.026735017
0.025548071
0.024161888
0.022571369
0.020770101
0.018757369
0.016534936
0.014119463
0.011556864
0.0089173902
0.0062790242
0.0037053739
0.0012388729
0.024680148
0.025200661
0.025694596
0.026162097
0.026603097
0.02701819
0.027407395
0.027771498
0.028111038
0.028426663
0.028719177
0.028989016
0.029236748
0.029463906
0.029670203
0.02985643
0.030023679
0.030171822
0.030302163
0.030414882
0.030510544
0.030588836
0.030650904
0.030695575
0.030723424
0.030736059
0.030732121
0.030711707
0.030674343
0.030619451
0.030546647
0.030456313
0.030345498
0.030215418
0.030061391
0.02988042
0.029668249
0.029410858
0.029093956
0.028699205
0.028197601
0.027560274
0.026762018
0.025783167
0.02461103
0.023241232
0.021669715
0.019893346
0.017917006
0.015749862
0.01341542
0.010960852
0.0084493486
0.0059470797
0.0035086053
0.0011727827
0.024043437
0.024542744
0.02501593
0.025463195
0.02588453
0.026280571
0.02665138
0.026997772
0.027320313
0.027619669
0.027896659
0.028151729
0.028385454
0.028599358
0.028793158
0.028967639
0.029123878
0.029261742
0.029382511
0.029486353
0.029573815
0.029644573
0.029699744
0.02973815
0.02976035
0.029767909
0.029759466
0.02973511
0.029694347
0.029636592
0.029561444
0.029469259
0.029357091
0.029226092
0.029071558
0.028890414
0.028678292
0.028421208
0.028105053
0.027711963
0.027213819
0.026582687
0.025794023
0.024828333
0.023672757
0.022322929
0.020775984
0.019031759
0.017099789
0.014995066
0.012745392
0.010397542
0.0080079424
0.0056334881
0.0033224249
0.0011101789
0.022896352
0.023400138
0.023878148
0.02433053
0.024757544
0.025159237
0.025536288
0.025888802
0.026217623
0.026523342
0.026806642
0.027068354
0.027308932
0.027528955
0.027729932
0.027911586
0.028074688
0.028220296
0.02834827
0.028459863
0.028555228
0.028634889
0.02869851
0.028747181
0.028779722
0.028796662
0.028799537
0.02878698
0.028759064
0.028715287
0.028655053
0.02857795
0.028484304
0.028371176
0.028239651
0.028085005
0.027904081
0.027692394
0.02743599
0.027120929
0.026729804
0.026235348
0.025610613
0.024831924
0.023880334
0.022743231
0.02141666
0.019898992
0.018192705
0.016311085
0.014273231
0.012109639
0.0098654624
0.00759138
0.0053372298
0.003145985
0.0010506516
0.021763067
0.022270201
0.022752294
0.023209074
0.023640754
0.024047656
0.024429879
0.024788147
0.025122605
0.025434122
0.025723312
0.025990873
0.026237642
0.02646408
0.026670763
0.026859184
0.02702907
0.027181173
0.027316529
0.027434992
0.027537782
0.027625036
0.027697258
0.027754099
0.027796615
0.027823631
0.027835649
0.02783416
0.02781781
0.027786648
0.027740168
0.027677766
0.027599017
0.027504218
0.027390442
0.027258696
0.027104249
0.026923849
0.026712895
0.026457476
0.026143806
0.025754917
0.025264395
0.024646331
0.023878053
0.022941401
0.021824382
0.0205237
0.019039064
0.017375189
0.01554827
0.013580296
0.011502908
0.0093593191
0.007195225
0.0050549741
0.0029777091
0.0009938462
0.020646546
0.021156105
0.021641284
0.022101846
0.022537593
0.022948805
0.02333586
0.023698911
0.02403872
0.02435547
0.024650052
0.024923098
0.025175318
0.025407551
0.025620264
0.025814025
0.025990307
0.026148838
0.026290354
0.026415863
0.026525211
0.026619584
0.026699106
0.026764255
0.026814673
0.026851381
0.026873206
0.026880631
0.0268751
0.026855266
0.026821164
0.026772279
0.026708004
0.026627902
0.026532234
0.026418095
0.026286412
0.02613244
0.025952838
0.02574289
0.025488731
0.02517673
0.024790338
0.024304021
0.023692932
0.022935483
0.022014528
0.020918935
0.019646285
0.018197611
0.016579556
0.014810458
0.012914142
0.010922554
0.0088765945
0.0068177871
0.0047860407
0.002817116
0.00093952645
0.019549185
0.020060403
0.02054787
0.021011336
0.021450644
0.02186567
0.022256757
0.022624337
0.022968613
0.023290381
0.023589858
0.023867956
0.024125318
0.024362664
0.024580829
0.024780282
0.024961587
0.025126187
0.025273812
0.025405179
0.025521269
0.025621919
0.025708281
0.02578046
0.025838912
0.02588327
0.02591452
0.0259315
0.02593466
0.025925403
0.025902395
0.025865651
0.025814655
0.02574879
0.02566761
0.025571347
0.025457108
0.025325734
0.025172485
0.024993917
0.024785194
0.024532522
0.024222426
0.023838796
0.023356969
0.022753199
0.02200708
0.02110257
0.020029579
0.018786673
0.01737616
0.015806292
0.014096942
0.012272995
0.010366056
0.0084146755
0.0064568547
0.0045288585
0.00266353
0.00088758024
0.018473235
0.01898508
0.019474179
0.019939858
0.020381952
0.020800379
0.021195091
0.021566488
0.021915052
0.022241032
0.022545253
0.022827965
0.02309009
0.023332286
0.023555273
0.023759885
0.023946586
0.024115932
0.024269337
0.024406532
0.02452821
0.024635325
0.024727705
0.024806466
0.024871695
0.024923827
0.024962488
0.024988625
0.025001085
0.025000294
0.024987609
0.024961711
0.024922597
0.024869745
0.024802539
0.024720519
0.024623886
0.02450977
0.024378919
0.024226587
0.024049244
0.023841932
0.023590939
0.023282957
0.022902319
0.022425261
0.021829148
0.021094791
0.02020736
0.019157889
0.017946004
0.016575218
0.015055105
0.013406587
0.011655012
0.0098312468
0.0079716319
0.0061109273
0.0042823006
0.0025162896
0.00083778044
0.017420214
0.017932082
0.018421888
0.018889223
0.019333505
0.019754651
0.020152657
0.02052754
0.020879757
0.021209833
0.021518061
0.02180529
0.022071797
0.022318514
0.022546105
0.02275529
0.022946896
0.023121381
0.023279291
0.023422008
0.023549263
0.023661726
0.023760319
0.023844862
0.023916435
0.023975111
0.024021296
0.024054611
0.024075967
0.02408422
0.024079774
0.024063937
0.024035404
0.023994161
0.023939681
0.023871344
0.02378868
0.023691856
0.023578026
0.023447849
0.023296577
0.023120585
0.022914799
0.02266561
0.022359895
0.021982431
0.02151036
0.020922191
0.020199973
0.019330144
0.018304953
0.017125095
0.015795198
0.014325904
0.012738754
0.011059115
0.0093168595
0.0075461268
0.0057790004
0.0040459912
0.0023753248
0.00079016493
0.016902599
0.017392601
0.01786076
0.018306759
0.018730108
0.019130805
0.019508913
0.019864518
0.020198123
0.020510296
0.020801367
0.021072203
0.021323108
0.021555016
0.021768594
0.02196456
0.02214373
0.022306555
0.022453569
0.022586118
0.022703932
0.022807659
0.022898188
0.022975331
0.02304013
0.023092641
0.023133248
0.023161563
0.023178463
0.023182818
0.023175003
0.023156281
0.023125362
0.02308222
0.023026322
0.022957048
0.022873921
0.022777069
0.022663671
0.022534291
0.022384183
0.022209635
0.022005468
0.021758181
0.021454857
0.02108073
0.020613871
0.020033947
0.019324269
0.018472563
0.017472296
0.016325213
0.015036961
0.01361901
0.012093206
0.010484634
0.0088219914
0.0071373814
0.0054604284
0.00381933
0.0022403029
0.00074463287
0.015897811
0.01638725
0.0168558
0.017302768
0.017727924
0.018130867
0.018511669
0.018870461
0.019207387
0.019522996
0.019817892
0.020092436
0.020347513
0.020583445
0.020801166
0.021001345
0.021184693
0.021352011
0.021503743
0.021640407
0.021763314
0.021872193
0.021967665
0.022050587
0.022120765
0.022179201
0.022225935
0.022261328
0.02228499
0.022297754
0.022298508
0.022287601
0.022266251
0.022233185
0.02218836
0.022131248
0.022061223
0.021977796
0.021881064
0.021768235
0.02163977
0.021490925
0.021317906
0.021115435
0.020870143
0.020569342
0.020198744
0.019737354
0.019165987
0.018469238
0.017636131
0.016661346
0.015547642
0.014301566
0.012935227
0.011470516
0.0099319817
0.0083470509
0.0067458139
0.0051557027
0.0036027871
0.0021113436
0.00070113658
0.014918771
0.01540675
0.015875013
0.016322587
0.016748874
0.017153732
0.017536845
0.017898353
0.01823845
0.018557336
0.018855598
0.019133871
0.019392546
0.019632518
0.019854123
0.020058295
0.020245698
0.020417034
0.020573089
0.020714296
0.020841158
0.020954947
0.021055389
0.021143082
0.02121885
0.021282491
0.021334967
0.021376307
0.021406845
0.021426186
0.021435131
0.021432578
0.021418857
0.021395135
0.021360163
0.021313881
0.021255759
0.021185175
0.021101629
0.021005177
0.020893055
0.020765634
0.020618167
0.020446776
0.020246099
0.02000292
0.019704796
0.019337934
0.0188823
0.018319863
0.017636489
0.01682247
0.015873669
0.014793784
0.013590136
0.01227529
0.010870977
0.009401071
0.0078916701
0.0063709292
0.0048643193
0.0033959659
0.0019882833
0.00065966395
0.013966119
0.014451976
0.01491913
0.015366701
0.015793821
0.016199986
0.016585135
0.016949032
0.017291882
0.017613939
0.01791545
0.018197037
0.018459362
0.01870284
0.018928372
0.019136308
0.019327573
0.019502825
0.019662755
0.019808134
0.019939379
0.020056976
0.020162162
0.020254658
0.020335035
0.020404088
0.020461604
0.020508509
0.020544814
0.020570834
0.020586169
0.020591584
0.020585991
0.020569697
0.020543825
0.020507147
0.020459587
0.020400616
0.020329609
0.020246062
0.020149996
0.020038664
0.019912346
0.0197663
0.019596572
0.019397723
0.019156715
0.018861368
0.018498409
0.018048769
0.017495569
0.01682591
0.016031343
0.015108865
0.014063031
0.012901827
0.011638128
0.010293345
0.0088905361
0.0074544667
0.0060115094
0.0045852641
0.0031980666
0.0018706819
0.00062008601
0.013523358
0.013988806
0.014435621
0.014863026
0.015270253
0.015656887
0.016022948
0.016368273
0.016693128
0.016997819
0.017282638
0.017548237
0.017795299
0.018024258
0.018236019
0.01843094
0.018609936
0.018773657
0.018922782
0.019058059
0.019179896
0.019288757
0.019385839
0.019470864
0.019544376
0.019607134
0.01965892
0.019700624
0.019732242
0.019754064
0.01976569
0.019767849
0.01975947
0.019740837
0.019713026
0.019674831
0.019626167
0.019566498
0.019495207
0.019411777
0.019316195
0.019205739
0.01908059
0.018936017
0.018767996
0.018571021
0.018332251
0.018039808
0.017680942
0.017237546
0.016693895
0.016038324
0.015263584
0.014367743
0.013356132
0.012237278
0.011024225
0.0097379378
0.0084005996
0.0070356283
0.0056677019
0.0043186737
0.0030092129
0.0017585645
0.000582387
0.012621307
0.01308431
0.013529829
0.013956825
0.014364621
0.014752546
0.015120271
0.015467887
0.015795304
0.016102843
0.016390855
0.016659673
0.016909975
0.017142459
0.017357576
0.017556229
0.017738782
0.017906139
0.018058937
0.018197841
0.018323578
0.01843654
0.018537174
0.018626638
0.018704647
0.018771723
0.018828592
0.018875029
0.018911884
0.018939141
0.018957069
0.018965264
0.01896442
0.018953484
0.018932718
0.018903156
0.018863606
0.018813979
0.018753739
0.018682262
0.018599029
0.018503989
0.018394448
0.018270494
0.018127395
0.017961073
0.017765975
0.017529473
0.017240008
0.016885382
0.016448465
0.015914666
0.015273501
0.014518884
0.013649898
0.012672567
0.011595845
0.010432829
0.0092039333
0.0079303962
0.0066343187
0.0053387809
0.0040639653
0.0028289886
0.0016517091
0.00054650489
0.011746147
0.012205941
0.012649483
0.013075585
0.013483314
0.013872087
0.014241324
0.01459078
0.014920615
0.015230802
0.015521712
0.015793739
0.016047252
0.016282946
0.016501534
0.016703478
0.016889676
0.017060496
0.017216825
0.017359289
0.017488535
0.017605268
0.017709865
0.017802754
0.017885051
0.017956472
0.018017511
0.018068862
0.018110294
0.018142621
0.018165814
0.018180122
0.018185137
0.018181522
0.018168239
0.018145529
0.018114384
0.018073633
0.018023173
0.017962472
0.017890905
0.017807944
0.017713505
0.017604913
0.017482165
0.017340546
0.017175914
0.01698269
0.016748488
0.016462082
0.016111853
0.015681635
0.015157954
0.0145315
0.013797289
0.012955325
0.012012233
0.010977315
0.0098636179
0.008690916
0.0074794815
0.0062501086
0.0050243077
0.0038207903
0.0026572171
0.001550018
0.00051240415
0.01089819
0.011353939
0.011794799
0.012219389
0.012626622
0.013015667
0.013386032
0.013737226
0.014069082
0.01438182
0.014675477
0.014950467
0.015207222
0.015446139
0.015667932
0.01587332
0.016062774
0.016237185
0.016396919
0.016542848
0.016675581
0.016795746
0.016904028
0.017000783
0.017086422
0.01716202
0.017227289
0.017282697
0.017328909
0.017365686
0.017393808
0.017413233
0.01742419
0.01742627
0.017420105
0.017404675
0.017380202
0.017347635
0.017305829
0.017254667
0.01719362
0.017122067
0.017039466
0.016945703
0.016838124
0.016716632
0.01657653
0.016413631
0.016222334
0.01599052
0.015707327
0.015361711
0.014938476
0.014425244
0.013813803
0.013100225
0.012285365
0.011376362
0.010382745
0.0093174314
0.0081995167
0.0070482658
0.005883222
0.0047244328
0.0035891912
0.002493794
0.0014533724
0.0004800332
0.010528576
0.010965986
0.011388423
0.011794609
0.012183563
0.012554547
0.01290716
0.013240995
0.013555956
0.013852323
0.014130188
0.014390006
0.014632239
0.014857313
0.015065952
0.015258882
0.015436579
0.015599922
0.015749276
0.015885493
0.016009169
0.01612091
0.016221377
0.016310911
0.0163899
0.016459381
0.016519061
0.016569382
0.016610978
0.016643603
0.016668
0.016684114
0.016692156
0.016691712
0.016683384
0.016666166
0.01664026
0.016606573
0.016563981
0.016512358
0.016451172
0.016379808
0.016297715
0.016204739
0.016098255
0.015978077
0.015839519
0.015678368
0.015489027
0.015259647
0.014979747
0.014638882
0.014222811
0.013720218
0.013123949
0.012431042
0.011643125
0.010767759
0.0098146166
0.0087963918
0.0077314585
0.0066381021
0.005534653
0.0044397826
0.0033694869
0.0023388184
0.0013617318
0.00044934498
0.0097296628
0.010162811
0.010582333
0.010986834
0.01137514
0.011746368
0.012099876
0.012435344
0.012752444
0.01305115
0.013331794
0.013594518
0.013839812
0.014068168
0.014280032
0.014476135
0.014657206
0.014823723
0.014976552
0.015116055
0.015243061
0.015358151
0.015461909
0.015554973
0.015637665
0.015710353
0.015774035
0.015828416
0.015873912
0.015911128
0.01593981
0.01596067
0.015973642
0.015978917
0.015976081
0.015965707
0.015946806
0.015919563
0.015884849
0.015841557
0.015789556
0.015728316
0.015657218
0.015575707
0.015483602
0.015378293
0.015259513
0.015122597
0.014963301
0.014776048
0.014549294
0.01427295
0.013937168
0.013528648
0.013037099
0.012456377
0.011784411
0.011023516
0.010181585
0.0092683619
0.0082962592
0.0072829067
0.0062456072
0.0052015301
0.0041680615
0.0031599777
0.0021911707
0.0012745007
0.0004201597
0.0089571839
0.0093851588
0.0098009888
0.010203079
0.010590134
0.010961084
0.011315141
0.011651749
0.011970671
0.012271654
0.012554731
0.012820286
0.013068504
0.013299906
0.013515008
0.013714272
0.013898436
0.014068226
0.014224119
0.014366969
0.014497128
0.014615407
0.014722366
0.01481857
0.014904632
0.014980856
0.015047592
0.015105799
0.015155177
0.015196122
0.015229207
0.015254175
0.015271706
0.015281722
0.015284397
0.015279319
0.015267031
0.015246564
0.015218084
0.015182424
0.015138501
0.015086173
0.015024917
0.014954115
0.014873203
0.014781965
0.014677816
0.014560408
0.014425102
0.014267641
0.014082482
0.013858399
0.013585727
0.013255217
0.012854498
0.012374279
0.011809368
0.011158525
0.010424675
0.0096159686
0.0087421435
0.0078152851
0.0068522444
0.0058693599
0.004882678
0.0039083481
0.0029600011
0.0020504318
0.0011914599
0.00039240983
0.008633325
0.009044614
0.0094435764
0.0098287193
0.010198849
0.010552993
0.010890455
0.011210765
0.011513759
0.011799255
0.012067345
0.012318454
0.012552809
0.012770957
0.012973433
0.013160713
0.013333537
0.013492626
0.013638456
0.013771862
0.013893192
0.014003231
0.014102523
0.014191611
0.014271083
0.014341229
0.014402376
0.014455447
0.014500139
0.014536826
0.014566054
0.014587559
0.01460199
0.014609262
0.014609531
0.014602386
0.014588343
0.014566447
0.014536853
0.014500356
0.014455892
0.014403314
0.014342101
0.014271635
0.014191346
0.014100985
0.013997994
0.013881943
0.013748219
0.013592568
0.01340951
0.01318815
0.012919257
0.012594198
0.012201512
0.011732863
0.01118397
0.010554359
0.0098474797
0.0090716675
0.0082365905
0.0073539581
0.0064398349
0.0055096065
0.0045782375
0.0036607057
0.0027695624
0.0019165701
0.0011125765
0.0003660837
0.0079072183
0.0083131212
0.0087081438
0.009090694
0.0094593799
0.0098131062
0.010150994
0.010472437
0.010777046
0.011064725
0.011335359
0.011589093
0.011826388
0.012047511
0.01225303
0.012443494
0.012619391
0.012781459
0.012930413
0.013066724
0.013191211
0.013304211
0.013406489
0.013498566
0.013580968
0.013654256
0.013718704
0.013774621
0.013822891
0.013863211
0.013895932
0.013921571
0.013939865
0.013951428
0.013956167
0.013954222
0.013945184
0.013929541
0.01390636
0.013875775
0.013838549
0.01379364
0.013740889
0.013679781
0.013609702
0.013530074
0.013440612
0.01333878
0.013224081
0.013091937
0.012938102
0.012757177
0.012538614
0.012273639
0.011954231
0.011569829
0.01111302
0.010580355
0.0099720523
0.0092920235
0.0085487232
0.0077516872
0.0069122091
0.0060455614
0.0051661921
0.0042880324
0.0034249508
0.0025884813
0.0017894272
0.001037724
0.00034112554
0.00720686
0.0076064747
0.0079967518
0.0083759393
0.0087425438
0.0090952718
0.0094331233
0.0097553116
0.010061313
0.010350817
0.010623792
0.010880184
0.011120185
0.011344292
0.011552803
0.011746303
0.011925356
0.012090457
0.012242338
0.012381708
0.012509032
0.012625108
0.012730265
0.012825243
0.012910546
0.012986676
0.013054174
0.013113293
0.013164325
0.013208119
0.013244368
0.013273402
0.013295713
0.013311033
0.013319948
0.013322356
0.013318381
0.013307617
0.013290524
0.013266188
0.013234728
0.013196871
0.0131516
0.013098749
0.013037803
0.012968147
0.012889199
0.012800649
0.01269998
0.012586619
0.012456043
0.012304019
0.01212525
0.011909566
0.011648655
0.011335104
0.01095922
0.01051447
0.0099981987
0.0094112439
0.0087579047
0.0080466718
0.0072869086
0.0064894683
0.0056688265
0.0048385209
0.0040114929
0.0032005693
0.002416332
0.0016686841
0.00096671589
0.00031747627
0.0069246538
0.0073093188
0.0076843763
0.0080481696
0.0083993017
0.008736576
0.0090590852
0.00936613
0.0096572681
0.0099322589
0.010191135
0.010433895
0.010660777
0.010872309
0.011068814
0.011250894
0.01141912
0.011573993
0.01171624
0.011846559
0.011965406
0.012073561
0.012171342
0.012259466
0.012338416
0.012408673
0.012470753
0.012524896
0.012571372
0.012610997
0.012643462
0.012669076
0.012688304
0.012700876
0.01270735
0.012707616
0.012701784
0.012689447
0.012671044
0.012645678
0.012613454
0.012575064
0.012529512
0.012476627
0.012415895
0.012346707
0.01226847
0.012180842
0.012081339
0.011969319
0.011840306
0.011690113
0.011513553
0.011300843
0.011044149
0.010736661
0.010369541
0.0099370836
0.009437357
0.0088717572
0.0082448931
0.0075652494
0.0068419597
0.0060854118
0.0053092906
0.0045262527
0.0037483009
0.0029872765
0.0022528691
0.0015541459
0.00089941442
0.00029508047
0.0062676406
0.0066457846
0.007015879
0.0073761298
0.0077249748
0.0080611121
0.0083834391
0.0086911381
0.0089835939
0.0092604405
0.0095215052
0.0097668768
0.0099966062
0.01021097
0.010410523
0.010595612
0.01076685
0.010924815
0.01107001
0.011203154
0.011324933
0.011435795
0.011536497
0.011627349
0.011709041
0.011782038
0.0118468
0.011903819
0.011953317
0.011995549
0.012031294
0.012060243
0.012082685
0.01209906
0.012109095
0.012113321
0.01211162
0.01210409
0.012090326
0.012070741
0.012044455
0.012011562
0.011972723
0.01192696
0.011874097
0.011813623
0.01174493
0.011667421
0.011580724
0.011482376
0.011371687
0.01124423
0.011095873
0.010921563
0.010711921
0.010459595
0.010158381
0.0098002474
0.0093802841
0.0088972215
0.0083529421
0.0077523022
0.0071037237
0.0064160731
0.0056992567
0.0049661822
0.0042286575
0.0034977869
0.0027844858
0.0020976201
0.0014454723
0.00083562228
0.00027387606