/*--------------------------------*- C++ -*----------------------------------*\
| =========                 |                                                 |
| \\      /  F ield         | OpenFOAM: The Open Source CFD Toolbox           |
|  \\    /   O peration     | Version:  2506                                  |
|   \\  /    A nd           | Website:  www.openfoam.com                      |
|    \\/     M anipulation  |                                                 |
\*---------------------------------------------------------------------------*/
FoamFile
{
    version     2.0;
    format      ascii;
    arch        "LSB;label=32;scalar=64";
    class       volScalarField;
    location    "2.7";
    object      Cp;
}
// * * * * * * * * * * * * * * * * * * * * * * * * * * * * * * * * * * * * * //

dimensions      [0 0 0 0 0 0 0];

internalField   nonuniform List<scalar> 
1375
(
0.023423649
0.023604353
0.023760578
0.023924235
0.024052232
0.024164543
0.024294539
0.024526166
0.024838565
0.023421212
0.0236023
0.023757844
0.023921289
0.024050717
0.024161553
0.024289185
0.024520639
0.024829799
0.025181
0.023419088
0.023600759
0.02375562
0.023919257
0.024050378
0.024157273
0.024288674
0.024513756
0.024823714
0.025178185
0.023418534
0.023599429
0.023753854
0.023917181
0.024049793
0.024152945
0.024287452
0.024505842
0.024818143
0.025174091
0.023419632
0.023598265
0.02375183
0.023914136
0.024049266
0.024149982
0.024281368
0.024499969
0.024811566
0.02516723
0.0234221
0.023597153
0.023748888
0.023910996
0.024047858
0.024145835
0.024274654
0.024492953
0.024804694
0.025157473
0.023425267
0.023595992
0.02374497
0.023907951
0.024045302
0.024141155
0.024267226
0.024483668
0.024796672
0.025147237
0.023428791
0.02359522
0.023739361
0.023905972
0.024041656
0.024134445
0.024258067
0.024473208
0.024784198
0.025142279
0.023433661
0.023588604
0.023734707
0.023904593
0.024035379
0.024127452
0.024246602
0.024468584
0.024763788
0.025144187
0.023436829
0.023579075
0.023732381
0.023902614
0.024027067
0.024122099
0.024234142
0.024456926
0.024748569
0.025140864
0.023435631
0.023572958
0.0237271
0.023901817
0.024019553
0.024115205
0.024221913
0.024434461
0.024745652
0.025122352
0.023433834
0.02356393
0.023721668
0.023899105
0.024012912
0.024107415
0.02421014
0.024414122
0.024736338
0.025101963
0.025418629
0.023431051
0.023554702
0.023718215
0.023893376
0.024006233
0.024099807
0.024197415
0.024395277
0.024721155
0.025090214
0.025397337
0.023427055
0.023545264
0.023713932
0.023885456
0.024001814
0.024094325
0.024182194
0.024379746
0.024703939
0.025075632
0.025368414
0.023421701
0.023535831
0.023707554
0.023874615
0.024000333
0.02409233
0.024166174
0.024363792
0.02468267
0.025049828
0.025342916
0.023415798
0.023525906
0.023696892
0.023863551
0.023995567
0.024097927
0.024151392
0.024342716
0.024657079
0.025018268
0.025312763
0.023408662
0.023516254
0.023682104
0.023850744
0.023988524
0.024105375
0.024143528
0.024316172
0.024625635
0.024979283
0.025273774
0.023399774
0.023507646
0.023664748
0.023835736
0.023979721
0.024107426
0.024145657
0.024286437
0.024588132
0.024932457
0.025222967
0.023391296
0.02349961
0.023645319
0.02381666
0.023971563
0.024103119
0.024153733
0.024256145
0.024544251
0.024882614
0.025156091
0.023386029
0.023491099
0.02362387
0.023795353
0.023962592
0.024092833
0.024162322
0.024227594
0.024490573
0.024826899
0.02508654
0.023386941
0.023480244
0.023601094
0.023773294
0.023951081
0.024078379
0.024164824
0.024202317
0.024431507
0.024765738
0.025015599
0.023393303
0.023467099
0.023576872
0.023751268
0.023939504
0.024057988
0.024155778
0.024176272
0.024365853
0.02469996
0.024957613
0.02339662
0.023454474
0.023550046
0.023732338
0.023923528
0.024032226
0.024145933
0.02415595
0.024292507
0.024615545
0.024905659
0.023390456
0.023441175
0.023524774
0.023708495
0.023897494
0.024002194
0.024130812
0.024164295
0.024211651
0.02450535
0.024820022
0.023377538
0.023423695
0.023503118
0.023686767
0.023859785
0.023969099
0.024105735
0.02420051
0.024169831
0.024304794
0.024717043
0.023356655
0.02341583
0.023479909
0.023630381
0.023807868
0.023936984
0.02406338
0.02420594
0.024196419
0.024159117
0.024549213
0.024788313
0.023336658
0.023399177
0.023457841
0.023576386
0.023743183
0.023899906
0.024006861
0.024123625
0.02414209
0.024156837
0.024387172
0.024645902
0.023303665
0.023379982
0.02343541
0.023530946
0.023668804
0.023847634
0.023965238
0.024070151
0.024123251
0.024106978
0.024188452
0.024480357
0.023253993
0.023351722
0.023419481
0.023461276
0.023617125
0.023765201
0.023890046
0.023994141
0.024086897
0.024086778
0.02404047
0.024253925
0.023261979
0.023316276
0.023378218
0.023427656
0.023544878
0.023651717
0.023793432
0.023905416
0.023980934
0.024053198
0.02399852
0.023995197
0.023248031
0.02333405
0.023351646
0.023402333
0.023470131
0.023535508
0.023663072
0.023812207
0.023903425
0.023962279
0.023895254
0.023822902
0.023201087
0.023306972
0.023332719
0.023384214
0.023414897
0.023453486
0.023521352
0.02364527
0.023792448
0.02382099
0.023754116
0.023716913
0.023714751
0.023194849
0.02325178
0.023322195
0.023396755
0.023378689
0.023382267
0.023402803
0.023474688
0.023572271
0.023643515
0.023676746
0.023631785
0.023548456
0.023189245
0.023198038
0.023285695
0.023367455
0.023367555
0.023334437
0.023308475
0.023329112
0.023361009
0.023403353
0.023480825
0.023456484
0.023350064
0.023180085
0.023180569
0.023220946
0.023295903
0.023320145
0.023310922
0.023244659
0.023208129
0.023205045
0.023192669
0.023205371
0.023193728
0.023158115
0.02312771
0.023162106
0.023173101
0.023187722
0.023202081
0.023243843
0.023254288
0.023223846
0.02315056
0.023080107
0.023051095
0.023011078
0.022975839
0.022959349
0.02288719
0.023139768
0.023147155
0.023138596
0.023124019
0.023114569
0.023133081
0.023129647
0.023095338
0.023032125
0.022959991
0.022852422
0.022782328
0.022769933
0.0226922
0.023092043
0.023121181
0.023100184
0.023056051
0.023032152
0.023000954
0.022982791
0.022959209
0.022939502
0.022932489
0.022832023
0.022738242
0.022663178
0.022570603
0.022532704
0.023004997
0.023063445
0.023068199
0.023027708
0.02295816
0.022857031
0.022796421
0.02276262
0.022783809
0.022756792
0.022713941
0.022685022
0.022632183
0.022579296
0.022504207
0.022953574
0.022958001
0.022978838
0.022972181
0.022920662
0.022820526
0.022724208
0.022652869
0.02260382
0.022543176
0.022536023
0.022563051
0.022536061
0.02254304
0.022528956
0.022512829
0.022874178
0.022829622
0.022777038
0.022735833
0.022730837
0.022684165
0.022626126
0.022580004
0.022517428
0.02244367
0.022424093
0.022374688
0.022344222
0.022403685
0.022400935
0.022367374
0.022352155
0.02283396
0.022797699
0.022727601
0.022669044
0.02261304
0.02256687
0.022540256
0.022516251
0.022474648
0.022431502
0.022378307
0.022330985
0.022375511
0.022330566
0.022262221
0.022286918
0.022310353
0.022710314
0.022639232
0.022587746
0.022542549
0.022503261
0.02246701
0.022446125
0.022421812
0.022396663
0.022356701
0.022323921
0.022322038
0.022275355
0.022207281
0.022254393
0.022212374
0.022156385
0.022160519
0.02271418
0.022612536
0.02253993
0.022491824
0.022455008
0.022433662
0.022418822
0.022405198
0.022393165
0.022376269
0.022360515
0.022347227
0.022333639
0.02231705
0.022291995
0.022250014
0.022255849
0.022197093
0.022142518
0.022741652
0.022678103
0.02259699
0.022507746
0.022424874
0.022350823
0.022289105
0.022254199
0.022233816
0.022223877
0.022211139
0.02219915
0.022192797
0.022190166
0.022170654
0.022154552
0.022113959
0.022071156
0.022060836
0.022044399
0.022736368
0.022768707
0.022779821
0.022763419
0.022716481
0.022639673
0.022537334
0.022422936
0.02232552
0.022257143
0.022220174
0.022220005
0.022250747
0.022251471
0.022234501
0.022231171
0.022223624
0.022203711
0.022187956
0.022169437
0.022143863
0.022122044
0.022589139
0.022622557
0.022668091
0.022717821
0.022760071
0.02279034
0.022806196
0.022762718
0.022645082
0.02248042
0.022324495
0.022232535
0.022195877
0.022182114
0.022194789
0.022207859
0.022212199
0.022215379
0.022221891
0.022220073
0.022211183
0.022199551
0.022181116
0.022353551
0.022356533
0.022390038
0.022412403
0.022496755
0.022597075
0.02270487
0.02280628
0.022889037
0.022927303
0.022813064
0.022624933
0.022455453
0.022349115
0.022308957
0.02230596
0.022321626
0.022341567
0.022362193
0.022376793
0.022389775
0.022412528
0.022432449
0.022445345
0.022449617
0.022462499
0.02249361
0.022513171
0.022536108
0.022563003
0.022607526
0.02264946
0.022711588
0.02281461
0.022914305
0.022994507
0.023065541
0.023014872
0.022778433
0.02254385
0.022391425
0.022314638
0.022284098
0.022273025
0.022273123
0.022284617
0.022293946
0.022296611
0.022296499
0.022299356
0.02230574
0.022294111
0.02347431
0.023473924
0.023473537
0.023472586
0.02347031
0.023466108
0.023459798
0.023451745
0.023442639
0.023431841
0.023419499
0.023405657
0.02339064
0.023376379
0.023364277
0.023355228
0.023347407
0.023341261
0.023333812
0.023325531
0.02331544
0.02330695
0.023300348
0.023294351
0.023279522
0.023249822
0.023234239
0.023244658
0.023257021
0.023257894
0.023219502
0.023185517
0.023181629
0.023165471
0.023138752
0.023106496
0.023074318
0.023048874
0.022986999
0.022948835
0.022902624
0.022845553
0.022798025
0.022821119
0.022799513
0.022704274
0.022560372
0.02237926
0.022445467
0.023373527
0.023372878
0.023372208
0.023371649
0.023371022
0.023370061
0.023368959
0.023367898
0.023366796
0.023365824
0.023367035
0.023370795
0.023374583
0.023372821
0.023363817
0.023352216
0.023341779
0.023329649
0.023316485
0.023300805
0.023282748
0.023260706
0.023237199
0.023217502
0.023209441
0.023217291
0.023226839
0.023227204
0.023222421
0.023204921
0.0231759
0.023155859
0.023137689
0.023104996
0.023060514
0.023044894
0.023043823
0.023012231
0.022973164
0.022921242
0.022877462
0.022869496
0.022862381
0.022899065
0.022854738
0.02271036
0.022526758
0.02242291
0.022416417
0.023291255
0.023290104
0.023288919
0.023287941
0.023287207
0.023286464
0.023285701
0.023285661
0.023285917
0.023286595
0.023287001
0.023286125
0.023284949
0.023286877
0.02329102
0.023291221
0.023285845
0.023276693
0.023265582
0.023250641
0.023232482
0.023211305
0.023192439
0.023179475
0.023173084
0.023164917
0.023146036
0.023128276
0.023109398
0.023107146
0.023108558
0.023091168
0.023051385
0.023023161
0.023028367
0.0230452
0.023019843
0.022995485
0.022948239
0.022888301
0.022866262
0.022866191
0.022893325
0.022971964
0.022911943
0.022746897
0.022517955
0.02248028
0.022405595
0.023241557
0.02323957
0.023237311
0.023234755
0.023231852
0.023228342
0.023223742
0.023217765
0.023213266
0.023211759
0.023209011
0.023205663
0.023201689
0.023197224
0.023192945
0.023189174
0.023183668
0.023176575
0.023168511
0.023158499
0.02314482
0.023129429
0.023114618
0.023100465
0.023085701
0.023067068
0.02305198
0.023052567
0.023053434
0.023051887
0.023042844
0.023022369
0.023003155
0.023013622
0.023027778
0.023013965
0.022984417
0.022964992
0.022928964
0.022898557
0.022860412
0.022844336
0.022892207
0.022999915
0.022950215
0.022787697
0.022540955
0.022546979
0.022428239
0.023184816
0.023183088
0.023181466
0.023180058
0.023178924
0.023177948
0.023176906
0.023174856
0.023169931
0.023160853
0.023150102
0.023140171
0.023131965
0.023127089
0.023125032
0.023122986
0.02312137
0.023117934
0.023111825
0.02310416
0.023096487
0.023088369
0.023077945
0.023064711
0.023050152
0.023038208
0.023027339
0.023023593
0.023025888
0.023020616
0.02300722
0.022990697
0.022997447
0.023010745
0.02300086
0.022995506
0.022991289
0.022968331
0.022935276
0.022895143
0.022823993
0.022807704
0.022881383
0.022992661
0.022973555
0.022822632
0.022580468
0.022585719
0.02245242
0.02314172
0.023140568
0.023139225
0.023137632
0.023135586
0.023133086
0.023130558
0.023128722
0.023127024
0.023124987
0.023122854
0.023119919
0.023116552
0.023111205
0.023103945
0.02309741
0.023092149
0.023087666
0.023083079
0.023077837
0.023071837
0.02306438
0.023054377
0.02304209
0.023029518
0.023018569
0.023003828
0.022990599
0.02298612
0.022987873
0.022996945
0.023004147
0.023006406
0.022995019
0.022979986
0.022996905
0.023022901
0.023002299
0.02292533
0.022848618
0.02279454
0.022794678
0.022873941
0.022972516
0.022986642
0.022835607
0.022624995
0.022598831
0.022470206
0.023152284
0.023150712
0.023149018
0.023147284
0.023145453
0.023143383
0.023141098
0.023138646
0.023135758
0.023132512
0.02312886
0.023123906
0.023117552
0.023110136
0.02310186
0.023092886
0.023083225
0.023073015
0.023062962
0.023052738
0.023040721
0.023027346
0.02301437
0.023001505
0.022989204
0.022981351
0.022978913
0.02297327
0.022965509
0.022977865
0.023003017
0.023011935
0.023011185
0.023024358
0.023027497
0.023003612
0.022984593
0.022982871
0.022905173
0.022814829
0.02280173
0.022787246
0.022844839
0.022950792
0.022981702
0.022841121
0.022654216
0.022625963
0.022479281
0.023147572
0.023147221
0.023146877
0.023146406
0.023145522
0.023143716
0.023140717
0.023136437
0.023130872
0.02312459
0.023118643
0.023113067
0.02310769
0.023102458
0.023096155
0.023088777
0.023080499
0.023070782
0.023060414
0.023050634
0.023041427
0.023031301
0.02301943
0.023004467
0.022986878
0.022969972
0.022960726
0.022962369
0.022960135
0.02295695
0.022969446
0.022989201
0.023017105
0.023045593
0.023017818
0.023008057
0.022967467
0.02293528
0.022888838
0.022812831
0.022771813
0.022776962
0.022824832
0.022930391
0.022960076
0.022837821
0.022654768
0.022612766
0.02248506
0.023094295
0.023093072
0.023092046
0.023091144
0.023090022
0.023088423
0.023085885
0.023082313
0.023077723
0.023072291
0.023066692
0.023061218
0.02305636
0.023053082
0.02305061
0.02304784
0.023044773
0.023040839
0.023035114
0.023027712
0.023019899
0.023010924
0.02299798
0.022985417
0.022974993
0.022967567
0.022966295
0.022968623
0.02297531
0.022987141
0.023010503
0.023012213
0.022990256
0.02299685
0.023008456
0.02301057
0.02299471
0.022918143
0.022870617
0.022793854
0.022732978
0.022771947
0.022820642
0.022916969
0.022938862
0.022829809
0.02263429
0.022641351
0.022502704
0.023038301
0.023036684
0.023034959
0.023033326
0.023031487
0.02302936
0.023027299
0.023025121
0.023022724
0.02302048
0.023017975
0.023014351
0.023009604
0.023004641
0.022999806
0.022995338
0.022991596
0.022989598
0.022988396
0.022985793
0.022980079
0.022973409
0.022969872
0.022966435
0.022962809
0.022964763
0.022968907
0.022977739
0.02300623
0.023009876
0.022997223
0.023003921
0.023016672
0.023022226
0.023036841
0.023011415
0.02297362
0.022903736
0.022823239
0.02275757
0.022707265
0.022740454
0.022822464
0.022917512
0.02293233
0.022833472
0.022604612
0.022632215
0.022498803
0.022990237
0.022990214
0.02299051
0.0229911
0.022991857
0.022992366
0.022993022
0.022993024
0.022991829
0.022990431
0.022988808
0.0229873
0.02298592
0.022985444
0.022984508
0.022982759
0.022981233
0.022978635
0.022974841
0.022969928
0.022967316
0.022966794
0.022970239
0.022962536
0.022946278
0.022938325
0.022940413
0.022937372
0.022937284
0.022934804
0.022941603
0.022972185
0.023028502
0.023029232
0.023033001
0.023039009
0.023005964
0.022889728
0.022777991
0.022719133
0.022705028
0.022710484
0.022795854
0.022926745
0.022945474
0.022832725
0.022579333
0.022588253
0.02248156
0.022950275
0.022949456
0.022948964
0.022948803
0.022949285
0.022950042
0.022951162
0.022953831
0.022959795
0.022968083
0.022978221
0.022981758
0.022979637
0.022979694
0.022977774
0.022974733
0.022973032
0.022974801
0.022976166
0.02297309
0.022964208
0.022951978
0.022931527
0.022924281
0.022936239
0.022936806
0.022936744
0.022940927
0.02294188
0.02295965
0.022973725
0.022995858
0.022982615
0.022981714
0.022995259
0.023003123
0.022973464
0.022893242
0.022808476
0.022725991
0.02267237
0.022650373
0.022773326
0.02294367
0.022984196
0.022840482
0.022557188
0.022579202
0.022482869
0.0229301
0.022931149
0.022927267
0.022921714
0.022924571
0.022935109
0.022945428
0.022961445
0.022966734
0.022961037
0.0229583
0.02295237
0.022950292
0.022950913
0.02295306
0.022967895
0.022990672
0.022997357
0.023002092
0.022986982
0.022975183
0.022957566
0.022944223
0.02294814
0.022959921
0.022967759
0.022975737
0.022985029
0.022987918
0.022959257
0.022922816
0.022821219
0.022728807
0.022650542
0.022614348
0.022758642
0.022923442
0.02301145
0.022863235
0.022570698
0.022563541
0.022493896
0.022977356
0.022985239
0.022995598
0.023009806
0.023014074
0.023003087
0.022989067
0.022967103
0.022937543
0.022904837
0.022883406
0.022877752
0.022910131
0.022934452
0.022951787
0.022964177
0.022958329
0.022933951
0.02291285
0.022844782
0.022736012
0.022638991
0.022618867
0.022728563
0.022885097
0.023015391
0.022897891
0.022609031
0.022529137
0.022488648
0.022883983
0.022870757
0.022864515
0.022866092
0.022872507
0.022893533
0.022913666
0.022912475
0.022909729
0.022890935
0.022875227
0.022843803
0.02276158
0.02267697
0.022652219
0.022712785
0.022841195
0.02298817
0.022913719
0.022653282
0.022505247
0.022480451
0.022837446
0.02284742
0.022836528
0.022818273
0.022828351
0.022795562
0.022732548
0.022701725
0.022713613
0.022794404
0.02292449
0.022901179
0.02268078
0.022539594
0.022483406
0.02284574
0.022805621
0.022759009
0.022735611
0.022713527
0.022769719
0.022861986
0.022870834
0.022685284
0.02259405
0.022509697
0.022764551
0.022708799
0.022756608
0.022807607
0.022834706
0.02269981
0.022641625
0.022541798
0.022760586
0.022819892
0.022735289
0.022660616
0.022555247
0.022778366
0.02270703
0.022565911
0.022603611
)
;

boundaryField
{
    Side
    {
        type            empty;
    }
    Inlet
    {
        type            calculated;
        value           nonuniform List<scalar> 
48
(
0.02260349
0.02260418
0.022605
0.022597797
0.022586264
0.022578892
0.022576112
0.022581597
0.022586919
0.022592779
0.022596061
0.022594741
0.022574511
0.022531359
0.022480938
0.022437238
0.022404339
0.022380776
0.022364462
0.022355768
0.022354928
0.022377867
0.022416773
0.022441982
0.022451786
0.022454726
0.022456244
0.022599269
0.022585834
0.022577035
0.022573701
0.022568423
0.022556402
0.022539141
0.022536863
0.02254548
0.022566161
0.022581612
0.022581093
0.022576172
0.022571103
0.022566116
0.022556245
0.022540306
0.022524541
0.022516088
0.022516211
0.022520901
)
;
    }
    Airfoil
    {
        type            calculated;
        value           nonuniform List<scalar> 0();
    }
    Outlet
    {
        type            calculated;
        value           nonuniform List<scalar> 0();
    }
    procBoundary3to2
    {
        type            processor;
        value           nonuniform List<scalar> 
65
(
0.025505588
0.025503585
0.025500301
0.025496036
0.025489497
0.025483195
0.02547456
0.025456927
0.02543894
0.025428492
0.025428492
0.025681032
0.025642409
0.025600006
0.02555561
0.025514156
0.025476949
0.025435319
0.025377938
0.025302283
0.025204516
0.025086774
0.024998424
0.02495244
0.0249004
0.0249004
0.024859818
0.024768808
0.024588617
0.02435184
0.024086333
0.02387906
0.02387906
0.023700403
0.023502901
0.023357314
0.023357314
0.023063797
0.022871119
0.022638938
0.022638938
0.02246521
0.022409153
0.022409153
0.0224602
0.0224602
0.022392564
0.022316842
0.022316842
0.022140907
0.022140907
0.022143732
0.022143732
0.022008398
0.022008398
0.021986581
0.02210987
0.02210987
0.022158939
0.022158939
0.022137842
0.02244299
0.02244299
0.022427808
0.022287068
)
;
    }
    procBoundary3to4
    {
        type            processor;
        value           nonuniform List<scalar> 
57
(
0.022932079
0.022932462
0.02293247
0.02293205
0.022930976
0.022929387
0.022929387
0.022948737
0.022947655
0.022947551
0.022946885
0.022943598
0.022937355
0.022934707
0.022938184
0.022948561
0.022963109
0.022967792
0.022971917
0.022971917
0.022973888
0.022973319
0.022964349
0.022946538
0.022939769
0.022935079
0.022917441
0.022899509
0.022899509
0.022865933
0.022874653
0.022878978
0.022870899
0.022854807
0.022842316
0.022824517
0.022824517
0.022732604
0.022753834
0.022803553
0.022860513
0.022860513
0.02282341
0.02280826
0.022782834
0.022782834
0.022747094
0.022696518
0.022733637
0.022733637
0.022723067
0.022811551
0.022811551
0.022801091
0.022775604
0.022775604
0.022687872
)
;
    }
    procBoundary3to10
    {
        type            processor;
        value           nonuniform List<scalar> 
23
(
0.023425527
0.023605383
0.023762697
0.023925627
0.024052225
0.024165169
0.024296085
0.024528279
0.025187566
0.024841467
0.025187566
0.023474641
0.023374352
0.023292726
0.023243913
0.023187696
0.023143144
0.023153455
0.02314924
0.023098322
0.023042498
0.02299272
0.022952748
)
;
    }
    procBoundary3to11
    {
        type            processor;
        value           uniform 0.02293187;
    }
}


// ************************************************************************* //
