/*--------------------------------*- C++ -*----------------------------------*\
| =========                 |                                                 |
| \\      /  F ield         | OpenFOAM: The Open Source CFD Toolbox           |
|  \\    /   O peration     | Version:  2506                                  |
|   \\  /    A nd           | Website:  www.openfoam.com                      |
|    \\/     M anipulation  |                                                 |
\*---------------------------------------------------------------------------*/
FoamFile
{
    version     2.0;
    format      ascii;
    arch        "LSB;label=32;scalar=64";
    class       volScalarField;
    location    "2.7";
    object      k;
}
// * * * * * * * * * * * * * * * * * * * * * * * * * * * * * * * * * * * * * //

dimensions      [0 2 -2 0 0 0 0];

internalField   nonuniform List<scalar> 
1375
(
4.341574
4.5017635
4.6478662
4.7962502
4.9566184
5.1492461
5.3792726
5.6257918
5.8626999
4.6409038
4.8316851
4.9997633
5.1762265
5.3668984
5.5938508
5.8607304
6.1433587
6.4175779
6.6856873
4.9607043
5.1482395
5.3105409
5.4796594
5.6607621
5.8707463
6.1033095
6.325799
6.5153397
6.6843714
5.1153218
5.2618262
5.3861248
5.5109515
5.6418574
5.7950286
5.9617051
6.1042948
6.2029746
6.2785735
5.1736984
5.2926357
5.3915784
5.493045
5.5995863
5.7269552
5.8696245
5.9947569
6.0846592
6.1561938
5.260898
5.380902
5.4787025
5.5842727
5.6954353
5.8247433
5.9695148
6.1050097
6.2138836
6.3063793
5.4080683
5.5384829
5.6425529
5.7577325
5.8785281
6.0132282
6.1600359
6.301489
6.4222442
6.5269792
5.5839435
5.7192793
5.8260517
5.945429
6.0704799
6.2053896
6.3481124
6.4868227
6.6091526
6.7158377
5.7519943
5.8835887
5.9878345
6.1049346
6.2283352
6.3586635
6.4929353
6.6232546
6.7404092
6.8427579
5.8897113
6.0112238
6.1091581
6.219421
6.3371872
6.4601865
6.5840915
6.7034652
6.8119335
6.9068685
5.9876792
6.0960122
6.1858941
6.2869496
6.3968584
6.5113092
6.6245851
6.732535
6.8310549
6.9176243
6.0449018
6.1396346
6.2215759
6.3129165
6.4139688
6.5194198
6.6225461
6.7196811
6.8083586
6.8868702
6.9563607
6.0649016
6.1476689
6.2230832
6.3055563
6.3975805
6.4938613
6.5874655
6.674905
6.7547475
6.8263163
6.8905425
6.0534383
6.1269586
6.1979526
6.2733342
6.3568446
6.4439929
6.5286166
6.6075443
6.6799777
6.7460322
6.806566
6.0176403
6.0843889
6.1531015
6.2233759
6.2994014
6.3778345
6.4540861
6.5256828
6.5922187
6.6540735
6.7118544
5.9641741
6.0263297
6.0941405
6.160914
6.2307838
6.3015175
6.3704071
6.435947
6.4979213
6.556507
6.6119196
5.8993899
5.9584476
6.025698
6.0898836
6.1549968
6.2196206
6.2826436
6.3434331
6.4018317
6.4576722
6.510823
5.8290743
5.8859741
5.952187
6.0141536
6.075733
6.135988
6.1947663
6.2519491
6.3074123
6.3608044
6.4118306
5.7583004
5.813734
5.878286
5.9382249
5.9972059
6.0545325
6.1103961
6.1648343
6.2177954
6.2690102
6.3182271
5.6913852
5.7460495
5.8087021
5.8669597
5.9240921
5.9795013
6.0333767
6.0857418
6.1366559
6.1860816
6.2339236
5.6319436
5.6864986
5.7474633
5.804616
5.860596
5.9148151
5.9673638
6.0182622
6.0676875
6.1158133
6.162716
5.5825859
5.6374891
5.6971647
5.753763
5.8091546
5.8627183
5.9144606
5.9644411
6.0129329
6.060244
6.1065761
5.5443303
5.5997721
5.6584788
5.7147892
5.7698649
5.8230737
5.8743661
5.9238334
5.9718172
6.0186898
6.0646899
5.5164733
5.5724759
5.6303951
5.6863713
5.7410732
5.7939659
5.844992
5.8942453
5.942051
5.9887545
6.0345014
5.4972829
5.5537974
5.6110672
5.6666039
5.720798
5.7733054
5.8241051
5.873272
5.9210204
5.9675911
6.0130173
5.4849201
5.5418307
5.598551
5.6535705
5.7071358
5.7591208
5.8095657
5.8585228
5.90607
5.9523151
5.997236
6.0405836
5.477681
5.5347604
5.5909298
5.64537
5.6982486
5.7496217
5.7995955
5.8482278
5.8955132
5.9414438
5.985946
6.0289057
5.4737561
5.5306611
5.5862116
5.6401168
5.6924743
5.7433843
5.7929248
5.8411143
5.8879323
5.9333772
5.9774523
6.0201142
5.4723566
5.52886
5.5838525
5.6373061
5.6892356
5.739701
5.7887668
5.8364655
5.8828128
5.9278129
5.9714762
6.0137885
5.4731172
5.5292015
5.5836294
5.6366205
5.6881296
5.7381735
5.7867878
5.8340155
5.8799051
5.9244791
5.9677067
6.0095852
5.4756492
5.5312659
5.5851293
5.6376144
5.6886135
5.7381513
5.7862828
5.8330785
5.8785734
5.922747
5.9655411
6.0069735
5.4798987
5.5350001
5.5882318
5.6401312
5.6905707
5.7396272
5.7873281
5.833686
5.8786985
5.9223477
5.9646561
6.0056663
6.0453939
5.485762
5.5402741
5.5928693
5.6442218
5.6941537
5.7426949
5.7898403
5.8356234
5.8800859
5.9232653
5.9651815
6.0058273
6.0452001
5.4933932
5.5473114
5.5992742
5.6500154
5.6993361
5.7472647
5.7938351
5.8390951
5.8830699
5.9257834
5.9672475
6.0074587
6.0464445
5.5029609
5.5562231
5.6074559
5.6575134
5.7062111
5.7535815
5.7996061
5.8443161
5.8877488
5.9299532
5.9709727
6.0108103
6.0494633
6.0869223
5.5147878
5.5673712
5.6178641
5.6672337
5.7152651
5.7620042
5.8074386
5.8516004
5.894537
5.936281
5.9768479
6.0162445
6.0544894
6.0915703
5.5293349
5.5811973
5.6309044
5.6795285
5.7268488
5.7729333
5.8177744
5.8613893
5.9038006
5.9450361
5.9851128
6.0240749
6.0619383
6.0986764
5.5471712
5.5982658
5.6471477
5.6950012
5.741591
5.7869926
5.8312133
5.874263
5.9161438
5.9568546
5.9964078
6.0348818
6.0723076
6.1086896
6.1440203
5.5689444
5.6192444
5.6672926
5.7143721
5.760218
5.8049133
5.84847
5.8909074
5.9322304
5.9724201
6.0114975
6.049497
6.0864509
6.1223971
6.1573535
5.5956886
5.6451538
5.6923179
5.7385744
5.7836249
5.8275643
5.8704131
5.9121906
5.9529094
5.9925712
6.0311932
6.0687704
6.105319
6.140891
6.1754984
6.209167
5.628602
5.6771794
5.7234104
5.7688078
5.8130625
5.8562602
5.8984128
5.9395404
5.979654
6.0187688
6.0569037
6.0940474
6.1302243
6.1654481
6.1997246
6.2330957
6.2655903
5.6692131
5.7168811
5.7621713
5.8067046
5.8501432
5.8925808
5.9340206
5.9744891
6.0139999
6.0525768
6.0902302
6.126974
6.16281
6.1977081
6.2317001
6.2648191
6.2970798
5.7199153
5.7666852
5.8110505
5.854717
5.8973291
5.9390019
5.979744
6.0195732
6.0585034
6.0965443
6.133712
6.1700218
6.2054742
6.2400853
6.2738645
6.3067936
6.3389069
6.3702242
5.7835444
5.8294237
5.872902
5.9157654
5.9576337
5.9986141
6.038706
6.0779316
6.1163023
6.1538312
6.1905338
6.2264272
6.2615293
6.295856
6.3294174
6.3622209
6.3942736
6.4255724
6.4561438
5.8654096
5.9104064
5.9530215
5.995114
6.0362771
6.0766126
6.1161161
6.1548118
6.1927124
6.2298321
6.2661822
6.3017795
6.33664
6.3707758
6.4041974
6.43692
6.4689506
6.5003027
6.5309866
6.5610111
5.9728782
6.0170205
6.0588053
6.100167
6.1406825
6.1804559
6.2194762
6.257762
6.2953318
6.3322017
6.3683825
6.4038825
6.4387072
6.4728586
6.5063496
6.5391935
6.5714015
6.6029833
6.6339466
6.664302
6.6940618
6.7232382
6.1207531
6.1641902
6.2053511
6.2462064
6.2863238
6.3258001
6.364614
6.4027662
6.4402557
6.4770966
6.5133122
6.5489246
6.5839458
6.6183831
6.6522411
6.6855231
6.7182346
6.7503779
6.7819547
6.8129701
6.8434304
6.8733455
6.9027279
6.3397294
6.3829433
6.4236725
6.4643011
6.5043345
6.5438791
6.5828969
6.6213758
6.6593064
6.6966795
6.7334796
6.7697251
6.8054477
6.8406697
6.8754033
6.9096535
6.9434243
6.9767159
7.0095264
7.0418517
7.0736863
7.1050266
7.1358678
7.1662119
7.1960696
6.84258
6.8953581
6.9292076
6.9663637
7.0025482
7.0392997
7.0761535
7.1130005
7.1496336
7.1859261
7.2217678
7.2570785
7.2918031
7.3259176
7.3595066
7.392646
7.425432
7.4579684
7.4903718
7.5227989
7.5553405
7.5879886
7.6205336
7.6526427
7.6840995
7.7148778
7.7450528
4.2009574
4.5044947
4.8244856
4.992481
5.0752264
5.181365
5.3376555
5.5142069
5.6785489
5.8112249
5.9042921
5.9569347
5.9743584
5.9628053
5.926829
5.8745379
5.8120522
5.7449126
5.6779625
5.6153625
5.5605302
5.5156818
5.481339
5.4565102
5.4395269
5.4287471
5.4226646
5.419936
5.419474
5.4211587
5.4245451
5.4295883
5.4362588
5.4446928
5.4550738
5.4677352
5.4831463
5.5018658
5.5245481
5.5522149
5.5860659
5.6276081
5.6791771
5.7436544
5.826275
5.9343613
6.0824236
6.3011151
6.8069257
4.0732264
4.3785148
4.6957768
4.8711568
4.9726077
5.0954755
5.2596547
5.4364678
5.5971167
5.724994
5.8136332
5.8630038
5.8793701
5.8699812
5.835998
5.7868476
5.7281197
5.665035
5.6023532
5.5442888
5.4941434
5.4537256
5.4231099
5.4011517
5.3863235
5.3771737
5.3724191
5.3708819
5.3713234
5.3739493
5.3781764
5.3839987
5.3914313
5.4006227
5.4117465
5.4251633
5.4413484
5.4608227
5.4842874
5.5127125
5.5473041
5.5895711
5.6417582
5.7068258
5.7898998
5.8982196
6.0459717
6.2636808
6.7708545
3.9591067
4.259451
4.5707619
4.7502935
4.8663416
5.0031521
5.1738251
5.3508811
5.5086732
5.6330001
5.7187505
5.7667424
5.7833868
5.7779007
5.7466804
5.7012164
5.6464538
5.5874302
5.528963
5.4753299
5.429643
5.3932969
5.3660401
5.3467039
5.333919
5.3264093
5.3230705
5.3224859
5.3238951
5.3274068
5.3324375
5.3390112
5.347169
5.3570811
5.368925
5.3830781
5.400001
5.4201955
5.4444038
5.4735502
5.5088474
5.5517852
5.604557
5.6701926
5.7536799
5.8621709
6.0095358
6.2261036
6.733788
3.8551246
4.1481032
4.4543514
4.638955
4.7688022
4.9181485
5.0944657
5.2716996
5.4269739
5.5481433
5.6313513
5.6781758
5.6949508
5.6924324
5.6629201
5.6201007
5.5684008
5.5127965
5.4581493
5.4086414
5.3670578
5.3343915
5.3101751
5.2932717
5.2824498
5.2765959
5.2745967
5.2747907
5.2771835
5.2815134
5.2872971
5.2945897
5.303445
5.3140408
5.3265779
5.3414331
5.3590553
5.3799395
5.404851
5.4346894
5.4706494
5.5142015
5.5675354
5.6337076
5.717559
5.8261671
5.9730935
6.1884108
6.6961296
3.7552993
4.0438831
4.3499133
4.5435463
4.6888465
4.8507827
5.0324615
5.2095547
5.3618151
5.4790147
5.5585394
5.602801
5.6184514
5.6153475
5.585891
5.5439863
5.4940488
5.4410409
5.3897235
5.3439778
5.3061548
5.2768778
5.2555202
5.2409592
5.2320669
5.2278429
5.2268829
5.2278948
5.2311729
5.2362567
5.2427488
5.2507266
5.2602495
5.2714923
5.2846905
5.3002121
5.3184962
5.3400437
5.3656204
5.3961142
5.4326882
5.47681
5.5306847
5.5973522
5.6815192
5.7901919
5.9366314
6.1506386
6.6584927
3.6575973
3.9469435
4.2575946
4.4633895
4.6251397
4.7994495
4.9861395
5.1627335
5.3114487
5.4238338
5.4984851
5.5387085
5.5519364
5.5449782
5.5142349
5.4718977
5.4227745
5.3717899
5.3234347
5.2811435
5.2468019
5.2207108
5.202099
5.1898172
5.1828172
5.1801253
5.1799076
5.1817905
5.1858517
5.1916259
5.1987849
5.2074144
5.2175679
5.2294189
5.2432461
5.2594055
5.2783224
5.3005086
5.3267062
5.3578068
5.3949499
5.4396109
5.4940074
5.5611196
5.6455549
5.7542393
5.9001439
6.1128091
6.6215752
3.5669986
3.8607963
4.1775056
4.3952448
4.571945
4.756911
4.9474831
5.1229501
5.2677145
5.3749065
5.4442126
5.4797515
5.489931
5.4780197
5.4454493
5.4023153
5.3538032
5.3047219
5.259186
5.2201435
5.1890554
5.1659578
5.149951
5.139862
5.1346914
5.133205
5.133711
5.1364388
5.1412079
5.1476187
5.1554032
5.1646419
5.1753887
5.1878238
5.2022479
5.2190031
5.2385143
5.2613111
5.288101
5.3197642
5.3574375
5.4026139
5.457502
5.5250096
5.6096654
5.7183127
5.8636359
6.074973
6.5854179
3.4909596
3.7899215
4.1105216
4.3370102
4.5249617
4.7173805
4.9097228
5.0828408
5.223041
5.3248577
5.3889154
5.4199769
5.4273119
5.4112567
5.3773336
5.3340032
5.2865817
5.2396788
5.1970164
5.161106
5.1330637
5.1127246
5.0991082
5.0910645
5.0875682
5.0869613
5.0882758
5.091796
5.0972202
5.1042192
5.1125909
5.1224059
5.1337127
5.1466977
5.1616797
5.1790021
5.199078
5.2224472
5.2497932
5.2819864
5.3201545
5.3658307
5.4211734
5.4890228
5.5738529
5.6824186
5.8271111
6.0371217
6.5498452
3.4308769
3.7341769
4.055484
4.2868748
4.4818602
4.6779886
4.869409
5.038473
5.1732396
5.2695274
5.3287487
5.3561023
5.3613545
5.3429296
5.3088243
5.2664004
5.2208639
5.1765804
5.1369309
5.1040793
5.0788773
5.0610262
5.0495498
5.0433751
5.0412933
5.041352
5.0435641
5.0478309
5.05387
5.0614187
5.0703374
5.0806833
5.0925086
5.1060164
5.1215369
5.1394004
5.160021
5.1839276
5.2117896
5.2444738
5.2831237
5.3292779
5.3850234
5.4531618
5.5381247
5.6465677
5.790576
5.999254
6.5145484
3.3802318
3.6873488
4.0076068
4.2415037
4.4405865
4.6375846
4.8258612
4.9894026
5.118017
5.2087481
5.2636772
5.2882468
5.2922717
5.2732319
5.2401302
5.1996045
5.156624
5.1153126
5.0787787
5.0489135
5.0263614
5.0107548
5.001208
4.9967036
4.9956292
4.9964452
4.9995253
5.0045026
5.0111264
5.0191894
5.0286152
5.0394641
5.0517882
5.0657942
5.0818229
5.1001986
5.1213342
5.1457437
5.1740876
5.2072485
5.2463658
5.2929579
5.3490516
5.4174304
5.50249
5.6107732
5.7540412
5.9613642
6.4792814
3.3303794
3.6414658
3.9607854
4.1967898
4.3990346
4.5958986
4.7802839
4.9379022
5.060308
5.145728
5.1968492
5.2192584
5.2225646
5.2038485
5.1723405
5.1341471
5.0939821
5.0557477
5.022315
4.9953321
4.9752665
4.9617308
4.9539669
4.9509281
4.9505527
4.952233
4.9561367
4.9617901
4.9689589
4.9775035
4.9874066
4.9987321
5.0115451
5.0260312
5.0425333
5.0613968
5.0830152
5.1078928
5.1367035
5.1703207
5.2098872
5.2568694
5.3132455
5.3818291
5.4669553
5.5750417
5.7175163
5.9234558
6.4441175
3.2755624
3.5908551
3.9107229
4.1500423
4.3561907
4.5536457
4.7349968
4.8875519
5.0044568
5.085056
5.1326276
5.1529243
5.1554537
5.136869
5.106735
5.0706578
5.0331235
4.9978108
4.9673358
4.9430904
4.9253745
4.9138153
4.9077509
4.9058809
4.9061163
4.9087092
4.9133788
4.9196685
4.9273578
4.9363636
4.9467087
4.9584781
4.9717481
4.9867076
5.003672
5.0229846
5.0450507
5.070381
5.0996456
5.1336961
5.1736681
5.220985
5.2776027
5.346361
5.4315241
5.5393774
5.6809988
5.8855519
6.4093331
4.8413262
4.9537524
5.0300297
5.0739796
5.0917071
5.0930957
5.0736188
5.0440909
5.0095148
4.9741624
4.9414566
4.9137062
4.8920205
4.8765445
4.8669195
4.8624541
4.861446
4.8624076
4.8658628
4.8712355
4.8781173
4.8862999
4.8957363
4.9064978
4.9186966
4.9324178
4.9478275
4.9652207
4.9849525
5.0074387
5.0331982
5.0628861
5.0973521
5.1376863
5.1852878
5.2421215
5.3110175
5.3961888
5.5037766
5.6444897
5.8476615
6.3751658
4.8420958
4.828754
4.8210084
4.8179995
4.8176236
4.8194322
4.8236698
4.8296851
4.8371127
4.8457621
4.8556159
4.8667791
4.8793869
4.893525
4.9093499
4.927144
4.9472697
4.9701517
4.996314
5.0264052
5.0612537
5.101909
5.1497638
5.2067884
5.2757935
5.3609426
5.4682287
5.6079796
5.8097997
6.3421377
4.7966377
4.8057301
4.8159829
4.8275249
4.8405066
4.8550357
4.8712549
4.8894251
4.9099194
4.9331728
4.9597097
4.9901742
5.0253712
5.0663185
5.1143981
5.1715965
5.2406873
5.3257766
5.432715
5.5714553
5.7719941
6.3112607
4.8520436
4.8728878
4.8964892
4.9233695
4.954175
4.9896873
5.0308952
5.0791783
5.1365373
5.2056899
5.2906785
5.3972203
5.5349094
5.7342665
6.2809051
4.918397
4.9541848
4.9956283
5.0441023
5.1016038
5.1707951
5.2556432
5.3617419
5.4983478
5.6965984
6.2507695
5.0091841
5.0667969
5.1360009
5.2206706
5.3262845
5.4617922
5.6589516
6.2204431
5.185763
5.2908598
5.425262
5.6212767
6.1894572
5.388764
5.5835428
6.1574606
6.1242127
)
;

boundaryField
{
    Side
    {
        type            empty;
    }
    Inlet
    {
        type            turbulentIntensityKineticEnergyInlet;
        intensity       0.03;
        value           nonuniform List<scalar> 
48
(
12.015291
12.015282
12.015272
12.015362
12.015508
12.015601
12.015636
12.015567
12.0155
12.015426
12.015384
12.015401
12.015656
12.0162
12.016837
12.017388
12.017803
12.0181
12.018306
12.018416
12.018426
12.018137
12.017646
12.017328
12.017204
12.017167
12.017148
12.015344
12.015513
12.015624
12.015666
12.015733
12.015885
12.016102
12.016131
12.016022
12.015762
12.015567
12.015573
12.015635
12.015699
12.015762
12.015887
12.016088
12.016287
12.016393
12.016392
12.016332
)
;
    }
    Airfoil
    {
        type            kqRWallFunction;
        value           nonuniform List<scalar> 0();
    }
    Outlet
    {
        type            inletOutlet;
        inletValue      nonuniform List<scalar> 0();
        value           nonuniform List<scalar> 0();
    }
    procBoundary3to2
    {
        type            processor;
        value           nonuniform List<scalar> 
65
(
6.9756221
6.8644364
6.3645865
6.2402771
6.407606
6.6342413
6.8194439
6.9379612
6.9924069
6.9942568
6.9942568
7.0220123
6.950993
6.8638335
6.7668805
6.664929
6.5618053
6.4608799
6.3656873
6.2802448
6.2083423
6.1517989
6.1096042
6.0790042
6.0569707
6.0569707
6.0822409
6.0703443
6.0613319
6.0546909
6.0501045
6.0470772
6.0470772
6.0838774
6.0833491
6.0842583
6.0842583
6.123219
6.1275214
6.1342895
6.1342895
6.1782785
6.1913159
6.1913159
6.241906
6.241906
6.2972303
6.3285199
6.3285199
6.4007646
6.4007646
6.486006
6.486006
6.5903912
6.5903912
6.6191388
6.7518477
6.7518477
6.931591
6.931591
6.9599492
7.2254537
7.2254537
7.2543784
7.7747249
)
;
    }
    procBoundary3to4
    {
        type            processor;
        value           nonuniform List<scalar> 
57
(
3.5341319
3.8567818
4.1014611
4.3130247
4.5125676
4.6924562
4.6924562
4.8000589
4.9088385
4.9811521
5.0213572
5.0360485
5.0355086
5.0142154
4.9844611
4.9507432
4.9171114
4.8866792
4.861404
4.861404
4.7933616
4.7820554
4.7761042
4.7742681
4.7744762
4.7771798
4.7821154
4.788709
4.788709
4.7566645
4.7661708
4.7768098
4.788717
4.8020538
4.8169409
4.8335176
4.8335176
4.8149781
4.8361544
4.8600849
4.8872923
4.8872923
4.8828296
4.9188685
4.9605288
4.9605288
4.9744317
5.0321225
5.1013063
5.1013063
5.1509266
5.2554725
5.2554725
5.3522966
5.5457274
5.5457274
6.0897509
)
;
    }
    procBoundary3to10
    {
        type            processor;
        value           nonuniform List<scalar> 
23
(
4.3174092
4.4801576
4.6299014
4.7872313
4.9629689
5.1681441
5.3967005
5.6301721
6.0877144
5.8540833
6.0877144
4.172737
4.0465677
3.9414488
3.8504535
3.7626639
3.6722611
3.5825723
3.5021976
3.435206
3.3773895
3.3214005
3.2624557
)
;
    }
    procBoundary3to11
    {
        type            processor;
        value           uniform 3.2148881;
    }
}


// ************************************************************************* //
