/*--------------------------------*- C++ -*----------------------------------*\
| =========                 |                                                 |
| \\      /  F ield         | OpenFOAM: The Open Source CFD Toolbox           |
|  \\    /   O peration     | Version:  2506                                  |
|   \\  /    A nd           | Website:  www.openfoam.com                      |
|    \\/     M anipulation  |                                                 |
\*---------------------------------------------------------------------------*/
FoamFile
{
    version     2.0;
    format      ascii;
    arch        "LSB;label=32;scalar=64";
    class       volVectorField;
    location    "0.0002";
    object      U;
}
// * * * * * * * * * * * * * * * * * * * * * * * * * * * * * * * * * * * * * //

dimensions      [0 1 -1 0 0 0 0];

internalField   nonuniform List<vector> 
3444
(
(98.560216 21.172245 8.2490653e-23)
(137.7057 12.898257 0)
(211.99751 1.7839782 1.0058059e-22)
(227.14795 1.2590522 0)
(227.49467 3.4180385 0)
(225.54602 2.2153604 6.7419788e-23)
(225.03283 -1.2654812 -7.418717e-23)
(227.73326 -4.102538 0)
(230.56771 -15.823013 8.8709732e-23)
(224.42145 -125.08481 0)
(91.903654 23.426381 6.8899499e-23)
(98.541534 21.190377 7.7227518e-23)
(137.57413 12.932697 1.3324255e-24)
(211.97957 1.7113742 9.2494283e-23)
(227.14118 0.94963282 0)
(227.49966 3.3898283 -1.1605487e-22)
(225.5171 1.8153272 6.4872006e-23)
(224.93573 -1.8020104 7.0200598e-23)
(227.73862 -4.9356513 -1.5264495e-22)
(230.52454 -17.674753 -8.3879638e-23)
(224.59678 -125.41876 -1.6731926e-22)
(71.09644 -1350.0708 -9.3691131e-26)
(69.239749 266.13624 1.2805943e-24)
(88.172671 45.911647 3.4655087e-25)
(90.805181 25.28024 1.915805e-28)
(91.899229 23.425047 2.6290718e-22)
(98.502389 21.146612 -1.445436e-22)
(137.49648 12.88285 1.2441506e-24)
(211.95931 1.8186152 -3.5242274e-22)
(227.14426 0.75907501 1.5100067e-24)
(227.50112 2.9466934 3.1913274e-22)
(225.49037 1.216486 -1.1711693e-22)
(224.84955 -2.2711018 0)
(227.75016 -5.7775538 1.4091396e-22)
(230.513 -19.544475 -1.5253864e-22)
(224.99657 -126.42959 1.5552403e-22)
(71.115995 -1367.4845 1.9699175e-25)
(68.811308 109.69135 -1.1523171e-24)
(87.608085 -355.99757 -1.5995142e-24)
(54.695411 -473.3354 3.414577e-27)
(-1189.9139 168.59829 -3.3941756e-23)
(-1605.2545 70.388004 2.9696829e-22)
(90.802373 25.268362 1.739995e-24)
(91.892334 23.457057 -2.4718139e-22)
(98.497467 21.081591 2.1118718e-24)
(137.37501 12.711239 -2.9778521e-22)
(211.91737 2.213847 -1.6516428e-22)
(227.1601 0.89741904 2.8187886e-24)
(227.50094 2.4762784 -1.5377655e-24)
(225.46326 0.91638786 -2.1829627e-22)
(224.77501 -3.0122654 0)
(227.76788 -6.6092976 0)
(230.47081 -21.370687 1.4312977e-22)
(224.04213 -126.96682 0)
(71.152015 -1357.9537 6.7782283e-23)
(70.569459 -237.9976 -2.1366954e-24)
(87.218631 -369.35439 1.3040891e-24)
(91.420765 410.4802 -1.2582804e-24)
(-1190.57 -338.12397 8.1002458e-23)
(-1571.3191 -81.586729 -4.1176522e-22)
(90.633706 25.45882 -1.8797188e-22)
(90.798499 25.263625 -4.2029894e-22)
(91.877594 23.426933 1.7936506e-24)
(98.462349 21.051968 0)
(137.3116 12.458684 2.7813527e-22)
(211.88131 2.4565316 3.0709911e-22)
(227.18867 0.86212773 -1.3141529e-24)
(227.49722 1.2981494 -1.8359482e-22)
(225.43854 -0.00073002491 2.0328764e-22)
(224.71304 -3.8164427 -1.7428726e-24)
(227.79331 -7.4307997 0)
(230.45322 -23.214772 0)
(224.68375 -128.5492 -2.7706854e-22)
(71.101608 -1361.3932 -7.1934452e-24)
(70.273992 -330.53454 -2.0847719e-24)
(88.032946 -308.7438 -3.1832314e-24)
(99.285039 231.15027 8.0052879e-25)
(-1165.4651 -375.24505 6.4180861e-23)
(-1555.4452 -83.540303 2.5226654e-22)
(90.63431 25.40801 -3.5333632e-22)
(90.795749 25.182266 3.9169223e-22)
(91.875087 23.36045 -1.6768754e-24)
(98.446507 20.925228 0)
(137.22165 12.091524 0)
(211.85082 2.5424249 -2.8542991e-22)
(227.21413 0.16494744 0)
(227.4925 -0.11916777 0)
(225.41642 -1.2996763 -1.4780754e-24)
(224.66449 -4.6874057 1.6209491e-24)
(227.8306 -8.2530366 4.5398807e-22)
(230.43467 -25.050981 2.476756e-22)
(223.42925 -128.88615 2.6002873e-22)
(71.09157 -1382.5134 -9.2783708e-23)
(70.923396 -235.08533 5.2677971e-24)
(88.426982 -311.4883 3.1464174e-24)
(98.438243 -328.90278 0)
(-911.50287 -239.25889 3.1637244e-23)
(-1533.8217 -103.38918 0)
(90.724858 24.75222 9.0613348e-22)
(90.635302 25.385322 3.3213208e-22)
(90.790776 25.146539 -3.6512224e-22)
(91.860033 23.340528 0)
(98.411748 20.78878 4.3945975e-22)
(137.13336 11.703137 1.8939741e-24)
(211.77048 2.3930116 2.6624287e-22)
(227.23848 -0.84179273 2.9238107e-22)
(227.49117 -1.8591089 -3.2100301e-22)
(225.39529 -2.7532779 -1.3756111e-24)
(224.63048 -5.5648185 7.4328406e-28)
(227.86662 -9.0801182 -4.2045017e-22)
(230.36555 -26.905916 -2.3022173e-22)
(223.37959 -130.19609 0)
(71.132111 -1356.692 0)
(71.350463 -227.48508 -6.9376214e-24)
(88.017579 -275.61108 0)
(94.82742 -416.18361 0)
(-25.311124 483.55175 -1.5309188e-22)
(-1490.5146 -86.675437 0)
(90.728241 24.711562 4.1847544e-27)
(90.635891 25.318453 6.2163195e-22)
(90.78763 25.054707 -3.4152179e-22)
(91.854999 23.309679 0)
(98.383384 20.641487 -4.1046968e-22)
(137.08132 11.261014 -1.7678834e-24)
(211.66602 2.3812534 0)
(227.26983 -1.4769244 -8.1755034e-22)
(227.48876 -3.6240276 2.9891658e-22)
(225.38028 -4.3938492 0)
(224.59537 -6.329491 0)
(227.92292 -9.937448 -1.5320962e-24)
(230.37782 -28.776944 3.3417545e-24)
(223.24021 -131.05095 -4.559571e-22)
(71.125239 -1367.8409 -1.3339861e-22)
(71.262316 -234.02621 7.7226835e-24)
(88.177488 -314.33046 3.5645523e-24)
(93.751128 -286.67587 1.4769704e-26)
(-11.61461 441.16556 -9.7929675e-25)
(-1218.134 57.621476 1.1049595e-24)
(90.730647 24.692856 -5.2753542e-22)
(90.636416 25.197074 -1.1628867e-21)
(90.782477 24.884796 -6.3885089e-22)
(91.838824 23.298813 -7.0141499e-22)
(98.339865 20.427587 -1.5034966e-24)
(137.00422 10.555974 -1.6500447e-24)
(211.52133 2.6262952 0)
(227.26376 -1.1741139 5.0790988e-22)
(227.48854 -4.3236225 -5.5888761e-22)
(225.31085 -6.0985414 2.3823667e-24)
(224.6549 -6.9044067 0)
(227.9643 -10.855569 0)
(230.29608 -30.720171 0)
(221.93551 -132.45988 4.2337506e-22)
(71.183307 -1336.6526 3.5179793e-22)
(72.514824 -248.60389 0)
(88.301755 -311.29801 -4.3108035e-24)
(93.638385 -322.56421 0)
(-48.10145 -376.24755 0)
(-900.67588 -81.100534 0)
(90.737478 24.708416 -1.9376657e-24)
(90.636623 25.151344 1.0905277e-21)
(90.779486 24.702763 5.9714329e-22)
(91.832613 23.269878 6.526111e-22)
(98.301022 20.27301 -7.1857277e-22)
(136.92529 9.580659 0)
(211.42631 2.6932392 4.3212428e-22)
(227.19241 -0.65545214 -4.7335891e-22)
(227.44069 -4.0058181 5.1834804e-22)
(225.30774 -7.0928286 -5.6526351e-22)
(224.81477 -7.4097557 6.1583974e-22)
(228.00647 -11.861748 6.8064249e-22)
(230.27821 -32.663262 1.4425959e-24)
(223.25868 -133.87778 -1.5442541e-24)
(71.167527 -1335.393 -1.4170959e-22)
(71.582114 -249.41502 0)
(88.39243 -294.18715 -1.0073164e-23)
(92.43728 -316.44834 2.5208988e-26)
(-47.933431 -509.29501 2.2161314e-22)
(-901.1384 -87.849058 1.3392262e-24)
(90.737615 24.761439 4.6398937e-22)
(90.636527 25.209752 -5.0914985e-22)
(90.776108 24.619654 5.5786731e-22)
(91.822973 23.260668 0)
(98.266191 20.209388 6.7065567e-22)
(136.83726 9.0936676 7.3513414e-22)
(211.31931 0.56299147 -4.0267863e-22)
(227.09268 -0.85963358 -1.6893889e-24)
(227.42866 -4.5992104 1.8842821e-24)
(225.33258 -7.582222 5.2768905e-22)
(224.94158 -7.9107903 -5.7675505e-22)
(228.03162 -12.967061 -6.295837e-22)
(230.28786 -34.802959 -2.6775834e-24)
(222.54646 -135.87816 3.7172018e-22)
(71.137679 -1356.9559 6.0842324e-25)
(72.028613 -244.89824 -6.9757755e-26)
(88.469542 -294.89308 2.1688707e-23)
(91.797726 -316.84109 2.0221359e-27)
(-47.817576 -489.22217 -2.2511854e-22)
(-897.6992 -97.795601 0)
(91.14076 23.61165 0)
(90.741021 24.778048 -4.3415987e-22)
(90.636074 25.420395 0)
(90.771453 24.616558 -5.2145368e-22)
(91.799581 23.742556 2.232427e-24)
(98.158805 20.435654 6.2344722e-22)
(136.53418 9.1936939 -6.8561918e-22)
(211.25623 -3.9724086 7.5320036e-22)
(226.96831 -2.1831499 -1.592378e-24)
(227.4466 -6.7482382 -1.7531033e-24)
(225.37881 -8.3026154 0)
(225.10189 -8.3610639 -2.0925953e-24)
(228.05222 -14.204863 2.2837436e-24)
(230.19715 -36.935519 2.4882944e-24)
(221.72652 -137.1389 -1.0312443e-21)
(71.153911 -1351.5855 1.5154496e-24)
(72.442448 -245.20312 8.7918304e-26)
(88.528668 -297.90174 -1.2325591e-23)
(91.047671 -313.33685 0)
(-47.302808 -481.89836 -1.1145335e-24)
(-888.36806 -109.04885 8.7579487e-25)
(91.152119 23.588187 2.8968357e-24)
(90.750771 24.74564 -8.1899335e-22)
(90.636174 25.527842 3.4767119e-24)
(90.763394 24.848762 -1.9035711e-24)
(91.797155 23.993425 2.0836393e-24)
(98.129726 20.969304 -2.3501879e-24)
(136.16382 10.641018 4.9939441e-24)
(211.07619 -8.6754443 -7.0199072e-22)
(226.85359 -5.2902988 3.8185597e-22)
(227.32623 -8.9378213 0)
(225.40339 -9.303656 -4.5428725e-22)
(225.21696 -8.8420095 -4.997895e-22)
(228.04555 -15.553081 0)
(230.23829 -39.332356 5.9134503e-22)
(221.13845 -138.86356 -6.3744712e-22)
(71.185971 -1335.8174 -1.3946482e-24)
(72.57925 -248.9882 2.0558406e-25)
(88.593683 -295.87531 0)
(90.71696 -315.25857 -3.8566077e-26)
(-46.284767 -430.34504 1.0115129e-24)
(-878.95685 -118.37955 5.3455497e-22)
(91.153438 23.473633 0)
(90.753374 24.705597 1.5200202e-21)
(90.636719 25.681566 3.2475302e-24)
(90.763697 25.21263 -5.3447086e-28)
(91.785929 24.070731 -3.8891287e-24)
(98.066153 21.228312 -5.445254e-22)
(135.67104 11.305932 0)
(210.74013 -11.941151 0)
(226.96535 -8.979273 -7.1391079e-22)
(227.26271 -8.8246264 7.7956332e-22)
(225.49525 -9.7780049 -3.2935873e-24)
(225.35444 -9.4406873 4.66067e-22)
(228.07035 -17.088051 0)
(230.08849 -41.715996 -5.4872282e-22)
(221.31139 -142.77846 0)
(71.181226 -1337.4365 3.4024105e-22)
(72.359625 -249.49519 4.5424131e-25)
(88.665385 -296.34941 -1.4919644e-25)
(90.69065 -310.86016 1.1316118e-23)
(-45.516521 -432.83695 0)
(-850.39868 -132.40768 -4.9405102e-22)
(91.164994 23.418816 -6.4412617e-22)
(90.764497 24.680142 -7.1322761e-22)
(90.638177 25.752763 3.033312e-24)
(90.757971 25.574707 -6.6387165e-24)
(91.769053 24.020486 3.6286099e-24)
(98.026104 21.308535 5.0790473e-22)
(135.29039 11.575738 5.5741176e-22)
(210.6056 -12.077027 -4.736443e-24)
(227.05597 -10.282685 -6.615364e-22)
(227.23802 -8.0748197 -7.1937816e-22)
(225.52605 -9.6440806 3.938587e-22)
(225.40481 -10.124728 0)
(228.00084 -18.665744 -4.6951229e-22)
(230.18151 -44.421191 1.9886198e-24)
(220.85862 -145.27444 0)
(71.167219 -1344.9425 -4.0038448e-22)
(72.550919 -249.90219 2.3742175e-25)
(88.724021 -295.82471 1.7721971e-23)
(90.347837 -312.75709 1.3058949e-23)
(-45.189204 -467.72627 -2.0117072e-24)
(-825.94914 -142.59723 4.5694837e-22)
(91.417607 22.308094 -2.165648e-24)
(91.167822 23.348578 6.1183547e-22)
(90.76855 24.665866 -2.5934862e-24)
(90.640964 25.755932 7.2280469e-22)
(90.75429 25.687057 -7.9018741e-22)
(91.755406 24.013873 -8.7001343e-22)
(97.911632 21.007464 3.7376446e-24)
(134.87184 11.528788 -5.1720927e-22)
(210.64771 -11.08546 0)
(227.08826 -9.8702764 6.1544823e-22)
(227.3588 -7.7609096 0)
(225.41945 -9.3059815 -2.8586815e-24)
(225.48922 -11.042529 7.973524e-22)
(228.04319 -20.426393 4.3730139e-22)
(229.99305 -47.138258 3.686301e-24)
(220.46498 -147.4437 -3.9903505e-24)
(71.174581 -1343.3488 0)
(72.880462 -250.75587 -6.9374622e-23)
(88.782159 -296.3028 0)
(89.925288 -310.52265 0)
(-44.747134 -463.4832 0)
(-812.99826 -150.0865 -8.4393412e-22)
(91.419689 22.351245 4.0506423e-24)
(91.179512 23.31196 0)
(90.781115 24.665346 6.2028629e-22)
(90.645669 25.543871 -6.7766927e-22)
(90.743468 25.470979 1.4834035e-21)
(91.725267 24.079772 -3.1573357e-24)
(97.889324 20.782212 -1.3206165e-21)
(134.46202 11.610046 -3.7628364e-24)
(210.60128 -7.2829142 -5.2521554e-22)
(227.04567 -8.9614292 0)
(227.41387 -8.0364524 -6.2391625e-22)
(225.45575 -9.3035318 6.8211945e-22)
(225.47992 -12.110368 -7.4276257e-22)
(227.96737 -22.267019 0)
(230.08263 -49.9815 3.4171308e-24)
(220.06916 -150.58954 -4.7711214e-22)
(71.191886 -1338.5689 1.3918366e-24)
(72.971172 -252.43821 1.5434624e-22)
(88.811243 -296.14661 -3.5727112e-25)
(89.787524 -311.14686 1.3381737e-25)
(-44.524155 -440.72187 0)
(-792.95703 -160.75083 7.8234201e-22)
(91.417489 22.542311 1.773365e-21)
(91.420543 22.363214 -9.7366932e-22)
(91.183634 23.240134 0)
(90.787615 24.698289 -5.7469654e-22)
(90.645927 25.44796 -4.9421031e-24)
(90.74259 25.364306 -6.9027179e-22)
(91.711842 24.110496 7.5349248e-22)
(97.801334 20.658012 8.222756e-22)
(134.09382 11.48038 0)
(210.24987 -5.559402 4.886479e-22)
(227.04535 -8.7803323 4.1576332e-24)
(227.47343 -8.6879623 -4.5043057e-24)
(225.50308 -9.4774486 -6.3090674e-22)
(225.466 -13.400096 2.6812669e-24)
(227.93084 -24.026053 -2.9152258e-24)
(229.91234 -53.121411 -3.1659272e-24)
(219.90032 -155.26869 4.4232742e-22)
(71.185555 -1340.0343 0)
(72.92562 -253.37521 2.0071144e-25)
(88.87604 -295.97616 0)
(89.770565 -310.43392 1.6260626e-25)
(-43.196901 -437.43194 -3.5465808e-24)
(-769.12413 -170.38031 -3.5372071e-22)
(91.413437 22.549696 -2.4661306e-27)
(91.422859 22.334788 1.8106616e-21)
(91.196128 23.201512 9.9514897e-22)
(90.7957 24.707041 4.2265895e-24)
(90.648318 25.380373 -4.6127683e-24)
(90.738101 25.337043 0)
(91.687432 24.178922 0)
(97.74166 20.61687 0)
(133.78358 11.358449 0)
(209.90812 -5.3828479 3.5519253e-24)
(227.05971 -8.6370786 -7.7313539e-24)
(227.55544 -8.7312815 5.4278796e-22)
(225.59185 -9.9129225 -4.5779202e-24)
(225.33708 -14.711111 6.4453592e-22)
(227.98913 -26.19473 -2.7033014e-24)
(229.95855 -56.2431 0)
(219.67301 -159.48422 -8.103857e-22)
(71.190226 -1341.7569 -2.7648681e-24)
(73.106743 -254.5723 -9.5025872e-23)
(88.954712 -295.40412 -4.6065737e-25)
(89.711692 -310.80926 3.5700139e-25)
(-43.065226 -445.23014 4.4097631e-22)
(-740.13729 -179.69386 -2.5982946e-24)
(91.201057 23.664471 2.7735962e-24)
(91.408795 22.551441 -7.7901532e-22)
(91.4226 22.298063 -8.4786896e-22)
(91.202737 23.102062 -9.224797e-22)
(90.816606 24.687362 -3.9474175e-24)
(90.649834 25.352603 0)
(90.731038 25.410118 -4.6922641e-24)
(91.671267 24.248439 5.113625e-24)
(97.645167 20.696698 0)
(133.40907 11.219312 3.0353815e-24)
(209.67396 -5.1817566 -1.1316194e-28)
(227.09215 -8.4101954 -7.1871314e-24)
(227.60119 -8.6645391 5.0418905e-22)
(225.69447 -10.612168 5.3970214e-22)
(225.19168 -16.137046 -5.8644664e-22)
(227.81571 -28.022829 0)
(229.83601 -59.945441 0)
(219.18237 -162.14296 7.5057545e-22)
(71.197877 -1340.0486 2.6413296e-24)
(73.274105 -256.67117 -8.1975847e-25)
(89.006393 -295.42693 5.1999771e-25)
(89.619703 -310.51521 4.1085453e-25)
(-42.139405 -446.15303 -4.4644631e-22)
(-726.9231 -187.99845 -2.3731172e-24)
(91.19357 23.696238 5.1891278e-24)
(91.404172 22.57338 -7.2830551e-22)
(91.423739 22.25188 7.7142423e-28)
(91.216419 22.967328 2.0732896e-28)
(90.819014 24.663841 -3.2221385e-28)
(90.652654 25.340604 -8.5857171e-28)
(90.730923 25.443996 -4.3735373e-24)
(91.6515 24.286956 0)
(97.598776 20.827754 6.5906465e-22)
(133.05089 11.139387 5.6476393e-24)
(209.30692 -4.7220697 3.0713922e-24)
(227.11046 -7.7175912 8.5160088e-22)
(227.69189 -8.7782176 -3.6074972e-24)
(225.76649 -11.517596 -5.0470905e-22)
(225.06805 -17.918956 4.2818753e-24)
(227.98351 -30.364613 0)
(229.80644 -63.305841 0)
(219.32236 -168.34125 0)
(71.206005 -1339.9726 -2.492315e-24)
(73.298541 -258.4579 1.1641582e-22)
(89.015139 -295.60083 7.5249275e-23)
(89.518785 -310.38423 -6.1697984e-23)
(-41.443285 -440.91799 3.1950041e-24)
(-719.73285 -202.51452 0)
(91.071317 24.232066 -4.4440796e-24)
(91.186294 23.729116 4.8530973e-24)
(91.397213 22.61356 6.7816776e-22)
(91.423658 22.238834 7.3711602e-22)
(91.226252 22.873465 -2.0143432e-28)
(90.840938 24.654298 2.983996e-28)
(90.654015 25.32997 -9.5455705e-22)
(90.728177 25.457363 -4.0752809e-24)
(91.622071 24.291422 8.8748086e-24)
(97.497589 20.918594 -6.2315364e-22)
(132.77223 10.949601 -5.2540359e-24)
(209.08118 -4.8782692 -4.2283286e-28)
(227.15296 -7.5449541 3.1435285e-24)
(227.81346 -9.1615592 -4.2799787e-22)
(225.82717 -12.739631 0)
(224.92793 -19.730261 5.0822115e-22)
(227.82427 -32.697355 0)
(229.73301 -67.439343 0)
(218.58728 -172.39464 6.4049807e-22)
(71.209895 -1340.6606 4.7771825e-24)
(73.384793 -259.94896 -3.7806853e-22)
(89.121119 -295.79951 -1.6960238e-22)
(89.587272 -310.22441 7.0275527e-23)
(-40.834828 -442.24134 3.0278641e-24)
(-700.88271 -214.99249 -4.1766178e-24)
(91.06885 24.241506 4.1577538e-24)
(91.178606 23.764792 0)
(91.390709 22.654405 0)
(91.423645 22.287453 -1.6073669e-26)
(91.241969 22.797335 7.537612e-22)
(90.8458 24.629039 -3.2067108e-24)
(90.658778 25.329929 -1.6064801e-27)
(90.722578 25.450917 9.798733e-22)
(91.606636 24.321014 -4.1324772e-24)
(97.442822 21.032963 -4.4951551e-24)
(132.37987 10.723103 4.8862721e-24)
(208.78362 -5.6429212 5.308358e-24)
(227.2297 -8.0678211 -5.8039915e-24)
(228.05884 -10.139796 3.1284221e-24)
(225.80087 -14.014515 -3.3943875e-24)
(224.8908 -21.591459 -4.7119915e-22)
(227.84868 -35.134374 0)
(229.6071 -71.182351 -4.3138539e-24)
(218.91281 -178.11021 9.0827637e-24)
(71.21413 -1340.4362 -4.5719979e-24)
(73.500087 -261.12921 2.742784e-22)
(89.139857 -295.6709 2.8368105e-22)
(89.5883 -310.39161 0)
(-40.691198 -448.00449 -2.9469762e-24)
(-668.60672 -218.97239 7.5827054e-24)
(91.03722 24.364139 -3.5633102e-24)
(91.066269 24.250211 -9.9938137e-22)
(91.170143 23.795531 -3.2594273e-28)
(91.382733 22.680922 4.6252191e-24)
(91.423175 22.305894 -6.4534931e-22)
(91.253776 22.755977 -7.0337591e-22)
(90.869889 24.555976 5.981033e-24)
(90.660634 25.322582 -3.9691033e-27)
(90.721902 25.38386 -9.1253041e-22)
(91.574811 24.35339 9.8100286e-22)
(97.333626 21.103464 -2.2977722e-28)
(132.03877 10.464056 4.5430188e-24)
(208.60177 -6.8137238 0)
(227.2886 -9.3115813 -1.3705757e-21)
(228.18612 -11.183968 5.8067169e-24)
(225.76302 -15.105367 7.9336844e-22)
(224.84433 -23.375997 -4.3333507e-22)
(227.90085 -38.271659 7.3865651e-24)
(229.55331 -75.653412 -4.5843769e-27)
(218.28387 -183.61928 -5.5678273e-22)
(71.229994 -1340.1815 0)
(73.584714 -263.27677 -2.2743082e-24)
(89.223706 -295.36599 -2.0943001e-22)
(89.441241 -310.70662 0)
(-40.071346 -449.34373 3.570863e-22)
(-642.89631 -221.3028 3.449812e-24)
(91.036595 24.366398 -8.5348567e-22)
(91.063513 24.259355 9.3455202e-22)
(91.16135 23.823304 2.9165942e-28)
(91.374841 22.710528 -8.6415291e-24)
(91.421686 22.279925 4.7060823e-24)
(91.268599 22.718579 -5.1264961e-24)
(90.880545 24.422248 5.5777089e-24)
(90.662191 25.320861 7.8212421e-22)
(90.719599 25.363074 -1.3178223e-23)
(91.558288 24.449133 7.1534011e-24)
(97.257842 21.160959 5.0169722e-22)
(131.59245 10.235566 -5.4489019e-22)
(208.40401 -7.7806049 4.5828299e-24)
(227.26517 -10.376404 1.2677155e-21)
(228.1289 -11.915399 5.388795e-24)
(225.78111 -16.532101 -7.532896e-22)
(224.85384 -25.159859 4.047887e-22)
(227.65312 -40.780941 0)
(229.32324 -79.944442 0)
(218.11833 -190.03895 0)
(71.238646 -1340.3183 -4.0062351e-24)
(73.654626 -265.81234 2.419377e-24)
(89.254862 -295.54422 -2.3428152e-22)
(89.403615 -310.63378 1.6037546e-24)
(-39.720003 -449.05485 1.300405e-24)
(-634.0782 -233.74237 -4.0749556e-22)
(91.030988 24.386915 7.2622578e-22)
(91.035926 24.368747 6.2365259e-24)
(91.060631 24.270722 0)
(91.152726 23.866468 0)
(91.364102 22.772723 0)
(91.421139 22.268095 -4.3925492e-24)
(91.275748 22.688236 6.1671662e-22)
(90.909599 24.288242 0)
(90.6663 25.347276 -5.6475691e-24)
(90.714517 25.405203 6.1372314e-24)
(91.524774 24.526721 -8.530515e-22)
(97.136973 21.195571 -4.6290053e-22)
(131.1207 10.100795 6.1167071e-27)
(208.11859 -8.1670512 -5.4492959e-22)
(227.24799 -11.114543 -5.8604418e-22)
(228.08275 -12.842584 -4.9988776e-24)
(225.76673 -18.041633 0)
(224.82101 -27.288042 -5.8596545e-24)
(227.84833 -44.047463 6.338994e-24)
(229.27212 -84.329936 -4.3783144e-22)
(218.20959 -197.33474 3.6930654e-24)
(71.249235 -1340.2422 -3.7769213e-24)
(73.759683 -268.46193 3.193629e-22)
(89.340501 -296.22585 2.5508294e-22)
(89.334153 -310.38448 -1.7872758e-24)
(-39.233645 -449.56494 -3.1372829e-22)
(-629.28231 -253.62966 -6.0723506e-24)
(91.030862 24.387279 -6.9017334e-22)
(91.035241 24.370843 7.581448e-22)
(91.057785 24.280238 -8.1966475e-22)
(91.144841 23.900997 0)
(91.352996 22.821855 -9.6416376e-22)
(91.419769 22.307829 1.0490571e-21)
(91.286666 22.682832 -5.7060793e-22)
(90.925588 24.182745 0)
(90.670001 25.351793 0)
(90.713089 25.424573 5.7126075e-24)
(91.498064 24.56193 -7.9981993e-22)
(97.029873 21.197616 -8.60837e-22)
(130.58161 10.027505 4.6698058e-22)
(207.67593 -8.6502429 4.9819815e-22)
(227.30988 -11.746052 8.5656378e-24)
(228.20405 -13.925127 0)
(225.85923 -19.803853 -5.0197519e-24)
(224.81474 -29.359495 7.0046502e-22)
(227.47691 -46.881252 5.8640189e-24)
(228.93272 -88.992349 -6.2723172e-24)
(217.61641 -202.86026 -6.8447503e-24)
(71.262154 -1340.1342 -4.3880552e-22)
(73.845981 -270.0144 -3.3283781e-22)
(89.406051 -296.09686 -2.1232536e-24)
(89.30932 -310.47286 1.9619437e-24)
(-38.32228 -449.30049 -6.0420176e-22)
(-609.42441 -263.39808 -2.6482868e-25)
(91.030083 24.389882 0)
(91.030728 24.387737 -6.3554778e-22)
(91.034534 24.373159 -6.97848e-22)
(91.054825 24.291384 -5.936477e-24)
(91.135625 23.933344 8.2710442e-22)
(91.340297 22.872969 8.9986415e-22)
(91.418621 22.312516 -7.3521346e-27)
(91.29927 22.709519 0)
(90.956152 24.006563 4.5152986e-24)
(90.680305 25.308336 -4.9008256e-24)
(90.709254 25.435299 -6.7528017e-22)
(91.463243 24.653931 -1.1527789e-23)
(96.898858 21.130251 1.2490064e-23)
(130.13037 9.8958896 -6.7787379e-24)
(207.35782 -9.638956 -4.6993866e-22)
(227.52953 -12.884037 -7.9481876e-24)
(228.51476 -15.34471 8.6017684e-24)
(225.82377 -21.595056 0)
(224.79485 -31.811309 -1.2877754e-21)
(227.58222 -49.985871 -5.4296188e-24)
(228.89467 -93.351583 3.8093674e-22)
(217.81161 -211.51207 0)
(71.276355 -1340.1136 4.2285953e-22)
(73.919957 -272.32402 5.2266504e-24)
(89.404737 -295.29468 -2.9174288e-22)
(89.269425 -310.67765 0)
(-38.463698 -448.97878 5.567677e-22)
(-522.85828 -253.64625 3.2244363e-22)
(91.030071 24.389922 -1.1037597e-21)
(91.030609 24.388124 6.6458018e-31)
(91.033912 24.375139 6.5219171e-22)
(91.052085 24.302175 7.0426286e-22)
(91.127257 23.974631 -1.5382682e-21)
(91.325446 22.947982 -6.5602626e-24)
(91.417383 22.289131 -1.8106977e-21)
(91.323601 22.69801 -9.9946698e-22)
(90.974731 23.869236 -8.4123112e-24)
(90.686191 25.272747 9.1251293e-24)
(90.710499 25.538939 6.3814967e-22)
(91.442349 24.733951 1.3618305e-21)
(96.769092 21.188133 1.1630988e-23)
(129.64357 9.7246127 7.9963447e-22)
(207.24579 -10.863606 4.3626496e-22)
(227.89208 -14.187207 0)
(228.93448 -16.801182 -5.1846147e-22)
(225.83311 -23.412987 -1.93562e-28)
(224.64014 -33.808888 1.206787e-21)
(227.35012 -53.688779 -6.4902333e-22)
(228.4658 -98.61896 0)
(217.9341 -219.55364 7.4834687e-22)
(71.289788 -1340.0711 0)
(74.045841 -274.9291 3.3424979e-22)
(89.546569 -295.06657 -4.9893684e-25)
(89.253663 -310.44601 -2.8785891e-22)
(-39.909587 -448.20768 0)
(-293.96211 -216.28277 0)
(91.030058 24.389928 1.0283461e-21)
(91.030513 24.388448 5.5554899e-22)
(91.033402 24.37728 -6.0459267e-22)
(91.049683 24.313042 -5.1783786e-24)
(91.118147 24.011979 7.2627973e-22)
(91.309792 23.018497 7.8316468e-22)
(91.415339 22.291542 1.6948416e-21)
(91.322827 22.644301 7.2317004e-24)
(91.009094 23.77764 -9.949813e-22)
(90.703213 25.19546 -8.493474e-24)
(90.70936 25.595402 0)
(91.39183 24.749132 -1.2810116e-21)
(96.629326 21.339321 5.4176732e-24)
(129.00422 9.7575218 5.8412676e-24)
(206.90189 -11.261852 -6.3263793e-24)
(228.01886 -15.026588 -8.7557352e-22)
(229.06908 -18.211163 4.7329858e-22)
(225.79096 -25.560456 -5.1147734e-22)
(224.63497 -36.238007 -5.5234695e-22)
(227.13446 -56.719934 5.9606407e-22)
(228.38923 -102.86377 0)
(217.84259 -227.76388 -6.9202686e-22)
(71.301623 -1340.0174 0)
(74.137615 -278.24828 -6.5961574e-22)
(89.553889 -295.46711 6.0695777e-22)
(89.272172 -309.61941 5.9771295e-22)
(-42.783693 -446.98699 0)
(-171.05623 -198.77986 -5.4912611e-22)
(91.030046 24.389897 -7.5123425e-24)
(91.030464 24.388698 1.0547522e-21)
(91.033071 24.37916 0)
(91.047671 24.323108 4.8343801e-24)
(91.110436 24.049617 -6.7241279e-22)
(91.292719 23.109688 -1.4663986e-21)
(91.412285 22.280913 -7.9293076e-22)
(91.345486 22.612349 8.6749245e-22)
(91.028535 23.695793 9.3365483e-22)
(90.718869 25.101963 -7.903924e-24)
(90.709106 25.607948 -5.4768788e-22)
(91.36882 24.765607 5.9303919e-22)
(96.477794 21.47879 1.4112568e-26)
(128.37527 9.6087161 -1.3896973e-21)
(206.55791 -11.745 7.514383e-22)
(228.28055 -16.083768 -2.5872104e-26)
(229.33708 -19.810467 0)
(225.75047 -27.628165 4.7386491e-22)
(224.38297 -38.988348 -5.1151935e-22)
(227.19987 -60.460272 0)
(227.88508 -108.37788 0)
(218.39762 -237.40798 6.405678e-22)
(71.315463 -1339.984 0)
(74.283287 -279.62024 -1.2382679e-24)
(89.733144 -296.005 -4.7831266e-24)
(89.294801 -309.68868 -6.0520561e-22)
(-46.769667 -445.9817 4.5411747e-22)
(-129.15898 -202.34675 7.5621039e-25)
(91.030038 24.389894 -1.3721239e-33)
(91.030432 24.388948 -9.7018729e-22)
(91.032782 24.381071 1.0630179e-21)
(91.045758 24.332658 9.024001e-24)
(91.101673 24.091212 6.174375e-22)
(91.273408 23.206062 6.5781736e-27)
(91.410306 22.276809 0)
(91.345637 22.456533 8.0163816e-22)
(91.069289 23.663965 8.7578394e-22)
(90.742293 25.018058 -7.3533395e-24)
(90.709079 25.493014 5.0926506e-22)
(91.32806 24.888228 8.6117948e-24)
(96.339594 21.634401 5.8704479e-22)
(127.77248 9.3357627 1.2899619e-21)
(206.22103 -12.78677 -6.9714631e-22)
(228.44679 -17.483867 1.5063897e-21)
(229.55793 -21.418622 0)
(225.71663 -29.964837 6.8583511e-24)
(224.2108 -41.363072 4.6614604e-22)
(226.72175 -63.908712 7.9720343e-24)
(227.6509 -112.88322 -8.5926612e-24)
(218.96858 -247.22226 -5.8251166e-22)
(71.332065 -1339.9629 -1.9658373e-23)
(74.374523 -281.93767 -2.9952895e-22)
(89.76407 -295.74824 -3.0089351e-22)
(89.328284 -310.07161 3.0644328e-22)
(-51.460762 -444.54933 -4.2150736e-22)
(-116.28344 -210.97631 4.614816e-22)
(91.030021 24.390027 -8.4025288e-22)
(91.030386 24.389135 0)
(91.032411 24.382585 -9.9248765e-22)
(91.043608 24.340759 0)
(91.093552 24.127942 -5.9414057e-22)
(91.252394 23.316107 1.2793428e-21)
(91.402582 22.304417 0)
(91.368522 22.373965 -7.4644322e-22)
(91.08896 23.626129 -8.1506711e-22)
(90.762471 24.960973 6.8400457e-24)
(90.710315 25.421743 0)
(91.298355 24.948523 -8.0027673e-24)
(96.150559 21.678962 -5.3643731e-22)
(127.09026 9.1147402 -1.2066442e-21)
(206.03206 -13.955102 -6.4676197e-22)
(228.74377 -18.952156 -7.8908697e-27)
(229.79921 -23.190227 0)
(225.56931 -32.225864 -4.0651684e-22)
(224.16099 -44.499965 0)
(226.91783 -67.546005 7.3799553e-24)
(227.07139 -118.2552 -5.1673697e-22)
(219.2347 -257.10697 0)
(71.347017 -1339.958 -5.8265437e-22)
(74.543258 -284.77622 1.0643938e-23)
(89.863655 -295.74245 -9.1939523e-24)
(89.33903 -309.92044 -3.1229136e-22)
(-55.537017 -443.2337 4.0277824e-22)
(-113.66217 -218.80666 4.3285093e-22)
(91.030021 24.390129 7.8507225e-22)
(91.030281 24.389333 -6.6642425e-24)
(91.03182 24.384127 1.4474528e-23)
(91.040968 24.348668 -1.0133807e-21)
(91.084124 24.167316 5.4545426e-22)
(91.229837 23.434338 -5.6483321e-27)
(91.397793 22.328624 -6.3115564e-22)
(91.368174 22.244754 -1.0855309e-23)
(91.129734 23.494093 0)
(90.787491 24.910114 -6.3602437e-24)
(90.714428 25.369699 1.6060657e-27)
(91.276712 25.138868 4.8321257e-22)
(96.003366 21.707149 5.1409461e-22)
(126.21519 8.9174001 5.642098e-22)
(205.44123 -15.327124 5.9056194e-22)
(229.02975 -20.497445 -6.3730346e-22)
(230.13242 -25.059064 -1.0909892e-23)
(225.43357 -34.604438 3.6469293e-22)
(223.85378 -47.360002 1.2680314e-23)
(226.54462 -71.588419 0)
(226.59673 -123.58944 4.7049884e-22)
(219.83998 -268.17844 0)
(71.35638 -1339.9457 4.2137982e-25)
(74.664013 -289.35539 1.3269199e-24)
(90.009904 -295.95546 8.8715731e-24)
(89.402538 -309.44478 5.7887394e-22)
(-60.101638 -442.23437 -3.7243774e-22)
(-116.13186 -227.20434 -3.9204064e-22)
(91.030001 24.390199 -7.4470555e-22)
(91.030164 24.389444 -7.9635124e-22)
(91.03121 24.385236 0)
(91.038252 24.35505 2.3276487e-28)
(91.074761 24.196161 -1.0168346e-21)
(91.204604 23.552216 -5.4242911e-22)
(91.386564 22.40892 5.8768566e-22)
(91.376017 22.194045 0)
(91.153415 23.288346 -7.108986e-22)
(90.810521 24.8743 7.8055795e-22)
(90.72117 25.36359 -8.1791018e-22)
(91.246314 25.212308 -1.3391943e-21)
(95.797244 21.799065 4.8469137e-22)
(125.39113 8.8072484 -1.6105657e-23)
(204.78254 -16.767909 5.6499364e-22)
(229.15945 -22.152104 0)
(230.2545 -26.980303 -6.5689288e-22)
(225.34605 -37.193117 -9.2782846e-28)
(223.78367 -50.521267 7.7450389e-22)
(226.39298 -75.519243 -4.1699088e-22)
(226.03268 -129.21373 0)
(219.68505 -278.29727 0)
(71.365164 -1339.8881 4.9785861e-22)
(74.881957 -292.01658 5.3318458e-22)
(90.085854 -295.84319 -8.4250848e-24)
(89.4431 -309.54984 -1.6566272e-26)
(-66.28277 -439.89277 0)
(-116.94944 -236.82838 0)
(91.029998 24.390222 6.9545139e-22)
(91.030112 24.389601 7.2004792e-22)
(91.030996 24.386403 1.2599174e-23)
(91.037036 24.362702 8.7433825e-22)
(91.068798 24.230564 9.4759231e-22)
(91.184679 23.664871 0)
(91.37391 22.50073 0)
(91.381103 22.184631 -6.0157123e-22)
(91.202966 23.001586 6.5095363e-22)
(90.839775 24.752258 -1.4071071e-21)
(90.732208 25.385345 7.5994123e-22)
(91.210771 25.222914 1.2774698e-23)
(95.613639 22.025448 -4.7066124e-22)
(124.39331 8.8014515 2.2408788e-23)
(203.85705 -17.8216 -5.2381978e-22)
(229.42222 -23.771992 0)
(230.53294 -29.009196 5.9909271e-22)
(225.16754 -39.769771 1.0084761e-23)
(223.6833 -54.188001 -1.4007364e-21)
(226.52607 -80.223783 3.7400629e-22)
(225.24243 -136.02559 4.0231713e-22)
(219.37992 -289.96064 -4.3316765e-22)
(71.38273 -1339.7821 -4.4653199e-22)
(75.106716 -294.18747 -7.6975786e-24)
(90.168269 -295.81623 -8.0001515e-24)
(89.474169 -309.44373 -2.6081166e-22)
(-72.848009 -437.47517 -4.0399457e-26)
(-116.85959 -246.92721 -1.0464848e-23)
(91.029986 24.390222 9.9887613e-24)
(91.030115 24.389728 0)
(91.030859 24.387009 0)
(91.035786 24.367673 -8.277229e-22)
(91.061488 24.257017 9.0350607e-22)
(91.160229 23.772037 -1.4935204e-23)
(91.3542 22.624162 -5.1721756e-22)
(91.385457 22.265677 5.7707174e-22)
(91.225267 22.831501 -9.4553202e-24)
(90.877968 24.539415 6.5385901e-22)
(90.751102 25.378945 -1.1028199e-23)
(91.176764 25.155757 7.7352341e-22)