/*--------------------------------*- C++ -*----------------------------------*\
| =========                 |                                                 |
| \\      /  F ield         | OpenFOAM: The Open Source CFD Toolbox           |
|  \\    /   O peration     | Version:  2506                                  |
|   \\  /    A nd           | Website:  www.openfoam.com                      |
|    \\/     M anipulation  |                                                 |
\*---------------------------------------------------------------------------*/
FoamFile
{
    version     2.0;
    format      ascii;
    arch        "LSB;label=32;scalar=64";
    class       volScalarField;
    location    "0.013";
    object      Ma;
}
// * * * * * * * * * * * * * * * * * * * * * * * * * * * * * * * * * * * * * //

dimensions      [0 0 0 0 0 0 0];

internalField   nonuniform List<scalar> 
13761
(
0.0037462114
0.011557403
0.020036341
0.029220222
0.039057686
0.049293322
0.059399779
0.068812007
0.077233242
0.08465189
0.091197425
0.097024641
0.10226861
0.10704026
0.11142846
0.115503
0.1193188
0.12291873
0.12633553
0.12959571
0.13272191
0.13573212
0.13864111
0.14146196
0.14420561
0.14688186
0.14949948
0.15206628
0.15458949
0.1570756
0.15953034
0.16195874
0.16436484
0.16675188
0.16912223
0.17147674
0.17381467
0.17613355
0.17842898
0.18069473
0.18292314
0.18510597
0.0037771253
0.011652794
0.020201393
0.029460007
0.039376355
0.049692452
0.059876502
0.069359385
0.077842794
0.085315744
0.091909057
0.097778798
0.10306103
0.10786747
0.11228758
0.11639166
0.12023502
0.12386082
0.12730208
0.13058553
0.13373398
0.1367656
0.13969532
0.14253633
0.1452997
0.14799534
0.15063214
0.153218
0.15576025
0.15826552
0.16073966
0.1631878
0.16561412
0.16802193
0.17041374
0.17279058
0.17515188
0.17749527
0.17981625
0.0037927756
0.011704635
0.020296095
0.029604596
0.039577399
0.049954305
0.060199299
0.069739119
0.07827347
0.085791268
0.092424062
0.09832877
0.10364221
0.10847675
0.11292237
0.11704982
0.12091473
0.12456057
0.12802058
0.13132166
0.13448681
0.13753433
0.14047927
0.14333496
0.14611258
0.14882212
0.15147257
0.15407193
0.15662759
0.15914625
0.16163382
0.16409561
0.16653594
0.16895818
0.17136479
0.17375656
0.0038040313
0.011740534
0.020360151
0.029700699
0.03970919
0.050123725
0.060405146
0.069977587
0.078540096
0.08608214
0.092736082
0.098659529
0.10398982
0.10883968
0.11329938
0.11743984
0.12131685
0.12497393
0.12844439
0.13175517
0.13492929
0.13798511
0.14093779
0.14380081
0.14658559
0.14930232
0.15196008
0.15456691
0.15713014
0.15965632
0.16215121
0.0038187514
0.011784568
0.020434886
0.029807801
0.039850169
0.050298879
0.060612432
0.070213002
0.078799205
0.086361125
0.093032013
0.098970289
0.1043139
0.10917599
0.11364712
0.11779841
0.12168582
0.12535307
0.1288335
0.13215402
0.1353376
0.13840267
0.14136467
0.14423766
0.0038508688
0.0059206173
0.018266104
0.031665019
0.046158715
0.061589821
0.077378413
0.092531345
0.10621917
0.11818766
0.12858715
0.13769767
0.14578384
0.15305625
0.15967914
0.16578017
0.17145806
0.17679006
0.1818366
0.18664425
0.1912511
0.19568996
0.19998722
0.20416465
0.2082415
0.21223382
0.21615576
0.2200199
0.22383726
0.22761795
0.23137102
0.23510445
0.2388253
0.24253935
0.2462514
0.24996532
0.25368314
0.25740478
0.26112772
0.26484644
0.26855211
0.27223278
0.27587365
0.27945837
0.28297171
0.28640297
0.28975044
0.29302569
0.29625703
0.29949211
0.30279963
0.30627195
0.31003413
0.31428158
0.31951683
0.32759
0.34400136
0.35195845
0.35362131
0.35383809
0.35385166
0.35385233
0.35382039
0.35371679
0.35354481
0.35336806
0.35323933
0.35317201
0.35311521
0.35299182
0.35276303
0.35248927
0.3522665
0.0058894982
0.018170122
0.031498742
0.045917284
0.061272664
0.07699551
0.092103212
0.10576584
0.1177212
0.12811293
0.1372176
0.14529832
0.15256509
0.15918196
0.16527654
0.17094758
0.1762724
0.18131147
0.18611142
0.19071037
0.19514115
0.19943017
0.20359916
0.20766735
0.21165076
0.21556355
0.21941829
0.22322599
0.22699677
0.23073968
0.23446274
0.23817302
0.24187634
0.24557751
0.24928046
0.25298722
0.25669775
0.26040955
0.26411706
0.2678114
0.2714805
0.2751095
0.27868208
0.28218315
0.28560209
0.28893728
0.29220039
0.29541971
0.29864281
0.30193836
0.3053986
0.30914814
0.31338143
0.31859808
0.32663676
0.34335394
0.35167279
0.35334622
0.35359337
0.35363368
0.35364288
0.3536078
0.35349847
0.35333395
0.35316857
0.35305539
0.35299833
0.35294723
0.35282857
0.35259898
0.35232903
0.35210645
0.35196823
0.35185101
0.35164893
0.35130822
0.35093206
0.35064168
0.35040388
0.35007879
0.34961049
0.34912616
0.0058588673
0.018075458
0.031334499
0.0456784
0.060958045
0.076613993
0.09167389
0.10530805
0.11724716
0.12762852
0.13672523
0.14479879
0.15205853
0.15866819
0.16475529
0.1704186
0.17573542
0.18076628
0.18555782
0.19014819
0.19457024
0.19885036
0.20301032
0.20706933
0.21104342
0.21494675
0.2187919
0.22258988
0.22635083
0.2300838
0.2337968
0.23749688
0.24118985
0.2448805
0.24857272
0.2522685
0.25596778
0.25966803
0.26336374
0.2670461
0.2707031
0.2743199
0.27788028
0.28136925
0.28477634
0.28810004
0.29135203
0.29456038
0.2977721
0.30105511
0.30450071
0.30823185
0.31243931
0.317613
0.32554654
0.34234076
0.35132709
0.35322131
0.3534158
0.35343396
0.35344828
0.35342833
0.35333168
0.35316387
0.35299796
0.35288519
0.35282923
0.35278254
0.35266028
0.35243385
0.3521697
0.35195845
0.35182944
0.35171558
0.35150983
0.35116582
0.35079819
0.35052017
0.35028508
0.34995059
0.34948449
0.34900629
0.34863226
0.34824089
0.34767718
0.34702088
0.34643808
0.34587288
0.0058273245
0.017978227
0.03116614
0.045433977
0.060636626
0.076224737
0.091236521
0.10484262
0.11676637
0.1271385
0.13622847
0.14429607
0.15154985
0.15815326
0.16423368
0.16988987
0.17519917
0.18022212
0.18500543
0.18958729
0.19400057
0.19827169
0.20242241
0.20647196
0.21043637
0.21432977
0.21816474
0.22195229
0.22570253
0.22942449
0.23312615
0.23681458
0.24049554
0.24417383
0.2478533
0.25153596
0.25522172
0.25890806
0.26258945
0.26625707
0.26989896
0.27350038
0.2770452
0.2805186
0.28391024
0.28721871
0.29045574
0.29364954
0.29684721
0.30011644
0.30354796
0.30726413
0.31145533
0.31661036
0.32451326
0.34140087
0.3507176
0.35294941
0.35332104
0.35335345
0.35334613
0.35330264
0.35319117
0.35302207
0.35285355
0.35273683
0.35267943
0.3526252
0.35249778
0.35226633
0.35200346
0.35179633
0.35166781
0.35155613
0.35135021
0.35100609
0.3506476
0.35037716
0.350144
0.34980913
0.3493463
0.34889037
0.34852078
0.34812999
0.3475705
0.3469205
0.34635525
0.34579261
0.34504617
0.34424647
0.3435278
0.34269151
0.0057982359
0.017888564
0.031010866
0.045208501
0.06033999
0.07586519
0.090831971
0.10441119
0.1163194
0.12668134
0.13576322
0.14382343
0.1510699
0.15766584
0.16373859
0.16938688
0.17468808
0.17970276
0.18447765
0.18905095
0.19345556
0.19771788
0.20185969
0.2059002
0.20985545
0.21373958
0.21756514
0.22134316
0.22508373
0.2287959
0.23248764
0.23616601
0.23983678
0.24350472
0.24717367
0.25084559
0.25452035
0.25819537
0.26186509
0.26552065
0.26915009
0.27273869
0.27627041
0.27973055
0.28310893
0.28640436
0.28962877
0.29281039
0.29599621
0.29925376
0.30267384
0.3063792
0.31056172
0.31571251
0.32362624
0.34086979
0.35055381
0.35268696
0.35301465
0.35308469
0.35311124
0.35308682
0.35297848
0.35281284
0.35265548
0.35255574
0.35251046
0.35246279
0.3523372
0.35210352
0.35184553
0.35164158
0.35151992
0.35141057
0.35120036
0.35085992
0.35051231
0.35025318
0.3500194
0.3496838
0.34922093
0.3487658
0.34841242
0.34802038
0.34746079
0.34682159
0.34626966
0.3457088
0.34495964
0.34417466
0.34346584
0.3426389
0.34164827
0.34072758
0.33972494
0.0057686539
0.017797
0.030851785
0.044976808
0.060034459
0.07549446
0.09041516
0.1039678
0.11586163
0.12621485
0.13529017
0.14334438
0.15058475
0.15717424
0.1632401
0.16888107
0.17417457
0.17918121
0.18394777
0.18851249
0.19290829
0.1971616
0.20129421
0.20532532
0.20927098
0.21314533
0.21696093
0.22072877
0.22445896
0.22816054
0.23184148
0.23550882
0.23916836
0.24282484
0.24648214
0.25014223
0.25380501
0.25746791
0.2611254
0.26476865
0.26838574
0.27196199
0.27548141
0.27892937
0.28229576
0.2855794
0.28879213
0.29196198
0.29513554
0.2983798
0.30178457
0.30547065
0.30962556
0.31472717
0.3225099
0.33965715
0.35006996
0.3525454
0.35286632
0.35289211
0.35289939
0.35287237
0.3527759
0.35261425
0.35245998
0.35236038
0.35231616
0.35227461
0.35215106
0.35192604
0.35167448
0.35147654
0.35135885
0.35124997
0.35103573
0.35069364
0.35035698
0.35010833
0.34987707
0.34954112
0.3490878
0.34864973
0.34829649
0.34790476
0.34734121
0.3467139
0.34618393
0.34562347
0.34488544
0.34411587
0.34342001
0.34258781
0.34158832
0.34067983
0.33967528
0.33854212
0.33748519
0.0057405024
0.017710174
0.030701363
0.044758264
0.059746685
0.075145077
0.090021135
0.10354654
0.11542404
0.12576598
0.13483191
0.14287721
0.1501086
0.15668883
0.16274508
0.16837613
0.17365939
0.17865553
0.18341137
0.18796517
0.19234988
0.19659195
0.2007132
0.20473284
0.20866693
0.21252961
0.21633343
0.22008941
0.22380762
0.22749708
0.23116573
0.23482058
0.23846736
0.2421108
0.2457547
0.249401
0.25304955
0.25669775
0.26034006
0.26396763
0.26756857
0.27112829
0.27463093
0.27806201
0.28141164
0.2846788
0.2878755
0.29102983
0.29418833
0.29741771
0.30080733
0.30447759
0.30861586
0.31370059
0.32146754
0.338691
0.34942551
0.35226282
0.35279054
0.35285767
0.35285361
0.35280521
0.35267979
0.35250512
0.35234084
0.35223436
0.35218768
0.35213587
0.35200322
0.35177175
0.35151742
0.35132466
0.35121065
0.35110397
0.35088356
0.35054413
0.35021694
0.34997277
0.34974459
0.3494046
0.34895151
0.3485227
0.3481835
0.34779157
0.34722482
0.34661126
0.34609098
0.34552963
0.34479182
0.34403292
0.34335873
0.34252474
0.34154046
0.34065287
0.33967112
0.33855373
0.33750841
0.3362534
0.33498332
0.0057104402
0.01761771
0.030541521
0.044526547
0.059442428
0.074777356
0.089609425
0.1031107
0.11497653
0.12531253
0.13437467
0.14241673
0.14964473
0.15622115
0.16227308
0.16789927
0.17317717
0.17816746
0.18291699
0.18746406
0.1918416
0.19607609
0.20018932
0.20420052
0.20812574
0.21197914
0.21577328
0.21951918
0.22322696
0.22690564
0.2305632
0.23420668
0.23784184
0.24147342
0.24510524
0.24873924
0.25237529
0.2560108
0.25964019
0.26325463
0.26684221
0.27038837
0.27387732
0.27729467
0.28063059
0.28388417
0.28706747
0.29020856
0.29335402
0.29657091
0.29994923
0.30361037
0.30774418
0.31283861
0.32066594
0.33824606
0.34929253
0.35198416
0.35243206
0.35252563
0.352559
0.35253692
0.35243024
0.3522679
0.35212018
0.35203454
0.35200214
0.35195897
0.3518304
0.35159946
0.3513515
0.35116241
0.3510514
0.35094184
0.35071861
0.35038671
0.35006887
0.34983162
0.34960375
0.34926645
0.34881606
0.34840115
0.34806176
0.34766401
0.34710478
0.34650922
0.34600322
0.34544335
0.34471242
0.34397939
0.34331318
0.34245818
0.34147501
0.34060976
0.33963398
0.33852313
0.33747936
0.33621784
0.33496646
0.33367958
0.33232644
0.0056822927
0.017530829
0.030390952
0.044307734
0.059154118
0.074426761
0.08921296
0.10268542
0.11453325
0.12485642
0.13390786
0.14194
0.14915834
0.15572514
0.16176745
0.16738401
0.17265227
0.17763294
0.18237287
0.18691037
0.19127837
0.19550331
0.199607
0.20360865
0.20752426
0.21136798
0.21515237
0.21888843
0.22258628
0.22625496
0.22990246
0.23353581
0.23716074
0.24078198
0.24440328
0.24802657
0.25165167
0.25527598
0.25889395
0.2624968
0.26607271
0.26960719
0.27308453
0.27649039
0.279815
0.28305743
0.28622961
0.28935938
0.29249282
0.29569597
0.29905717
0.30269532
0.30679496
0.31182653
0.31949342
0.33681375
0.34869422
0.35183626
0.35232602
0.35237256
0.35236926
0.35232743
0.35221942
0.35205889
0.35191352
0.35182786
0.35179683
0.35175978
0.35163745
0.35141389
0.35117104
0.35098711
0.3508844
0.35077783
0.35055107
0.35022076
0.34991479
0.34969115
0.34946707
0.34913039
0.34868976
0.3482757
0.34794075
0.34754919
0.34698503
0.3464005
0.34590912
0.34534846
0.34460758
0.34389093
0.34322979
0.34237969
0.34142669
0.34059291
0.33961835
0.33852353
0.33748505
0.33623362
0.33499567
0.33370808
0.33237305
0.33098284
0.0056504125
0.017432838
0.030221695
0.044062544
0.058831989
0.074036075
0.088772437
0.10221472
0.11404518
0.12435724
0.1334002
0.1414248
0.14863574
0.15519498
0.1612294
0.16683767
0.17209725
0.17706886
0.18179936
0.18632709
0.19068499
0.19489953
0.19899252
0.20298318
0.20688755
0.21071975
0.21449233
0.21821624
0.22190155
0.22555725
0.22919128
0.23281067
0.23642119
0.24002762
0.2436338
0.24724169
0.25085119
0.25445969
0.25806163
0.2616482
0.26520758
0.26872535
0.27218589
0.27557499
0.27888304
0.28210923
0.28526559
0.28838002
0.2914986
0.29468733
0.29803466
0.30165982
0.30574873
0.31077526
0.31845656
0.335857
0.34801549
0.35152538
0.35222623
0.35233376
0.35234131
0.35229303
0.35215671
0.35197603
0.35181582
0.35172137
0.35168648
0.35163959
0.35150383
0.35127307
0.35102779
0.35084552
0.35074085
0.35062899
0.35039249
0.35006315
0.34976334
0.34954299
0.34932307
0.34897984
0.34854279
0.34814434
0.34781457
0.34741505
0.34685352
0.3462909
0.34581232
0.34525065
0.34453348
0.34383208
0.34318082
0.34231536
0.34137044
0.34054961
0.33956304
0.33848516
0.3374466
0.33619364
0.33497101
0.33371558
0.33240624
0.33100419
0.32955704
0.32808404
0.0056216132
0.01734426
0.030068569
0.043840479
0.058539866
0.073681256
0.088371664
0.10178558
0.11359899
0.12389948
0.13293318
0.14094943
0.14815237
0.15470371
0.16073023
0.16633059
0.17158224
0.17654589
0.18126843
0.18578819
0.19013812
0.19434468
0.19842968
0.20241233
0.20630862
0.21013266
0.21389696
0.21761248
0.22128926
0.22493629
0.22856149
0.23217182
0.23577302
0.23936978
0.24296588
0.24656322
0.25016166
0.25375863
0.25734863
0.26092295
0.26446981
0.26797483
0.27142247
0.27479863
0.27809383
0.28130737
0.28445134
0.2875536
0.2906602
0.2938373
0.29717386
0.30079051
0.30487676
0.30991704
0.31767011
0.33537476
0.34784918
0.3512231
0.35185303
0.35197129
0.35199616
0.35196428
0.35185315
0.35169512
0.35155795
0.35148789
0.35147032
0.35143306
0.35130418
0.35107776
0.35083733
0.35066565
0.35057274
0.35046145
0.35022393
0.34990615
0.34961669
0.34940243
0.34918318
0.34884819
0.34840978
0.3480109
0.34769155
0.34729587
0.34674266
0.34619411
0.34571788
0.34515563
0.3444272
0.34373499
0.34308861
0.3422223
0.34131258
0.34051501
0.33954549
0.33847192
0.33743841
0.33620383
0.33500093
0.33376051
0.33244061
0.33101176
0.32958638
0.32811899
0.32660712
0.0055941491
0.017259237
0.029920856
0.043625251
0.058255359
0.073333749
0.087976609
0.10135975
0.11315351
0.12343997
0.13246212
0.1404678
0.1476605
0.15420159
0.16021776
0.16580761
0.17104859
0.17600145
0.1807131
0.1852219
0.18956084
0.19375639
0.19783036
0.20180195
0.20568717
0.20950011
0.21325328
0.21695764
0.22062322
0.224259
0.22787291
0.23147194
0.23506181
0.23864727
0.24223213
0.24581832
0.24940571
0.25299174
0.25657087
0.26013436
0.26367043
0.26716475
0.27060177
0.27396742
0.27725218
0.28045532
0.28358896
0.28668088
0.28977669
0.29294144
0.29626214
0.29985587
0.30390501
0.30887465
0.31644515
0.33382519
0.34715982
0.35103835
0.35172211
0.35181703
0.35182065
0.3517738
0.3516498
0.35148821
0.35135231
0.35128332
0.3512689
0.3512361
0.35111388
0.35089067
0.35065591
0.35048845
0.35039685
0.35028039
0.35004059
0.34972666
0.34945063
0.34925264
0.34903664
0.34869518
0.3482647
0.34787616
0.34755528
0.34715365
0.34660809
0.34607826
0.34561224
0.34504739
0.34433416
0.34367222
0.34303459
0.34215274
0.34125772
0.34047571
0.33949564
0.33841628
0.33739524
0.33616037
0.33497696
0.33376292
0.33244432
0.33103214
0.32962531
0.32816771
0.3266733
0.32513877
0.0055628489
0.017162981
0.029754526
0.043384113
0.057937981
0.07294728
0.087537991
0.10088737
0.11265977
0.12293129
0.13194151
0.13993664
0.14711938
0.15365074
0.1596572
0.16523726
0.17046828
0.17541098
0.18011226
0.18461048
0.18893861
0.19312314
0.19718588
0.20114606
0.20501967
0.20882084
0.21256206
0.21625428
0.21990752
0.22353073
0.22713177
0.2307176
0.23429387
0.23786524
0.24143545
0.24500639
0.24857787
0.25214735
0.25570938
0.25925532
0.26277353
0.26624976
0.26966865
0.27301627
0.27628329
0.27946908
0.28258567
0.2856607
0.28873982
0.29188851
0.2951944
0.29877549
0.30281617
0.3077885
0.31539569
0.3328061
0.34641877
0.35071274
0.35163127
0.35177248
0.35178385
0.35173391
0.35158895
0.35140791
0.35125605
0.3511788
0.35115767
0.35111526
0.35097835
0.35074892
0.35051278
0.35035029
0.35025899
0.35013699
0.34988874
0.34957449
0.34930253
0.34910895
0.34889367
0.34854945
0.34812476
0.34774068
0.34743266
0.34703665
0.34648983
0.34596828
0.34551465
0.34495342
0.34422853
0.34357455
0.34292411
0.34205654
0.34119824
0.34044622
0.33945182
0.3383904
0.33738303
0.33615749
0.33501365
0.33380095
0.33245101
0.3310481
0.32964757
0.32820237
0.32671819
0.32518445
0.32364997
0.0055363393
0.017081445
0.029613535
0.043179515
0.057668367
0.072618614
0.087164729
0.10048523
0.11223926
0.12249773
0.13149726
0.13948268
0.14665607
0.15317818
0.15917534
0.16474603
0.16996762
0.17490083
0.17959257
0.18408122
0.18839976
0.19257468
0.1966278
0.20057832
0.20444225
0.20823368
0.21196512
0.2156475
0.21929083
0.22290406
0.22649505
0.23007074
0.2336368
0.2371979
0.24075775
0.24431823
0.24787912
0.2514378
0.25498874
0.25852323
0.26202962
0.26549368
0.2689001
0.27223503
0.27548921
0.27866215
0.28176601
0.28482859
0.28789565
0.29103266
0.29432755
0.29789967
0.30193759
0.30692631
0.31462318
0.33232526
0.34621962
0.35037418
0.35124608
0.35140721
0.35142292
0.35137773
0.35125725
0.35110431
0.35098013
0.35092608
0.35092004
0.3508863
0.35075785
0.35053398
0.35030583
0.35015473
0.35006925
0.34994667
0.34970142
0.34940016
0.34914307
0.34895198
0.34873706
0.34839788
0.34796964
0.34759651
0.34729668
0.34689192
0.34635941
0.34585275
0.34540231
0.34482849
0.34412852
0.34349912
0.34285856
0.34199983
0.34115923
0.34039978
0.33936975
0.33834167
0.33733942
0.33611642
0.33499448
0.33378629
0.33242842
0.3310676
0.32967819
0.32824266
0.32677484
0.32524504
0.32370989
0.32217253
0.0055083159
0.016994551
0.029462346
0.042958873
0.057376126
0.072260735
0.086756746
0.1000445
0.11177765
0.12202142
0.13100915
0.13898408
0.14614758
0.15266001
0.15864754
0.16420853
0.16942029
0.17434352
0.17902514
0.18350352
0.18781165
0.19197605
0.19601856
0.1999584
0.2038116
0.2075923
0.21131301
0.21498466
0.21861729
0.22221983
0.22580013
0.22936513
0.23292048
0.2364708
0.24001982
0.24356938
0.24711931
0.25066706
0.25420715
0.25773094
0.2612268
0.26468059
0.268077
0.27140223
0.27464697
0.27781065
0.28090522
0.28395815
0.28701456
0.29013891
0.29341733
0.2969659
0.30096611
0.30587961
0.31337579
0.33073465
0.34546371
0.35013635
0.35105094
0.3512099
0.35123491
0.35118808
0.35105544
0.35089745
0.35077458
0.35072255
0.35072046
0.35069142
0.35056736
0.3503446
0.35012156
0.34997838
0.34989763
0.34977246
0.3495267
0.34923146
0.34898495
0.34880369
0.34858799
0.34824797
0.34782468
0.34746
0.34716824
0.34676188
0.34623776
0.3457453
0.34529904
0.34473172
0.34402725
0.34339623
0.34274862
0.34189974
0.34109495
0.34033755
0.33930818
0.3383233
0.33731809
0.33611688
0.3350291
0.33380307
0.33244165
0.33109303
0.32970189
0.32827205
0.32681178
0.32528432
0.32375367
0.3222222
0.32071072
0.0054791456
0.016904757
0.029307058
0.042733532
0.057078983
0.071897507
0.086342026
0.099594683
0.11130413
0.12153033
0.1305035
0.13846533
0.14561645
0.15211683
0.15809245
0.16364154
0.16884137
0.17375259
0.17842213
0.18288834
0.18718421
0.19133624
0.19536626
0.19929347
0.20313389
0.20690161
0.21060913
0.21426736
0.2178863
0.22147486
0.22504088
0.22859125
0.23213161
0.23566655
0.23919976
0.24273308
0.24626628
0.24979678
0.25331909
0.25682464
0.26030187
0.26373676
0.2671142
0.2704206
0.27364692
0.27679278
0.27987027
0.28290686
0.28594768
0.28905727
0.29232209
0.29585907
0.2998519
0.30476753
0.31229017
0.3295953
0.34465279
0.34983362
0.35101106
0.3511902
0.35119269
0.35114195
0.35099168
0.350815
0.35067494
0.35061379
0.35060202
0.35056202
0.35042286
0.35019323
0.3499712
0.34982764
0.34974112
0.34960699
0.34935615
0.34905823
0.3488157
0.34864438
0.34843486
0.34808949
0.34767151
0.34732053
0.34702818
0.34661884
0.34609563
0.34561117
0.34517905
0.34459795
0.3439068
0.34331374
0.34268255
0.3418321
0.34105119
0.34027901
0.33923757
0.33827396
0.33726998
0.33607994
0.33500229
0.3337483
0.3324269
0.33111626
0.32972732
0.32829797
0.32685553
0.32533503
0.32381029
0.32228073
0.32077772
0.31926246
0.0054521565
0.016821768
0.029163583
0.042525328
0.056804574
0.071562917
0.0859622
0.09918622
0.11087827
0.12109276
0.1300567
0.13801029
0.14515346
0.15164586
0.15761331
0.16315398
0.1683451
0.17324734
0.17790762
0.18236436
0.18665054
0.19079269
0.19481269
0.19872976
0.20255994
0.20631735
0.21001451
0.21366233
0.21727084
0.22084894
0.22440446
0.2279443
0.23147407
0.23499834
0.23852077
0.24204314
0.24556518
0.24908424
0.25259479
0.25608817
0.25955281
0.26297466
0.26633863
0.26963117
0.27284338
0.27597508
0.27903872
0.28206206
0.28509036
0.28818829
0.29144287
0.29497274
0.29896639
0.30390613
0.31153635
0.32911906
0.3444288
0.3494485
0.3506172
0.35083746
0.35085259
0.35079591
0.35066659
0.3505183
0.35040485
0.35036333
0.35036405
0.35032951
0.35019585
0.34997452
0.34976256
0.34963642
0.34956045
0.34943056
0.34918158
0.34889211
0.34866011
0.34848428
0.34827067
0.34792723
0.34751089
0.34717276
0.34689366
0.34648552
0.34597086
0.34549696
0.3450736
0.34449842
0.34380576
0.3432166
0.34256881
0.34173311
0.34098045
0.34020587
0.33917033
0.33823881
0.33724387
0.33608012
0.3350257
0.3337377
0.33245373
0.33114275
0.32975376
0.32832055
0.32688266
0.32536662
0.32384939
0.32232803
0.32083467
0.31932418
0.31784794
0.0054268876
0.016743223
0.029026634
0.042325012
0.056538499
0.071235832
0.085587565
0.098779516
0.11045027
0.12064915
0.12960018
0.13754214
0.14467426
0.15115589
0.15711268
0.16264269
0.16782314
0.17271467
0.17736419
0.1818101
0.18608541
0.19021662
0.19422562
0.19813162
0.20195067
0.2056969
0.2093828
0.21301934
0.21661652
0.22018327
0.22372744
0.22725594
0.23077439
0.23428741
0.23779865
0.24130994
0.24482102
0.24832928
0.25182924
0.25531226
0.25876683
0.26217891
0.26553345
0.26881689
0.27202024
0.27514316
0.2781977
0.28121128
0.28422896
0.28731488
0.29055434
0.29406219
0.29801869
0.30288364
0.31031378
0.32754679
0.34363032
0.34915768
0.35035147
0.3505835
0.35063236
0.3505858
0.35044824
0.3502955
0.35018607
0.35014976
0.35015578
0.3501257
0.34999324
0.34977198
0.3495676
0.34944653
0.34937195
0.34923872
0.34898774
0.3487075
0.34849089
0.34832462
0.34811289
0.34777076
0.34735493
0.34702902
0.34674777
0.3463338
0.34583182
0.34537068
0.34494841
0.34435706
0.34368394
0.34312146
0.34248546
0.34166944
0.34092716
0.34012945
0.33909026
0.33819672
0.33719058
0.33605001
0.33498076
0.33367715
0.33244156
0.33115078
0.32976899
0.32833109
0.3269102
0.32541024
0.32390267
0.32238511
0.32089436
0.31938725
0.31791872
0.31630962
0.0053985744
0.016655884
0.028875317
0.042105014
0.056247731
0.070879333
0.085179199
0.098335393
0.1099819
0.1201628
0.12909898
0.1370276
0.14414711
0.15061647
0.15656109
0.16207894
0.16724713
0.17212628
0.17676328
0.18119652
0.18545899
0.18957719
0.19357299
0.1974656
0.20127108
0.20500352
0.20867544
0.21229776
0.21588047
0.21943249
0.22296162
0.22647475
0.22997747
0.23347435
0.23696904
0.24046332
0.24395694
0.24744729
0.25092889
0.25439316
0.25782864
0.26122144
0.26455666
0.26782095
0.27100552
0.27411022
0.27714728
0.2801441
0.2831454
0.28621497
0.28943836
0.29293145
0.29687648
0.30173688
0.30917509
0.32628879
0.34273389
0.34887483
0.35035731
0.35059178
0.35059071
0.35054192
0.35039374
0.3502221
0.35009441
0.35004599
0.35004007
0.34999555
0.34984567
0.3496204
0.34941605
0.34929705
0.34922153
0.34907693
0.34882061
0.34853947
0.34832215
0.34816537
0.34795686
0.34760247
0.34719603
0.34688708
0.34661178
0.34619415
0.345691
0.34524705
0.34483005
0.34424145
0.34358194
0.3430186
0.34238622
0.34157472
0.34084726
0.34002488
0.33901894
0.33816938
0.33715015
0.3360484
0.3349668
0.33368431
0.33247652
0.33116811
0.32979602
0.32835131
0.32692931
0.3254339
0.32393533
0.32242482
0.32094407
0.31944416
0.31798489
0.31637352
0.31499193
0.0053730819
0.016577618
0.028740152
0.041908987
0.055989219
0.070563299
0.084818929
0.097946374
0.10957513
0.11974416
0.12867116
0.13659172
0.14370353
0.15016515
0.15610181
0.16161138
0.16677095
0.17164109
0.17626873
0.18069226
0.1849447
0.18905257
0.19303777
0.19691955
0.20071397
0.20443515
0.20809562
0.21170631
0.21527725
0.21881734
0.22233441
0.22583533
0.22932572
0.23281012
0.23629216
0.2397736
0.24325417
0.24673118
0.25019913
0.25364941
0.25707052
0.26044859
0.26376872
0.26701765
0.2701867
0.27327589
0.27629761
0.2792795
0.2822666
0.28532325
0.28853586
0.29202225
0.29597043
0.30086213
0.30843465
0.32583137
0.3424947
0.34846943
0.34998245
0.35027332
0.35029093
0.35022735
0.35008639
0.34994268
0.34983749
0.34980429
0.34980701
0.34976356
0.3496174
0.34940326
0.34921425
0.34911104
0.34903593
0.34889116
0.34863574
0.34835966
0.34814886
0.34799065
0.3477809
0.34742673
0.34703181
0.34674098
0.34646268
0.34604621
0.34554444
0.3451113
0.34470205
0.34410099
0.34345349
0.34292078
0.34229626
0.34148898
0.34077175
0.33993302
0.3389626
0.33811976
0.3370917
0.33601143
0.33488208
0.33363584
0.33245493
0.33115433
0.32979712
0.3283506
0.32694702
0.32546945
0.32398293
0.32247869
0.32100186
0.3195043
0.31804955
0.31643943
0.31505297
0.31372039
0.0053508854
0.016508553
0.028619621
0.041732471
0.055754244
0.070273267
0.084484645
0.09758068
0.10918721
0.11933908
0.12825154
0.13615893
0.14325839
0.14970818
0.15563333
0.16113163
0.16628007
0.17113922
0.17575596
0.18016871
0.18441046
0.18850775
0.19248247
0.19635383
0.20013787
0.2038487
0.2074988
0.2110991
0.21465959
0.21818917
0.22169565
0.22518591
0.22866555
0.23213914
0.23561033
0.23908093
0.24255069
0.24601701
0.24947443
0.25291438
0.25632544
0.25969377
0.26300451
0.26624441
0.26940476
0.27248545
0.27549869
0.27847177
0.28144917
0.28449423
0.28769166
0.29115599
0.29506796
0.29988459
0.30725586
0.32431002
0.34168814
0.34812659
0.349636
0.34995671
0.35002636
0.34998233
0.34984156
0.34969543
0.34959838
0.34957306
0.34957978
0.34954048
0.3493952
0.34918412
0.34900565
0.34891003
0.34884246
0.3486998
0.34844481
0.3481809
0.3479861
0.34783175
0.34761599
0.34725497
0.34687054
0.3465882
0.34631496
0.34589871
0.34540665
0.34498963
0.34457921
0.34397525
0.34334317
0.34282389
0.34218502
0.34139416
0.34068374
0.33984401
0.33890974
0.33806111
0.33705156
0.33599213
0.33484549
0.33365889
0.33248291
0.3311546
0.32982123
0.3283798
0.32696586
0.32548897
0.32401072
0.32251796
0.32104814
0.31955163
0.31810818
0.31650356
0.31510943
0.31377145
0.0053233279
0.016423591
0.028472545
0.041518807
0.055471785
0.069926027
0.084084659
0.097142696
0.10872254
0.11885461
0.12775123
0.13564512
0.14273244
0.14917085
0.155085
0.16057236
0.16570975
0.17055756
0.17516259
0.17956317
0.18379226
0.18787641
0.1918375
0.1956948
0.19946435
0.20316031
0.20679519
0.21037997
0.21392466
0.21743819
0.22092839
0.22440213
0.227865
0.23132152
0.2347753
0.23822809
0.24167961
0.24512727
0.24856563
0.25198622
0.25537771
0.25872642
0.2620177
0.26523849
0.2683803
0.27144319
0.27443949
0.27739649
0.28035859
0.28338897
0.28657218
0.29002268
0.2939209
0.29872086
0.30605321
0.32289436
0.34066627
0.34780744
0.34966003
0.34997252
0.34998111
0.34993617
0.34980046
0.34963453
0.34951714
0.34947549
0.3494688
0.34941264
0.34924856
0.3490345
0.34885463
0.34875534
0.3486807
0.34852183
0.34826135
0.34799486
0.34779821
0.3476553
0.34744028
0.3470799
0.34671002
0.34644343
0.34616245
0.34573731
0.34525015
0.34484894
0.34443803
0.34383365
0.34322276
0.34272399
0.34207653
0.34129881
0.34058014
0.33976183
0.33883909
0.33800404
0.33699469
0.3359296
0.33477665
0.33362762
0.33243374
0.33111494
0.32980104
0.32837218
0.32697646
0.32551886
0.32405401
0.32256714
0.32109819
0.31960408
0.3181684
0.31656861
0.31516563
0.31382454
0.31254253
0.0052981146
0.016346643
0.028340336
0.041328003
0.055221012
0.06961918
0.083732099
0.09675643
0.10831127
0.11842338
0.12730293
0.13518157
0.14225493
0.14868034
0.15458223
0.16005793
0.16518415
0.1700212
0.17461581
0.17900629
0.18322556
0.1873001
0.19125175
0.19509969
0.19885993
0.20254651
0.2061719
0.20974695
0.21328161
0.21678472
0.22026403
0.22372639
0.22717737
0.23062153
0.23406247
0.23750196
0.24093971
0.2443731
0.24779667
0.25120192
0.25457755
0.25790989
0.26118438
0.26438809
0.26751271
0.2705585
0.27353802
0.2764788
0.27942561
0.28244222
0.28561444
0.28905955
0.29296505
0.29780558
0.30529121
0.3224381
0.34039357
0.34740832
0.34933227
0.34970439
0.3497301
0.34966419
0.34951241
0.34937181
0.34927349
0.34924275
0.3492422
0.34918226
0.34902442
0.34882214
0.34865851
0.34857636
0.34850336
0.34834273
0.34808216
0.34781948
0.3476271
0.34748553
0.34726844
0.34690287
0.34654639
0.34629085
0.34601305
0.34558094
0.3450989
0.34471603
0.34430599
0.34369499
0.34310466
0.34261375
0.34197144
0.34119342
0.34049427
0.33967819
0.33876876
0.33795417
0.33694223
0.33587771
0.3347546
0.33365085
0.33243086
0.33111268
0.32982384
0.32841283
0.32699886
0.3255362
0.32407645
0.32259861
0.32113662
0.31964847
0.31822458
0.31662868
0.31521931
0.31387376
0.31258593
0.31138454
0.0052730111
0.016268833
0.028204953
0.041130224
0.054957917
0.069293548
0.083354733
0.096341822
0.10787138
0.11796588
0.12683229
0.13470032
0.14176448
0.14818141
0.15407513
0.15954272
0.16466074
0.16948943
0.17407549
0.17845719
0.18266744
0.18673273
0.1906749
0.19451317
0.19826357
0.20194022
0.20555563
0.20912073
0.21264548
0.21613876
0.21960834
0.22306106
0.2265025
0.22993719
0.23336873
0.23679888
0.24022741
0.24365171
0.24706638
0.25046297
0.25383023
0.25715452
0.2604213
0.26361763
0.26673516
0.26977405
0.27274665
0.27568018
0.27861888
0.28162564
0.2847846
0.28820985
0.2920817
0.29685483
0.30416075
0.32096856
0.33960112
0.34703457
0.34888287
0.34931371
0.34940445
0.34936777
0.34922759
0.349088
0.34900121
0.34898272
0.34898676
0.34893251
0.34877995
0.3485847
0.34843851
0.34836458
0.348294
0.34813648
0.3478801
0.34762612
0.347446
0.34730357
0.34707645
0.34671411
0.3463774
0.34613308
0.34585097
0.34541677
0.3449473
0.34457518
0.34416287
0.34355971
0.34298101
0.34250918
0.34185926
0.34107184
0.34038971
0.33957494
0.33870008
0.33789072
0.33686859
0.33580385
0.33469968
0.33360145
0.33234648
0.33107056
0.32978616
0.32839709
0.32700099