/*--------------------------------*- C++ -*----------------------------------*\
| =========                 |                                                 |
| \\      /  F ield         | OpenFOAM: The Open Source CFD Toolbox           |
|  \\    /   O peration     | Version:  2506                                  |
|   \\  /    A nd           | Website:  www.openfoam.com                      |
|    \\/     M anipulation  |                                                 |
\*---------------------------------------------------------------------------*/
FoamFile
{
    version     2.0;
    format      ascii;
    arch        "LSB;label=32;scalar=64";
    class       volScalarField;
    location    "0.003";
    object      alphat;
}
// * * * * * * * * * * * * * * * * * * * * * * * * * * * * * * * * * * * * * //

dimensions      [1 -1 -1 0 0 0 0];

internalField   nonuniform List<scalar> 
13761
(
2.5581742e-06
2.5581714e-06
2.5582015e-06
2.5581786e-06
2.5581767e-06
2.5582052e-06
2.5581803e-06
2.5582025e-06
2.544336e-06
2.5581841e-06
2.5443359e-06
2.5582173e-06
2.5443358e-06
2.5581949e-06
2.5443358e-06
2.558193e-06
2.5443358e-06
2.5582238e-06
2.5443359e-06
2.5581977e-06
2.5443358e-06
2.558229e-06
2.5443358e-06
2.5582025e-06
2.5434653e-06
2.5443359e-06
2.5582335e-06
2.543465e-06
2.5443373e-06
2.5582105e-06
2.5434647e-06
2.5443492e-06
2.5582088e-06
2.5434646e-06
2.5443892e-06
2.5582943e-06
2.5434645e-06
2.5444451e-06
2.5582435e-06
2.5434644e-06
2.5444887e-06
2.5587083e-06
2.5434644e-06
2.5445086e-06
2.558105e-06
2.5434649e-06
2.5434646e-06
2.5445125e-06
2.5580434e-06
2.5434646e-06
2.5434649e-06
2.5445074e-06
2.5579372e-06
2.5434642e-06
2.5434655e-06
2.544493e-06
2.5581576e-06
2.543464e-06
2.5434726e-06
2.5444855e-06
2.56063e-06
2.5434639e-06
2.5435035e-06
2.5444842e-06
2.5584716e-06
2.543464e-06
2.5435573e-06
2.5444958e-06
2.5583286e-06
2.5434639e-06
2.5436061e-06
2.5445412e-06
2.5434637e-06
2.5436322e-06
2.544591e-06
2.5434476e-06
2.5434636e-06
2.5436393e-06
2.5446019e-06
2.5434472e-06
2.5434635e-06
2.5436386e-06
2.5445817e-06
2.5434467e-06
2.5434636e-06
2.5436252e-06
2.5445769e-06
2.5434465e-06
2.543467e-06
2.543613e-06
2.5445975e-06
2.5434464e-06
2.5434887e-06
2.5436099e-06
2.5446239e-06
2.5434464e-06
2.5435378e-06
2.5436133e-06
2.5446295e-06
2.5434462e-06
2.5435915e-06
2.5436455e-06
2.5446178e-06
2.543446e-06
2.543626e-06
2.5437034e-06
2.5434468e-06
2.5434458e-06
2.5436389e-06
2.5437462e-06
2.5434465e-06
2.5434458e-06
2.5436407e-06
2.5437415e-06
2.5434461e-06
2.5434473e-06
2.5436318e-06
2.5437131e-06
2.5434461e-06
2.5434608e-06
2.5436149e-06
2.5437055e-06
2.543446e-06
2.5435019e-06
2.5436069e-06
2.5437234e-06
2.5434458e-06
2.5435578e-06
2.5436057e-06
2.5437473e-06
2.5434455e-06
2.5436005e-06
2.543614e-06
2.5437508e-06
2.5434469e-06
2.5434453e-06
2.5436204e-06
2.5436494e-06
2.5437396e-06
2.5434466e-06
2.5434453e-06
2.5436249e-06
2.5436977e-06
2.5434461e-06
2.5434453e-06
2.5436215e-06
2.5437261e-06
2.5434462e-06
2.5434458e-06
2.5436039e-06
2.543716e-06
2.5434461e-06
2.5434531e-06
2.5435903e-06
2.5436986e-06
2.5434457e-06
2.5434842e-06
2.5435865e-06
2.5437046e-06
2.5434454e-06
2.5435384e-06
2.5435871e-06
2.5437289e-06
2.5434472e-06
2.5434451e-06
2.5435883e-06
2.5436026e-06
2.5437522e-06
2.5434468e-06
2.5434451e-06
2.5436164e-06
2.5436368e-06
2.5437515e-06
2.5434463e-06
2.5434451e-06
2.5436252e-06
2.5436727e-06
2.5437385e-06
2.5434465e-06
2.5434451e-06
2.5436254e-06
2.5436865e-06
2.5434463e-06
2.5434453e-06
2.5436118e-06
2.5436735e-06
2.5434458e-06
2.5434486e-06
2.5435932e-06
2.543668e-06
2.5434454e-06
2.5434696e-06
2.543585e-06
2.5436871e-06
2.5434475e-06
2.5434451e-06
2.543518e-06
2.5435837e-06
2.5437181e-06
2.5434471e-06
2.5434451e-06
2.5435728e-06
2.5435896e-06
2.5437412e-06
2.5434466e-06
2.5434451e-06
2.5436096e-06
2.5436174e-06
2.5437363e-06
2.5434468e-06
2.5434451e-06
2.5436246e-06
2.5436585e-06
2.5437214e-06
2.5434465e-06
2.5434451e-06
2.5436273e-06
2.5436955e-06
2.5434459e-06
2.5434464e-06
2.5436202e-06
2.5437041e-06
2.5434454e-06
2.543459e-06
2.5436002e-06
2.5436868e-06
2.5434477e-06
2.5434451e-06
2.5434986e-06
2.5435872e-06
2.5436784e-06
2.5434473e-06
2.5434451e-06
2.5435547e-06
2.5435838e-06
2.5436929e-06
2.5434469e-06
2.5434451e-06
2.5436e-06
2.5435847e-06
2.5437189e-06
2.5434471e-06
2.5434451e-06
2.5436226e-06
2.5436016e-06
2.5437388e-06
2.5434467e-06
2.5434451e-06
2.5436285e-06
2.5436395e-06
2.5437326e-06
2.5434461e-06
2.5434455e-06
2.543627e-06
2.5436843e-06
2.5437188e-06
2.5434455e-06
2.543452e-06
2.5436098e-06
2.5437193e-06
2.5434474e-06
2.5434451e-06
2.5434812e-06
2.5435919e-06
2.5437194e-06
2.5434474e-06
2.5434451e-06
2.5435346e-06
2.5435849e-06
2.5436952e-06
2.5434474e-06
2.5434451e-06
2.5435865e-06
2.5435838e-06
2.5436829e-06
2.543447e-06
2.5434451e-06
2.5436177e-06
2.5435895e-06
2.5436942e-06
2.5434462e-06
2.5434451e-06
2.5436289e-06
2.543612e-06
2.5437179e-06
2.5434456e-06
2.5434452e-06
2.5436303e-06
2.5436431e-06
2.5437366e-06
2.5434483e-06
2.5434451e-06
2.5434481e-06
2.5436197e-06
2.5436763e-06
2.54373e-06
2.5434478e-06
2.5434451e-06
2.5434676e-06
2.5435988e-06
2.5436994e-06
2.5437171e-06
2.5434476e-06
2.5434451e-06
2.5435145e-06
2.5435869e-06
2.5436943e-06
2.5434478e-06
2.5434451e-06
2.5435702e-06
2.5435839e-06
2.5436784e-06
2.5434472e-06
2.5434451e-06
2.54361e-06
2.5435847e-06
2.5436801e-06
2.5434464e-06
2.5434451e-06
2.5436277e-06
2.5435986e-06
2.5437011e-06
2.5434456e-06
2.5434451e-06
2.5436315e-06
2.5436279e-06
2.5437276e-06
2.5434482e-06
2.5434451e-06
2.5434462e-06
2.5436274e-06
2.5436632e-06
2.5437434e-06
2.5434482e-06
2.5434451e-06
2.5434578e-06
2.5436074e-06
2.5437005e-06
2.5437322e-06
2.5434481e-06
2.5434451e-06
2.5434958e-06
2.5435905e-06
2.543721e-06
2.5437178e-06
2.5434475e-06
2.5434451e-06
2.5435518e-06
2.5435845e-06
2.5437082e-06
2.5434465e-06
2.5434451e-06
2.5435991e-06
2.5435838e-06
2.5436869e-06
2.5434457e-06
2.5434451e-06
2.5436246e-06
2.5435902e-06
2.5436845e-06
2.5434487e-06
2.5434451e-06
2.5434455e-06
2.5436325e-06
2.5436102e-06
2.5437014e-06
2.5434487e-06
2.5434451e-06
2.5434516e-06
2.5436326e-06
2.5436342e-06
2.5437251e-06
2.5434485e-06
2.5434451e-06
2.5434797e-06
2.543619e-06
2.54366e-06
2.5437398e-06
2.5434478e-06
2.5434451e-06
2.5435324e-06
2.5435987e-06
2.5436872e-06
2.5437287e-06
2.5434466e-06
2.5434451e-06
2.5435854e-06
2.5435882e-06
2.5436978e-06
2.5437156e-06
2.5434457e-06
2.5434451e-06
2.5436187e-06
2.5435857e-06
2.5436851e-06
2.5434492e-06
2.5434452e-06
2.5434451e-06
2.5436317e-06
2.5435865e-06
2.5436755e-06
2.5434491e-06
2.5434452e-06
2.5434452e-06
2.5436339e-06
2.5435985e-06
2.5436862e-06
2.543448e-06
2.5434451e-06
2.5434482e-06
2.5436262e-06
2.5436212e-06
2.5437106e-06
2.5434468e-06
2.5434451e-06
2.5434676e-06
2.5436045e-06
2.5436474e-06
2.5437356e-06
2.5434458e-06
2.5434451e-06
2.5435143e-06
2.5435894e-06
2.5436789e-06
2.5437467e-06
2.5434497e-06
2.5434452e-06
2.5434451e-06
2.5435701e-06
2.5435846e-06
2.5437106e-06
2.5437313e-06
2.5434498e-06
2.5434452e-06
2.5434451e-06
2.5436111e-06
2.5435843e-06
2.5437173e-06
2.5437169e-06
2.5434494e-06
2.5434452e-06
2.5434451e-06
2.5436304e-06
2.5435921e-06
2.5436981e-06
2.5434484e-06
2.5434451e-06
2.5434464e-06
2.5436352e-06
2.5436106e-06
2.5436836e-06
2.543447e-06
2.5434451e-06
2.5434587e-06
2.5436335e-06
2.5436298e-06
2.5436896e-06
2.5434459e-06
2.5434451e-06
2.5434973e-06
2.543616e-06
2.5436489e-06
2.5437096e-06
2.5434503e-06
2.5434452e-06
2.5434451e-06
2.5435533e-06
2.5435966e-06
2.5436727e-06
2.5437324e-06
2.54345e-06
2.5434452e-06
2.5434451e-06
2.5436008e-06
2.5435877e-06
2.5436943e-06
2.5437427e-06
2.5434486e-06
2.5434452e-06
2.5434451e-06
2.543627e-06
2.5435857e-06
2.5436936e-06
2.5437277e-06
2.5434471e-06
2.5434451e-06
2.5434456e-06
2.5436357e-06
2.5435871e-06
2.5436794e-06
2.543715e-06
2.5434459e-06
2.5434451e-06
2.5434529e-06
2.5436364e-06
2.543599e-06
2.5436777e-06
2.5434508e-06
2.5434452e-06
2.5434451e-06
2.5434831e-06
2.5436252e-06
2.5436178e-06
2.5436946e-06
2.5434505e-06
2.5434452e-06
2.5434451e-06
2.5435365e-06
2.5436038e-06
2.5436375e-06
2.5437197e-06
2.5434489e-06
2.5434452e-06
2.5434451e-06
2.5435887e-06
2.5435906e-06
2.5436619e-06
2.5437423e-06
2.5434473e-06
2.5434452e-06
2.5434451e-06
2.5436217e-06
2.5435865e-06
2.5436949e-06
2.5437486e-06
2.543446e-06
2.5434451e-06
2.5434453e-06
2.543635e-06
2.5435861e-06
2.5437191e-06
2.54373e-06
2.5434503e-06
2.5434452e-06
2.5434451e-06
2.5434493e-06
2.5436376e-06
2.5435922e-06
2.5437122e-06
2.5437161e-06
2.5434496e-06
2.5434452e-06
2.5434451e-06
2.5434718e-06
2.5436323e-06
2.5436089e-06
2.5436919e-06
2.5434475e-06
2.5434452e-06
2.5434451e-06
2.5435204e-06
2.543612e-06
2.5436291e-06
2.5436854e-06
2.5434461e-06
2.5434452e-06
2.5434451e-06
2.5435758e-06
2.5435949e-06
2.5436525e-06
2.5436974e-06
2.5434521e-06
2.5434452e-06
2.5434452e-06
2.5434452e-06
2.5436158e-06
2.5435881e-06
2.5436854e-06
2.5437185e-06
2.5434517e-06
2.5434452e-06
2.5434451e-06
2.5434472e-06
2.5436353e-06
2.5435869e-06
2.543725e-06
2.5437397e-06
2.5434497e-06
2.5434452e-06
2.5434451e-06
2.5434629e-06
2.5436407e-06
2.5435895e-06
2.5437428e-06
2.5437455e-06
2.5434478e-06
2.5434452e-06
2.5434451e-06
2.5435052e-06
2.5436402e-06
2.5436018e-06
2.5437237e-06
2.5437277e-06
2.5434461e-06
2.5434452e-06
2.5434451e-06
2.543561e-06
2.5436255e-06
2.5436174e-06
2.5436955e-06
2.5437157e-06
2.5434513e-06
2.5434452e-06
2.5434452e-06
2.5434451e-06
2.5436062e-06
2.5436041e-06
2.543632e-06
2.5436844e-06
2.5434504e-06
2.5434452e-06
2.5434452e-06
2.5434451e-06
2.5436304e-06
2.5435919e-06
2.5436502e-06
2.5436932e-06
2.5434479e-06
2.5434452e-06
2.5434451e-06
2.5434462e-06
2.5436384e-06
2.543588e-06
2.5436795e-06
2.5437134e-06
2.5434462e-06
2.5434452e-06
2.5434451e-06
2.5434573e-06
2.5436391e-06
2.5435876e-06
2.543714e-06
2.5437358e-06
2.5434519e-06
2.5434452e-06
2.5434452e-06
2.5434451e-06
2.5434936e-06
2.5436288e-06
2.5435922e-06
2.5437245e-06
2.5437425e-06
2.5434509e-06
2.5434452e-06
2.5434452e-06
2.5434451e-06
2.5435487e-06
2.5436078e-06
2.5436058e-06
2.5437069e-06
2.5437267e-06
2.5434482e-06
2.5434452e-06
2.5434452e-06
2.5434451e-06
2.5435984e-06
2.543594e-06
2.5436221e-06
2.5436897e-06
2.5437177e-06
2.5434463e-06
2.5434452e-06
2.5434452e-06
2.5434457e-06
2.5436287e-06
2.5435893e-06
2.5436415e-06
2.5436898e-06
2.5434524e-06
2.5434452e-06
2.5434452e-06
2.5434451e-06
2.543453e-06
2.5436411e-06
2.5435886e-06
2.5436706e-06
2.5437044e-06
2.5434514e-06
2.5434452e-06
2.5434452e-06
2.5434451e-06
2.5434827e-06
2.5436437e-06
2.5435927e-06
2.5437124e-06
2.5437252e-06
2.5434484e-06
2.5434452e-06
2.5434452e-06
2.5434451e-06
2.5435352e-06
2.5436399e-06
2.5436048e-06
2.5437468e-06
2.5437445e-06
2.5434464e-06
2.5434452e-06
2.5434452e-06
2.5434451e-06
2.543588e-06
2.5436203e-06
2.5436173e-06
2.5437438e-06
2.5437458e-06
2.5434528e-06
2.5434452e-06
2.5434452e-06
2.5434452e-06
2.5434454e-06
2.5436237e-06
2.5436009e-06
2.5436283e-06
2.5437143e-06
2.5437266e-06
2.5434517e-06
2.5434452e-06
2.5434452e-06
2.5434452e-06
2.5434503e-06
2.5436404e-06
2.5435915e-06
2.5436425e-06
2.5436906e-06
2.5437161e-06
2.5434484e-06
2.5434452e-06
2.5434452e-06
2.5434451e-06
2.5434744e-06
2.5436448e-06
2.5435889e-06
2.5436681e-06
2.5436867e-06
2.5434464e-06
2.5434452e-06
2.5434452e-06
2.5434451e-06
2.5435235e-06
2.5436441e-06
2.5435889e-06
2.5437064e-06
2.5436991e-06
2.5434503e-06
2.543445e-06
2.5434452e-06
2.5434452e-06
2.5434451e-06
2.543578e-06
2.5436291e-06
2.5435943e-06
2.5437329e-06
2.5437201e-06
2.5434492e-06
2.543445e-06
2.5434452e-06
2.5434452e-06
2.5434453e-06
2.5436181e-06
2.5436075e-06
2.5436064e-06
2.5437254e-06
2.5437406e-06
2.5434458e-06
2.543445e-06
2.5434452e-06
2.5434452e-06
2.5434484e-06
2.5436388e-06
2.5435948e-06
2.54362e-06
2.5437025e-06
2.543743e-06
2.5434437e-06
2.543445e-06
2.5434452e-06
2.5434452e-06
2.5434676e-06
2.5436457e-06
2.5435904e-06
2.5436363e-06
2.54369e-06
2.543727e-06
2.5434018e-06
2.5434424e-06
2.5434451e-06
2.5434452e-06
2.5434452e-06
2.5435128e-06
2.5436464e-06
2.5435897e-06
2.5436622e-06
2.5436946e-06
2.5437198e-06
2.5434024e-06
2.5434426e-06
2.5434451e-06
2.5434452e-06
2.5434452e-06
2.5435692e-06
2.5436366e-06
2.5435922e-06
2.5437029e-06
2.5437105e-06
2.5434014e-06
2.5434427e-06
2.5434451e-06
2.5434452e-06
2.5434472e-06
2.5436152e-06
2.5436146e-06
2.5436018e-06
2.5437467e-06
2.5437311e-06
2.5430481e-06
2.5434019e-06
2.5434428e-06
2.5434451e-06
2.5434452e-06
2.5434621e-06
2.5436421e-06
2.5435988e-06
2.543613e-06
2.5437609e-06
2.5437484e-06
2.5430601e-06
2.5434038e-06
2.5434429e-06
2.5434451e-06
2.5434452e-06
2.5435023e-06
2.5436528e-06
2.5435922e-06
2.5436238e-06
2.5437371e-06
2.5437458e-06
2.5430704e-06
2.5434057e-06
2.5434431e-06
2.5434451e-06
2.5434452e-06
2.5435568e-06
2.5436549e-06
2.5435907e-06
2.5436381e-06
2.5437044e-06
2.5437264e-06
2.5415491e-06
2.5430821e-06
2.5434075e-06
2.5434432e-06
2.5434451e-06
2.5434452e-06
2.5436041e-06
2.5436492e-06
2.5435913e-06
2.5436634e-06
2.5436868e-06
2.543718e-06
2.5416026e-06
2.5430951e-06
2.5434093e-06
2.5434434e-06
2.5434451e-06
2.5434466e-06
2.5436333e-06
2.5436259e-06
2.543598e-06
2.5437034e-06
2.5436886e-06
2.541654e-06
2.5431079e-06
2.5434111e-06
2.5434435e-06
2.5434451e-06
2.543459e-06
2.543646e-06
2.5436035e-06
2.5436084e-06
2.5437411e-06
2.5437038e-06
2.537814e-06
2.5417065e-06
2.5431205e-06
2.5434127e-06
2.5434436e-06
2.5434451e-06
2.5434962e-06
2.5436491e-06
2.5435917e-06
2.5436176e-06
2.5437466e-06
2.5437258e-06
2.5379516e-06
2.5417602e-06
2.5431329e-06
2.5434144e-06
2.5434437e-06
2.5434452e-06
2.5435512e-06
2.5436474e-06
2.5435876e-06
2.5436268e-06
2.543723e-06
2.5437448e-06
2.5380867e-06
2.5418132e-06
2.5431451e-06
2.543416e-06
2.5434438e-06
2.5434461e-06
2.5436026e-06
2.5436306e-06
2.5435869e-06
2.5436406e-06
2.5436988e-06
2.5437441e-06
2.5306385e-06
2.5382221e-06
2.5418657e-06
2.543157e-06
2.5434175e-06
2.5434439e-06
2.5434557e-06
2.543637e-06
2.5436096e-06
2.5435889e-06
2.5436665e-06
2.5436901e-06
2.5437284e-06
2.5309393e-06
2.5383581e-06
2.5419176e-06
2.5431686e-06
2.543419e-06
2.543444e-06
2.5434885e-06
2.5436537e-06
2.5435974e-06
2.5435984e-06
2.5437052e-06
2.5436965e-06
2.5437231e-06
2.5185564e-06
2.5312375e-06
2.5384927e-06
2.5419688e-06
2.5431801e-06
2.5434205e-06
2.5434441e-06
2.5435416e-06
2.5436587e-06
2.5435929e-06
2.5436104e-06
2.5437347e-06
2.5437124e-06
2.5190912e-06
2.531535e-06
2.538626e-06
2.5420193e-06
2.5431913e-06
2.5434219e-06
2.5434448e-06
2.5435948e-06
2.5436583e-06
2.543592e-06
2.5436222e-06
2.5437328e-06
2.5437325e-06
2.5196213e-06
2.5318298e-06
2.5387578e-06
2.5420691e-06
2.5432022e-06
2.5434232e-06
2.5434527e-06
2.5436331e-06
2.5436426e-06
2.5435931e-06
2.5436377e-06
2.5437128e-06
2.5437479e-06
2.5031398e-06
2.5201487e-06
2.5321217e-06
2.5388883e-06
2.5421183e-06
2.5432129e-06
2.5434245e-06
2.5434824e-06
2.5436535e-06
2.5436166e-06
2.5436002e-06
2.543664e-06
2.5436988e-06
2.5437437e-06
2.5038952e-06
2.520674e-06
2.5324107e-06
2.5390173e-06
2.5421666e-06
2.5432233e-06
2.5434258e-06
2.5435338e-06
2.5436606e-06
2.5435985e-06
2.5436097e-06
2.5437053e-06
2.5436988e-06
2.5437268e-06
2.4857693e-06
2.5046466e-06
2.5211951e-06
2.5326969e-06
2.539145e-06
2.5422142e-06
2.5432335e-06
2.5434275e-06
2.5435881e-06
2.5436614e-06
2.54359e-06
2.5436174e-06
2.5437498e-06
2.543709e-06
2.5437212e-06
2.4866177e-06
2.505395e-06
2.5217118e-06
2.5329801e-06
2.5392713e-06
2.542261e-06
2.5432434e-06
2.5434354e-06
2.5436292e-06
2.5436507e-06
2.5435873e-06
2.5436242e-06
2.5437674e-06
2.543724e-06
2.4874641e-06
2.5061391e-06
2.522224e-06
2.5332603e-06
2.5393962e-06
2.542307e-06
2.5432531e-06
2.5434638e-06
2.5436526e-06
2.5436247e-06
2.5435869e-06
2.5436328e-06
2.5437476e-06
2.5437404e-06
2.4712729e-06
2.48831e-06
2.5068784e-06
2.5227318e-06
2.5335376e-06
2.5395197e-06
2.5423521e-06
2.5432626e-06
2.5435145e-06
2.5436618e-06
2.5436034e-06
2.5435904e-06
2.5436487e-06
2.5437147e-06
2.5437505e-06
2.472046e-06
2.4891512e-06
2.5076126e-06
2.5232352e-06
2.5338119e-06
2.5396419e-06
2.5423963e-06
2.5432722e-06
2.5435702e-06
2.5436635e-06
2.5435921e-06
2.5436008e-06
2.5436768e-06
2.543692e-06
2.5437418e-06
2.4601267e-06
2.4728228e-06
2.489989e-06
2.5083418e-06
2.523734e-06
2.5340831e-06
2.5397627e-06
2.5424397e-06
2.5432869e-06
2.5436143e-06
2.5436565e-06
2.5435877e-06
2.5436113e-06
2.5437074e-06
2.5436864e-06
2.5437233e-06
2.4607851e-06
2.4735887e-06
2.4908238e-06
2.509066e-06
2.5242284e-06
2.5343512e-06
2.5398821e-06
2.5424821e-06
2.5433215e-06
2.5436413e-06
2.5436319e-06
2.5435867e-06
2.5436202e-06
2.5437173e-06
2.5436947e-06
2.5437171e-06
2.4519495e-06
2.4614343e-06
2.4743548e-06
2.491655e-06
2.5097853e-06
2.5247179e-06
2.5346163e-06
2.5400001e-06
2.5425239e-06
2.5433807e-06
2.5436533e-06
2.5436081e-06
2.5435878e-06
2.5436307e-06
2.5437073e-06
2.5437122e-06
2.4526571e-06
2.4620747e-06
2.4751207e-06
2.4924829e-06
2.5104995e-06
2.5252029e-06
2.5348782e-06
2.5401169e-06
2.5425692e-06
2.5434476e-06
2.5436566e-06
2.5435941e-06
2.5435962e-06
2.5436481e-06
2.5436981e-06
2.5437344e-06
2.442166e-06
2.4533239e-06
2.4627165e-06
2.4758856e-06
2.4933075e-06
2.5112087e-06
2.5256832e-06
2.5351369e-06
2.5402321e-06
2.5426309e-06
2.5435034e-06
2.5436535e-06
2.5435879e-06
2.5436071e-06
2.5436787e-06
2.5437001e-06
2.5437502e-06
2.4249056e-06
2.4431134e-06
2.4539899e-06
2.4633593e-06
2.4766495e-06
2.4941288e-06
2.5119127e-06
2.5261587e-06
2.5353923e-06
2.540346e-06
2.5427147e-06
2.5435401e-06
2.5436321e-06
2.5435861e-06
2.5436159e-06
2.5437198e-06
2.5437111e-06
2.5437449e-06
2.426172e-06
2.4439255e-06
2.4546576e-06
2.4640027e-06
2.4774124e-06
2.4949469e-06
2.5126117e-06
2.5266295e-06
2.5356447e-06
2.540459e-06
2.5428068e-06
2.5435596e-06
2.5436069e-06
2.5435862e-06
2.5436241e-06
2.5437495e-06
2.5437254e-06
2.5437292e-06
2.4056158e-06
2.4271907e-06
2.4447554e-06
2.455328e-06
2.4646467e-06
2.4781744e-06
2.4957616e-06
2.5133056e-06
2.5270954e-06
2.5358937e-06
2.540575e-06
2.5428904e-06
2.5435692e-06
2.5435905e-06
2.543592e-06
2.5436352e-06
2.5437478e-06
2.5437394e-06
2.5437253e-06
2.3891411e-06
2.4073805e-06
2.4282412e-06
2.4455826e-06
2.4559995e-06
2.4652914e-06
2.4789356e-06
2.4965731e-06
2.5139943e-06
2.5275566e-06
2.5361394e-06
2.5407078e-06
2.5429576e-06
2.5435707e-06
2.5435826e-06
2.543603e-06
2.5436549e-06
2.5437268e-06
2.5437514e-06
2.3911091e-06
2.4086153e-06
2.4292841e-06
2.4464102e-06
2.4566721e-06
2.4659368e-06
2.479696e-06
2.4973813e-06
2.5146779e-06
2.528013e-06
2.5363823e-06
2.5408643e-06
2.5430085e-06
2.5435506e-06
2.5435799e-06
2.5436125e-06
2.5436875e-06
2.543708e-06
2.5437545e-06
2.3831598e-06
2.3926616e-06
2.409942e-06
2.4303369e-06
2.4472357e-06
2.4573447e-06
2.4665828e-06
2.4804555e-06
2.4981862e-06
2.5153563e-06
2.5284644e-06
2.5366258e-06
2.5410302e-06
2.5430472e-06
2.5435256e-06
2.5435798e-06
2.5436201e-06
2.5437257e-06
2.5437002e-06
2.5437403e-06
2.3821777e-06
2.3851619e-06
2.3942719e-06
2.4112486e-06
2.4313922e-06
2.4480594e-06
2.4580172e-06
2.4672294e-06
2.4812142e-06
2.4989877e-06
2.5160295e-06
2.5289108e-06
2.5368827e-06
2.5411866e-06
2.5430798e-06
2.5435104e-06
2.5435832e-06
2.5436286e-06
2.5437456e-06
2.5437027e-06
2.5437209e-06
2.3799277e-06
2.383783e-06
2.3867203e-06
2.3958538e-06
2.4125591e-06
2.4324519e-06
2.4488811e-06
2.4586892e-06
2.4678769e-06
2.4819718e-06
2.4997857e-06
2.5166975e-06
2.5293527e-06
2.5371613e-06
2.5413238e-06
2.5430967e-06
2.5435053e-06
2.5435937e-06
2.5436416e-06
2.5437377e-06
2.5437123e-06
2.5437152e-06
2.3811497e-06
2.3849399e-06
2.3883367e-06
2.3974312e-06
2.4138673e-06
2.4335161e-06
2.4497012e-06
2.4593607e-06
2.468525e-06
2.4827283e-06
2.5005803e-06
2.5173601e-06
2.5297935e-06
2.537449e-06
2.5414418e-06
2.5431001e-06
2.543507e-06
2.5436045e-06
2.5436643e-06
2.5437194e-06
2.5437266e-06
2.3714138e-06
2.3818006e-06
2.3861475e-06
2.389919e-06
2.3989945e-06
2.4151743e-06
2.434585e-06
2.4505197e-06
2.4600315e-06
2.4691737e-06
2.4834837e-06
2.5013714e-06
2.5180173e-06
2.5302452e-06
2.5377275e-06
2.5415464e-06
2.5431079e-06
2.5435119e-06
2.5436132e-06
2.5436986e-06
2.5437066e-06
2.5437432e-06
2.3610456e-06
2.3723046e-06
2.3824888e-06
2.3873357e-06
2.3914806e-06
2.4005448e-06
2.4164803e-06
2.4356581e-06
2.4513359e-06
2.4607013e-06
2.4698229e-06
2.4842381e-06
2.502159e-06
2.5186696e-06
2.5307167e-06
2.5379861e-06
2.5416442e-06
2.5431237e-06
2.5435213e-06
2.5436213e-06
2.5437316e-06
2.5437036e-06
2.5437511e-06
2.3556185e-06
2.3621676e-06
2.3730805e-06
2.3831668e-06
2.3885215e-06
2.3930141e-06
2.4020823e-06
2.417786e-06
2.4367339e-06
2.452149e-06
2.4613699e-06
2.4704724e-06
2.4849916e-06
2.5029429e-06
2.5193207e-06
2.5311965e-06
2.5382234e-06
2.5417205e-06
2.5431456e-06
2.5435387e-06
2.5436315e-06
2.5437414e-06
2.5437084e-06
2.5437394e-06
2.3487858e-06
2.3514402e-06
2.3567283e-06
2.3630388e-06
2.3738859e-06
2.3838602e-06
2.3896922e-06
2.3945231e-06
2.4036097e-06
2.4190938e-06
2.4378104e-06
2.4529584e-06
2.4620366e-06
2.4711223e-06
2.4857441e-06
2.503723e-06
2.5199821e-06
2.5316666e-06
2.5384448e-06
2.5417828e-06
2.5431711e-06
2.5435558e-06
2.5436477e-06
2.5437298e-06
2.5437183e-06
2.5437223e-06
2.3497165e-06
2.3499938e-06
2.3526756e-06
2.3575792e-06
2.3639574e-06
2.3746935e-06
2.3845735e-06
2.3908437e-06
2.3960085e-06
2.4051324e-06
2.4204054e-06
2.4388851e-06
2.4537644e-06
2.4627016e-06
2.4717728e-06
2.4864954e-06
2.5044998e-06
2.5206626e-06
2.5321158e-06
2.5386564e-06
2.5418505e-06
2.543198e-06
2.5435698e-06
2.543674e-06
2.5437152e-06
2.543732e-06
2.5437185e-06
2.349259e-06
2.3508304e-06
2.3507404e-06
2.3534455e-06
2.3584756e-06
2.3648832e-06
2.3754962e-06
2.3853119e-06
2.3919736e-06
2.3974737e-06
2.4066548e-06
2.4217216e-06
2.4399563e-06
2.4545679e-06
2.4633646e-06
2.4724236e-06
2.4872452e-06
2.5052777e-06
2.521351e-06
2.5325423e-06
2.5388484e-06
2.5419277e-06
2.5432299e-06
2.5435821e-06
2.5437091e-06
2.5437076e-06
2.5437469e-06
2.341861e-06
2.3460648e-06
2.3503603e-06
2.3514843e-06
2.351548e-06
2.3542887e-06
2.3593696e-06
2.3658237e-06
2.3762886e-06
2.3860737e-06
2.393088e-06
2.3989263e-06
2.4081747e-06
2.4230411e-06
2.4410224e-06
2.4553706e-06
2.4640258e-06
2.4730748e-06
2.4879933e-06
2.5060683e-06
2.5220298e-06
2.5329508e-06
2.5390202e-06
2.5420121e-06
2.5432666e-06
2.5435944e-06
2.5437349e-06
2.5437078e-06
2.5437519e-06
2.3388961e-06
2.3429414e-06
2.3471747e-06
2.350966e-06
2.3522028e-06
2.3523444e-06
2.355121e-06
2.3602703e-06
2.3667754e-06
2.3770718e-06
2.3868553e-06
2.394191e-06
2.4003704e-06
2.4096904e-06
2.4243611e-06
2.4420822e-06
2.4561743e-06
2.464685e-06
2.4737254e-06
2.4887412e-06
2.5068797e-06
2.5226879e-06
2.5333462e-06
2.5391931e-06
2.5421e-06
2.5433014e-06
2.5436094e-06
2.5437362e-06
2.5437137e-06
2.543738e-06
2.3366973e-06
2.3356185e-06
2.3398229e-06
2.3435037e-06
2.3477798e-06
2.3516334e-06
2.3529199e-06
2.3531426e-06
2.3559641e-06
2.3611766e-06
2.3677344e-06
2.3778525e-06
2.3876538e-06
2.3952831e-06
2.4018081e-06
2.4112006e-06
2.4256775e-06
2.443135e-06
2.4569807e-06
2.4653419e-06
2.4743748e-06
2.489494e-06
2.5077e-06
2.523323e-06
2.5337242e-06
2.5393735e-06
2.5421893e-06
2.5433334e-06
2.5436313e-06
2.543724e-06
2.5437236e-06
2.5437207e-06
2.4211173e-06
2.3868304e-06
2.3540519e-06
2.3369452e-06
2.3364873e-06
2.3402615e-06
2.3440942e-06
2.3484364e-06
2.3523e-06
2.353649e-06
2.3539391e-06
2.3568127e-06
2.362089e-06
2.3686982e-06
2.3786378e-06
2.388465e-06
2.396366e-06
2.4032397e-06
2.4127037e-06
2.4269867e-06
2.4441801e-06
2.4577909e-06
2.4659958e-06
2.4750232e-06
2.4902633e-06
2.5085116e-06
2.5239394e-06
2.534077e-06
2.5395603e-06
2.5422846e-06
2.5433636e-06
2.5436644e-06
2.5437136e-06
2.5437364e-06
2.5437173e-06
2.4095634e-06
2.4402137e-06
2.4394492e-06
2.4202611e-06
2.3864427e-06
2.3541147e-06
2.3371932e-06
2.3368591e-06
2.3407245e-06
2.3446697e-06
2.3490803e-06
2.3529786e-06
2.3543853e-06
2.3547376e-06
2.3576693e-06
2.3630083e-06
2.3696678e-06
2.3794321e-06
2.3892825e-06
2.397445e-06
2.404663e-06
2.414198e-06
2.4282871e-06
2.4452171e-06
2.4586045e-06
2.4666461e-06
2.4756734e-06
2.4910566e-06
2.5093038e-06
2.5245407e-06
2.5344272e-06
2.5397497e-06
2.5423831e-06
2.5433929e-06
2.5437016e-06
2.5437099e-06
2.5437499e-06
2.3694091e-06
2.3637642e-06
2.3765307e-06
2.408884e-06
2.4391434e-06
2.4383369e-06
2.4192337e-06
2.3858891e-06
2.3540752e-06
2.3374618e-06
2.337264e-06
2.3411888e-06
2.3452405e-06
2.3497276e-06
2.3536647e-06
2.3551291e-06
2.3555414e-06
2.3585344e-06
2.3639343e-06
2.3706439e-06
2.3802346e-06
2.3901006e-06
2.3985256e-06
2.4060779e-06
2.4156838e-06
2.4295793e-06
2.4462457e-06
2.4594194e-06
2.4672939e-06
2.4763335e-06
2.4918608e-06
2.5100748e-06
2.5251286e-06
2.5347829e-06
2.5399397e-06
2.5424779e-06
2.5434228e-06
2.5437213e-06
2.5437121e-06
2.5437522e-06
2.3838674e-06
2.3761068e-06
2.378221e-06
2.388638e-06
2.3894635e-06
2.3810556e-06
2.3690568e-06
2.3635988e-06
2.3762811e-06
2.40807e-06
2.4379378e-06
2.4370988e-06
2.4182751e-06
2.3854181e-06
2.3541017e-06
2.3377523e-06
2.337669e-06
2.3416509e-06
2.3458029e-06
2.350373e-06
2.3543582e-06
2.3558818e-06
2.3563563e-06
2.3594098e-06
2.364867e-06
2.3716265e-06
2.3810426e-06
2.3909164e-06
2.3996098e-06
2.407485e-06
2.4171627e-06
2.4308646e-06
2.4472658e-06
2.4602338e-06
2.4679429e-06
2.4770145e-06
2.4926574e-06
2.5108287e-06
2.5256872e-06
2.5351434e-06
2.540133e-06
2.5425681e-06
2.5434564e-06
2.5437183e-06
2.5437184e-06
2.5437364e-06
2.6493571e-06
2.6023124e-06
2.5054928e-06
2.4120875e-06
2.3588561e-06
2.3475283e-06
2.3508967e-06
2.355817e-06
2.3708193e-06
2.3831107e-06
2.3755234e-06
2.3775065e-06
2.3876894e-06
2.3886377e-06
2.3804959e-06
2.3684904e-06
2.3632401e-06
2.3758471e-06
2.407316e-06
2.4367765e-06
2.4359312e-06
2.4173254e-06
2.3849477e-06
2.3541304e-06
2.3380462e-06
2.3380578e-06
2.3420957e-06
2.3463513e-06
2.3510108e-06
2.3550541e-06
2.3566429e-06
2.3571856e-06
2.3602951e-06
2.3658059e-06
2.3726134e-06
2.3818546e-06
2.3917333e-06
2.400698e-06
2.4088867e-06
2.4186367e-06
2.4321441e-06
2.4482779e-06
2.4610473e-06
2.4686004e-06
2.4777193e-06
2.4934369e-06
2.5115696e-06
2.5262418e-06
2.535505e-06
2.5403309e-06
2.5426546e-06
2.5434964e-06
2.5437077e-06
2.5437279e-06
2.5437192e-06
3.9327315e-10
1.393124e-09
2.6616583e-08
2.35757e-07
1.1410645e-06
3.5551139e-06
8.000055e-06
1.4428293e-05
2.2584044e-05
3.2267599e-05
4.3375033e-05
5.5864339e-05
6.9723834e-05
8.4966219e-05
0.00010162403
0.00011974443
0.00013938809
0.00016062542
0.00018353001
0.0002081896
0.00023471567
0.00026323205
0.00029388132
0.00032683556
0.0003622895
0.00040046782
0.00044161897
0.00048600131
0.00053386259
0.00058539382
0.00064066048
0.00069950644
0.00076141816
0.00082537284
0.0008896703
0.00095176343
0.0010081727
0.0010545314
0.001085842
0.0010969962
0.0010835408
0.0010425342
0.00097316945
0.00087660663
0.0007544515
0.0006059679
0.00042568378
0.00019186278
2.5673833e-05
3.246929e-06
2.5007489e-06
2.4420227e-06
2.4387551e-06
2.4319997e-06
2.4222074e-06
2.4186896e-06
2.4177811e-06
2.4101343e-06
2.3872255e-06
2.3401316e-06
2.3386095e-06
2.3497123e-06
2.2921754e-06
2.2578821e-06
2.3552694e-06
2.4087468e-06
2.3270427e-06
2.2886418e-06
2.3780914e-06
2.5847724e-06
2.6427893e-06
2.5950306e-06
2.4986232e-06
2.4061773e-06
2.3553538e-06
2.3461915e-06
2.3500351e-06
2.3551362e-06
2.370014e-06
2.3821221e-06
2.3747005e-06
2.3765742e-06
2.3865324e-06
2.387579e-06
2.379685e-06
2.3679814e-06
2.3629716e-06
2.3754973e-06
2.4065804e-06
2.435601e-06
2.4347641e-06
2.416385e-06
2.3844754e-06
2.3541477e-06
2.3383202e-06
2.3384193e-06
2.3425232e-06
2.346884e-06
2.3516354e-06
2.3557467e-06
2.3574112e-06
2.3580309e-06
2.3611886e-06
2.3667512e-06
2.3736035e-06
2.3826703e-06
2.3925567e-06
2.401787e-06
2.4102835e-06
2.4201062e-06
2.4334172e-06
2.449283e-06
2.4618629e-06
2.4692745e-06
2.478432e-06
2.4941979e-06
2.5122983e-06
2.5268011e-06
2.5358657e-06
2.540526e-06
2.5427387e-06
2.5435349e-06
2.5437008e-06
2.5437403e-06
2.5437163e-06
3.9403615e-10
1.3970777e-09
2.6698356e-08
2.3645787e-07
1.1441826e-06
3.563588e-06
8.016283e-06
1.4453522e-05
2.2619064e-05
3.2313157e-05
4.3431922e-05
5.5933378e-05
6.9805861e-05
8.5062084e-05
0.00010173461
0.00011987068
0.00013953108
0.00016078637
0.00018371035
0.00020839101
0.00023494015
0.0002634819
0.00029415918
0.00032714442
0.00036263261
0.00040084876
0.00044204153
0.00048646961
0.00053438115
0.00058596788
0.00064129646
0.00070021284
0.00076220673
0.0008262602
0.00089067973
0.00095292642
0.0010095296
0.0010561302
0.0010877339
0.001099228
0.0010861441
0.0010455157
0.00097650887
0.00088027431
0.00075844953
0.00061036826
0.00043057927
0.00019759117
2.7263322e-05
3.303812e-06
2.5009075e-06
2.4369555e-06
2.4314999e-06
2.4232568e-06
2.4124165e-06
2.4081645e-06
2.4065285e-06
2.3979398e-06
2.3742177e-06
2.3269676e-06
2.3256411e-06
2.3391904e-06
2.2852214e-06
2.2529246e-06
2.3513497e-06
2.4068089e-06
2.3258712e-06
2.286602e-06
2.374412e-06
2.5791019e-06
2.6360235e-06
2.5873767e-06
2.4915201e-06
2.4002779e-06
2.3519899e-06
2.3448067e-06
2.3489051e-06
2.3541891e-06
2.3689726e-06
2.3811743e-06
2.3739419e-06
2.3756707e-06
2.3854058e-06
2.3865353e-06
2.3788884e-06
2.3674396e-06
2.3627036e-06
2.3751732e-06
2.4058821e-06
2.4344282e-06
2.4336029e-06
2.4154413e-06
2.3839844e-06
2.354139e-06
2.3385679e-06
2.3387727e-06
2.3429426e-06
2.3474053e-06
2.3522466e-06
2.3564315e-06
2.3581828e-06
2.3588899e-06
2.362087e-06
2.3677024e-06
2.3745968e-06
2.383491e-06
2.393391e-06
2.4028742e-06
2.4116753e-06
2.4215695e-06
2.4346814e-06
2.4502825e-06
2.4626865e-06
2.4699664e-06
2.4791334e-06
2.4949444e-06
2.5129993e-06
2.5273645e-06
2.5362262e-06
2.5407164e-06
2.5428223e-06
2.543559e-06
2.5437e-06
2.5437526e-06
3.9476012e-10
1.400841e-09
2.6776159e-08
2.3712359e-07
1.1471339e-06
3.5715592e-06
8.031428e-06
1.4476864e-05
2.2651185e-05
3.2354612e-05
4.3483338e-05
5.5995456e-05
6.9879378e-05
8.51479e-05
0.00010183371
0.0001199842
0.00013966032
0.00016093287
0.00018387588
0.0002085776
0.00023515013
0.00026371789
0.0002944241
0.00032744146
0.00036296521
0.00040122057
0.00044245646
0.00048693178
0.00053489515
0.00058653898
0.00064193126
0.0007009201
0.0007629987
0.00082715417
0.00089169979
0.00095410494
0.0010109075
0.0010577554
0.0010896565
0.001101492
0.0010887767
0.001048518
0.00097985518
0.00088393039
0.0007624152
0.00061471497
0.00043539845
0.00020332895
2.8922212e-05
3.3648445e-06
2.5008299e-06
2.4318351e-06
2.4243218e-06