/*--------------------------------*- C++ -*----------------------------------*\
| =========                 |                                                 |
| \\      /  F ield         | OpenFOAM: The Open Source CFD Toolbox           |
|  \\    /   O peration     | Version:  2506                                  |
|   \\  /    A nd           | Website:  www.openfoam.com                      |
|    \\/     M anipulation  |                                                 |
\*---------------------------------------------------------------------------*/
FoamFile
{
    version     2.0;
    format      ascii;
    arch        "LSB;label=32;scalar=64";
    class       volScalarField;
    location    "0.0002";
    object      nut;
}
// * * * * * * * * * * * * * * * * * * * * * * * * * * * * * * * * * * * * * //

dimensions      [0 2 -1 0 0 0 0];

internalField   nonuniform List<scalar> 
3421
(
2.2441029e-09
2.2231516e-09
2.2150763e-09
2.2160588e-09
2.219539e-09
2.224046e-09
2.2260354e-09
2.2266953e-09
2.229163e-09
2.2317936e-09
2.2319303e-09
2.2309159e-09
2.2300922e-09
2.229794e-09
2.2299597e-09
2.2302425e-09
2.2304479e-09
2.2306263e-09
2.2308544e-09
2.2309785e-09
2.2312755e-09
2.2303394e-09
2.2303344e-09
2.2303344e-09
2.2303345e-09
2.2303347e-09
2.230336e-09
2.2303364e-09
2.2303526e-09
2.2303418e-09
2.2306479e-09
2.515519e-09
2.2150071e-09
2.2160641e-09
2.2195142e-09
2.2240271e-09
2.2259919e-09
2.2266789e-09
2.2291558e-09
2.2317812e-09
2.2319189e-09
2.2309336e-09
2.2301102e-09
2.2298087e-09
2.2299723e-09
2.2302437e-09
2.2304557e-09
2.2306676e-09
2.2308929e-09
2.2310424e-09
2.2314733e-09
2.2303387e-09
2.2303347e-09
2.2303342e-09
2.2303345e-09
2.230335e-09
2.2303359e-09
2.2303364e-09
2.2303526e-09
2.230343e-09
2.230647e-09
2.198253e-09
2.2149414e-09
2.2160116e-09
2.2194528e-09
2.2240223e-09
2.2259761e-09
2.2266748e-09
2.2291559e-09
2.2318079e-09
2.2319399e-09
2.2309458e-09
2.2301165e-09
2.2298142e-09
2.2299773e-09
2.2302337e-09
2.2304817e-09
2.2307102e-09
2.2309264e-09
2.2311369e-09
2.2310338e-09
2.2303354e-09
2.2303351e-09
2.2303345e-09
2.2303343e-09
2.2303354e-09
2.2303362e-09
2.2303364e-09
2.2303528e-09
2.2303431e-09
2.230647e-09
2.2848696e-09
2.2148589e-09
2.2159148e-09
2.2194073e-09
2.2240042e-09
2.2259575e-09
2.2266758e-09
2.2291646e-09
2.2318206e-09
2.2319506e-09
2.2309578e-09
2.2301269e-09
2.2298233e-09
2.2299694e-09
2.2302323e-09
2.2305181e-09
2.2307579e-09
2.2309683e-09
2.2312768e-09
2.2303554e-09
2.2303345e-09
2.2303341e-09
2.2303344e-09
2.2303342e-09
2.2303348e-09
2.2303357e-09
2.2303367e-09
2.2303528e-09
2.2303437e-09
2.2306518e-09
2.2848834e-09
2.2147754e-09
2.2158277e-09
2.2193777e-09
2.2239833e-09
2.2259355e-09
2.2266703e-09
2.2291808e-09
2.2318348e-09
2.2319581e-09
2.230967e-09
2.2301326e-09
2.229823e-09
2.2299586e-09
2.2302406e-09
2.2305591e-09
2.2308028e-09
2.2310326e-09
2.2314754e-09
2.2303373e-09
2.2303347e-09
2.2303346e-09
2.2303345e-09
2.2303343e-09
2.2303353e-09
2.2303355e-09
2.2303366e-09
2.2303529e-09
2.2303432e-09
2.2306798e-09
2.2849042e-09
2.2146758e-09
2.2157394e-09
2.2193548e-09
2.2239555e-09
2.2259201e-09
2.2266693e-09
2.2292027e-09
2.2318472e-09
2.2319644e-09
2.2309749e-09
2.2301383e-09
2.229821e-09
2.2299503e-09
2.230273e-09
2.2306047e-09
2.2308419e-09
2.2311323e-09
2.231026e-09
2.2303356e-09
2.2303343e-09
2.2303344e-09
2.2303338e-09
2.2303343e-09
2.230335e-09
2.2303356e-09
2.2303366e-09
2.2303527e-09
2.2303435e-09
2.2307475e-09
2.2849249e-09
2.2145599e-09
2.2156524e-09
2.2193302e-09
2.2239223e-09
2.2259096e-09
2.2266695e-09
2.2292287e-09
2.231858e-09
2.2319702e-09
2.2309822e-09
2.2301407e-09
2.2298122e-09
2.2299489e-09
2.2303095e-09
2.230651e-09
2.2308771e-09
2.2312722e-09
2.2303543e-09
2.2303341e-09
2.2303352e-09
2.2303352e-09
2.2303338e-09
2.230335e-09
2.2303345e-09
2.2303361e-09
2.2303366e-09
2.2303528e-09
2.2303435e-09
2.230828e-09
2.284933e-09
2.2144387e-09
2.2155748e-09
2.2193092e-09
2.223897e-09
2.2259065e-09
2.2266801e-09
2.2292523e-09
2.2318671e-09
2.231975e-09
2.2309901e-09
2.2301408e-09
2.2298046e-09
2.2299555e-09
2.2303523e-09
2.2306938e-09
2.2309194e-09
2.231473e-09
2.2303359e-09
2.2303337e-09
2.2303346e-09
2.2303339e-09
2.2303351e-09
2.2303343e-09
2.2303349e-09
2.2303361e-09
2.2303367e-09
2.2303535e-09
2.2303484e-09
2.230885e-09
2.2849438e-09
2.2143286e-09
2.2155082e-09
2.219291e-09
2.2238849e-09
2.2259061e-09
2.2266956e-09
2.2292714e-09
2.2318741e-09
2.2319793e-09
2.2309965e-09
2.2301354e-09
2.2298033e-09
2.2299828e-09
2.2303969e-09
2.230733e-09
2.2309846e-09
2.2311224e-09
2.2303337e-09
2.2303339e-09
2.230334e-09
2.2303337e-09
2.2303345e-09
2.2303343e-09
2.2303353e-09
2.2303361e-09
2.2303367e-09
2.230353e-09
2.230379e-09
2.2309096e-09
2.2849396e-09
2.2228176e-09
2.2142396e-09
2.2154503e-09
2.2192788e-09
2.2238847e-09
2.2259078e-09
2.226709e-09
2.2292873e-09
2.23188e-09
2.2319834e-09
2.2309962e-09
2.2301253e-09
2.229813e-09
2.2300176e-09
2.2304408e-09
2.2307692e-09
2.2310845e-09
2.230328e-09
2.2303317e-09
2.230335e-09
2.2303351e-09
2.2303336e-09
2.2303341e-09
2.2303342e-09
2.2303348e-09
2.230336e-09
2.2303366e-09
2.2303532e-09
2.2304495e-09
2.2309149e-09
2.2849428e-09
2.2227371e-09
2.2141658e-09
2.2153968e-09
2.2192777e-09
2.2238898e-09
2.2259168e-09
2.2267198e-09
2.2293053e-09
2.2318862e-09
2.2319868e-09
2.2310033e-09
2.2301166e-09
2.2298431e-09
2.2300611e-09
2.2304846e-09
2.2308107e-09
2.2312239e-09
2.2303277e-09
2.2303316e-09
2.2303342e-09
2.2303341e-09
2.2303351e-09
2.2303343e-09
2.2303344e-09
2.2303352e-09
2.2303361e-09
2.2303366e-09
2.230353e-09
2.2305301e-09
2.2309104e-09
2.2847771e-09
2.2226585e-09
2.2140964e-09
2.2153458e-09
2.2192819e-09
2.2238938e-09
2.2259229e-09
2.2267294e-09
2.2293251e-09
2.231893e-09
2.2319879e-09
2.2309945e-09
2.2301144e-09
2.2298792e-09
2.230108e-09
2.2305232e-09
2.2308759e-09
2.2314255e-09
2.230324e-09
2.2303312e-09
2.2303348e-09
2.2303341e-09
2.2303343e-09
2.2303351e-09
2.2303351e-09
2.2303351e-09
2.230336e-09
2.2303367e-09
2.2303531e-09
2.2305855e-09
2.2308915e-09
2.2840982e-09
2.2225751e-09
2.2140288e-09
2.2152992e-09
2.2192925e-09
2.2238932e-09
2.2259191e-09
2.2267389e-09
2.2293405e-09
2.2318984e-09
2.2319867e-09
2.2309838e-09
2.2301244e-09
2.2299223e-09
2.2301554e-09
2.2305581e-09
2.230977e-09
2.2310699e-09
2.2303206e-09
2.2303314e-09
2.2303348e-09
2.2303344e-09
2.2303337e-09
2.2303343e-09
2.2303341e-09
2.2303353e-09
2.2303361e-09
2.2303368e-09
2.2303587e-09
2.2306093e-09
2.2308804e-09
2.2844783e-09
2.2139676e-09
2.2152613e-09
2.2193032e-09
2.2238879e-09
2.2259192e-09
2.2267465e-09
2.2293506e-09
2.2318992e-09
2.2319799e-09
2.230974e-09
2.2301536e-09
2.2299675e-09
2.2302002e-09
2.2306e-09
2.2311183e-09
2.2302773e-09
2.2303186e-09
2.2303319e-09
2.230335e-09
2.2303341e-09
2.2303337e-09
2.230335e-09
2.230334e-09
2.2303348e-09
2.2303362e-09
2.2303364e-09
2.2303903e-09
2.2306142e-09
2.2308787e-09
2.2846944e-09
2.2139145e-09
2.2152345e-09
2.2193105e-09
2.2238841e-09
2.2259166e-09
2.2267528e-09
2.2293633e-09
2.2318986e-09
2.2319693e-09
2.2309713e-09
2.2301878e-09
2.2300121e-09
2.2302388e-09
2.2306668e-09
2.2313178e-09
2.2302768e-09
2.2303195e-09
2.2303314e-09
2.2303344e-09
2.2303341e-09
2.2303344e-09
2.2303347e-09
2.2303345e-09
2.2303354e-09
2.230336e-09
2.2303368e-09
2.2304615e-09
2.2306085e-09
2.2308882e-09
2.2851903e-09
2.213867e-09
2.2152137e-09
2.2193148e-09
2.2238826e-09
2.2259118e-09
2.2267589e-09
2.2293843e-09
2.2318952e-09
2.2319613e-09
2.2309804e-09
2.2302289e-09
2.2300531e-09
2.2302737e-09
2.230769e-09
2.2308378e-09
2.2302718e-09
2.2303185e-09
2.2303314e-09
2.2303339e-09
2.2303349e-09
2.2303348e-09
2.2303342e-09
2.2303345e-09
2.2303349e-09
2.230336e-09
2.2303365e-09
2.2305425e-09
2.2305869e-09
2.2309182e-09
2.2849454e-09
2.2151944e-09
2.2193184e-09
2.2238768e-09
2.2259062e-09
2.226767e-09
2.229406e-09
2.2318881e-09
2.2319602e-09
2.2310102e-09
2.2302727e-09
2.2300887e-09
2.2303161e-09
2.2309098e-09
2.2301816e-09
2.2302698e-09
2.2303186e-09
2.2303326e-09
2.230335e-09
2.2303339e-09
2.2303351e-09
2.2303344e-09
2.2303346e-09
2.2303346e-09
2.2303361e-09
2.2303366e-09
2.2305989e-09
2.2151692e-09
2.2193242e-09
2.2238648e-09
2.2259016e-09
2.2267775e-09
2.2294154e-09
2.2318795e-09
2.2319754e-09
2.2310438e-09
2.2303159e-09
2.230122e-09
2.2303834e-09
2.2311094e-09
2.2301624e-09
2.2302699e-09
2.2303178e-09
2.2303313e-09
2.2303344e-09
2.230334e-09
2.2303344e-09
2.2303345e-09
2.2303345e-09
2.2238501e-09
2.2258969e-09
2.2267866e-09
2.2294105e-09
2.2318761e-09
2.2320073e-09
2.2310836e-09
2.2303551e-09
2.2301644e-09
2.2304858e-09
2.2306208e-09
2.2301582e-09
2.2302701e-09
2.2303193e-09
2.2303312e-09
2.2303339e-09
2.2303345e-09
2.2267892e-09
2.2294013e-09
2.23189e-09
2.2320444e-09
2.2311257e-09
1.0996059e-05
9.6686936e-06
3.5770618e-06
2.3830903e-07
6.1241723e-09
2.4237544e-09
2.3609003e-09
2.3947361e-09
2.4951706e-09
4.1229889e-09
2.8994568e-08
3.5603237e-07
1.045568e-06
9.8357934e-07
4.2537105e-07
4.3028299e-08
3.7875403e-09
2.391306e-09
2.3644825e-09
2.3756146e-09
2.4084425e-09
2.7460393e-09
4.1180522e-09
1.2675644e-08
3.3616531e-08
3.5142576e-08
2.2131576e-08
6.7648621e-09
2.7959859e-09
2.3810243e-09
2.3614162e-09
2.360662e-09
2.3654673e-09
2.3690753e-09
2.3853583e-09
2.4121538e-09
2.4668706e-09
2.5684589e-09
2.7494044e-09
3.1238483e-09
3.6466522e-09
3.7294117e-09
3.4872694e-09
2.9339081e-09
2.5341446e-09
2.3916184e-09
2.3587169e-09
2.3414917e-09
2.3340145e-09
2.29748e-09
2.3144911e-09
2.3388573e-09
2.3670206e-09
2.3977991e-09
2.437207e-09
2.4971329e-09
2.5786546e-09
2.6502796e-09
2.6647896e-09
2.6526845e-09
2.6038164e-09
2.5256256e-09
2.4442721e-09
2.3865539e-09
2.3533666e-09
2.3266512e-09
2.3123875e-09
2.3094955e-09
2.3182862e-09
2.3364128e-09
2.362778e-09
2.3928529e-09
2.424065e-09
2.4586126e-09
2.499153e-09
2.5249182e-09
2.5257285e-09
2.5156245e-09
2.4859335e-09
2.4437938e-09
2.3998352e-09
2.3650315e-09
2.3394823e-09
2.3129248e-09
2.2917526e-09
2.4120879e-09
2.406103e-09
2.4039416e-09
2.4043135e-09
2.4085701e-09
2.4192993e-09
2.4342238e-09
2.4497358e-09
2.4641401e-09
2.4676573e-09
2.465778e-09
2.4567586e-09
2.4358351e-09
2.4063185e-09
2.3747832e-09
2.3478578e-09
2.3230481e-09
2.2951858e-09
2.2673833e-09
2.5232446e-09
2.5152557e-09
2.5059876e-09
2.4955375e-09
2.4841497e-09
2.4729724e-09
2.4635153e-09
2.4562125e-09
2.4491522e-09
2.4407301e-09
2.4295646e-09
2.4144157e-09
2.3946972e-09
2.3715997e-09
2.348357e-09
2.328168e-09
2.3076734e-09
2.2824783e-09
2.2519983e-09
2.5600368e-09
2.5528861e-09
2.5446107e-09
2.5348586e-09
2.5229236e-09
2.5081311e-09
2.4904219e-09
2.4712341e-09
2.4525807e-09
2.43532e-09
2.4184376e-09
2.4005264e-09
2.3809887e-09
2.360378e-09
2.3392862e-09
2.3193275e-09
2.3028864e-09
2.2889394e-09
2.2751665e-09
2.2536444e-09
2.253172e-09
2.5239823e-09
2.5155066e-09
2.5064158e-09
2.4964912e-09
2.4853921e-09
2.4726173e-09
2.4580183e-09
2.4419311e-09
2.4247182e-09
2.4064834e-09
2.3871447e-09
2.3667935e-09
2.3459786e-09
2.3257331e-09
2.3069102e-09
2.2902853e-09
2.2767181e-09
2.266668e-09
2.2654418e-09
2.2596487e-09
2.2605257e-09
2.4292444e-09
2.4210873e-09
2.4130069e-09
2.4050272e-09
2.3967626e-09
2.3877229e-09
2.3777599e-09
2.3671701e-09
2.3558644e-09
2.3433274e-09
2.3292051e-09
2.3137956e-09
2.2982192e-09
2.2837665e-09
2.2713296e-09
2.2614688e-09
2.2548442e-09
2.2497345e-09
2.2532581e-09
2.2580255e-09
2.2589956e-09
2.2605196e-09
2.3291005e-09
2.3230048e-09
2.3173798e-09
2.3124624e-09
2.3081594e-09
2.3039113e-09
2.2992873e-09
2.2945097e-09
2.2900325e-09
2.2857166e-09
2.280921e-09
2.2751415e-09
2.2684644e-09
2.2614902e-09
2.2552958e-09
2.2501392e-09
2.2463872e-09
2.2441496e-09
2.2403856e-09
2.2424971e-09
2.2475064e-09
2.2504563e-09
2.2480998e-09
2.2408777e-09
2.2637191e-09
2.2613436e-09
2.2594156e-09
2.2578932e-09
2.2564867e-09
2.2548816e-09
2.253083e-09
2.2515072e-09
2.2504372e-09
2.2494432e-09
2.2479979e-09
2.2458332e-09
2.2430753e-09
2.2401108e-09
2.2372814e-09
2.2352548e-09
2.2338562e-09
2.2334624e-09
2.2310537e-09
2.2307523e-09
2.2322165e-09
2.2355826e-09
2.2345935e-09
2.2282157e-09
2.2427268e-09
2.2426012e-09
2.2425002e-09
2.2423161e-09
2.2419706e-09
2.2414175e-09
2.2408065e-09
2.2405013e-09
2.2404331e-09
2.2403487e-09
2.2400002e-09
2.2391374e-09
2.2377447e-09
2.2359833e-09
2.234255e-09
2.2329107e-09
2.23234e-09
2.2319793e-09
2.229577e-09
2.2276418e-09
2.2263161e-09
2.2257307e-09
2.2256738e-09
2.2232707e-09
2.2191614e-09
2.2349455e-09
2.2360457e-09
2.2369668e-09
2.237776e-09
2.2381644e-09
2.2380719e-09
2.2378193e-09
2.2374963e-09
2.2373396e-09
2.2372747e-09
2.2370977e-09
2.2364952e-09
2.2352362e-09
2.2333413e-09
2.2308867e-09
2.2280368e-09
2.2252559e-09
2.2229121e-09
2.2212186e-09
2.2179898e-09
2.2158661e-09
2.2147375e-09
2.2138084e-09
2.2134238e-09
2.2109035e-09
2.2092277e-09
2.222884e-09
2.2232346e-09
2.2234913e-09
2.2235803e-09
2.2234463e-09
2.2228935e-09
2.221929e-09
2.2210984e-09
2.2204649e-09
2.2198207e-09
2.2190455e-09
2.2182095e-09
2.2175361e-09
2.2169499e-09
2.216228e-09
2.2153533e-09
2.2145211e-09
2.2138722e-09
2.2135901e-09
2.211169e-09
2.2098834e-09
2.2093229e-09
2.2078954e-09
2.207259e-09
2.2055714e-09
2.2036919e-09
2.2244121e-09
2.2251779e-09
2.226241e-09
2.227355e-09
2.2280274e-09
2.2280408e-09
2.2279283e-09
2.2278481e-09
2.2277305e-09
2.2274663e-09
2.227065e-09
2.2266265e-09
2.226173e-09
2.2255483e-09
2.224568e-09
2.223158e-09
2.2214894e-09
2.2195702e-09
2.2174016e-09
2.2141026e-09
2.2104903e-09
2.2059708e-09
2.2017928e-09
2.1993158e-09
2.1980698e-09
2.197609e-09
2.1958141e-09
2.2309287e-09
2.2315494e-09
2.2322087e-09
2.2322212e-09
2.2318922e-09
2.231051e-09
2.2298406e-09
2.228331e-09
2.2261417e-09
2.2231697e-09
2.2198635e-09
2.2165459e-09
2.2133156e-09
2.2102414e-09
2.2073049e-09
2.2044652e-09
2.2017777e-09
2.1990983e-09
2.1965198e-09
2.1928034e-09
2.1904691e-09
2.1885009e-09
2.1866803e-09
2.1862653e-09
2.1870968e-09
2.1889773e-09
2.1907471e-09
2.2019009e-09
2.2016108e-09
2.2013021e-09
2.2007002e-09
2.1997246e-09
2.1986723e-09
2.1978477e-09
2.1971186e-09
2.1961696e-09
2.1947302e-09
2.1928339e-09
2.1907911e-09
2.1888384e-09
2.1870196e-09
2.1854313e-09
2.1840472e-09
2.1832284e-09
2.1833289e-09
2.1838036e-09
2.1851683e-09
2.1857719e-09
2.1871382e-09
2.1875932e-09
2.1875888e-09
2.1881358e-09
2.1891789e-09
2.1906537e-09
2.1919541e-09
2.1887558e-09
2.1891094e-09
2.1890569e-09
2.1889125e-09
2.1889071e-09
2.1891915e-09
2.1897844e-09
2.1904662e-09
2.1909922e-09
2.1913976e-09
2.1917921e-09
2.1922122e-09
2.1927357e-09
2.1933546e-09
2.1939854e-09
2.1943711e-09
2.1943355e-09
2.1940531e-09
2.1933576e-09
2.1922892e-09
2.1892329e-09
2.187654e-09
2.1865156e-09
2.1841372e-09
2.1823715e-09
2.182057e-09
2.1825128e-09
2.1830605e-09
2.1858132e-09
2.1857071e-09
2.1855016e-09
2.1853729e-09
2.1854299e-09
2.1856454e-09
2.1855703e-09
2.1852551e-09
2.1844457e-09
2.1832067e-09
2.1817705e-09
2.180207e-09
2.1785919e-09
2.1770024e-09
2.1755051e-09
2.1740978e-09
2.1727447e-09
2.1714628e-09
2.1701734e-09
2.1690764e-09
2.1676884e-09
2.167381e-09
2.1669425e-09
2.1670209e-09
2.1678985e-09
2.1696118e-09
2.1721677e-09
2.1754842e-09
2.1536444e-09
2.1534114e-09
2.1534523e-09
2.1537247e-09
2.1540501e-09
2.1541885e-09
2.1541489e-09
2.1539526e-09
2.1535595e-09
2.1531497e-09
2.1528697e-09
2.1527663e-09
2.1529095e-09
2.1532867e-09
2.1539953e-09
2.1550375e-09
2.156374e-09
2.1581767e-09
2.1605131e-09
2.1636218e-09
2.1662438e-09
2.1693521e-09
2.171743e-09
2.1734561e-09
2.1755149e-09
2.1782004e-09
2.1811953e-09
2.1838348e-09
2.1853782e-09
2.1486119e-09
2.1498049e-09
2.1513608e-09
2.1529292e-09
2.1543001e-09
2.1555126e-09
2.1565585e-09
2.1574152e-09
2.1582117e-09
2.1590685e-09
2.1601015e-09
2.1614266e-09
2.1631358e-09
2.1652916e-09
2.1678496e-09
2.1707328e-09
2.1738453e-09
2.1765295e-09
2.1781181e-09
2.1783532e-09
2.1765107e-09
2.1757161e-09
2.1752523e-09
2.1733286e-09
2.1716177e-09
2.1704703e-09
2.1699647e-09
2.1698152e-09
2.1697986e-09
2.1719067e-09
2.1736523e-09
2.1752444e-09
2.1767184e-09
2.1781368e-09
2.1793709e-09
2.1802178e-09
2.1806833e-09
2.1808937e-09
2.1806439e-09
2.1800162e-09
2.1790288e-09
2.1776139e-09
2.175641e-09
2.1731603e-09
2.1703809e-09
2.1674395e-09
2.1646938e-09
2.1621395e-09
2.159874e-09
2.1563875e-09
2.1544636e-09
2.1531272e-09
2.1514382e-09
2.1507128e-09
2.1511037e-09
2.1526694e-09
2.1556247e-09
2.1597906e-09
2.1647698e-09
2.1596046e-09
2.1593037e-09
2.1587315e-09
2.1579213e-09
2.1569731e-09
2.1558293e-09
2.154333e-09
2.1523884e-09
2.1500767e-09
2.1475396e-09
2.1448918e-09
2.1421888e-09
2.1395667e-09
2.1372186e-09
2.1351527e-09
2.1333635e-09
2.1318876e-09
2.1307929e-09
2.1300584e-09
2.1300779e-09
2.130485e-09
2.13124e-09
2.1315255e-09
2.1326703e-09
2.1339821e-09
2.1353589e-09
2.1376821e-09
2.1411331e-09
2.1455254e-09
2.1510073e-09
2.1575468e-09
2.1650579e-09
2.1731801e-09
2.0876132e-09
2.0874987e-09
2.0874687e-09
2.087446e-09
2.0873454e-09
2.0871003e-09
2.0867043e-09
2.08618e-09
2.0856188e-09
2.0851476e-09
2.0847806e-09
2.084724e-09
2.0848994e-09
2.0855673e-09
2.0868092e-09
2.0886102e-09
2.0909064e-09
2.0935583e-09
2.0964292e-09
2.0994127e-09
2.1026462e-09
2.106467e-09
2.110291e-09
2.1154096e-09
2.1208487e-09
2.1266047e-09
2.133296e-09
2.1409488e-09
2.1495185e-09
2.158923e-09
2.1689559e-09
2.1793747e-09
2.1897163e-09
2.0411236e-09
2.0424312e-09
2.043901e-09
2.0454989e-09
2.04718e-09
2.0489359e-09
2.05078e-09
2.0527564e-09
2.054947e-09
2.057381e-09
2.060043e-09
2.0629669e-09
2.0661583e-09
2.0695657e-09
2.0731766e-09
2.0770218e-09
2.0811808e-09
2.0857455e-09
2.0908321e-09
2.0964431e-09
2.1026877e-09
2.1093955e-09
2.1166807e-09
2.123857e-09
2.1321448e-09
2.1407702e-09
2.1499312e-09
2.1597802e-09
2.1700949e-09
2.180546e-09
2.1908614e-09
2.2006036e-09
2.2091463e-09
2.2161751e-09
2.221753e-09
2.0468269e-09
2.0500014e-09
2.0532534e-09
2.0565666e-09
2.0599103e-09
2.0632709e-09
2.0666575e-09
2.0701001e-09
2.0736444e-09
2.0773379e-09
2.0812277e-09
2.0853745e-09
2.0898016e-09
2.0945311e-09
2.0995701e-09
2.1049056e-09
2.1105553e-09
2.1164699e-09
2.1226327e-09
2.1289805e-09
2.1355011e-09
2.1421542e-09
2.1488711e-09
2.1557978e-09
2.1622221e-09
2.1691492e-09
2.1758293e-09
2.1823301e-09
2.1887663e-09
2.195072e-09
2.2013532e-09
2.207451e-09
2.2131884e-09
2.218046e-09
2.2219646e-09
2.2249216e-09
2.2264971e-09
2.0832184e-09
2.0860544e-09
2.0888503e-09
2.0916471e-09
2.0945109e-09
2.0974506e-09
2.1004587e-09
2.1035313e-09
2.1067216e-09
2.1100692e-09
2.1135873e-09
2.1172735e-09
2.1211056e-09
2.1250746e-09
2.1291904e-09
2.133458e-09
2.1379158e-09
2.1425842e-09
2.1474147e-09
2.1524182e-09
2.1576138e-09
2.1630027e-09
2.1685046e-09
2.1742825e-09
2.1794096e-09
2.1851968e-09
2.1907711e-09
2.1961041e-09
2.2011365e-09
2.2056216e-09
2.2096258e-09
2.2132277e-09
2.2164479e-09
2.2194154e-09
2.2223672e-09
2.2253577e-09
2.2283696e-09
2.2308837e-09
2.1248618e-09
2.1272473e-09
2.1296045e-09
2.1319257e-09
2.1342844e-09
2.1367325e-09
2.1392949e-09
2.1419739e-09
2.1447549e-09
2.1476357e-09
2.1506277e-09
2.1537475e-09
2.156978e-09
2.1603267e-09
2.1637784e-09
2.167276e-09
2.1708783e-09
2.1746242e-09
2.178427e-09
2.1823173e-09
2.1862924e-09
2.1902745e-09
2.1943146e-09
2.1983737e-09
2.202662e-09
2.2062191e-09
2.2107311e-09
2.2152325e-09
2.2195658e-09
2.2238273e-09
2.2278273e-09
2.2314348e-09
2.2345386e-09
2.2370093e-09
2.2387994e-09
2.2396406e-09
2.2393831e-09
2.2383298e-09
2.2369946e-09
2.2364493e-09
2.2361674e-09
2.1802412e-09
2.1819875e-09
2.183745e-09
2.1854862e-09
2.1872602e-09
2.1891026e-09
2.1910091e-09
2.192985e-09
2.1950491e-09
2.1972117e-09
2.1994718e-09
2.2018164e-09
2.2042434e-09
2.2067521e-09
2.2093085e-09
2.2118751e-09
2.2144545e-09
2.2170336e-09
2.2195818e-09
2.2221049e-09
2.2245821e-09
2.2269712e-09
2.2291939e-09
2.2313139e-09
2.2331479e-09
2.2348817e-09
2.2352788e-09
2.2365982e-09
2.2377924e-09
2.2382767e-09
2.2383433e-09
2.2382614e-09
2.2379524e-09
2.2374533e-09
2.2369121e-09
2.2362788e-09
2.235269e-09
2.233766e-09
2.2322035e-09
2.2312101e-09
2.2303849e-09
2.2292917e-09
2.2187686e-09
2.2194649e-09
2.2201721e-09
2.2208659e-09
2.2215732e-09
2.2223076e-09
2.2230478e-09
2.2237759e-09
2.224496e-09
2.2252179e-09
2.2259384e-09
2.226646e-09
2.2273225e-09
2.2279305e-09
2.2284562e-09
2.228932e-09
2.2293827e-09
2.2297778e-09
2.2300968e-09
2.2303024e-09
2.2303331e-09
2.2303351e-09
2.2303404e-09
2.2303075e-09
2.2301875e-09
2.2299862e-09
2.2298446e-09
2.2295233e-09
2.230006e-09
2.229877e-09
2.2296397e-09
2.2293641e-09
2.2289131e-09
2.2282085e-09
2.2271812e-09
2.2259807e-09
2.2249197e-09
2.22417e-09
2.224247e-09
2.2255855e-09
2.2281115e-09
2.2306521e-09
2.2321125e-09
2.2207051e-09
2.2206997e-09
2.2206916e-09
2.2207136e-09
2.2207958e-09
2.2208759e-09
2.2209124e-09
2.2209429e-09
2.2209895e-09
2.2210513e-09
2.2210972e-09
2.2210973e-09
2.2210707e-09
2.2210812e-09
2.2211308e-09
2.2212252e-09
2.2213813e-09
2.2214902e-09
2.2215749e-09
2.2216815e-09
2.2218032e-09
2.221939e-09
2.222032e-09
2.2220729e-09
2.222109e-09
2.222172e-09
2.2222759e-09
2.2224573e-09
2.2225361e-09
2.2234709e-09
2.2241135e-09
2.2245258e-09
2.2251003e-09
2.2260095e-09
2.2273513e-09
2.2292176e-09
2.2315683e-09
2.2340245e-09
2.2359806e-09
2.2374456e-09
2.238496e-09
2.2390324e-09
2.2393049e-09
2.2395625e-09
2.2396273e-09
2.2230132e-09
2.2230952e-09
2.2231798e-09
2.2233798e-09
2.2236939e-09
2.2239869e-09
2.2242223e-09
2.2244552e-09
2.2247375e-09
2.2250438e-09
2.2253663e-09
2.2257503e-09
2.2261531e-09
2.2265841e-09
2.2270477e-09
2.2275079e-09
2.227967e-09
2.2284719e-09
2.2290631e-09
2.2297421e-09
2.2304858e-09
2.2313076e-09
2.2322424e-09
2.2333358e-09
2.234608e-09
2.236017e-09
2.2375956e-09
2.2392752e-09
2.2410515e-09
2.2420977e-09
2.2445287e-09
2.2466309e-09
2.2477397e-09
2.2484638e-09
2.2485801e-09
2.2482753e-09
2.2474888e-09
2.2465935e-09
2.2462224e-09
2.2462759e-09
2.2458554e-09
2.2445771e-09
2.2427198e-09
2.2404387e-09
2.2379115e-09
2.2355061e-09
2.2334365e-09
2.2315314e-09
2.2515155e-09
2.2516942e-09
2.251908e-09
2.2522258e-09
2.2526243e-09
2.252996e-09
2.2532934e-09
2.2535735e-09
2.2538899e-09
2.2542811e-09
2.254707e-09
2.255139e-09
2.2555733e-09
2.2559894e-09
2.2564472e-09
2.2569626e-09
2.2574888e-09
2.2580013e-09
2.2584931e-09
2.2589267e-09
2.2592875e-09
2.2595902e-09
2.2597745e-09
2.259788e-09
2.2597023e-09
2.2594177e-09
2.2589102e-09
2.2581381e-09
2.2570424e-09
2.2557543e-09
2.2527726e-09
2.2520059e-09
2.2517152e-09
2.2498918e-09
2.2480089e-09
2.2463382e-09
2.2448028e-09
2.2433441e-09
2.2417573e-09
2.2398169e-09
2.237674e-09
2.2355741e-09
2.2336175e-09
2.2318481e-09
2.2302589e-09
2.2288028e-09
2.2273113e-09
2.2256841e-09
2.2239595e-09
2.2225172e-09
2.2628769e-09
2.2627467e-09
2.2623954e-09
2.2620356e-09
2.261809e-09
2.261611e-09
2.2613384e-09
2.2609655e-09
2.2605406e-09
2.2601069e-09
2.2596556e-09
2.2591398e-09
2.2585475e-09
2.257901e-09
2.2572289e-09
2.256514e-09
2.2557209e-09
2.2548397e-09
2.2539098e-09
2.2529138e-09
2.2518113e-09
2.2506619e-09
2.249468e-09
2.2482029e-09
2.2468988e-09
2.2455253e-09
2.2440518e-09
2.2425443e-09
2.2410033e-09
2.2394842e-09
2.2380037e-09
2.235119e-09
2.2344576e-09
2.2341615e-09
2.2326489e-09
2.2312687e-09
2.2301536e-09
2.2292821e-09
2.2285378e-09
2.2278019e-09
2.2269616e-09
2.2258558e-09
2.2244389e-09
2.222968e-09
2.2215708e-09
2.220372e-09
2.2198463e-09
2.220024e-09
2.2202292e-09
2.2202074e-09
2.2201138e-09
2.2202143e-09
2.2207625e-09
2.2218238e-09
2.243559e-09
2.2429985e-09
2.2425363e-09
2.2419542e-09
2.2411591e-09
2.2404051e-09
2.2398844e-09
2.2394744e-09
2.2390156e-09
2.2384388e-09
2.2377876e-09
2.2371435e-09
2.2365409e-09
2.235945e-09
2.2353277e-09
2.2346715e-09
2.2339881e-09
2.2332672e-09
2.2325135e-09
2.2317188e-09
2.2308927e-09
2.2300774e-09
2.229243e-09
2.2284372e-09
2.2276778e-09
2.2269304e-09
2.2261788e-09
2.2254439e-09
2.2247446e-09
2.2241043e-09
2.2235064e-09
2.2229599e-09
2.2224779e-09
2.2220727e-09
2.2215454e-09
2.2220333e-09
2.2216871e-09
2.2210464e-09
2.220463e-09
2.2199146e-09
2.2194513e-09
2.219021e-09
2.2187188e-09
2.2185602e-09
2.2186792e-09
2.2190256e-09
2.2195132e-09
2.2199307e-09
2.2201769e-09
2.2203195e-09
2.2205347e-09
2.2211267e-09
2.2222963e-09
2.2237339e-09
2.2250198e-09
2.2259666e-09
2.226636e-09
2.222889e-09
2.2224846e-09
2.2220319e-09
2.2215403e-09
2.2211026e-09
2.220833e-09
2.2206595e-09
2.2204677e-09
2.2201851e-09
2.2198246e-09
2.2194829e-09
2.2192016e-09
2.2189616e-09
2.218734e-09
2.21851e-09
2.2182525e-09
2.2179775e-09
2.2177265e-09
2.2175306e-09
2.2173859e-09
2.2172682e-09
2.2171712e-09
2.2170685e-09
2.2169604e-09
2.2168647e-09
2.2167792e-09
2.2167361e-09
2.216725e-09
2.2167013e-09
2.2167116e-09
2.2167953e-09
2.2169623e-09
2.2171928e-09
2.2175123e-09
2.2176576e-09
2.2188714e-09
2.2194092e-09
2.219677e-09
2.2199705e-09
2.2201665e-09
2.2202935e-09
2.2204088e-09
2.2204895e-09
2.2205429e-09
2.2206124e-09
2.2207418e-09
2.2210304e-09
2.2215944e-09
2.2223696e-09
2.2231716e-09
2.223797e-09
2.2242165e-09
2.2245377e-09
2.2249141e-09
2.225466e-09
2.2261864e-09
2.2269112e-09
2.2151823e-09
2.2151792e-09
2.2150248e-09
2.2148806e-09
2.2149045e-09
2.2150192e-09
2.215106e-09
2.2150974e-09
2.2150268e-09
2.2149544e-09
2.2149634e-09
2.2150258e-09
2.2151333e-09
2.2152472e-09
2.2153547e-09
2.2154758e-09
2.2156187e-09
2.2157732e-09
2.2159385e-09
2.2161047e-09
2.2162672e-09
2.2164397e-09
2.2166386e-09
2.216855e-09
2.2170665e-09
2.2172903e-09
2.2175311e-09
2.2177754e-09
2.2180211e-09
2.2182824e-09
2.2185363e-09
2.218756e-09
2.218944e-09
2.2191463e-09
2.2191588e-09
2.22009e-09
2.2202661e-09
2.2202939e-09
2.2203751e-09
2.2205742e-09
2.2208879e-09
2.2212831e-09
2.2217461e-09
2.2221883e-09
2.2225511e-09
2.2228235e-09
2.2230451e-09
2.2232844e-09
2.2236053e-09
2.2240388e-09
2.2245772e-09
2.2251303e-09
2.225575e-09
2.2258531e-09
2.2260457e-09
2.2263647e-09
2.2269044e-09
2.2161694e-09
2.2162391e-09
2.2161816e-09
2.2161717e-09
2.2162826e-09
2.2165512e-09
2.2167044e-09
2.2167044e-09
2.2166868e-09
2.2166953e-09
2.2167499e-09
2.2168761e-09
2.2170445e-09
2.2172114e-09
2.2173684e-09
2.2175055e-09
2.2176387e-09
2.2177742e-09
2.2179194e-09
2.2180756e-09
2.2182358e-09
2.2183952e-09
2.2185503e-09
2.2187172e-09
2.2188884e-09
2.2190599e-09
2.2192372e-09
2.2194265e-09
2.2196119e-09
2.2197875e-09
2.2199608e-09
2.2201442e-09
2.2203489e-09
2.2205758e-09
2.2206173e-09
2.2216429e-09
2.2218815e-09
2.2219358e-09
2.222036e-09
2.222209e-09
2.2224337e-09
2.2227128e-09
2.2230643e-09
2.2234737e-09
2.2239063e-09
2.224347e-09
2.2248263e-09
2.2253488e-09
2.2258832e-09
2.2264183e-09
2.2269933e-09
2.2277178e-09
2.228618e-09
2.2294728e-09
2.2300841e-09
2.2303934e-09
2.2304039e-09
2.2196962e-09
2.2197452e-09
2.2197083e-09
2.2197205e-09
2.2198478e-09
2.2201054e-09
2.2202227e-09
2.2202202e-09
2.2201796e-09
2.2201528e-09
2.2201704e-09
2.220245e-09
2.2203656e-09
2.220492e-09
2.220604e-09
2.2207079e-09
2.220825e-09
2.2209645e-09
2.2211125e-09
2.2212607e-09
2.2214099e-09
2.2215637e-09
2.2217231e-09
2.2218856e-09
2.2220604e-09
2.2222434e-09
2.222439e-09
2.2226513e-09
2.2228625e-09
2.2230787e-09
2.2233239e-09
2.2235842e-09
2.2238621e-09
2.2241757e-09
2.2242763e-09
2.2254074e-09
2.2258749e-09
2.2260806e-09
2.2263462e-09
2.2266298e-09
2.2269452e-09
2.2272759e-09
2.2275951e-09
2.2278913e-09
2.2281365e-09
2.2283377e-09
2.2285421e-09
2.2287651e-09
2.2289776e-09
2.229158e-09
2.2292777e-09
2.2293178e-09
2.2293239e-09
2.2294275e-09
2.2295694e-09
2.2295841e-09
2.229468e-09
2.2242122e-09
2.224216e-09
2.2242157e-09
2.2242805e-09
2.2244496e-09
2.2246442e-09
2.2247275e-09
2.2247284e-09
2.2247007e-09
2.2246496e-09
2.224639e-09
2.224661e-09
2.2247293e-09
2.2248295e-09
2.2249335e-09
2.2250328e-09
2.2251247e-09
2.2252115e-09
2.2253028e-09
2.2253966e-09
2.2254972e-09
2.2255977e-09
2.2256972e-09
2.2258037e-09
2.2259087e-09
2.2260137e-09
2.2261224e-09
2.2262372e-09
2.2263597e-09
2.2264866e-09
2.2266055e-09
2.2267276e-09
2.2268359e-09
2.2269663e-09
2.2269918e-09
2.2279694e-09
2.2280236e-09
2.2279794e-09
2.227976e-09
2.2279991e-09
2.2280672e-09
2.2281838e-09
2.2283183e-09
2.2284393e-09
2.2285011e-09
2.2285087e-09
2.2285314e-09
2.2285915e-09
2.2286635e-09
2.2287111e-09
2.2287245e-09
2.228689e-09
2.2285758e-09
2.2283903e-09
2.2281728e-09
2.2280621e-09
2.2280237e-09
2.2260634e-09
2.226047e-09
2.2260781e-09
2.2261874e-09
2.2263157e-09
2.2264126e-09
2.2264179e-09
2.2263975e-09
2.2263472e-09
2.2262673e-09
2.2261998e-09
2.2261834e-09
2.2261918e-09
2.22622e-09
2.2262587e-09
2.2263003e-09
2.2263414e-09
2.2263895e-09
2.2264409e-09
2.2264905e-09
2.2265422e-09
2.2266008e-09
2.2266647e-09
2.226725e-09
2.2267858e-09
2.2268444e-09
2.2269045e-09
2.2269608e-09
2.2270126e-09
2.2270672e-09
2.2271263e-09
2.2271761e-09
2.2272347e-09
2.2273139e-09
2.2273288e-09
2.2281873e-09
2.2281937e-09
2.2280651e-09
2.2280031e-09
2.2279695e-09
2.2279724e-09
2.2279943e-09
2.2280114e-09
2.2279976e-09
2.227936e-09
2.227834e-09
2.2277575e-09
2.2277196e-09
2.2276938e-09
2.2276768e-09
2.2276966e-09
2.2277965e-09
2.2280017e-09
2.2284007e-09
2.229012e-09
2.2296482e-09
2.2311343e-09
2.226617e-09
2.2266354e-09
2.2267212e-09
2.2268641e-09
2.2269686e-09
2.2270118e-09
2.2270052e-09
2.2269929e-09
2.2269808e-09
2.226953e-09
2.2268877e-09
2.2268043e-09
2.2267813e-09
2.2267857e-09
2.226807e-09
2.2268405e-09
2.2268774e-09
2.2269194e-09
2.2269605e-09
2.2270045e-09
2.2270476e-09
2.2270836e-09
2.2271196e-09
2.2271564e-09
2.2271973e-09
2.2272362e-09
2.2272773e-09
2.2273204e-09
2.2273715e-09
2.2274255e-09
2.2274806e-09
2.2275342e-09
2.2275848e-09
2.2276484e-09
2.2276675e-09
2.2285796e-09
2.2285871e-09
2.2284818e-09
2.2284564e-09
2.2284813e-09
2.2285733e-09
2.2287239e-09
2.2289073e-09
2.2291074e-09
2.2293004e-09
2.2295001e-09
2.2297823e-09
2.2301646e-09
2.2306048e-09
2.2310688e-09
2.2315198e-09
2.2319328e-09
2.2322212e-09
2.2323742e-09
2.2325103e-09
2.2325138e-09
2.2322637e-09
2.2291735e-09
2.2291827e-09
2.2292208e-09
2.2293176e-09
2.2294203e-09
2.2294952e-09
2.2295436e-09
2.2295753e-09
2.2295972e-09
2.2296091e-09
2.2295918e-09
2.2295346e-09
2.2294526e-09
2.2294282e-09
2.2294444e-09
2.2294803e-09
2.2295262e-09
2.2295778e-09
2.2296317e-09
2.2296896e-09
2.2297461e-09
2.2298037e-09
2.2298665e-09
2.2299443e-09
2.2300264e-09
2.2301107e-09
2.2301934e-09
2.2302895e-09
2.2303907e-09
2.2304933e-09
2.2306011e-09
2.2307151e-09
2.2308361e-09
2.2309613e-09
2.2310175e-09
2.2319462e-09
2.2320728e-09
2.2320097e-09
2.232017e-09
2.2320615e-09
2.2321524e-09
2.2322673e-09
2.2323785e-09
2.2324588e-09
2.2324899e-09