/*--------------------------------*- C++ -*----------------------------------*\
| =========                 |                                                 |
| \\      /  F ield         | OpenFOAM: The Open Source CFD Toolbox           |
|  \\    /   O peration     | Version:  2506                                  |
|   \\  /    A nd           | Website:  www.openfoam.com                      |
|    \\/     M anipulation  |                                                 |
\*---------------------------------------------------------------------------*/
FoamFile
{
    version     2.0;
    format      ascii;
    arch        "LSB;label=32;scalar=64";
    class       surfaceScalarField;
    location    "0.0245";
    object      phi;
}
// * * * * * * * * * * * * * * * * * * * * * * * * * * * * * * * * * * * * * //

dimensions      [1 0 -1 0 0 0 0];

oriented        oriented;

internalField   nonuniform List<scalar> 
27107
(
5.499017e-08
-9.2611822e-06
2.2516813e-07
-3.0929834e-05
5.2136146e-07
-5.8134761e-05
9.4901289e-07
-9.156465e-05
1.5040249e-06
-0.00013122131
2.1767896e-06
-0.00017558095
2.9531458e-06
-0.00022226802
3.8244719e-06
-0.00027043821
4.7821003e-06
-0.00032024024
5.8205205e-06
-0.00037230632
6.9346737e-06
-0.00042780791
8.1202267e-06
-0.00048722796
-0.00055099276
3.2726539e-08
-9.2931823e-06
1.2932676e-07
-3.1025701e-05
2.9279259e-07
-5.8297487e-05
5.2263218e-07
-9.1793766e-05
8.1437599e-07
-0.00013151231
1.1607165e-06
-0.00017592657
1.5565146e-06
-0.00022266309
1.9962729e-06
-0.00027087715
2.471591e-06
-0.00032071483
2.9768184e-06
-0.0003728104
3.5037172e-06
-0.0004283338
4.0435718e-06
-0.00048776647
4.5909238e-06
-0.00055153889
5.1372051e-06
-0.00062054684
5.673845e-06
-0.00069552023
6.1963653e-06
-0.00077726304
6.6935309e-06
-0.00086663756
7.1593689e-06
-0.00096431692
7.5870836e-06
-0.0010706441
7.9729366e-06
-0.0011870558
8.3121911e-06
-0.0013149314
8.6035616e-06
-0.0014547007
8.8484257e-06
-0.001607935
9.0561962e-06
-0.0017761879
9.2403674e-06
-0.0019603729
-0.0021628207
1.7112515e-08
-9.3098675e-06
6.4960996e-08
-3.1073103e-05
1.4019846e-07
-5.8372244e-05
2.3566789e-07
-9.1888727e-05
3.4342576e-07
-0.00013161951
4.5885967e-07
-0.00017604141
5.8071169e-07
-0.00022278429
7.0316272e-07
-0.00027099891
8.2010921e-07
-0.000320831
9.2040887e-07
-0.00037290987
9.9220348e-07
-0.00042840467
1.0273168e-06
-0.00048780058
1.0098203e-06
-0.00055152028
9.3066304e-07
-0.00062046647
7.7988546e-07
-0.00069536813
5.5029884e-07
-0.00077703201
2.3793963e-07
-0.00086632361
-1.6232558e-07
-0.00096391492
-6.5535202e-07
-0.0010701492
-1.2467674e-06
-0.0011864624
-1.9430531e-06
-0.0013142328
-2.7455421e-06
-0.0014538958
-3.653372e-06
-0.0016070245
-4.6553343e-06
-0.0017751831
-5.7359681e-06
-0.0019592889
-6.8748378e-06
-0.0021616782
-8.0375566e-06
-0.002383672
-9.1834715e-06
-0.0026275946
-1.025333e-05
-0.0028957758
-1.1180672e-05
-0.0031906624
-1.1884702e-05
-0.0035149315
-0.0038717405
1.029263e-08
3.4480755e-08
6.5838507e-08
9.4585094e-08
1.1285464e-07
1.1640889e-07
1.0360803e-07
7.1010259e-08
1.1002227e-08
-8.5827769e-08
-2.2903487e-07
-4.328825e-07
-7.103857e-07
-1.0762469e-06
-1.5468146e-06
-2.1379741e-06
-2.8606131e-06
-3.726927e-06
-4.7469532e-06
-5.9303231e-06
-7.2804987e-06
-8.8038472e-06
-1.0496234e-05
-1.2351046e-05
-1.4344717e-05
-1.6448017e-05
-1.8622139e-05
-2.0812735e-05
-2.2958293e-05
-2.4978138e-05
-2.6789659e-05
-2.8306458e-05
-2.9437822e-05
-3.0111837e-05
-3.0267286e-05
1.2769384e-08
9.1943303e-06
5.0872847e-08
3.0688331e-05
1.1100233e-07
5.7651937e-05
1.8754086e-07
9.076724e-05
2.7263152e-07
0.00013006518
3.6140821e-07
0.00017408552
4.5067304e-07
0.00022048202
5.3503971e-07
0.00026837985
6.0481466e-07
0.00031789595
6.5188884e-07
0.00036964377
6.629839e-07
0.00042478262
6.288991e-07
0.00048379036
5.3418807e-07
0.00054709369
3.6638984e-07
0.00061558238
1.1136267e-07
0.0006899863
-2.4648902e-07
0.00077110549
-7.1073078e-07
0.0008597962
-1.2907236e-06
0.00095672858
-1.9867234e-06
0.0010622459
-2.7986854e-06
0.0011777705
-3.7242369e-06
0.00130468
-4.7569989e-06
0.0014434017
-5.8938e-06
0.001595507
-7.1185011e-06
0.0017625411
-8.4049768e-06
0.0019454238
-9.7191074e-06
0.0021464735
-1.1013308e-05
0.0023670031
-1.2235351e-05
0.0026093252
-1.3313229e-05
0.0028757482
-1.4165253e-05
0.0031687113
-1.4702973e-05
0.0034908723
-1.4826557e-05
0.0038453666
-1.4440593e-05
0.0042348593
-1.3452987e-05
0.0046637261
-1.1786017e-05
0.0051363826
-9.3759617e-06
0.0056564805
-6.1764857e-06
0.0062294322
-2.157503e-06
0.0068600652
2.6771916e-06
0.0075541933
8.2641216e-06
0.0083176616
1.4503872e-05
0.0091577947
2.1168155e-05
0.010081
2.8097511e-05
0.011096574
3.2187949e-05
0.012213504
2.3490827e-05
0.013355045
1.0552523e-05
0.014503101
-3.4231136e-06
0.015731382
-1.8234211e-05
0.017061125
-3.3741146e-05
0.0185022
-4.9938717e-05
0.020064521
-6.6892341e-05
0.021758677
0.02359678
1.9928641e-08
9.1722559e-06
8.3282562e-08
3.0622763e-05
1.9014719e-07
5.7542716e-05
3.3737283e-07
9.0617587e-05
5.1954333e-07
0.00012988043
7.3034945e-07
0.00017387201
9.6521483e-07
0.00022024425
1.2178978e-06
0.00026812409
1.4828862e-06
0.00031762767
1.7484219e-06
0.00036937472
2.0085726e-06
0.00042451869
2.2527604e-06
0.00048354212
2.4726565e-06
0.00054686942
2.659327e-06
0.00061539099
2.8060277e-06
0.0006898345
2.909605e-06
0.0007709964
2.9624513e-06
0.00085973738
2.9609403e-06
0.00095672363
2.897849e-06
0.001062302
2.7691007e-06
0.0011778917
2.5689861e-06
0.0013048719
2.2997343e-06
0.0014436621
1.9671974e-06
0.00159583
1.5850921e-06
0.0017629128
1.1741333e-06
0.0019458236
7.6671695e-07
0.0021468688
4.0755925e-07
0.0023673491
1.5104757e-07
0.0026095675
6.4936047e-08
0.0028758189
2.2956453e-07
0.00316853
7.3511025e-07
0.0034903487
1.6749828e-06
0.0038444071
3.1550897e-06
0.0042333579
5.276082e-06
0.004661582
8.1398469e-06
0.0051334937
1.1829203e-05
0.005652764
1.6408368e-05
0.0062248235
2.1915782e-05
0.0068545257
2.8367881e-05
0.0075477063
3.5728708e-05
0.0083102628
4.3870767e-05
0.009149611
5.2555023e-05
0.010072271
6.1584093e-05
0.011087494
6.861688e-05
0.012206411
6.2943065e-05
0.013360647
5.2864092e-05
0.014513098
4.19421e-05
0.015742213
3.0266598e-05
0.017072699
1.7777486e-05
0.018514576
4.422732e-06
0.020077751
-9.7340353e-06
0.021772708
-2.4673905e-05
0.023611603
-4.0364765e-05
0.025604996
-5.6795656e-05
0.027766018
-7.3951397e-05
0.030106609
-9.1663546e-05
0.032640944
-0.00011015398
0.035385737
-0.00012998569
0.038358343
-0.00015187809
0.041579579
-0.00017587244
0.045072367
-0.00020162694
0.048858028
0.052958984
3.4798384e-08
9.1354381e-06
1.4477139e-07
3.0510677e-05
3.3598647e-07
5.734925e-05
6.1043506e-07
9.0340779e-05
9.6514815e-07
0.00012952319
1.3929692e-06
0.00017344152
1.8860882e-06
0.00021974827
2.4380549e-06
0.0002675691
3.0425119e-06
0.00031701996
3.6947183e-06
0.00036871905
4.3876275e-06
0.00042382205
5.1166462e-06
0.00048280909
5.8742893e-06
0.00054610745
6.6539211e-06
0.00061460669
7.4493299e-06
0.00068903404
8.2561033e-06
0.00077018417
9.0657017e-06
0.00085892188
9.876681e-06
0.00095590625
1.0684046e-05
0.0010614877
1.148501e-05
0.0011770832
1.2283806e-05
0.001304065
1.308307e-05
0.001442854
1.3893324e-05
0.0015950102
1.4730076e-05
0.0017620657
1.5616662e-05
0.0019449258
1.6579369e-05
0.002145894
1.7659171e-05
0.0023662562
1.8902637e-05
0.0026083098
2.0369704e-05
0.0028743365
2.2132259e-05
0.0031667508
2.4279685e-05
0.0034881832
2.6909562e-05
0.0038417577
3.0126385e-05
0.0042301199
3.4047051e-05
0.0046576384
3.878388e-05
0.005128732
4.4445415e-05
0.0056470755
5.1129495e-05
0.0062181101
5.8905405e-05
0.0068467179
6.7806067e-05
0.0075387709
7.7826534e-05
0.0083002043
8.8862871e-05
0.0091385331
0.00010068873
0.0100604
0.00011308817
0.011075044
0.00012454591
0.012194895
0.00012281429
0.013362309
0.00011487396
0.014520958
0.00010591005
0.015751088
9.6478377e-05
0.017082034
8.6762227e-05
0.018524184
7.6644124e-05
0.020087754
6.5897873e-05
0.021783344
5.4381178e-05
0.023623027
4.1997311e-05
0.025617307
2.8663767e-05
0.027779285
1.4251529e-05
0.030120955
-1.5412186e-06
0.032656714
-1.8561257e-05
0.035402734
-3.66428e-05
0.038376404
-5.5470789e-05
0.041598285
-7.5363573e-05
0.045092071
-9.6814382e-05
0.048879228
-0.0001199575
0.052981833
-0.00014484644
0.057420859
-0.00017188079
0.062221719
-0.00020119352
0.067417939
-0.00023307696
0.073044681
0.079135893
5.8041842e-08
9.0757111e-06
2.424527e-07
3.0324508e-05
5.6740309e-07
5.70224e-05
1.0412498e-06
8.9864904e-05
1.6628131e-06
0.00012889943
2.4201946e-06
0.00017268175
3.2982602e-06
0.00021886761
4.2858825e-06
0.00026657866
5.3752434e-06
0.00031592756
6.5613263e-06
0.00036752968
7.8387978e-06
0.00042254102
9.2045487e-06
0.00048143948
1.0652636e-05
0.00054465519
1.2178591e-05
0.00061307621
1.3779523e-05
0.00068742822
1.5447598e-05
0.00076851078
1.718161e-05
0.00085718211
1.8973679e-05
0.00095410794
2.0820797e-05
0.0010596339
2.272313e-05
0.0011751736
2.4683047e-05
0.0013020971
2.6705009e-05
0.0014408234
2.8804267e-05
0.0015929016
3.0998492e-05
0.0017598614
3.3312598e-05
0.0019426008
3.5782532e-05
0.0021434123
3.8438897e-05
0.0023635871
4.1330923e-05
0.002605404
4.4515325e-05
0.0028711371
4.8061123e-05
0.0031631888
5.2054432e-05
0.0034841724
5.659414e-05
0.003837199
6.1793004e-05
0.0042249004
6.7770982e-05
0.0046516382
7.4655505e-05
0.0051218234
8.2566594e-05
0.0056391383
9.1617017e-05
0.0062090314
0.00010190668
0.0068363976
0.0001135009
0.0075271433
0.00012640602
0.0082872628
0.0001405448
0.0091243546
0.00015571108
0.010045191
0.00017169162
0.011059016
0.0001876917
0.012178841
0.00019144457
0.013358491
0.00018848308
0.014523843
0.00018471697
0.01575477
0.00018064778
0.01708601
0.000175852
0.018528876
0.00017028835
0.020093205
0.00016400314
0.021789517
0.0001570043
0.023629927
0.00014926741
0.025624956
0.00014075286
0.0277877
0.00013147159
0.030130104
0.00012150538
0.032666521
0.00011039038
0.035413634
9.7504733e-05
0.038389103
8.2333691e-05
0.041613293
6.4971414e-05
0.045109301
4.5675437e-05
0.048898357
2.447801e-05
0.053002818
1.319355e-06
0.057443771
-2.3440611e-05
0.062246203
-5.0493928e-05
0.067444733
-8.0266054e-05
0.073074248
-0.00011317056
0.079168556
-0.00014945266
0.085760181
-0.00018946814
0.092886556
-0.00023409271
0.10059139
0.10892385
9.3987473e-08
8.9801401e-06
3.8953848e-07
3.0027244e-05
9.1191455e-07
5.6498175e-05
1.6795971e-06
8.9095212e-05
2.6948842e-06
0.00012788197
3.9417108e-06
0.00017143256
5.395741e-06
0.00021741103
7.0446862e-06
0.00026492697
8.8768067e-06
0.00031409248
1.0885223e-05
0.00036551808
1.3066332e-05
0.00042035648
1.5413098e-05
0.00047908901
1.7920158e-05
0.00054214412
2.0586149e-05
0.00061040589
2.3406824e-05
0.00068460285
2.6383319e-05
0.00076552921
2.9516074e-05
0.00085404385
3.2809339e-05
0.0009508087
3.626649e-05
0.0010561702
3.9887586e-05
0.0011715455
4.3681342e-05
0.0012982958
4.7651466e-05
0.0014368451
5.1806526e-05
0.0015887376
5.615904e-05
0.0017554993
6.0729716e-05
0.0019380196
6.5547639e-05
0.002138583
7.0656108e-05
0.0023584663
7.6111042e-05
0.0025999357
8.1977515e-05
0.0028652562
8.8335628e-05
0.0031568151
9.5266403e-05
0.0034772247
0.00010286984
0.0038295773
0.00011125072
0.0042164997
0.00012052923
0.0046423382
0.00013083491
0.0051114945
0.00014230771
0.0056276404
0.00015508034
0.0061962316
0.0001692754
0.0068221731
0.00018498629
0.0075114005
0.00020224129
0.008269973
0.00022098182
0.0091055762
0.00024102747
0.010025104
0.00026213233
0.011037866
0.00028380373
0.012157119
0.00029305342
0.013349181
0.0002929941
0.014523833
0.00029168583
0.015756
0.00029067629
0.017086935
0.0002896576
0.018529805
0.00028833951
0.02009443
0.00028640167
0.021791369
0.0002836154
0.02363265
0.00027985641
0.025628674
0.00027504158
0.027792476
0.00026901219
0.030136082
0.00026152629
0.032673967
0.00025269305
0.035422415
0.00024293959
0.038398772
0.00023233231
0.041623742
0.00022033765
0.045121088
0.00020638799
0.048912047
0.0001902873
0.053018617
0.00017181957
0.057461921
0.00015050919
0.062267208
0.0001263413
0.067468648
9.9149838e-05
0.073101233
6.8741396e-05
0.07919868
3.4880955e-05
0.085793641
-2.9403205e-06
0.092924024
-4.4919461e-05
0.1006331
-9.2562683e-05
0.10897112
-0.00014635395
0.1179913
-0.00020689159
0.12774969
0.1382973
1.053676e-07
8.873482e-06
4.433184e-07
2.9687899e-05
1.0534157e-06
5.5886544e-05
1.9715293e-06
8.8175387e-05
3.2146685e-06
0.00012663696
4.7746975e-06
0.00016987042
6.6311362e-06
0.00021555228
8.7763872e-06
0.00026277916
1.1210111e-05
0.00031165599
1.3932422e-05
0.00036279274
1.6948808e-05
0.00041733681
2.0256051e-05
0.00047577819
2.38531e-05
0.0005385432
2.7732811e-05
0.00060652197
3.1890397e-05
0.00068044071
3.6320697e-05
0.00076109397
4.1021277e-05
0.00084933791
4.5987455e-05
0.00094583672
5.121824e-05
0.0010509332
5.6717845e-05
0.0011660391
6.2496938e-05
0.0012925093
6.8568153e-05
0.0014307659
7.4949287e-05
0.0015823478
8.1662693e-05
0.0017487764
8.8735487e-05
0.0019309366
9.6201204e-05
0.0021311062
0.00010410765
0.0023505479
0.00011250537
0.002591525
0.00012145599
0.0028562916
0.00013102943
0.0031472264
0.00014131076
0.0034669269
0.00015239667
0.0038184736
0.00016440243
0.0042044747
0.00017745072
0.0046292691
0.00019168645
0.0050972363
0.00020724992
0.0056120525
0.00022429985
0.0061791553
0.0002429816
0.0068034629
0.00026341445
0.0074909368
0.00028567702
0.008247677
0.00030978586
0.009081431
0.00033566794
0.0099991828
0.000363274
0.011010219
0.00039286043
0.012127486
0.00041249827
0.013329488
0.00042058757
0.014515679
0.00042580539
0.015750709
0.00043027971
0.01708238
0.00043404708
0.018525952
0.00043691257
0.020091474
0.00043903552
0.021789157
0.00044045609
0.023631153
0.00044112387
0.02562794
0.00044095492
0.027792564
0.00043990611
0.030137001
0.00043790062
0.03267578
0.00043445764
0.035425671
0.00042886969
0.03840421
0.00042098094
0.041631546
0.0004110863
0.045130895
0.00039939804
0.048923592
0.0003857722
0.05303204
0.0003700868
0.057477363
0.00035192141
0.062285119
0.0003309064
0.06748945
0.00030660028
0.073125345
0.00027872742
0.07922626
0.00024725453
0.085824736
0.00021175846
0.092959228
0.00017131399
0.1006733
0.00012544549
0.1090166
7.3299327e-05
0.11804297
1.3991689e-05
0.12780863
-5.2393352e-05
0.13836323
-0.00012689639
0.14975382
-0.0002109183
0.16203265
0.17528469
6.2120375e-08
8.8103151e-06
2.7539848e-07
2.9473433e-05
6.7984487e-07
5.5480775e-05
1.3158852e-06
8.7537794e-05
2.2124918e-06
0.00012573862
3.3750355e-06
0.00016870589
4.8003848e-06
0.00021412475
6.4929383e-06
0.00026108417
8.4674714e-06
0.0003096788
1.0740728e-05
0.00036051657
1.3332146e-05
0.00041474224
1.6261482e-05
0.00047284542
1.9541231e-05
0.00053525973
2.3181627e-05
0.00060287754
2.7191723e-05
0.00067642624
3.1574448e-05
0.0007567065
3.6330365e-05
0.00084457686
4.1455083e-05
0.00094070643
4.6940419e-05
0.0010454418
5.2781718e-05
0.0011601912
5.897707e-05
0.0012863069
6.5525646e-05
0.0014242096
7.2437959e-05
0.0015754272
7.9729086e-05
0.0017414763
8.7421905e-05
0.001923234
9.5548535e-05
0.002122969
0.00010414378
0.0023419412
0.00011325695
0.0025823995
0.00012294563
0.0028465895
0.00013328337
0.0031368742
0.00014435165
0.003455843
0.00015625032
0.003806558
0.00016908375
0.0041916231
0.00018297872
0.0046153544
0.00019807057
0.0050821232
0.0002145079
0.0055955923
0.00023243548
0.0061612031
0.00025199273
0.0067838791
0.00027330745
0.0074695935
0.00029646449
0.0082244892
0.00032147974
0.0090563827
0.00034824408
0.0099723829
0.00037650479
0.01098192
0.0004061677
0.012097782
0.0004260647
0.013309544
0.00043312962
0.014508557
0.00043828454
0.015745489
0.0004430927
0.017077503
0.00044845123
0.018520524
0.00045348941
0.020086369
0.00045793386
0.021784654
0.00046161355
0.023627431
0.00046445331
0.025625077
0.00046642492
0.027790568
0.0004674148
0.030135961
0.0004672668
0.032675841
0.00046612885
0.035426717
0.00046421204
0.03840598
0.00046125865
0.041634314
0.00045661643
0.045135311
0.00044980599
0.04893013
0.00044071831
0.053040816
0.00042902098
0.057488749
0.0004143885
0.062299484
0.00039657318
0.067507056
0.00037535037
0.073146346
0.00035053193
0.079250732
0.00032196225
0.085852908
0.00028928121
0.092991616
0.00025158991
0.1007107
0.00020833459
0.10905943
0.0001588224
0.11809204
0.00010227763
0.1278648
3.7620855e-05
0.13842735
-3.4899477e-05
0.14982565
-0.0001166382
0.16211399
-0.00020983422
0.17537722
-0.00031544351
0.18971515
0.20521168
3.1023141e-08
8.777581e-06
1.4506576e-07
2.9357618e-05
3.7088547e-07
5.5253062e-05
7.4026157e-07
8.7166441e-05
1.2791604e-06
0.00012519761
1.9936354e-06
0.00016798917
2.8827404e-06
0.00021323321
3.9547204e-06
0.0002600096
5.225809e-06
0.00030840493
6.7188511e-06
0.00035902055
8.458831e-06
0.00041299905
1.0471437e-05
0.00047082935
1.2781164e-05
0.00053294627
1.541155e-05
0.00060024311
1.8387636e-05
0.00067344577
2.1729419e-05
0.00075335998
2.5456613e-05
0.00084084453
2.9582438e-05
0.00093657503
3.4115167e-05
0.001040903
3.9056889e-05
0.0011552429
4.4409026e-05
0.0012809476
5.0170057e-05
0.0014184409
5.6334284e-05
0.0015692547
6.2908269e-05
0.0017348933
6.9898063e-05
0.0019162345
7.7326282e-05
0.0021155303
8.5219094e-05
0.002334037
9.3618222e-05
0.0025739881
0.00010258152
0.002837613
0.0001121788
0.0031272627
0.00012249719
0.0034455092
0.00013363469
0.0037954038
0.00014570548
0.0041795343
0.00015883841
0.0046022021
0.00017317526
0.0050677654
0.00018887355
0.0055798715
0.00020609363
0.0061439588
0.00022499269
0.006764954
0.00024571879
0.0074488395
0.00026841096
0.0082017671
0.00029313887
0.0090316226
0.00031985306
0.0099456342
0.00034832306
0.010953413
0.00037825468
0.012067811
0.00039951927
0.013288234
0.00040449325
0.014503529
0.00040707331
0.015742844
0.00040953726
0.017074971
0.00041273014
0.018517264
0.00041653864
0.020082495
0.00042072604
0.021780403
0.00042499549
0.023623103
0.00042908924
0.02562093
0.00043281445
0.027786778
0.00043606653
0.030132601
0.00043860037
0.032673132
0.00043986659
0.035425332
0.00043930786
0.038406435
0.0004370866
0.041636482
0.00043342861
0.045138896
0.00042834072
0.048935068
0.00042154782
0.053047391
0.00041282874
0.057497222
0.00040171032
0.062310377
0.00038754665
0.067521033
0.00036980824
0.073163858
0.00034826976
0.079271923
0.00032285236
0.085877968
0.00029301853
0.093021202
0.0002581317
0.1007453
0.00021773298
0.1090994
0.00017097738
0.11813839
0.00011703526
0.12791837
5.5079205e-05
0.13848872
-1.5169438e-05
0.14989525
-9.4394852e-05
0.16219282
-0.00018520759
0.17546728
-0.00028830691
0.18981748
-0.00040534322
0.20532845
-0.00053742826
0.22206342
0.24010342
2.8635733e-08
8.7477665e-06
1.3052767e-07
2.9254438e-05
3.2866416e-07
5.5053512e-05
6.4894858e-07
8.6844572e-05
1.1084878e-06
0.00012473632
1.7088968e-06
0.00016738681
2.441727e-06
0.00021249824
3.3085486e-06
0.00025914043
4.3220379e-06
0.00030738889
5.5000603e-06
0.00035783975
6.8650154e-06
0.00041163108
8.4419888e-06
0.00046924911
1.025601e-05
0.0005311287
1.2337331e-05
0.00059815794
1.4712249e-05
0.00067106669
1.7409681e-05
0.00075065803
2.0457774e-05
0.00083779153
2.3880899e-05
0.0009331466
2.7700277e-05
0.0010370779
3.1937477e-05
0.0011509995
3.6607066e-05
0.0012762713
4.1716263e-05
0.0014133244
4.7271698e-05
0.0015636913
5.3275336e-05
0.0017288811
5.9726818e-05
0.0019097738
6.6638377e-05
0.0021086087
7.4026508e-05
0.002326638
8.191848e-05
0.0025660843
9.0357552e-05
0.0028291612
9.9398051e-05
0.0031182084
0.00010911328
0.0034357791
0.000119597
0.0037849042
0.00013095834
0.0041681558
0.00014333005
0.004589812
0.0001568617
0.005054214
0.00017171067
0.0055650013
0.00018805606
0.0061275907
0.00020607813
0.0067469077
0.00022595517
0.0074289365
0.00024784882
0.0081798457
0.00027189781
0.0090075439
0.00029817043
0.0099193301
0.0003265877
0.010924963
0.00035710428
0.01203726
0.00038213927
0.01326316
0.00038857536
0.014497048
0.00039053424
0.015740839
0.00039187857
0.017073575
0.00039300917
0.018516087
0.00039439322
0.020081071
0.00039610543
0.021778656
0.00039817571
0.023621002
0.00040052702
0.025618553
0.00040299836
0.027784277
0.00040535591
0.030130191
0.00040754192
0.032670835
0.00040971116
0.035423028
0.00041170228
0.03840424
0.00041282099
0.041635117
0.00041233662
0.045139132
0.00041003372
0.048937092
0.00040591888
0.053051202
0.00039954684
0.057503315
0.00039056876
0.062319135
0.00037869892
0.067532712
0.0003635082
0.073178786
0.00034468858
0.079290363
0.0003218878
0.085900415
0.00029466303
0.093048163
0.00026246506
0.10077715
0.00022467604
0.10913675
0.00018061982
0.11818206
0.00012950085
0.12796906
7.0467687e-05
0.13854709
2.8713615e-06
0.14996222
-7.3532147e-05
0.16226877
-0.00016151091
0.17555444
-0.00026186736
0.18991724
-0.00037625988
0.2054426
-0.00050547982
0.22219187
-0.00065148095
0.24024897
0.25974328
2.7112235e-08
8.7190778e-06
1.238382e-07
2.915607e-05
3.1072298e-07
5.4864867e-05
6.0965751e-07
8.6543785e-05
1.0362836e-06
0.0001243077
1.5870256e-06
0.00016683393
2.2540384e-06
0.00021182892
3.0353502e-06
0.00025835664
3.9384575e-06
0.00030648311
4.9764092e-06
0.00035679893
6.1676205e-06
0.00041043676
7.5335883e-06
0.00046787978
9.0967046e-06
0.00052956194
1.0880994e-05
0.0005963697
1.291294e-05
0.00066903045
1.5221743e-05
0.00074834455
1.7836197e-05
0.000835172
2.0786119e-05
0.00093019114
2.4096239e-05
0.0010337618
2.7794418e-05
0.0011472948
3.1908582e-05
0.00127215
3.6461442e-05
0.0014087638
4.1473555e-05
0.0015586708
4.6958953e-05
0.0017233866
5.2931521e-05
0.0019037914
5.9400572e-05
0.002102129
6.638124e-05
0.0023196459
7.3895087e-05
0.0025585582
8.197372e-05
0.0028210692
9.0666632e-05
0.0031095011
0.00010003734
0.0034263929
0.00011016177
0.0037747631
0.00012113573
0.0041571639
0.00013306591
0.0045778625
0.00014608914
0.00504117
0.00016035819
0.00555071
0.00017604737
0.0061118777
0.00019334647
0.0067295832
0.00021244292
0.0074098131
0.00023352027
0.0081587396
0.00025675392
0.0089842796
0.00028227012
0.0098937815
0.00031010431
0.010897096
0.00034034501
0.012006985
0.00036804429
0.013235422
0.00037735754
0.014487691
0.00038063589
0.015737499
0.0003828842
0.017071274
0.00038431968
0.018514604
0.0003857123
0.020079639
0.00038709101
0.02177724
0.00038846126
0.023619589
0.00038986384
0.025617103
0.00039140164
0.027782683
0.0003931139
0.030128403
0.00039470211
0.032669152
0.00039548493
0.035422112
0.00039521248
0.038404417
0.00039436146
0.041635902
0.00039314139
0.045140243
0.00039130707
0.048938734
0.00038841852
0.053053844
0.0003842135
0.057507272
0.00037805651
0.062325082
0.00036913392
0.067541437
0.00035693882
0.073190703
0.00034117081
0.079305768
0.00032155457
0.085919719
0.00029740455
0.093072062
0.00026813868
0.10080607
0.00023326811
0.10917123
0.00019194051
0.11822305
0.00014341738
0.12801714
8.7128126e-05
0.13860274
2.24119e-05
0.15002639
-5.1795458e-05
0.16234248
-0.00013717234
0.17563902
-0.00023494893
0.19001462
-0.0003467459
0.20555415
-0.00047310814
0.22231747
-0.00061634698
0.24039188
-0.00077943099
0.25990582
-0.000962795
0.28095656
0.30361584
2.6103888e-08
8.691834e-06
1.1748877e-07
2.9063451e-05
2.9303227e-07
5.4687973e-05
5.7262609e-07
8.6262688e-05
9.6943695e-07
0.00012390924
1.4815497e-06
0.00016631997
2.0983776e-06
0.00021121006
2.8161697e-06
0.00025763661
3.641196e-06
0.00030565564
4.5829343e-06
0.00035585452
5.6588303e-06
0.00040935797
6.8842617e-06
0.00046665119
8.2785328e-06
0.00052816423
9.865367e-06
0.00059477913
1.1667879e-05
0.00066722387
1.3713875e-05
0.00074629414
1.6031366e-05
0.00083284971
1.8651373e-05
0.00092756592
2.1602963e-05
0.0010308045
2.4917954e-05
0.0011439736
2.8627292e-05
0.001268434
3.2762331e-05
0.0014046215
3.7350493e-05
0.0015540748
4.2421798e-05
0.0017183068
4.7997246e-05
0.0018982066
5.4097351e-05
0.0020960188
6.0735439e-05
0.0023129969
6.7932642e-05
0.0025513491
7.5711308e-05
0.0028132777
8.4104026e-05
0.0031010945
9.3156981e-05
0.0034173249
0.00010293532
0.0037649685
0.00011352458
0.0041465572
0.00012503609
0.0045663322
0.00013759873
0.0050285873
0.00015136377
0.0055369235
0.00016649934
0.0060967192
0.0001831878
0.0067128703
0.0002016298
0.0073913452
0.00022202146
0.0081383207
0.00024455019
0.0089617222
0.0002693843
0.0098689175
0.00029660234
0.010869848
0.00032634688
0.01197721
0.00035566924
0.013206069
0.00036681941
0.014476507
0.00037071978
0.015733563
0.00037368484
0.017068271
0.00037593307
0.018512326
0.00037754371
0.020078008
0.00037868413
0.02177608
0.00037961809
0.023618626
0.00038049075
0.025616186
0.00038130006
0.027781815
0.00038212173
0.030127505
0.00038320175
0.032667974
0.00038482128
0.035420256
0.00038673987
0.038402171
0.00038778445
0.041634591
0.00038740378
0.045140348
0.00038568442
0.048940178
0.00038273265
0.053056519
0.00037832017
0.057511451
0.00037225227
0.062330961
0.00036410889
0.067549374
0.00035323767
0.07320127
0.0003391468
0.079319495
0.00032130725
0.085937264
0.00029915844
0.093093934
0.00027216434
0.10083267
0.00023961467
0.10920339
0.00020081784
0.11826147
0.0001550694
0.12806235
0.00010168284
0.13865546
4.0016952e-05
0.1500875
-3.1487889e-05
0.16241339
-0.00011377877
0.17572055
-0.0002087026
0.1901093
-0.00031765939
0.2056628
-0.00044104341
0.22244013
-0.00058135648
0.24053196
-0.00074136648
0.26006517
-0.00092121065
0.28113506
-0.0011211811
0.30381469
0.32824621
2.4953321e-08
8.6653163e-06
1.1334111e-07
2.8973459e-05
2.8281731e-07
5.4516789e-05
5.520387e-07
8.5991705e-05
9.3281324e-07
0.00012352658
1.4225466e-06
0.00016582824
2.0106398e-06
0.00021061982
2.6932179e-06
0.00025695174
3.4731526e-06
0.00030487324
4.3605746e-06
0.00035496446
5.3659891e-06
0.00040834969
6.5070117e-06
0.00046550707
7.798979e-06
0.00052686891
9.2622911e-06
0.00059331217
1.0918466e-05
0.00066556373
1.2791423e-05
0.00074441686
1.4910092e-05
0.00083072633
1.7301429e-05
0.00092516944
1.9996574e-05
0.0010281038
2.3026041e-05
0.001140938
2.6424221e-05
0.0012650291
3.0222049e-05
0.0014008163
3.4454669e-05
0.0015498341
3.9153773e-05
0.0017135989
4.435188e-05
0.001892999
5.0078216e-05
0.0020902821
5.6363948e-05
0.0023066999
6.3231515e-05
0.0025444693
7.0706752e-05
0.0028057892
7.8821056e-05
0.0030929658
8.7614855e-05
0.0034085156
9.7144079e-05
0.0037554225
0.00010747738
0.0041362057
0.000118711
0.004555079
0.00013096027
0.0050163169
0.00014436181
0.0055234992
0.00015907827
0.0060819784
0.00017529393
0.0066966286
0.00019321531
0.0073733961
0.00021304735
0.0081184592
0.00023499469
0.0089397438
0.00025924409
0.0098446355
0.00028594625
0.010843112
0.00031535828
0.011947764
0.00034612975
0.013175262
0.00035932585
0.014463275
0.00036356211
0.015729289
0.00036688849
0.017064907
0.00037011108
0.018509074
0.00037302902
0.020075071
0.00037547111
0.02177362
0.00037723968
0.023616827
0.00037838192
0.025614998
0.0003791107
0.027781038
0.00037959337
0.030126989
0.0003794959
0.032668044
0.00037853633
0.035421203
0.0003770907
0.038403607
0.00037574202
0.04163587
0.00037459475
0.045141311
0.00037331235
0.048941206
0.00037147139
0.053058081
0.00036866445
0.057514001
0.00036423389
0.062335173
0.00035766193
0.067555714
0.00034863438
0.07320999
0.00033675767
0.079331037
0.00032153069
0.085952218
0.00030219396
0.093112976
0.00027798455
0.1008565
0.00024815593
0.10923288
0.00021192666
0.11829734
0.00016869433
0.12810505
0.00011791991
0.13870563
5.8846145e-05
0.15014607
-1.0236893e-05
0.16248184
-8.9657373e-05
0.17579934
-0.00018194171
0.19020148
-0.00028802727
0.20576851
-0.0004083264
0.22255979
-0.00054574774
0.24066921
-0.00070279067
0.26022146
-0.00087960761
0.28131056
-0.0010770634
0.30401122
-0.001299027
0.32846753
0.35488827
2.49929e-08
8.6393642e-06
1.1152151e-07
2.8885884e-05
2.7619875e-07
5.4350963e-05
5.3663993e-07
8.5729968e-05
9.0430841e-07
0.00012315747
1.3769914e-06
0.00016535394
1.9424679e-06
0.00021005255
2.5982838e-06
0.00025629395
3.346157e-06
0.0003041232
4.1935314e-06
0.00035411472
5.1517043e-06
0.00040738894
6.2333811e-06
0.00046442259
7.4549141e-06
0.00052564431
8.8303923e-06
0.00059193335
1.0382261e-05
0.00066400821
1.2133467e-05
0.00074266167
1.4106307e-05
0.00082874913
1.6329929e-05
0.00092294106
1.8830853e-05
0.0010255976
2.1639434e-05
0.0011381238
2.4792603e-05
0.0012618698
2.8320613e-05
0.0013972816
3.2259065e-05
0.0015458884
3.6646177e-05
0.0017092038
4.1515637e-05
0.0018881209
4.6906613e-05
0.0020848817
5.28528e-05
0.0023007434
5.9390116e-05
0.0025379207
6.6557598e-05
0.0027986094
7.4392804e-05
0.0030851172
8.2936491e-05
0.0033999573
9.2239643e-05
0.0037461035
0.00010236219
0.004126066
0.00011338367
0.0045440389
0.00012540457
0.0050042759
0.00013854533
0.0055103368
0.00015295584
0.0060675447
0.00016881067
0.0066807489
0.00018630907
0.0073558712
0.00020567036
0.0080990699
0.00022712294
0.0089182616
0.00025088797
0.0098208396
0.00027717388
0.010816795
0.00030634169
0.011918565
0.00033816773
0.013143405
0.0003535535
0.01444786
0.00035770848
0.015725105
0.00036076033
0.017061826
0.00036388713
0.018505926
0.00036694311
0.020072003
0.00036988981
0.021770659
0.00037257924
0.023614104
0.0003748166
0.025612699
0.00037655858
0.027779218
0.00037792067
0.030125549
0.0003793558
0.03266645
0.00038108905
0.035419213
0.00038249024
0.038401984
0.0003824808
0.041635603
0.00038102551
0.045142515
0.00037853544
0.048943459
0.0003752094
0.053061183
0.00037093268
0.057518085
0.00036552539
0.062340397
0.00035861502
0.067562392
0.00034969954
0.073218602
0.00033832048
0.079342113
0.00032388085
0.085966409
0.00030570357
0.093130852
0.00028317395
0.10087866
0.00025528046
0.10926045
0.00022132545
0.11833089
0.00018064774
0.12814515
0.00013256681
0.13875311
7.6355319e-05
0.15020173
1.0273129e-05
0.16254723
-6.6218538e-05
0.17587531
-0.00015559458
0.19029081
-0.00025870901
0.20587118
-0.00037595944
0.22267652
-0.00051034713
0.24080344
-0.00066411974
0.26037439
-0.00083720307
0.28148241
-0.0010308357
0.30420416
-0.0012486811
0.32868468
-0.0014927186
0.35513146
-0.001765275
0.38374014
0.41457321
2.4013797e-08
8.6138812e-06
1.0819996e-07
2.8800213e-05
2.6888513e-07
5.4188708e-05
5.2294523e-07
8.5474319e-05
8.8097949e-07
0.00012279775
1.3393756e-06
0.00016489379
1.8896363e-06
0.0002095004
2.5261465e-06
0.00025565544
3.2504465e-06
0.00030339676
4.0696597e-06
0.00035329323
4.9935748e-06
0.00040646256
6.0336009e-06
0.0004633799
7.2029671e-06
0.00052447205
8.5185856e-06
0.00059061459
9.9975412e-06
0.00066252584
1.1660462e-05
0.00074099502
1.352965e-05
0.00082687588
1.5631761e-05
0.00092083449
1.7992541e-05
0.001023232