/*--------------------------------*- C++ -*----------------------------------*\
| =========                 |                                                 |
| \\      /  F ield         | OpenFOAM: The Open Source CFD Toolbox           |
|  \\    /   O peration     | Version:  2506                                  |
|   \\  /    A nd           | Website:  www.openfoam.com                      |
|    \\/     M anipulation  |                                                 |
\*---------------------------------------------------------------------------*/
FoamFile
{
    version     2.0;
    format      ascii;
    arch        "LSB;label=32;scalar=64";
    class       volScalarField;
    location    "1.95";
    object      k;
}
// * * * * * * * * * * * * * * * * * * * * * * * * * * * * * * * * * * * * * //

dimensions      [0 2 -2 0 0 0 0];

internalField   nonuniform List<scalar> 
1376
(
3.1860121
3.4947522
3.8279487
4.0845687
4.3057696
4.5132401
4.6994902
3.1307058
3.4451802
3.7796161
4.0390396
4.2630085
4.4705664
4.6543076
4.803878
4.9146521
4.9874519
5.02666
5.0398345
5.0364695
5.0117138
4.9789878
4.9429821
4.9078593
4.8766913
4.8512843
3.0804545
3.4020952
3.7390872
4.0016533
4.2278839
4.4348108
4.6153782
4.7604502
4.8664489
4.9348985
4.9707338
4.9820866
4.9764937
4.9515647
4.9195559
4.8850978
4.8521015
4.8233408
4.800337
4.7835282
4.772689
4.7672182
4.7656679
4.7660578
4.7689063
4.7738272
4.7803408
3.0353834
3.3631009
3.7030374
3.9687886
4.1969051
4.4028612
4.5800526
4.7204818
4.8215435
4.8854647
4.9177547
4.9271238
4.9189126
4.8937047
4.8623144
4.8293147
4.7983373
4.7718372
4.7510611
4.7363071
4.7273353
4.7233971
4.7226069
4.7237373
4.727387
4.7329254
4.7399513
4.7482687
4.7577668
4.7684393
4.7803642
4.7936534
4.8084523
4.8249871
2.994858
3.3257664
3.6682953
3.9370472
4.1667529
4.3716039
4.5454839
4.6814482
4.7777982
4.8374282
4.8663638
4.8738295
4.8631499
4.8377332
4.8070064
4.7754517
4.7464173
4.7220462
4.7033405
4.6904901
4.6832168
4.6805572
4.6802887
4.6822093
4.6865511
4.6926293
4.7001152
4.7088358
4.7187033
4.7297377
4.7420238
4.7556751
4.7708331
4.7877206
4.8066158
4.8278404
4.8517677
4.8788749
2.9572109
3.2882385
3.6327508
3.9042612
4.1353304
4.3390332
4.509773
4.6415997
4.7336607
4.789456
4.8154341
4.8212432
4.8085815
4.783155
4.753239
4.7231756
4.696046
4.6737076
4.6569556
4.645904
4.640189
4.6384867
4.6386966
4.6414045
4.6463413
4.6529066
4.6608208
4.6699235
4.6801469
4.6915248
4.7041505
4.7181375
4.7336282
4.75084
4.7700555
4.7915941
4.8158214
4.8432215
4.874424
4.9102616
4.9518114
5.0004351
2.9206366
3.2497984
3.5957694
3.8698382
4.1021255
4.3046786
4.4724537
4.600464
4.6886579
4.7410798
4.7645211
4.7689697
4.7548791
4.7296734
4.7007227
4.6722016
4.6469419
4.6265556
4.6116797
4.6023549
4.5980403
4.5970257
4.5978236
4.6012578
4.6067278
4.6137426
4.6220585
4.6315251
4.642088
4.6537914
4.6667324
4.6810254
4.6968196
4.714328
4.7338345
4.7556599
4.7801667
4.8078286
4.8392907
4.8753699
4.9171158
4.9658737
5.0234589
5.0925002
2.8843589
3.2113987
3.5584968
3.8349313
4.0683174
4.2696875
4.4345628
4.5589084
4.6434491
4.6927369
4.7138706
4.7171376
4.7019789
4.6771672
4.649301
4.6223579
4.5989353
4.5804347
4.5673727
4.559698
4.5566215
4.5561324
4.5576322
4.561729
4.5676914
4.5751275
4.583818
4.5936244
4.6045026
4.6165057
4.6297344
4.6443069
4.6603755
4.6781571
4.6979295
4.7200115
4.7447717
4.7726844
4.8043904
4.8406897
4.882611
4.9314832
4.9891121
5.0580815
5.1420473
5.2462776
2.848776
3.1750031
3.5230681
3.8015859
4.0358622
4.2358934
4.3977506
4.5183415
4.5991628
4.6452657
4.6640577
4.6661582
4.6500236
4.6256541
4.5989181
4.5735611
4.5519441
4.5352822
4.5239875
4.5178832
4.5158661
4.5157989
4.5181056
4.522801
4.529217
4.5370419
4.5460775
4.5561973
4.5673667
4.5796417
4.5931304
4.6079569
4.62428
4.6423146
4.6623278
4.6846417
4.7096356
4.737786
4.769715
4.8062078
4.8482811
4.8972536
4.9549059
5.0237759
5.1074632
5.2110823
5.3431553
5.5356978
2.8148047
3.1423218
3.491284
3.7714523
4.0062186
4.2045816
4.3631433
4.4797311
4.5565933
4.59927
4.6155157
4.6164113
4.5991949
4.5752304
4.5496085
4.5258069
4.5059463
4.4910762
4.4815093
4.4768695
4.4756406
4.4761262
4.4792312
4.4844704
4.4913061
4.4994846
4.5088306
4.5192295
4.5306575
4.5431791
4.5569072
4.5719683
4.5885232
4.6067844
4.6270199
4.6495495
4.6747599
4.7031278
4.7352564
4.7719211
4.8141252
4.8631739
4.9208263
4.9895705
5.072955
5.1759349
5.3068104
5.4980667
6.0713359
2.7828314
3.113463
3.4633403
3.7446855
3.9794235
4.1757138
4.3306882
4.4430444
4.5157385
4.5547997
4.5684282
4.5678753
4.5495866
4.5259699
4.5014261
4.4791347
4.4609774
4.44785
4.4399371
4.4365845
4.4359365
4.437135
4.4409789
4.4467168
4.4539388
4.4624357
4.4720568
4.4827062
4.4943707
4.5071163
4.5210597
4.5363334
4.5531005
4.5715712
4.592013
4.6147475
4.6401576
4.6687185
4.7010223
4.7378322
4.7801395
4.8292405
4.8868636
4.9554548
5.0385154
5.140825
5.2704697
5.4604179
6.0399116
2.7524095
3.087174
3.4380878
3.7202345
3.9544498
4.1482958
4.2994672
4.4074783
4.4759328
4.5113811
4.5227981
4.5202411
4.5011813
4.4779154
4.4544238
4.4335874
4.4170633
4.4056009
4.3992244
4.3969845
4.3967748
4.3988002
4.4033026
4.4095036
4.417083
4.4258681
4.435735
4.4466099
4.4584914
4.4714452
4.4855881
4.5010613
4.5180261
4.5366944
4.5573277
4.5802517
4.6058442
4.6345731
4.6670213
4.7039449
4.746328
4.7954524
4.8530159
4.921429
5.0041376
5.1057479
5.2341292
5.4227299
6.0081573
2.7224463
3.0614498
3.4136278
3.6964178
3.9298093
4.1210084
4.2683216
4.3720456
4.4364066
4.468526
4.4781027
4.4733819
4.4539029
4.4310666
4.4086235
4.3891861
4.3742189
4.3643375
4.3593601
4.3579361
4.3582054
4.3610717
4.366164
4.372795
4.380707
4.3897609
4.3998581
4.4109418
4.4230237
4.4361779
4.4505153
4.4661783
4.4833298
4.5021772
4.5229927
4.5460856
4.5718311
4.6006996
4.6332659
4.6702757
4.7126992
4.7618107
4.8192799
4.8874915
4.9698214
5.0706978
5.1977879
5.384996
5.9759452
2.6918845
3.0345128
3.3882044
3.6716896
3.9042031
4.092779
4.2363737
4.3360498
4.3966573
4.425874
4.4339161
4.4272685
4.4076864
4.3854058
4.3640279
4.3459411
4.3324559
4.3240527
4.3202799
4.3194253
4.3203091
4.3239418
4.3295602
4.3365922
4.3448191
4.3541182
4.3644238
4.375709
4.3879868
4.4013308
4.415853
4.4316933
4.4490189
4.4680409
4.4890175
4.5122572
4.5381377
4.5671135
4.599764
4.6368241
4.6792574
4.7283185
4.7856608
4.8536503
4.9355698
5.0356789
5.1614593
5.3472194
5.9432918
2.6603291
3.0055944
3.3609356
3.6452657
3.8770269
4.0631814
4.2033427
4.2993222
4.3565904
4.3833239
4.3900827
4.3819119
4.3624737
4.3408824
4.3206022
4.3038368
4.291768
4.284718
4.2819466
4.2815133
4.2831032
4.2874009
4.2934831
4.3008811
4.3094003
4.3189352
4.3294421
4.340912
4.3533745
4.3669015
4.3815989
4.3976051
4.4150896
4.4342691
4.4553952
4.4787746
4.5047672
4.5338226
4.5665202
4.6035973
4.6460114
4.6949892
4.7521742
4.8199093
4.9013855
5.0007007
5.1251501
5.3094153
5.9103779
2.6281516
2.9750465
3.3319942
3.6172681
3.8484378
4.0324262
4.1694788
4.2621227
4.3164246
4.3409953
4.3466536
4.3373182
4.3181856
4.2973904
4.278248
4.262798
4.2520948
4.2462818
4.2443451
4.2442456
4.2465867
4.2514461
4.2579348
4.2656605
4.2744455
4.2842022
4.2948994
4.3065455
4.3191818
4.3328768
4.3477354
4.3638946
4.3815287
4.4008534
4.4221154
4.4456102
4.4716909
4.5008108
4.5335368
4.5706064
4.6129641
4.6618268
4.7188296
4.7862783
4.8672764
4.9657705
5.0888691
5.2716186
5.8774439
2.5962922
2.9440377
3.3023408
3.5884735
3.8190973
4.0010927
4.1352887
4.2248794
4.2764841
4.2990952
4.3037663
4.2934958
4.2747523
4.2548183
4.2368483
4.2227236
4.2133589
4.2086854
4.20737
4.2076747
4.210736
4.2160693
4.222908
4.2309223
4.2399486
4.2499086
4.2607819
4.2725916
4.2853852
4.299234
4.3142406
4.3305392
4.3483069
4.3677545
4.3891296
4.4127269
4.4388917
4.4680606
4.5008006
4.5378433
4.5801194
4.6288444
4.6856365
4.7527697
4.8332532
4.9308902
5.0526264
5.2338645
5.8447593
2.5659879
2.9142131
3.2734339
3.5600806
3.7899724
3.9699427
4.1013539
4.1880153
4.2370503
4.2577927
4.2615311
4.2504401
4.2321167
4.2130764
4.1963045
4.1835205
4.1754697
4.17182
4.1709669
4.171799
4.1755012
4.1812352
4.1883756
4.1966425
4.2058855
4.2160315
4.2270672
4.2390248
4.2519587
4.2659442
4.281082
4.297506
4.3153923
4.3349458
4.3564146
4.3800944
4.4063317
4.43555
4.4683018
4.505305
4.5474832
4.5960475
4.652607
4.7193928
4.7993221
4.8960653
5.0164258
5.1961855
5.812617
2.5382528
2.8868966
3.2464783
3.5331065
3.7618883
3.9396081
4.0681247
4.1518242
4.1982929
4.2171746
4.2199967
4.2081351
4.1902366
4.1721019
4.1565426
4.1451056
4.1383241
4.1355807
4.1351033
4.1365713
4.1408292
4.1469053
4.154307
4.1627943
4.1722292
4.1825456
4.193733
4.2058252
4.2188816
4.2329833
4.2482338
4.2647669
4.282755
4.3024013
4.3239527
4.3477016
4.3739963
4.4032569
4.4360188
4.4729776
4.5150522
4.5634442
4.6197466
4.6861525
4.765492
4.8612985
4.9802622
5.1586138
5.781198
2.5134452
2.8624923
3.2218764
3.5079374
3.7351864
3.9103574
4.0357846
4.116411
4.1602586
4.1772567
4.1791728
4.1665802
4.1491078
4.1318818
4.1175334
4.1074204
4.1018363
4.0999044
4.0997424
4.1019314
4.1066754
4.1130565
4.1206873
4.1293643
4.1389674
4.1494362
4.1607622
4.1729781
4.1861445
4.2003455
4.2156913
4.2323176
4.2503921
4.270117
4.2917361
4.3155377
4.3418733
4.3711628
4.4039306
4.4408523
4.482821
4.5310275
4.5870521
4.6530471
4.7317621
4.8266004
4.944141
5.1211706
5.7507029
2.4911656
2.8404679
3.1992011
3.4842833
3.7096762
3.8820623
4.0042421
4.0817078
4.1229005
4.1380155
4.1390536
4.1257969
4.1087613
4.0924441
4.0792899
4.0704605
4.065989
4.0646851
4.0649116
4.0678315
4.0730033
4.079664
4.0875083
4.0963614
4.1061152
4.1167167
4.1281616
4.1404824
4.1537432
4.1680307
4.1834572
4.2001616
4.2183089
4.2380977
4.259768
4.2836066
4.309966
4.3392676
4.3720287
4.4089074
4.4507721
4.4987902
4.5545239
4.6200829
4.698139
4.7919742
4.9080634
5.0838513
5.721251
2.4704765
2.8198563
3.1776632
3.4615434
3.6849054
3.8543858
3.9732572
4.0475572
4.0861264
4.0993999
4.0996475
4.0858219
4.0692472
4.0538379
4.0418487
4.0342354
4.0307418
4.0298959
4.0306537
4.0342419
4.0398034
4.0467321
4.0547744
4.0637822
4.073668
4.084388
4.0959387
4.1083512
4.1216909
4.1360483
4.1515414
4.1683093
4.1865159
4.2063538
4.2280588
4.2519178
4.2782831
4.3075768
4.3403121
4.3771338
4.4188877
4.4667171
4.5221522
4.5872529
4.6646271
4.7574278
4.872042
5.0466541
5.6929266
2.4502051
2.7996611
3.156469
3.4390992
3.6603971
3.8269691
3.9425725
4.0137816
4.0498216
4.0614701
4.0608721
4.0466748
4.0306005
4.0161026
4.0052412
3.9987493
3.9960815
3.9955888
3.9969827
4.0011525
4.0070669
4.0142498
4.0224839
4.0316397
4.0416422
4.0524585
4.0640926
4.0765809
4.0899903
4.1044102
4.1199588
4.1367762
4.1550254
4.1748943
4.1966167
4.2204772
4.2468296
4.2760964
4.3087849
4.3455307
4.3871598
4.4347878
4.4899151
4.5545543
4.6312243
4.7229554
4.836082
5.0095884
5.6658222
2.4292232
2.7790315
3.1349712
3.4164407
3.6357543
3.7995112
3.9119687
3.9802229
4.0138926
4.0242163
4.022677
4.0083387
3.9928167
3.9792393
3.9694627
3.9639846
3.9620177
3.9618168
3.9638998
3.9685645
3.9747962
3.982214
3.9906257
3.999917
4.0100249
4.0209256
4.0326298
4.0451779
4.0586401
4.0731106
4.0887058
4.1055633
4.123842
4.1437268
4.1654492
4.1892953
4.2156172
4.2448355
4.277454
4.3140999
4.3555829
4.4029914
4.4577972
4.5219683
4.5979214
4.6885628
4.8001949
4.9726761
5.6399458
2.4068294
2.7574008
3.1126988
3.3931518
3.6106048
3.7717129
3.8812197
3.946725
3.9782608
3.9875059
3.9850467
3.9707655
3.9558554
3.943211
3.9344805
3.9299268
3.9285207
3.9286186
3.9313932
3.9364741
3.9429865
3.9506154
3.9591872
3.9685988
3.9787979
3.98977
4.0015329
4.0141319
4.0276379
4.0421476
4.0577774
4.0746628
4.0929602
4.1128523
4.1345634
4.1583786
4.1846531
4.2138015
4.2463236
4.2828422
4.324154
4.3713222
4.4257909
4.4894851
4.5647181
4.6542497
4.7643888
4.9359647
5.6152342
3.5847067
3.7433464
3.8501319
3.9131465
3.9428268
3.9511931
3.9479496
3.9338913
3.9196593
3.9079643
3.9002459
3.8965225
3.8955297
3.896039
3.8994361
3.9048675
3.9116234
3.9194361
3.9281478
3.9376649
3.9479427
3.9589744
3.9707848
3.9834248
3.9969674
4.0115088
4.0271645
4.044068
4.0623738
4.0822625
4.1039553
4.1277326
4.1539432
4.1830005
4.2154018
4.2517636
4.292875
4.3397792
4.3938928
4.4570971
4.5316011
4.6200091
4.7286744
4.8995086
5.5915077
3.9113436
3.8976526
3.8841709
3.8734451
3.8667013
3.8637093
3.8630361
3.8640603
3.8679916
3.8737199
3.8806855
3.8886554
3.8974863
3.9070938
3.9174393
3.9285217
3.9403712
3.9530438
3.9666155
3.981182
3.9968569
4.0137718
4.0320778
4.0519538
4.0736199
4.0973517
4.1234877
4.1524373
4.1846931
4.2208704
4.2617524
4.3083674
4.3621061
4.424802
4.4985586
4.5858333
4.6930599
4.8633303
5.56847
3.8314362
3.8310372
3.8326484
3.8370269
3.8430076
3.8501518
3.8582539
3.8671848
3.8768689
3.887273
3.8984001
3.9102839
3.9229831
3.9365763
3.9511595
3.9668449
3.983762
4.0020603
4.0219167
4.0435483
4.0672263
4.0932794
4.1221073
4.1541982
4.190166
4.2307913
4.2770931
4.3304371
4.3926002
4.4655844
4.5517158
4.6575459
4.827394
5.54593
3.8127134
3.8200102
3.8282231
3.8372366
3.8469836
3.8574362
3.8686009
3.8805141
3.8932355
3.9068443
3.9214364
3.9371224
3.9540298
3.9723078
3.9921339
4.0137226
4.0373379
4.0632985
4.0919962
4.123912
4.1596526
4.1999978
4.245963
4.29889
4.3604941
4.4326773
4.5176512
4.622115
4.7916155
5.5234786
3.8174412
3.827932
3.8391252
3.851059
3.8637942
3.8774108
3.8920035
3.9076805
3.9245674
3.9428124
3.9625934
3.9841252
4.0076656
4.0335266
4.0620879
4.0938219
4.1293259
4.1693764
4.214983
4.2674664
4.3284838
4.399836
4.4836381
4.5867381
4.7558401
5.500829
3.8346606
3.8482729
3.8628535
3.8785096
3.8953644
3.9135645
3.9332865
3.9547455
3.9781974
4.0039489
4.0323678
4.0639151
4.0991777
4.1389239
4.1841555
4.2361718
4.2965749
4.3670689
4.4496836
4.5513836
4.7199308
5.4774116
3.8496055
3.8664143
3.8845561
3.9042059
3.9255775
3.9489271
3.9745564
4.0028244
4.0341811
4.069201
4.1086386
4.1534843
4.205012
4.264773
4.3343837
4.415791
4.5160387
4.6838074
5.4533133
3.8753504
3.8966224
3.9198555
3.9453479
3.9734539
4.004613
4.0393873
4.0785152
4.1229684
4.1739919
4.2330858
4.301787
4.3819598
4.4807074
4.6474672
5.4286605
3.8909891
3.9163307
3.9442608
3.9752101
4.0097313
4.0485449
4.0926
4.143109
4.2015191
4.2692894
4.348202
4.445403
4.6110141
5.4038374
3.9459786
3.9802354
4.0187254
4.0623736
4.1123594
4.1700744
4.2368974
4.3145283
4.4101615
4.5746262
5.3793232
3.989054
4.0322843
4.0817385
4.1387488
4.2046087
4.2809398
4.3750189
4.5384632
5.3554886
4.0512434
4.1075398
4.1724188
4.2474389
4.340007
4.5026397
5.3325917
4.0764407
4.1403237
4.2140295
4.3051441
4.4672054
5.310857
4.1807103
4.2704229
4.4321455
5.290415
4.2358269
4.3974063
5.2714646
5.2541011
3.2057806
)
;

boundaryField
{
    Side
    {
        type            empty;
    }
    Inlet
    {
        type            turbulentIntensityKineticEnergyInlet;
        intensity       0.03;
        value           nonuniform List<scalar> 
32
(
12.000874
12.000864
12.000845
12.000776
12.000636
12.00043
12.000194
12.000024
12.00005
12.000185
12.000386
12.000513
12.00068
12.000938
12.001144
12.001301
12.001468
12.001554
12.001556
12.001491
12.001394
12.001344
12.001155
12.00079
12.000571
12.000535
12.000588
12.000676
12.000768
12.000834
12.000896
12.001015
)
;
    }
    Airfoil
    {
        type            kqRWallFunction;
        value           nonuniform List<scalar> 0();
    }
    Outlet
    {
        type            inletOutlet;
        inletValue      nonuniform List<scalar> 0();
        value           nonuniform List<scalar> 0();
    }
    procBoundary11to3
    {
        type            processor;
        value           uniform 3.2695378;
    }
    procBoundary11to4
    {
        type            processor;
        value           nonuniform List<scalar> 
26
(
3.1430863
3.0835078
3.0309273
2.9880806
2.9538424
2.9241958
2.8949929
2.8637218
2.8297564
2.79392
2.7575449
2.7218426
2.6875881
2.6550161
2.6240538
2.594546
2.5663912
2.5396322
2.5145035
2.4912261
2.4696455
2.4490265
2.4282784
2.4064335
3.5383795
3.1430863
)
;
    }
    procBoundary11to10
    {
        type            processor;
        value           nonuniform List<scalar> 
58
(
3.2461287
3.5519841
3.8855945
4.1397977
4.3575311
4.5638166
4.7515191
4.8529578
4.8529578
4.967881
5.0444041
5.0864452
5.1010887
5.0991353
5.0742992
5.040639
5.0029422
4.9655732
4.9318574
4.903874
4.8322577
4.8322577
4.8194034
4.8121517
4.8094792
4.8092147
4.8111465
4.8153495
4.8212869
4.7882228
4.7882228
4.7973305
4.8076248
4.8191671
4.8320728
4.8464958
4.8626588
4.8435421
4.8435421
4.864432
4.8880236
4.9148146
4.9098037
4.9098037
4.9453879
4.9867189
5.0351836
5.0579625
5.0579625
5.1270464
5.176719
5.176719
5.2815354
5.3795098
5.3795098
5.5733244
6.1026401
6.1026401
)
;
    }
    procBoundary11to12
    {
        type            processor;
        value           nonuniform List<scalar> 
65
(
2.3829997
2.7346469
3.0894485
3.3689666
3.3689666
3.5579751
3.7142745
3.8185579
3.8793588
3.9074731
3.9151403
3.9151403
3.875189
3.8619952
3.8493376
3.8395992
3.8337845
3.8337845
3.7996743
3.799521
3.8017631
3.8065152
3.8065152
3.7828225
3.7902518
3.79856
3.8076429
3.8076429
3.7882435
3.7987646
3.8099778
3.8219224
3.8219224
3.8058348
3.8194307
3.8339851
3.8339851
3.8209668
3.8377157
3.855785
3.855785
3.8467248
3.8678849
3.8678849
3.862334
3.8875108
3.915251
3.915251
3.9169226
3.9509004
3.9509004
3.9595294
4.0023297
4.0023297
4.0208717
4.0208717
4.0454444
4.1083189
4.1083189
4.1474806
4.1474806
4.2013381
4.3629316
4.3629316
5.2381921
)
;
    }
}


// ************************************************************************* //
