/*--------------------------------*- C++ -*----------------------------------*\
| =========                 |                                                 |
| \\      /  F ield         | OpenFOAM: The Open Source CFD Toolbox           |
|  \\    /   O peration     | Version:  2506                                  |
|   \\  /    A nd           | Website:  www.openfoam.com                      |
|    \\/     M anipulation  |                                                 |
\*---------------------------------------------------------------------------*/
FoamFile
{
    version     2.0;
    format      ascii;
    arch        "LSB;label=32;scalar=64";
    class       volScalarField;
    location    "0.0125";
    object      alphat;
}
// * * * * * * * * * * * * * * * * * * * * * * * * * * * * * * * * * * * * * //

dimensions      [1 -1 -1 0 0 0 0];

internalField   nonuniform List<scalar> 
13761
(
2.3940842e-06
2.3960793e-06
2.3966733e-06
2.3969327e-06
2.3969506e-06
2.3976536e-06
2.3972134e-06
2.3999282e-06
2.397126e-06
2.4026421e-06
2.4468857e-06
2.3940869e-06
2.39608e-06
2.3966732e-06
2.3969329e-06
2.3969499e-06
2.3976543e-06
2.3972114e-06
2.3999293e-06
2.3971281e-06
2.4026533e-06
2.4468274e-06
2.394092e-06
2.3960817e-06
2.3966735e-06
2.3969332e-06
2.3969496e-06
2.3976551e-06
2.3972107e-06
2.3999305e-06
2.3971327e-06
2.4026661e-06
2.4468185e-06
2.3891049e-06
2.3940967e-06
2.3960833e-06
2.3966737e-06
2.3969335e-06
2.3969493e-06
2.3976559e-06
2.39721e-06
2.3999321e-06
2.3971389e-06
2.4026807e-06
2.4468062e-06
2.3891148e-06
2.3941019e-06
2.396085e-06
2.3966739e-06
2.3969338e-06
2.396949e-06
2.3976566e-06
2.3972095e-06
2.3999343e-06
2.397147e-06
2.4026963e-06
2.4467985e-06
2.3891252e-06
2.3941073e-06
2.3960866e-06
2.3966742e-06
2.3969342e-06
2.3969487e-06
2.3976575e-06
2.3972091e-06
2.3999373e-06
2.397157e-06
2.4027124e-06
2.4467895e-06
2.3794915e-06
2.3891357e-06
2.3941129e-06
2.3960883e-06
2.3966745e-06
2.3969345e-06
2.3969485e-06
2.3976583e-06
2.397209e-06
2.3999415e-06
2.397169e-06
2.4027278e-06
2.4467732e-06
2.3795068e-06
2.3891471e-06
2.3941186e-06
2.3960901e-06
2.3966747e-06
2.3969348e-06
2.3969482e-06
2.3976592e-06
2.3972093e-06
2.399947e-06
2.3971825e-06
2.4027416e-06
2.4467591e-06
2.379523e-06
2.3891589e-06
2.3941244e-06
2.3960918e-06
2.396675e-06
2.3969351e-06
2.396948e-06
2.3976602e-06
2.3972101e-06
2.3999541e-06
2.3971971e-06
2.402753e-06
2.4467368e-06
2.3657078e-06
2.3795396e-06
2.3891711e-06
2.3941303e-06
2.3960936e-06
2.3966753e-06
2.3969354e-06
2.3969478e-06
2.3976614e-06
2.3972116e-06
2.3999631e-06
2.3972118e-06
2.4027612e-06
2.4467164e-06
2.3657187e-06
2.3795576e-06
2.3891837e-06
2.3941363e-06
2.3960955e-06
2.3966756e-06
2.3969358e-06
2.3969477e-06
2.3976628e-06
2.397214e-06
2.3999738e-06
2.3972259e-06
2.4027661e-06
2.4466879e-06
2.3657308e-06
2.3795763e-06
2.3891966e-06
2.3941425e-06
2.3960973e-06
2.396676e-06
2.3969361e-06
2.3969476e-06
2.3976646e-06
2.3972176e-06
2.3999863e-06
2.3972385e-06
2.4027674e-06
2.4466624e-06
2.3657438e-06
2.3795958e-06
2.3892098e-06
2.3941487e-06
2.3960992e-06
2.3966763e-06
2.3969365e-06
2.3969475e-06
2.3976669e-06
2.3972226e-06
2.4000002e-06
2.3972487e-06
2.402765e-06
2.4466371e-06
2.3530389e-06
2.3657575e-06
2.379616e-06
2.3892234e-06
2.3941551e-06
2.3961011e-06
2.3966767e-06
2.3969368e-06
2.3969477e-06
2.3976698e-06
2.3972292e-06
2.4000149e-06
2.3972561e-06
2.4027591e-06
2.4466092e-06
2.3530223e-06
2.3657731e-06
2.3796369e-06
2.3892374e-06
2.3941615e-06
2.3961031e-06
2.396677e-06
2.3969372e-06
2.396948e-06
2.3976737e-06
2.3972376e-06
2.4000296e-06
2.3972604e-06
2.4027496e-06
2.4465914e-06
2.3530064e-06
2.3657898e-06
2.3796584e-06
2.3892516e-06
2.3941681e-06
2.396105e-06
2.3966774e-06
2.3969377e-06
2.3969485e-06
2.3976786e-06
2.3972478e-06
2.4000437e-06
2.3972616e-06
2.4027371e-06
2.4465746e-06
2.3507364e-06
2.3529908e-06
2.3658075e-06
2.3796807e-06
2.3892662e-06
2.3941747e-06
2.396107e-06
2.3966778e-06
2.3969382e-06
2.3969494e-06
2.397685e-06
2.3972596e-06
2.4000562e-06
2.3972596e-06
2.402723e-06
2.4465676e-06
2.3506755e-06
2.352977e-06
2.3658262e-06
2.3797036e-06
2.3892811e-06
2.3941815e-06
2.396109e-06
2.3966782e-06
2.3969389e-06
2.3969509e-06
2.3976928e-06
2.3972727e-06
2.4000665e-06
2.3972544e-06
2.4027094e-06
2.4465631e-06
2.3506132e-06
2.3529639e-06
2.365846e-06
2.3797271e-06
2.3892963e-06
2.3941883e-06
2.3961111e-06
2.3966786e-06
2.3969397e-06
2.396953e-06
2.3977024e-06
2.3972867e-06
2.4000741e-06
2.397246e-06
2.402699e-06
2.4465566e-06
2.3657435e-06
2.3505493e-06
2.3529517e-06
2.3658667e-06
2.3797514e-06
2.3893118e-06
2.3941952e-06
2.3961132e-06
2.3966791e-06
2.3969408e-06
2.396956e-06
2.3977136e-06
2.3973007e-06
2.4000788e-06
2.3972346e-06
2.4026938e-06
2.4465689e-06
2.3656321e-06
2.3504856e-06
2.3529402e-06
2.3658885e-06
2.3797762e-06
2.3893277e-06
2.3942022e-06
2.3961153e-06
2.3966796e-06
2.3969422e-06
2.3969602e-06
2.3977264e-06
2.3973141e-06
2.4000805e-06
2.397221e-06
2.4026941e-06
2.4466129e-06
2.3655181e-06
2.3504209e-06
2.3529296e-06
2.3659114e-06
2.3798018e-06
2.3893438e-06
2.3942093e-06
2.3961174e-06
2.3966803e-06
2.3969442e-06
2.3969656e-06
2.3977404e-06
2.397326e-06
2.4000793e-06
2.3972068e-06
2.4026981e-06
2.3952315e-06
2.3654018e-06
2.3503553e-06
2.3529198e-06
2.3659352e-06
2.3798279e-06
2.3893603e-06
2.3942164e-06
2.3961196e-06
2.396681e-06
2.3969468e-06
2.3969726e-06
2.3977551e-06
2.3973358e-06
2.4000753e-06
2.3971944e-06
2.4027043e-06
2.3950919e-06
2.365285e-06
2.3502888e-06
2.3529109e-06
2.36596e-06
2.3798547e-06
2.389377e-06
2.3942237e-06
2.3961219e-06
2.3966819e-06
2.3969503e-06
2.3969812e-06
2.3977699e-06
2.3973431e-06
2.4000683e-06
2.3971863e-06
2.4027164e-06
2.410981e-06
2.3949488e-06
2.3651663e-06
2.3502216e-06
2.3529028e-06
2.3659858e-06
2.3798821e-06
2.389394e-06
2.394231e-06
2.3961242e-06
2.3966831e-06
2.3969548e-06
2.3969915e-06
2.397784e-06
2.3973477e-06
2.4000584e-06
2.3971836e-06
2.4027492e-06
2.4109657e-06
2.3948046e-06
2.3650456e-06
2.3501536e-06
2.3528955e-06
2.3660125e-06
2.3799101e-06
2.3894114e-06
2.3942384e-06
2.3961266e-06
2.3966846e-06
2.3969607e-06
2.3970033e-06
2.3977967e-06
2.3973496e-06
2.400046e-06
2.3971856e-06
2.4028264e-06
2.4109492e-06
2.3946579e-06
2.364923e-06
2.350085e-06
2.3528891e-06
2.3660403e-06
2.3799388e-06
2.389429e-06
2.3942459e-06
2.3961292e-06
2.3966867e-06
2.3969679e-06
2.3970163e-06
2.3978075e-06
2.3973489e-06
2.400032e-06
2.3971903e-06
2.3948737e-06
2.4109315e-06
2.3945088e-06
2.3647983e-06
2.3500158e-06
2.3528836e-06
2.366069e-06
2.379968e-06
2.3894469e-06
2.3942535e-06
2.396132e-06
2.3966894e-06
2.3969768e-06
2.39703e-06
2.3978158e-06
2.3973456e-06
2.4000184e-06
2.3971968e-06
2.394937e-06
2.4109146e-06
2.3943572e-06
2.3646716e-06
2.3499461e-06
2.352879e-06
2.3660987e-06
2.3799978e-06
2.389465e-06
2.3942612e-06
2.396135e-06
2.3966929e-06
2.3969873e-06
2.3970438e-06
2.3978216e-06
2.3973396e-06
2.4000076e-06
2.3972096e-06
2.3950011e-06
2.4108969e-06
2.3942031e-06
2.3645427e-06
2.3498759e-06
2.3528753e-06
2.3661294e-06
2.3800283e-06
2.3894835e-06
2.394269e-06
2.3961384e-06
2.3966974e-06
2.3969992e-06
2.3970571e-06
2.3978248e-06
2.397331e-06
2.4000016e-06
2.397244e-06
2.3851313e-06
2.395066e-06
2.4108786e-06
2.3940467e-06
2.3644117e-06
2.3498054e-06
2.3528725e-06
2.366161e-06
2.3800593e-06
2.3895022e-06
2.394277e-06
2.3961422e-06
2.3967032e-06
2.3970122e-06
2.3970692e-06
2.3978256e-06
2.3973197e-06
2.4000009e-06
2.3973218e-06
2.3851146e-06
2.3951332e-06
2.4108596e-06
2.393888e-06
2.3642785e-06
2.3497347e-06
2.3528706e-06
2.3661936e-06
2.380091e-06
2.3895212e-06
2.3942852e-06
2.3961467e-06
2.3967104e-06
2.3970261e-06
2.3970794e-06
2.397824e-06
2.3973063e-06
2.4000041e-06
2.3924462e-06
2.3850983e-06
2.3952013e-06
2.4108399e-06
2.393727e-06
2.3641431e-06
2.3496636e-06
2.3528697e-06
2.3662271e-06
2.3801232e-06
2.3895405e-06
2.3942935e-06
2.396152e-06
2.3967191e-06
2.3970401e-06
2.3970874e-06
2.3978201e-06
2.3972922e-06
2.400009e-06
2.3923777e-06
2.3850839e-06
2.3952702e-06
2.4108194e-06
2.3935637e-06
2.3640055e-06
2.3495925e-06
2.3528697e-06
2.3662616e-06
2.3801559e-06
2.3895601e-06
2.3943022e-06
2.3961583e-06
2.3967294e-06
2.3970537e-06
2.3970929e-06
2.3978136e-06
2.3972795e-06
2.4000153e-06
2.3954049e-06
2.3923079e-06
2.3850701e-06
2.39534e-06
2.4107982e-06
2.3933981e-06
2.3638656e-06
2.3495212e-06
2.3528706e-06
2.366297e-06
2.3801893e-06
2.38958e-06
2.3943112e-06
2.3961658e-06
2.3967411e-06
2.3970661e-06
2.397096e-06
2.3978046e-06
2.3972704e-06
2.4000286e-06
2.3953968e-06
2.3922381e-06
2.3850569e-06
2.3954108e-06
2.4107759e-06
2.3932302e-06
2.3637234e-06
2.3494498e-06
2.3528725e-06
2.3663333e-06
2.3802233e-06
2.3896003e-06
2.3943208e-06
2.3961747e-06
2.3967541e-06
2.3970769e-06
2.3970967e-06
2.3977932e-06
2.3972664e-06
2.4000643e-06
2.3953894e-06
2.3921669e-06
2.3850445e-06
2.3954824e-06
2.4107527e-06
2.39306e-06
2.3635788e-06
2.3493783e-06
2.3528754e-06
2.3663707e-06
2.3802578e-06
2.3896209e-06
2.3943309e-06
2.396185e-06
2.3967679e-06
2.3970856e-06
2.3970953e-06
2.3977802e-06
2.3972674e-06
2.4001423e-06
2.388526e-06
2.3953813e-06
2.3920943e-06
2.3850328e-06
2.395555e-06
2.4107284e-06
2.3928877e-06
2.363432e-06
2.3493069e-06
2.3528793e-06
2.3664089e-06
2.380293e-06
2.389642e-06
2.3943419e-06
2.3961969e-06
2.396782e-06
2.397092e-06
2.3970917e-06
2.3977672e-06
2.3972714e-06
2.3885185e-06
2.3953753e-06
2.3920205e-06
2.3850218e-06
2.3956286e-06
2.410703e-06
2.3927131e-06
2.3632828e-06
2.3492355e-06
2.3528842e-06
2.3664481e-06
2.3803288e-06
2.3896636e-06
2.3943539e-06
2.3962102e-06
2.3967959e-06
2.397096e-06
2.3970858e-06
2.3977564e-06
2.3972763e-06
2.3864185e-06
2.3885121e-06
2.3953693e-06
2.3919454e-06
2.3850116e-06
2.3957032e-06
2.4106763e-06
2.3925363e-06
2.3631314e-06
2.3491642e-06
2.35289e-06
2.3664882e-06
2.3803652e-06
2.3896858e-06
2.394367e-06
2.3962248e-06
2.3968088e-06
2.3970979e-06
2.3970776e-06
2.3977499e-06
2.3972827e-06
2.3863816e-06
2.3885095e-06
2.3953632e-06
2.391869e-06
2.3850021e-06
2.3957788e-06
2.4106483e-06
2.3923573e-06
2.3629777e-06
2.349093e-06
2.3528969e-06
2.3665293e-06
2.3804023e-06
2.3897088e-06
2.3943815e-06
2.3962403e-06
2.3968202e-06
2.3970976e-06
2.3970669e-06
2.3977485e-06
2.3972966e-06
2.3847902e-06
2.3863436e-06
2.3885081e-06
2.3953571e-06
2.3917913e-06
2.3849935e-06
2.3958554e-06
2.410619e-06
2.3921762e-06
2.3628217e-06
2.3490219e-06
2.3529047e-06
2.3665713e-06
2.38044e-06
2.3897327e-06
2.3943974e-06
2.3962562e-06
2.3968297e-06
2.3970954e-06
2.3970542e-06
2.3977514e-06
2.3973337e-06
2.3814673e-06
2.3847316e-06
2.3863091e-06
2.388508e-06
2.3953508e-06
2.3917124e-06
2.3849857e-06
2.395933e-06
2.4105882e-06
2.3919929e-06
2.3626634e-06
2.348951e-06
2.3529136e-06
2.3666143e-06
2.3804786e-06
2.3897576e-06
2.3944149e-06
2.3962721e-06
2.396837e-06
2.3970912e-06
2.3970404e-06
2.3977565e-06
2.3974119e-06
2.3814076e-06
2.3846757e-06
2.3862747e-06
2.3885091e-06
2.3953443e-06
2.3916323e-06
2.3849788e-06
2.3960118e-06
2.410556e-06
2.3918075e-06
2.3625029e-06
2.3488802e-06
2.3529235e-06
2.3666583e-06
2.3805181e-06
2.3897838e-06
2.394434e-06
2.3962873e-06
2.396842e-06
2.3970848e-06
2.3970274e-06
2.397762e-06
2.3790204e-06
2.3813465e-06
2.3846198e-06
2.3862404e-06
2.3885116e-06
2.3953377e-06
2.391551e-06
2.3849728e-06
2.3960916e-06
2.4105222e-06
2.3916198e-06
2.36234e-06
2.3488098e-06
2.3529345e-06
2.3667034e-06
2.3805586e-06
2.3898114e-06
2.3944544e-06
2.3963011e-06
2.3968449e-06
2.3970761e-06
2.3970174e-06
2.3977688e-06
2.3789527e-06
2.381289e-06
2.3845637e-06
2.3862063e-06
2.3885153e-06
2.395331e-06
2.3914685e-06
2.3849677e-06
2.3961725e-06
2.4104867e-06
2.39143e-06
2.3621749e-06
2.3487395e-06
2.3529465e-06
2.3667496e-06
2.3806003e-06
2.3898406e-06
2.3944758e-06
2.3963133e-06
2.3968457e-06
2.397065e-06
2.3970119e-06
2.3977839e-06
2.3759277e-06
2.378883e-06
2.3812315e-06
2.3845077e-06
2.3861724e-06
2.3885202e-06
2.3953241e-06
2.391385e-06
2.3849636e-06
2.3962546e-06
2.4104496e-06
2.3912381e-06
2.3620076e-06
2.3486696e-06
2.3529597e-06
2.366797e-06
2.3806432e-06
2.3898714e-06
2.394498e-06
2.3963234e-06
2.3968446e-06
2.3970522e-06
2.3970115e-06
2.3978227e-06
2.3747057e-06
2.3758816e-06
2.3788169e-06
2.3811739e-06
2.3844516e-06
2.3861388e-06
2.3885263e-06
2.3953172e-06
2.3913004e-06
2.3849605e-06
2.3963377e-06
2.4104108e-06
2.391044e-06
2.361838e-06
2.3486001e-06
2.3529739e-06
2.3668458e-06
2.3806876e-06
2.3899039e-06
2.3945203e-06
2.3963314e-06
2.3968417e-06
2.3970389e-06
2.3970148e-06
2.3979016e-06
2.3746391e-06
2.3758403e-06
2.3787505e-06
2.3811162e-06
2.3843957e-06
2.3861054e-06
2.3885335e-06
2.3953101e-06
2.3912148e-06
2.3849584e-06
2.3964219e-06
2.4103702e-06
2.3908478e-06
2.3616663e-06
2.3485309e-06
2.3529894e-06
2.3668959e-06
2.3807337e-06
2.3899379e-06
2.3945422e-06
2.3963373e-06
2.3968369e-06
2.3970271e-06
2.3970195e-06
2.3779327e-06
2.3745714e-06
2.3757998e-06
2.3786839e-06
2.3810583e-06
2.3843401e-06
2.3860722e-06
2.3885417e-06
2.395303e-06
2.3911284e-06
2.3849572e-06
2.3965072e-06
2.4103277e-06
2.3906495e-06
2.3614924e-06
2.3484621e-06
2.3530061e-06
2.3669477e-06
2.3807815e-06
2.3899732e-06
2.3945631e-06
2.3963412e-06
2.3968299e-06
2.3970188e-06
2.3970243e-06
2.3837454e-06
2.3778228e-06
2.3745096e-06
2.37576e-06
2.378617e-06
2.3810002e-06
2.3842847e-06
2.3860394e-06
2.3885509e-06
2.3952958e-06
2.391041e-06
2.3849571e-06
2.3965936e-06
2.4102835e-06
2.3904491e-06
2.3613163e-06
2.3483938e-06
2.3530241e-06
2.3670011e-06
2.3808312e-06
2.3900094e-06
2.3945825e-06
2.3963434e-06
2.3968206e-06
2.3970153e-06
2.3970306e-06
2.3868354e-06
2.3835765e-06
2.3777189e-06
2.3744494e-06
2.3757209e-06
2.37855e-06
2.3809418e-06
2.3842296e-06
2.386007e-06
2.3885611e-06
2.3952885e-06
2.3909529e-06
2.384958e-06
2.396681e-06
2.4102373e-06
2.3902466e-06
2.3611382e-06
2.348326e-06
2.3530436e-06
2.3670565e-06
2.3808829e-06
2.3900461e-06
2.3946e-06
2.3963438e-06
2.3968092e-06
2.3970166e-06
2.3970458e-06
2.3807521e-06
2.3866301e-06
2.3834111e-06
2.3776163e-06
2.3743905e-06
2.3756825e-06
2.3784827e-06
2.3808832e-06
2.384175e-06
2.3859749e-06
2.3885721e-06
2.395281e-06
2.3908641e-06
2.3849601e-06
2.3967696e-06
2.4101892e-06
2.3900419e-06
2.360958e-06
2.3482588e-06
2.3530646e-06
2.3671139e-06
2.3809365e-06
2.3900827e-06
2.3946155e-06
2.3963426e-06
2.3967965e-06
2.3970208e-06
2.3970853e-06
2.3692545e-06
2.3806698e-06
2.3864211e-06
2.3832439e-06
2.377515e-06
2.3743331e-06
2.3756447e-06
2.3784154e-06
2.3808243e-06
2.3841208e-06
2.3859432e-06
2.3885838e-06
2.3952734e-06
2.3907747e-06
2.3849632e-06
2.3968593e-06
2.4101391e-06
2.3898351e-06
2.3607757e-06
2.3481923e-06
2.3530874e-06
2.3671736e-06
2.3809917e-06
2.3901187e-06
2.394629e-06
2.3963395e-06
2.3967838e-06
2.3970258e-06
2.3971637e-06
2.3589847e-06
2.3692548e-06
2.3805856e-06
2.3862032e-06
2.3830748e-06
2.3774151e-06
2.3742769e-06
2.3756075e-06
2.3783479e-06
2.380765e-06
2.3840671e-06
2.3859119e-06
2.3885963e-06
2.3952655e-06
2.3906847e-06
2.3849675e-06
2.39695e-06
2.4100869e-06
2.3896262e-06
2.3605915e-06
2.3481266e-06
2.353112e-06
2.3672354e-06
2.3810483e-06
2.3901535e-06
2.3946405e-06
2.3963341e-06
2.3967732e-06
2.3970305e-06
2.3428103e-06
2.3588941e-06
2.3692682e-06
2.3804929e-06
2.385977e-06
2.3829038e-06
2.3773166e-06
2.374222e-06
2.3755709e-06
2.3782803e-06
2.3807055e-06
2.384014e-06
2.3858812e-06
2.3886095e-06
2.3952572e-06
2.3905943e-06
2.3849729e-06
2.3970418e-06
2.4100327e-06
2.3894151e-06
2.3604055e-06
2.3480618e-06
2.3531386e-06
2.3672995e-06
2.3811059e-06
2.3901868e-06
2.3946503e-06
2.3963266e-06
2.3967666e-06
2.397037e-06
2.3148274e-06
2.3426009e-06
2.3588211e-06
2.3692883e-06
2.3803909e-06
2.3857429e-06
2.3827309e-06
2.3772194e-06
2.3741682e-06
2.375535e-06
2.3782127e-06
2.3806456e-06
2.3839614e-06
2.3858509e-06
2.3886232e-06
2.3952485e-06
2.3905035e-06
2.3849795e-06
2.3971347e-06
2.4099764e-06
2.3892018e-06
2.3602178e-06
2.3479982e-06
2.3531675e-06
2.3673657e-06
2.3811639e-06
2.3902183e-06
2.3946585e-06
2.3963171e-06
2.3967649e-06
2.3970531e-06
2.2801322e-06
2.3146989e-06
2.3423991e-06
2.35876e-06
2.3693146e-06
2.3802789e-06
2.3855015e-06
2.3825563e-06
2.3771237e-06
2.3741157e-06
2.3754996e-06
2.378145e-06
2.3805855e-06
2.3839094e-06
2.3858212e-06
2.3886374e-06
2.3952393e-06
2.3904125e-06
2.3849873e-06
2.3972286e-06
2.409918e-06
2.3889864e-06
2.3600285e-06
2.3479357e-06
2.3531987e-06
2.3674337e-06
2.3812218e-06
2.3902478e-06
2.3946651e-06
2.3963066e-06
2.3967676e-06
2.3970939e-06
2.2153663e-06
2.2435036e-06
2.2800793e-06
2.3145746e-06
2.342199e-06
2.358711e-06
2.3693465e-06
2.3801565e-06
2.3852533e-06
2.38238e-06
2.3770294e-06
2.3740643e-06
2.3754649e-06
2.3780774e-06
2.380525e-06
2.3838581e-06
2.385792e-06
2.3886521e-06
2.3952295e-06
2.3903213e-06
2.3849962e-06
2.3973236e-06
2.4098575e-06
2.3887688e-06
2.3598378e-06
2.3478747e-06
2.3532323e-06
2.3675032e-06
2.381279e-06
2.3902756e-06
2.3946701e-06
2.3962968e-06
2.3967726e-06
2.3971725e-06
2.2090304e-06
2.2153095e-06
2.2434288e-06
2.2800378e-06
2.3144477e-06
2.3420011e-06
2.3586745e-06
2.3693833e-06
2.3800231e-06
2.3849986e-06
2.3822021e-06
2.3769364e-06
2.3740141e-06
2.3754308e-06
2.3780098e-06
2.3804642e-06
2.3838074e-06
2.3857636e-06
2.388667e-06
2.3952189e-06
2.39023e-06
2.3850063e-06
2.3974196e-06
2.4097948e-06
2.3885491e-06
2.3596459e-06
2.3478153e-06
2.3532685e-06
2.3675737e-06
2.3813352e-06
2.3903016e-06
2.3946733e-06
2.3962897e-06
2.3967779e-06
2.2381048e-06
2.224465e-06
2.2090748e-06
2.2152654e-06
2.2433618e-06
2.2800007e-06
2.3143178e-06
2.3418059e-06
2.3586507e-06
2.3694245e-06
2.3798784e-06
2.3847377e-06
2.3820226e-06
2.3768447e-06
2.3739651e-06
2.3753974e-06
2.3779422e-06
2.3804031e-06
2.3837573e-06
2.3857359e-06
2.3886823e-06
2.3952075e-06
2.3901387e-06
2.3850176e-06
2.3975167e-06
2.4097301e-06
2.3883272e-06
2.3594531e-06
2.3477577e-06
2.353307e-06
2.3676448e-06
2.3813899e-06
2.3903262e-06
2.3946743e-06
2.3962869e-06
2.3967829e-06
2.2189657e-06
2.2119652e-06
2.2269904e-06
2.2378775e-06
2.2244816e-06
2.209138e-06
2.2152269e-06
2.2433024e-06
2.2799675e-06
2.3141846e-06
2.3416143e-06
2.3586398e-06
2.3694692e-06
2.3797224e-06
2.3844711e-06
2.3818417e-06
2.3767543e-06
2.3739174e-06
2.3753645e-06
2.3778748e-06
2.3803418e-06
2.3837079e-06
2.385709e-06
2.3886976e-06
2.3951952e-06
2.3900474e-06
2.38503e-06
2.3976149e-06
2.4096633e-06
2.3881032e-06
2.3592596e-06
2.347702e-06
2.3533478e-06
2.3677158e-06
2.381443e-06
2.3903495e-06
2.3946732e-06
2.3962888e-06
2.39679e-06
2.2461874e-06
2.2332444e-06
2.2164478e-06
2.2106525e-06
2.2264123e-06
2.2377147e-06
2.2245233e-06
2.2092105e-06
2.2151939e-06
2.2432511e-06
2.2799384e-06
2.3140483e-06
2.3414271e-06
2.358642e-06
2.3695169e-06
2.3795551e-06
2.3841989e-06
2.3816594e-06
2.3766651e-06
2.373871e-06
2.3753323e-06
2.3778075e-06
2.3802802e-06
2.3836593e-06
2.3856831e-06
2.3887131e-06
2.3951817e-06
2.3899562e-06
2.3850436e-06
2.3977142e-06
2.4095944e-06
2.3878769e-06
2.3590656e-06
2.3476483e-06
2.3533905e-06
2.3677865e-06
2.3814946e-06
2.3903713e-06
2.3946705e-06
2.3962947e-06
2.3968072e-06
2.3116009e-06
2.2903218e-06
2.2789275e-06
2.260478e-06
2.2415172e-06
2.229471e-06
2.2142543e-06
2.2095537e-06
2.2259458e-06
2.2376012e-06
2.2245866e-06
2.2092912e-06
2.2151663e-06
2.2432082e-06
2.2799131e-06
2.3139087e-06
2.3412453e-06
2.3586573e-06
2.3695667e-06
2.3793767e-06
2.3839215e-06
2.3814759e-06
2.3765771e-06
2.3738259e-06
2.3753006e-06
2.3777403e-06
2.3802184e-06
2.3836114e-06
2.3856582e-06
2.3887285e-06
2.3951671e-06
2.3898651e-06
2.3850583e-06
2.3978148e-06
2.4095234e-06
2.3876486e-06
2.3588714e-06
2.3475967e-06
2.3534348e-06
2.3678562e-06
2.3815447e-06
2.3903917e-06
2.3946673e-06
2.3963024e-06
2.3968494e-06
2.4958745e-06
2.4401714e-06
2.3997918e-06
2.3650988e-06
2.3366952e-06
2.3108668e-06
2.2897112e-06
2.2770873e-06
2.2563448e-06
2.2368462e-06
2.2260357e-06
2.2123733e-06
2.2086515e-06
2.2255775e-06
2.2375303e-06
2.2246687e-06
2.209379e-06
2.2151444e-06
2.2431736e-06
2.2798909e-06
2.3137658e-06
2.3410696e-06
2.3586856e-06
2.3696177e-06
2.3791874e-06
2.383639e-06
2.3812913e-06
2.3764901e-06
2.3737821e-06
2.3752693e-06
2.3776733e-06
2.3801565e-06
2.3835643e-06
2.3856345e-06
2.3887438e-06
2.3951513e-06
2.3897743e-06
2.3850741e-06
2.3979166e-06
2.4094505e-06
2.3874181e-06
2.3586773e-06
2.3475469e-06
2.3534802e-06
2.367925e-06
2.3815936e-06
2.3904102e-06
2.3946653e-06
2.3963098e-06
2.3969283e-06
2.6030191e-06
2.7071655e-06
2.7914762e-06
2.7546965e-06
2.6725714e-06
2.6444243e-06
2.6250612e-06
2.566164e-06
2.49444e-06
2.4388839e-06
2.3987301e-06
2.3640923e-06
2.3357821e-06
2.3102037e-06
2.2887716e-06
2.2744322e-06
2.2517357e-06
2.2323221e-06
2.2229834e-06
2.2107933e-06
2.2079269e-06
2.2252946e-06
2.237496e-06
2.2247673e-06
2.2094729e-06
2.2151283e-06
2.2431476e-06
2.2798713e-06
2.3136194e-06
2.3409009e-06
2.3587268e-06
2.369669e-06
2.3789876e-06
2.3833519e-06
2.3811056e-06
2.3764042e-06
2.3737397e-06
2.3752385e-06
2.3776065e-06
2.3800944e-06
2.383518e-06
2.3856121e-06
2.388759e-06
2.3951341e-06
2.3896837e-06
2.3850909e-06
2.3980196e-06
2.4093757e-06
2.3871857e-06
2.3584835e-06
2.3474989e-06
2.3535262e-06
2.3679926e-06
2.3816414e-06
2.3904267e-06
2.3946664e-06
2.3963169e-06
3.1392545e-06
2.7143765e-06
2.6382426e-06
2.632539e-06
2.6268488e-06
2.6119258e-06
2.5865191e-06
2.535796e-06
2.4877519e-06
2.4974326e-06
2.5213313e-06
2.4901291e-06
2.4626509e-06
2.5299036e-06
2.6736242e-06
2.7909281e-06
2.8202837e-06
2.7776826e-06
2.7099684e-06
2.6201867e-06
2.5157434e-06
2.4362465e-06
2.4042038e-06
2.4092148e-06
2.4348826e-06
2.4896746e-06
2.516163e-06
2.4630893e-06
2.4149443e-06
2.4490704e-06
2.5147155e-06
2.5541624e-06
2.6012177e-06
2.7054575e-06
2.7898706e-06
2.7528482e-06
2.6705936e-06
2.6427699e-06
2.6236846e-06
2.564834e-06
2.493181e-06
2.4377452e-06
2.3977858e-06
2.3631684e-06
2.3349596e-06
2.3094635e-06
2.2872831e-06
2.2709302e-06
2.2468543e-06
2.2280824e-06
2.2203362e-06
2.2094955e-06
2.2073599e-06
2.2250847e-06
2.2374928e-06
2.2248802e-06
2.2095722e-06
2.2151181e-06
2.2431302e-06
2.2798537e-06
2.3134694e-06
2.3407401e-06
2.3587804e-06
2.3697196e-06
2.3787779e-06
2.3830602e-06
2.3809189e-06
2.3763193e-06
2.3736987e-06
2.375208e-06
2.3775398e-06
2.3800323e-06
2.3834726e-06
2.385591e-06
2.388774e-06
2.3951155e-06
2.3895933e-06
2.3851088e-06
2.3981241e-06
2.4092991e-06
2.3869512e-06
2.3582901e-06
2.3474522e-06
2.3535722e-06
2.3680592e-06
2.3816882e-06
2.3904414e-06
2.394672e-06
2.3963264e-06
4.5801179e-06
3.13261e-06
2.7113498e-06
2.6375148e-06
2.6327458e-06
2.6272601e-06
2.6122538e-06
2.5867325e-06
2.5358217e-06
2.487563e-06
2.4973012e-06
2.5212751e-06
2.4897653e-06
2.4619907e-06
2.5293043e-06
2.6731502e-06
2.7902887e-06
2.8193052e-06
2.776388e-06
2.7086038e-06
2.6188511e-06
2.5143708e-06
2.4348877e-06
2.4029622e-06
2.4080007e-06
2.4335568e-06
2.4883075e-06
2.5147593e-06
2.4614307e-06
2.413134e-06
2.4474775e-06
2.513261e-06
2.5525703e-06
2.5994935e-06
2.7038317e-06
2.7883701e-06
2.7511441e-06
2.668779e-06
2.6412769e-06
2.622478e-06
2.5636751e-06
2.4920837e-06
2.4367489e-06
2.3969448e-06
2.3623098e-06
2.3341609e-06
2.3084508e-06
2.2850512e-06
2.2666648e-06
2.2419234e-06
2.224233e-06
2.2180954e-06
2.2084558e-06
2.2069303e-06
2.2249367e-06
2.2375159e-06
2.2250058e-06
2.2096762e-06
2.2151142e-06
2.2431215e-06
2.2798375e-06
2.313316e-06
2.3405881e-06
2.3588461e-06
2.3697683e-06
2.3785586e-06
2.3827644e-06
2.3807314e-06
2.3762352e-06
2.3736591e-06
2.3751776e-06
2.3774733e-06
2.3799701e-06
2.3834281e-06
2.3855714e-06
2.3887887e-06
2.3950956e-06
2.3895033e-06
2.3851276e-06
2.3982301e-06
2.4092208e-06
2.3867148e-06
2.3580972e-06
2.3474065e-06
2.3536179e-06
2.3681248e-06
2.381734e-06
2.3904547e-06
2.3946824e-06
2.3963467e-06
1.6160347e-05
8.0347422e-06
4.5707794e-06
3.1259557e-06
2.7086098e-06
2.6369506e-06
2.6330121e-06
2.6276568e-06
2.6125277e-06
2.5868789e-06
2.5357856e-06
2.4873126e-06
2.4970938e-06
2.5211454e-06
2.4893517e-06
2.4612877e-06
2.5286416e-06
2.6725977e-06
2.7895864e-06
2.818296e-06
2.7750899e-06
2.7072479e-06
2.6175336e-06
2.5130205e-06
2.4335482e-06
2.4017332e-06
2.4067963e-06
2.4322435e-06
2.4869509e-06
2.5133824e-06
2.4598241e-06
2.4113859e-06
2.4459393e-06
2.5118662e-06
2.5510565e-06
2.5978562e-06
2.7023067e-06
2.7869919e-06
2.7495968e-06
2.6671363e-06
2.6399503e-06
2.6214419e-06
2.5626849e-06
2.4911422e-06
2.4358806e-06
2.3961802e-06
2.3614687e-06
2.3332569e-06
2.3069356e-06
2.281956e-06
2.2618277e-06
2.2371562e-06
2.2208431e-06
2.2162447e-06
2.2076466e-06
2.2066189e-06
2.2248403e-06
2.237561e-06
2.2251423e-06
2.2097843e-06
2.2151168e-06
2.2431214e-06
2.279822e-06
2.3131591e-06
2.340446e-06
2.3589233e-06
2.3698139e-06
2.3783304e-06
2.3824646e-06
2.3805432e-06
2.376152e-06
2.3736211e-06
2.3751474e-06
2.377407e-06
2.3799079e-06
2.3833847e-06
2.3855534e-06
2.3888032e-06
2.3950741e-06
2.3894137e-06
2.3851473e-06
2.3983376e-06
2.409141e-06
2.3864764e-06
2.3579046e-06
2.3473614e-06
2.353663e-06
2.3681898e-06
2.3817785e-06
2.390468e-06
2.3946963e-06
2.3963922e-06
0.00011494224
3.8834872e-05
1.6090596e-05
8.0148069e-06
4.5615248e-06
3.1200699e-06
2.7062206e-06
2.636548e-06
2.6333238e-06
2.6280273e-06
2.6127418e-06
2.5869581e-06
2.5356932e-06
2.4870065e-06
2.496813e-06
2.5209467e-06
2.4888993e-06
2.4605523e-06
2.5279209e-06
2.67197e-06
2.7888303e-06
2.8172715e-06
2.7738069e-06
2.7059197e-06
2.6162545e-06
2.5117135e-06
2.4322489e-06
2.4005377e-06
2.4056227e-06
2.4309653e-06
2.4856273e-06
2.5120565e-06
2.4582944e-06
2.4097226e-06
2.4444772e-06
2.5105512e-06
2.5496411e-06
2.596325e-06
2.7008984e-06
2.7857497e-06
2.7482156e-06
2.6656713e-06
2.638793e-06
2.6205733e-06
2.5618565e-06
2.4903408e-06
2.4351092e-06
2.3954387e-06
2.3605479e-06
2.3320565e-06
2.3046982e-06
2.277997e-06
2.2566868e-06
2.2327333e-06
2.2179455e-06
2.2147552e-06
2.207039e-06
2.2064076e-06
2.2247866e-06
2.2376245e-06
2.2252887e-06
2.2098962e-06
2.2151263e-06
2.24313e-06
2.2798063e-06
2.3129991e-06
2.3403146e-06
2.3590114e-06
2.3698552e-06
2.3780938e-06
2.3821612e-06
2.3803544e-06
2.3760694e-06
2.3735845e-06
2.3751172e-06
2.377341e-06
2.3798458e-06
2.3833422e-06
2.3855369e-06
2.3888175e-06
2.3950512e-06
2.3893244e-06
2.385168e-06
2.3984469e-06
2.4090599e-06
2.3862361e-06
2.3577123e-06
2.3473162e-06
2.3537073e-06
2.3682542e-06
2.3818215e-06
2.3904832e-06
2.3947116e-06
2.3964735e-06
0.00046467677
0.0003590726
0.00023405512
0.00011423159
3.853699e-05
1.6037127e-05
8.0050903e-06
4.5560864e-06
3.1155004e-06
2.7042695e-06
2.6363039e-06
2.6336659e-06
2.6283624e-06
2.6128947e-06
2.586975e-06
2.5355554e-06
2.4866562e-06
2.4964645e-06
2.5206861e-06
2.4884231e-06
2.4597986e-06
2.5271492e-06
2.6712717e-06
2.7880312e-06
2.8162487e-06
2.772559e-06
2.7046395e-06
2.6150343e-06
2.510471e-06
2.43101e-06
2.3993959e-06
2.4044994e-06
2.4297427e-06
2.4843573e-06
2.5108029e-06
2.4568634e-06
2.4081629e-06
2.4431094e-06
2.5093333e-06
2.5483413e-06
2.5949154e-06
2.6996186e-06
2.7846534e-06
2.7470063e-06
2.6643853e-06
2.6378023e-06
2.6198617e-06
2.5611703e-06
2.4896435e-06
2.4343735e-06
2.3946254e-06
2.3593918e-06
2.3303301e-06
2.3015892e-06
2.2733133e-06
2.2515372e-06
2.2287871e-06
2.2155401e-06
2.2135897e-06
2.2066041e-06
2.2062797e-06
2.2247679e-06
2.2377033e-06
2.2254437e-06
2.2100115e-06
2.215143e-06
2.243147e-06
2.27979e-06
2.3128363e-06
2.340195e-06
2.3591098e-06
2.3698911e-06
2.3778492e-06
2.3818544e-06
2.3801652e-06
2.3759875e-06
2.3735494e-06
2.3750869e-06
2.3772751e-06
2.3797839e-06
2.3833009e-06
2.3855222e-06
2.3888315e-06
2.3950267e-06
2.3892356e-06
2.3851897e-06
2.398558e-06
2.4089775e-06
2.3859937e-06
2.3575199e-06
2.3472707e-06
2.3537508e-06
2.3683181e-06
2.3818627e-06
2.3905019e-06
2.3947264e-06
0.00063770038
0.00062688003
0.00059728106
0.00054467974
0.00046551378
0.00035915164
0.00023354978
0.00011350275
3.8261018e-05
1.5997843e-05
8.0039283e-06
4.5545129e-06
3.1123256e-06
2.7027472e-06
2.6361981e-06
2.6340212e-06
2.6286512e-06
2.6129815e-06
2.5869291e-06
2.5353723e-06
2.4862639e-06
2.4960575e-06
2.5203761e-06
2.4879316e-06
2.4590352e-06
2.5263444e-06
2.6705288e-06
2.7872143e-06
2.8152458e-06
2.771358e-06
2.703417e-06
2.6138811e-06
2.5093011e-06
2.4298417e-06
2.3983219e-06
2.403443e-06
2.428594e-06
2.4831611e-06
2.5096402e-06
2.4555464e-06
2.4067196e-06
2.4418523e-06
2.5082293e-06
2.5471718e-06
2.5936413e-06
2.6984787e-06
2.7837105e-06
2.7459681e-06
2.6632692e-06
2.6369636e-06
2.6192796e-06
2.5605812e-06
2.4889789e-06
2.4335681e-06
2.3935921e-06
2.3577944e-06
2.3278596e-06
2.2975873e-06
2.268167e-06
2.2466512e-06
2.2253951e-06
2.2136008e-06
2.2127068e-06
2.2063143e-06
2.2062205e-06
2.2247777e-06
2.237795e-06
2.2256063e-06
2.21013e-06
2.2151675e-06
2.2431725e-06
2.2797723e-06
2.3126713e-06
2.340088e-06
2.3592179e-06
2.3699205e-06
2.377597e-06
2.3815448e-06
2.3799755e-06
2.375906e-06
2.3735156e-06
2.3750563e-06
2.3772095e-06
2.3797223e-06
2.3832607e-06
2.385509e-06
2.3888454e-06
2.3950007e-06
2.3891472e-06
2.3852125e-06
2.398671e-06
2.4088939e-06
2.385749e-06
2.357327e-06
2.3472245e-06
2.3537937e-06
2.3683813e-06
2.3819025e-06
2.3905253e-06
2.394741e-06
0.00056927853
0.00059820948
0.00062149924
0.00063659919
0.00064042352
0.00062935156
0.00059931681
0.00054610731
0.00046620327
0.0003590879
0.00023293356
0.0001126913
3.7938873e-05
1.5942412e-05
7.9995125e-06
4.552138e-06
3.1090149e-06
2.7013286e-06
2.6361796e-06
2.6343811e-06
2.6288856e-06
2.6129918e-06
2.5868068e-06
2.5351168e-06
2.4858075e-06
2.4956068e-06
2.5200397e-06
2.487419e-06
2.4582593e-06
2.5255479e-06
2.6698133e-06
2.7864374e-06
2.8142855e-06
2.7702017e-06
2.7022438e-06
2.6127814e-06
2.5081891e-06
2.4287373e-06
2.3973221e-06
2.4024677e-06
2.4275379e-06
2.4820634e-06
2.5085867e-06
2.4543492e-06
2.4053972e-06
2.4407212e-06
2.5072574e-06
2.5461452e-06
2.5925141e-06
2.6974902e-06
2.7829242e-06
2.7450859e-06
2.662294e-06
2.6362387e-06
2.6187681e-06
2.5600023e-06
2.4882245e-06
2.4325326e-06
2.3921403e-06
2.3555343e-06
2.3245046e-06
2.2928303e-06
2.2628911e-06
2.2422401e-06
2.2225818e-06
2.2120838e-06
2.2120643e-06
2.2061444e-06
2.206217e-06
2.2248106e-06
2.237898e-06
2.2257757e-06
2.2102513e-06
2.2152002e-06
2.2432065e-06
2.279753e-06
2.3125051e-06
2.3399947e-06
2.3593351e-06
2.3699426e-06
2.3773377e-06
2.3812327e-06
2.3797856e-06
2.375825e-06
2.3734832e-06
2.3750254e-06
2.3771441e-06
2.379661e-06
2.3832218e-06
2.3854976e-06
2.3888591e-06
2.3949733e-06