/*--------------------------------*- C++ -*----------------------------------*\
| =========                 |                                                 |
| \\      /  F ield         | OpenFOAM: The Open Source CFD Toolbox           |
|  \\    /   O peration     | Version:  2506                                  |
|   \\  /    A nd           | Website:  www.openfoam.com                      |
|    \\/     M anipulation  |                                                 |
\*---------------------------------------------------------------------------*/
FoamFile
{
    version     2.0;
    format      ascii;
    arch        "LSB;label=32;scalar=64";
    class       volScalarField;
    location    "0.0145";
    object      p;
}
// * * * * * * * * * * * * * * * * * * * * * * * * * * * * * * * * * * * * * //

dimensions      [1 -1 -2 0 0 0 0];

internalField   nonuniform List<scalar> 
13761
(
36464.654
36175.179
35897.168
38331.296
37997.93
37671.893
37354.235
37045.892
36747.607
36459.961
36183.431
35918.372
39623.544
39281.406
38942.391
38607.938
38279.305
37957.583
37643.834
37338.973
37043.731
36758.738
36484.512
36221.444
35969.774
41229.485
40897.467
40562.362
40225.648
39888.887
39553.488
39220.834
38892.337
38569.208
38252.542
37943.409
37642.756
37351.363
37069.845
36798.726
36538.415
36289.181
42404.325
42098.858
41786.001
41467.132
41143.643
40816.858
40488.21
40159.203
39831.19
39505.535
39183.637
38866.716
38555.865
38252.151
37956.503
37669.672
37392.326
37125.02
36868.185
36622.102
36386.94
43450.554
43182.602
42904.254
42616.458
42320.212
42016.554
41706.802
41392.266
41074.224
40754.074
40433.297
40113.214
39795.179
39480.553
39170.502
38866.114
38568.448
38278.449
37996.908
37724.458
37461.655
37208.946
36966.639
36734.923
36513.909
44344.272
44119.847
43883.343
43635.357
43376.585
43107.551
42829.196
42542.395
42248.181
41947.82
41642.607
41333.758
41022.652
40710.697
40399.147
40089.318
39782.536
39479.963
39182.674
38891.721
38608.024
38332.343
38065.36
37807.656
37559.686
37321.76
37094.084
36876.788
36669.919
45077.881
44898.047
44706.009
44502.046
44286.177
44058.516
43819.617
43570.152
43310.57
43041.795
42764.677
42480.215
42189.625
41894.108
41594.827
41293.104
40990.308
40687.666
40386.49
40088.065
39793.503
39503.863
39220.177
38943.365
38674.21
38413.344
38161.339
37918.669
37685.662
37462.538
37249.45
37046.464
36853.558
45658.021
45520.297
45371.381
45210.886
45038.692
44854.639
44659.007
44451.71
44232.932
44003.209
43763.124
43513.121
43254.113
42986.861
42712.336
42431.685
42146.086
41856.648
41564.7
41271.542
40978.342
40686.352
40396.808
40110.797
39829.352
39553.485
39284.091
39021.915
38767.636
38521.847
38285.011
38057.454
37839.409
37631.043
37432.437
37243.56
46100.258
45999.799
45889.704
45769.082
45637.961
45495.973
45342.742
45178.163
45002.052
44814.723
44616.02
44406.15
44185.629
43954.986
43714.652
43465.479
43208.206
42943.772
42673.313
42397.92
42118.659
41836.784
41553.524
41270.014
40987.501
40707.182
40430.105
40157.284
39889.708
39628.257
39373.679
39126.591
38887.564
38657.075
38435.46
38222.961
38019.763
37825.959
37641.556
37466.494
46481.947
46422.497
46354.485
46278.19
46192.615
46097.79
45993.562
45879.151
45754.583
45619.451
45473.446
45316.437
45148.256
44969.199
44779.066
44578.081
44366.795
44145.607
43914.977
43675.717
43428.542
43174.351
42914.21
42649.152
42380.19
42108.59
41835.53
41562.111
41289.517
41018.887
40751.226
40487.507
40228.685
39975.61
39728.989
39489.484
39257.681
39034.032
38818.858
38612.411
38414.885
38226.381
38046.894
37876.35
46708.032
46677.655
46642.409
46601.586
46553.812
46498.895
46435.66
46364.364
46284.003
46194.731
46096.29
45988.016
45869.93
45741.596
45602.725
45453.218
45292.895
45122.028
44940.433
44748.319
44546.235
44334.487
44113.582
43884.271
43647.234
43403.316
43153.579
42898.993
42640.574
42379.505
42116.875
41853.734
41591.243
41330.498
41072.478
40818.142
40568.43
40324.168
40086.052
39854.675
39630.589
39414.252
39205.989
39006.053
38814.643
38631.864
38457.739
38292.239
38135.276
46849.177
46834.589
46825.52
46817.205
46804.766
46786.393
46762.994
46736.349
46704.981
46668.307
46624.846
46574.416
46515.905
46449.544
46374.356
46290.579
46197.853
46095.653
45983.994
45862.38
45730.574
45588.493
45435.974
45273.236
45100.119
44916.807
44723.878
44521.538
44310.336
44090.956
43864.065
43630.496
43391.267
43147.262
42899.43
42648.941
42396.843
42144.184
41892.075
41641.564
41393.579
41149.024
40908.795
40673.678
40444.329
40221.382
40005.403
39796.812
39595.914
39402.97
39218.178
39041.645
38873.378
38713.324
38561.417
46918.048
46903.104
46893.931
46893.946
46898.364
46901.133
46902.205
46905.277
46900.006
46888.624
46875.256
46868.047
46862.005
46852.48
46837.431
46817.429
46794.502
46766.973
46734.372
46695.15
46649.106
46595.237
46533.719
46463.614
46385.243
46298.129
46201.896
46096.542
45981.537
45856.723
45721.968
45577.174
45422.46
45257.728
45083.157
44899.303
44706.31
44504.753
44295.283
44078.533
43855.288
43626.521
43393.059
43155.894
42916.133
42674.756
42432.742
42191.153
41950.982
41713.126
41478.484
41247.946
41022.277
40802.113
40588.022
40380.53
40180.054
39986.907
39801.339
39623.552
39453.642
39291.639
39137.536
38991.271
46748.373
47137.372
47040.131
47037.022
47041.208
47037.669
47026.662
47011.57
46997.606
46987.31
46980.508
46976.149
46974.194
46977.614
46998.552
47057.85
47251.413
47565.337
47945.43
47610.979
47184.403
46923.697
46848.527
46745.249
46616.618
46495.819
46417.605
46409.757
46536.502
46918.594
47458.415
47123.45
46785.563
46773.609
46973.626
47068.055
46945.811
46900.678
46909.779
46930.543
46938.487
46925.237
46919.26
46921.14
46926.818
46932.04
46935.433
46940.883
46937.075
46927.604
46915.51
46910.139
46906.243
46899.536
46887.747
46871.125
46851.851
46828.136
46799.565
46764.52
46722.817
46673.534
46616.779
46551.701
46478.654
46397.084
46306.75
46207.629
46099.163
45981.232
45853.704
45716.526
45569.744
45413.288
45247.356
45072.473
44888.743
44696.761
44497.127
44290.437
44077.477
43859.193
43636.36
43409.902
43180.865
42950.176
42718.813
42487.812
42258.142
42030.656
41806.2
41585.614
41369.603
41158.774
40953.727
40754.994
40562.955
40377.895
40200.075
40029.686
39866.828
39711.516
39563.711
39423.356
46747.665
47137.077
47040.246
47036.814
47041.079
47037.644
47026.744
47011.705
46997.732
46987.408
46980.579
46976.197
46974.199
46977.502
46998.185
47056.553
47250.402
47566.797
47970.302
47644.711
47213.583
46943.153
46867.368
46764.523
46636.117
46513.857
46432.084
46417.854
46528.449
46889.506
47433.389
47153.654
46830.216
46814.665
46986.765
47104.782
46968.644
46912.927
46923.318
46950.289
46958.191
46946.886
46944.526
46948.742
46955.238
46962.642
46968.209
46976.04
46973.693
46966.443
46955.688
46952.15
46950.314
46946.283
46937.6
46924.285
46908.609
46888.667
46864.052
46833.105
46795.634
46750.844
46698.746
46638.585
46570.746
46494.606
46410.052
46317.042
46214.982
46103.846
45983.428
45853.739
45714.754
45566.437
45409.063
45243.027
45068.466
44885.951
44696.067
44499.364
44296.639
44088.747
43876.399
43660.553
43442.21
43222.274
43001.67
42781.376
42562.284
42345.197
42130.959
41920.398
41714.204
41512.96
41317.215
41127.451
40944.045
40767.29
40597.438
40434.673
40279.08
40130.689
39989.505
39855.486
46747.027
47136.809
47040.345
47036.629
47040.96
47037.62
47026.815
47011.825
46997.845
46987.495
46980.643
46976.241
46974.205
46977.412
46997.903
47055.49
47249.909
47568.843
47994.054
47677.583
47241.821
46962.069
46885.795
46783.429
46655.099
46531.442
46446.5
46426.529
46523.331
46863.747
47403.565
47187.676
46875.306
46838.215
46966.851
47118.965
46984.707
46921.18
46934.996
46969.429
46977.508
46968.503
46969.786
46976.296
46983.683
46992.638
47000.598
47010.677
47010.083
47004.784
46995.51
46993.73
46993.87
46992.388
46986.693
46976.649
46964.527
46948.308
46927.598
46900.673
46867.379
46827.018
46779.5
46724.185
46661.47
46590.681
46511.82
46424.808
46329.048
46224.601
46111.172
45988.835
45857.546
45717.263
45568.314
45410.995
45245.472
45072.302
44892.04
44705.212
44512.599
44315.005
44113.14
43907.92
43700.28
43491.047
43281.112
43071.427
42862.868
42656.221
42452.293
42251.864
42055.551
41863.92
41677.54
41496.887
41322.296
41154.039
40992.364
40837.446
40689.37
40548.159
40413.783
40286.185
46746.455
47136.569
47040.431
47036.466
47040.854
47037.596
47026.875
47011.929
46997.943
46987.573
46980.699
46976.28
46974.212
46977.342
46997.702
47054.662
47249.947
47571.579
48016.897
47709.481
47268.991
46980.453
46903.834
46801.928
46673.474
46548.506
46460.757
46435.73
46520.906
46841.234
47371.245
47224.449
46915.286
46844.202
46931.39
47108.454
46988.492
46924.345
46945.297
46988.385
46996.898
46990.184
46995.069
47003.507
47011.871
47022.128
47032.721
47044.73
47046.111
47042.535
47035.184
47035.195
47037.282
47038.185
47035.35
47028.507
47019.863
47007.268
46990.376
46967.388
46938.197
46902.141
46859.093
46808.503
46750.783
46685.232
46611.94
46530.788
46441.201
46343.289
46236.728
46121.604
45997.877
45865.473
45724.819
45576.055
45419.426
45255.458
45084.697
44907.609
44725.002
44537.593
44346.056
44151.289
43954.167
43755.514
43556.211
43357.173
43159.196
42963.001
42769.384
42579.086
42392.714
42210.807
42033.884
41862.375
41696.613
41536.88
41383.415
41236.378
41095.84
40961.828
40834.35
40713.375
46745.948
47136.359
47040.505
47036.324
47040.759
47037.572
47026.925
47012.018
46998.028
46987.639
46980.747
46976.314
46974.221
46977.292
46997.582
47054.069
47250.512
47575.07
48039.021
47740.303
47294.998
46998.313
46921.511
46819.963
46691.161
46564.933
46474.702
46445.358
46520.862
46821.881
47338.561
47261.59
46948.172
46840.794
46898.926
47087.742
46983.809
46924.931
46956.026
47007.931
47016.573
47011.9
47020.094
47030.208
47039.608
47051.257
47064.452
47078.389
47081.902
47079.854
47074.432
47076.18
47080.233
47083.392
47083.263
47079.55
47074.265
47065.259
47052.163
47033.018
47007.876
46976.025
46937.371
46891.44
46838.622
46778.219
46710.417
46635.001
46551.491
46460.001
46360.195
46252.129
46135.811
46011.156
45878.614
45738.249
45590.352
45435.442
45273.997
45106.499
44933.732
44756.344
44575.01
44390.604
44203.972
44015.874
43827.128
43638.594
43451.027
43265.15
43081.735
42901.486
42724.943
42552.642
42385.112
42222.762
42065.886
41914.741
41769.554
41630.47
41497.56
41370.851
41250.319
46745.504
47136.178
47040.567
47036.201
47040.676
47037.549
47026.965
47012.093
46998.1
46987.695
46980.788
46976.342
46974.231
46977.259
46997.543
47053.712
47251.622
47579.327
48060.601
47769.952
47319.746
47015.626
46938.833
46837.514
46708.097
46580.605
46488.163
46455.278
46522.922
46805.691
47306.896
47296.77
46974.332
46836.047
46876.634
47071.681
46981.102
46928.963
46969.661
47028.743
47036.717
47033.437
47044.657
47056.355
47066.682
47080.088
47095.791
47111.737
47117.266
47116.891
47113.165
47116.939
47123.068
47128.303
47130.717
47130.079
47128.045
47122.586
47113.187
47097.775
47076.569
47048.804
47014.422
46973.035
46924.982
46869.604
46807.153
46737.322
46659.755
46574.522
46481.303
46380.156
46271.082
46154.019
46029.413
45897.279
45757.944
45611.916
45459.623
45301.549
45138.455
44970.92
44799.63
44625.419
44449.052
44271.251
44092.842
43914.671
43737.445
43561.843
43388.612
43218.387
43051.694
42889.037
42730.882
42577.599
42429.483
42286.802
42149.771
42018.522
41893.114
41773.567
41659.888
46745.121
47136.028
47040.619
47036.098
47040.605
47037.528
47026.996
47012.152
46998.157
46987.74
46980.821
46976.365
46974.241
46977.244
46997.582
47053.595
47253.281
47584.438
48081.819
47798.372
47343.18
47032.361
46955.817
46854.595
46724.309
46595.424
46500.996
46465.405
46526.782
46792.583
47277.499
47327.748
46995.073
46833.513
46866.259
47067.615
46989.576
46940.587
46987.628
47051.097
47057.237
47054.753
47068.504
47081.706
47093.303
47108.648
47126.935
47144.879
47152.046
47153.737
47151.552
47157.227
47165.358
47172.59
47177.458
47179.82
47180.915
47178.907
47173.112
47161.371
47144.044
47120.276
47090.096
47053.168
47009.78
46959.326
46902.13
46837.763
46766.034
46686.916
46600.146
46505.766
46403.764
46294.146
46177.292
46053.221
45922.263
45784.936
45641.583
45492.738
45339.103
45181.233
45019.785
44855.555
44689.291
44521.698
44353.567
44185.662
44018.613
43853.09
43689.805
43529.359
43372.235
43218.943
43069.962
42925.634
42786.22
42651.961
42523.05
42399.602
42281.676
42169.296
46744.796
47135.908
47040.662
47036.014
47040.545
47037.508
47027.017
47012.197
46998.201
46987.775
46980.847
46976.383
46974.251
46977.246
46997.701
47053.719
47255.493
47590.49
48102.823
47825.442
47365.204
47048.455
46972.454
46871.252
46739.838
46609.361
46513.132
46475.724
46532.109
46782.34
47251.491
47352.999
47011.93
46834.527
46867.069
47079.519
47012.761
46960.77
47009.829
47074.825
47078.185
47075.61
47091.582
47106.357
47119.519
47136.951
47158.094
47177.632
47186.484
47190.108
47189.527
47197.116
47207.16
47216.786
47223.856
47229.011
47233.164
47234.522
47232.251
47224.057
47210.51
47190.598
47164.509
47131.906
47093.042
47047.373
46995.303
46936.24
46870.208
46797.039
46716.534
46628.768
46533.663
46431.324
46322.021
46205.813
46083.03
45954.185
45819.569
45679.751
45535.378
45386.951
45235.141
45080.721
44924.372
44766.734
44608.571
44450.616
44293.483
44137.844
43984.388
43833.644
43686.08
43542.166
43402.297
43266.777
43135.877
43009.836
42888.836
42772.984
42662.329
42556.885
46744.529
47135.819
47040.696
47035.947
47040.497
47037.489
47027.03
47012.227
46998.231
46987.799
46980.864
46976.395
46974.26
46977.265
46997.899
47054.089
47258.265
47597.548
48123.836
47851.168
47385.804
47063.88
46988.738
46887.518
46754.763
46622.399
46524.584
46486.2
46538.591
46774.714
47228.833
47373.276
47025.945
46839.538
46877.22
47105.705
47049.444
46988.424
47035.309
47099.726
47099.401
47096.08
47113.919
47130.282
47145.564
47165.244
47189.177
47210.091
47220.654
47225.958
47227.009
47236.531
47248.432
47260.315
47269.629
47277.368
47284.509
47289.14
47290.235
47285.494
47275.672
47259.548
47237.472
47209.113
47174.665
47133.686
47086.62
47032.761
46972.3
46904.942
46830.551
46749.238
46660.858
46565.604
46463.66
46355.103
46240.307
46119.733
45993.636
45862.628
45727.264
45588.058
45445.652
45300.771
45154.044
45006.12
44857.768
44709.651
44562.327
44416.429
44272.57
44131.239
43992.873
43857.945
43726.865
43599.923
43477.359
43359.385
43246.166
43137.791
43034.303
46744.319
47135.761
47040.722
47035.898
47040.459
47037.472
47027.033
47012.243
46998.248
46987.813
46980.875
46976.402
46974.271
46977.303
46998.175
47054.709
47261.61
47605.689
48144.748
47875.315
47404.877
47078.621
47004.641
46903.474
46769.119
46634.567
46535.426
46496.748
46545.926
46769.351
47209.463
47389.265
47038.553
46848.509
46893.813
47140.753
47094.199
47022.147
47062.832
47125.26
47120.499
47116.003
47135.727
47153.682
47171.528
47193.6
47220.102
47242.28
47254.386
47261.283
47264.222
47275.385
47289.137
47303.13
47315.029
47325.408
47335.253
47343.032
47347.356
47345.977
47339.805
47327.366
47309.133
47284.893
47254.701
47218.294
47176.057
47127.279
47072.204
47010.488
46942.03
46866.983
46785.154
46696.785
46601.997
46500.887
46393.871
46281.319
46163.523
46041.075
45914.488
45784.249
45650.995
45515.43
45378.133
45239.729
45100.924
44962.302
44824.404
44687.876
44553.319
44421.179
44291.895
44165.897
44043.506
43924.976
43810.548
43700.431
43594.767
43493.638
46744.163
47135.734
47040.741
47035.867
47040.433
47037.456
47027.028
47012.245
46998.252
46987.816
46980.877
46976.403
46974.282
46977.359
46998.53
47055.586
47265.546
47615.021
48166.002
47897.926
47422.38
47092.649
47020.071
46919.052
46782.828
46645.825
46545.69
46507.216
46553.785
46765.875
47193.118
47402.044
47050.926
46861.206
46913.253
47171.433
47140.038
47059.736
47091.531
47150.927
47140.999
47135.415
47156.893
47176.771
47197.48
47222.042
47250.76
47274.075
47287.685
47296.07
47301.036
47313.782
47329.369
47345.175
47359.571
47372.493
47385.183
47395.855
47403.371
47405.258
47402.588
47393.75
47379.287
47359.06
47333.054
47301.12
47263.583
47219.778
47169.949
47113.717
47051.064
46982.106
46906.65
46824.959
46737.125
46643.248
46543.795
46439.036
46329.301
46215.163
46097.09
45975.561
45851.2
45724.659
45596.459
45467.221
45337.637
45208.252
45079.619
44952.342
44826.923
44703.76
44583.255
44465.811
44351.761
44241.356
44134.804
44032.292
43933.954
46744.062
47135.738
47040.753
47035.851
47040.419
47037.442
47027.014
47012.233
46998.242
46987.809
46980.872
46976.399
46974.295
46977.434
46998.965
47056.725
47270.067
47625.328
48187.255
47918.859
47438.382
47106.104
47035.094
46934.34
46795.88
46656.261
46555.41
46517.451
46561.838
46763.968
47179.579
47412.566
47063.835
46877.073
46931.785
47187.806
47174.326
47095.966
47119.942
47175.852
47160.237
47154.124
47177.578
47199.67
47223.43
47250.46
47281.109
47305.432
47320.398
47330.335
47337.289
47351.803
47369.137
47386.696
47403.41
47418.753
47434.603
47448.011
47458.67
47463.646
47464.241
47458.902
47448.135
47431.78
47409.834
47382.217
47349.211
47310.212
47265.471
47214.531
47157.519
47094.448
47025.173
46949.959
46868.86
46782.013
46689.884
46592.659
46490.736
46384.648
46274.823
46161.72
46045.974
45928.176
45808.819
45688.541
45567.967
45447.578
45327.877
45209.437
45092.734
44978.16
44866.127
44757.015
44651.091
44548.571
44449.67
44354.563
44263.357
46744.013
47135.774
47040.756
47035.852
47040.414
47037.429
47026.992
47012.208
46998.22
46987.793
46980.861
46976.39
46974.308
46977.529
46999.484
47058.152
47275.338
47637.262
48208.867
47937.915
47452.657
47118.807
47049.486
46948.985
46808.147
46665.928
46564.605
46527.332
46569.827
46763.447
47168.792
47421.464
47077.554
46895.188
46948.308
47192.656
47189.466
47118.941
47142.675
47198.355
47177.733
47172.067
47197.858
47222.428
47249.331
47278.725
47311.044
47336.219
47352.585
47364.06
47373.037
47389.227
47408.241
47427.766
47446.534
47464.121
47482.795
47499.102
47512.72
47520.849
47524.629
47522.605
47515.423
47502.843
47484.866
47461.485
47432.874
47398.58
47358.769
47312.978
47261.454
47204.096
47140.813
47071.874
46997.292
46917.26
46832.211
46742.283
46647.925
46549.613
46447.75
46342.802
46235.381
46126.012
46015.178
45903.495
45791.524
45679.708
45568.596
45458.741
45350.558
45244.404
45140.645
45039.614
44941.569
44846.713
44755.221
44667.245
46744.015
47135.837
47040.754
47035.869
47040.421
47037.418
47026.962
47012.169
46998.185
46987.766
46980.841
46976.377
46974.321
46977.641
47000.087
47059.837
47281.086
47649.924
48230.719
47955.454
47465.594
47131.077
47063.498
46963.028
46819.647
46674.946
46573.295
46536.613
46577.501
46764.132
47160.795
47429.213
47091.964
46914.605
46963.944
47192.792
47190.143
47124.443
47154.464
47215.884
47193.096
47189.271
47217.859
47245.03
47275.107
47306.661
47340.512
47366.34
47384.226
47397.151
47408.156
47426.025
47446.794
47468.173
47488.942
47508.828
47530.17
47549.254
47565.897
47577.056
47584.134
47585.187
47581.392
47572.446
47558.288
47539.035
47514.624
47484.885
47449.797
47409.003
47362.782
47310.943
47253.432
47190.567
47122.271
47048.849
46970.612
46887.737
46800.666
46709.856
46615.67
46518.576
46419.174
46317.925
46215.309
46111.931
46008.298
45904.862
45802.122
45700.555
45600.522
45502.36
45406.442
45313.083
45222.505
45134.901
45050.469
46744.068
47135.93
47040.745
47035.901
47040.438
47037.409
47026.924
47012.118
46998.139
46987.73
46980.816
46976.358
46974.335
46977.772
47000.777
47061.806
47287.494
47664.015
48252.999
47971.106
47476.923
47142.664
47076.78
46976.509
46830.696
46683.644
46581.67
46545.347
46584.713
46765.96
47155.276
47436.156
47106.583
46934.181
46979.559
47194.177
47185.069
47118.035
47155.557
47226.648
47206.571
47205.73
47237.672
47267.458
47300.635
47334.09
47369.427
47395.816
47415.292
47429.554
47442.673
47462.169
47484.729
47507.798
47530.641
47552.722
47576.645
47598.262
47617.577
47631.959
47642.159
47646.444
47645.897
47640.385
47629.907
47614.669
47594.39
47569.074
47538.56
47502.63
47461.552
47415.039
47363.134
47306.123
47243.905
47176.853
47105.18
47029.105
46949.058
46865.468
46778.654
46689.13
46597.431
46503.97
46409.248
46313.833
46218.175
46122.673
46027.828
45934.095
45841.827
45751.368
45663.062
45577.186
45493.94
45413.49
46744.171
47136.049
47040.729
47035.949
47040.464
47037.401
47026.878
47012.054
46998.08
46987.685
46980.783
46976.335
46974.352
46977.923
47001.556
47064.069
47294.538
47679.238
48275.273
47984.936
47486.817
47153.795
47089.527
46989.566
46841.421
46692.18
46589.586
46553.053
46591.428
46768.978
47152.186
47442.604
47121.106
46953.866
46995.277
47199.225
47180.578
47107.237
47150.439
47233.113
47218.721
47221.62
47257.429
47289.559
47325.838
47360.966
47397.723
47424.569
47445.68
47461.24
47476.531
47497.591
47522.059
47546.868
47571.677
47595.734
47622.237
47646.302
47668.356
47685.85
47698.958
47706.469
47709.372
47707.045
47699.979
47688.54
47672.261
47651.19
47625.094
47593.831
47557.726
47516.308
47469.809
47418.421
47362.079
47301.146
47235.794
47166.246
47092.955
47016.289
46936.566
46854.305
46769.987
46684
46596.848
46509.05
46421.005
46333.151
46245.974
46159.878
46075.154
45992.102
45911.036
45832.195
45755.748
46744.323
47136.196
47040.705
47036.012
47040.501
47037.394
47026.824
47011.978
46998.01
46987.631
46980.744
46976.308
46974.37
46978.095
47002.428
47066.636
47302.251
47695.711
48297.971
47996.984
47495.231
47164.393
47101.604
47001.968
46851.766
46700.384
46596.667
46559.772
46597.491
46773.032
47150.838
47448.637
47134.771
46972.195
47010.728
47208.302
47178.235
47098.384
47145.463
47238.14
47230.271
47237.555
47277.315
47311.271
47350.555
47387.226
47425.369
47452.697
47475.416
47492.216
47509.616
47532.283
47558.646
47585.247
47611.978
47638.05
47666.905
47693.272
47717.946
47738.253
47754.072
47764.776
47771.197
47772.215
47768.428
47760.486
47748.077
47731.161
47709.357
47682.646
47651.319
47614.809
47573.557
47527.578
47476.898
47421.844
47362.561
47299.287
47232.492
47162.455
47089.524
47014.224
46936.952
46858.103
46778.179
46697.653
46616.907
46536.344
46456.41
46377.44
46299.72
46223.582
46149.338
46077.214
46744.524
47136.367
47040.674
47036.09
47040.547
47037.389
47026.763
47011.89
46997.929
46987.569
46980.699
46976.277
46974.391
46978.291
47003.394
47069.519
47310.649
47713.452
48320.641
48007.112
47502.182
47174.519
47113.115
47013.711
46861.44
46707.676
46602.405
46565.264
46602.894
46777.957
47150.874
47454.006
47147.567
46989.623
47025.554
47219.301
47186.85
47100.871
47146.326
47244.513
47242.327
47254.321
47297.391
47332.627
47374.808
47412.911
47452.27
47480.133
47504.414
47522.491
47541.966
47566.27
47594.446
47622.981
47651.472
47679.693
47710.623
47739.257
47766.479
47789.483
47808.08
47821.952
47831.471
47835.865
47835.604
47830.889
47822.014
47809.057
47791.405
47769.081
47742.299
47710.515
47674.28
47633.519
47588.271
47538.864
47485.388
47428.137
47367.546
47303.845
47237.429
47168.77
47098.231
47026.211
46953.188
46879.584
46805.749
46732.096
46659.045
46586.925
46516.015
46446.612
46378.976
46744.773
47136.563
47040.634
47036.183
47040.602
47037.384
47026.695
47011.791
46997.838
46987.499
46980.648
46976.242
46974.416
46978.51
47004.46
47072.729
47319.758
47732.461
48343.371
48015.443
47507.781
47184.238
47124.151
47024.587
46869.981
46713.369
46606.604
46569.632
46607.858
46783.441
47152.111
47457.885
47159.297
47006.035
47039.701
47231.088
47202.931
47117.302
47157.645
47254.39
47256.446
47272.462
47317.592
47353.566
47398.578
47438.06
47478.455
47506.892
47532.681
47552.017
47573.483
47599.53
47629.459
47660.005
47690.107
47720.571
47753.417
47784.375
47813.958
47839.413
47860.605
47877.452
47889.857
47897.567
47900.978
47899.729
47894.09
47884.776
47871.131
47853.128
47830.685
47803.483
47772.077
47736.329
47696.297
47652.298
47604.381
47552.912
47498.252
47440.606
47380.404
47318.079
47253.94
47188.406
47121.931
47054.896
46987.646
46920.582
46854.093
46788.435
46723.854
46660.645
46599.05
46745.069
47136.782
47040.587
47036.291
47040.666
47037.38
47026.619
47011.681
46997.737
46987.42
46980.591
46976.203
46974.444
46978.756
47005.629
47076.278
47329.599
47752.743
48365.977
48021.943
47512.091
47193.576
47134.727
47034.509
46877.182
46717.411
46609.592
46573.378
46612.619
46789.28
47154.272
47459.622
47169.958
47021.568
47053.325
47242.635
47222.492
47144.322
47180.148
47269.009
47273.352
47292.602
47338.244
47374.222
47421.767
47462.634
47503.931
47532.942
47560.149
47580.916
47604.234
47632.067
47663.706
47696.265
47727.918
47760.606
47795.252
47828.555
47860.378
47888.159
47911.965
47931.695
47946.995
47957.841
47964.495
47966.86
47964.508
47958.579
47948.654
47934.769
47916.5
47893.698
47866.919
47835.962
47800.923
47762.089
47719.491
47673.539
47624.511
47572.64
47518.368
47462.048
47404.003
47344.644
47284.392
47223.578
47162.542
47101.683
47041.323
46981.707
46923.111
46865.834
46745.412
47137.023
47040.53
47036.414
47040.738
47037.376
47026.535
47011.56
46997.626
46987.335
46980.529
46976.162
46974.476
46979.029
47006.907
47080.181
47340.198
47774.286
48388.348
48026.691
47515.211
47202.614
47144.7
47043.598
46883.417
46720.538
46612.484
46577.34
46617.417
46795.354
47156.788
47459.024
47179.45
47036.186
47066.502
47253.395
47243.296
47176.456
47211.189
47289.511
47293.552
47314.55
47358.881
47394.836
47444.784
47486.591
47528.572
47558.304
47586.891
47609.135
47634.193
47663.829
47697.152
47731.723
47764.93
47799.771
47836.15
47871.732
47905.686
47935.723
47962.06
47984.365
48002.35
48016.192
48025.954
48031.744
48033.127
48030.653
48024.068
48013.994
47999.734
47981.181
47958.867
47932.481
47902.235
47868.317
47830.802
47790.115
47746.457
47700.09
47651.443
47600.833
47548.553
47495.035
47440.649
47385.708
47330.556
47275.556
47221.006
47167.134
47114.211
46745.802
47137.285
47040.463
47036.552
47040.818
47037.373
47026.445
47011.429
46997.506
46987.243
46980.462
46976.117
46974.513
46979.331
47008.297
47084.449
47351.582
47797.072
48410.337
48029.714
47517.21
47211.377
47153.629
47051.906
46889.427
46724.251
46616.664
46582.131
46622.522
46801.433
47158.781
47456.67
47187.522
47049.561
47079.486
47263.226
47263.09
47209.513
47246.665
47315.948
47316.836
47337.853
47379.753
47415.324
47467.289
47510.18
47552.519
47582.819
47612.933
47636.659
47663.374
47694.877
47729.863
47766.371
47801.113
47838.035
47876.126
47913.931
47949.898
47982.138
48010.936
48035.703
48056.405
48073.209
48085.996
48094.812
48099.692
48100.824
48097.525
48090.871
48080.393
48065.924
48047.898
48025.889
48000.207
47970.959
47938.295
47902.604
47864.03
47822.891
47779.582
47734.354
47687.541
47639.553
47590.709
47541.297
47491.667
47442.162
47393.023
47344.478
46746.238
47137.565
47040.386
47036.704
47040.906
47037.369
47026.348
47011.288
46997.377
46987.144
46980.391
46976.07
46974.556
46979.663
47009.806
47089.096
47363.777
47821.074
48431.788
48031.052
47518.19
47220.052
47161.068
47059.195
46895.638
46729.502
46622.624
46587.821
46628.046
46807.126
47159.47
47453.537
47194.222
47061.421
47092.316
47272.714
47279.145
47240.2
47282.691
47346.368
47342.714
47362.381
47400.592
47435.733
47489.485
47533.075
47575.74
47606.833
47638.103
47663.439
47691.833
47725.191
47761.866
47800.234
47836.479
47875.456
47915.139
47955.14
47992.996
48027.392
48058.552
48085.608
48108.891
48128.36
48143.925
48155.758
48164.041
48168.803
48168.964
48165.544
48158.597
48147.993
48134.043
48116.227
48094.902
48070.089
48042.036
48011.078
47977.346
47941.166
47902.9
47862.771
47821.118
47778.334
47734.681
47690.47
47646.042
47601.683
47557.621
46746.719
47137.863
47040.299
47036.87
47041.001
47037.366
47026.244
47011.138
46997.241
46987.039
46980.315
46976.02
46974.606
46980.029
47011.438
47094.136
47376.81
47846.263
48452.531
48030.75
47518.155
47228.876
47167.044
47065.014
46901.55
46735.614
46629.633
46594.145
46633.772
46812.004
47158.67
47450.493
47199.486
47071.798
47104.962
47282.792
47289.995
47263.299
47317.462
47378.853
47370.064
47387.261
47421.238
47455.926
47511.199
47555.465
47598.16
47630.013
47662.774
47689.416
47719.477
47754.736
47793.138
47833.269
47871.022
47911.977
47953.151
47995.314
48034.901
48071.462
48104.854
48134.168
48160.03
48182.045
48200.437
48215.281
48226.601
48234.439
48238.095
48238.195
48234.638
48227.509
48217.286
48203.464
48186.288
48165.708
48142.035
48115.556
48086.395
48054.908
48021.393
47986.05
47949.268
47911.366
47872.593
47833.256
47793.677
47754.108
46747.246
47138.177
47040.2
47037.052
47041.103
47037.362
47026.133
47010.98
46997.097
46986.929
46980.235
46975.968
46974.664
46980.431
47013.2
47099.581
47390.708
47872.606
48472.378
48028.869
47517.033
47238.04
47172.063
47069.191
46906.369
46741.781
46637.27
46600.819
46639.316
46815.842
47157.268
47447.666
47203.448
47080.935
47117.219
47293.803
47296.635
47278.101
47347.093
47411.951
47397.904
47411.886
47441.375
47475.786
47532.309
47577.146
47619.711
47652.525
47686.569
47714.847
47746.456
47783.488
47823.718
47865.477
47904.783
47947.606
47990.273
48034.486
48075.655
48114.394
48149.827
48181.406
48209.758
48234.107
48255.07
48272.649
48286.892
48297.718
48304.837
48308.445
48308.442
48304.622
48297.755
48287.646
48274.407
48257.869
48238.346
48216.103
48191.266
48164.203
48135.149
48104.337
48072.127
48038.802
48004.588
47969.818
47934.772
46747.815
47138.508
47040.084
47037.25
47041.212
47037.357
47026.015
47010.813
46996.946
46986.813
46980.151
46975.915
46974.729
46980.87
47015.1
47105.443
47405.493
47900.072
48491.116
48025.515
47514.833
47247.732
47176.57
47071.941
46909.888
46747.832
46645.025
46607.378
46644.478
46818.97
47156.706
47444.778
47206.387
47089.11
47128.934
47305.7
47301.219
47285.457
47368.165
47442.728
47425.364
47435.463
47460.64
47495.088
47552.789
47598.157
47640.546
47674.274
47709.637
47739.488
47772.814
47811.507
47853.542
47896.866
47937.808
47982.296
48026.566
48072.645
48115.358
48156.232
48193.478
48227.301
48257.958
48284.632
48308.235
48328.483
48345.63
48359.241
48369.469
48376.266
48379.607
48379.31
48375.625
48368.883