/*--------------------------------*- C++ -*----------------------------------*\
  =========                 |
  \\      /  F ield         | OpenFOAM: The Open Source CFD Toolbox
   \\    /   O peration     | Website:  https://openfoam.org
    \\  /    A nd           | Version:  13
     \\/     M anipulation  |
\*---------------------------------------------------------------------------*/
FoamFile
{
    format      ascii;
    class       volScalarField;
    location    "400";
    object      nut;
}
// * * * * * * * * * * * * * * * * * * * * * * * * * * * * * * * * * * * * * //

dimensions      [0 2 -1 0 0 0 0];

internalField   nonuniform List<scalar> 
19257
(
0.52893637
0.38678599
0.29464963
0.24497817
0.2211516
0.20878414
0.20143726
0.19666358
0.19341807
0.19112863
0.18945995
0.18820218
0.18722837
0.18645715
0.1858357
0.18532781
0.18490815
0.18455819
0.18426401
0.18401493
0.18380276
0.18362125
0.18346581
0.18333329
0.18322188
0.18313124
0.18306272
0.18301974
0.18300825
0.1830374
0.18312056
0.1832768
0.18353351
0.18393061
0.18452744
0.1854144
0.18673201
0.18870617
0.19170677
0.1963829
0.20390552
0.21698603
0.24326775
0.30648429
0.41804623
0.49089852
0.39812081
0.2136903
0.026169848
0.48417373
0.36962214
0.28768149
0.24241521
0.21973214
0.20788983
0.20094421
0.1964664
0.19340974
0.19123005
0.18961825
0.18838621
0.18741963
0.18664544
0.18601556
0.18549675
0.18506541
0.18470405
0.18439934
0.1841409
0.18392063
0.18373227
0.1835711
0.18343377
0.18331821
0.18322376
0.18315136
0.18310393
0.18308686
0.18310863
0.1831818
0.1833244
0.18356233
0.18393326
0.18449297
0.18532607
0.18656389
0.18841721
0.19123128
0.19560905
0.2026383
0.21475439
0.23865292
0.29677317
0.40956113
0.50066581
0.42163347
0.229086
0.026701267
0.42225966
0.34667361
0.27870038
0.23872144
0.21783205
0.20677807
0.20033403
0.19619233
0.19334958
0.19129743
0.18975553
0.1885585
0.18760585
0.18683327
0.18619788
0.18566978
0.18522741
0.1848546
0.18453885
0.18427027
0.184041
0.18384485
0.18367706
0.18353415
0.18341381
0.18331509
0.18323854
0.18318659
0.18316405
0.18317875
0.18324244
0.18337218
0.18359253
0.18393917
0.18446483
0.18524914
0.18641537
0.18816079
0.19080852
0.1949201
0.20150889
0.21277816
0.23462173
0.28778088
0.39955716
0.50679906
0.44385464
0.24382981
0.027201446
0.37899057
0.31954879
0.2673734
0.23389298
0.21546212
0.20547075
0.19962688
0.1958581
0.19324742
0.1913353
0.18987327
0.18871921
0.18778694
0.18702087
0.18638352
0.18584848
0.18539643
0.18501272
0.18468586
0.18440665
0.18416762
0.18396279
0.18378747
0.1836381
0.18351224
0.18340866
0.18332755
0.18327086
0.18324283
0.18325061
0.18330513
0.18342248
0.18362598
0.18394951
0.18444311
0.18518211
0.1862829
0.18793107
0.19043074
0.19430775
0.20051184
0.21105691
0.23119903
0.27988241
0.3891809
0.50966741
0.46395967
0.25709325
0.027625984
0.34319837
0.2939521
0.25534581
0.22837291
0.21274037
0.20401691
0.19884946
0.19548067
0.19311214
0.19134673
0.18997144
0.18886692
0.18796096
0.1872064
0.186571
0.18603183
0.18557195
0.18517837
0.18484077
0.18455077
0.18430146
0.1840872
0.18390348
0.18374679
0.18361462
0.18350552
0.18341936
0.18335766
0.18332407
0.18332505
0.18337071
0.18347618
0.18366352
0.18396495
0.18442805
0.18512436
0.18616421
0.18772297
0.19008804
0.19375398
0.19961488
0.20952587
0.22822681
0.27289069
0.37865921
0.50970938
0.48207973
0.26941101
0.028009007
0.30902599
0.27489924
0.24523987
0.22304292
0.20995328
0.20252667
0.19805284
0.19508641
0.19295688
0.191337
0.19005106
0.18900055
0.1881258
0.18738736
0.18675789
0.18621776
0.18575239
0.18535048
0.18500301
0.18470251
0.18444275
0.18421856
0.18402573
0.18386093
0.18372163
0.1836063
0.18351454
0.18344745
0.18340814
0.18340237
0.18343944
0.18353347
0.18370529
0.18398547
0.18441927
0.18507478
0.18605688
0.18753192
0.18977238
0.1932453
0.19879553
0.20814368
0.22560722
0.26670366
0.36828445
0.50744886
0.49804363
0.28070494
0.028362817
0.27669395
0.26002918
0.23658662
0.2181135
0.20729852
0.20110622
0.19729305
0.19470429
0.19279708
0.19131394
0.19011529
0.18912046
0.18828016
0.18756156
0.18694163
0.18640373
0.18593548
0.18552724
0.18517124
0.184861
0.18459104
0.18435677
0.18415439
0.18398081
0.18383367
0.18371139
0.1836134
0.18354047
0.18349519
0.18348267
0.18351138
0.18359443
0.18375139
0.18401121
0.18441689
0.18503326
0.18596021
0.18735594
0.18947958
0.19277371
0.19803932
0.20688205
0.22326901
0.26121878
0.35824937
0.50337963
0.51181311
0.29104927
0.028698803
0.27583606
0.25144719
0.22926998
0.21364237
0.20490462
0.19983692
0.19661384
0.19435685
0.19264617
0.19128592
0.19016853
0.18922815
0.1884235
0.18772714
0.18711965
0.18658693
0.1861185
0.1857062
0.18534345
0.18502472
0.1847453
0.18450121
0.18428915
0.1841064
0.18395084
0.18382096
0.18371613
0.18363685
0.18358528
0.18356593
0.18358645
0.18365897
0.18380179
0.18404221
0.18442102
0.18499991
0.18587407
0.18719425
0.18920737
0.19233418
0.19733626
0.20572039
0.22115922
0.25634249
0.34868088
0.49793608
0.52343006
0.30054064
0.029026405
0.25068775
0.23662909
0.22067693
0.20923788
0.20274185
0.19873181
0.19602744
0.19405334
0.19251233
0.19125989
0.19021531
0.18932561
0.18855582
0.18788262
0.18728949
0.18676439
0.18629831
0.18588435
0.18551692
0.18519137
0.1849037
0.18465053
0.18442911
0.18423714
0.18407284
0.18393488
0.18382265
0.18373652
0.1836783
0.18365195
0.18366441
0.18372681
0.18385623
0.18407832
0.18443169
0.18497493
0.18579877
0.18704696
0.18895519
0.19192446
0.19668071
0.20464515
0.21924012
0.25199452
0.33966036
0.49148856
0.53300119
0.30928536
0.029352174
0.25113481
0.22699478
0.21392334
0.20579949
0.20102971
0.19783725
0.1955431
0.19379838
0.1924
0.19124028
0.19025908
0.1894146
0.18867723
0.18802675
0.18744887
0.18693309
0.18647155
0.18605824
0.18568838
0.18535799
0.18506368
0.18480266
0.18457265
0.18437187
0.18419887
0.18405262
0.18393263
0.18383924
0.18377402
0.18374048
0.18374494
0.18379762
0.18391439
0.18411933
0.18444885
0.18495857
0.18573486
0.1869149
0.18872383
0.19154466
0.19607081
0.20364904
0.21748702
0.24811111
0.33124594
0.48435946
0.54066857
0.31735495
0.029678434
0.226066
0.21456544
0.20788122
0.20293115
0.19960789
0.19709555
0.19514158
0.19358742
0.19230905
0.19122853
0.19030152
0.18949614
0.18878766
0.18815839
0.18759566
0.18709015
0.18663477
0.18622417
0.18585407
0.18552098
0.18522197
0.18495471
0.1847174
0.18450866
0.18432747
0.18417311
0.1840453
0.18394443
0.18387197
0.18383112
0.18382762
0.18387094
0.18397583
0.18416483
0.18447229
0.18495093
0.18568292
0.18679915
0.18851491
0.19119658
0.19550786
0.20273031
0.21588649
0.24464564
0.32348586
0.47684377
0.54660217
0.32478135
0.030004786
0.215509
0.20919706
0.20472869
0.20119016
0.19862671
0.19654333
0.19483082
0.19342215
0.19223986
0.19122485
0.19034319
0.18957063
0.18888694
0.18827653
0.18772801
0.18723288
0.18678467
0.18637836
0.18600998
0.18567628
0.18537463
0.18510305
0.18486008
0.18464473
0.18445634
0.18429452
0.18415924
0.18405103
0.18397134
0.18392317
0.18391187
0.18394622
0.18404
0.18421437
0.18450173
0.18495202
0.18564345
0.18670096
0.18833052
0.1908832
0.19499541
0.20189141
0.21443359
0.2415653
0.3164194
0.46921501
0.55099564
0.33157444
0.030327114
0.21030596
0.20621212
0.20277573
0.20000633
0.19790947
0.19612268
0.19458987
0.19329444
0.19218895
0.19122773
0.19038353
0.18963799
0.18897478
0.18838037
0.18784438
0.18735904
0.18691825
0.18651722
0.18615202
0.18581952
0.18551721
0.18524331
0.1849966
0.18477638
0.18458224
0.18441411
0.18427221
0.18415723
0.18407068
0.18401549
0.18399671
0.18402262
0.18410616
0.18426728
0.18453662
0.1849616
0.1856167
0.1866213
0.1881727
0.19060788
0.19453825
0.20113766
0.21312995
0.23884973
0.31008148
0.46173339
0.55405825
0.33771396
0.030638807
0.20718731
0.20429961
0.20146321
0.19915862
0.19736873
0.19579763
0.19440324
0.19319705
0.19215299
0.19123541
0.19042181
0.18969793
0.18905103
0.18846942
0.18794379
0.18746691
0.18703307
0.18663751
0.18627631
0.18594627
0.18564495
0.18537061
0.18512217
0.18489901
0.18470096
0.18452812
0.18438093
0.18426023
0.18416767
0.18410615
0.18408055
0.18409877
0.18417312
0.18432253
0.18457613
0.18497909
0.18560254
0.18656079
0.18804319
0.19037388
0.19414167
0.20047615
0.21198185
0.23648875
0.30450341
0.45464708
0.55601358
0.3431592
0.030932075
0.20520178
0.20301996
0.20056278
0.19854861
0.19696338
0.19555041
0.19426232
0.1931256
0.19212962
0.19124673
0.19045745
0.18975045
0.18911579
0.18854369
0.18802582
0.18755553
0.18712735
0.18673666
0.18637944
0.18605247
0.18575325
0.18548002
0.18523162
0.1850075
0.18480751
0.18463187
0.18448111
0.18435623
0.18425896
0.18419225
0.1841609
0.18417254
0.18423901
0.18437846
0.1846188
0.18500329
0.18560015
0.18651921
0.18794277
0.19018351
0.19381012
0.1999138
0.21099731
0.23447874
0.29971153
0.44818731
0.55709111
0.34784373
0.03119735
0.20389496
0.20215058
0.19994374
0.19811456
0.19666447
0.19536598
0.19415893
0.19307549
0.19211647
0.19126048
0.19049002
0.18979556
0.18916943
0.18860359
0.18809071
0.18762464
0.18720029
0.18681307
0.18645907
0.18613502
0.18583835
0.18556715
0.18532019
0.18509677
0.1848967
0.18472018
0.18456777
0.18444053
0.18434025
0.18426991
0.18423427
0.1842408
0.18430101
0.18443253
0.18466229
0.18503208
0.18560769
0.18649521
0.18787088
0.19003754
0.19354645
0.19945621
0.21018424
0.23281983
0.29572522
0.44255995
0.55753489
0.35174324
0.031430908
0.20302504
0.20156322
0.19952398
0.19781246
0.19644901
0.19523198
0.19408591
0.19304261
0.19211115
0.19127531
0.19051883
0.18983315
0.1892123
0.18864978
0.18813918
0.1876749
0.18725214
0.1868666
0.18651448
0.18619254
0.18589814
0.18562924
0.18538441
0.18516282
0.18496409
0.18478834
0.18463607
0.18450832
0.18440687
0.18433468
0.18429646
0.18429959
0.18435543
0.18448119
0.18470321
0.18506213
0.18562192
0.18648568
0.18782476
0.18993389
0.19334991
0.19910461
0.20954588
0.23150919
0.29254962
0.43792726
0.55758574
0.35491526
0.031625803
0.20245295
0.20117673
0.19924854
0.19760974
0.19629891
0.1951378
0.19403618
0.19302202
0.19211025
0.19128887
0.19054237
0.18986249
0.18924442
0.18868288
0.18817232
0.18770762
0.18728438
0.18689863
0.1865468
0.18622572
0.18593273
0.1856657
0.18542304
0.18520368
0.1850071
0.18483321
0.18468244
0.18455569
0.18445468
0.18438227
0.18434313
0.18434458
0.18439788
0.18452004
0.18473699
0.18508864
0.18563768
0.18648505
0.18779844
0.18986641
0.19321452
0.19885387
0.20907847
0.23054007
0.29018629
0.43442004
0.55744429
0.35736748
0.031772112
0.20210228
0.2009415
0.19908195
0.19748445
0.19620163
0.1950753
0.19400342
0.19300882
0.19211006
0.19129819
0.19055815
0.18988161
0.18926439
0.18870216
0.18818999
0.18772324
0.18729793
0.18691044
0.18655747
0.18623599
0.18594338
0.18567746
0.18543649
0.18521925
0.18502499
0.18485348
0.18470493
0.18458013
0.1844806
0.18440911
0.18437025
0.18437133
0.18442352
0.18454376
0.18475774
0.18510498
0.18564745
0.18648478
0.18778232
0.18982456
0.19312942
0.19869398
0.20877555
0.2299109
0.28865885
0.43216214
0.55726654
0.3590016
0.031861708
0.20195902
0.20084236
0.19901055
0.1974296
0.19615754
0.1950453
0.19398597
0.19299962
0.19210602
0.19129748
0.19055917
0.18988277
0.1892644
0.18870019
0.18818557
0.18771624
0.18728852
0.18689907
0.18654483
0.1862229
0.18593073
0.18566608
0.18542712
0.18521243
0.1850211
0.1848526
0.18470699
0.18458478
0.18448735
0.18441738
0.1843794
0.18438067
0.18443237
0.1845514
0.18476346
0.18510806
0.18564708
0.18647989
0.18777126
0.18980435
0.19309423
0.19863232
0.20866062
0.22967204
0.28808208
0.43132266
0.5571646
0.35959419
0.031889734
0.20206172
0.20092324
0.19908447
0.19750245
0.19623195
0.19511441
0.1940473
0.1930541
0.19215413
0.19133897
0.190594
0.18991146
0.1892877
0.18871881
0.18820017
0.18772752
0.18729716
0.18690575
0.18655018
0.18622751
0.18593507
0.18567048
0.18543174
0.18521729
0.185026
0.18485729
0.18471096
0.18458756
0.18448849
0.1844165
0.1843763
0.18437529
0.18442482
0.18454207
0.18475309
0.1850979
0.18563916
0.18647734
0.18777876
0.18982888
0.1931462
0.1987273
0.20882653
0.22997359
0.28870805
0.43213558
0.55719427
0.35893204
0.031856259
0.20237111
0.20114729
0.19926273
0.19765574
0.19636946
0.19522453
0.19413038
0.19311689
0.19220076
0.19137104
0.19061328
0.18992041
0.18928862
0.18871347
0.18819006
0.18771387
0.18728106
0.18688808
0.18653163
0.18620857
0.18591606
0.18565158
0.18541295
0.18519849
0.18500701
0.18483774
0.1846906
0.18456609
0.18446578
0.1843926
0.1843514
0.18434983
0.1843995
0.18451796
0.1847318
0.18508185
0.18563193
0.18648433
0.18780815
0.18989321
0.19326558
0.19893483
0.20918958
0.23066886
0.29028521
0.43436537
0.55730432
0.35720755
0.031761683
0.20289107
0.20152593
0.19955916
0.19789949
0.19657406
0.19537914
0.19424051
0.19319408
0.19225198
0.19139986
0.19062339
0.18991585
0.18927286
0.18868923
0.18815945
0.18767876
0.18724293
0.18684812
0.18649065
0.18616716
0.18587458
0.18561014
0.18537161
0.18515714
0.18496546
0.18479587
0.1846482
0.18452313
0.18442232
0.18434888
0.18430792
0.18430733
0.1843591
0.18448126
0.18470112
0.18506055
0.18562494
0.18649895
0.1878554
0.18999012
0.19343984
0.19923348
0.20971159
0.23169231
0.29268203
0.437828
0.55737759
0.35464928
0.031610123
0.20368678
0.20210926
0.20001331
0.1982616
0.19686379
0.19559025
0.19438592
0.19329085
0.19231045
0.19142647
0.19062427
0.18989709
0.18923936
0.1886447
0.188107
0.18762087
0.1871816
0.18678476
0.18642633
0.18610253
0.18581002
0.18554594
0.1853078
0.18509372
0.18490238
0.18473301
0.18458556
0.18446076
0.18436046
0.18428797
0.18424864
0.18425071
0.1843066
0.18443497
0.18466402
0.18503692
0.185621
0.18652384
0.18792294
0.19012167
0.19367036
0.19962331
0.2103894
0.2330371
0.29586722
0.44239412
0.55725517
0.35136504
0.031409869
0.20487896
0.20298105
0.20068755
0.19878393
0.19726457
0.19587269
0.19457499
0.19341098
0.19237687
0.19144947
0.1906136
0.18986128
0.18918513
0.1885773
0.18803049
0.18753855
0.18709582
0.18669729
0.18633828
0.18601471
0.18572294
0.18545982
0.18522283
0.18500994
0.18481977
0.1846516
0.18450536
0.18438194
0.18428334
0.18421312
0.18417694
0.18418342
0.18424553
0.18438266
0.1846241
0.18501454
0.18562364
0.18656247
0.18801412
0.19029112
0.1939603
0.20010739
0.21122637
0.23471151
0.2998409
0.44793364
0.55673601
0.34735092
0.031170956
0.20667342
0.20427566
0.20167611
0.19952571
0.19781004
0.19624374
0.19481498
0.19355575
0.19244882
0.19146509
0.19058707
0.1898045
0.18910702
0.18848456
0.18792837
0.18743089
0.18698548
0.18658607
0.18622751
0.1859052
0.18561518
0.18535416
0.18511935
0.1849087
0.18472078
0.18455481
0.18441089
0.18428999
0.18419434
0.18412775
0.18409623
0.18410884
0.18417919
0.18432755
0.18458441
0.18499626
0.18563539
0.18661694
0.1881305
0.19049931
0.19430959
0.20068478
0.2122214
0.23672215
0.30460138
0.45428668
0.55557988
0.34255055
0.03090039
0.20945675
0.20623895
0.2031424
0.20058226
0.19855157
0.19672836
0.19511599
0.19372652
0.1925237
0.19146905
0.19054093
0.18972387
0.18900329
0.18836604
0.18780114
0.18729934
0.1868525
0.18645372
0.18609697
0.18577724
0.18549028
0.18523247
0.18500101
0.18479368
0.18460902
0.18444636
0.18430579
0.18418852
0.18409696
0.18403525
0.18400978
0.18403014
0.18411062
0.18427247
0.18454753
0.18498428
0.18565799
0.18668837
0.18827239
0.19074551
0.19471622
0.20135211
0.2133707
0.2390742
0.31013362
0.46125098
0.55354395
0.33698935
0.030601913
0.21389046
0.20917811
0.2052594
0.20203317
0.19951697
0.19733442
0.19547786
0.19391966
0.1925965
0.1914577
0.19047286
0.18961883
0.18887479
0.18822368
0.18765169
0.18714731
0.18670091
0.18630431
0.18595092
0.18563516
0.18535245
0.18509906
0.18487193
0.18466887
0.18448842
0.18432991
0.18419364
0.18408093
0.1839945
0.18393879
0.18392063
0.18395018
0.18404248
0.18421982
0.18451553
0.18498026
0.18569254
0.18677717
0.18843932
0.19102824
0.1951775
0.20210568
0.21467113
0.2417766
0.31641525
0.46859898
0.55039943
0.33073494
0.030285096
0.22136844
0.21464086
0.20899277
0.20444234
0.20099134
0.19818796
0.19595038
0.19415144
0.19267143
0.19143157
0.19038379
0.1894912
0.18872459
0.18806156
0.18748467
0.18697986
0.18653567
0.18614297
0.18579427
0.18548366
0.18520624
0.18495808
0.18473612
0.1845381
0.18436256
0.18420897
0.18407771
0.18397037
0.18388991
0.18384116
0.18383138
0.18387136
0.18397692
0.18417145
0.18448988
0.18498519
0.18573946
0.18688305
0.18863018
0.19134548
0.19569048
0.20294213
0.21612138
0.2448441
0.3234178
0.47608568
0.54592229
0.32382913
0.029957705
0.24393233
0.22800599
0.21725282
0.20909619
0.2035195
0.19952148
0.19662684
0.19445653
0.19276071
0.19139649
0.19027768
0.18934525
0.18855746
0.18788486
0.18730547
0.18680227
0.18636208
0.18597454
0.18563168
0.18532711
0.18505571
0.18481347
0.18459722
0.18440474
0.18423465
0.18408648
0.18396082
0.18385946
0.18378567
0.18374465
0.18374415
0.18379556
0.18391555
0.18412866
0.18447147
0.18499946
0.18579856
0.18700517
0.18884348
0.19169514
0.19625262
0.20385953
0.21772388
0.24829998
0.33110758
0.48345292
0.53990127
0.31629369
0.02962632
0.27522849
0.24450164
0.2272144
0.21478337
0.20663931
0.20118373
0.19745689
0.19481694
0.19285947
0.19135269
0.19015761
0.18918539
0.18837869
0.18769917
0.18711958
0.18661983
0.18618492
0.18580363
0.18546729
0.18516929
0.18490436
0.18466836
0.18445819
0.18427159
0.18410727
0.18396491
0.18384523
0.18375031
0.18368371
0.18365101
0.18366048
0.18372411
0.18385942
0.18409213
0.18446058
0.18502291
0.18586917
0.18714241
0.18907769
0.19207551
0.19686255
0.20485843
0.21948662
0.25217836
0.33944512
0.49042819
0.5321391
0.30812057
0.029295031
0.30637643
0.26224542
0.23695924
0.22038064
0.20983983
0.20293432
0.19832762
0.19518421
0.19295004
0.19129649
0.1900254
0.18901596
0.18819337
0.18750959
0.1869318
0.18643688
0.18600826
0.18563376
0.18530437
0.18501323
0.18475493
0.18452537
0.18432136
0.18414079
0.18398241
0.18384605
0.18373263
0.18364446
0.18358541
0.18356148
0.18358139
0.18365778
0.18380901
0.18406202
0.184457
0.18505493
0.18595037
0.18729358
0.18933159
0.19248584
0.19752072
0.2059428
0.22142487
0.25652585
0.34838089
0.49671664
0.52246059
0.29928017
0.028964197
0.34251405
0.28134694
0.24595051
0.22539129
0.21284588
0.20459465
0.19913989
0.19551159
0.19301443
0.19122318
0.18988276
0.1888411
0.18800631
0.18732074
0.18674632
0.18625717
0.18583527
0.18546783
0.18514542
0.18486111
0.18460942
0.18438622
0.1841884
0.18401386
0.18386147
0.18373121
0.18362416
0.18354292
0.18349164
0.18347673
0.18350738
0.18359684
0.18376433
0.18403804
0.18446016
0.18509474
0.18604124
0.18745789
0.1896049
0.19292708
0.1982305
0.2071217
0.22356462
0.26140577
0.35785499
0.5019955
0.510717
0.28970342
0.028631452
0.36424992
0.29596351
0.2529172
0.22954479
0.21553706
0.20606606
0.19983546
0.19577087
0.19304139
0.19113092
0.18973205
0.18866478
0.18782155
0.18713623
0.18656621
0.18608323
0.18566818
0.18530766
0.18499208
0.18471441
0.18446914
0.18425216
0.18406034
0.18389175
0.18374528
0.18362109
0.18352045
0.18344618
0.18340277
0.18339698
0.18343847
0.18354109
0.18372496
0.18401958
0.1844693
0.18514152
0.18614115
0.18763523
0.18989863
0.19340234
0.19899877
0.20841017
0.2259448
0.26689843
0.36778414
0.50589342
0.49679353
0.27928644
0.028290174
0.3680495
0.30474245
0.25795844
0.23306041
0.21790512
0.20731407
0.20039384
0.19595194
0.19302778
0.19102066
0.18957647
0.18849065
0.18764247
0.1869589
0.18639375
0.18591694
0.18550841
0.18515448
0.18484531
0.18457392
0.18433476
0.18412371
0.18393771
0.18377487
0.1836342
0.18351598
0.18342165
0.18335431
0.18331872
0.18332201
0.18337431
0.18349002
0.18369023
0.18400588
0.18448367
0.18519476
0.18625012
0.18782669
0.19021565
0.19391758
0.19983674
0.20983058
0.22862066
0.27309908
0.37803974
0.50797401
0.48063908
0.26793456
0.027930768
0.36612715
0.30915215
0.26241952
0.23645652
0.21998871
0.20834078
0.20081753
0.19605766
0.19297692
0.19089622
0.18941957
0.18832169
0.18747132
0.1867904
0.18623011
0.18575905
0.18535655
0.18500864
0.18470542
0.18443987
0.18420644
0.18400101
0.18382053
0.18366321
0.18352812
0.18341571
0.18332756
0.183267
0.18323908
0.18325129
0.18331419
0.18344283
0.18365928
0.1839961
0.18450264
0.18525434
0.18636893
0.18803459
0.19056083
0.19448184
0.20076054
0.21141445
0.23166918
0.28011656
0.3884281
0.5077387
0.4622832
0.25557956
0.0275415
0.36407457
0.31352422
0.26776007
0.24013129
0.22183564
0.2091658
0.20111832
0.19609739
0.19289616
0.19076275
0.18926492
0.18816021
0.18730958
0.1866316
0.18607576
0.18560977
0.18521255
0.18487002
0.18457214
0.18431193
0.18408384
0.18388365
0.18370839
0.18355628
0.18342652
0.18331964
0.18323742
0.18318342
0.18316292
0.1831838
0.18325708
0.18339847
0.18363115
0.18398959
0.18452615
0.18532115
0.18650001
0.18826376
0.19094263
0.19510923
0.20179383
0.21320651
0.23519531
0.28805682
0.39864082
0.50463321
0.44189105
0.24230172
0.027109376
0.36270129
0.31904885
0.27459284
0.24406235
0.22344869
0.20980645
0.20130825
0.19608237
0.19279376
0.19062538
0.18911504
0.18800722
0.18715748
0.18648224
0.18593007
0.18546824
0.18507551
0.18473767
0.18444467
0.18418932
0.18396608
0.18377075
0.18360032
0.18345313
0.18332843
0.18322684
0.18315034
0.18310272
0.18308957
0.18311913
0.18320288
0.18335722
0.18360662
0.18398781
0.18455665
0.1853992
0.18664982
0.18852438
0.19137719
0.19582566
0.20298041
0.21529279
0.23939982
0.29714806
0.40840889
0.49808786
0.41942444
0.227757
0.026598805
0.3733794
0.32869203
0.28297982
0.24804176
0.22476732
0.21025676
0.20139229
0.19601908
0.19267279
0.19048348
0.18896718
0.18785877
0.18701056
0.18633789
0.18578888
0.18533063
0.18494185
0.18460825
0.1843197
0.18406894
0.18385036
0.18365965
0.18349391
0.1833514
0.1832315
0.18313491
0.18306378
0.18302213
0.18301588
0.18305366
0.1831475
0.18331474
0.18358134
0.1839867
0.18459086
0.18548644
0.18681815
0.18881867
0.19186957
0.19663862
0.20433242
0.21770625
0.24436278
0.30693811
0.41582365
0.48642521
0.39604788
0.21349464
0.026055428
0.011214358
0.041484742
0.062304082
0.096046032
0.13744144
0.18051379
0.22009091
0.25074155
0.26712198
0.26660412
0.25255487
0.2333949
0.21653805
0.20455242
0.19669824
0.19154264
0.18804052
0.18558549
0.18383426
0.1825779
0.18167757
0.18103579
0.18058149
0.1802638
0.18004411
0.17989753
0.17980204
0.17975014
0.17972545
0.17973751
0.17976342
0.17983683
0.17990925
0.18006847
0.18019862
0.18051346
0.18073405
0.1813891
0.1817951
0.18330383
0.18424341
0.18830516
0.19104662
0.20517594
0.21615785
0.26275609
0.35192386
0.50807699
1.0075629
0.011733626
0.041877191
0.068643323
0.10764166
0.15195363
0.195917
0.23445455
0.2618738
0.27301995
0.26677552
0.24892687
0.22895243
0.21308941
0.20236811
0.19541564
0.19079486
0.18760101
0.18533221
0.18370048
0.18252425
0.18167893
0.18107537
0.18064776
0.1803488
0.18014228
0.18000501
0.17991606
0.17986878
0.17984732
0.17986161
0.1798891
0.17996333
0.18003663
0.18019583
0.18032757
0.18064234
0.1808672
0.1815223
0.18193681
0.18344604
0.18439881
0.18846861
0.19120642
0.2054243
0.21604517
0.26332246
0.34901241
0.50363717
1.0134744
0.012106064
0.043901444
0.07453975
0.11672272
0.1629746
0.20766137
0.24534578
0.26989301
0.27642273
0.26550095
0.24510021
0.22509629
0.21034201
0.20068215
0.19442015
0.19020063
0.18724337
0.18512294
0.18358971
0.18248114
0.18168309
0.18111283
0.18070881
0.18042662
0.18023205
0.18010332
0.18002053
0.17997765
0.17995947
0.17997612
0.18000566
0.18008116
0.18015629
0.1803162
0.18045074
0.18076603
0.18099625
0.18165174
0.18207552
0.18358543
0.1845515
0.18862747
0.19136114
0.20565122
0.21587821
0.26375117
0.34530918
0.49915631
1.0205175
0.012423622
0.045515543
0.079181649
0.1238954
0.1718899
0.21730472
0.25419848
0.27600031
0.27827302
0.26343371
0.24135506
0.2217673
0.20810072
0.19932359
0.19360494
0.18970159
0.18693678
0.18494165
0.18349408
0.18244556
0.18169013
0.1811503
0.18076807
0.18050151
0.18031821
0.18019758
0.18012069
0.18008207
0.1800672
0.18008625
0.18011811
0.18019507
0.18027261
0.18043351
0.18057182
0.18088777
0.18112463
0.18178009
0.18221468
0.18372334
0.18470466
0.1887794
0.19151523
0.20584036
0.21568829
0.26399443
0.34118341
0.49481118
1.0270914
0.012703604
0.046991246
0.083302137
0.13023863
0.17981777
0.22586956
0.26189107
0.28091532
0.27913702
0.26096128
0.2378322
0.21890248
0.20624264
0.19819747
0.19291523
0.18926933
0.18666668
0.18478065
0.18340946
0.18241543
0.18169918
0.18118761
0.18082582
0.18057403
0.18040146
0.18028858
0.18021741
0.18018295
0.18017143
0.18019294
0.18022737
0.18030599
0.18038646
0.18054864
0.18069151
0.18100835
0.18125277
0.18190816
0.18235437
0.18386063
0.18485777
0.18892496
0.19166679
0.20599019
0.21547913
0.26402526
0.33696065
0.49083093
1.0381493
0.012964267
0.048360959
0.08710348
0.13610831
0.18719403
0.23380715
0.26884115
0.28499344
0.27930251
0.25827257
0.23456435
0.21642121
0.20467208
0.1972387
0.19231524
0.18888544
0.18642342
0.18463469
0.183333
0.18238924
0.18170955
0.1812246
0.18088222
0.18064455
0.18048227
0.18037688
0.18031132
0.18028096
0.18027286
0.18029693
0.1803342
0.18041469
0.18049857
0.18066234
0.18081043
0.18112844
0.1813812
0.18203643
0.18249495
0.18399741
0.18501104
0.1890633
0.19181652
0.20609665
0.21526795
0.26382505
0.33304378
0.48726963
1.0407373
0.01321443
0.04968558
0.090759331
0.141758
0.19430221
0.24139366
0.2752881
0.28842579
0.27892438
0.25546454
0.23154513
0.21425254
0.20332059
0.19640433
0.19178234
0.18853847
0.18620112
0.18450066
0.18326307
0.18236626
0.18172105
0.18126141
0.18093758
0.18071347
0.18056115
0.18046302
0.18040295
0.18037668
0.1803721
0.18039885
0.18043922
0.18052185
0.18060957
0.18077527
0.18092918
0.18124862
0.18151036
0.18216533
0.18263667
0.18413369
0.18516447
0.18919367
0.19196453
0.20615727
0.21507007
0.26339061
0.32982262
0.48439902
1.0330183
0.013460176
0.051007663
0.094371535
0.14733573
0.20131229
0.24879379
0.28136621
0.29131263
0.27809
0.25259093
0.2287551
0.21233843
0.20213839
0.19566477
0.19130123
0.18822072
0.18599577
0.18437647
0.18319863
0.18234605
0.18173358
0.18129812
0.18099212
0.18078107
0.18063839
0.18054734
0.1804927
0.18047053
0.18046958
0.18049919
0.18054295
0.18062798
0.18071998
0.18088793
0.18104819
0.18136929
0.18164056
0.18229501
0.18277964
0.18426919
0.18531804
0.18931509
0.19211106
0.20617081
0.21490084
0.26273599
0.32763707
0.48304631
1.0371807
0.013705367
0.052353513
0.098002985
0.15293295
0.20832706
0.25609995
0.28713953
0.29369854
0.27685435
0.24969037
0.22617713
0.21063587
0.20109098
0.19500025
0.19086193
0.18792727
0.18580495
0.18426093
0.18313915
0.18232843
0.18174717
0.18133487
0.181046
0.18084756
0.18071423
0.18063009
0.18058084
0.18056281
0.18056564
0.18059829
0.18064573
0.18073347
0.18083014
0.18100066
0.18116772
0.18149066
0.18177192
0.1824254
0.18292386
0.1844034
0.18547165
0.18942656
0.19225627
0.2061377
0.21477361
0.26189344
0.32673924
0.48321847
1.030753
0.013949037
0.053729928
0.1016563
0.15854862
0.21533455
0.26328405
0.29257249
0.29557946
0.27527697
0.24682615
0.22382205
0.20912824
0.20016323
0.19440328
0.1904618
0.18765762
0.18562886
0.18415439
0.1830849
0.1823135
0.18176173
0.18137141
0.18109887
0.18091249
0.18078815
0.18071073
0.18066683
0.180653
0.18065977
0.18069568
0.1807471
0.18083784
0.18093957
0.18111297
0.18128722
0.18161212
0.18190376
0.18255568
0.18306851
0.18453509
0.18562451
0.18952676
0.19239981
0.20606002
0.21469874
0.26091114
0.3272659
0.48505821
1.0198906
0.014196553
0.055165614
0.10540859
0.16430112
0.22247576
0.27047576
0.29774847
0.29699346
0.27337901
0.24398505
0.22164025
0.20776546
0.19932167
0.19385439
0.19008974
0.18740529
0.18546376
0.18405479
0.18303489
0.18230102
0.18177748
0.18140827
0.18115144
0.18097671
0.18086112
0.18079032
0.18075177
0.18074223
0.18075313
0.18079254
0.18084823
0.18094228
0.1810494
0.18122593
0.18140767
0.18173455
0.18203686
0.18268639
0.18321426
0.18466454
0.18577734
0.18961639
0.19254291
0.20594477
0.21468513
0.25985589
0.32924643
0.48818994
0.99813505
0.014449659
0.056674312
0.10929043
0.1702363
0.2297986
0.27770271
0.30266303
0.29793644
0.27119033
0.2411853
0.21961651
0.20652506
0.19855094
0.19334529
0.18974147
0.18716809
0.1853085
0.18396158
0.18298891
0.18229089
0.18179442
0.18144549
0.1812038
0.18104033
0.18093327
0.18086901
0.18083585
0.18083075
0.18084598
0.18088914
0.18094939
0.18104704
0.18115982
0.1813397
0.18152916
0.18185792
0.18217115
0.18281729
0.18336095
0.18479136
0.18593017
0.18969589
0.19268613
0.20580029
0.21473653
0.25879892
0.33259185
0.49248729
0.98759924
0.014709374
0.058268903
0.11332493
0.17638688
0.23733109
0.28496685
0.30728855
0.29839754
0.26874526
0.23844802
0.21774071
0.20539063
0.19784011
0.19287018
0.1894141
0.18694457
0.18516239
0.18387443
0.18294682
0.18228311
0.18181258
0.18148311
0.18125598
0.1811034
0.18100469
0.18094691
0.18091919
0.18091867
0.18093847
0.18098562
0.18105071
0.18115221
0.1812709
0.18145429
0.18165162
0.18198208
0.18230643
0.18294803
0.18350836
0.18491525
0.18608306
0.18976622
0.19283007
0.20563655
0.21485236
0.25781103
0.33711053
0.49730938
0.98143152
0.014971868
0.059939446
0.11747447
0.18269448
0.24498983
0.29216314
0.31153301
0.29836965
0.26611691
0.23582677
0.21602542
0.20436159
0.19718863
0.19243003
0.18910912
0.18673611
0.1850265
0.18379408
0.18290903
0.18227778
0.18183182
0.18152082
0.18130756
0.18116543
0.18107481
0.18102344
0.18100123
0.18100544
0.18103
0.18108141
0.18115158
0.18125718
0.18138196
0.18156898
0.18177425
0.1821062
0.1824418
0.18307774
0.18365562
0.18503565
0.18623552
0.18982864
0.19297491
0.20546476
0.21502736
0.25695676
0.34251325
0.50227979
0.98998577
0.015242933
0.061705007
0.12180793
0.18927064
0.25290242
0.29938709
0.31542975
0.29786007
0.26330876
0.23329448
0.21443134
0.2034082
0.19657815
0.19201367
0.18881953
0.18653831
0.18489813
0.183719
0.18287483
0.18227476
0.18185241
0.18155917
0.18135929
0.18122731
0.18114466
0.18109969
0.18108309
0.18109222
0.18112175
0.18117766
0.18125311
0.18136301
0.18149399
0.18168471
0.18189788
0.18223105
0.18257792
0.18320714
0.18380342
0.18515375
0.18638871
0.18988653
0.19312259
0.20529921
0.21525448
0.25629442
0.34843797
0.50645858
0.98389576
0.015523834
0.063573932
0.12634824
0.19614972
0.2610927
0.30662422
0.31893601
0.29686761
0.2603574
0.23086113
0.21294783
0.20251984
0.19600237
0.19161781
0.18854354
0.18635015
0.18477669
0.18364886
0.18284404
0.18227397
0.18187433
0.18159818
0.18141122
0.18128913
0.18121434
0.18117581
0.18116494
0.18117916
0.18121387
0.1812745
0.18135541
0.18146978
0.18160701
0.18180142
0.18202241
0.18235653
0.18271462
0.18333626
0.18395172