/*--------------------------------*- C++ -*----------------------------------*\
| =========                 |                                                 |
| \\      /  F ield         | OpenFOAM: The Open Source CFD Toolbox           |
|  \\    /   O peration     | Version:  2506                                  |
|   \\  /    A nd           | Website:  www.openfoam.com                      |
|    \\/     M anipulation  |                                                 |
\*---------------------------------------------------------------------------*/
FoamFile
{
    version     2.0;
    format      ascii;
    arch        "LSB;label=32;scalar=64";
    class       volScalarField;
    location    "0.005";
    object      Co;
}
// * * * * * * * * * * * * * * * * * * * * * * * * * * * * * * * * * * * * * //

dimensions      [0 0 0 0 0 0 0];

internalField   nonuniform List<scalar> 
13761
(
0.10792091
0.11315305
0.11646291
0.15770834
0.15293032
0.1455447
0.13339524
0.11609273
0.14931677
0.14476277
0.13774921
0.12624562
0.1098877
0.089486975
0.072529246
0.14129975
0.13695941
0.13030084
0.11941325
0.1039571
0.084701233
0.068699247
0.069750502
0.091898642
0.13374022
0.1296048
0.12328424
0.11298018
0.098376098
0.080200286
0.065099146
0.06604549
0.08686331
0.10007389
0.10521526
0.12656318
0.12262381
0.11662554
0.10687648
0.093081974
0.075931651
0.06168541
0.062533633
0.082092675
0.094490332
0.099304044
0.093144059
0.080968735
0.11973274
0.11598071
0.11028986
0.10106937
0.088045508
0.071871061
0.058438088
0.059194053
0.077557853
0.089185036
0.093688323
0.087893537
0.07645411
0.0753676
0.084426618
0.11327472
0.10970207
0.10430402
0.095584895
0.08329072
0.068039226
0.055374918
0.056045579
0.073284768
0.084189222
0.088402878
0.082954709
0.072209262
0.071161103
0.079617884
0.085695542
0.086442853
0.086871528
0.10715134
0.10375035
0.098631371
0.090388659
0.078786978
0.064410736
0.052474993
0.053066316
0.069243246
0.079466855
0.083408669
0.078289982
0.068201038
0.067190829
0.075083267
0.080760911
0.081462208
0.08186723
0.083178683
0.077727828
0.10135502
0.098118354
0.093265251
0.085474744
0.074529338
0.060981787
0.049735443
0.050253362
0.065429165
0.075013127
0.078700716
0.073894877
0.064425719
0.063453476
0.070818058
0.076122099
0.076782504
0.077168185
0.078419401
0.073371705
0.072114126
0.078488274
0.095869666
0.092790274
0.088190404
0.080828983
0.070505353
0.05774223
0.047148089
0.047598157
0.06183063
0.070813883
0.07426375
0.06975488
0.060870652
0.059936266
0.066807272
0.071762387
0.072386488
0.072756607
0.07395387
0.069286829
0.068105459
0.074010395
0.071292729
0.062836337
0.090651875
0.087722812
0.083364476
0.07641151
0.066679416
0.054662349
0.044688295
0.045075016
0.058412444
0.066827222
0.070052358
0.06582628
0.057496943
0.056599688
0.063005007
0.067630756
0.068221185
0.068577684
0.069724519
0.065418327
0.06431427
0.069782215
0.067211008
0.0592022
0.06053632
0.066979058
0.08570843
0.08292321
0.078794972
0.072229829
0.063058644
0.051748484
0.042361699
0.042689931
0.055182659
0.063062867
0.066077342
0.062119889
0.054314693
0.053454168
0.059423295
0.063740809
0.064300935
0.064646548
0.065747565
0.061782247
0.060756924
0.065821936
0.063395664
0.055806114
0.056926769
0.062922579
0.06196628
0.062108364
0.066776168
0.081036804
0.078389273
0.074480091
0.068282545
0.059642091
0.049000155
0.04016819
0.040442867
0.052141052
0.059520568
0.062338585
0.058635892
0.051324366
0.050500175
0.056062623
0.060093154
0.06062661
0.06096429
0.062024248
0.058380263
0.057435113
0.06213113
0.059848031
0.052650531
0.053570478
0.059150891
0.058281981
0.058372874
0.062670203
0.063747134
0.065142426
0.076611149
0.074095357
0.070394825
0.064546259
0.05640898
0.046400094
0.038093516
0.038319
0.049267349
0.056176231
0.058810062
0.0553493
0.048503934
0.047715376
0.052897159
0.056659057
0.057168382
0.057500153
0.058522393
0.055181844
0.054317615
0.058674382
0.056533369
0.049704347
0.050434119
0.055625133
0.054843087
0.054891189
0.058845633
0.059848784
0.061142576
0.063519983
0.070122831
0.083092414
0.072418209
0.070028448
0.066526665
0.061009366
0.053349108
0.043939976
0.036130957
0.036311385
0.046551967
0.053018432
0.05547955
0.052248544
0.045843357
0.045089544
0.049915043
0.053425406
0.053912828
0.054240368
0.05522771
0.052173432
0.0513907
0.055436012
0.053436449
0.046954296
0.047503168
0.052327973
0.05163203
0.051645319
0.055281787
0.056218763
0.057422708
0.059630851
0.065724589
0.078208762
0.066792298
0.044916581
0.066114536
0.068444935
0.06617573
0.062863214
0.057660382
0.050452403
0.041611543
0.034273774
0.034413042
0.043985377
0.050035838
0.052334908
0.049322029
0.043332588
0.042612466
0.047104429
0.050379168
0.050846484
0.05117118
0.0521259
0.04934143
0.048640636
0.052400304
0.050541996
0.044387197
0.044763332
0.0492423
0.048631392
0.048617405
0.051958594
0.052835821
0.053960065
0.056017072
0.061637232
0.07364301
0.063393638
0.042793284
0.062531149
0.064678776
0.062524909
0.059392659
0.054488389
0.047709282
0.039406948
0.032515603
0.032617417
0.041558645
0.047217799
0.04936476
0.046558961
0.040962312
0.040274682
0.044454457
0.047508336
0.047957072
0.048280035
0.04920399
0.0466735
0.046054878
0.049552903
0.047836159
0.041991362
0.042202014
0.04635286
0.045825488
0.045791526
0.048858314
0.049681305
0.050734925
0.052655961
0.057841168
0.069089482
0.060387503
0.040805874
0.059149153
0.061113427
0.059069951
0.056109319
0.051488271
0.045115405
0.037322793
0.030853809
0.030921799
0.039268044
0.044559847
0.046564486
0.043955032
0.038729041
0.038072658
0.041960959
0.044808399
0.045240027
0.045562386
0.046457403
0.044165413
0.043629087
0.046888959
0.045314176
0.039763413
0.039815233
0.043654298
0.043208479
0.043161844
0.045974469
0.046748345
0.047739958
0.049539513
0.054327288
0.064562583
0.057635879
0.03895478
0.0559723
0.057748269
0.055810456
0.053013006
0.048660078
0.042671053
0.035359553
0.029288996
0.029326793
0.037114253
0.04206265
0.043934915
0.041511186
0.036633989
0.036007563
0.03962508
0.042280708
0.042696861
0.043019899
0.043888053
0.041819216
0.04136518
0.044410192
0.042977936
0.037706211
0.037605483
0.041148351
0.040781471
0.04072959
0.043308416
0.04403807
0.044976121
0.046668589
0.051092219
0.060344324
0.055102848
0.037243074
0.053013175
0.054562972
0.052726262
0.050084113
0.045985435
0.040359873
0.033503621
0.027809901
0.027820705
0.035081514
0.039707457
0.041455934
0.039208066
0.034660114
0.034062186
0.037426901
0.039903358
0.04030496
0.040629288
0.041471698
0.039611514
0.039239176
0.042089581
0.040800531
0.035797394
0.035549416
0.038807564
0.038515728
0.038465496
0.040828224
0.041516908
0.042408066
0.044005602
0.048090764
0.056486528
0.05246982
0.035639573
0.050233031
0.051544121
0.049804146
0.047309869
0.043452488
0.038171408
0.031746373
0.026409438
0.026396163
0.033159979
0.037482584
0.039115084
0.037033718
0.032796999
0.032226062
0.035354256
0.037663106
0.038050715
0.03837661
0.039193946
0.037528449
0.03723674
0.039911039
0.038765419
0.034024425
0.033634168
0.03661604
0.036394207
0.036352198
0.038515314
0.039165344
0.040015145
0.041528332
0.045296169
0.053019059
0.049734665
0.034131975
0.047612185
0.04869304
0.04704558
0.044691921
0.041062995
0.036107445
0.030089561
0.025089301
0.025054871
0.031351782
0.035390431
0.036915097
0.034990886
0.031047432
0.030502108
0.033410143
0.03556336
0.035937805
0.036265764
0.037059094
0.03557439
0.035361977
0.0378789
0.036876016
0.032393128
0.031865371
0.034578937
0.034420889
0.034393698
0.03637459
0.036988239
0.037802143
0.039241599
0.042713573
0.049908389
0.046973472
0.032732576
0.045165313
0.045996508
0.044437511
0.04221763
0.038805201
0.034157591
0.028524591
0.023842419
0.023789463
0.029647077
0.033419302
0.03484347
0.033067601
0.029400917
0.02887985
0.031582326
0.033590802
0.033952577
0.034282711
0.03505267
0.033735382
0.033600303
0.035976556
0.035115025
0.03089109
0.030230189
0.032680998
0.032578707
0.032572229
0.034387371
0.034966142
0.035748332
0.03712277
0.040317329
0.047061061
0.044317313
0.031430904
0.042870976
0.043445417
0.041970952
0.039878331
0.036671065
0.032314767
0.027045677
0.022664087
0.022595007
0.028039253
0.031561363
0.032891845
0.031255894
0.027850505
0.027352444
0.02986275
0.031736637
0.032086087
0.032418267
0.033165283
0.032002438
0.031942132
0.034192514
0.033470417
0.029510555
0.028721325
0.030913042
0.030856524
0.030875855
0.032541475
0.03308653
0.03384012
0.035156497
0.038090432
0.044403123
0.041891553
0.030220319
0.040717186
0.04103725
0.039643543
0.03767186
0.034658735
0.030577479
0.025651769
0.021553612
0.021470694
0.026527115
0.029815125
0.031058679
0.029554442
0.026395199
0.025919037
0.028250185
0.029999378
0.030337204
0.030671293
0.031395982
0.030374807
0.03038629
0.032524497
0.03193922
0.028251305
0.027339503
0.029275979
0.029252952
0.029301967
0.030834874
0.031347698
0.032075159
0.033339306
0.036029103
0.04190211
0.039734102
0.029101638
0.038706917
0.038759205
0.037442645
0.035585987
0.032756819
0.028935614
0.02433448
0.020504086
0.020409353
0.025101116
0.028169375
0.029331976
0.027951795
0.025024858
0.024569595
0.026733141
0.028366196
0.028693095
0.029028551
0.029731161
0.028839381
0.028918966
0.030956125
0.030504115
0.0270993
0.026074587
0.027757427
0.027753315
0.027833713
0.029250079
0.029732316
0.030434589
0.031649889
0.03410969
0.039534673
0.037797393
0.028058562
0.03682001
0.036608468
0.035365567
0.033618191
0.030963084
0.027387303
0.023092426
0.01951451
0.019409856
0.023759739
0.026622129
0.027709623
0.026446069
0.023737962
0.023302716
0.025309822
0.026835159
0.027151843
0.027488204
0.028169153
0.027394697
0.027538279
0.029484315
0.029160959
0.026050524
0.024928042
0.026358523
0.026356915
0.026467396
0.027783575
0.028237951
0.028914994
0.030083266
0.032327351
0.03731387
0.036014102
0.0270886
0.035057394
0.034576421
0.033403847
0.031760322
0.029269994
0.025925905
0.021920141
0.018580443
0.018467562
0.022496681
0.025166141
0.026183832
0.025029919
0.022528036
0.022112025
0.023972913
0.025398136
0.025705322
0.026042016
0.026701599
0.026032751
0.026235699
0.028098572
0.027898377
0.025091875
0.023895614
0.0250747
0.025057222
0.025192025
0.026423575
0.026854105
0.027504534
0.028625759
0.030667371
0.035242875
0.034312971
0.026181444
0.03340808
0.032656761
0.031551317
0.030006461
0.027672122
0.024546656
0.020813755
0.01769877
0.017579207
0.021307563
0.023796231
0.024749002
0.02369811
0.021390508
0.020993078
0.022717284
0.024049452
0.024347848
0.024684304
0.025322848
0.024748165
0.025005482
0.026791314
0.026709288
0.024208836
0.022975411
0.023906925
0.023852554
0.024000089
0.025161115
0.025573458
0.026195057
0.027268078
0.029120173
0.03332448
0.032670571
0.025330367
0.031866131
0.030844011
0.029802629
0.028351483
0.026164764
0.023245465
0.019769941
0.016866836
0.016742006
0.020188705
0.022507942
0.023400227
0.022446232
0.020321521
0.019942123
0.021538569
0.022784286
0.023074636
0.023410314
0.02402828
0.0235366
0.023842933
0.025556519
0.025588237
0.023388818
0.022158695
0.022853134
0.022743966
0.02288636
0.023988078
0.024389654
0.024979925
0.026003367
0.02767851
0.031552274
0.031096409
0.024529941
0.030427711
0.029132906
0.028152644
0.026790474
0.024743436
0.022018409
0.018785522
0.016082113
0.0159533
0.019136542
0.021296934
0.022132942
0.021270008
0.019317362
0.018955582
0.020432631
0.021598028
0.021881132
0.022215547
0.022813591
0.022394179
0.022743765
0.024388237
0.024527234
0.022622891
0.02143719
0.021913287
0.021731679
0.021848358
0.022896506
0.023296097
0.02385328
0.024825956
0.026336466
0.029913317
0.02961889
0.023775873
0.029088554
0.027517799
0.026595829
0.025318113
0.023403204
0.020861236
0.017857012
0.015341804
0.015210118
0.018147093
0.0201589
0.020942189
0.020164755
0.018373949
0.018029501
0.019394909
0.020485732
0.020761829
0.02109518
0.021673846
0.021316797
0.021703384
0.023280693
0.023518884
0.021901468
0.020799137
0.021087214
0.020816727
0.020885796
0.021878415
0.022284791
0.022809295
0.023730106
0.025088207
0.028391309
0.02825826
0.023063869
0.027842622
0.025995396
0.025128992
0.023931373
0.022141363
0.019771614
0.016982563
0.014644513
0.014510986
0.017218137
0.019090925
0.019825303
0.019127915
0.017489139
0.017161894
0.018423031
0.019444737
0.019714389
0.020046597
0.020606875
0.020303118
0.020720003
0.022231011
0.02255783
0.021217327
0.020232868
0.020377396
0.020005147
0.020002833
0.020930587
0.021350065
0.021845768
0.022713776
0.023931766
0.026977296
0.027018025
0.022393279
0.026687583
0.024558702
0.023745267
0.022623634
0.020951785
0.018744173
0.016157708
0.01398659
0.013852125
0.016344689
0.018087337
0.018776323
0.018153458
0.016657696
0.016347717
0.01751126
0.018468627
0.018732379
0.019063128
0.019606279
0.019348258
0.019787965
0.021232685
0.021635846
0.020558608
0.019718153
0.019777656
0.019299693
0.019200291
0.020047493
0.02048114
0.020955559
0.021770074
0.022859742
0.025660968
0.025877976
0.02175857
0.025614068
0.023202614
0.02243966
0.021390104
0.019830052
0.017775079
0.015379279
0.013365494
0.013230888
0.015523172
0.01714395
0.017790789
0.017237219
0.015875921
0.015583477
0.01665562
0.017552984
0.017811435
0.018140317
0.018667241
0.01844914
0.018903989
0.02028187
0.020747482
0.019917217
0.019235145
0.019271961
0.018705825
0.018484566
0.019229187
0.019670426
0.020133497
0.020895201
0.021867687
0.024438613
0.024816497
0.021156908
0.024616188
0.021924452
0.021209577
0.02022832
0.01877395
0.016862487
0.01464581
0.012780135
0.012646082
0.014751861
0.016258764
0.016866505
0.01637722
0.015142077
0.014867651
0.015854317
0.016695765
0.016949524
0.017275907
0.017787935
0.017604672
0.018067786
0.019378182
0.019890804
0.019286891
0.018773512
0.01884407
0.018232766
0.017868253
0.018481457
0.018914876
0.019376365
0.020089031
0.0209545
0.023310112
0.023822221
0.020588812
0.02369216
0.020719024
0.020049938
0.0191334
0.01777897
0.016002484
0.013954031
0.012227878
0.012094994
0.014027112
0.015427591
0.015998985
0.01556923
0.014452332
0.014196683
0.015103326
0.015892499
0.016142159
0.016465166
0.016964023
0.016811292
0.017276596
0.018519158
0.019063279
0.018660505
0.018316192
0.018462684
0.017880469
0.017367658
0.01781402
0.018211525
0.018676489
0.019348046
0.020115432
0.022268771
0.022887748
0.020051423
0.022835765
0.019583163
0.01895766
0.018102387
0.016842417
0.015192805
0.01330208
0.01170728
0.011576113
0.013346751
0.014647946
0.015185535
0.014810799
0.013804423
0.013568596
0.014400401
0.01514064
0.0153868
0.015705735
0.01619266
0.016067281
0.016529319
0.017704316
0.0182656
0.018034928
0.017855994
0.018096859
0.017616622
0.016999133
0.017247935
0.017567389
0.01802843
0.01867047
0.019349234
0.021310306
0.022012673
0.019544768
0.022044213
0.018512913
0.017928885
0.017131587
0.015960899
0.014430546
0.012687531
0.011216414
0.011087467
0.012708025
0.013916703
0.014422847
0.014098833
0.013195406
0.012980745
0.013742634
0.014436907
0.014680208
0.014994771
0.015469892
0.015370036
0.015824678
0.016933589
0.017499308
0.01740841
0.017382152
0.01773351
0.017404449
0.016771295
0.016805286
0.017000257
0.017428729
0.018051519
0.018654755
0.020430804
0.021195019
0.019068027
0.021313744
0.017504984
0.016960411
0.016217924
0.015131589
0.01371333
0.012108409
0.010753726
0.01062748
0.012108656
0.013231234
0.013708295
0.013430851
0.012622861
0.012430931
0.013127744
0.013778625
0.014019531
0.014329838
0.014792773
0.014716874
0.015161112
0.016206838
0.016766666
0.016783827
0.016889299
0.017353833
0.017198974
0.016652724
0.016509581
0.016534246
0.016884353
0.017485184
0.01803213
0.019630382
0.020433218
0.018621294
0.020642286
0.016555235
0.016048192
0.015357518
0.01435091
0.013038094
0.011562117
0.010317115
0.010194035
0.011545725
0.012588213
0.013038306
0.012803651
0.012083748
0.011915953
0.012552855
0.013162382
0.013401191
0.013707588
0.014158329
0.014105306
0.014536494
0.015522113
0.016069252
0.016165158
0.0163762
0.016941146
0.016973083
0.01659356
0.016375369
0.016202773
0.016417272
0.01696617
0.017477979
0.018910349
0.01972576
0.018203444
0.020026202
0.015661111
0.015189758
0.014548006
0.013616685
0.012403099
0.011047188
0.0099054378
0.009786001
0.011017489
0.011985621
0.012410745
0.01221545
0.011576445
0.011433555
0.012016692
0.012586298
0.01282319
0.013126082
0.013564496
0.01353342
0.013951049
0.014878765
0.015410465
0.015560483
0.015849521
0.016488377
0.016698933
0.016533361
0.01637053
0.016040062
0.01606619
0.016504623
0.01698681
0.018272972
0.019075179
0.017815559
0.019464286
0.014819115
0.01438171
0.013786135
0.012925896
0.011805735
0.01056147
0.0095169441
0.0094016543
0.010521525
0.011420647
0.011822801
0.011663906
0.011098856
0.010980583
0.011517173
0.012047652
0.012282565
0.012582111
0.013008204
0.012999107
0.013402582
0.014275271
0.014790923
0.014977197
0.015318131
0.01599978
0.016357933
0.016416655
0.016420808
0.01606182
0.015874584
0.0161316
0.016555311
0.017714531
0.018482386
0.017457863
0.018953736
0.014026257
0.013621127
0.013069116
0.012275936
0.011243758
0.010103158
0.0091501439
0.0090395323
0.010055798
0.01089087
0.011271912
0.011146326
0.010649308
0.010554181
0.011051265
0.011544386
0.011776881
0.012073304
0.012487056
0.012499288
0.012887672
0.013710106
0.014209435
0.014421373
0.014792782
0.015487888
0.015948186
0.016209353
0.016430623
0.016213224
0.015897862
0.015909036
0.016199445
0.017229684
0.017949373
0.017132832
0.01849232
0.013280546
0.012906102
0.012395161
0.011665091
0.010715873
0.0096712151
0.0088041771
0.0086987831
0.0096190879
0.01039469
0.010756716
0.010661536
0.010227091
0.010153563
0.010616498
0.01107559
0.011304594
0.011598323
0.012000071
0.012033249
0.012405583
0.013181837
0.01366563
0.013896991
0.014285241
0.014971729
0.015486175
0.015896567
0.016327993
0.016366933
0.016116934
0.015909079
0.015982568
0.016825673
0.017475308
0.016847669
0.018079503
0.012578719
0.012233455
0.011761266
0.011090478
0.010219609
0.0092637984
0.0084772949
0.0083776653
0.0092092503
0.0099293805
0.010274485
0.010206895
0.0098299566
0.009777006
0.010209293
0.010638433
0.01086312
0.011154421
0.011544733
0.011598536
0.011953946
0.012685997
0.013157837
0.013403757
0.013802061
0.014467921
0.015001143
0.015497149
0.01607871
0.016390406
0.016406322
0.016170954
0.015996585
0.01654514
0.017066814
0.016610464
0.017714648
0.011918395
0.011600868
0.011165257
0.010550049
0.0097531784
0.0088799659
0.0081680949
0.0080749738
0.0088248279
0.0094930084
0.0098230807
0.0097805088
0.0094564788
0.0094232939
0.0098277039
0.01023053
0.010450788
0.010739519
0.01111887
0.011193312
0.011532703
0.012221252
0.01268253
0.012940977
0.01334575
0.013987018
0.014520388
0.015056913
0.015708349
0.016214019
0.01654937
0.016568708
0.016328379
0.016513968
0.016775915
0.016435724
0.017405446
0.011297401
0.01100623
0.010605154
0.010041962
0.0093149774
0.0085185881
0.0078753659
0.0077895485
0.0084644984
0.0090840486
0.0094008114
0.0093809748
0.0091054942
0.0090910362
0.009470108
0.00984968
0.01006602
0.010352153
0.010720793
0.010815472
0.01114079
0.011787233
0.012238641
0.012507149
0.012915255
0.013532345
0.01405734
0.014610216
0.015282603
0.015878174
0.016430318
0.016814418
0.016862622
0.016856308
0.016746501
0.016377221
0.017178437
0.010713428
0.010447287
0.01007885
0.0095642548
0.0089031736
0.0081786729
0.0075980571
0.0075200311
0.008126746
0.0087007363
0.009005803
0.0090067182
0.0087760992
0.0087789792
0.0091348034
0.0094937489
0.0097068671
0.0099905574
0.010348551
0.010462505
0.010776114
0.011382484
0.011824396
0.012102511
0.012510093
0.013103927
0.013618461
0.014174795
0.014844653
0.015473569
0.016119185
0.016726826
0.017207571
0.017450869
0.017155092
0.016602422
0.017110046
0.010164343
0.0099219473
0.0095844136
0.0091152128
0.0085159817
0.0078593456
0.007335202
0.0072651568
0.0078101147
0.0083413872
0.0086360557
0.0086559961
0.0084669657
0.0084858982
0.0088207137
0.00916076
0.0093715613
0.0096532238
0.010001039
0.010132688
0.010436832
0.011005647
0.011437683
0.011725314
0.012130094
0.012699443
0.013203308
0.0137591
0.014415371
0.015050833
0.015727218
0.0164249
0.017143939
0.017790607
0.017823198
0.017330919
0.017427572
0.009648169
0.0094282937
0.0091200428
0.0086932681
0.0081517777
0.0075597603
0.0070866934
0.0070234946
0.0075130359
0.0080046575
0.0082898108
0.008327237
0.0081768088
0.008210737
0.0085262632
0.0088489584
0.0090583254
0.0093380604
0.0096771622
0.0098246442
0.010121199
0.010655416
0.011077334
0.011374755
0.011776865
0.012321523
0.012813148
0.013364262
0.014004538
0.014634812
0.015314113
0.016038413
0.016846143
0.017654772
0.018118939
0.018195582
0.018395897
0.0091628386
0.0089642896
0.0086838398
0.0082967509
0.0078089639
0.0072782973
0.0068524549
0.0067937807
0.0072338478
0.0076891392
0.0079653466
0.0080186385
0.0079039071
0.0079523985
0.0082503517
0.0085572827
0.0087653035
0.0090426961
0.0093747113
0.0095370894
0.009827224
0.010329693
0.010741094
0.011048182
0.011448168
0.011969825
0.012450668
0.01299119
0.013613546
0.014236069
0.014906508
0.015632076
0.016456269
0.01729431
0.017932636
0.018466326
0.019205128
0.0087068006
0.0085283956
0.0082743423
0.0079244229
0.0074863984
0.0070135298
0.0066329439
0.0065768832
0.0069714515
0.0073936808
0.007661489
0.0077290808
0.0076469932
0.0077098452
0.0079920996
0.0082840775
0.0084921226
0.0087658479
0.0090915183
0.0092690233
0.0095542562
0.010027828
0.010428146
0.010743854
0.011142102
0.011642832
0.01211523
0.012644154
0.013243557
0.013859506
0.014516416
0.015235423
0.016041885
0.016861774
0.017559313
0.018275959
0.019286464
0.0082781861
0.0081187648
0.0078897279
0.0075747245
0.007182679
0.006763905
0.0064264241
0.0063725767
0.0067249111
0.007116878
0.0073767682
0.0074572517
0.0074048069
0.0074816007
0.0077500231
0.0080285802
0.008236551
0.0085063166
0.0088252477
0.0090176501
0.0093003765
0.0097491811
0.010137847
0.010459576
0.010856432
0.011338899
0.011804203
0.012322924
0.01289842
0.013502161
0.01415192
0.014857648
0.015636259
0.016421721
0.017144074
0.017928882
0.01896785
0.0078755173
0.0077339493
0.0075286292
0.0072463912
0.0068967322
0.0065281775
0.0062318914
0.0061806124
0.0064941822
0.0068576733
0.0071100465
0.0072021291
0.0071764136
0.0072665675
0.0075228858
0.0077898581
0.0079985645
0.008263762
0.0085751492
0.0087809087
0.0090621882
0.0094906214
0.009870283
0.010195432
0.010590273
0.011056302
0.011515142
0.012024655
0.012581178
0.013168102
0.013807452
0.01450109
0.015253992
0.015999595
0.016736428
0.017551438
0.018532509
0.007497209
0.0073723915
0.0071894317
0.00693801
0.006627418
0.0063052612
0.0060483253
0.0059999495
0.0062782969
0.0066152786
0.0068601184
0.0069626079
0.0069609314
0.0070635542
0.0073090793
0.0075660492
0.0077766672
0.0080377086
0.0083407488
0.0085581777
0.0088384844
0.0092483677
0.0096214524
0.0099504849
0.010344205
0.010794414
0.011246522
0.011747605
0.012288297
0.012864289
0.013489645
0.014165885
0.014894803
0.015612051
0.01635295
0.017179663
0.018099364
0.0071417413
0.0070326383
0.0068707032
0.0066481167
0.0063738935
0.0060940874
0.0058744863
0.0058303667
0.0060764347
0.0063886388
0.0066258512
0.0067375218
0.0067576347
0.0068715788
0.007107565
0.0073559684
0.0075689241
0.0078268596
0.008121847
0.0083482211
0.0086287872
0.0090216504
0.0093880423
0.0097207711
0.010115277
0.010553568
0.010997714
0.011489797
0.012016181
0.01258323
0.013194649
0.013852501
0.014554545
0.015256266
0.016000575
0.016824325
0.017695744
0.0068078491
0.0067134909
0.00657131
0.0063756329
0.0061354466
0.0058939842
0.0057091844
0.005671723
0.0058878645
0.0061768799
0.0064067274
0.0065259672
0.0065660758
0.006689962
0.006917532
0.00715862
0.0073735212
0.0076292256
0.0079176797
0.0081513147
0.0084323565
0.0088097214
0.0091691546
0.0095046499
0.0098986651
0.010329097
0.010769197
0.011253853
0.011767497
0.012324028
0.012920857
0.013560665
0.014235124
0.014927775
0.015669966
0.016478459
0.017322844
0.0064942768
0.0064137596
0.0062901525
0.0061194727
0.0059111092
0.0057044502
0.0055511772
0.0055235954
0.0057120964
0.0059789415
0.0062016753
0.0063276803
0.0063856204
0.0065179756
0.006738461
0.0069735942
0.0071898029
0.007443335
0.0077262954
0.0079667079
0.0082486601
0.0086123451
0.0089645788
0.0093017778
0.0096939042
0.010115795
0.010553034
0.011031542
0.011537263
0.012085969
0.01266874
0.013292567
0.013944829
0.014628279
0.015363518
0.016149147
0.016974517
0.0061997919
0.0061322697
0.006026189
0.0058788162
0.0057000707
0.005525004
0.0053995577
0.0053842127
0.0055488837
0.0057942781
0.0060093063
0.0061420345
0.0062161611
0.0063545968
0.0065698402
0.0067997157
0.0070169465
0.0072683688
0.0075462316
0.0077924967
0.0080761513
0.0084288116
0.008774462
0.0091135919
0.0095023703
0.0099154263
0.010349347
0.010821202
0.011320106
0.011862453
0.012434137
0.013044598
0.013682026
0.014355401
0.015078576
0.015841026
0.016649
0.0059233666
0.0058680147
0.0057784816
0.0056529424
0.0055015104
0.0053551872
0.0052544991
0.0052517276
0.0053978174
0.0056224782
0.0058291309
0.0059678418
0.0060572438
0.0061999039
0.0064106322
0.0066361216
0.0068543332
0.0071039817
0.0073772996
0.0076279843
0.007912607
0.0082560201
0.0085964819
0.0089380435
0.0093232635
0.009729598
0.010159499
0.010624312
0.011117236
0.011651862
0.012213584
0.012813639
0.013439776
0.014103923
0.01481317
0.015557635
0.016348234
0.0056638306
0.0056198287
0.0055458355
0.0054408589
0.0053146317
0.0051942521
0.0051161411
0.0051248219
0.0052578066
0.0054630477
0.0056605285
0.0058043163
0.0059076014
0.006054185
0.0062598547
0.0064816176
0.0067006184
0.0069487656
0.0072187749
0.0074733951
0.0077585301
0.0080938221
0.0084295904
0.0087730676
0.0091550435
0.009555887
0.0099826113
0.01044068
0.010927199
0.011452513
0.012004211
0.012595915
0.013212461
0.013867828
0.014563758
0.015296221
0.016073799
0.0054201802
0.0053867433
0.0053271715
0.0052414334
0.0051384846
0.0050416167
0.0049841373
0.0050029845
0.0051271931
0.0053155583
0.0055032958
0.0056508761
0.0057665853
0.0059169574
0.0061182127
0.0063359872
0.0065547558
0.0068016275
0.0070687753
0.0073265494
0.0076122493
0.0079410825
0.0082732039
0.0086177343
0.0089965409
0.0093933038
0.0098175426
0.010270107
0.010751234
0.011266824
0.011808707
0.012390255
0.01299857
0.0136455
0.014329839
0.015052129
0.015819764
0.0051915294
0.0051679507
0.0051216342
0.0050536753
0.0049722426
0.0048970001
0.0048579884
0.0048861071
0.0050044051
0.0051791391
0.0053577265
0.0055075543
0.0056337396
0.0057876277
0.0059852292
0.0062000657
0.0064183199
0.0066629233
0.0069277068
0.0071879979
0.0074733076
0.0077965629
0.0081258836
0.0084707178
0.0088462942
0.0092398244
0.0096615227
0.010109693
0.010586669
0.011094637
0.011629276
0.012201034
0.012799942
0.013437955
0.014112114
0.014824649
0.015581627
0.004976906
0.0049626024
0.0049284923
0.0048768062
0.0048152489
0.004759929
0.0047375745
0.0047739963
0.0048881201
0.0050521108
0.0052229543
0.0053741821
0.0055090675
0.0056660517
0.0058599376
0.006071801
0.0062900388
0.0065321726
0.0067941438
0.0070562845
0.0073420247
0.0076603152
0.0079872135
0.0083317942
0.0087042072
0.0090950129
0.0095137736
0.0099578001
0.010430673
0.010932097
0.01146136
0.012025826
0.012618532
0.013249273
0.013914612
0.014616924
0.015361436
0.0047754112
0.0047698546
0.0047470974
0.0047103123
0.0046669632
0.0046298014
0.0046224816
0.0046664975
0.0047774148
0.0049329344
0.005097813
0.0052501898
0.0053922362
0.0055526056
0.0057435566
0.0059521938
0.0061699298
0.0064097464
0.0066688006
0.0069315254
0.0072166455
0.0075314836
0.0078565459
0.0082007004
0.0085697653
0.0089582793
0.0093740882
0.0098141861
0.010283015
0.01077863
0.011302825
0.011860697
0.012448229
0.01307305
0.013732436
0.014428366
0.015163286
0.00458616
0.0045888027
0.0045766359
0.0045534652
0.0045266336
0.004506064
0.0045125107
0.0045636905
0.0046721703
0.0048207476
0.0049809358
0.0051342905
0.0052819237
0.005445568
0.0056350309
0.0058408702
0.0060576798
0.0062951747
0.0065513645
0.0068144305
0.0070982891
0.0074090022
0.0077322986
0.0080761268
0.0084429454
0.008829558
0.0092420302
0.0096784467
0.010143451
0.010634199
0.011153436
0.011704888
0.012287054
0.012905879
0.013559506
0.01424978
0.014977402
0.0044083209
0.004418569
0.0044163644
0.0044056764
0.0043937311
0.0043884531
0.0044074972
0.0044653345
0.00457208
0.004714952
0.0048714397
0.0050257601
0.0051778069
0.0053440581
0.0055330643
0.0057376442
0.0059537899
0.0061887638
0.0064418638
0.0067045963
0.006987053
0.0072940721
0.0076150699
0.0079569876
0.0083214356
0.0087068615
0.0091172815
0.0095508798
0.010012252
0.010499106
0.011014103
0.011560265
0.012137258
0.012749586
0.01339739
0.014082343
0.01480266
0.0042410966
0.0042583419
0.0042656662
0.0042667018
0.0042682
0.0042769571
0.0043071698
0.0043713634
0.0044771553
0.0046150884
0.0047681798
0.0049231784
0.0050788232
0.0052474413
0.0054360156
0.0056398921
0.0058564165
0.0060903511
0.0063411527
0.0066029483
0.0068834276
0.0071865643
0.0075052961
0.0078448881
0.0082063581
0.0085892409
0.008996731
0.0094278691
0.0098863869
0.010370657
0.010882769
0.011424544
0.011997856
0.012604698
0.013246881
0.013927168
0.014643285
0.0040838271
0.0041074301
0.0041238203
0.0041360932
0.0041498359
0.0041711744
0.0042112472
0.0042812239
0.0043868873
0.0045213632
0.0046715795
0.004826589
0.0049847909
0.0051553535
0.0053438603
0.0055471665
0.005763664
0.0059969769
0.0062466588
0.0065085455
0.0067883014
0.0070883281
0.0074046565
0.0077414827
0.0080994946
0.0084796992
0.0088836401
0.0093113206
0.0097653358
0.010246265
0.010755621
0.011294551
0.011865015
0.012467762
0.013104699
0.01378002
0.014494081
0.0039653168
0.0039901652
0.0040129819
0.0040378134
0.0040703578
0.004119493
0.0041946847
0.0043007616
0.0044329386
0.0045808221
0.0047356077
0.0048957395
0.0050676136
0.0052560367
0.0054590643
0.0056754135
0.0059080434
0.0061565993
0.0064180315
0.0066972345
0.0069956376
0.0073108374
0.0076462812
0.0080016992
0.0083791174
0.0087795161
0.0092035212
0.0096533658
0.010130036
0.010634988
0.011169258
0.01173588
0.012335338
0.01296885
0.013639147
0.014349005
0.0038316969
0.0038643205
0.0038968165
0.0039315052
0.0039738883
0.0040313479
0.0041115473
0.0042187208
0.004349468
0.0044954581
0.0046498385
0.0048113989
0.0049844804
0.0051728145
0.0053754299
0.0055917165
0.0058236275
0.0060712008
0.0063322197
0.0066105068
0.0069072532
0.0072211703
0.0075552809
0.007909172