/*--------------------------------*- C++ -*----------------------------------*\
| =========                 |                                                 |
| \\      /  F ield         | OpenFOAM: The Open Source CFD Toolbox           |
|  \\    /   O peration     | Version:  2506                                  |
|   \\  /    A nd           | Website:  www.openfoam.com                      |
|    \\/     M anipulation  |                                                 |
\*---------------------------------------------------------------------------*/
FoamFile
{
    version     2.0;
    format      ascii;
    arch        "LSB;label=32;scalar=64";
    class       volScalarField;
    location    "0.015";
    object      alphat;
}
// * * * * * * * * * * * * * * * * * * * * * * * * * * * * * * * * * * * * * //

dimensions      [1 -1 -1 0 0 0 0];

internalField   nonuniform List<scalar> 
13761
(
9.4249911e-11
2.0542764e-10
3.2720826e-09
3.0215812e-08
1.6546932e-07
6.3533445e-07
1.846875e-06
4.2457828e-06
8.0714792e-06
1.3326598e-05
1.9961244e-05
2.7997367e-05
3.7529755e-05
4.8694519e-05
6.1636891e-05
7.6489515e-05
9.3358723e-05
0.00011231303
0.00013337513
0.00015653012
0.00018174517
0.00020896397
0.00023813583
0.00026921465
0.00030218018
0.00033703212
0.00037381609
0.00041260605
0.00045353508
0.0004968008
0.00054260505
0.00059115786
0.00064244128
0.00069637504
0.00075273329
0.00081104471
0.00087041741
0.00092964888
0.00098691145
0.0010395465
0.0010838563
0.0011151611
8.6519048e-11
2.1884312e-10
3.7538269e-09
3.473181e-08
1.8981267e-07
7.2644081e-07
2.0999678e-06
4.7838682e-06
8.9854727e-06
1.4643981e-05
2.1665062e-05
3.0052379e-05
3.9897543e-05
5.1338971e-05
6.4529186e-05
7.9609269e-05
9.6699689e-05
0.0001158889
0.00013723096
0.00016075052
0.00018646992
0.00021438454
0.00024449151
0.00027678688
0.00031129241
0.00034803169
0.00038706331
0.00042844488
0.00047225375
0.00051855455
0.0005673811
0.00061873744
0.00067261206
0.00072886584
0.00078712511
0.00084668307
0.0009065215
0.00096492589
0.0010194767
6.6875262e-11
1.9473709e-10
3.5322862e-09
3.2702319e-08
1.7826425e-07
6.814981e-07
1.9777497e-06
4.5502449e-06
8.6629616e-06
1.4312926e-05
2.1425688e-05
2.9999236e-05
4.0112471e-05
5.1896871e-05
6.5503637e-05
8.1082783e-05
9.8767399e-05
0.0001186667
0.00014084957
0.00016536086
0.0001922229
0.00022144202
0.00025300018
0.00028689495
0.00032311323
0.00036167356
0.00040260229
0.00044596017
0.00049182272
0.00054027264
0.00059137936
0.0006451504
0.00070148666
0.00076017596
0.00082072486
0.00088201727
4.1706629e-11
1.4340067e-10
2.7402779e-09
2.5334489e-08
1.3733257e-07
5.230343e-07
1.5265132e-06
3.5845348e-06
7.0481124e-06
1.2080294e-05
1.8732139e-05
2.7049822e-05
3.7117695e-05
4.9054143e-05
6.2993215e-05
7.906266e-05
9.7372047e-05
0.00011800213
0.00014099706
0.00016637684
0.00019415056
0.00022431276
0.00025684699
0.00029174528
0.00032899065
0.00036862423
0.00041072296
0.00045537576
0.00050267986
0.00055274351
0.0006056861
2.4893313e-11
9.2294484e-11
1.8005228e-09
1.6657518e-08
9.0265251e-08
3.4457521e-07
1.0169214e-06
2.4493616e-06
5.0110792e-06
9.0172603e-06
1.4711973e-05
2.2286569e-05
3.1885233e-05
4.3621958e-05
5.7581408e-05
7.3829499e-05
9.240609e-05
0.00011333009
0.00013658963
0.00016216861
0.00019005145
0.00022024053
0.00025275194
0.00028766699
3.2180878e-11
1.8207788e-10
5.1099836e-10
9.0844901e-09
8.2658952e-08
4.2968955e-07
1.500768e-06
3.8467909e-06
7.7780013e-06
1.3276895e-05
2.0197272e-05
2.8421428e-05
3.788838e-05
4.8575559e-05
6.0489137e-05
7.365549e-05
8.8113046e-05
0.00010390807
0.00012108845
0.0001396951
0.00015976747
0.00018134782
0.00020446821
0.00022915218
0.00025542099
0.00028328663
0.00031275966
0.00034385066
0.00037656544
0.00041092037
0.00044692295
0.00048457471
0.00052386802
0.00056474959
0.00060708604
0.00065061068
0.00069483721
0.0007389474
0.00078166162
0.00082112633
0.00085480296
0.00087941652
0.00089100856
0.00088515516
0.00085736926
0.00080364715
0.00072102055
0.0006075475
0.00046243732
0.00028738781
9.502457e-05
1.1142946e-05
2.8302652e-06
2.533392e-06
2.5157479e-06
2.5121337e-06
2.4974813e-06
2.4611857e-06
2.4322912e-06
2.4652342e-06
2.5657063e-06
2.643952e-06
2.6313813e-06
2.6363758e-06
2.677203e-06
2.6046858e-06
2.5046452e-06
2.5468871e-06
2.6175236e-06
2.5230085e-06
2.3821807e-06
2.3705536e-06
2.4478942e-06
1.8102786e-10
5.0762358e-10
9.0215533e-09
8.2096385e-08
4.2691988e-07
1.4920559e-06
3.8276292e-06
7.7455735e-06
1.3230459e-05
2.0137073e-05
2.8348064e-05
3.7802716e-05
4.8478842e-05
6.0383093e-05
7.3542382e-05
8.7995713e-05
0.00010378992
0.00012097341
0.00013958756
0.00015967216
0.00018126974
0.00020441245
0.00022912387
0.0002554251
0.00028332775
0.00031284132
0.0003439712
0.00037673049
0.00041113151
0.00044718729
0.00048490621
0.00052427949
0.00056525092
0.00060768395
0.00065130643
0.00069562061
0.00073981257
0.0007826348
0.00082225955
0.00085617113
0.00088110222
0.00089308717
0.00088768772
0.00086040071
0.0008072079
0.00072499943
0.00061186069
0.00046697062
0.00029184038
9.9022131e-05
1.1838098e-05
2.8699837e-06
2.5341117e-06
2.5151146e-06
2.5112068e-06
2.4965746e-06
2.4605581e-06
2.4322066e-06
2.4644656e-06
2.5652351e-06
2.6432591e-06
2.6302807e-06
2.6349897e-06
2.6758653e-06
2.6042933e-06
2.5045315e-06
2.5462704e-06
2.6163638e-06
2.5232955e-06
2.3833823e-06
2.3711776e-06
2.448151e-06
2.5169857e-06
2.5400321e-06
2.5441457e-06
2.5413319e-06
2.5374594e-06
2.5346279e-06
2.5315463e-06
2.529521e-06
2.5261618e-06
2.5234955e-06
1.7996665e-10
5.0421806e-10
8.9580875e-09
8.1528785e-08
4.2412259e-07
1.4832433e-06
3.8081996e-06
7.7125925e-06
1.318307e-05
2.0075418e-05
2.8272647e-05
3.7714323e-05
4.8378647e-05
6.0272751e-05
7.3424091e-05
8.7872246e-05
0.00010366462
0.00012085016
0.00013947072
0.00015956648
0.00018118025
0.00020434441
0.00022908265
0.00025541615
0.00028335657
0.00031291385
0.00034409557
0.0003769116
0.00041137655
0.00044750435
0.00048530304
0.00052476255
0.00056583074
0.00060837476
0.00065212758
0.00069660036
0.00074098296
0.0007840209
0.00082388227
0.00085804312
0.00088324443
0.00089553978
0.00089050298
0.00086362125
0.00081082203
0.00072900548
0.00061620859
0.00047153374
0.00029632148
0.0001030895
1.2439215e-05
2.9000059e-06
2.5340375e-06
2.5142545e-06
2.509978e-06
2.495766e-06
2.4600939e-06
2.4319542e-06
2.4636454e-06
2.5646982e-06
2.642185e-06
2.6294854e-06
2.6336892e-06
2.6746007e-06
2.6040188e-06
2.5042824e-06
2.5453663e-06
2.6153776e-06
2.5235005e-06
2.3843969e-06
2.3715881e-06
2.4484113e-06
2.5169061e-06
2.5399209e-06
2.5440596e-06
2.5413509e-06
2.5376214e-06
2.5347931e-06
2.5317649e-06
2.5298034e-06
2.5265668e-06
2.5238522e-06
2.5248806e-06
2.5160525e-06
2.5201417e-06
2.5203613e-06
2.498161e-06
2.5122638e-06
1.7894011e-10
5.0095989e-10
8.89754e-09
8.098749e-08
4.2145564e-07
1.4748469e-06
3.7897171e-06
7.6813059e-06
1.3138284e-05
2.0017393e-05
2.8201948e-05
3.7631735e-05
4.8285258e-05
6.0170046e-05
7.3314009e-05
8.7757218e-05
0.00010354756
0.00012073445
0.00013936017
0.00015946526
0.00018109284
0.00020427554
0.00022903727
0.00025539949
0.00028337422
0.00031297215
0.00034420194
0.00037707247
0.00041160042
0.00044780209
0.00048568948
0.0005252487
0.00056642324
0.0006090871
0.00065298069
0.00069762377
0.00074221585
0.00078551563
0.00082567557
0.00086015509
0.00088567698
0.0008982787
0.00089352609
0.00086691318
0.00081441788
0.00073295268
0.00062048364
0.00047602512
0.000300757
0.00010727773
1.3171526e-05
2.9411563e-06
2.5346111e-06
2.5134659e-06
2.5087433e-06
2.4947371e-06
2.459359e-06
2.4315765e-06
2.463059e-06
2.5640519e-06
2.6410907e-06
2.6290711e-06
2.6324041e-06
2.6733296e-06
2.6037835e-06
2.5040758e-06
2.5444773e-06
2.6144569e-06
2.5239119e-06
2.3855015e-06
2.3720899e-06
2.4485934e-06
2.516726e-06
2.5397735e-06
2.5440053e-06
2.5414136e-06
2.537788e-06
2.5349715e-06
2.5319707e-06
2.5300313e-06
2.5268947e-06
2.5241296e-06
2.5253696e-06
2.5165426e-06
2.5204887e-06
2.5208338e-06
2.4987673e-06
2.512264e-06
2.5217044e-06
2.482353e-06
2.4755903e-06
2.5193798e-06
1.778752e-10
4.9745372e-10
8.8316126e-09
8.0397231e-08
4.1854021e-07
1.4656218e-06
3.7692569e-06
7.6463276e-06
1.3087631e-05
1.9950943e-05
2.8119949e-05
3.7534734e-05
4.8174213e-05
6.0046424e-05
7.3179856e-05
8.7615173e-05
0.00010340085
0.00012058684
0.00013921588
0.00015932885
0.00018096913
0.00020416947
0.00022895387
0.00025534373
0.00028335095
0.00031298582
0.00034425637
0.0003771698
0.00041174468
0.000447997
0.00048593799
0.00052556202
0.0005668205
0.00060958371
0.00065358813
0.00069834888
0.00074305743
0.00078645505
0.0008267311
0.00086138721
0.0008871756
0.00090014683
0.00089586151
0.00086978289
0.00081779759
0.00073676774
0.00062467952
0.00048049895
0.00030526108
0.00011152988
1.3962948e-05
2.9921191e-06
2.5353448e-06
2.5129095e-06
2.5077463e-06
2.4936309e-06
2.4585149e-06
2.4312661e-06
2.4625907e-06
2.563384e-06
2.6401993e-06
2.6288589e-06
2.6311374e-06
2.6720628e-06
2.6036816e-06
2.5040851e-06
2.5437032e-06
2.6135477e-06
2.5245273e-06
2.3867636e-06
2.3727794e-06
2.4487088e-06
2.5166188e-06
2.5397562e-06
2.5441031e-06
2.541635e-06
2.5381073e-06
2.5353052e-06
2.5323246e-06
2.5303903e-06
2.5273457e-06
2.5245302e-06
2.5257907e-06
2.5169844e-06
2.5207831e-06
2.5212499e-06
2.4993473e-06
2.5123795e-06
2.5223458e-06
2.4834001e-06
2.476027e-06
2.5197031e-06
2.5115623e-06
2.4639778e-06
2.4484388e-06
1.768614e-10
4.9421618e-10
8.7713635e-09
7.9858198e-08
4.1588002e-07
1.4572215e-06
3.750696e-06
7.6147949e-06
1.3042354e-05
1.9892154e-05
2.8048236e-05
3.7450952e-05
4.8079559e-05
5.994252e-05
7.3068791e-05
8.7499529e-05
0.00010328369
0.00012047167
0.00013910658
0.00015922962
0.00018088437
0.00020410377
0.00022891189
0.00025533025
0.00028337093
0.00031304451
0.00034435982
0.00037732611
0.00041195751
0.00044826902
0.00048626979
0.00052595958
0.00056729419
0.00061014461
0.00065425044
0.0006991305
0.00074398252
0.00078756181
0.00082805346
0.00086295736
0.00088902947
0.00090232515
0.00089840564
0.00087272762
0.00082117629
0.00074058848
0.0006289052
0.00048501596
0.00030985439
0.00011592481
1.4654606e-05
3.0291738e-06
2.5360055e-06
2.5122762e-06
2.5067076e-06
2.4923606e-06
2.4575484e-06
2.4309192e-06
2.4621303e-06
2.5626236e-06
2.6393528e-06
2.6285409e-06
2.6298246e-06
2.6707723e-06
2.6037159e-06
2.50426e-06
2.5430165e-06
2.6126083e-06
2.5252087e-06
2.3880992e-06
2.3736031e-06
2.4487604e-06
2.5166871e-06
2.5398381e-06
2.5442554e-06
2.5419463e-06
2.5385009e-06
2.5357145e-06
2.5327569e-06
2.5308202e-06
2.5278673e-06
2.525e-06
2.5262917e-06
2.517512e-06
2.5211722e-06
2.5217701e-06
2.5000465e-06
2.5126626e-06
2.5229002e-06
2.4843896e-06
2.4764232e-06
2.5199924e-06
2.5125163e-06
2.4652941e-06
2.4491267e-06
2.5073468e-06
2.5767301e-06
1.7586568e-10
4.9099053e-10
8.7110214e-09
7.9317641e-08
4.1320678e-07
1.4487474e-06
3.7318549e-06
7.582506e-06
1.2995507e-05
1.9830621e-05
2.7972268e-05
3.7361118e-05
4.7976883e-05
5.9828586e-05
7.2945829e-05
8.7370449e-05
0.00010315207
0.00012034171
0.00013898302
0.00015911761
0.0001807894
0.00020403153
0.00022886823
0.00025532118
0.00028340278
0.00031312409
0.00034449539
0.00037752861
0.00041224056
0.00044865078
0.00048677564
0.00052660856
0.00056809329
0.0006110937
0.00065534143
0.00070036312
0.00074536449
0.00078910778
0.00082978139
0.00086488733
0.00089118483
0.00090473422
0.00090110265
0.00087575142
0.00082456684
0.00074436877
0.00063304596
0.00048939638
0.00031426475
0.00012050006
1.5644313e-05
3.0958447e-06
2.5368812e-06
2.5117643e-06
2.505759e-06
2.4911155e-06
2.4565992e-06
2.4305857e-06
2.4617854e-06
2.5619276e-06
2.6385295e-06
2.6280312e-06
2.6286144e-06
2.6694734e-06
2.6037082e-06
2.5045267e-06
2.5424088e-06
2.611722e-06
2.5258552e-06
2.3894321e-06
2.3745018e-06
2.4488398e-06
2.5167519e-06
2.5399228e-06
2.5444594e-06
2.5422818e-06
2.5389175e-06
2.5361418e-06
2.5332161e-06
2.5312797e-06
2.5284224e-06
2.5255145e-06
2.5268411e-06
2.5181012e-06
2.5216276e-06
2.522358e-06
2.5008232e-06
2.5130444e-06
2.5235242e-06
2.4854722e-06
2.4769598e-06
2.5204562e-06
2.5134029e-06
2.4665972e-06
2.449842e-06
2.5071412e-06
2.5763075e-06
2.6168877e-06
2.6419981e-06
1.7482149e-10
4.8770196e-10
8.6500587e-09
7.8772281e-08
4.1051347e-07
1.4402285e-06
3.7129758e-06
7.5502901e-06
1.2948961e-05
1.9769647e-05
2.7896988e-05
3.7271784e-05
4.7873979e-05
5.9712951e-05
7.2818744e-05
8.7233705e-05
0.00010300801
0.00012019324
0.0001388336
0.0001589712
0.00018065038
0.00020390464
0.00022875845
0.00025523371
0.0002833428
0.00031309659
0.00034450457
0.0003775761
0.00041232506
0.00044877609
0.00048694213
0.00052681901
0.00056835824
0.00061143396
0.00065579843
0.00070097373
0.00074615969
0.000790115
0.00083102701
0.00086639825
0.00089298787
0.00090685284
0.00090355924
0.00087857253
0.0008277756
0.00074797344
0.00063702691
0.00049372601
0.00031880544
0.00012496885
1.6382383e-05
3.1395815e-06
2.537873e-06
2.511545e-06
2.5050928e-06
2.4901674e-06
2.4559492e-06
2.4305088e-06
2.4616562e-06
2.5613461e-06
2.6378311e-06
2.6275076e-06
2.6277517e-06
2.6682548e-06
2.6037502e-06
2.5049112e-06
2.5418759e-06
2.6110377e-06
2.5265692e-06
2.3907655e-06
2.3754395e-06
2.4489703e-06
2.5168138e-06
2.5400646e-06
2.5447068e-06
2.5426325e-06
2.5393304e-06
2.5365564e-06
2.5336682e-06
2.5317492e-06
2.5289873e-06
2.5260449e-06
2.5273947e-06
2.5187071e-06
2.5221014e-06
2.5229402e-06
2.5015909e-06
2.5134288e-06
2.5241467e-06
2.4865798e-06
2.4775419e-06
2.5209749e-06
2.5142754e-06
2.4679449e-06
2.4506642e-06
2.506928e-06
2.5757467e-06
2.616377e-06
2.6417003e-06
2.6337899e-06
2.6392912e-06
1.7365317e-10
4.8400255e-10
8.5814398e-09
7.8157777e-08
4.0747328e-07
1.4305834e-06
3.6915107e-06
7.5134698e-06
1.2895473e-05
1.9699253e-05
2.7809815e-05
3.716823e-05
4.7754811e-05
5.9579413e-05
7.2672617e-05
8.7077328e-05
0.00010284426
0.00012002549
0.00013866562
0.00015880707
0.00018049443
0.00020376132
0.00022863231
0.00025512931
0.00028326479
0.00031304958
0.00034449344
0.00037760622
0.00041240247
0.00044890175
0.00048711687
0.00052704339
0.00056864233
0.00061179922
0.00065625755
0.00070153796
0.00074684446
0.00079094101
0.00083202039
0.00086759125
0.00089442088
0.00090857809
0.00090563177
0.0008810332
0.00083065051
0.00075127171
0.00064074574
0.00049779803
0.00032305269
0.00012913135
1.7298354e-05
3.2169275e-06
2.53997e-06
2.5113075e-06
2.5044418e-06
2.4892604e-06
2.4553699e-06
2.4305262e-06
2.4616106e-06
2.5608132e-06
2.6371399e-06
2.626993e-06
2.6271515e-06
2.6671163e-06
2.603816e-06
2.5053783e-06
2.5413609e-06
2.6105037e-06
2.5273376e-06
2.3920944e-06
2.3764037e-06
2.4491526e-06
2.5168821e-06
2.5402413e-06
2.5449648e-06
2.5429831e-06
2.5397261e-06
2.5369588e-06
2.5341014e-06
2.5322229e-06
2.5295389e-06
2.5265665e-06
2.5279419e-06
2.519305e-06
2.5225753e-06
2.5234943e-06
2.502358e-06
2.5138338e-06
2.5247936e-06
2.4877224e-06
2.4781711e-06
2.5215214e-06
2.5151624e-06
2.4693485e-06
2.4515835e-06
2.5068206e-06
2.5752393e-06
2.6157563e-06
2.6413716e-06
2.6335753e-06
2.638908e-06
2.649554e-06
1.7255884e-10
4.8074765e-10
8.5223307e-09
7.7629848e-08
4.0487192e-07
1.4223958e-06
3.673529e-06
7.4832067e-06
1.2852555e-05
1.9644281e-05
2.7743646e-05
3.7091841e-05
4.7669365e-05
5.9486323e-05
7.2573601e-05
8.6974441e-05
0.00010273992
0.00011992245
0.00013856698
0.00015871623
0.00018041501
0.00020369722
0.00022858769
0.00025510871
0.00028327334
0.00031309339
0.00034458043
0.00037774738
0.00041261518
0.00044919895
0.00048751541
0.00052756586
0.00056929816
0.0006125894
0.00065718985
0.00070262835
0.00074811339
0.00079241174
0.00083370873
0.00086949814
0.00089654234
0.00091090977
0.00090817464
0.00088380962
0.00083372077
0.00075466459
0.00064444321
0.00050169601
0.00032699088
0.00013313433
1.8039393e-05
3.2641209e-06
2.5411977e-06
2.5111179e-06
2.5038277e-06
2.488359e-06
2.4547256e-06
2.4304621e-06
2.4615298e-06
2.5602818e-06
2.6363996e-06
2.6264506e-06
2.6265483e-06
2.6660413e-06
2.6038347e-06
2.5058451e-06
2.5408133e-06
2.6099852e-06
2.528113e-06
2.3934081e-06
2.3773813e-06
2.4493584e-06
2.5169618e-06
2.5404423e-06
2.5452305e-06
2.5433261e-06
2.5401085e-06
2.5373487e-06
2.534511e-06
2.5326785e-06
2.5300616e-06
2.5270697e-06
2.5284655e-06
2.5198747e-06
2.5230233e-06
2.524023e-06
2.5031374e-06
2.5142456e-06
2.5254265e-06
2.4888302e-06
2.4787538e-06
2.5219702e-06
2.5160026e-06
2.4707621e-06
2.4525271e-06
2.506752e-06
2.5747726e-06
2.6151754e-06
2.6410997e-06
2.6332453e-06
2.6384103e-06
2.6492485e-06
2.6454174e-06
2.6708303e-06
1.7138531e-10
4.7697905e-10
8.4520011e-09
7.6999732e-08
4.0175094e-07
1.4124727e-06
3.6513926e-06
7.4452003e-06
1.2797423e-05
1.9571997e-05
2.7654643e-05
3.6986899e-05
4.7549718e-05
5.9353756e-05
7.2430505e-05
8.682382e-05
0.00010258534
0.00011976797
0.00013841701
0.00015857538
0.00018028798
0.00020358863
0.00022850199
0.00025505012
0.00028324577
0.00031310037
0.00034462516
0.00037783201
0.00041273834
0.00044936615
0.00048773136
0.00052783346
0.0005696307
0.00061300559
0.00065770156
0.00070324306
0.00074883567
0.00079324427
0.00083467177
0.00087064613
0.00089794724
0.00091265083
0.0009103276
0.00088641458
0.00083673569
0.00075806053
0.0006481751
0.00050570973
0.0003311737
0.00013741333
1.9057201e-05
3.3509196e-06
2.5434793e-06
2.5112123e-06
2.5034837e-06
2.4877194e-06
2.4542654e-06
2.4305229e-06
2.4615594e-06
2.5597921e-06
2.6357296e-06
2.6260004e-06
2.625905e-06
2.6651561e-06
2.6038779e-06
2.5063544e-06
2.5402781e-06
2.6094317e-06
2.5289243e-06
2.3947297e-06
2.3783919e-06
2.449599e-06
2.5170594e-06
2.5406493e-06
2.5454997e-06
2.5436581e-06
2.5404871e-06
2.5377313e-06
2.5349141e-06
2.5331104e-06
2.5305503e-06
2.5275388e-06
2.5289526e-06
2.5204195e-06
2.5234564e-06
2.5245564e-06
2.5039234e-06
2.5146435e-06
2.5260412e-06
2.4899213e-06
2.4793245e-06
2.5223868e-06
2.5168414e-06
2.472218e-06
2.4535009e-06
2.5067324e-06
2.574359e-06
2.6146703e-06
2.6408992e-06
2.6329433e-06
2.637994e-06
2.6489237e-06
2.6451139e-06
2.6705005e-06
2.676151e-06
1.7029799e-10
4.7353626e-10
8.3880873e-09
7.64275e-08
3.9892003e-07
1.4034949e-06
3.6314549e-06
7.4111944e-06
1.2748494e-05
1.950841e-05
2.7577033e-05
3.6896148e-05
4.7447011e-05
5.9240663e-05
7.2309027e-05
8.6696411e-05
0.0001024549
0.00011963782
0.00013829081
0.00015845706
0.00018018164
0.00020349845
0.00022843217
0.00025500485
0.00028322928
0.00031311698
0.00034467956
0.00037792934
0.00041288492
0.00044956984
0.00048800218
0.0005281846
0.00057007485
0.00061354306
0.00065834352
0.00070401018
0.00074975734
0.00079435964
0.0008360223
0.00087226259
0.00089983823
0.00091481421
0.00091276213
0.00088914643
0.00083981809
0.00076150808
0.00065197783
0.00050985064
0.00033553728
0.00014172636
1.9890977e-05
3.4168228e-06
2.5463272e-06
2.5113047e-06
2.5032094e-06
2.4871902e-06
2.4539247e-06
2.4306842e-06
2.4616883e-06
2.5593415e-06
2.6350968e-06
2.6256074e-06
2.6252188e-06
2.6644349e-06
2.6040081e-06
2.5069114e-06
2.5397643e-06
2.6087797e-06
2.5297819e-06
2.3960928e-06
2.3794401e-06
2.4498763e-06
2.517164e-06
2.5408537e-06
2.5457804e-06
2.5439937e-06
2.5408691e-06
2.5381094e-06
2.5353127e-06
2.533514e-06
2.5310071e-06
2.5279752e-06
2.5294145e-06
2.5209599e-06
2.5238911e-06
2.5250876e-06
2.5046579e-06
2.5149963e-06
2.5266139e-06
2.4909813e-06
2.4798767e-06
2.5227599e-06
2.5176624e-06
2.4736783e-06
2.4544408e-06
2.5067053e-06
2.5739635e-06
2.6142113e-06
2.6407007e-06
2.6326708e-06
2.6376535e-06
2.6486556e-06
2.6447269e-06
2.6700821e-06
2.6758904e-06
2.6575991e-06
1.6913183e-10
4.69703e-10
8.3160715e-09
7.5781567e-08
3.9571436e-07
1.3932705e-06
3.6085566e-06
7.3717164e-06
1.2691004e-05
1.9432779e-05
2.7483655e-05
3.6785819e-05
4.7321037e-05
5.9100952e-05
7.2158136e-05
8.653755e-05
0.00010229188
0.00011947495
0.0001381328
0.00015830885
0.00018004828
0.00020338494
0.00022834338
0.00025494544
0.00028320366
0.00031312918
0.00034473335
0.00037802767
0.00041302938
0.00044976217
0.00048824449
0.00052847706
0.00057042077
0.00061396764
0.00065886343
0.00070463745
0.00075050304
0.00079523516
0.00083703947
0.00087344148
0.00090123951
0.0009165186
0.00091484677
0.00089164299
0.00084272088
0.00076480577
0.00065565335
0.0005138303
0.00033969136
0.00014585297
2.0909998e-05
3.5136349e-06
2.5492532e-06
2.5113222e-06
2.5028383e-06
2.4865646e-06
2.4534599e-06
2.4306891e-06
2.4616192e-06
2.5587944e-06
2.6343628e-06
2.6250996e-06
2.6243643e-06
2.6636717e-06
2.6040327e-06
2.5074388e-06
2.5392524e-06
2.6079749e-06
2.5306268e-06
2.3974929e-06
2.3804982e-06
2.4501592e-06
2.5172622e-06
2.541034e-06
2.5460341e-06
2.5443013e-06
2.5412364e-06
2.5384904e-06
2.5357197e-06
2.5339147e-06
2.531457e-06
2.528396e-06
2.5298679e-06
2.5215013e-06
2.5243236e-06
2.5255878e-06
2.5053528e-06
2.5153549e-06
2.5271908e-06
2.4920645e-06
2.4804677e-06
2.5231351e-06
2.5185012e-06
2.4751339e-06
2.4553579e-06
2.5066962e-06
2.5736132e-06
2.613798e-06
2.6404835e-06
2.6324318e-06
2.6373759e-06
2.6484733e-06
2.6444148e-06
2.6697052e-06
2.675555e-06
2.6573239e-06
2.6796452e-06
1.6802061e-10
4.6622507e-10
8.2516975e-09
7.5205036e-08
3.9285919e-07
1.3842016e-06
3.5883818e-06
7.3372491e-06
1.2641356e-05
1.9368225e-05
2.7404881e-05
3.6693781e-05
4.7217045e-05
5.8986741e-05
7.2035926e-05
8.641006e-05
0.00010216233
0.00011934703
0.00013801057
0.00015819668
0.00017995074
0.00020330671
0.00022828919
0.00025492009
0.00028321209
0.00031317664
0.00034482598
0.000378173
0.00041323802
0.00045004453
0.00048861081
0.00052894109
0.00057099214
0.0006146428
0.00065964973
0.00070554963
0.00075156132
0.0007964649
0.00083847123
0.00087510765
0.00090315238
0.00091866953
0.00091722581
0.00089426993
0.00084563855
0.00076802897
0.0006591646
0.00051757591
0.00034360018
0.0001497378
2.1650864e-05
3.57654e-06
2.552421e-06
2.5114428e-06
2.5026059e-06
2.4860639e-06
2.4530807e-06
2.4307352e-06
2.4614502e-06
2.5582408e-06
2.6336396e-06
2.6245858e-06
2.6234547e-06
2.6628525e-06
2.6041667e-06
2.5079881e-06
2.5387932e-06
2.6071046e-06
2.5314751e-06
2.3989396e-06
2.3815715e-06
2.4504435e-06
2.5173507e-06
2.5412125e-06
2.5462772e-06
2.5445997e-06
2.5416085e-06
2.538887e-06
2.5361313e-06
2.5343053e-06
2.5318929e-06
2.5288139e-06
2.5303271e-06
2.5220489e-06
2.5247481e-06
2.5260583e-06
2.5060455e-06
2.5157384e-06
2.5277531e-06
2.4931293e-06
2.4810525e-06
2.5234882e-06
2.5193275e-06
2.4765304e-06
2.4562297e-06
2.5066954e-06
2.5732807e-06
2.6133682e-06
2.6402343e-06
2.6322312e-06
2.6371172e-06
2.6483082e-06
2.6441568e-06
2.6693476e-06
2.6752925e-06
2.6570139e-06
2.6793537e-06
2.6968446e-06
1.6689357e-10
4.6256276e-10
8.1830761e-09
7.4589239e-08
3.8979822e-07
1.3744095e-06
3.5663683e-06
7.2991656e-06
1.2585772e-05
1.9295018e-05
2.7314452e-05
3.6586922e-05
4.7095034e-05
5.8851437e-05
7.1889827e-05
8.6256311e-05
0.00010200468
0.00011918975
0.00013785835
0.00015805449
0.00017982364
0.0002031998
0.00022820744
0.00025486831
0.00028319489
0.00031319845
0.00034489099
0.00037828545
0.00041340188
0.00045026312
0.00048889183
0.00052929152
0.00057142187
0.00061516674
0.00066028074
0.00070629942
0.00075244054
0.00079748399
0.00083964189
0.00087644596
0.00090469194
0.00092047686
0.00091937198
0.00089679125
0.00084852511
0.00077126324
0.00066270367
0.00052135062
0.00034753815
0.00015388204
2.2708448e-05
3.6705385e-06
2.5558472e-06
2.5116328e-06
2.5024873e-06
2.4857154e-06
2.4528842e-06
2.4309361e-06
2.4616457e-06
2.5577548e-06
2.6329888e-06
2.6241485e-06
2.6226272e-06
2.6620014e-06
2.6042498e-06
2.5085962e-06
2.5384069e-06
2.6062732e-06
2.5323597e-06
2.4004347e-06
2.3826567e-06
2.4507244e-06
2.5174276e-06
2.5413786e-06
2.5465125e-06
2.5448955e-06
2.5419839e-06
2.5392863e-06
2.5365447e-06
2.5347049e-06
2.5323428e-06
2.5292557e-06
2.5308015e-06
2.522592e-06
2.5251746e-06
2.5265309e-06
2.5067611e-06
2.5161554e-06
2.5282973e-06
2.4941765e-06
2.4816615e-06
2.5238585e-06
2.5201643e-06
2.4778866e-06
2.4570901e-06
2.5067235e-06
2.5729765e-06
2.612927e-06
2.6399657e-06
2.632082e-06
2.6368616e-06
2.6481624e-06
2.6439462e-06
2.6689926e-06
2.6750989e-06
2.6567689e-06
2.6789969e-06
2.6965504e-06
2.6652028e-06
1.6584962e-10
4.5905873e-10
8.1167567e-09
7.3993969e-08
3.868399e-07
1.3649495e-06
3.5451225e-06
7.2624774e-06
1.2532344e-05
1.9224794e-05
2.7227831e-05
3.6484622e-05
4.697818e-05
5.8721651e-05
7.1749293e-05
8.6107794e-05
0.00010185151
0.00011903578
0.00013770785
0.00015791202
0.00017969396
0.00020308772
0.00022811773
0.00025480566
0.00028316392
0.0003132039
0.00034493764
0.00037837869
0.00041354781
0.00045046899
0.00048916769
0.00052965134
0.0005718858
0.00061575274
0.00066099488
0.0007071452
0.00075343277
0.000798645
0.00084099982
0.00087803383
0.00090654261
0.00092261366
0.00092181577
0.00089956844
0.00085165943
0.00077475624
0.00066653759
0.00052555339
0.00035202902
0.00015820669
2.3795251e-05
3.7757965e-06
2.5598091e-06
2.5117692e-06
2.5022063e-06
2.4852515e-06
2.452612e-06
2.4310597e-06
2.4616367e-06
2.5571107e-06
2.6322671e-06
2.6236569e-06
2.6217999e-06
2.6610494e-06
2.604443e-06
2.5092243e-06
2.5380508e-06
2.6054908e-06
2.5332582e-06
2.4019443e-06
2.383731e-06
2.4509985e-06
2.5174946e-06
2.5415404e-06
2.5467546e-06
2.5451998e-06
2.5423563e-06
2.5396757e-06
2.5369523e-06
2.5351104e-06
2.5327997e-06
2.5297057e-06
2.5312733e-06
2.5231252e-06
2.5256253e-06
2.5270281e-06
2.5074898e-06
2.5165721e-06
2.5288027e-06
2.4951997e-06
2.4822942e-06
2.5242295e-06
2.5209743e-06
2.4791792e-06
2.4579421e-06
2.5067669e-06
2.572674e-06
2.6124718e-06
2.6396934e-06
2.6319887e-06
2.6366008e-06
2.6479954e-06
2.6437257e-06
2.6686076e-06
2.6749383e-06
2.6566198e-06
2.6786899e-06
2.6961672e-06
2.6649554e-06
2.6573265e-06
1.6472838e-10
4.5517929e-10
8.0425883e-09
7.3327527e-08
3.835229e-07
1.3543118e-06
3.521108e-06
7.2206906e-06
1.2470902e-05
1.9143174e-05
2.7126097e-05
3.6363317e-05
4.6838439e-05
5.856529e-05
7.157883e-05
8.5926434e-05
0.00010166309
0.00011884465
0.00013751876
0.00015772998
0.00017952411
0.00020293518
0.00022798757
0.00025470286
0.00028309335
0.00031317033
0.0003449457
0.00037843285
0.00041365156
0.00045062357
0.00048937266
0.00052991002
0.00057219805
0.00061612265
0.0006614432
0.00070770911
0.00075413816
0.00079951464
0.00084205829
0.00087930908
0.000908065
0.000924415
0.00092392835
0.00090202322
0.00085448261
0.00077796409
0.00067017653
0.00052962219
0.00035640032
0.00016227126
2.4919289e-05
3.9140304e-06
2.5668884e-06
2.5120381e-06
2.5020162e-06
2.4848621e-06
2.4523865e-06
2.4312276e-06
2.4613906e-06
2.5564332e-06
2.6315165e-06
2.623132e-06
2.6209657e-06
2.6600495e-06
2.6044973e-06
2.5098413e-06
2.5377197e-06
2.6047458e-06
2.5340979e-06
2.4034285e-06
2.3847728e-06
2.4512502e-06
2.5175575e-06
2.5417035e-06
2.5469939e-06
2.5454884e-06
2.5427073e-06
2.5400571e-06
2.5373607e-06
2.5355347e-06
2.5332815e-06
2.5301832e-06
2.531765e-06
2.5236669e-06
2.5260906e-06
2.5275258e-06
2.5082221e-06
2.5170059e-06
2.5293215e-06
2.4962604e-06
2.4829895e-06
2.5246259e-06
2.5217657e-06
2.4804304e-06
2.4588179e-06
2.5068423e-06
2.5723866e-06
2.6120335e-06
2.6394466e-06
2.6319191e-06
2.6363298e-06
2.6478119e-06
2.643503e-06
2.6682098e-06
2.6747849e-06
2.6565026e-06
2.6784395e-06
2.6958396e-06
2.6646781e-06
2.6571736e-06
2.7001676e-06
1.6362077e-10
4.5172596e-10
7.978714e-09
7.2754332e-08
3.8067108e-07
1.3451789e-06
3.5005595e-06
7.1851448e-06
1.241908e-05
1.9075053e-05
2.7042157e-05
3.6264397e-05
4.6725794e-05
5.8440661e-05
7.1444488e-05
8.5785196e-05
0.00010151829
0.00011870008
0.00013737861
0.00015759868
0.00017940625
0.00020283542
0.00022791057
0.00025465325
0.00028307581
0.00031318974
0.00034500725
0.00037854262
0.00041381686
0.00045085449
0.00048967672
0.00053028819
0.00057265237
0.00061666761
0.00066209791
0.00070847824
0.00075503208
0.00080054794
0.0008432484
0.00088067546
0.00090962831
0.00092619621
0.00092594803
0.00090430038
0.00085703027
0.00078077635
0.00067319068
0.00053268006
0.00035944465
0.00016512252
2.5343545e-05
3.9381648e-06
2.5704007e-06
2.5124489e-06
2.5019893e-06
2.4845744e-06
2.4522079e-06
2.4314963e-06
2.4616231e-06
2.556059e-06
2.6309027e-06
2.6226885e-06
2.6202473e-06
2.6591695e-06
2.6044983e-06
2.5104571e-06
2.5374943e-06
2.6040889e-06
2.5348652e-06
2.4048916e-06
2.3858099e-06
2.4515249e-06
2.5176421e-06
2.5418929e-06
2.5472569e-06
2.5457996e-06
2.543074e-06
2.5404482e-06
2.5377721e-06
2.5359707e-06
2.5337703e-06
2.5306722e-06
2.5322559e-06
2.5242047e-06
2.5265373e-06
2.5280069e-06
2.5089812e-06
2.5174926e-06
2.5298655e-06
2.497352e-06
2.4837091e-06
2.524986e-06
2.5224633e-06
2.4816341e-06
2.4597272e-06
2.5069456e-06
2.5721028e-06
2.6116194e-06
2.6392345e-06
2.6318289e-06
2.6360625e-06
2.6476193e-06
2.6432546e-06
2.6677944e-06
2.6745989e-06
2.6564209e-06
2.6782205e-06
2.6955108e-06
2.6644502e-06
2.6569932e-06
2.6999874e-06
2.7341537e-06
1.6262883e-10
4.4849405e-10
7.9181274e-09
7.2209986e-08
3.779573e-07
1.336455e-06
3.4808417e-06
7.1508995e-06
1.2369021e-05
1.9009153e-05
2.6960922e-05
3.6168745e-05
4.6617136e-05
5.8321006e-05
7.1316499e-05
8.5652201e-05
0.00010138424
0.00011856948
0.00013725638
0.00015749001
0.00017931646
0.0002027698
0.00022787429
0.0002546513
0.00028311309
0.00031327119
0.00034513812
0.00037872933
0.00041406814
0.00045118393
0.00049009745
0.00053081293
0.00057329425
0.00061742202
0.00066296143
0.00070945858
0.0007561427
0.0008018058
0.00084467143
0.00088228177
0.00091143667
0.00092822588
0.00092821633
0.00090681806
0.00085979657
0.00078377141
0.00067635491
0.00053597896
0.00036280525
0.00016850154
2.6351241e-05
4.0410542e-06
2.5730919e-06
2.5125113e-06
2.501897e-06
2.4842207e-06
2.4519243e-06
2.4317114e-06
2.4619995e-06
2.5557105e-06
2.6303576e-06
2.6222906e-06
2.6195846e-06
2.6583595e-06
2.6046414e-06
2.5110529e-06
2.537318e-06
2.6034792e-06
2.535578e-06
2.4063221e-06
2.386833e-06
2.4518038e-06
2.5177487e-06
2.5421083e-06
2.5475478e-06
2.5461323e-06
2.5434463e-06
2.5408405e-06
2.5381904e-06
2.5364298e-06
2.5342832e-06
2.5311918e-06
2.5327542e-06
2.5247584e-06
2.5269757e-06
2.5284942e-06
2.5097805e-06
2.5180385e-06
2.5304245e-06
2.4984426e-06
2.4844387e-06
2.5253107e-06
2.5231186e-06
2.4828447e-06
2.4607016e-06
2.5070679e-06
2.5718221e-06
2.611236e-06
2.639042e-06
2.6316786e-06
2.6357993e-06
2.6474318e-06
2.642997e-06
2.6673802e-06
2.6743845e-06
2.6563333e-06
2.6779839e-06
2.6951649e-06
2.6643717e-06
2.6568954e-06
2.6997488e-06
2.7340183e-06
2.714488e-06
1.6169972e-10
4.4500847e-10
7.8500342e-09
7.1597436e-08
3.7490283e-07
1.3266225e-06