/*--------------------------------*- C++ -*----------------------------------*\
| =========                 |                                                 |
| \\      /  F ield         | OpenFOAM: The Open Source CFD Toolbox           |
|  \\    /   O peration     | Version:  2506                                  |
|   \\  /    A nd           | Website:  www.openfoam.com                      |
|    \\/     M anipulation  |                                                 |
\*---------------------------------------------------------------------------*/
FoamFile
{
    version     2.0;
    format      ascii;
    arch        "LSB;label=32;scalar=64";
    class       volScalarField;
    location    "1.85";
    object      p;
}
// * * * * * * * * * * * * * * * * * * * * * * * * * * * * * * * * * * * * * //

dimensions      [1 -1 -2 0 0 0 0];

internalField   nonuniform List<scalar> 
1376
(
47047.85
47041.311
47039.252
47040.169
47039.156
47038.072
47036.274
47035.497
47034.634
47035.01
47034.682
47032.469
47031.478
47029.266
47029.115
47028.758
47026.57
47025.226
47023.427
47020.497
47017.624
47016.278
47013.36
47010.673
47007.687
47004.948
47003.983
47000.06
46995.783
46993.401
46992.661
46990.701
46989.252
46984.983
46983.031
46984.005
46987.488
46988.104
46986.082
46981.478
46972.73
46962.379
46951.896
46912.384
46879.075
46833.305
46522.919
46660.258
46009.156
47048.328
47040.616
47039.436
47039.844
47039.265
47038.342
47036.274
47035.518
47035.024
47035.327
47035.319
47033.092
47032.353
47030.282
47029.792
47030.107
47028.472
47027.18
47025.645
47022.571
47020.29
47019.079
47017.212
47014.245
47012.516
47009.967
47010.011
47007.83
47004.037
47002.314
47003.24
47003.047
47003.717
47003.448
47004.419
47007.19
47015.63
47022.64
47026.128
47029.618
47034.092
47028.176
47019.784
47018.767
47015.219
46961.913
46735.378
46819.569
46095.942
47049.209
47041.046
47039.468
47039.432
47039.322
47038.251
47036.627
47035.904
47035.307
47035.034
47035.472
47033.745
47033.091
47031.019
47030.651
47031.459
47030.178
47029.1
47027.688
47024.881
47023.039
47022.039
47021.18
47018.123
47017.212
47015.707
47016.498
47015.519
47012.397
47011.465
47013.503
47014.896
47017.294
47020.503
47023.747
47028.83
47040.14
47052.472
47062.516
47069.954
47082.852
47092.53
47097.713
47097.731
47097.869
47059.149
46971.716
47011.838
46302.314
47049.621
47042.517
47039.644
47039.714
47039.265
47038.13
47037.079
47036.353
47035.917
47035.338
47036.028
47034.815
47034.4
47032.618
47031.727
47032.284
47031.654
47030.86
47029.351
47027.467
47025.758
47025.238
47025.213
47022.538
47021.635
47022.098
47023.285
47022.71
47020.836
47021.353
47023.769
47026.377
47030.576
47037.085
47042.515
47050.487
47064.704
47081.946
47098.043
47109.69
47128.336
47150.627
47164.865
47178.811
47204.946
47201.066
47176.091
47176.374
46499.299
47048.712
47042.612
47038.131
47038.846
47038.693
47038.045
47037.53
47036.817
47036.875
47036.412
47036.747
47036.016
47035.415
47034.143
47032.902
47033.06
47033.233
47032.857
47031.345
47029.9
47028.661
47029.104
47029.495
47027.125
47026.311
47028.648
47029.802
47029.905
47029.843
47031.544
47034.384
47038.184
47044.195
47052.948
47060.526
47070.586
47087.907
47109.434
47129.89
47147.496
47172.595
47201.275
47231.459
47257.995
47282.569
47306.83
47334.385
47339.566
46783.992
47047.669
47042.043
47036.993
47037.363
47038.052
47038.121
47037.844
47037.582
47037.588
47037.187
47037.165
47036.793
47035.907
47035.452
47034.257
47034.121
47034.951
47034.926
47033.61
47032.469
47032.244
47032.706
47033.517
47032.026
47031.946
47034.269
47036.125
47037.946
47039.534
47042.166
47045.779
47050.465
47057.788
47068.178
47077.935
47090.358
47110.438
47135.206
47161.318
47184.084
47211.587
47248.879
47288.984
47323.844
47369.88
47428.033
47494.909
47495.443
47078.65
47049.282
47041.869
47037.107
47036.451
47037.849
47038.79
47038.679
47038.43
47038.264
47037.934
47038.08
47037.755
47036.741
47036.652
47035.672
47035.393
47036.741
47036.566
47035.806
47035.647
47035.565
47036.279
47037.294
47037.319
47037.615
47039.787
47042.964
47046.454
47049.478
47052.883
47057.496
47062.94
47071.402
47083.409
47095.368
47109.54
47131.937
47160.895
47190.463
47220.328
47251.062
47294.01
47341.689
47396.21
47459.249
47533.983
47620.141
47649.28
47385.324
47051.901
47041.823
47036.586
47036.34
47038.612
47040.312
47039.887
47039.336
47039.093
47039.207
47039.181
47038.745
47038.046
47038.134
47037.269
47036.885
47037.99
47038.026
47038.569
47039.047
47039.182
47040.301
47041.335
47042.951
47043.421
47046.01
47049.813
47054.541
47059.022
47063.516
47069.447
47075.89
47085.097
47098.602
47112.839
47128.31
47152.722
47184.143
47218.058
47253.686
47289.284
47335.923
47392.208
47461.521
47530.587
47625.813
47744.253
47810.496
47688.795
47054.287
47043.564
47037.034
47037.508
47040.228
47041.738
47040.99
47040.172
47039.867
47040.317
47040.043
47039.883
47039.273
47039.309
47039.197
47039.071
47039.387
47040.29
47041.82
47042.645
47043.061
47043.904
47045.762
47048.606
47049.69
47052.528
47056.652
47062.316
47068.365
47074.275
47081.442
47089.018
47098.838
47113.657
47130.127
47147.084
47172.521
47206.242
47244.678
47283.611
47326.75
47375.225
47439.129
47515.118
47607.114
47723.767
47852.532
47960.918
47969.68
47054.529
47044.835
47038.312
47038.705
47041.195
47042.147
47041.613
47040.66
47040.433
47040.861
47040.556
47040.488
47040.493
47040.823
47041.493
47041.238
47041.272
47043.024
47044.874
47046.126
47046.99
47047.618
47050.239
47054.095
47056.063
47059.049
47063.654
47069.81
47077.146
47084.732
47093.256
47102.111
47112.49
47128.297
47146.922
47165.948
47191.583
47227.889
47268.855
47312.951
47361.399
47414.284
47482.06
47568.463
47674.185
47800.013
47949.445
48112.161
48230.055
47056.508
47045.119
47037.869
47038.379
47040.964
47041.528
47041.58
47040.778
47040.617
47041.035
47041.23
47041.322
47041.61
47041.903
47042.859
47043.134
47043.643
47045.51
47047.611
47049.447
47050.839
47051.423
47054.442
47059.157
47062.239
47065.353
47070.645
47077.193
47085.348
47094.52
47104.622
47114.885
47125.89
47142.238
47162.938
47184.106
47210.602
47247.81
47291.437
47339.791
47392.15
47451.532
47522.821
47616.147
47731.985
47876.491
48050.349
48251.555
48464.579
47058.518
47045.481
47037.372
47037.938
47040.306
47040.433
47041.899
47041.454
47041.268
47041.527
47041.952
47042.094
47042.394
47042.959
47044.167
47044.908
47045.573
47047.362
47049.708
47052.171
47054.45
47055.463
47058.396
47063.466
47067.961
47071.515
47077.405
47084.429
47093.024
47103.425
47115.18
47127.066
47138.844
47155.353
47177.804
47201.199
47229.055
47266.568
47312.748
47363.52
47421.249
47485.295
47560.978
47660.225
47785.607
47940.904
48135.002
48377.027
48675.759
47060.629
47046.32
47037.411
47038.244
47039.874
47041.387
47042.641
47042.373
47042.039
47042.324
47042.991
47043.281
47043.444
47044.207
47045.692
47046.908
47047.59
47049.248
47051.969
47054.998
47057.907
47059.554
47062.27
47067.38
47073.155
47077.428
47083.678
47091.343
47100.152
47111.277
47124.557
47138.318
47151.122
47167.625
47191.092
47217.084
47246.147
47284.573
47332.085
47385.344
47446.551
47515.581
47595.629
47699.769
47833.036
48000.01
48212.382
48496.692
48862.782
47063.6
47047.178
47037.429
47038.211
47039.662
47042.241
47042.352
47042.668
47042.505
47042.996
47043.876
47044.392
47044.833
47045.69
47047.31
47048.893
47049.844
47051.606
47054.574
47058.047
47061.227
47063.376
47066.052
47071.143
47077.862
47083.21
47089.616
47097.813
47106.868
47118.293
47132.75
47148.443
47162.637
47179.124
47202.912
47231.32
47262.023
47301.073
47349.681
47405.357
47468.952
47542.07
47626.898
47734.623
47876.292
48052.593
48281.355
48599.54
49024.348
47066.534
47047.907
47037.502
47037.423
47039.742
47041.746
47042.405
47043.075
47043.051
47043.354
47044.253
47045.202
47046.084
47047.1
47048.788
47050.554
47051.802
47053.847
47056.93
47060.697
47064.217
47066.923
47069.798
47074.82
47081.954
47088.561
47095.363
47103.881
47113.198
47124.632
47139.874
47157.298
47173.184
47189.819
47213.473
47243.53
47276.56
47316.073
47365.474
47423.028
47488.982
47565.105
47654.297
47765.465
47912.17
48099.521
48342.997
48685.701
49164.834
47069.22
47049.297
47037.836
47037.345
47039.562
47040.926
47042.765
47043.489
47043.486
47043.412
47044.285
47045.514
47046.745
47048.022
47049.863
47051.943
47053.379
47055.532
47058.737
47062.852
47066.826
47070.109
47073.373
47078.387
47085.524
47093.143
47100.639
47109.396
47118.986
47130.357
47146.005
47164.761
47182.353
47199.453
47222.791
47253.792
47289.107
47329.554
47379.222
47438.282
47506.327
47584.797
47677.158
47792.955
47942.676
48138.33
48395.049
48762.31
49283.569
47071.235
47050.65
47038.106
47037.282
47039.373
47041.223
47042.71
47043.839
47043.889
47043.939
47044.936
47046.145
47047.24
47048.608
47050.621
47053.12
47054.794
47056.915
47060.123
47064.442
47068.79
47072.568
47076.215
47081.335
47088.448
47096.74
47104.945
47113.927
47123.758
47135.161
47151.004
47170.653
47189.663
47207.438
47230.472
47261.925
47299.103
47340.692
47390.463
47450.4
47520.111
47600.409
47695.05
47813.873
47968.114
48168.018
48435.949
48823.584
49375.407
47072.788
47051.836
47038.12
47036.848
47039.264
47041.546
47043.177
47044.17
47044.42
47044.477
47045.72
47047.052
47047.857
47049.114
47051.121
47053.916
47055.895
47057.946
47061.048
47065.49
47070.155
47074.257
47078.076
47083.232
47090.264
47098.914
47107.731
47116.985
47126.958
47138.391
47154.313
47174.45
47194.448
47212.91
47235.673
47267.099
47305.656
47348.437
47397.961
47458.03
47528.877
47610.118
47705.975
47826.434
47983.512
48187.694
48463.506
48865.042
49438.766
47073.786
47052.674
47037.984
47036.627
47039.392
47041.425
47043.292
47044.531
47044.813
47044.853
47046.127
47047.546
47048.264
47049.48
47051.424
47054.289
47056.495
47058.615
47061.611
47066.025
47070.805
47075.107
47078.942
47084.034
47090.812
47099.364
47108.737
47118.345
47128.342
47139.692
47155.614
47175.91
47196.38
47215.343
47237.88
47269.049
47308.452
47352.246
47401.356
47460.847
47532.122
47613.682
47709.492
47830.543
47988.546
48194.766
48475.395
48886.802
49472.005
47074.091
47052.866
47037.992
47036.752
47039.682
47041.621
47043.165
47043.96
47044.503
47044.895
47046.152
47047.657
47048.506
47049.746
47051.62
47054.409
47056.684
47058.869
47061.764
47066.115
47070.962
47075.41
47079.234
47023.189
47025.797
47028.05
47028.51
47029.441
47031.278
47032.414
47033.209
47034.241
47035.271
47035.586
47037.919
47037.672
47040.092
47037.472
46938.508
46948.981
46959.872
46968.72
46975.032
46984.123
46992.537
46997.429
47001.925
47007.403
47012.603
47016.972
47020.415
47023.963
47026.242
47027.748
47028.269
47029.637
47031.181
47032.433
47033.587
47034.328
47035.282
47035.824
47037.894
47037.76
47040.292
47037.297
46730.68
46768.941
46804.578
46825.475
46846.075
46868.667
46887.379
46903.378
46920.482
46933.987
46945.248
46955.142
46965.156
46972.527
46979.574
46987.885
46993.185
46997.449
47003.817
47008.922
47013.208
47017.489
47021.296
47024.685
47026.44
47027.23
47028.471
47030.178
47031.525
47032.708
47033.578
47034.523
47035.555
47036.102
47037.875
47037.615
47039.264
47037.056
45952.222
46363.343
46247.335
46555.12
46436.951
46617.337
46646.365
46683.481
46724.972
46757.588
46803.613
46825.214
46842.199
46862.825
46882.349
46898.737
46914.052
46929.071
46940.942
46950.896
46960.173
46969.451
46976.704
46984.298
46990.793
46995.813
47001.34
47005.891
47009.543
47014.354
47018.21
47022.37
47025.18
47026.946
47027.994
47029.033
47030.186
47031.92
47033.076
47033.678
47034.935
47035.822
47036.37
47037.972
47037.344
47038.498
47037.203
45749.115
46071.345
46048.833
46453.054
46279.64
46601.214
46530.196
46648.962
46675.756
46720.16
46759.667
46792.332
46821.473
46844.321
46861.661
46880.528
46896.428
46911.33
46925.667
46938.616
46948.687
46957.166
46965.696
46973.854
46980.145
46987.256
46993.247
46998.313
47003.183
47008.053
47011.969
47015.668
47019.292
47022.988
47025.949
47027.737
47028.55
47029.413
47030.33
47031.977
47033.033
47034.472
47035.265
47036.083
47036.79
47038.279
47037.197
47038.786
47036.954
45745.017
46205.724
46109.972
46471.226
46348.965
46599.867
46593.023
46681.615
46725.018
46753.717
46792.2
46833.551
46851.708
46869.052
46883.428
46897.37
46911.132
46924.864
46937.477
46948.19
46956.724
46964.153
46972.373
46979.353
46984.352
46990.62
46995.831
47000.523
47005.403
47009.868
47013.33
47016.608
47020.335
47023.282
47026.706
47028.018
47028.488
47029.585
47030.735
47032.623
47033.32
47034.761
47035.447
47036.267
47037.195
47038.703
47037.305
47040.264
47036.284
45766.873
46271.3
46101.488
46516.519
46434.806
46650.635
46672.692
46727.896
46768.279
46799.986
46840.922
46859.822
46876.991
46890.861
46902.768
46914.104
46925.833
46938.175
46948.843
46957.13
46964.251
46970.643
46978.274
46984.663
46989.175
46994.907
46999.395
47003.978
47008.381
47011.732
47014.421
47018.829
47022.229
47023.795
47026.889
47027.819
47028.902
47030.275
47031.517
47033.394
47033.873
47034.656
47035.575
47036.627
47037.611
47039.181
47037.875
47041.808
47037.611
45729.423
46331.72
46171.712
46634.763
46530.386
46681.836
46732.928
46779.115
46809.775
46844.718
46873.442
46892.85
46903.962
46915.099
46923.469
46931.393
46941.99
46952.41
46960.554
46966.606
46972.045
46977.392
46984.574
46989.903
46993.35
46998.699
47002.894
47007.324
47010.751
47013.994
47017.247
47021.136
47023.65
47025.038
47026.75
47027.536
47029.211
47030.632
47032.332
47034.077
47034.271
47034.865
47035.71
47036.978
47038.069
47039.697
47038.513
47041.864
47040.115
45831.822
46445.402
46225.104
46660.049
46642.16
46754.584
46781.783
46830.328
46866.537
46894.748
46914.441
46926.478
46932.787
46940.12
46943.492
46949.358
46958.605
46966.044
46971.864
46976.268
46980.24
46984.922
46991.362
46995.318
46997.924
47002.7
47006.14
47010.053
47012.882
47016.103
47019.387
47022.648
47024.166
47026.557
47027.414
47027.458
47028.714
47030.589
47032.661
47034.504
47034.191
47035.038
47035.882
47037.284
47038.543
47040.083
47039.076
47043.554
47043.237
45931.774
46581.061
46332.487
46668.96
46731.898
46843.146
46868.253
46887.542
46919.294
46937.998
46949.309
46954.512
46959.218
46961.35
46962.305
46966.636
46974.133
46978.558
46982.215
46984.92
46988.006
46992.634
46997.951
47000.329
47002.925
47006.881
47009.673
47013.293
47015.106
47018.278
47021.226
47023.665
47025.129
47027.79
47028.008
47027.983
47029.826
47031.374
47033.382
47034.52
47034.18
47035.368
47036.218
47037.642
47038.889
47040.279
47039.271
47042.641
47047.595
)
;

boundaryField
{
    Side
    {
        type            empty;
    }
    Inlet
    {
        type            totalPressure;
        rho             rho;
        psi             none;
        gamma           1;
        p0              uniform 50000;
        value           nonuniform List<scalar> 
30
(
47041.134
47041.278
47041.337
47041.407
47041.392
47041.279
47041.232
47041.289
47041.352
47041.304
47041.27
47041.218
47041.112
47040.956
47040.738
47040.481
47040.223
47040.001
47039.851
47039.798
47037.442
47037.368
47037.301
47037.32
47037.389
47037.282
47036.933
47037.442
47039.094
47040.785
)
;
    }
    Airfoil
    {
        type            zeroGradient;
    }
    Outlet
    {
        type            fixedValue;
        value           nonuniform List<scalar> 0();
    }
    procBoundary7to0
    {
        type            processor;
        value           nonuniform List<scalar> 
50
(
47084.205
47090.856
47099.386
47109.026
47118.763
47128.624
47139.882
47155.83
47175.994
47196.457
47215.695
47238.166
47269.166
47309.044
47353.561
47402.319
47461.077
47532.376
47613.835
47708.961
47829.815
47987.927
48194.716
48477.606
48893.858
49483.615
47073.656
47052.454
47038.028
47037.004
47039.902
47041.358
47042.447
47043.629
47044.446
47044.724
47045.928
47047.537
47048.617
47049.968
47051.7
47054.333
47056.629
47058.711
47061.4
47065.732
47070.661
47075.229
47084.205
47079.127
)
;
    }
    procBoundary7to8
    {
        type            processor;
        value           nonuniform List<scalar> 
53
(
47022.552
47025.115
47027.562
47028.741
47029.499
47031.148
47032.341
47032.859
47033.923
47035.466
47035.669
47037.953
47037.427
47039.071
47037.414
46932.705
46944.866
46956.556
46966.469
46973.738
46981.059
46990.731
46997.689
47001.614
47006.269
47011.32
47015.822
47019.853
47019.853
46702.1
46748.62
46777.698
46803.196
46828.82
46853.539
46874.98
46892.494
46910.73
46925.933
46925.933
45956.485
46308.313
46184.923
46492.211
46435.151
46563.756
46593.443
46637.384
46682.799
46682.799
45718.516
46114.827
46114.827
)
;
    }
}


// ************************************************************************* //
