/*--------------------------------*- C++ -*----------------------------------*\
| =========                 |                                                 |
| \\      /  F ield         | OpenFOAM: The Open Source CFD Toolbox           |
|  \\    /   O peration     | Version:  2506                                  |
|   \\  /    A nd           | Website:  www.openfoam.com                      |
|    \\/     M anipulation  |                                                 |
\*---------------------------------------------------------------------------*/
FoamFile
{
    version     2.0;
    format      ascii;
    arch        "LSB;label=32;scalar=64";
    class       volVectorField;
    location    "0.00033";
    object      U;
}
// * * * * * * * * * * * * * * * * * * * * * * * * * * * * * * * * * * * * * //

dimensions      [0 1 -1 0 0 0 0];

internalField   nonuniform List<vector> 
3423
(
(91.03 24.39 0)
(91.03 24.39 1.0507392e-23)
(91.03 24.39 -9.5745449e-24)
(91.03 24.39 1.1074738e-21)
(91.03 24.39 4.0724003e-21)
(91.03 24.39 1.8837303e-23)
(91.03 24.39 0)
(91.03 24.39 -1.0087275e-21)
(91.03 24.39 -1.4405512e-23)
(91.03 24.39 1.3159277e-23)
(91.03 24.39 1.5378595e-21)
(91.03 24.39 0)
(91.03 24.39 1.2799477e-21)
(91.03 24.39 0)
(91.03 24.39 2.1262804e-21)
(91.03 24.39 -1.928855e-21)
(91.03 24.39 1.3409833e-21)
(91.03 24.39 -1.2484569e-21)
(91.03 24.39 0)
(91.03 24.39 3.2712415e-23)
(91.03 24.39 -2.9929225e-23)
(91.03 24.39 -2.7367829e-23)
(91.03 24.39 0)
(91.03 24.39 0)
(91.03 24.39 -1.3140577e-21)
(91.03 24.39 -1.2371086e-21)
(91.03 24.39 1.1195702e-21)
(91.03 24.39 -2.0173382e-21)
(91.03 24.39 -1.8451796e-21)
(91.03 24.39 0)
(91.03 24.39 1.4506872e-21)
(91.03 24.39 -4.0332e-23)
(91.03 24.39 1.2204054e-21)
(91.03 24.39 -3.3890856e-23)
(91.03 24.39 9.932965e-22)
(91.03 24.39 -2.8413937e-23)
(91.03 24.39 0)
(91.03 24.39 2.3769174e-23)
(91.03 24.39 -1.4119289e-21)
(91.03 24.39 1.9840432e-23)
(91.03 24.39 -1.8112234e-23)
(91.03 24.39 -1.057658e-21)
(91.03 24.39 -1.913982e-21)
(91.03 24.39 1.7514271e-21)
(91.03 24.39 0)
(91.03 24.39 0)
(91.03 24.39 0)
(91.03 24.39 0)
(91.03 24.39 0)
(91.03 24.39 4.5312232e-23)
(91.03 24.39 -1.3734461e-21)
(91.03 24.39 -3.8205511e-23)
(91.03 24.39 -2.2432722e-21)
(91.03 24.39 -1.0284352e-21)
(91.03 24.39 -9.1298632e-22)
(91.03 24.39 -2.69731e-23)
(91.03 24.39 0)
(91.03 24.39 1.4681415e-21)
(91.03 24.39 1.3217055e-21)
(91.03 24.39 -1.887197e-23)
(91.03 24.39 1.7236334e-23)
(91.03 24.39 0)
(91.03 24.39 -1.4355159e-23)
(91.03 24.39 2.6180611e-23)
(91.03 24.39 1.3192916e-21)
(91.03 24.39 1.2943787e-21)
(91.03 24.39 -7.0266365e-23)
(91.03 24.39 -1.0369193e-21)
(91.03 24.39 -8.9605693e-22)
(91.03 24.39 -8.8049186e-22)
(91.03 24.39 1.6212792e-21)
(91.03 24.39 0)
(91.03 24.39 -1.4146611e-21)
(91.03 24.39 0)
(91.03 24.39 0)
(91.03 24.39 1.0629377e-21)
(91.03 24.39 1.9807732e-21)
(91.03 24.39 -2.7940396e-23)
(91.03 24.39 1.638601e-21)
(91.03 24.39 0)
(91.03 24.39 -1.3950319e-21)
(91.03 24.39 -1.2368949e-21)
(91.03 24.39 1.1667708e-21)
(91.03 24.39 -1.6402625e-23)
(91.03 24.39 0)
(91.03 24.39 -1.3673852e-23)
(91.03 24.39 2.4949586e-23)
(91.03 24.39 7.8448393e-22)
(91.03 24.39 7.2611004e-22)
(91.03 24.39 0)
(91.03 24.39 -7.7622722e-23)
(91.03 24.39 1.2192502e-21)
(91.03 24.39 -6.6228029e-23)
(91.03 24.39 6.1119739e-23)
(91.03 24.39 1.7475262e-21)
(91.03 24.39 8.8334826e-22)
(91.03 24.39 -1.5317715e-21)
(91.03 24.39 0)
(91.03 24.39 -4.0549583e-23)
(91.03 24.39 0)
(91.03 24.39 -1.0623139e-21)
(91.03 24.39 0)
(91.03 24.39 -9.5340829e-22)
(91.03 24.39 -1.6962822e-21)
(91.03 24.39 -1.5309397e-21)
(91.03 24.39 0)
(91.03 24.39 -2.0392119e-23)
(91.03 24.39 1.194516e-21)
(91.03 24.39 1.707325e-23)
(91.03 24.39 0)
(91.03 24.39 -1.8113516e-21)
(91.03 24.39 1.6541959e-21)
(91.03 24.39 0)
(91.03 24.39 0)
(91.03 24.39 8.531543e-23)
(91.03 24.39 -1.3424853e-21)
(91.03 24.39 -1.1688517e-21)
(91.03 24.39 -1.0806429e-21)
(91.03 24.39 -9.9849877e-22)
(91.03 24.39 9.2204917e-22)
(91.03 24.39 -8.5094353e-22)
(91.03 24.39 4.9053154e-23)
(91.03 24.39 1.3564791e-21)
(91.03 24.39 8.3307744e-23)
(91.03 24.39 1.1888281e-21)
(91.03 24.39 1.1644256e-21)
(91.03 24.39 2.0441741e-21)
(91.03 24.39 0)
(91.03 24.39 -2.7387768e-23)
(91.03 24.39 1.6340737e-21)
(91.03 24.39 -2.3062327e-23)
(91.03 24.39 2.1144271e-23)
(91.03 24.39 0)
(91.03 24.39 1.1355169e-21)
(91.03 24.39 0)
(91.03 24.39 -1.4853816e-23)
(91.03 24.39 1.7653304e-21)
(91.03 24.39 1.5757584e-21)
(91.03 24.39 0)
(91.03 24.39 -8.665545e-22)
(91.03 24.39 7.0388202e-22)
(91.03 24.39 8.396463e-22)
(91.03 24.39 -8.6508555e-23)
(91.03 24.39 -5.6119433e-22)
(91.03 24.39 2.3761273e-21)
(91.03 24.39 -6.873381e-23)
(91.03 24.39 0)
(91.03 24.39 9.4063828e-22)
(91.03 24.39 -8.6916246e-22)
(91.03 24.39 -5.0164778e-23)
(91.03 24.39 4.6297282e-23)
(91.03 24.39 -2.7329382e-21)
(91.03 24.39 0)
(91.03 24.39 1.1603791e-21)
(91.03 24.39 -2.1366588e-21)
(91.03 24.39 -9.8298632e-22)
(91.03 24.39 -9.0391432e-22)
(91.03 24.39 1.6614036e-21)
(91.03 24.39 0)
(91.03 24.39 2.1885138e-23)
(91.03 24.39 1.244743e-21)
(91.03 24.39 1.8406448e-23)
(91.03 24.39 -1.062521e-21)
(91.03 24.39 -2.0077725e-21)
(91.03 24.39 -1.7951403e-21)
(91.03 24.39 1.6549313e-21)
(91.03 24.39 -1.5247179e-21)
(91.03 24.39 1.0799083e-23)
(91.03 24.39 -1.879084e-21)
(91.03 24.39 0)
(91.03 24.39 0)
(91.03 24.39 0)
(91.03 24.39 0)
(91.03 24.39 8.1216158e-23)
(91.03 24.39 5.2719479e-22)
(91.03 24.39 -1.0469938e-21)
(91.03 24.39 -1.0990782e-21)
(91.03 24.39 0)
(91.03 24.39 -5.5368793e-23)
(91.03 24.39 1.0238823e-22)
(91.03 24.39 7.0958691e-22)
(91.03 24.39 0)
(91.03 24.39 0)
(91.03 24.39 0)
(91.03 24.39 -1.0970146e-21)
(91.03 24.39 1.0106219e-21)
(91.03 24.39 -5.8154072e-23)
(91.03 24.39 9.0965324e-22)
(91.03 24.39 -1.5253563e-21)
(91.03 24.39 -4.5219805e-23)
(91.03 24.39 0)
(91.03 24.39 -1.2199166e-21)
(91.03 24.39 0)
(91.03 24.39 0)
(91.03 24.39 3.7602968e-21)
(91.03 24.39 1.7217018e-21)
(91.03 24.39 -1.575693e-21)
(91.03 24.39 0)
(91.03 24.39 1.0293017e-23)
(91.03 24.39 7.6913997e-22)
(91.03 24.39 1.0223933e-22)
(91.03 24.39 -9.50813e-23)
(91.03 24.39 -7.0700917e-22)
(91.03 24.39 0)
(91.03 24.39 0)
(91.03 24.39 0)
(91.03 24.39 9.8389603e-22)
(91.03 24.39 1.0335084e-21)
(91.03 24.39 -9.0102594e-22)
(91.03 24.39 5.2133008e-23)
(91.03 24.39 -4.823356e-23)
(91.03 24.39 -2.1853511e-21)
(91.03 24.39 4.1213418e-23)
(91.03 24.39 1.2940989e-21)
(91.03 24.39 -7.025928e-23)
(91.03 24.39 9.7210805e-22)
(91.03 24.39 5.9741601e-23)
(91.03 24.39 0)
(91.03 24.39 -1.6215649e-21)
(91.03 24.39 4.6627117e-23)
(91.03 24.39 -1.4578262e-21)
(91.03 24.39 -1.221551e-21)
(91.03 24.39 0)
(91.03 24.39 3.3220361e-23)
(91.03 24.39 -3.0474627e-23)
(91.03 24.39 -3.5482657e-21)
(91.03 24.39 1.6127568e-21)
(91.03 24.39 -1.5002657e-21)
(91.03 24.39 -1.3730119e-21)
(91.03 24.39 1.2558256e-21)
(91.03 24.39 -1.0276261e-22)
(91.03 24.39 0)
(91.03 24.39 8.9036731e-23)
(91.03 24.39 0)
(91.03 24.39 6.1581944e-22)
(91.03 24.39 0)
(91.03 24.39 -6.6403372e-23)
(91.03 24.39 -9.8594482e-22)
(91.03 24.39 1.0287188e-21)
(91.03 24.39 7.946085e-22)
(91.03 24.39 0)
(91.03 24.39 7.2692e-22)
(91.03 24.39 1.3451764e-21)
(91.03 24.39 1.1661398e-21)
(91.03 24.39 1.4368967e-22)
(91.03 24.39 -6.6353906e-23)
(91.03 24.39 -1.9598412e-21)
(91.03 24.39 -5.6494737e-23)
(91.03 24.39 0)
(91.03 24.39 1.5834061e-21)
(91.03 24.39 0)
(91.03 24.39 1.3008459e-21)
(91.03 24.39 0)
(91.03 24.39 1.0650369e-21)
(91.03 24.39 -9.466474e-22)
(91.03 24.39 0)
(91.03 24.39 1.7005209e-21)
(91.03 24.39 -3.1667912e-21)
(91.03 24.39 1.4507872e-21)
(91.03 24.39 1.2876194e-21)
(91.03 24.39 1.8704591e-23)
(91.03 24.39 0)
(91.03 24.39 8.0557653e-22)
(91.03 24.39 5.8343298e-22)
(91.03 24.39 0)
(91.03 24.39 -5.7721637e-22)
(91.03 24.39 -6.7076196e-23)
(91.03 24.39 6.2322488e-23)
(91.03 24.39 0)
(91.03 24.39 -8.5935998e-22)
(91.03 24.39 -8.9671689e-22)
(91.03 24.39 7.3888216e-22)
(91.03 24.39 7.7009157e-22)
(91.03 24.39 7.9223564e-23)
(91.03 24.39 -1.4661443e-22)
(91.03 24.39 0)
(91.03 24.39 -1.0024385e-21)
(91.03 24.39 9.8374416e-22)
(91.03 24.39 -8.5463481e-22)
(91.03 24.39 1.626046e-21)
(91.03 24.39 -4.5426312e-23)
(91.03 24.39 4.1852956e-23)
(91.03 24.39 0)
(91.03 24.39 -7.0922374e-23)
(91.03 24.39 -1.0109369e-21)
(91.03 24.39 9.5907523e-22)
(91.03 24.39 1.7617941e-21)
(91.03 24.39 -2.5268592e-23)
(91.03 24.39 1.5067286e-21)
(91.03 24.39 1.3601249e-21)
(91.03 24.39 1.2267468e-21)
(91.03 24.39 -1.1233396e-21)
(91.03 24.39 9.2839247e-22)
(91.03 24.39 -9.6263943e-23)
(91.03 24.39 6.2851927e-22)
(91.03 24.39 -5.8594018e-22)
(91.03 24.39 -7.0195046e-22)
(91.03 24.39 0)
(91.03 24.39 6.7606349e-23)
(91.03 24.39 0)
(91.03 24.39 0)
(91.03 24.39 1.0867056e-22)
(91.03 24.39 0)
(91.03 24.39 1.311401e-21)
(91.03 24.39 8.6891163e-23)
(91.03 24.39 6.4443184e-22)
(91.03 24.39 0)
(91.03 24.39 -1.1057297e-21)
(91.03 24.39 6.3952159e-23)
(91.03 24.39 -5.914468e-23)
(91.03 24.39 8.7463868e-22)
(91.03 24.39 8.0789125e-22)
(91.03 24.39 -1.4915476e-21)
(91.03 24.39 1.3760066e-21)
(91.03 24.39 0)
(91.03 24.39 3.65277e-23)
(91.03 24.39 2.1189996e-21)
(91.03 24.39 0)
(91.03 24.39 0)
(91.03 24.39 -3.3486934e-21)
(91.03 24.39 0)
(91.03 24.39 -1.4117103e-21)
(91.03 24.39 -2.0235523e-23)
(91.03 24.39 -1.150243e-21)
(91.03 24.39 -1.6998785e-23)
(91.03 24.39 -1.0302258e-21)
(91.03 24.39 -5.7748743e-22)
(91.03 24.39 6.2912577e-22)
(91.03 24.39 8.3882838e-23)
(91.03 24.39 -7.0425601e-22)
(91.03 24.39 0)
(91.03 24.39 0)
(91.03 24.39 -1.2665068e-22)
(91.03 24.39 -8.2528448e-22)
(91.03 24.39 0)
(91.03 24.39 -1.0199567e-22)
(91.03 24.39 0)
(91.03 24.39 -6.1627098e-22)
(91.03 24.39 -6.5378111e-22)
(91.03 24.39 -1.2888562e-21)
(91.03 24.39 1.4058542e-22)
(91.03 24.39 -6.5133408e-23)
(91.03 24.39 0)
(91.03 24.39 9.4895928e-22)
(91.03 24.39 -1.7037648e-21)
(91.03 24.39 -7.1583796e-22)
(91.03 24.39 0)
(91.03 24.39 -1.3837096e-21)
(91.03 24.39 -1.1264187e-21)
(91.03 24.39 -3.4619258e-23)
(91.03 24.39 -1.0207823e-21)
(91.03 24.39 9.39993e-22)
(91.03 24.39 -1.7301046e-21)
(91.03 24.39 3.1823408e-21)
(91.03 24.39 0)
(91.03 24.39 0)
(91.03 24.39 -1.2138876e-21)
(91.03 24.39 -1.7676589e-23)
(91.03 24.39 -1.037222e-21)
(91.03 24.39 -1.026738e-22)
(91.03 24.39 7.6821629e-22)
(91.03 24.39 0)
(91.03 24.39 -6.7102567e-22)
(91.03 24.39 -6.2668904e-22)
(91.03 24.39 5.849915e-22)
(91.03 24.39 -1.3644805e-22)
(91.03 24.39 -3.8171757e-22)
(91.03 24.39 1.0673048e-21)
(91.03 24.39 7.7328009e-22)
(91.03 24.39 9.2563115e-22)
(91.03 24.39 -1.9139993e-22)
(91.03 24.39 1.7799759e-22)
(91.03 24.39 -8.2719732e-23)
(91.03 24.39 0)
(91.03 24.39 0)
(91.03 24.39 0)
(91.03 24.39 0)
(91.03 24.39 0)
(91.03 24.39 -5.2672563e-23)
(91.03 24.39 4.8751961e-23)
(91.03 24.39 7.6661859e-22)
(91.03 24.39 1.2922885e-21)
(91.03 24.39 1.2323743e-21)
(91.03 24.39 0)
(91.03 24.39 6.5613028e-23)
(91.03 24.39 -1.0285136e-21)
(91.03 24.39 -8.9202337e-22)
(91.03 24.39 1.6429546e-21)
(91.03 24.39 -1.5593121e-21)
(91.03 24.39 4.3459752e-23)
(91.03 24.39 1.2782938e-21)
(91.03 24.39 1.1742223e-21)
(91.03 24.39 -1.6842925e-23)
(91.03 24.39 1.0044007e-21)
(91.03 24.39 2.8681198e-22)
(91.03 24.39 7.1576561e-22)
(91.03 24.39 6.6954011e-22)
(91.03 24.39 0)
(91.03 24.39 0)
(91.03 24.39 0)
(91.03 24.39 5.1018062e-22)
(91.03 24.39 4.7606878e-22)
(91.03 24.39 -7.7701312e-22)
(91.03 24.39 -1.0347166e-22)
(91.03 24.39 -8.6760377e-22)
(91.03 24.39 8.9763341e-23)
(91.03 24.39 -8.3536772e-23)
(91.03 24.39 7.7698251e-23)
(91.03 24.39 0)
(91.03 24.39 1.0736139e-21)
(91.03 24.39 0)
(91.03 24.39 -8.6718971e-22)
(91.03 24.39 -9.1144005e-22)
(91.03 24.39 -9.9380492e-23)
(91.03 24.39 9.2050509e-23)
(91.03 24.39 -1.3633338e-21)
(91.03 24.39 -1.1823834e-21)
(91.03 24.39 -1.3117514e-21)
(91.03 24.39 1.1446306e-21)
(91.03 24.39 0)
(91.03 24.39 9.1787439e-22)
(91.03 24.39 1.7457612e-21)
(91.03 24.39 -4.8752936e-23)
(91.03 24.39 0)
(91.03 24.39 -1.3224417e-21)
(91.03 24.39 3.8012199e-23)
(91.03 24.39 -5.2412378e-23)
(91.03 24.39 1.6049311e-23)
(91.03 24.39 0)
(91.03 24.39 -3.7993084e-22)
(91.03 24.39 -1.7796841e-22)
(91.03 24.39 -1.3332477e-21)
(91.03 24.39 -4.6797774e-22)
(91.03 24.39 -4.3783326e-22)
(91.03 24.39 4.0943835e-22)
(91.03 24.39 3.8270128e-22)
(91.03 24.39 -3.5753486e-22)
(91.03 24.39 -1.1128545e-22)
(91.03 24.39 1.0386222e-22)
(91.03 24.39 -7.7506941e-22)
(91.03 24.39 0)
(91.03 24.39 -6.7333526e-22)
(91.03 24.39 0)
(91.03 24.39 0)
(91.03 24.39 -1.2216588e-21)
(91.03 24.39 -1.8929916e-21)
(91.03 24.39 0)
(91.03 24.39 8.7112923e-22)
(91.03 24.39 9.0952349e-22)
(91.03 24.39 6.5612245e-22)
(91.03 24.39 -6.9506614e-22)
(91.03 24.39 1.2877659e-21)
(91.03 24.39 1.1921935e-21)
(91.03 24.39 0)
(91.03 24.39 1.0198716e-21)
(91.03 24.39 -5.8899421e-23)
(91.03 24.39 9.2462963e-22)
(91.03 24.39 -1.5560002e-21)
(91.03 24.39 -4.6291112e-23)
(91.03 24.39 4.2664558e-23)
(91.03 24.39 -7.8593509e-23)
(91.03 24.39 3.6171465e-23)
(91.03 24.39 -1.0314722e-21)
(91.03 24.39 -3.0587683e-23)
(91.03 24.39 -1.8125034e-21)
(91.03 24.39 3.7667428e-22)
(91.03 24.39 0)
(91.03 24.39 0)
(91.03 24.39 1.2411956e-21)
(91.03 24.39 -4.3594734e-22)
(91.03 24.39 -1.3604424e-22)
(91.03 24.39 -3.8191671e-22)
(91.03 24.39 -5.9536036e-22)
(91.03 24.39 0)
(91.03 24.39 0)
(91.03 24.39 -9.7145972e-23)
(91.03 24.39 9.0682568e-22)
(91.03 24.39 -8.4604884e-23)
(91.03 24.39 1.2622798e-21)
(91.03 24.39 5.8820711e-22)
(91.03 24.39 0)
(91.03 24.39 1.1476203e-21)
(91.03 24.39 9.4911455e-22)
(91.03 24.39 -9.9287024e-22)
(91.03 24.39 8.2017409e-22)
(91.03 24.39 0)
(91.03 24.39 -7.0706492e-22)
(91.03 24.39 1.2298191e-21)
(91.03 24.39 1.2161378e-21)
(91.03 24.39 -1.1267439e-21)
(91.03 24.39 1.1084697e-21)
(91.03 24.39 -1.0256959e-21)
(91.03 24.39 5.5794021e-23)
(91.03 24.39 -8.2498715e-22)
(91.03 24.39 -4.761973e-23)
(91.03 24.39 4.3950703e-23)
(91.03 24.39 0)
(91.03 24.39 1.1583501e-21)
(91.03 24.39 3.4419991e-23)
(91.03 24.39 3.1685539e-23)
(91.03 24.39 -1.9238598e-21)
(91.03 24.39 2.6798868e-23)
(91.03 24.39 0)
(91.03 24.39 -3.498571e-22)
(91.03 24.39 3.2830805e-22)
(91.03 24.39 0)
(91.03 24.39 -5.775051e-22)
(91.03 24.39 4.0593997e-22)
(91.03 24.39 6.3381668e-22)
(91.03 24.39 3.5610026e-22)
(91.03 24.39 1.1109847e-22)
(91.03 24.39 -1.0393448e-22)
(91.03 24.39 0)
(91.03 24.39 -8.1746972e-22)
(91.03 24.39 -6.7877777e-22)
(91.03 24.39 1.5843546e-22)
(91.03 24.39 -1.1827669e-21)
(91.03 24.39 0)
(91.03 24.39 0)
(91.03 24.39 0)
(91.03 24.39 1.114986e-22)
(91.03 24.39 -1.0375802e-22)
(91.03 24.39 -6.7549025e-22)
(91.03 24.39 5.3816449e-22)
(91.03 24.39 8.3319449e-23)
(91.03 24.39 0)
(91.03 24.39 -1.1482539e-21)
(91.03 24.39 -9.9814168e-22)
(91.03 24.39 -9.8657858e-22)
(91.03 24.39 8.5652313e-22)
(91.03 24.39 0)
(91.03 24.39 -4.8875075e-23)
(91.03 24.39 1.5359118e-21)
(91.03 24.39 0)
(91.03 24.39 -3.8515915e-23)
(91.03 24.39 0)
(91.03 24.39 1.0808657e-21)
(91.03 24.39 -3.0174472e-23)
(91.03 24.39 1.7779388e-21)
(91.03 24.39 3.2715952e-21)
(91.03 24.39 1.728858e-22)
(91.03 24.39 1.6240164e-22)
(91.03 24.39 -6.0997617e-22)
(91.03 24.39 5.7253531e-22)
(91.03 24.39 5.3717241e-22)
(91.03 24.39 -1.259455e-22)
(91.03 24.39 -4.7226385e-22)
(91.03 24.39 -3.3189166e-22)
(91.03 24.39 4.1446631e-22)
(91.03 24.39 -9.7002404e-22)
(91.03 24.39 0)
(91.03 24.39 8.4892026e-22)
(91.03 24.39 0)
(91.03 24.39 0)
(91.03 24.39 5.5393511e-22)
(91.03 24.39 -1.0340412e-21)
(91.03 24.39 -1.2057669e-22)
(91.03 24.39 -7.8693546e-22)
(91.03 24.39 -8.3804385e-22)
(91.03 24.39 9.7558688e-23)
(91.03 24.39 -9.0803976e-23)
(91.03 24.39 -6.7573971e-22)
(91.03 24.39 0)
(91.03 24.39 0)
(91.03 24.39 0)
(91.03 24.39 1.0058473e-21)
(91.03 24.39 9.9110862e-22)
(91.03 24.39 -1.0806585e-22)
(91.03 24.39 5.0045844e-23)
(91.03 24.39 0)
(91.03 24.39 -1.371193e-21)
(91.03 24.39 -1.267552e-21)
(91.03 24.39 1.1343853e-21)
(91.03 24.39 6.7565753e-23)
(91.03 24.39 -1.0285422e-21)
(91.03 24.39 9.1956597e-22)
(91.03 24.39 -2.6477105e-23)
(91.03 24.39 -1.5602741e-21)
(91.03 24.39 1.603321e-22)
(91.03 24.39 4.5210843e-22)
(91.03 24.39 7.0799134e-22)
(91.03 24.39 -5.3196789e-22)
(91.03 24.39 0)
(91.03 24.39 -4.6870088e-22)
(91.03 24.39 4.3967244e-22)
(91.03 24.39 0)
(91.03 24.39 1.9319695e-22)
(91.03 24.39 9.0495753e-22)
(91.03 24.39 -1.6947857e-22)
(91.03 24.39 1.5862263e-22)
(91.03 24.39 1.1871197e-21)
(91.03 24.39 0)
(91.03 24.39 6.4833824e-22)
(91.03 24.39 2.4223667e-22)
(91.03 24.39 1.1307286e-22)
(91.03 24.39 0)
(91.03 24.39 -9.8389334e-23)
(91.03 24.39 7.3361843e-22)
(91.03 24.39 8.5421093e-23)
(91.03 24.39 -6.3619203e-22)
(91.03 24.39 0)
(91.03 24.39 0)
(91.03 24.39 1.0229836e-21)
(91.03 24.39 0)
(91.03 24.39 -1.7636206e-21)
(91.03 24.39 -8.1793796e-22)
(91.03 24.39 0)
(91.03 24.39 0)
(91.03 24.39 4.0641548e-23)
(91.03 24.39 1.1656248e-21)
(91.03 24.39 -1.1472367e-21)
(91.03 24.39 -9.9576406e-22)
(91.03 24.39 0)
(91.03 24.39 -8.7577405e-22)
(91.03 24.39 2.5236679e-23)
(91.03 24.39 -2.3255876e-23)
(91.03 24.39 0)
(91.03 24.39 -1.7825456e-22)
(91.03 24.39 1.6782927e-22)
(91.03 24.39 0)
(91.03 24.39 -1.4861962e-22)
(91.03 24.39 -4.1934362e-22)
(91.03 24.39 0)
(91.03 24.39 4.9404879e-22)
(91.03 24.39 -2.3207018e-22)
(91.03 24.39 1.0896708e-21)
(91.03 24.39 -2.045754e-22)
(91.03 24.39 1.9195483e-22)
(91.03 24.39 -7.2014059e-22)
(91.03 24.39 -1.6878088e-22)
(91.03 24.39 -4.7447544e-22)
(91.03 24.39 7.4067909e-22)
(91.03 24.39 -5.5472925e-22)
(91.03 24.39 -2.595378e-22)
(91.03 24.39 -8.4957548e-22)
(91.03 24.39 -1.1345311e-22)
(91.03 24.39 -7.4199537e-22)
(91.03 24.39 1.6827066e-21)
(91.03 24.39 7.3904426e-22)
(91.03 24.39 -8.6171139e-23)
(91.03 24.39 0)
(91.03 24.39 6.7364354e-22)
(91.03 24.39 9.0608054e-22)
(91.03 24.39 1.2972758e-21)
(91.03 24.39 -2.0511587e-21)
(91.03 24.39 0)
(91.03 24.39 1.6668969e-21)
(91.03 24.39 0)
(91.03 24.39 -1.3459595e-21)
(91.03 24.39 -8.3195818e-23)
(91.03 24.39 1.3104809e-21)
(91.03 24.39 1.0707062e-21)
(91.03 24.39 0)
(91.03 24.39 6.1082442e-23)
(91.03 24.39 -5.6448544e-23)
(91.03 24.39 0)
(91.03 24.39 0)
(91.03 24.39 0)
(91.03 24.39 5.2478658e-22)
(91.03 24.39 -1.6485003e-22)
(91.03 24.39 1.5530211e-22)
(91.03 24.39 -4.3877702e-22)
(91.03 24.39 0)
(91.03 24.39 -1.2958883e-22)
(91.03 24.39 0)
(91.03 24.39 -4.5861792e-22)
(91.03 24.39 -2.1557011e-22)
(91.03 24.39 -1.0128787e-21)
(91.03 24.39 0)
(91.03 24.39 -3.5734746e-22)
(91.03 24.39 0)
(91.03 24.39 1.5732715e-22)
(91.03 24.39 4.4259908e-22)
(91.03 24.39 -5.5314373e-22)
(91.03 24.39 0)
(91.03 24.39 1.2132343e-22)
(91.03 24.39 3.406702e-22)
(91.03 24.39 8.4987374e-22)
(91.03 24.39 8.9399911e-22)
(91.03 24.39 -8.3548946e-22)
(91.03 24.39 1.7342074e-22)
(91.03 24.39 -1.6189662e-22)
(91.03 24.39 0)
(91.03 24.39 -1.1268732e-21)
(91.03 24.39 -9.1893471e-22)
(91.03 24.39 -2.0786576e-21)
(91.03 24.39 9.1056989e-22)
(91.03 24.39 0)
(91.03 24.39 -1.4767351e-21)
(91.03 24.39 0)
(91.03 24.39 -8.4941565e-23)
(91.03 24.39 0)
(91.03 24.39 -1.1696147e-21)
(91.03 24.39 -2.1002134e-21)
(91.03 24.39 0)
(91.03 24.39 8.7115078e-22)
(91.03 24.39 0)
(91.03 24.39 1.5640683e-21)
(91.03 24.39 2.293235e-23)
(91.03 24.39 1.3547786e-21)
(91.03 24.39 -1.6159468e-22)
(91.03 24.39 -4.5712512e-22)
(91.03 24.39 2.8727338e-22)
(91.03 24.39 0)
(91.03 24.39 2.5502281e-22)
(91.03 24.39 -4.8032237e-22)
(91.03 24.39 2.2608712e-22)
(91.03 24.39 2.1276195e-22)
(91.03 24.39 -6.0044571e-22)
(91.03 24.39 3.7642385e-22)
(91.03 24.39 0)
(91.03 24.39 3.3247309e-22)
(91.03 24.39 0)
(91.03 24.39 4.3976078e-22)
(91.03 24.39 1.3756289e-22)
(91.03 24.39 6.4518599e-22)
(91.03 24.39 -1.2098504e-22)
(91.03 24.39 -1.1338264e-22)
(91.03 24.39 1.062073e-22)
(91.03 24.39 -5.9662495e-22)
(91.03 24.39 -1.8610546e-22)
(91.03 24.39 0)
(91.03 24.39 6.5088834e-22)
(91.03 24.39 -6.0814222e-22)
(91.03 24.39 -1.4197345e-22)
(91.03 24.39 1.1925326e-21)
(91.03 24.39 -9.8876353e-22)
(91.03 24.39 9.2175717e-22)
(91.03 24.39 -1.073484e-22)
(91.03 24.39 9.9955168e-23)
(91.03 24.39 6.5110253e-22)
(91.03 24.39 8.6502738e-23)
(91.03 24.39 2.4922906e-21)
(91.03 24.39 -1.1201092e-21)
(91.03 24.39 0)
(91.03 24.39 1.0930596e-21)
(91.03 24.39 -5.9604959e-23)
(91.03 24.39 0)
(91.03 24.39 0)
(91.03 24.39 -1.5134299e-21)
(91.03 24.39 1.3992254e-21)
(91.03 24.39 -1.2725607e-21)
(91.03 24.39 0)
(91.03 24.39 2.8153937e-22)
(91.03 24.39 0)
(91.03 24.39 0)
(91.03 24.39 -2.3604007e-22)
(91.03 24.39 0)
(91.03 24.39 2.0953021e-22)
(91.03 24.39 -5.9193618e-22)
(91.03 24.39 1.1144412e-21)
(91.03 24.39 1.7478307e-22)
(91.03 24.39 -3.288211e-22)
(91.03 24.39 1.545937e-22)
(91.03 24.39 4.3591582e-22)
(91.03 24.39 -5.4607665e-22)
(91.03 24.39 0)
(91.03 24.39 -7.2213473e-22)
(91.03 24.39 -2.2586453e-22)
(91.03 24.39 2.1183723e-22)
(91.03 24.39 -1.9858874e-22)
(91.03 24.39 0)
(91.03 24.39 6.9709723e-22)
(91.03 24.39 4.8940771e-22)
(91.03 24.39 -4.5789408e-22)
(91.03 24.39 5.7091409e-22)
(91.03 24.39 4.0019045e-22)
(91.03 24.39 9.9685745e-22)
(91.03 24.39 1.0469871e-21)
(91.03 24.39 0)
(91.03 24.39 0)
(91.03 24.39 9.4333568e-23)
(91.03 24.39 -8.7863213e-23)
(91.03 24.39 0)
(91.03 24.39 -2.3585854e-21)
(91.03 24.39 -7.0733313e-23)
(91.03 24.39 6.5717548e-23)
(91.03 24.39 0)
(91.03 24.39 -1.1323537e-22)
(91.03 24.39 8.9249968e-22)
(91.03 24.39 1.508129e-21)
(91.03 24.39 0)
(91.03 24.39 -1.2507063e-21)
(91.03 24.39 -1.9277002e-23)
(91.03 24.39 2.7535072e-22)
(91.03 24.39 0)
(91.03 24.39 -4.906994e-22)
(91.03 24.39 2.3149512e-22)
(91.03 24.39 2.1835589e-22)
(91.03 24.39 -4.117949e-22)
(91.03 24.39 -9.7043275e-22)
(91.03 24.39 5.4867556e-22)
(91.03 24.39 -5.1685067e-22)
(91.03 24.39 -3.2446634e-22)
(91.03 24.39 1.5271333e-22)
(91.03 24.39 1.4369829e-22)
(91.03 24.39 -5.4065333e-22)
(91.03 24.39 5.0833975e-22)
(91.03 24.39 0)
(91.03 24.39 8.9767554e-22)
(91.03 24.39 0)
(91.03 24.39 -1.9780984e-22)
(91.03 24.39 0)
(91.03 24.39 0)
(91.03 24.39 -4.8940093e-22)
(91.03 24.39 -4.5850727e-22)
(91.03 24.39 0)
(91.03 24.39 -6.6973228e-22)
(91.03 24.39 -5.01194e-22)
(91.03 24.39 -1.8743383e-21)
(91.03 24.39 -9.8517885e-22)
(91.03 24.39 9.2006199e-22)
(91.03 24.39 9.5417741e-23)
(91.03 24.39 -8.9008489e-23)
(91.03 24.39 -8.2980615e-23)
(91.03 24.39 7.7314371e-23)
(91.03 24.39 0)
(91.03 24.39 0)
(91.03 24.39 0)
(91.03 24.39 -9.2643e-22)
(91.03 24.39 8.6044914e-22)
(91.03 24.39 -1.6472e-21)
(91.03 24.39 -1.4352666e-21)
(91.03 24.39 1.3733075e-21)
(91.03 24.39 -3.9753054e-23)
(91.03 24.39 3.6798192e-23)
(91.03 24.39 -2.5394337e-22)
(91.03 24.39 -4.7978457e-22)
(91.03 24.39 2.2655529e-22)
(91.03 24.39 4.2779599e-22)
(91.03 24.39 6.0566385e-22)
(91.03 24.39 5.714824e-22)
(91.03 24.39 3.5937374e-22)
(91.03 24.39 1.6943804e-22)
(91.03 24.39 6.3888225e-22)
(91.03 24.39 -1.5050878e-22)
(91.03 24.39 -2.8355678e-22)
(91.03 24.39 -5.3402405e-22)
(91.03 24.39 -2.5133881e-22)
(91.03 24.39 2.36495e-22)
(91.03 24.39 4.4487997e-22)
(91.03 24.39 -4.1827081e-22)
(91.03 24.39 0)
(91.03 24.39 0)
(91.03 24.39 -5.2010042e-22)
(91.03 24.39 0)
(91.03 24.39 -1.5264612e-22)
(91.03 24.39 0)
(91.03 24.39 0)
(91.03 24.39 5.0264747e-22)
(91.03 24.39 -9.4122894e-22)
(91.03 24.39 8.8078427e-22)
(91.03 24.39 8.2377987e-22)
(91.03 24.39 -1.5400856e-21)
(91.03 24.39 0)
(91.03 24.39 5.8775519e-22)
(91.03 24.39 7.8353465e-23)
(91.03 24.39 0)
(91.03 24.39 1.0216232e-21)
(91.03 24.39 0)
(91.03 24.39 5.9057139e-23)
(91.03 24.39 8.7905733e-22)
(91.03 24.39 -8.1726356e-22)
(91.03 24.39 7.5931732e-22)
(91.03 24.39 1.4100261e-21)
(91.03 24.39 -1.3083089e-21)
(91.03 24.39 -3.7909641e-23)
(91.03 24.39 3.5127106e-23)
(91.03 24.39 0)
(91.03 24.39 2.2125077e-22)
(91.03 24.39 2.0908207e-22)
(91.03 24.39 -1.9752781e-22)
(91.03 24.39 -5.5967625e-22)
(91.03 24.39 -1.7614704e-22)
(91.03 24.39 1.6626614e-22)
(91.03 24.39 -6.2756215e-22)
(91.03 24.39 -2.9599219e-22)
(91.03 24.39 2.7911973e-22)
(91.03 24.39 -5.2623937e-22)
(91.03 24.39 4.9589982e-22)
(91.03 24.39 2.335707e-22)
(91.03 24.39 -4.3988764e-22)
(91.03 24.39 -2.0703302e-22)
(91.03 24.39 0)
(91.03 24.39 -3.6644545e-22)
(91.03 24.39 -6.8903519e-22)
(91.03 24.39 1.2950555e-21)
(91.03 24.39 0)
(91.03 24.39 0)
(91.03 24.39 0)
(91.03 24.39 0)
(91.03 24.39 -1.1784841e-22)
(91.03 24.39 9.9394561e-22)
(91.03 24.39 0)
(91.03 24.39 7.7469636e-22)
(91.03 24.39 0)
(91.03 24.39 -6.7783222e-22)
(91.03 24.39 0)
(91.03 24.39 0)
(91.03 24.39 0)
(91.03 24.39 1.2884982e-22)
(91.03 24.39 -2.4028302e-22)
(91.03 24.39 1.1195257e-22)
(91.03 24.39 8.3405046e-22)
(91.03 24.39 0)
(91.03 24.39 0)
(91.03 24.39 4.1937016e-23)
(91.03 24.39 -3.8952252e-23)
(91.03 24.39 0)
(91.03 24.39 0)
(91.03 24.39 0)
(91.03 24.39 -2.0393718e-22)
(91.03 24.39 0)
(91.03 24.39 0)
(91.03 24.39 1.722954e-22)
(91.03 24.39 3.2557828e-22)
(91.03 24.39 0)
(91.03 24.39 2.9038577e-22)
(91.03 24.39 -5.4823476e-22)
(91.03 24.39 2.586781e-22)
(91.03 24.39 1.2201423e-21)
(91.03 24.39 -2.3013104e-22)
(91.03 24.39 -4.338996e-22)
(91.03 24.39 4.0890103e-22)
(91.03 24.39 -3.8520108e-22)
(91.03 24.39 3.6273736e-22)
(91.03 24.39 3.414508e-22)
(91.03 24.39 8.0321136e-22)
(91.03 24.39 -6.043691e-22)
(91.03 24.39 -1.4204981e-22)
(91.03 24.39 4.00471e-22)
(91.03 24.39 3.7617112e-22)
(91.03 24.39 -4.7091091e-22)
(91.03 24.39 4.4192452e-22)
(91.03 24.39 -2.072606e-22)
(91.03 24.39 -7.7724766e-22)
(91.03 24.39 -7.2831715e-22)
(91.03 24.39 6.8211008e-22)
(91.03 24.39 0)
(91.03 24.39 0)
(91.03 24.39 0)
(91.03 24.39 0)
(91.03 24.39 -1.0967606e-21)
(91.03 24.39 1.137439e-21)
(91.03 24.39 -9.5491608e-22)
(91.03 24.39 -7.9129457e-22)
(91.03 24.39 -7.3720777e-22)
(91.03 24.39 0)
(91.03 24.39 0)
(91.03 24.39 -3.7113949e-23)
(91.03 24.39 6.8973071e-23)
(91.03 24.39 9.9272481e-22)
(91.03 24.39 1.9849333e-22)
(91.03 24.39 -3.7572833e-22)
(91.03 24.39 1.7775999e-22)
(91.03 24.39 0)
(91.03 24.39 -3.180589e-22)
(91.03 24.39 6.0142885e-22)
(91.03 24.39 0)
(91.03 24.39 0)
(91.03 24.39 0)
(91.03 24.39 -2.396031e-22)
(91.03 24.39 -9.0480658e-22)
(91.03 24.39 0)
(91.03 24.39 4.0281579e-22)
(91.03 24.39 -1.8995276e-22)
(91.03 24.39 -5.3725731e-22)
(91.03 24.39 -5.0633683e-22)
(91.03 24.39 3.1801132e-22)
(91.03 24.39 -4.4922127e-22)
(91.03 24.39 -2.8191811e-22)
(91.03 24.39 -2.6527682e-22)
(91.03 24.39 2.4951264e-22)
(91.03 24.39 4.6916731e-22)
(91.03 24.39 4.4089955e-22)
(91.03 24.39 6.2121813e-22)
(91.03 24.39 -5.8324768e-22)
(91.03 24.39 0)
(91.03 24.39 -6.8450214e-22)
(91.03 24.39 6.4170855e-22)
(91.03 24.39 6.0127677e-22)
(91.03 24.39 0)
(91.03 24.39 0)
(91.03 24.39 -1.2325649e-22)
(91.03 24.39 1.0371162e-21)
(91.03 24.39 -9.6905533e-22)
(91.03 24.39 0)
(91.03 24.39 9.3835002e-23)
(91.03 24.39 1.4002714e-21)
(91.03 24.39 1.3051632e-21)
(91.03 24.39 -1.2917152e-21)
(91.03 24.39 1.2024186e-21)
(91.03 24.39 0)
(91.03 24.39 -9.7866631e-22)
(91.03 24.39 -1.826172e-22)
(91.03 24.39 0)
(91.03 24.39 -3.2750901e-22)
(91.03 24.39 6.20042e-22)
(91.03 24.39 0)
(91.03 24.39 -2.7758453e-22)
(91.03 24.39 -2.6255778e-22)
(91.03 24.39 0)
(91.03 24.39 0)
(91.03 24.39 2.2181063e-22)
(91.03 24.39 2.0956189e-22)
(91.03 24.39 3.9585628e-22)
(91.03 24.39 -5.606416e-22)
(91.03 24.39 5.2917457e-22)
(91.03 24.39 1.6643475e-22)
(91.03 24.39 0)
(91.03 24.39 0)
(91.03 24.39 -2.7902566e-22)
(91.03 24.39 5.2578152e-22)
(91.03 24.39 7.4277405e-22)
(91.03 24.39 0)
(91.03 24.39 0)
(91.03 24.39 -4.1263783e-22)
(91.03 24.39 -7.7593193e-22)
(91.03 24.39 7.2920704e-22)
(91.03 24.39 6.8497573e-22)
(91.03 24.39 4.823389e-22)
(91.03 24.39 -6.0352145e-22)
(91.03 24.39 1.4151894e-22)
(91.03 24.39 -6.6334718e-22)
(91.03 24.39 0)
(91.03 24.39 2.3281658e-22)
(91.03 24.39 -9.8055448e-22)
(91.03 24.39 1.6305952e-21)
(91.03 24.39 0)
(91.03 24.39 -7.1210262e-22)
(91.03 24.39 -1.3298146e-21)
(91.03 24.39 -1.2409074e-21)
(91.03 24.39 -1.2295357e-21)
(91.03 24.39 -1.0110574e-21)
(91.03 24.39 -6.2775696e-23)
(91.03 24.39 5.8426321e-23)
(91.03 24.39 -3.3580202e-22)
(91.03 24.39 0)
(91.03 24.39 0)
(91.03 24.39 -2.8560511e-22)
(91.03 24.39 2.7047145e-22)
(91.03 24.39 -2.5607636e-22)
(91.03 24.39 0)
(91.03 24.39 0)
(91.03 24.39 -4.3397738e-22)
(91.03 24.39 -6.1566377e-22)
(91.03 24.39 3.8807258e-22)
(91.03 24.39 -5.5021997e-22)
(91.03 24.39 0)
(91.03 24.39 0)
(91.03 24.39 -3.0919353e-22)
(91.03 24.39 2.9188236e-22)
(91.03 24.39 5.5089086e-22)
(91.03 24.39 -5.1968353e-22)
(91.03 24.39 -4.9006463e-22)
(91.03 24.39 -4.6195976e-22)
(91.03 24.39 -2.1764866e-22)
(91.03 24.39 -6.1501392e-22)
(91.03 24.39 9.6507766e-22)
(91.03 24.39 -1.8165038e-22)
(91.03 24.39 6.8351834e-22)
(91.03 24.39 6.4270037e-22)
(91.03 24.39 0)
(91.03 24.39 -1.4185868e-22)
(91.03 24.39 1.3319674e-22)
(91.03 24.39 1.2500079e-22)
(91.03 24.39 -1.1724857e-22)
(91.03 24.39 0)
(91.03 24.39 8.2393095e-22)
(91.03 24.39 -1.4467009e-21)
(91.03 24.39 0)
(91.03 24.39 5.9103018e-22)
(91.03 24.39 6.3143345e-22)
(91.03 24.39 0)
(91.03 24.39 1.1015623e-21)
(91.03 24.39 0)
(91.03 24.39 -1.0183239e-21)
(91.03 24.39 -8.6519852e-22)
(91.03 24.39 1.5426693e-22)
(91.03 24.39 0)
(91.03 24.39 2.7739741e-22)
(91.03 24.39 2.6294125e-22)
(91.03 24.39 -2.4918133e-22)
(91.03 24.39 0)
(91.03 24.39 0)
(91.03 24.39 -2.1176824e-22)
(91.03 24.39 8.0195561e-22)
(91.03 24.39 -3.7952011e-22)
(91.03 24.39 3.5911265e-22)
(91.03 24.39 6.794139e-22)
(91.03 24.39 -3.2125664e-22)
(91.03 24.39 3.0371761e-22)
(91.03 24.39 -2.8704745e-22)
(91.03 24.39 -5.4241168e-22)
(91.03 24.39 -2.5615441e-22)
(91.03 24.39 2.4185646e-22)
(91.03 24.39 9.1310755e-22)
(91.03 24.39 2.1538217e-22)
(91.03 24.39 -2.0314024e-22)
(91.03 24.39 0)
(91.03 24.39 -1.4439572e-21)
(91.03 24.39 6.8013617e-22)
(91.03 24.39 -1.4410121e-21)
(91.03 24.39 1.5070464e-22)
(91.03 24.39 1.417865e-22)
(91.03 24.39 -6.6667474e-22)
(91.03 24.39 3.7598407e-22)
(91.03 24.39 1.1774479e-22)
(91.03 24.39 0)
(91.03 24.39 0)
(91.03 24.39 -6.8139083e-22)
(91.03 24.39 6.3883256e-22)
(91.03 24.39 7.6962903e-22)
(91.03 24.39 0)
(91.03 24.39 1.124304e-21)
(91.03 24.39 -7.0110671e-23)
(91.03 24.39 6.55407e-23)
(91.03 24.39 0)
(91.03 24.39 8.5751011e-22)
(91.03 24.39 8.5342769e-22)
(91.03 24.39 1.4164122e-22)
(91.03 24.39 -2.6881686e-22)
(91.03 24.39 2.5503775e-22)
(91.03 24.39 0)
(91.03 24.39 -2.2941546e-22)
(91.03 24.39 4.3502877e-22)
(91.03 24.39 0)
(91.03 24.39 0)
(91.03 24.39 0)
(91.03 24.39 -3.5071298e-22)
(91.03 24.39 0)
(91.03 24.39 3.1441843e-22)
(91.03 24.39 -2.9758338e-22)
(91.03 24.39 -2.8156987e-22)
(91.03 24.39 -2.6634006e-22)
(91.03 24.39 5.0371591e-22)
(91.03 24.39 0)
(91.03 24.39 4.5000181e-22)
(91.03 24.39 -2.1256149e-22)