/*--------------------------------*- C++ -*----------------------------------*\
| =========                 |                                                 |
| \\      /  F ield         | OpenFOAM: The Open Source CFD Toolbox           |
|  \\    /   O peration     | Version:  2506                                  |
|   \\  /    A nd           | Website:  www.openfoam.com                      |
|    \\/     M anipulation  |                                                 |
\*---------------------------------------------------------------------------*/
FoamFile
{
    version     2.0;
    format      ascii;
    arch        "LSB;label=32;scalar=64";
    class       volScalarField;
    location    "0.0215";
    object      Ma;
}
// * * * * * * * * * * * * * * * * * * * * * * * * * * * * * * * * * * * * * //

dimensions      [0 0 0 0 0 0 0];

internalField   nonuniform List<scalar> 
13761
(
0.39510885
0.40137588
0.40694385
0.41319629
0.41938798
0.42612711
0.43282326
0.43978288
0.44680917
0.45372022
0.46111911
0.46808046
0.47528338
0.48239377
0.4892056
0.4962101
0.50270998
0.50912942
0.5154333
0.52134291
0.52709854
0.53267121
0.53781079
0.54272254
0.54746763
0.55180765
0.55577089
0.55963291
0.56323443
0.5664652
0.56946977
0.57231312
0.57496678
0.57742187
0.57971083
0.58183049
0.58378445
0.58554962
0.58717774
0.58868756
0.59008505
0.59139631
0.59262551
0.59377207
0.59483052
0.59584413
0.59681454
0.59779355
0.59873933
0.59955274
0.60023201
0.60088726
0.60154917
0.60219446
0.60280297
0.60339493
0.6039539
0.60447032
0.60465252
0.60169592
0.58311323
0.5546504
0.53098508
0.51081837
0.4931724
0.47742869
0.4632166
0.45026752
0.43837023
0.42737056
0.4171543
0.40763021
0.39871384
0.39032798
0.3824044
0.3748826
0.3677119
0.36084939
0.35425465
0.34788961
0.34171844
0.3357065
0.32982027
0.3240268
0.31829204
0.31258159
0.30685761
0.30107737
0.29519444
0.28915453
0.28288963
0.27631458
0.26931888
0.26173588
0.25330076
0.24362914
0.23221559
0.21831401
0.20086741
0.17855592
0.15044815
0.11753621
0.082828363
0.0487503
0.016139561
0.39507422
0.40134714
0.40691792
0.41318119
0.4193965
0.42614213
0.43284241
0.43981296
0.44685348
0.45378078
0.46120662
0.46819813
0.47543688
0.4825806
0.48944159
0.49649147
0.5030406
0.50951872
0.51587848
0.52184688
0.527662
0.5332954
0.53849666
0.54346298
0.54827535
0.55267761
0.55670809
0.56063112
0.56426479
0.56753842
0.57060832
0.57350845
0.57621733
0.57870171
0.58102425
0.58317729
0.58516119
0.58695946
0.58862774
0.59017001
0.59162183
0.59297419
0.59422221
0.59536409
0.59642889
0.59737147
0.59821397
0.59895897
0.59967272
0.60043786
0.60123748
0.60194741
0.60254767
0.60309745
0.60363233
0.60412932
0.60463387
0.60507726
0.60491451
0.60024393
0.57968173
0.55066828
0.52730992
0.50722676
0.48935969
0.47320916
0.45846056
0.44489322
0.43233404
0.42065009
0.40973471
0.39949732
0.38986425
0.38077233
0.37216335
0.36397719
0.35616254
0.34867951
0.34148656
0.33454336
0.32781156
0.32125351
0.31483212
0.30851012
0.30224751
0.29600242
0.28972791
0.28336909
0.27686413
0.27013914
0.26310083
0.25563208
0.24758497
0.23876842
0.22893243
0.21774455
0.20474976
0.18932645
0.17067362
0.14796335
0.12108689
0.091817932
0.063003006
0.036239747
0.011705718
0.40132941
0.40689953
0.41317401
0.41941326
0.42615889
0.43286573
0.43984574
0.44690156
0.45383952
0.46128145
0.46829912
0.47556839
0.48275648
0.48965349
0.49675379
0.503358
0.50988185
0.51629591
0.52232569
0.52820112
0.53390302
0.53917584
0.54420875
0.54907822
0.55354181
0.55763195
0.56159914
0.56529086
0.56863045
0.57174233
0.57468618
0.57743454
0.57997363
0.58232364
0.58449621
0.58650114
0.58831074
0.58997362
0.59149931
0.5929089
0.59422789
0.59545815
0.5965896
0.59762662
0.59860773
0.59953067
0.60042502
0.60123706
0.60190011
0.60244605
0.60297074
0.60348248
0.60396179
0.60438648
0.60478604
0.60514675
0.60541487
0.60538623
0.60177965
0.58037046
0.55079309
0.52722143
0.50695137
0.48892166
0.47263962
0.45778955
0.44413832
0.43150624
0.41975323
0.40877553
0.39846844
0.38875629
0.37957939
0.37089172
0.36265432
0.35481806
0.34732447
0.34012489
0.33317632
0.32643993
0.31987842
0.31345507
0.30713299
0.30087317
0.29463549
0.28837552
0.28204179
0.27557697
0.26891293
0.26196362
0.25462021
0.24674279
0.2381477
0.22859126
0.21774104
0.20512756
0.19010239
0.17182113
0.14944878
0.12286792
0.093757614
0.0647839
0.037499494
0.012194209
0.40128469
0.4068563
0.41314034
0.41939976
0.42614956
0.43285838
0.43984764
0.44691591
0.45386971
0.4613376
0.4683829
0.47568601
0.48290936
0.48985498
0.49700133
0.50365698
0.51024231
0.51671117
0.52280072
0.52873653
0.53450111
0.53983849
0.54492878
0.54986787
0.5543968
0.5585549
0.56258075
0.56630893
0.56969925
0.57287817
0.57587817
0.57867538
0.58124016
0.5836237
0.58582966
0.58786128
0.58970352
0.59140114
0.59296228
0.59441272
0.59574739
0.59696208
0.59806077
0.59906119
0.59992268
0.60067582
0.60134241
0.60199783
0.60268521
0.60335543
0.60390318
0.60433771
0.60471985
0.60508033
0.60539382
0.60570862
0.60597593
0.6057039
0.6019092
0.58246195
0.55221382
0.52786952
0.50702654
0.48860661
0.47201395
0.45688079
0.44296891
0.43009988
0.41809983
0.40685556
0.39629926
0.38635381
0.37694979
0.36803302
0.35954994
0.351448
0.34367907
0.33620677
0.32899382
0.32200268
0.31519542
0.30853458
0.30198256
0.29549933
0.28904319
0.28256743
0.27601808
0.26933553
0.26244986
0.25527345
0.24769686
0.23958236
0.23075263
0.22097598
0.20994208
0.1972191
0.18221562
0.1641785
0.14229378
0.11647748
0.088440677
0.060806316
0.035029007
0.011329107
0.40125155
0.40682114
0.41311488
0.41939423
0.42614128
0.43285493
0.43985192
0.44693383
0.45389783
0.46138039
0.4684502
0.47578332
0.48305077
0.49003435
0.49723212
0.50394458
0.51057778
0.51710331
0.52325526
0.52925252
0.53508916
0.54049755
0.5456561
0.55065333
0.55524437
0.55946449
0.56353495
0.56732658
0.57078546
0.57400753
0.57705471
0.57989638
0.58251441
0.58491981
0.58714418
0.58919548
0.59104407
0.59273007
0.59426157
0.59567186
0.59698589
0.59819799
0.599297
0.60029587
0.6012255
0.6020787
0.60286292
0.60352445
0.60404206
0.60447904
0.60490456
0.6053005
0.60565376
0.6059486
0.60621846
0.60644979
0.60658631
0.60645184
0.6034255
0.58466815
0.55414658
0.52960421
0.50867799
0.49001098
0.47311242
0.45767078
0.44346313
0.43032469
0.41815362
0.40681587
0.39618911
0.38617583
0.37669092
0.36766269
0.35905072
0.35082236
0.34294634
0.3353808
0.32808887
0.32102938
0.31415927
0.30744064
0.30083709
0.29431022
0.28781956
0.28131926
0.27475705
0.2680755
0.2612071
0.25406698
0.24654862
0.2385159
0.22979064
0.2201369
0.20923317
0.19662921
0.18171571
0.1637102
0.14182379
0.11602026
0.088045765
0.060508843
0.034842533
0.011262509
0.4011907
0.40676023
0.41306268
0.41935881
0.42610632
0.43281997
0.43982557
0.44692004
0.45389906
0.46140687
0.46850216
0.47586678
0.48317002
0.49020282
0.49744633
0.50421346
0.51091065
0.51749132
0.52370191
0.5297605
0.53566202
0.54113697
0.54635628
0.55142463
0.55608308
0.56037108
0.5644991
0.56833313
0.57185063
0.57514001
0.57824179
0.58112671
0.58377015
0.58621307
0.58847424
0.59055194
0.59243377
0.59415388
0.5957262
0.59716796
0.59848031
0.59965878
0.60071606
0.60165888
0.6024564
0.60314434
0.60376631
0.60439588
0.60503236
0.60560047
0.60602893
0.60636149
0.60665245
0.60692276
0.60714901
0.60737775
0.60757485
0.60729137
0.60428567
0.5883551
0.5575745
0.53212398
0.51070724
0.49177178
0.47471243
0.45914381
0.4448048
0.43150392
0.41909712
0.4074817
0.3965783
0.38631803
0.37663894
0.36747901
0.35876936
0.35045109
0.34247181
0.33478283
0.32733783
0.3201017
0.31304474
0.30613664
0.29934422
0.29263136
0.28595791
0.27927257
0.27252405
0.26565572
0.25860053
0.25127412
0.24357111
0.23535864
0.22646554
0.21666773
0.20566356
0.19302851
0.17816388
0.16029687
0.13864931
0.11320187
0.085715411
0.058776505
0.033773021
0.010890384
0.401142
0.40670761
0.41301809
0.41933195
0.42607379
0.43279019
0.43980259
0.44690903
0.45389757
0.46141938
0.46853862
0.47593346
0.48327919
0.49035217
0.49764698
0.50447134
0.51121994
0.51786073
0.52413439
0.53025438
0.53622995
0.54177478
0.54706353
0.55219155
0.55691339
0.56126577
0.56544061
0.56934345
0.57293147
0.57626643
0.57941979
0.58235473
0.58505083
0.58751457
0.5897982
0.59190051
0.59379232
0.59550685
0.5970524
0.59847269
0.59978997
0.60099394
0.60207267
0.60304917
0.60394299
0.60474237
0.60543889
0.60598854
0.60642315
0.6068266
0.60722419
0.60757392
0.60787466
0.60812161
0.60834536
0.60853367
0.60865363
0.60856697
0.60630983
0.59135053
0.56101626
0.53512363
0.51352062
0.49436377
0.47705906
0.46125302
0.44670824
0.43324642
0.42072192
0.40901057
0.39800764
0.38762581
0.37779177
0.36844615
0.3595394
0.35102653
0.34286622
0.33501919
0.32744744
0.32011401
0.31298079
0.30600634
0.29914995
0.29236881
0.28562228
0.27887239
0.2720683
0.26515445
0.25806517
0.25071794
0.24300799
0.23479867
0.22591429
0.21612439
0.20511896
0.19246696
0.17757369
0.15967427
0.13800333
0.11256307
0.085136527
0.058312896
0.033468389
0.010777714
0.40662938
0.41294763
0.41927502
0.42601423
0.43272904
0.43974894
0.44686794
0.45387151
0.46141798
0.46856152
0.47598616
0.48336827
0.4904901
0.49782976
0.50471035
0.51152474
0.51822182
0.52455459
0.53073577
0.53677735
0.54239143
0.54774522
0.5529458
0.55773629
0.56215541
0.56638838
0.57034139
0.57399545
0.57739692
0.58060253
0.58357721
0.5863023
0.58881087
0.59113649
0.5932682
0.59519637
0.5969459
0.59853772
0.59998316
0.60129045
0.60245619
0.60349972
0.60441937
0.6051971
0.60587101
0.60650472
0.60715519
0.60777675
0.60828551
0.6086542
0.60895472
0.60922572
0.60947357
0.60968464
0.60990118
0.61010099
0.60989742
0.60778898
0.5957919
0.56608926
0.53915764
0.51709016
0.49765637
0.4801527
0.46417419
0.44945799
0.43581628
0.42310536
0.41120965
0.40003286
0.3894922
0.37951476
0.37003727
0.36100361
0.35236317
0.34407048
0.33608393
0.32836501
0.3208779
0.31358771
0.30646006
0.29945994
0.29254947
0.28568896
0.27883366
0.27192959
0.26491651
0.25772451
0.25026673
0.24243713
0.23410648
0.22510633
0.21521498
0.20413148
0.19142856
0.17651482
0.15862874
0.13700112
0.11163849
0.084336377
0.057690688
0.033068822
0.010633211
0.40655964
0.41288399
0.41922536
0.42595853
0.43267481
0.43969999
0.44683017
0.45384231
0.46140229
0.4685698
0.47602538
0.48344785
0.49061185
0.4980032
0.50494061
0.51180913
0.51856899
0.52496658
0.53120786
0.53732585
0.54300868
0.54843204
0.5536938
0.55854961
0.56303642
0.56732094
0.57134776
0.5750726
0.57852311
0.58178529
0.58481601
0.58759409
0.59012663
0.59248283
0.59464888
0.59659764
0.59835628
0.59993769
0.60139122
0.60273494
0.60395514
0.60504232
0.60602659
0.60691387
0.60768924
0.60833653
0.60883359
0.6092589
0.60969776
0.61012345
0.610478
0.61077878
0.61103332
0.61126407
0.61145841
0.61161531
0.61163863
0.61014663
0.59906981
0.57078261
0.54318761
0.52087832
0.50123995
0.48353261
0.46736365
0.4524778
0.43868719
0.42584274
0.41382171
0.40252165
0.39185614
0.38175085
0.37214311
0.36297835
0.35420753
0.34578645
0.33767416
0.32983223
0.32222451
0.31481535
0.30756947
0.30045118
0.29342222
0.28644288
0.27946869
0.27244807
0.26532421
0.25803029
0.25048242
0.24257587
0.23417848
0.22511936
0.21517367
0.20403646
0.19127964
0.17631086
0.15836637
0.13669003
0.11129497
0.083991311
0.0573901
0.032858857
0.010551563
0.40646458
0.41279531
0.4191462
0.42587531
0.43258932
0.43962148
0.44676404
0.45379067
0.46137455
0.46856632
0.47605022
0.48350922
0.49072141
0.49815724
0.50515084
0.51208795
0.51890477
0.52536185
0.5316638
0.53784898
0.54360401
0.5490966
0.55443157
0.55935714
0.56390976
0.56825487
0.5723402
0.57613697
0.57965344
0.58296576
0.58603572
0.58884948
0.59143571
0.59384005
0.59604051
0.59802977
0.59982495
0.60145487
0.60292816
0.60426022
0.60544862
0.60651624
0.60745626
0.60826626
0.60898195
0.60967552
0.6103797
0.6110113
0.61149682
0.61185773
0.61217898
0.61247697
0.6127439
0.61298008
0.61322147
0.61344856
0.61335812
0.61205139
0.60376884
0.57707318
0.54840071
0.52560867
0.5056775
0.48774199
0.47137621
0.45630977
0.44234896
0.42934327
0.41716981
0.40572572
0.39492343
0.38468701
0.37495174
0.36566135
0.35676564
0.34821966
0.33998222
0.332015
0.32428223
0.31674878
0.30937988
0.30214029
0.29499207
0.28789572
0.28080681
0.27367372
0.26643964
0.25903785
0.25138468
0.24337588
0.23487996
0.22572687
0.21569319
0.20447658
0.19165129
0.17662629
0.15863644
0.1369099
0.11144473
0.084055923
0.057387732
0.032828335
0.010530559
0.40637817
0.41271287
0.41907494
0.42579791
0.43251241
0.4395491
0.44670154
0.45373738
0.46133355
0.46854958
0.47606545
0.48356335
0.49081853
0.4983058
0.50535535
0.51234802
0.51923148
0.52575554
0.53211641
0.53837797
0.54420105
0.5497625
0.55516047
0.56015448
0.56477829
0.56918091
0.5733448
0.57721161
0.58078209
0.58415627
0.58728794
0.59015537
0.59277212
0.59521751
0.59746381
0.59948786
0.60131217
0.6029573
0.60447142
0.60586886
0.60713385
0.60826139
0.60928362
0.6101942
0.61097814
0.61161845
0.61212404
0.61260571
0.61312651
0.61361091
0.61400047
0.61433435
0.61462897
0.61489502
0.61512341
0.61533541
0.61547661
0.61460663
0.60697983
0.5826166
0.55332744
0.53022512
0.51008881
0.49196369
0.47542434
0.46020102
0.44609828
0.43296261
0.4206678
0.40910805
0.39819338
0.38784611
0.37800035
0.36859911
0.3595916
0.35093264
0.34258103
0.33449856
0.32664969
0.31899962
0.31151396
0.30415785
0.29689371
0.28968237
0.28247968
0.27523422
0.26788937
0.26037861
0.25261844
0.24450483
0.23590671
0.22665477
0.21652659
0.20522022
0.19230935
0.17720204
0.15913062
0.13731538
0.11174152
0.084229733
0.057458932
0.03283943
0.010522891
0.41260706
0.41897585
0.42569315
0.43240343
0.43944654
0.44661175
0.45366182
0.46128203
0.46852104
0.47606452
0.48360003
0.4909016
0.4984334
0.50553892
0.51259854
0.51954169
0.52612761
0.53254956
0.53887808
0.54477577
0.55041001
0.55588181
0.56094621
0.56563488
0.5701028
0.57433412
0.57827717
0.58191336
0.58533645
0.58851016
0.59142264
0.59410249
0.59660206
0.59888837
0.60095639
0.60281836
0.60450958
0.60603905
0.60742869
0.60867736
0.60980627
0.61080756
0.61169496
0.6124983
0.61328327
0.6140538
0.61470902
0.61520293
0.61559934
0.61597747
0.61632971
0.61664061
0.61692435
0.61720852
0.61747047
0.61750379
0.61682004
0.61162566
0.58956619
0.55952521
0.53585768
0.51540359
0.49702927
0.4802806
0.4648728
0.45060403
0.43731749
0.42488452
0.41319696
0.40216242
0.391701
0.38174475
0.37223487
0.36311916
0.35435153
0.34589027
0.33769683
0.32973567
0.32197209
0.31437196
0.30690076
0.29952121
0.2921945
0.28487678
0.27751683
0.27005828
0.26243483
0.25456318
0.24633952
0.23763315
0.22827498
0.21804205
0.20663181
0.19361762
0.17840617
0.16022469
0.13827935
0.1125316
0.084801912
0.057815905
0.03302064
0.010572119
0.41250744
0.41888523
0.42559652
0.43230653
0.43935308
0.44652725
0.45358544
0.46121674
0.46848121
0.47605729
0.48363028
0.4909755
0.49855947
0.50572028
0.51283344
0.51984776
0.52650286
0.53298349
0.53938708
0.54535106
0.55105289
0.55658998
0.56172711
0.56649171
0.57102408
0.57533736
0.57934908
0.58304484
0.5865352
0.5897756
0.59274322
0.59546313
0.5980149
0.60035781
0.60247569
0.60438787
0.60612329
0.60772349
0.60919915
0.61053463
0.61173054
0.61281688
0.61377472
0.6145971
0.61527434
0.61584462
0.61643177
0.61705768
0.61761285
0.61805567
0.61844407
0.61879733
0.6191149
0.61939263
0.61966608
0.61991301
0.61949148
0.61460733
0.59544559
0.5653121
0.5411883
0.52050942
0.50194588
0.48503016
0.4694706
0.45506419
0.44165273
0.4291056
0.41731244
0.40617844
0.3956216
0.38557214
0.37596966
0.36676068
0.35789813
0.34933965
0.34104638
0.33298261
0.32511374
0.31740583
0.30982465
0.30233327
0.29489324
0.28746106
0.27998584
0.27241151
0.26467212
0.25668466
0.24834572
0.23952468
0.23005196
0.21970442
0.2081798
0.19505129
0.17972405
0.16142017
0.13933159
0.11339558
0.085431794
0.058213443
0.033225719
0.010629282
0.41238568
0.41876762
0.42547132
0.43217684
0.43922938
0.44641652
0.45348782
0.46114267
0.4684296
0.47603241
0.48364323
0.49103281
0.49866204
0.50587909
0.51305711
0.52013397
0.52685212
0.5333951
0.53986431
0.54590473
0.55168232
0.55729405
0.56250292
0.56733224
0.57193527
0.5763236
0.5804145
0.58417587
0.58771602
0.59100438
0.59402861
0.59682027
0.5994312
0.60181975
0.60398408
0.60593474
0.6077101
0.60932394
0.61080171
0.61214264
0.61336318
0.61446022
0.61545702
0.61637493
0.61726432
0.61810064
0.6187893
0.61932393
0.61979241
0.6202515
0.62067446
0.62104627
0.62139174
0.62172964
0.6220279
0.62219198
0.62195617
0.61907431
0.6024574
0.57239659
0.54752796
0.52650405
0.50768106
0.49054829
0.47479907
0.46022538
0.4466659
0.43398731
0.42207651
0.41083579
0.40018039
0.39003791
0.38034565
0.37104823
0.36209703
0.35344849
0.34506298
0.33690426
0.32893742
0.3211284
0.313443
0.30584442
0.29829441
0.29074974
0.28315975
0.27546867
0.26761078
0.25950326
0.25104239
0.24209685
0.23249684
0.22201938
0.21036216
0.19709766
0.18162869
0.16317039
0.14089594
0.11470922
0.086423023
0.058868583
0.033583136
0.010737077
0.41227
0.41865849
0.42535598
0.43205993
0.43911524
0.44631084
0.45338969
0.46105546
0.46836778
0.47600384
0.48365084
0.49108338
0.49876583
0.50603801
0.51326969
0.52041893
0.52720936
0.53381163
0.54035195
0.54645718
0.55230188
0.55798232
0.56326881
0.56817829
0.57285157
0.57732399
0.5814826
0.58530833
0.5889209
0.5922798
0.59536176
0.59820471
0.60087806
0.603332
0.60556058
0.60758076
0.60942748
0.61113353
0.61270664
0.61413301
0.61541925
0.61659035
0.61761573
0.61850233
0.61925696
0.61993846
0.62066015
0.62139503
0.6220235
0.62253382
0.62299306
0.62341747
0.6237994
0.62413907
0.62447476
0.62482659
0.62469981
0.62179714
0.60815616
0.57898524
0.55344846
0.53217874
0.51316759
0.49586695
0.47996472
0.46525238
0.45156842
0.4387787
0.42676852
0.41543812
0.40470032
0.39448041
0.38471357
0.37534249
0.36631683
0.35759178
0.34912683
0.34088508
0.33283113
0.32493066
0.31714937
0.30945052
0.30179605
0.29414293
0.2864408
0.27863424
0.27065774
0.26242807
0.25384109
0.24476572
0.23503249
0.22441864
0.21262175
0.19921356
0.18359449
0.16497291
0.14250398
0.11605929
0.087444071
0.059546112
0.0339546
0.010849862
0.41213228
0.41852256
0.42521018
0.4319105
0.43897117
0.44617939
0.4532709
0.46095978
0.46829387
0.47595559
0.48364124
0.49111622
0.49884402
0.50617358
0.5134678
0.52067892
0.52753699
0.53420395
0.54080887
0.54699121
0.55291404
0.55867013
0.5640289
0.56900324
0.57375284
0.57830662
0.58254557
0.58643617
0.59010156
0.59351667
0.59666787
0.59958858
0.60232436
0.60482975
0.607107
0.60916737
0.61104775
0.61277001
0.61436068
0.61581827
0.61715254
0.61837005
0.6194958
0.6205376
0.62152741
0.62242337
0.62315767
0.62376558
0.62433427
0.62488824
0.62539264
0.62583911
0.62625946
0.62666407
0.62701382
0.62729484
0.62737864
0.62606437
0.61471663
0.58676677
0.56031746
0.53868254
0.51940896
0.50188519
0.48578778
0.47090338
0.45706881
0.44414812
0.43202435
0.42059512
0.4097703
0.39947234
0.38963357
0.38019413
0.37110147
0.36230902
0.3537748
0.34546063
0.33733009
0.32934807
0.32147981
0.31368837
0.30593564
0.29817863
0.29036682
0.28244446
0.27434577
0.26598773
0.2572666
0.24805148
0.23817292
0.22740805
0.21545408
0.20188158
0.18608802
0.16727366
0.14457213
0.1178146
0.088792033
0.060457217
0.034464329
0.01100863
0.4183955
0.42507671
0.43177397
0.43883734
0.44605322
0.45315192
0.460852
0.46821099
0.47590654
0.48362617
0.49114436
0.49892505
0.50631111
0.51365742
0.52094028
0.5278732
0.53460237
0.54127649
0.54752131
0.55351027
0.55933863
0.56478022
0.56983936
0.57466389
0.57930234
0.58360759
0.58756637
0.59130845
0.59479669
0.59800904
0.60099202
0.60379822
0.60637505
0.60872811
0.61087256
0.61284597
0.61467155
0.61635591
0.61788861
0.61928111
0.6205528
0.62166589
0.62264244
0.62350843
0.62433284
0.62519647
0.62603029
0.62673082
0.62732019
0.62786189
0.62836579
0.62882226
0.62923411
0.62963983
0.63006923
0.63014461
0.62854814
0.61984215
0.59389596
0.56669351
0.54478824
0.52532779
0.5076327
0.49137724
0.47634883
0.4623854
0.44935103
0.43712806
0.42561288
0.4147133
0.4043495
0.39445144
0.38495686
0.375811
0.3669655
0.35837665
0.35000435
0.34181075
0.33375988
0.32581643
0.31794302
0.3101013
0.30224808
0.29433284
0.28630004
0.27808418
0.26960234
0.26075077
0.25139849
0.2413759
0.23045985
0.21834705
0.2046068
0.18863354
0.16961983
0.14667894
0.11960348
0.09016941
0.061391795
0.03498941
0.011173047
0.41824187
0.42491295
0.43160601
0.43867417
0.44590192
0.45301279
0.46073565
0.46811575
0.47583486
0.48359355
0.49115225
0.49897813
0.50642291
0.51383123
0.52117603
0.52817613
0.53497604
0.54171581
0.5480374
0.55410429
0.56000926
0.56552492
0.5706502
0.57555608
0.5802803
0.58466488
0.58868823
0.59248772
0.59604141
0.59933444
0.60239699
0.6052671
0.60790133
0.61030513
0.61249236
0.61449575
0.61634544
0.61806658
0.61965658
0.62111958
0.62247151
0.62373425
0.62489981
0.62598025
0.62693242
0.62773064
0.62844131
0.62912688
0.62977988
0.63037083
0.63090042
0.63140124
0.63187762
0.63229023
0.63265968
0.6329881
0.6326373
0.62564868
0.60197551
0.57396079
0.55165304
0.53192531
0.51399968
0.49754228
0.48233538
0.46821552
0.45504528
0.44270562
0.43109142
0.42010825
0.40967382
0.39971556
0.39016853
0.38097529
0.37208472
0.36345048
0.35503064
0.34678589
0.33867893
0.33067329
0.32273068
0.31481201
0.30687358
0.29886444
0.29072878
0.28240089
0.27379764
0.26481509
0.25532204
0.2451486
0.23407128
0.22178613
0.20786102
0.19168697
0.17244767
0.14923284
0.1217886
0.091868367
0.062557034
0.035651408
0.011383128
0.4180967
0.42476238
0.43145116
0.43852203
0.44575623
0.45287397
0.4606078
0.46801241
0.47576575
0.48355592
0.49115679
0.49903479
0.50653769
0.51399887
0.52141352
0.52848756
0.53535686
0.54216302
0.54854518
0.5546779
0.56065971
0.5662639
0.57147813
0.5764618
0.5812693
0.58571872
0.5898144
0.59369299
0.59732113
0.6006783
0.60381221
0.60675746
0.60946587
0.6119527
0.6142312
0.61633981
0.61829257
0.62009622
0.62174509
0.62325529
0.62463865
0.62585802
0.6269512
0.62795836
0.62894317
0.62994124
0.63086051
0.63163449
0.63231301
0.63294284
0.63352881
0.6340633
0.63454998
0.63502786
0.6355056
0.63575379
0.63494479
0.63005573
0.60918012
0.58071946
0.55806998
0.538143
0.52003667
0.50341447
0.48805737
0.47380181
0.46051058
0.44806485
0.43635918
0.42529846
0.41479929
0.40478725
0.39519528
0.38596359
0.37703864
0.36837195
0.35991955
0.35164018
0.34349471
0.33544509
0.32745164
0.31947415
0.311468
0.30338149
0.29515824
0.28673209
0.27801951
0.26891616
0.25929046
0.24897208
0.23773697
0.22528039
0.21116855
0.19478901
0.17531717
0.15182102
0.12400348
0.093595275
0.063746527
0.036330341
0.011599793
0.41792509
0.42458127
0.4312661
0.43834039
0.44558547
0.45271512
0.46047129
0.4678959
0.47567155
0.4835005
0.49114074
0.49906243
0.50662564
0.51414875
0.52162419
0.52876532
0.53571306
0.54258662
0.54904411
0.55525415
0.56131471
0.56699506
0.57227711
0.57734611
0.58224082
0.58676777
0.59092989
0.59487113
0.59857363
0.60201926
0.60523056
0.60823952
0.61101061
0.61355007
0.61587508
0.61801316
0.62000109
0.62186086
0.62358895
0.62518669
0.62667572
0.62807118
0.62935153
0.63051449
0.63152913
0.6324167
0.6332561
0.6340678
0.63482053
0.63550165
0.63611898
0.63670186
0.6372524
0.63773242
0.63817206
0.6387117
0.63889136
0.63504183
0.61699405
0.58829726
0.56514157
0.54492982
0.52658406
0.50975489
0.49421467
0.47979623
0.46636127
0.45379088
0.44197807
0.43082642
0.42025187
0.41017861
0.40053759
0.39126661
0.38230977
0.37361635
0.36514005
0.3568373
0.34866672
0.34058816
0.33256003
0.32454039
0.31648313
0.30833521
0.30003911
0.29152772
0.28271663
0.2735007
0.26374756
0.25328609
0.24189141
0.22925765
0.21494909
0.19834939
0.17862469
0.1548188
0.12658496
0.09562375
0.065155287
0.037140991
0.011860953
0.42441379
0.43109378
0.43817034
0.4454209
0.4525571
0.46032386
0.46777216
0.47558193
0.48344046
0.49112228
0.49909374
0.50671558
0.51429324
0.52183617
0.52904932
0.53607244
0.54301229
0.54952966
0.55580676
0.56194972
0.56772384
0.5730976
0.57824564
0.58322075
0.58781348
0.59205322
0.59607377
0.59985109
0.60336248
0.60665215
0.60973752
0.61258177
0.61520619
0.61762181
0.61986587
0.62194535
0.62386889
0.62563616
0.62726698
0.62876695
0.63010451
0.6313303
0.63249383
0.63363846
0.63475265
0.63574593
0.63660118
0.63738001
0.63810345
0.63877529
0.63939229
0.63995704
0.64050931
0.64104535
0.64136287
0.64106279
0.63873971
0.62367866
0.59533119
0.57169154
0.55125461
0.53271961
0.51572111
0.5000258
0.48546463
0.47189948
0.45921237
0.44729683
0.43605637
0.42540686
0.41527213
0.40558221
0.39627339
0.38728802
0.37857363
0.37008197
0.36176737
0.35358625
0.3454962
0.33745338
0.32941374
0.32132913
0.31314464
0.30480103
0.29622963
0.28734455
0.27803926
0.26818003
0.25759436
0.24605588
0.23325702
0.21875953
0.20194279
0.18196397
0.15784494
0.12919399
0.09768234
0.066593628
0.037973997
0.012131319
0.42421611
0.43089133
0.43797025
0.44523033
0.45237933
0.46016732
0.46763453
0.47546526
0.48336208
0.49108093
0.49909555
0.50677751
0.51441883
0.52202303
0.52930205
0.5364071
0.5434182
0.5500127
0.55636591
0.56258905
0.56844138
0.57388503
0.57912205
0.58418448
0.58885441
0.59316377
0.5972526
0.60111214
0.60471548
0.60807822
0.61122618
0.61413694
0.61681562
0.61928255
0.62155888
0.62368544
0.62568098
0.62754111
0.62926578
0.63088064
0.6323912
0.63376523
0.63499646
0.63607906
0.63707471
0.63805114
0.63898352
0.6398323
0.64060613
0.64131534
0.64198312
0.6426114
0.64316204
0.64366893
0.64437829
0.64481934
0.64295201
0.63063671
0.60303258
0.57874204
0.55799482
0.53921507
0.52200619
0.50612365
0.49139377
0.47767695
0.46485419
0.45281861
0.44147363
0.43073469
0.42052529
0.41077486
0.4014187
0.39239753
0.38365725
0.37514825
0.36682313
0.35863638
0.35054343
0.3424981
0.33445389
0.32636018
0.3181596
0.30979055
0.30118204
0.29224603
0.28287385
0.27292966
0.26223885
0.25057282
0.23762149
0.22294329
0.20591233
0.18567545
0.16122992
0.13213331
0.10002036
0.06824063
0.038935412
0.012446159
0.42403144
0.43070059
0.43778221
0.44504681
0.45220262
0.46000017
0.46748994
0.47535469
0.48327876
0.49103914
0.49909923
0.50683965
0.51453824
0.52220844
0.52955843
0.5367392
0.54381862
0.55047745
0.55689985
0.56320943
0.56915957
0.5746973
0.58001443
0.5851545
0.5898936
0.59428534
0.59845327
0.60238806
0.60605808
0.6095045
0.61272745
0.61570766
0.61846858
0.62101851
0.62339098
0.62558952
0.62762644
0.62950574
0.63124895
0.63285964
0.63431486
0.63567179
0.63697961
0.63825416
0.63944866
0.64049513
0.64142612
0.64229908
0.64310769
0.64385962
0.64455617
0.64519728
0.64582357
0.64640981
0.6467665
0.64681415
0.64599066
0.6362627
0.61004225
0.58514709
0.56414279
0.54516618
0.52778115
0.5117365
0.49685624
0.48300077
0.47005088
0.45789977
0.44645145
0.4356214
0.42533341
0.41551701
0.40610737
0.39704439
0.388273
0.37974285
0.37140567
0.36321481
0.35512427
0.34708613
0.33905178
0.3309682
0.32277532
0.31440869
0.30579448
0.29684176
0.28743898
0.2774473
0.26668887
0.25493159
0.24186144
0.22703203
0.20981095
0.18933431
0.16457693
0.13505179
0.1023592
0.069904605
0.039916778
0.012771289
0.43047877
0.43756287
0.4448364
0.45200561
0.45982246
0.46733039
0.47521432
0.48317657
0.49097366
0.49907565
0.50687383
0.51463759
0.52237092
0.52978693
0.53704811
0.54420715
0.5509449
0.55744052
0.5638309
0.56986193
0.57547342
0.58088254
0.58610902
0.59092568
0.59539022
0.59963401
0.60365745
0.60741961
0.61093398
0.6142186
0.61726831
0.62008575
0.62269268
0.62510329
0.62736022
0.62947935
0.63145492
0.6332876
0.63500505
0.63660102
0.63804063
0.63931997
0.64046407
0.64156317
0.64265336
0.64367215
0.64458816
0.64543188
0.6462114
0.64694429
0.64763446
0.64824583
0.64883017
0.64963154
0.65021299
0.64944718
0.64188653
0.61739095
0.59181246
0.57046965
0.55124206
0.53363835
0.51739785
0.50233981
0.48832322
0.47522667
0.46294217
0.45137393
0.44043693
0.43005462
0.42015627
0.41067695
0.40155621
0.39273795
0.38417102
0.37580685
0.36759836
0.35949895
0.35145988
0.34343142
0.33535907
0.32718083
0.31882971
0.31022895
0.30128462
0.29188193
0.28187845
0.27109226
0.2592864
0.24614103
0.23120289
0.21383064
0.19314687
0.1681006
0.13815564
0.1048722
0.071710127
0.04099133
0.013130794
0.430268
0.43735571
0.44463346
0.45180959
0.45963478
0.4671637
0.47508158
0.48306882
0.49090713
0.49905269
0.50690589
0.51472829
0.5225274
0.53001246
0.53734853
0.54458186
0.5513876
0.55795476
0.56443573
0.5705688
0.57627582
0.58176453
0.58706649
0.59195684
0.59650794
0.60083214
0.60493155
0.60876223
0.6123637
0.61572051
0.61883509
0.62172918
0.6244069
0.62689663
0.62920273
0.63134233
0.63332191
0.63516441
0.63687298
0.63843289
0.63990479
0.64132475
0.64268011
0.6439082
0.64497829
0.64595991
0.64689259
0.64774843
0.64854364
0.64928365
0.64996567
0.6506316
0.651238
0.65159921
0.65187549
0.65180006
0.64607783
0.62375337
0.59764523
0.57601148
0.55657849
0.53878704
0.52237267
0.50715211
0.49298367
0.47974684
0.46733351
0.45564732
0.44460272
0.43412252
0.4241358
0.41457776
0.40538841
0.39651117
0.38789392
0.37948781
0.37124593
0.36312192
0.35506727
0.34703244
0.33896299
0.33079696
0.32246726
0.31389612
0.30498705
0.29562146
0.2856522
0.2748919
0.26309779
0.24994383
0.2349689
0.21752063
0.1967049
0.17144259
0.1411486
0.10734046
0.073518777
0.042088518
0.013505545
0.43002645
0.43711616
0.44440189
0.45159152
0.45943378
0.46698049
0.47491562
0.48294144
0.49081638
0.49900277
0.50691067
0.5147979
0.52266386
0.53021543
0.53762996
0.54494845
0.551837
0.55847528
0.56503689
0.57125322
0.5770377
0.58261976
0.5880067
0.59297487
0.59760279
0.60201262
0.60620466
0.61012557
0.61378949
0.61720829
0.62039464
0.62334808
0.62608898
0.62862592
0.63100082
0.63322686
0.63529778
0.63721833
0.63901289
0.64066355
0.6421435
0.64345639
0.64465413
0.64583731
0.64700209
0.64806269
0.64900682
0.64988087
0.65068775
0.65144048
0.65214527
0.65276924
0.65337898
0.6541997
0.65481445
0.65455534
0.65021082
0.63009974
0.60349235
0.58146659
0.56175687
0.54371798
0.52707956
0.51165573
0.49729919
0.48388773
0.47131491
0.45948341
0.44830576
0.43770301
0.427603
0.41794028
0.40865471
0.39969038
0.39099438
0.38251602
0.37420801
0.36602432
0.35791668
0.34983576
0.34172729
0.33352943
0.32517518
0.31658715
0.30766972
0.29830523
0.28834705
0.27760748
0.26584182
0.25271958
0.23777232
0.22033676
0.19950117
0.17415399
0.14365238
0.10945907
0.075103927
0.043067957
0.013846676
0.42979569
0.43688877
0.44417791
0.45137388
0.4592236
0.46678976
0.47475867
0.48280692
0.49072274
0.49895075
0.50691