/*--------------------------------*- C++ -*----------------------------------*\
| =========                 |                                                 |
| \\      /  F ield         | OpenFOAM: The Open Source CFD Toolbox           |
|  \\    /   O peration     | Version:  2506                                  |
|   \\  /    A nd           | Website:  www.openfoam.com                      |
|    \\/     M anipulation  |                                                 |
\*---------------------------------------------------------------------------*/
FoamFile
{
    version     2.0;
    format      ascii;
    arch        "LSB;label=32;scalar=64";
    class       volScalarField;
    location    "2.95";
    object      Cp;
}
// * * * * * * * * * * * * * * * * * * * * * * * * * * * * * * * * * * * * * //

dimensions      [0 0 0 0 0 0 0];

internalField   nonuniform List<scalar> 
1375
(
0.017617404
0.01764078
0.017744601
0.01782453
0.017913484
0.017998304
0.017382222
0.017481387
0.017558267
0.017648439
0.01774028
0.017828587
0.017910685
0.01798619
0.018054301
0.018117974
0.017134761
0.017234535
0.017307794
0.01739498
0.017485893
0.017578787
0.017670692
0.017759161
0.017843018
0.01792415
0.018000684
0.01807067
0.018137317
0.018201634
0.018266761
0.016848885
0.016940517
0.017004273
0.017084508
0.017171926
0.017266105
0.017366478
0.017469262
0.017571191
0.01767359
0.017770857
0.017861901
0.017951169
0.018036512
0.018119986
0.018202038
0.018283061
0.018364413
0.018445475
0.018526358
0.016573891
0.016654215
0.016703957
0.016770102
0.016847038
0.016935213
0.017035894
0.017146527
0.017262137
0.017379206
0.017490793
0.017596719
0.017699485
0.017800952
0.01790143
0.01799365
0.018074216
0.018147441
0.018221691
0.018300637
0.018384764
0.018478851
0.018586258
0.01870567
0.018836265
0.016323091
0.016405508
0.016450365
0.016512434
0.016582737
0.016663483
0.016756179
0.016861067
0.016974611
0.01709018
0.017201378
0.01730772
0.0174115
0.017516136
0.017618452
0.017711759
0.017794332
0.017871253
0.017953749
0.018049396
0.018153585
0.018262838
0.01838013
0.018501418
0.018613045
0.018718043
0.018835653
0.018956813
0.019070336
0.016002654
0.016092619
0.016137567
0.016202892
0.016272948
0.016351434
0.016440201
0.016538969
0.016645417
0.016755102
0.016866996
0.016986116
0.017115582
0.017250385
0.017377692
0.017492237
0.017597105
0.017690505
0.017764517
0.0178221
0.017878587
0.017947443
0.018039259
0.018154204
0.018296713
0.018460163
0.018611539
0.018732936
0.018846128
0.018968465
0.019122717
0.019274892
0.019417484
0.01564904
0.015730584
0.015768256
0.015827886
0.015893587
0.015970969
0.016061935
0.016161559
0.016263976
0.01636939
0.016482783
0.016609918
0.016749362
0.01688446
0.017005267
0.017123812
0.017247752
0.01736674
0.017470998
0.017566856
0.017661609
0.017751335
0.01783274
0.017902485
0.017943433
0.017972116
0.018053309
0.018250832
0.018538102
0.01878895
0.018942451
0.019096474
0.019225386
0.019317921
0.019415755
0.019610221
0.01535603
0.015433437
0.015465543
0.015513496
0.015566959
0.015636701
0.015723348
0.015816813
0.015905774
0.015995418
0.016091656
0.016194224
0.016300483
0.016404157
0.016516681
0.016654295
0.016801382
0.016930851
0.017048581
0.017168075
0.017276661
0.017376116
0.01748577
0.01760491
0.017736715
0.017859639
0.017968527
0.018056227
0.018118829
0.018266076
0.018429156
0.018517453
0.018749873
0.019103727
0.019329979
0.019497633
0.019644075
0.019779752
0.019927926
0.015009873
0.015108665
0.01515275
0.015208064
0.015266621
0.015341448
0.015430913
0.015520705
0.015600996
0.015677633
0.015757913
0.015846599
0.01594355
0.016046158
0.016156631
0.016269471
0.016366689
0.016446267
0.016539763
0.01666425
0.016800665
0.016951836
0.017138956
0.017327784
0.017470002
0.017584126
0.017694386
0.017822833
0.01795557
0.018092857
0.018279062
0.01851538
0.018652924
0.018726364
0.018938239
0.019142348
0.019357915
0.019628229
0.019848848
0.02003219
0.020215287
0.020320272
0.014528478
0.014631063
0.014687791
0.014760785
0.014836059
0.014922226
0.015012729
0.015098334
0.015178425
0.015262942
0.015356774
0.015460177
0.015569116
0.015679431
0.015794833
0.015916623
0.016043241
0.016173783
0.016305493
0.01642159
0.016496104
0.016526164
0.016563476
0.016690925
0.016883044
0.017110621
0.017368506
0.017619378
0.017808269
0.017963109
0.018135554
0.018354923
0.018528809
0.018663641
0.018856803
0.019049723
0.019166498
0.019268923
0.01944591
0.019727548
0.019995164
0.020247297
0.020463697
0.020631842
0.014081041
0.014149623
0.014197571
0.014273118
0.014352418
0.014436687
0.014518459
0.01459375
0.014676919
0.014775916
0.014885707
0.015003167
0.015122091
0.015243374
0.015366446
0.015491804
0.015632374
0.015789941
0.015935486
0.016060516
0.016198167
0.016352591
0.016479781
0.016563865
0.016643595
0.016739117
0.016848022
0.016971225
0.017180048
0.017474612
0.01780391
0.018141252
0.018420127
0.018562422
0.018648557
0.018789814
0.019034797
0.019270263
0.019466312
0.019626166
0.019774669
0.01994092
0.020225036
0.020476508
0.020704888
0.020956592
0.020622492
0.013730838
0.013785125
0.013819587
0.013891642
0.013972078
0.014052804
0.014126465
0.014191209
0.014271335
0.014376544
0.014494865
0.014612776
0.014714195
0.014806073
0.014907109
0.015030645
0.015178273
0.015336897
0.015492821
0.015655558
0.015831167
0.016009856
0.016163555
0.016286413
0.016410539
0.016592317
0.016806242
0.017004312
0.017152877
0.017269858
0.017374884
0.017508873
0.017723581
0.018023046
0.018340605
0.018611392
0.018939581
0.019184781
0.019353649
0.019515315
0.019735305
0.019924517
0.020036051
0.020241817
0.020584955
0.020938436
0.020792621
0.021888645
0.020338653
0.013262375
0.013329706
0.013361747
0.013435538
0.013519432
0.013602411
0.013684874
0.013776955
0.013886246
0.014016922
0.0141632
0.014304774
0.014428647
0.014540054
0.014658343
0.014792634
0.014923891
0.015015282
0.015043247
0.015029505
0.01506739
0.015257141
0.015608084
0.015938166
0.016141982
0.016309843
0.016511342
0.016704616
0.016858136
0.017005246
0.017172584
0.017401886
0.017635919
0.017851129
0.01803775
0.018181724
0.018369316
0.018632714
0.018976181
0.019325346
0.01963238
0.019835626
0.020005085
0.020301047
0.020606915
0.020878721
0.020745271
0.021943203
0.020138618
0.012687531
0.012760277
0.012792919
0.012864584
0.012944105
0.013026766
0.013119728
0.013237432
0.013374329
0.013517344
0.01365847
0.013797256
0.013937202
0.014073791
0.014209459
0.014355451
0.014515005
0.014678717
0.014839051
0.014981863
0.015070906
0.015068106
0.015017129
0.015040709
0.015203315
0.015530955
0.015858123
0.016196617
0.016557181
0.016853609
0.017015944
0.017153563
0.017339531
0.017592384
0.017850917
0.018101165
0.018303027
0.018478461
0.01870449
0.018946883
0.019203536
0.019425753
0.019548973
0.019970649
0.020423794
0.02079773
0.02057074
0.022079635
0.020002263
0.012220031
0.012294649
0.012326204
0.012385064
0.012444992
0.012511371
0.012595119
0.012706155
0.012838433
0.01296784
0.013085339
0.013210918
0.013360036
0.013526985
0.0136916
0.013849198
0.014013631
0.014192743
0.014375662
0.014544645
0.014699674
0.014859714
0.015041183
0.015233745
0.015399204
0.015490507
0.015566124
0.015652752
0.015757107
0.015938604
0.016135775
0.016289756
0.016750835
0.017261655
0.017606236
0.017894413
0.018073462
0.018254611
0.018410081
0.018650169
0.018923767
0.019183421
0.019429633
0.019600272
0.019991806
0.020609908
0.020507214
0.022221956
0.019862426
0.011779148
0.011876461
0.01192143
0.011993951
0.012063796
0.012137746
0.012223215
0.012330318
0.012448973
0.012562704
0.012666978
0.012772109
0.012891501
0.013026171
0.013168142
0.01331499
0.013472952
0.013647573
0.013833753
0.014022465
0.014213848
0.014414201
0.01462294
0.014828696
0.015027094
0.015192235
0.015330138
0.015486151
0.01565196
0.015784019
0.016031558
0.016341583
0.016436948
0.01653674
0.016783112
0.01700008
0.017490465
0.017970988
0.018206416
0.018488104
0.018744969
0.019009178
0.019354386
0.019601047
0.019864829
0.020148522
0.020050666
0.021947187
0.019594183
0.011176889
0.011284681
0.01134075
0.011438038
0.011540886
0.011646246
0.011760811
0.011879904
0.011998556
0.012128108
0.012262874
0.012396706
0.0125322
0.012670424
0.012815953
0.012967547
0.013110792
0.013232735
0.013343214
0.013470982
0.013627183
0.013786106
0.013928151
0.014093642
0.014332516
0.014612579
0.014868726
0.015077469
0.015245739
0.01544307
0.015738857
0.01607786
0.016320815
0.016477162
0.016646987
0.016925945
0.017109272
0.017273738
0.017561944
0.01775604
0.01814014
0.018628803
0.019041455
0.019373535
0.019588213
0.020121522
0.019672812
0.021783231
0.019317932
0.010579643
0.010672004
0.010720979
0.010816027
0.010926994
0.011046564
0.011166017
0.01128452
0.011410437
0.011553467
0.01171146
0.011870889
0.012022763
0.012172007
0.012331364
0.012506545
0.012686733
0.012857147
0.013017615
0.01318289
0.013356689
0.013517455
0.013643066
0.013738257
0.01381339
0.01386337
0.013921888
0.014032546
0.01429305
0.01480063
0.015272032
0.015651175
0.015890078
0.016109729
0.016302232
0.016484451
0.016679276
0.016986882
0.017318358
0.017631204
0.017927762
0.018187168
0.018492371
0.018736787
0.019160937
0.020011167
0.019390391
0.021822043
0.019061002
0.010106399
0.010193995
0.010236465
0.010318144
0.010415468
0.010523765
0.010627015
0.010724607
0.01082664
0.010946644
0.011087308
0.011236183
0.011383324
0.011530753
0.01168647
0.011852073
0.012023243
0.012202407
0.012395005
0.012601939
0.012814822
0.013020509
0.013210528
0.01338833
0.013562403
0.013720598
0.013868504
0.014041897
0.014190133
0.014219958
0.014168532
0.014118661
0.014476796
0.015129873
0.015303352
0.01567837
0.016348471
0.016709969
0.017110132
0.017517368
0.017812876
0.01817891
0.018487927
0.018732907
0.019033346
0.019545407
0.018858232
0.021536233
0.018662825
0.0095401743
0.0096407888
0.0096871209
0.0097714875
0.0098708129
0.0099842256
0.010089933
0.010185852
0.010271257
0.010359882
0.010466638
0.010585674
0.010712269
0.010842326
0.010973972
0.011104301
0.01123689
0.011384586
0.011555521
0.011740893
0.011928449
0.012122276
0.012329776
0.012543651
0.012754483
0.012959215
0.013161643
0.013384307
0.013617827
0.013829515
0.014079165
0.01434667
0.014490743
0.014555117
0.014772245
0.014967791
0.015248272
0.015753863
0.016400727
0.017013811
0.017548467
0.018084603
0.01841374
0.018684642
0.018771731
0.019799145
0.018583955
0.021417518
0.018091675
0.0088368874
0.0089370561
0.0089779265
0.0090551952
0.0091456299
0.0092547858
0.009367359
0.0094720329
0.0095636455
0.0096493829
0.0097449624
0.0098558252
0.0099768962
0.010101931
0.010223612
0.010337892
0.010454523
0.010587179
0.010739942
0.010899397
0.011055492
0.011224177
0.011419929
0.011625598
0.011816667
0.011994219
0.012187072
0.012424683
0.012696767
0.012972603
0.013271665
0.013663907
0.014030888
0.014327317
0.014795626
0.015152584
0.01534387
0.015537365
0.01578731
0.016223959
0.016835604
0.017198775
0.017510944
0.017804994
0.018348835
0.01986555
0.018505607
0.021908573
0.017603369
0.0081648579
0.0082540156
0.0082819679
0.0083380454
0.0084024563
0.0084884735
0.0085913028
0.0086964766
0.0087935387
0.0088822939
0.0089744617
0.0090819126
0.009202143
0.009331561
0.0094644659
0.0095958639
0.0097296485
0.0098723939
0.010025844
0.010187399
0.010352475
0.010524423
0.01070742
0.010884852
0.011046865
0.011212533
0.01141536
0.011670862
0.011938346
0.012177707
0.012426861
0.012782938
0.013203366
0.013615278
0.014107653
0.014558408
0.014909637
0.015253941
0.01553742
0.015828489
0.016169295
0.016672534
0.017299348
0.017751825
0.018177775
0.019034171
0.017999311
0.0218908
0.017131737
0.0075034316
0.0075912266
0.0076173357
0.0076663055
0.0077199179
0.0077950138
0.0078882304
0.0079898018
0.0080858788
0.0081735721
0.0082631697
0.00836185
0.0084731536
0.0085987707
0.008736788
0.0088841285
0.0090330572
0.009180821
0.0093295431
0.0094878412
0.0096661786
0.0098625191
0.010065692
0.010263638
0.010454443
0.010655964
0.010874616
0.011092766
0.011287103
0.011468569
0.011687098
0.011962991
0.012271254
0.012613589
0.013074928
0.013632307
0.014171606
0.014681816
0.015127024
0.015489942
0.01585148
0.016331144
0.016888594
0.017576567
0.017878026
0.018929098
0.017461868
0.021496001
0.016507223
0.0067356512
0.0068274598
0.0068576237
0.0069084603
0.0069643556
0.0070397281
0.0071322733
0.0072374549
0.0073364225
0.0074294604
0.0075255184
0.0076226467
0.0077246387
0.007837114
0.0079639391
0.0081082907
0.00825981
0.0084033229
0.0085390354
0.0086746995
0.0088252566
0.0090033999
0.009202384
0.0094096771
0.0096211605
0.00984152
0.010074455
0.010316242
0.010567514
0.010839463
0.01114425
0.011469795
0.011793029
0.012101296
0.012419637
0.012793032
0.013150245
0.013439183
0.013861855
0.014395258
0.015109552
0.015879854
0.01664579
0.017150084
0.017373243
0.01892109
0.017019465
0.021944968
0.015798836
0.0058982319
0.0059786278
0.0060038631
0.0060532599
0.0061083324
0.0061847535
0.0062807255
0.006390954
0.0064954895
0.0065930272
0.0066928763
0.00679321
0.0068953663
0.0070059877
0.0071286972
0.0072617463
0.0074041881
0.0075461965
0.0076793891
0.0078087505
0.0079381831
0.0080781532
0.0082440857
0.008435216
0.0086406864
0.0088440228
0.0090448838
0.0092749663
0.0095618745
0.009894933
0.010242943
0.01060213
0.010987641
0.011396506
0.011818066
0.012257681
0.01272807
0.013235351
0.013708583
0.014171794
0.014409924
0.014672865
0.015168816
0.015756763
0.016436371
0.018488299
0.016529199
0.022091158
0.015225864
0.005122654
0.0051908178
0.0052132908
0.0052631857
0.0053169479
0.0053943061
0.0054947112
0.0056086619
0.0057162584
0.0058084334
0.0058934341
0.0059821344
0.0060806803
0.0061918325
0.0063164395
0.0064454395
0.0065726022
0.0067027755
0.006833059
0.0069615254
0.0070912309
0.0072200577
0.0073606939
0.0075311235
0.0077235794
0.0079165838
0.0080944865
0.0082827671
0.0085305224
0.008842914
0.0091837717
0.0095351676
0.0099115246
0.010329408
0.010796907
0.011289678
0.011782642
0.0123263
0.012924326
0.013510631
0.014115842
0.014723416
0.015238055
0.015602007
0.01589372
0.017317146
0.015283146
0.021420271
0.013815914
0.0044530948
0.0045263078
0.004556546
0.0046100509
0.0046617211
0.0047270182
0.0048089125
0.0049063065
0.0049946758
0.0050657023
0.0051282212
0.0051912413
0.0052672656
0.0053585014
0.0054622009
0.0055785401
0.0056943917
0.0058076345
0.0059336172
0.0060708126
0.0062149776
0.0063640217
0.006514344
0.00668225
0.0068771512
0.0070808093
0.0072707318
0.007442647
0.0076309524
0.0078683928
0.0081477809
0.0084503102
0.0087761013
0.0091376423
0.0095586893
0.010034775
0.0105197
0.011026152
0.011604317
0.01224492
0.01294569
0.013653532
0.014338348
0.015161228
0.01530472
0.017318867
0.014163466
0.021556412
0.012375967
0.0037473389
0.0038083361
0.0038309846
0.0038747646
0.0039130819
0.0039497752
0.0039866633
0.0040409791
0.0040912396
0.0041339655
0.0041794711
0.0042253843
0.0042827674
0.0043559956
0.0044432233
0.0045446789
0.004659567
0.0047763987
0.0048970764
0.0050386775
0.0051983143
0.0053690182
0.0055437721
0.0057199017
0.0059165599
0.0061354494
0.0063586466
0.0065714602
0.0067730954
0.0069869753
0.0072286701
0.0074894379
0.0077633856
0.008056771
0.0083882066
0.0087739045
0.009193676
0.0096279162
0.010100385
0.0106426
0.011265468
0.01196813
0.012752974
0.013769951
0.013967807
0.016653176
0.012884679
0.021641184
0.010722428
0.002952803
0.0029768083
0.0029735651
0.0029947013
0.0030098513
0.0030236298
0.0030314265
0.003043227
0.003058011
0.0030758664
0.0031028086
0.0031434548
0.0031981518
0.0032654605
0.0033543756
0.0034601763
0.0035794606
0.0037130363
0.0038500713
0.0039910312
0.0041452599
0.0043122661
0.0044893604
0.0046660398
0.0048439748
0.00504302
0.0052623442
0.0054879724
0.0057091469
0.0059240096
0.0061469924
0.0063847559
0.0066325965
0.0068973177
0.0071908122
0.0075244904
0.007909487
0.0083302719
0.0087716272
0.0092403371
0.0097360223
0.010284031
0.010976267
0.011919956
0.011993113
0.015159219
0.010911383
0.021144561
0.0085000478
0.0021766094
0.0021917718
0.0021702639
0.0021647163
0.0021509264
0.0021427737
0.0021451583
0.0021506456
0.0021463423
0.002144617
0.0021638091
0.002202961
0.0022537165
0.0023155047
0.0023889508
0.0024799864
0.0025907997
0.0027164869
0.0028473132
0.0029693855
0.0030930791
0.0032290896
0.0033708042
0.0035185109
0.0036674762
0.0038235762
0.0039993869
0.0041860651
0.0043723181
0.0045572722
0.0047479465
0.0049505956
0.0051631705
0.0053845139
0.0056292359
0.0059140342
0.0062571818
0.0066620528
0.0071028175
0.007577552
0.0080821549
0.0086159438
0.0092620695
0.010472261
0.010185737
0.013915771
0.0085626522
0.020912788
0.005988831
0.0014364474
0.0014657731
0.0014365786
0.0014165972
0.0013773559
0.0013468205
0.0013416714
0.001362785
0.0013742737
0.0013760272
0.001389345
0.0014136595
0.001450052
0.0015006063
0.001547741
0.0016001106
0.0016748589
0.001762148
0.0018465502
0.0019224064
0.0020047069
0.0020886783
0.002166425
0.0022541499
0.0023547724
0.0024672013
0.0025812652
0.0026939898
0.0028221884
0.0029577654
0.0030916789
0.0032377983
0.0033965634
0.0035522261
0.0037247537
0.0039577975
0.0042366876
0.0045329908
0.0048923855
0.0053292865
0.0058377074
0.0064225107
0.0070903165
0.0084477529
0.0076089661
0.013013481
0.0056623699
0.021026161
0.0023422355
0.00062549496
0.00064791194
0.00060973035
0.00060305418
0.00056874021
0.00054852551
0.0005405378
0.00057218975
0.00060920569
0.0006265687
0.00063951357
0.00063886913
0.00064302502
0.00067076527
0.00068272822
0.00069889173
0.00073472186
0.00074378147
0.00075479023
0.00080969188
0.00086530659
0.0008613069
0.00088198524
0.00092917605
0.00096019924
0.0010023971
0.001045228
0.0010979309
0.0011684449
0.0012465181
0.0013164181
0.0013856337
0.0014684794
0.0015777539
0.0017083628
0.0019415038
0.0021130208
0.002254078
0.0025368627
0.0028390482
0.0032426716
0.0037544513
0.0043068937
0.0057763274
0.004363049
0.011098028
0.0020862501
0.020799119
-0.00063065999
)
;

boundaryField
{
    Side
    {
        type            empty;
    }
    Inlet
    {
        type            calculated;
        value           nonuniform List<scalar> 
21
(
0.021882629
0.021805772
0.0217491
0.021692378
0.021608331
0.021506437
0.021392804
0.021250169
0.021105073
0.020974744
0.020800632
0.020563347
0.020342832
0.020036559
0.019601269
0.019210349
0.018690993
0.017967693
0.017052388
0.015706582
0.016063316
)
;
    }
    Airfoil
    {
        type            calculated;
        value           nonuniform List<scalar> 0();
    }
    Outlet
    {
        type            calculated;
        value           uniform 0;
    }
    procBoundary6to5
    {
        type            processor;
        value           nonuniform List<scalar> 
61
(
0.017946297
0.018052791
0.018127982
0.018205826
0.018275101
0.018075448
0.018075448
0.018144394
0.018206991
0.018264389
0.018321091
0.01817622
0.01817622
0.018228591
0.018278578
0.018330215
0.018388499
0.018338029
0.018338029
0.018416315
0.018498872
0.018579609
0.01865587
0.01860979
0.01860979
0.018694698
0.018776555
0.018863142
0.018963583
0.018964504
0.018964504
0.019057364
0.01911357
0.019178745
0.019177401
0.019177401
0.019272137
0.019364109
0.019468331
0.019522262
0.019522262
0.019645642
0.019791582
0.019781014
0.019781014
0.019916141
0.020059926
0.02012341
0.02012341
0.02028182
0.020318745
0.020448452
0.020448452
0.020573392
0.020690942
0.020690942
0.020885876
0.020707852
0.021764816
0.021764816
0.020484872
)
;
    }
    procBoundary6to12
    {
        type            processor;
        value           uniform 0.017924497;
    }
    procBoundary6to13
    {
        type            processor;
        value           nonuniform List<scalar> 
34
(
0.017673615
0.017359035
0.017359035
0.01711126
0.01683011
0.01655897
0.01631519
0.015999011
0.015646391
0.015357331
0.015012574
0.01455327
0.014134057
0.013791313
0.013318082
0.012733475
0.012254087
0.011791653
0.011189666
0.010596031
0.010114349
0.0095376684
0.0088389191
0.0081676683
0.0075058147
0.0067388085
0.0059062285
0.0051369321
0.0044508448
0.0037431217
0.002975009
0.0021937103
0.0014333772
0.00062321679
)
;
    }
}


// ************************************************************************* //
