/*--------------------------------*- C++ -*----------------------------------*\
| =========                 |                                                 |
| \\      /  F ield         | OpenFOAM: The Open Source CFD Toolbox           |
|  \\    /   O peration     | Version:  2506                                  |
|   \\  /    A nd           | Website:  www.openfoam.com                      |
|    \\/     M anipulation  |                                                 |
\*---------------------------------------------------------------------------*/
FoamFile
{
    version     2.0;
    format      ascii;
    arch        "LSB;label=32;scalar=64";
    class       surfaceScalarField;
    location    "0.00049";
    object      phi;
}
// * * * * * * * * * * * * * * * * * * * * * * * * * * * * * * * * * * * * * //

dimensions      [1 0 -1 0 0 0 0];

oriented        oriented;

internalField   nonuniform List<scalar> 
6719
(
-0.27027073
-0.027082361
-0.27751903
-0.029496568
-0.24848722
-0.032697842
-0.03769306
-0.24200602
-0.022066859
-0.25252423
-0.024999105
-0.27267559
-0.02708165
-0.28004619
-0.029495762
-0.25085344
-0.032688503
-0.20450876
-0.037698585
-0.14986358
-0.042568267
-0.049863372
-0.25049652
-0.018368321
-0.24460645
-0.019604852
-0.24419445
-0.022047923
-0.25476244
-0.024979995
-0.27509213
-0.027061105
-0.28259546
-0.029474008
-0.25317433
-0.032671512
-0.20643195
-0.0376773
-0.15132969
-0.042550402
-0.10038154
-0.049838427
-0.06052477
-0.056203091
-0.064215558
-0.27720654
-0.017710405
-0.25277071
-0.018359156
-0.24679111
-0.019591713
-0.2463526
-0.022032501
-0.25700272
-0.024967127
-0.27753487
-0.02704785
-0.28514553
-0.029458159
-0.25553016
-0.032649974
-0.20839502
-0.037643043
-0.15281205
-0.042520545
-0.10140548
-0.049809543
-0.061160623
-0.05617961
-0.025724646
-0.064212138
-0.0044284047
-0.070897017
0.013361814
-0.078745216
-0.086351675
-0.31073848
-0.014157594
-0.30139554
-0.015972838
-0.27961168
-0.017702572
-0.2550195
-0.018352857
-0.24891943
-0.01958017
-0.24842137
-0.022016205
-0.25911105
-0.024953217
-0.2798348
-0.027034305
-0.28756411
-0.029441567
-0.25788922
-0.032618618
-0.2103836
-0.037618088
-0.15430211
-0.042487322
-0.10241958
-0.049790509
-0.061799965
-0.056155033
-0.026003214
-0.064200168
-0.0044997447
-0.070891514
0.013452544
-0.078732278
0.024536328
-0.086339351
0.035039656
-0.09461136
0.045467363
-0.10363878
0.055903915
-0.11352691
-0.1243264
-0.31327179
-0.014148632
-0.30396358
-0.015960328
-0.28195788
-0.017694542
-0.25721884
-0.01834704
-0.25100581
-0.01956944
-0.25044775
-0.022003202
-0.26116785
-0.024941427
-0.28206923
-0.027020372
-0.2899444
-0.029424611
-0.26014571
-0.032599019
-0.21228771
-0.037594651
-0.15574923
-0.042453681
-0.1033811
-0.049760308
-0.062396337
-0.056131679
-0.026264327
-0.064197486
-0.0045566892
-0.070882603
0.013561283
-0.078722724
0.024740921
-0.086329566
0.035334913
-0.09460078
0.04584977
-0.10362773
0.056371138
-0.1135152
0.066297059
-0.12431368
0.074572123
-0.1359971
0.080356214
-0.14847886
0.083630575
-0.16171599
0.085102673
-0.17578804
-0.19086601
-0.30326602
-0.011749476
-0.30940054
-0.012840654
-0.31575143
-0.014145471
-0.30650758
-0.015955012
-0.28425633
-0.017694662
-0.2593876
-0.018348291
-0.2530509
-0.019565011
-0.25241679
-0.021995469
-0.26315877
-0.024934856
-0.28424823
-0.02701257
-0.29224634
-0.029415214
-0.26231875
-0.032576269
-0.21414792
-0.03756419
-0.15715917
-0.042427007
-0.10431253
-0.049731828
-0.062977524
-0.05608903
-0.026497466
-0.064184896
-0.0045880411
-0.07087476
0.013680675
-0.078711721
0.024947319
-0.086317156
0.035626155
-0.094588025
0.046224623
-0.10361455
0.056827931
-0.11350154
0.066829001
-0.12429957
0.075162957
-0.13598206
0.08098528
-0.1484624
0.084279308
-0.16169764
0.085759324
-0.17576768
-0.19084366
-0.30557605
-0.011751854
-0.31175396
-0.012842115
-0.31816032
-0.014146155
-0.30893991
-0.015953234
-0.28648327
-0.017697231
-0.26148031
-0.018354248
-0.25503473
-0.019566027
-0.25434236
-0.021995399
-0.26511478
-0.024936934
-0.28638041
-0.027014334
-0.2944759
-0.029413549
-0.26454977
-0.03255742
-0.21601523
-0.037553534
-0.15854361
-0.042406868
-0.10524372
-0.049727984
-0.063555633
-0.056043081
-0.026733819
-0.064154537
-0.0046340957
-0.070871806
0.013785769
-0.078700078
0.025137444
-0.086304748
0.035901298
-0.094575939
0.046583418
-0.10360254
0.057267967
-0.11348949
0.067342655
-0.12428715
0.0757346
-0.13596849
0.081594379
-0.1484469
0.084907713
-0.16167978
0.08639541
-0.17574747
-0.19082123
-0.30784201
-0.011750887
-0.31406943
-0.012841128
-0.32054798
-0.014144503
-0.31136727
-0.015950207
-0.28868329
-0.017701139
-0.26355994
-0.018360314
-0.25699301
-0.019567174
-0.25621226
-0.021993262
-0.26698639
-0.024938501
-0.28841841
-0.027019627
-0.29666066
-0.029419262
-0.26671631
-0.032549215
-0.21781885
-0.037557704
-0.15989676
-0.042401844
-0.10614967
-0.04973042
-0.064114242
-0.056036429
-0.026979596
-0.064122944
-0.0046907457
-0.070870688
0.013884107
-0.078691602
0.025320545
-0.086297032
0.036166304
-0.094568266
0.046929136
-0.10359492
0.057693609
-0.11348155
0.067841315
-0.12427821
0.076290303
-0.13595746
0.082186294
-0.14843292
0.0855176
-0.16166263
0.087012142
-0.17572742
-0.19079878
-0.30376333
-0.010828874
-0.31007625
-0.011747855
-0.31634317
-0.012836732
-0.32288138
-0.014138568
-0.31371927
-0.015941125
-0.29084356
-0.017696586
-0.26560838
-0.018359321
-0.25893527
-0.019562073
-0.25807838
-0.021985637
-0.26885145
-0.024931391
-0.29042679
-0.027015059
-0.29883462
-0.029418071
-0.26878581
-0.032550587
-0.21954175
-0.037563362
-0.16119971
-0.042395788
-0.10701586
-0.049720526
-0.064656014
-0.056064063
-0.027234679
-0.064112797
-0.0047622404
-0.070860196
0.013962734
-0.078688507
0.025484871
-0.086293117
0.036414172
-0.094563618
0.047260873
-0.10358962
0.058107713
-0.11347501
0.068328536
-0.12426964
0.076832907
-0.13594625
0.08276271
-0.14841856
0.08610991
-0.1616451
0.087610082
-0.1757071
0.088134835
-0.1907761
-0.20703581
-0.30590911
-0.010828707
-0.31226226
-0.011747381
-0.31857065
-0.012835301
-0.32519129
-0.014136721
-0.31608753
-0.015937483
-0.29298055
-0.017697122
-0.26764984
-0.018360312
-0.26086853
-0.019556266
-0.25992073
-0.021979122
-0.27069207
-0.0249247
-0.29241187
-0.027005984
-0.30097792
-0.029411326
-0.27075462
-0.032557154
-0.22120767
-0.037556238
-0.16247757
-0.042384083
-0.10786383
-0.049693098
-0.065198408
-0.056071682
-0.027510967
-0.064118272
-0.0048468658
-0.07082991
0.014042638
-0.078682111
0.025648259
-0.086285956
0.036660884
-0.09455628
0.047589601
-0.10358116
0.058515336
-0.11346505
0.068804877
-0.12425801
0.077360779
-0.13593261
0.083321736
-0.14840261
0.086683717
-0.16162669
0.08818908
-0.17568636
0.088715174
-0.19075314
0.088848666
-0.20701078
-0.22461748
-0.3080291
-0.010832235
-0.3144209
-0.011751242
-0.32076803
-0.012838576
-0.32745088
-0.01413961
-0.31838011
-0.015939199
-0.29506666
-0.017703792
-0.26963341
-0.01837016
-0.26275342
-0.01956009
-0.26175306
-0.021981748
-0.27256675
-0.024928956
-0.29445944
-0.027009537
-0.30310046
-0.029415491
-0.27271751
-0.032555227
-0.22287975
-0.037547609
-0.16376448
-0.042381582
-0.10874418
-0.049687372
-0.065756818
-0.05604456
-0.027761608
-0.064113335
-0.004920591
-0.070797911
0.01410516
-0.078674055
0.025797493
-0.086276485
0.036894737
-0.094545862
0.047903287
-0.10356978
0.058904771
-0.11345273
0.069261109
-0.12424459
0.07786791
-0.13591785
0.083860501
-0.14838599
0.08723791
-0.16160793
0.088749122
-0.17566539
0.089276784
-0.19073004
0.089410514
-0.20698556
-0.22459008
-0.31011681
-0.010832685
-0.31654985
-0.011751137
-0.32295133
-0.012837799
-0.32970496
-0.014138228
-0.32067559
-0.015936303
-0.29712159
-0.017708804
-0.2715684
-0.018377024
-0.2645731
-0.019560386
-0.26351777
-0.02197582
-0.27438898
-0.024927371
-0.29647474
-0.027012124
-0.30517749
-0.029415669
-0.27478099
-0.03254031
-0.22459263
-0.037546458
-0.16506478
-0.042373646
-0.10964654
-0.049693743
-0.066348264
-0.056025265
-0.028047907
-0.064092554
-0.0050139681
-0.070775951
0.014170571
-0.078662198
0.025947068
-0.086263801
0.037124477
-0.094532912
0.048209411
-0.1035563
0.059283753
-0.11343887
0.069704507
-0.12423034
0.078360157
-0.13590272
0.084382887
-0.14836931
0.08777479
-0.16158912
0.089291293
-0.17564433
0.089820346
-0.19070681
0.089954253
-0.2069602
0.089964488
-0.22456252
-0.24365265
-0.31218543
-0.010827152
-0.31865164
-0.011745341
-0.32510579
-0.012829979
-0.33191073
-0.014128408
-0.32289826
-0.015922569
-0.29913881
-0.017699981
-0.27345654
-0.018371039
-0.26635556
-0.019550025
-0.26525884
-0.02196135
-0.27618053
-0.02491624
-0.29843245
-0.027001417
-0.30723395
-0.02939989
-0.27678333
-0.032514311
-0.22626391
-0.037536945
-0.16633794
-0.042353973
-0.11052493
-0.049679068
-0.066917246
-0.056019678
-0.028328185
-0.064081104
-0.0051142915
-0.070768545
0.014224874
-0.078647084
0.026094212
-0.086249732
0.037353384
-0.094519322
0.04851285
-0.10354305
0.059658265
-0.11342585
0.070142784
-0.12421715
0.078847712
-0.13588852
0.084901266
-0.14835317
0.08830831
-0.16157055
0.089830518
-0.1756233
0.090361094
-0.1906835
0.090495245
-0.2069347
0.090505364
-0.22453477
-0.24362255
-0.3141898
-0.010820852
-0.32068905
-0.011738588
-0.32719933
-0.012821676
-0.33406689
-0.014118803
-0.32511842
-0.015909932
-0.30113945
-0.017691584
-0.27535082
-0.018364761
-0.26811588
-0.019539005
-0.26695513
-0.021945346
-0.27790591
-0.024901617
-0.30032638
-0.026985647
-0.30926942
-0.029383177
-0.2786272
-0.03249596
-0.22784439
-0.037508193
-0.16757101
-0.042322924
-0.1113487
-0.049647533
-0.067436396
-0.056006089
-0.028581688
-0.064086657
-0.0051915407
-0.070781287
0.014309344
-0.078641878
0.026269765
-0.086243726
0.03760463
-0.09451257
0.048835184
-0.10353565
0.060050935
-0.11341778
0.070599481
-0.12420769
0.079353748
-0.13587674
0.08543789
-0.14833833
0.088859641
-0.1615525
0.090387085
-0.17560237
0.090919047
-0.19066013
0.091053339
-0.20690907
0.091063345
-0.22450689
0.091040435
-0.24359226
-0.26429858
-0.31614653
-0.010818226
-0.32267962
-0.011735395
-0.32922772
-0.012817574
-0.33613483
-0.014113115
-0.32720887
-0.015900996
-0.3030549
-0.017685589
-0.27716362
-0.018361808
-0.2698178
-0.019532917
-0.26860877
-0.021937112
-0.27959977
-0.024895264
-0.30218907
-0.026979844
-0.31123386
-0.029376707
-0.28049121
-0.032475899
-0.22942501
-0.037479797
-0.16878643
-0.04229641
-0.11217377
-0.049625302
-0.067947454
-0.055976149
-0.028792186
-0.064082459
-0.0052259667
-0.070788037
0.014412902
-0.078635876
0.026444473
-0.086237627
0.037848113
-0.094506064
0.049150537
-0.10352852
0.060437377
-0.11340954
0.071049471
-0.12419775
0.079850793
-0.13586441
0.085962661
-0.14832305
0.089396758
-0.16153417
0.090928114
-0.17558125
0.091460818
-0.19063657
0.091595047
-0.20688329
0.091604852
-0.22447882
0.091581778
-0.24356181
-0.26426552
-0.31802702
-0.010819047
-0.32459134
-0.011735347
-0.33119325
-0.012816917
-0.33816885
-0.014111882
-0.32930147
-0.015898143
-0.30494131
-0.01768811
-0.27896422
-0.018365411
-0.27149325
-0.019531868
-0.27019852
-0.02193298
-0.28119232
-0.024893335
-0.30393032
-0.026978397
-0.3130813
-0.029372877
-0.28238995
-0.032454791
-0.23100599
-0.037468207
-0.16998604
-0.042280875
-0.11298233
-0.049616595
-0.068460886
-0.05594907
-0.029017787
-0.064067904
-0.0052819167
-0.070782133
0.014495191
-0.07862677
0.026604744
-0.086228985
0.038083038
-0.094497003
0.049459076
-0.10351869
0.060816435
-0.11339861
0.071489305
-0.12418558
0.080334911
-0.13585046
0.086472262
-0.14830679
0.08991725
-0.16151529
0.091451951
-0.17555985
0.091985137
-0.19061285
0.092119243
-0.20685731
0.092128874
-0.2244506
0.092105603
-0.24353117
0.092073541
-0.26423226
-0.28669107
-0.31211401
-0.010082075
-0.31987056
-0.010824184
-0.32646543
-0.011740922
-0.33310716
-0.012821942
-0.34013917
-0.014116309
-0.33132381
-0.015900492
-0.30679027
-0.017694831
-0.28073529
-0.018374902
-0.27315336
-0.019537762
-0.27178879
-0.021938897
-0.28278791
-0.024900412
-0.30566118
-0.026984734
-0.31493891
-0.029380059
-0.28418676
-0.03245792
-0.23251849
-0.037463368
-0.1711325
-0.042264723
-0.11374627
-0.049606437
-0.068932957
-0.055926083
-0.029230593
-0.064048173
-0.0053282199
-0.070771431
0.014587694
-0.078619341
0.026769127
-0.086220238
0.038316543
-0.094487009
0.049761961
-0.10350783
0.061185663
-0.11338691
0.071916029
-0.12417276
0.080803526
-0.13583604
0.086965143
-0.14829023
0.090420671
-0.16149618
0.091958558
-0.17553829
0.092492305
-0.19058896
0.092626362
-0.20683124
0.09263581
-0.22442222
0.092612349
-0.24350036
0.092580118
-0.26419884
-0.28665479
-0.31386545
-0.010088367
-0.32166366
-0.010831636
-0.328292
-0.011747625
-0.33498307
-0.012828642
-0.34208951
-0.014122641
-0.33335
-0.01590622
-0.30860248
-0.017708745
-0.28246483
-0.018389568
-0.27475721
-0.01954544
-0.27330549
-0.021943797
-0.28431362
-0.024909234
-0.3073381
-0.02699576
-0.31673222
-0.029391287
-0.28601012
-0.032456296
-0.23403122
-0.037470845
-0.1722772
-0.042261004
-0.11451859
-0.049608358
-0.06940872
-0.055913898
-0.029427165
-0.064018598
-0.0053729579
-0.070752541
0.014658415
-0.078607108
0.026912708
-0.086208168
0.038532463
-0.094475063
0.05004707
-0.10349542
0.061536712
-0.11337389
0.072323891
-0.12415897
0.081253583
-0.13582097
0.08743998
-0.14827316
0.090906699
-0.16147679
0.092448197
-0.1755165
0.09298269
-0.19056491
0.093116716
-0.20680497
0.093126004
-0.22439368
0.093102391
-0.2434694
0.093069962
-0.26416523
-0.28661834
-0.31561371
-0.010087945
-0.32345619
-0.010832164
-0.33011686
-0.011747485
-0.33684272
-0.012827543
-0.34399739
-0.014119492
-0.33530055
-0.015900476
-0.31038471
-0.017708839
-0.28416523
-0.018393506
-0.27634515
-0.019543889
-0.27482383
-0.021936642
-0.28582256
-0.024902874
-0.30895681
-0.026989722
-0.31847875
-0.029384498
-0.28781247
-0.032442895
-0.23551127
-0.037479585
-0.17338768
-0.042262355
-0.1152662
-0.049598817
-0.069879266
-0.05592232
-0.029643699
-0.06399852
-0.0054319779
-0.07074193
0.014726385
-0.078595595
0.027056713
-0.086195478
0.038746705
-0.094461832
0.050325749
-0.10348175
0.061876939
-0.11335989
0.072718451
-0.12414439
0.081688518
-0.13580533
0.087898874
-0.14825574
0.091376393
-0.16145714
0.092921436
-0.17549456
0.093456692
-0.19054073
0.093590654
-0.20677859
0.093599829
-0.22436499
0.093576037
-0.24343826
0.093543463
-0.26413147
-0.28658167
-0.31734766
-0.010081279
-0.32522842
-0.010825889
-0.3319343
-0.011739827
-0.33869287
-0.012819193
-0.34589833
-0.014109592
-0.33725456
-0.0158883
-0.31217055
-0.017700352
-0.28587579
-0.018386547
-0.27794386
-0.019532183
-0.27635459
-0.021919568
-0.28734446
-0.024883661
-0.31058664
-0.026970042
-0.32025356
-0.029368094
-0.28940135
-0.032436883
-0.23690642
-0.037457214
-0.17447762
-0.042241385
-0.11599465
-0.049571733
-0.070347726
-0.055927311
-0.029877151
-0.064001976
-0.0055081032
-0.070749944
0.014784312
-0.078588352
0.027184303
-0.086187104
0.038938787
-0.094452241
0.050582126
-0.1034713
0.062196302
-0.11334867
0.073093494
-0.12413202
0.082105188
-0.13579116
0.088340426
-0.14823915
0.09182943
-0.16143785
0.093378391
-0.17547264
0.093914523
-0.19051649
0.09404854
-0.20675206
0.094057611
-0.22433619
0.094033664
-0.24340697
0.094000898
-0.26409752
-0.28654485
-0.31907356
-0.010076252
-0.32697778
-0.010819947
-0.33373326
-0.011733995
-0.34050835
-0.012811755
-0.34773951
-0.014101122
-0.33909796
-0.015876992
-0.31388078
-0.017690237
-0.28751653
-0.018379926
-0.27950493
-0.019523361
-0.27788753
-0.021909066
-0.28891625
-0.024873808
-0.31229266
-0.026957338
-0.32200657
-0.029353426
-0.29101239
-0.032415365
-0.23828423
-0.037428287
-0.17555331
-0.04221726
-0.11674347
-0.049544787
-0.070830249
-0.055902029
-0.030101711
-0.064004513
-0.0055853632
-0.070756837
0.014828152
-0.07857963
0.027301637
-0.086178826
0.039124288
-0.0944437
0.050832865
-0.10346205
0.062508987
-0.11333834
0.073459886
-0.12412025
0.082510796
-0.1357773
0.088768848
-0.14822266
0.092267811
-0.1614185
0.093819966
-0.17545067
0.094356693
-0.19049213
0.094490684
-0.20672545
0.094499578
-0.22430723
0.094475489
-0.24337555
0.094442554
-0.26406341
-0.28650786
-0.32075253
-0.010073276
-0.32870113
-0.010816325
-0.3354765
-0.011730044
-0.34230072
-0.012806846
-0.34958135
-0.014095241
-0.3410056
-0.015868948
-0.31557808
-0.017688021
-0.28912671
-0.018380513
-0.28098238
-0.019518774
-0.27933338
-0.021899832
-0.29042012
-0.024870514
-0.31397589
-0.026958551
-0.32374847
-0.029349825
-0.29272984
-0.032394272
-0.23970215
-0.037407114
-0.17664687
-0.042193659
-0.11749861
-0.049524359
-0.071314469
-0.055865498
-0.030333517
-0.063999789
-0.0056627219
-0.070755805
0.014879789
-0.07857077
0.027422899
-0.086168942
0.039308537
-0.094433107
0.051077129
-0.10345076
0.062811459
-0.11332633
0.073813959
-0.12410712
0.082903421
-0.13576248
0.089184437
-0.14820554
0.092693855
-0.16139883
0.094249418
-0.17542849
0.094786928
-0.19046763
0.094920908
-0.2066987
0.094929693
-0.22427814
0.094905449
-0.24334398
0.094872364
-0.26402914
-0.28647068
-0.32239539
-0.010071998
-0.33037033
-0.010815924
-0.33719663
-0.011728531
-0.34404364
-0.01280571
-0.35136402
-0.014093373
-0.34284942
-0.01586513
-0.31726008
-0.017690071
-0.29072072
-0.018383964
-0.28244038
-0.019518418
-0.28074125
-0.021894195
-0.29183645
-0.024866992
-0.31552466
-0.02695638
-0.32540671
-0.029347547
-0.29445967
-0.032378862
-0.24112343
-0.03739529
-0.1777312
-0.042173709
-0.11824476
-0.049508359
-0.071778286
-0.05583973
-0.030517496
-0.063983689
-0.005699189
-0.070754657
0.014953559
-0.078562072
0.027560313
-0.086160104
0.039505669
-0.094423525
0.051334118
-0.10344039
0.063127982
-0.11331509
0.074183565
-0.12409465
0.083312746
-0.13574809
0.089617382
-0.14818865
0.093137559
-0.16137922
0.094696687
-0.17540627
0.095234914
-0.19044302
0.095368918
-0.20667181
0.095377566
-0.22424892
0.095353161
-0.24331225
0.09531993
-0.26399473
-0.28643333
-0.32400936
-0.010072698
-0.33201133
-0.010816917
-0.33887735
-0.011729869
-0.34574016
-0.012805897
-0.35308143
-0.01409228
-0.34458845
-0.015860446
-0.31888741
-0.017685259
-0.29227764
-0.018384881
-0.28390023
-0.019517663
-0.28214669
-0.021891409
-0.29322808
-0.024862379
-0.31700271
-0.02695015
-0.32699887
-0.029341293
-0.29620398
-0.032360229
-0.24252276
-0.037392209
-0.17878416
-0.042165093
-0.11896523
-0.049501102
-0.07222215
-0.055830105
-0.030710353
-0.063959797
-0.0057428273
-0.070741157
0.015032578
-0.078551843
0.027700669
-0.086149765
0.03970647
-0.094412894
0.051595916
-0.10342929
0.063448451
-0.11330325
0.074555233
-0.12408166
0.083721363
-0.13573334
0.090047008
-0.14817154
0.093576011
-0.16135945
0.095137722
-0.17538395
0.095676331
-0.19041832
0.095810209
-0.2066448
0.095818693
-0.22421957
0.095794136
-0.24328038
0.095760743
-0.26396016
0.095723393
-0.28639581
-0.31073995
-0.32557304
-0.010070527
-0.33361096
-0.010814616
-0.34051609
-0.011726572
-0.34740868
-0.012801475
-0.35480078
-0.014086147
-0.34639075
-0.015851598
-0.32052262
-0.017682403
-0.29385141
-0.018383054
-0.28534562
-0.019511079
-0.28351542
-0.021877962
-0.29457753
-0.02484846
-0.31845531
-0.02693404
-0.32860181
-0.029325934
-0.29778203
-0.03234791
-0.24385178
-0.037380685
-0.1798001
-0.04214781
-0.11964222
-0.049481554
-0.072642334
-0.055828171
-0.030921073
-0.063952382
-0.0058025693
-0.070731001
0.015099948
-0.078543014
0.027828437
-0.086139794
0.039893634
-0.094402559
0.051843556
-0.10341861
0.063754385
-0.11329199
0.074911758
-0.12406935
0.084114787
-0.13571924
0.090461707
-0.14815489
0.093999942
-0.16133989
0.09556439
-0.17536164
0.096103454
-0.19039355
0.096237224
-0.20661768
0.096245562
-0.22419009
0.096220861
-0.24324838
0.096187294
-0.26392542
0.096149769
-0.28635812
-0.31069907
-0.32708633
-0.010068578
-0.33516129
-0.010812999
-0.34211277
-0.01172344
-0.34903566
-0.012798254
-0.35647507
-0.014081606
-0.348132
-0.015845234
-0.3220972
-0.017680258
-0.29534866
-0.01838165
-0.28673687
-0.019508348
-0.28485653
-0.021870906
-0.29595299
-0.024840501
-0.3199712
-0.026921334
-0.33021396
-0.029312812
-0.29925422
-0.032335578
-0.24512973
-0.037359809
-0.18080444
-0.042124036
-0.12032816
-0.049460803
-0.073082269
-0.055798705
-0.031125
-0.063944282
-0.0058567252
-0.070735003
0.015157393
-0.078536406
0.027946926
-0.086132745
0.04007652
-0.094394655
0.052088744
-0.10340989
0.064058401
-0.1132822
0.075264994
-0.12405808
0.084502359
-0.13570573
0.090867456
-0.14813846
0.09441229
-0.16132038
0.095978055
-0.17533928
0.096516848
-0.19036868
0.096650348
-0.20659046
0.096658472
-0.22416048
0.09663361
-0.24321623
0.096599886
-0.26389053
0.096562204
-0.28632028
-0.31065801
-0.32855582
-0.010069529
-0.33668179
-0.010814077
-0.34367275
-0.011722664
-0.3506268
-0.012797062
-0.35811878
-0.0140797
-0.34981881
-0.015841211
-0.3235846
-0.017684099
-0.29673097
-0.018385919
-0.28801961
-0.019505458
-0.28610428
-0.021872679
-0.29728587
-0.024852787
-0.3215106
-0.026938209
-0.33179522
-0.029322913
-0.30083361
-0.032322567
-0.24644181
-0.037339801
-0.18183232
-0.042100053
-0.12102518
-0.049458734
-0.073542207
-0.055778238
-0.031332942
-0.063920241
-0.0059192443
-0.070735791
0.015211229
-0.078528309
0.028068949
-0.086125094
0.040260695
-0.094386554
0.052330917
-0.1034008
0.064354975
-0.11327188
0.07560768
-0.12404611
0.084877288
-0.13569157
0.091259554
-0.14812155
0.094810824
-0.16130055
0.096377809
-0.17531672
0.096916509
-0.19034367
0.097049746
-0.20656312
0.097057667
-0.22413074
0.097032636
-0.24318394
0.09699879
-0.26385553
0.096960955
-0.28628228
-0.31061677
-0.32992867
-0.010071878
-0.33809898
-0.0108167
-0.34512604
-0.011723955
-0.35212923
-0.012797521
-0.35971104
-0.014080082
-0.35157968
-0.015840741
-0.32514236
-0.017691563
-0.2982085
-0.01839795
-0.28928382
-0.019510702
-0.28725725
-0.021872301
-0.29838145
-0.024857922
-0.3227241
-0.026950041
-0.33315759
-0.029338179
-0.30252081
-0.032316227
-0.24780374
-0.037343843
-0.18289143
-0.042105619
-0.12176338
-0.049458219
-0.074020815
-0.055786012
-0.031530964
-0.063900951
-0.0059747172
-0.07072491
0.01526526
-0.07852085
0.028185235
-0.0861166
0.040436287
-0.094377622
0.052563009
-0.10339118
0.064640711
-0.1132613
0.075938673
-0.12403406
0.085239707
-0.13567739
0.091638585
-0.14810462
0.095195902
-0.16128069
0.096764121
-0.17529406
0.097302594
-0.19031855
0.097435566
-0.20653567
0.097443303
-0.22410089
0.097418139
-0.24315154
0.097384139
-0.26382037
0.097346139
-0.28624412
-0.31057537
-0.33135657
-0.010074397
-0.33955254
-0.010818969
-0.34662309
-0.011727273
-0.35366221
-0.012801242
-0.36129056
-0.014083971
-0.35325789
-0.015843001
-0.32668434
-0.017702227
-0.2996576
-0.018407369
-0.29058804
-0.019512963
-0.28849082
-0.021867738
-0.29958975
-0.024851744
-0.32401253
-0.02694389
-0.33459309
-0.029337686
-0.30401677
-0.032332852
-0.24904576
-0.037356723
-0.18382855
-0.042107544
-0.12239942
-0.049437496
-0.074425444
-0.055787309
-0.031748082
-0.063893338
-0.0060510111
-0.070702006
0.015312125
-0.078514641
0.028293881
-0.086108858
0.040603712
-0.094368541
0.052787115
-0.10338094
0.064917568
-0.11324983
0.076259465
-0.12402105
0.085590529
-0.13566231
0.092005007
-0.14808704
0.095567904
-0.16126038
0.097137126
-0.17527119
0.097675449
-0.1902933
0.097808141
-0.20650808
0.097815699
-0.22407092
0.097790387
-0.24311901
0.097756239
-0.26378506
0.097718109
-0.28620583
-0.31053382
-0.33280141
-0.010079374
-0.34101728
-0.010824063
-0.34812444
-0.011735128
-0.35515765
-0.01280752
-0.36278401
-0.014089453
-0.35476038
-0.015846157
-0.32808681
-0.017703391
-0.30102096
-0.018415443
-0.29190542
-0.01952113
-0.28979661
-0.021878832
-0.30092877
-0.024860806
-0.32544781
-0.026949158
-0.33604967
-0.029343308
-0.30542464
-0.032338602
-0.25021377
-0.037358211
-0.18474723
-0.042104171
-0.1230651
-0.049428123
-0.074874236
-0.055769246
-0.031987709
-0.063886658
-0.006132039
-0.070666848
0.015363398
-0.078503727
0.028404143
-0.086096566
0.040770644
-0.094356293
0.053006842
-0.10336802
0.065185821
-0.11323613
0.076568089
-0.12400631
0.085927301
-0.13564614
0.092356997
-0.14806881
0.095925891
-0.16123974
0.097496592
-0.17524814
0.098035037
-0.19026792
0.09816752
-0.2064804
0.098174946
-0.22404083
0.098149514
-0.24308637
0.098115237
-0.26374963
0.098076946
-0.28616737
-0.31049211
-0.32679655
-0.0093338512
-0.33418509
-0.010083037
-0.34243624
-0.010826512
-0.34955589
-0.011737387
-0.35664413
-0.012809911
-0.36432242
-0.014090891
-0.35636726
-0.015847149
-0.32950548
-0.017712086
-0.30235274
-0.018425256
-0.29312044
-0.019522449
-0.29096685
-0.021876176
-0.30213607
-0.024866395
-0.3268041
-0.026958383
-0.3374347
-0.029345872
-0.30699
-0.032321554
-0.25141454
-0.037369054
-0.18568982
-0.04211064
-0.12374171
-0.04943707
-0.075324664
-0.055762403
-0.03220137
-0.063870471
-0.0062097362
-0.070637448
0.01539709
-0.078491457
0.028501138
-0.086084376
0.040922779
-0.094344012
0.053208504
-0.10335578
0.065434339
-0.1132236
0.076857683
-0.12399305
0.086246928
-0.13563126
0.09269384
-0.14805146
0.096270036
-0.16121956
0.097842877
-0.17522522
0.098381575
-0.19024252
0.09851398
-0.20645263
0.098521275
-0.22401063
0.098495712
-0.2430536
0.09846131
-0.26371408
0.098422895
-0.2861288
-0.31045026
-0.32817018
-0.0093303548
-0.33558416
-0.010077569
-0.34387368
-0.010822977
-0.35102517
-0.011732218
-0.35814232
-0.012805212
-0.36586772
-0.014086118
-0.35798558
-0.015840326
-0.33098051
-0.017708884
-0.30373376
-0.018423482
-0.29436932
-0.019514652
-0.29217929
-0.021863472
-0.30336584
-0.024854519
-0.32815636
-0.026944858
-0.33889446
-0.029332609
-0.30835782
-0.03230526
-0.25260087
-0.03734819
-0.18662379
-0.042088526
-0.12438182
-0.049417971
-0.075736909
-0.055766101
-0.032421835
-0.06387321
-0.0062945137
-0.070626493
0.015436625
-0.078483243
0.028600097
-0.086074965
0.041069076
-0.094333736
0.05340336
-0.10334499
0.065678636
-0.1132123
0.077145654
-0.12398068
0.086566065
-0.13561689
0.093029871
-0.14803436
0.096612433
-0.16119943
0.09818664
-0.17520231
0.098725221
-0.19021706
0.098857357
-0.20642477
0.098864508
-0.22398037
0.098838803
-0.24302072
0.098804258
-0.26367839
0.098765716
-0.28609009
-0.31040825
-0.3294776
-0.0093305195
-0.33691487
-0.010075903
-0.34520999
-0.010821475
-0.3524275
-0.011729036
-0.35954578
-0.012801816
-0.36730036
-0.014082438
-0.35946871
-0.015834468
-0.33233231
-0.017706942
-0.3050393
-0.018423126
-0.29557977
-0.019510007
-0.29334777
-0.021857632
-0.3045541
-0.024849881
-0.32946358
-0.026937806
-0.3402814
-0.029324711
-0.30981969
-0.032286904
-0.25379267
-0.037328021
-0.18756003
-0.042066813
-0.12504219
-0.049398282
-0.076151161
-0.055749497
-0.032587951
-0.06387861
-0.0063249053
-0.070625859
0.015498314
-0.078474737
0.028707382
-0.086066218
0.04122622
-0.094324826
0.053615034
-0.10333555
0.06594273
-0.11320178
0.077453532
-0.12396845
0.08690396
-0.13560236
0.093383316
-0.14801699
0.096971392
-0.1611791
0.098546517
-0.17517919
0.099084879
-0.19019145
0.099216764
-0.20639683
0.099223701
-0.22394995
0.09919786
-0.24298772
0.099163194
-0.26364258
0.099124503
-0.28605124
-0.3103661
-0.33069057
-0.0093318474
-0.3381615
-0.010077487
-0.34648996
-0.010822926
-0.35372718
-0.011729551
-0.3608753
-0.012802083
-0.36865184
-0.014079912
-0.36093539
-0.015828174
-0.33362573
-0.017708428
-0.3062736
-0.018427036
-0.29668248
-0.019510336
-0.2943951
-0.021853458
-0.30560387
-0.024848342
-0.33063231
-0.026935794
-0.34152953
-0.029320024
-0.31144747
-0.032269941
-0.2549893
-0.03731706
-0.18847716
-0.042051623
-0.12568461
-0.04939323
-0.076554647
-0.055732635
-0.032753239
-0.063876418
-0.0063742231
-0.070630881
0.015540601
-0.078469149
0.028813099
-0.086061796
0.04139114
-0.094319084
0.053834051
-0.10332824
0.066210154
-0.11319268
0.077760137
-0.12395725
0.087236292
-0.13558847
0.093728153
-0.14799996
0.097319859
-0.16115888
0.098895124
-0.17515609
0.099432947
-0.1901658
0.099564452
-0.20636876
0.099571199
-0.22391944
0.099545226
-0.2429546
0.099510443
-0.26360665
0.099471621
-0.28601226
-0.31032378
-0.33186708
-0.0093324377
-0.33936242
-0.01007673
-0.3477204
-0.010824659
-0.3549898
-0.011728949
-0.36216955
-0.01280178
-0.36998394
-0.014078358
-0.36235582
-0.015823279
-0.3349276
-0.017708222
-0.30750459
-0.018429224
-0.29777607
-0.019508638
-0.29543261
-0.021849135
-0.30664141
-0.024847191
-0.33179223
-0.026934529
-0.34279977
-0.029318702
-0.31290447
-0.03225746
-0.25612988
-0.037301154
-0.18935877
-0.042032632
-0.12629913
-0.049379989
-0.076935227
-0.055714993
-0.032907725
-0.063874681
-0.0064071944
-0.070634481
0.015600193
-0.078463746
0.028926283
-0.086054925
0.041555127
-0.094311433
0.054046282
-0.10331983
0.066467788
-0.11318324
0.078055274
-0.12394622
0.087556359
-0.13557506
0.094060084
-0.14798335
0.097655203
-0.1611389
0.099230409
-0.17513304
0.099767632
-0.1901401
0.09989876
-0.20634061
0.099905313
-0.22388884
0.099879187
-0.24292136
0.099844276
-0.2635706
0.099805309
-0.28597313
-0.31028135
-0.33289428
-0.0093369913
-0.34043671
-0.010079797
-0.3488239
-0.010830042
-0.35612983
-0.011730344
-0.36334365
-0.012805435
-0.37121914
-0.01408201
-0.36373474
-0.015826826
-0.33615246
-0.017720395
-0.3086926
-0.018439432
-0.29881547
-0.019511649
-0.29639074
-0.021848919
-0.30758603
-0.024850979
-0.33284215
-0.026939883
-0.34395261
-0.029324637
-0.31452683
-0.032253868
-0.2572424
-0.037292914
-0.19020489
-0.042017281
-0.12690126
-0.049369106
-0.077307966
-0.055684927
-0.033053772
-0.063858904
-0.0064464309
-0.070628383
0.015643233
-0.07845515
0.029025909
-0.086046581
0.041710375
-0.094303378
0.054253053
-0.10331121
0.066720959
-0.11317362
0.078345291
-0.12393497
0.087869327
-0.13556133
0.094382582
-0.14796646
0.097979153
-0.16111871
0.099553169
-0.17510985
0.10008927
-0.19011432
0.10021987
-0.20631239
0.10022616
-0.22385814
0.10019992
-0.24288804
0.10016487
-0.26353443
0.1001258
-0.2859339
-0.31023875
-0.33399694
-0.0093413075
-0.34153548
-0.010084121
-0.34995145
-0.010836191
-0.35726046
-0.011737191
-0.36449498
-0.012811271
-0.37236748
-0.014087701
-0.36489804
-0.015830061
-0.33723164
-0.017725586
-0.30972501
-0.018449507
-0.29975823
-0.019520394
-0.29728567
-0.021859301
-0.308467
-0.024863539
-0.33378876
-0.026953199
-0.34496983
-0.029336897
-0.31698381
-0.032250957
-0.25833155
-0.037300842
-0.19101712
-0.042018151
-0.12746933
-0.049363782
-0.077655558
-0.055661777
-0.03322033
-0.063827196
-0.006500588
-0.070617405
0.015693018