/*--------------------------------*- C++ -*----------------------------------*\
| =========                 |                                                 |
| \\      /  F ield         | OpenFOAM: The Open Source CFD Toolbox           |
|  \\    /   O peration     | Version:  2506                                  |
|   \\  /    A nd           | Website:  www.openfoam.com                      |
|    \\/     M anipulation  |                                                 |
\*---------------------------------------------------------------------------*/
FoamFile
{
    version     2.0;
    format      ascii;
    arch        "LSB;label=32;scalar=64";
    class       volScalarField;
    location    "0.05";
    object      omega;
}
// * * * * * * * * * * * * * * * * * * * * * * * * * * * * * * * * * * * * * //

dimensions      [0 0 -1 0 0 0 0];

internalField   nonuniform List<scalar> 
1375
(
48.249999
48.252522
48.251137
48.25079
48.250747
48.250764
48.252521
48.251045
48.250735
48.250704
48.250718
48.250916
48.250837
48.250904
48.251007
48.251098
48.252603
48.251028
48.250752
48.250731
48.25074
48.25084
48.250769
48.250839
48.250945
48.251044
48.251298
48.251339
48.251494
48.251655
48.251715
48.252681
48.251049
48.250783
48.250774
48.2508
48.250835
48.25077
48.250832
48.25092
48.251003
48.251221
48.251261
48.251421
48.251597
48.251684
48.25187
48.251856
48.251841
48.25174
48.251244
48.252704
48.251065
48.2508
48.25079
48.250837
48.250864
48.250822
48.250884
48.250953
48.251024
48.25118
48.25122
48.25138
48.251552
48.251671
48.251832
48.251828
48.251833
48.251746
48.251333
48.250767
48.249882
48.248764
48.247406
48.245547
48.252694
48.251057
48.250796
48.250792
48.250855
48.250889
48.250872
48.250953
48.251039
48.251102
48.2512
48.251263
48.251425
48.251571
48.251671
48.251787
48.251784
48.251793
48.251675
48.251316
48.250749
48.249812
48.248621
48.247173
48.245372
48.243541
48.241799
48.240303
48.238849
48.252628
48.25101
48.25076
48.250761
48.250841
48.25089
48.250877
48.25096
48.251078
48.251194
48.251274
48.251357
48.251507
48.251619
48.251695
48.251797
48.251805
48.251765
48.25156
48.251187
48.250565
48.249558
48.2483
48.246764
48.244996
48.243227
48.241484
48.239984
48.238651
48.23761
48.236785
48.236224
48.235806
48.252488
48.250907
48.250669
48.250681
48.250779
48.250844
48.25084
48.250927
48.251053
48.251184
48.251277
48.251385
48.25155
48.251681
48.251755
48.25183
48.251848
48.251802
48.251546
48.251073
48.25037
48.249299
48.247925
48.246319
48.244568
48.242752
48.241025
48.239586
48.238353
48.237395
48.236629
48.236116
48.235765
48.235566
48.235395
48.235291
48.252227
48.250699
48.250473
48.250502
48.250629
48.250712
48.250713
48.250797
48.250942
48.251102
48.251213
48.25133
48.251507
48.251666
48.251778
48.25185
48.251882
48.251825
48.251542
48.251021
48.250251
48.249144
48.247707
48.24595
48.24412
48.242323
48.240624
48.239182
48.238022
48.237129
48.236435
48.235985
48.235703
48.235527
48.235361
48.235275
48.235235
48.235141
48.235058
48.251731
48.250264
48.250042
48.250096
48.250294
48.250422
48.250427
48.250511
48.250694
48.250897
48.251028
48.25116
48.25137
48.251585
48.251748
48.25183
48.251848
48.251787
48.251515
48.250976
48.250126
48.248952
48.247433
48.245611
48.243731
48.24194
48.240276
48.238845
48.237707
48.236848
48.236227
48.235846
48.235621
48.235478
48.235323
48.235242
48.235204
48.235121
48.235062
48.235042
48.234974
48.234879
48.250876
48.249454
48.249225
48.249314
48.249635
48.249841
48.249855
48.249955
48.250212
48.250491
48.250649
48.250779
48.251019
48.251317
48.251542
48.25162
48.251642
48.251599
48.251358
48.2508
48.249887
48.248625
48.247043
48.245215
48.243329
48.241537
48.239904
48.238513
48.237395
48.236594
48.236033
48.235701
48.235521
48.23541
48.235272
48.235199
48.235168
48.235107
48.235064
48.235027
48.234956
48.23488
48.234868
48.234919
48.249622
48.24822
48.247974
48.24809
48.248533
48.248828
48.248848
48.248966
48.249322
48.249706
48.249908
48.250055
48.250349
48.250733
48.251
48.251089
48.251129
48.251124
48.250935
48.250373
48.249402
48.248066
48.246449
48.244643
48.242786
48.24102
48.239455
48.238133
48.237077
48.236333
48.235828
48.23553
48.235375
48.235292
48.235188
48.235135
48.235114
48.235065
48.235044
48.235002
48.234923
48.234865
48.234834
48.234971
48.235076
48.235364
48.23496
48.248229
48.246833
48.246582
48.246684
48.247116
48.24742
48.247434
48.247556
48.247977
48.248438
48.248665
48.248828
48.24919
48.249671
48.249986
48.25009
48.250145
48.250202
48.250083
48.249512
48.248465
48.247077
48.245474
48.243706
48.241903
48.240223
48.238767
48.237565
48.236605
48.235942
48.235508
48.235256
48.235121
48.235062
48.235013
48.235001
48.235001
48.234966
48.234967
48.234952
48.234886
48.234824
48.234802
48.234956
48.235134
48.235517
48.235226
48.249144
49.153477
48.247185
48.24584
48.245605
48.245625
48.245855
48.246035
48.246026
48.246106
48.246445
48.246844
48.247049
48.247208
48.247575
48.248078
48.248411
48.248517
48.248581
48.248693
48.248625
48.248015
48.24688
48.24543
48.243866
48.24218
48.240445
48.238863
48.237572
48.236575
48.235766
48.235199
48.234868
48.234713
48.23463
48.234611
48.23464
48.234703
48.234742
48.234741
48.234774
48.234798
48.234784
48.234756
48.23475
48.234912
48.235133
48.235503
48.235395
48.250606
49.131667
48.246545
48.245273
48.245051
48.244997
48.245028
48.245051
48.245001
48.245003
48.245151
48.245358
48.24548
48.245598
48.245874
48.246254
48.246513
48.246585
48.246625
48.246695
48.246566
48.245869
48.244634
48.24311
48.241541
48.239915
48.238248
48.236769
48.235659
48.234882
48.234245
48.233807
48.233619
48.233645
48.233682
48.23375
48.233895
48.234064
48.234173
48.234255
48.234372
48.234449
48.23449
48.234571
48.234632
48.234777
48.235047
48.235471
48.23541
48.254678
49.199494
48.245889
48.244679
48.244471
48.244378
48.244302
48.244222
48.244121
48.244046
48.244034
48.244066
48.244095
48.244152
48.244301
48.244508
48.244652
48.24468
48.244666
48.244596
48.244281
48.243444
48.242095
48.240461
48.238788
48.237115
48.23547
48.234057
48.233063
48.232439
48.231938
48.231622
48.231595
48.231841
48.232054
48.232262
48.232562
48.232869
48.233087
48.233316
48.233589
48.233759
48.233877
48.234096
48.234306
48.234527
48.234892
48.235387
48.235316
48.256297
49.18235
48.244862
48.243721
48.243536
48.243428
48.2433
48.243158
48.243007
48.242865
48.242752
48.242681
48.242649
48.242656
48.242711
48.242804
48.242883
48.242901
48.242846
48.242643
48.242141
48.241168
48.239717
48.237954
48.236159
48.23439
48.232708
48.231321
48.230352
48.229746
48.229307
48.229064
48.229132
48.229483
48.229819
48.230152
48.230588
48.231024
48.231366
48.231777
48.232238
48.23253
48.232775
48.233186
48.233588
48.233996
48.234569
48.235043
48.235091
48.259788
49.273802
48.243142
48.242105
48.241973
48.241891
48.241765
48.241609
48.241438
48.24127
48.241126
48.241032
48.240993
48.241001
48.241039
48.241113
48.241211
48.241282
48.241246
48.240989
48.240384
48.239317
48.237801
48.23602
48.234121
48.232255
48.230611
48.229258
48.228285
48.22764
48.227219
48.227013
48.227066
48.227341
48.227645
48.227984
48.228429
48.228879
48.229274
48.229791
48.230366
48.23075
48.231136
48.231776
48.232356
48.232963
48.233798
48.234331
48.234662
48.25925
49.266232
48.240463
48.239591
48.239581
48.239611
48.239587
48.23952
48.239432
48.239345
48.239285
48.239275
48.23933
48.239438
48.239572
48.239742
48.239947
48.240124
48.240164
48.239932
48.239294
48.238227
48.236704
48.234854
48.232922
48.231075
48.229471
48.228178
48.22722
48.226564
48.226165
48.22598
48.22598
48.226113
48.226298
48.22654
48.226866
48.227205
48.227534
48.227982
48.22849
48.228857
48.229272
48.230011
48.230724
48.231497
48.232489
48.233078
48.23358
48.261273
49.32521
48.236781
48.236135
48.236361
48.236659
48.236922
48.237149
48.237347
48.237535
48.237728
48.237949
48.238214
48.238512
48.238822
48.239137
48.239447
48.239708
48.23983
48.239645
48.238962
48.237781
48.236177
48.234268
48.232301
48.23047
48.228904
48.227659
48.226741
48.226124
48.22577
48.225613
48.225587
48.225645
48.225754
48.225908
48.226114
48.22634
48.226573
48.226863
48.227199
48.227486
48.227824
48.228399
48.229034
48.229835
48.23082
48.23145
48.232051
48.263216
49.364465
48.232541
48.232146
48.232722
48.233479
48.234269
48.235036
48.235745
48.23638
48.236936
48.237429
48.237877
48.238289
48.238676
48.239047
48.2394
48.239656
48.239668
48.239357
48.238586
48.237284
48.235559
48.233579
48.231587
48.229774
48.228256
48.227079
48.226232
48.22569
48.225402
48.225287
48.225283
48.22535
48.225461
48.225592
48.225745
48.225926
48.226123
48.226324
48.226543
48.226775
48.227031
48.227369
48.2278
48.228478
48.229305
48.229972
48.23068
48.262694
49.400739
48.228881
48.228621
48.229504
48.230707
48.232006
48.233276
48.234421
48.235394
48.236193
48.23685
48.237408
48.237899
48.238338
48.238724
48.23906
48.239296
48.239273
48.238865
48.237965
48.236538
48.234728
48.232714
48.230713
48.228927
48.22747
48.226374
48.225615
48.225153
48.224927
48.224856
48.224886
48.224981
48.225114
48.225255
48.225406
48.225587
48.225791
48.225988
48.226186
48.226411
48.226643
48.226886
48.227189
48.227721
48.228419
48.229257
48.229984
48.266758
49.471803
48.227144
48.226617
48.227252
48.228288
48.229544
48.230908
48.232273
48.23355
48.234685
48.235661
48.23648
48.237152
48.237694
48.238151
48.238528
48.238757
48.238709
48.238223
48.237167
48.235631
48.233728
48.231649
48.229667
48.227931
48.226546
48.225535
48.224864
48.224477
48.224305
48.224278
48.224343
48.224466
48.224627
48.2248
48.224977
48.225175
48.225392
48.22561
48.22583
48.226072
48.226315
48.226557
48.226859
48.227392
48.228099
48.229138
48.22971
48.26616
49.491437
48.227079
48.225964
48.225795
48.226069
48.226801
48.227945
48.22936
48.230881
48.232374
48.233746
48.234936
48.23591
48.236674
48.237286
48.237773
48.238058
48.238005
48.237449
48.2363
48.23464
48.232645
48.230552
48.228592
48.226914
48.22561
48.224692
48.224106
48.223786
48.223659
48.22367
48.223764
48.223907
48.224083
48.224276
48.224479
48.224695
48.224928
48.225171
48.225421
48.225688
48.22596
48.22623
48.226558
48.227124
48.227832
48.228992
48.229909
48.274816
49.602721
48.226619
48.225521
48.225133
48.22483
48.224761
48.225186
48.226164
48.227584
48.229267
48.231017
48.232665
48.23409
48.235257
48.236187
48.236896
48.237323
48.237314
48.236706
48.235474
48.233707
48.231618
48.229533
48.227618
48.225985
48.224768
48.223938
48.223431
48.223169
48.223079
48.223115
48.223227
48.223382
48.223563
48.223764
48.223978
48.224203
48.224447
48.224711
48.224991
48.225287
48.225586
48.225882
48.226232
48.226835
48.227555
48.228855
48.22983
48.273516
49.612454
48.225869
48.224777
48.224385
48.224043
48.223665
48.223412
48.223601
48.224444
48.225896
48.22776
48.229768
48.231684
48.233376
48.234771
48.235831
48.236488
48.236591
48.235968
48.234649
48.232798
48.230669
48.228546
48.226642
48.225111
48.22398
48.223219
48.22278
48.222567
48.222509
48.222562
48.222683
48.222846
48.223035
48.223244
48.223465
48.2237
48.223958
48.224239
48.224538
48.224852
48.22517
48.225486
48.225864
48.22653
48.22729
48.228757
48.230004
48.284286
49.736794
48.224768
48.223738
48.223437
48.223176
48.222888
48.222572
48.222296
48.222366
48.223093
48.224524
48.226475
48.228665
48.230834
48.232772
48.234307
48.235287
48.235594
48.235066
48.23372
48.231806
48.229647
48.227538
48.225684
48.224212
48.223162
48.222482
48.222092
48.221913
48.221881
48.221946
48.222072
48.222244
48.222447
48.222665
48.222892
48.223136
48.223405
48.223694
48.224002
48.224332
48.224675
48.225026
48.225451
48.226201
48.226995
48.228676
48.229936
48.283668
49.780241
48.223524
48.222554
48.222349
48.222226
48.222093
48.221932
48.221721
48.221474
48.221442
48.222005
48.223327
48.225296
48.227642
48.230022
48.232084
48.233507
48.234109
48.233803
48.232584
48.230686
48.228533
48.226462
48.224682
48.223293
48.222314
48.221696
48.221362
48.221217
48.221195
48.221264
48.2214
48.221579
48.221781
48.221998
48.222228
48.222476
48.222744
48.223035
48.223357
48.223708
48.224072
48.224447
48.224916
48.22578
48.226607
48.228695
48.229908
48.298465
49.899112
48.222316
48.221377
48.221224
48.221175
48.22114
48.221116
48.221067
48.22091
48.220664
48.22054
48.220945
48.222165
48.224174
48.226647
48.22909
48.230991
48.232005
48.231999
48.231047
48.22935
48.227288
48.225298
48.223614
48.222325
48.221433
48.22088
48.22058
48.220454
48.220445
48.220523
48.220659
48.220826
48.221014
48.221224
48.221448
48.221684
48.221945
48.222245
48.222581
48.222941
48.223312
48.223706
48.224222
48.225198
48.226112
48.22856
48.229668
48.300108
50.015897
48.221291
48.220374
48.220247
48.220237
48.220222
48.220217
48.220247
48.22023
48.220071
48.21981
48.219615
48.21992
48.22112
48.22317
48.225608
48.227801
48.229222
48.229615
48.228997
48.227657
48.225889
48.22407
48.222528
48.221359
48.220559
48.220069
48.219807
48.219699
48.219694
48.219764
48.219888
48.220042
48.22022
48.220415
48.220621
48.220849
48.221102
48.221392
48.221724
48.222089
48.222476
48.222892
48.223447
48.224606
48.225532
48.228858
48.229744
48.31635
50.122352
48.220104
48.219158
48.219038
48.219058
48.219076
48.219057
48.219056
48.219098
48.219092
48.218945
48.218676
48.21849
48.218855
48.220095
48.222034
48.224104
48.225703
48.226458
48.22626
48.225339
48.224029
48.222573
48.221251
48.220243
48.219548
48.219116
48.218883
48.218785
48.218776
48.218828
48.218919
48.219032
48.219173
48.219325
48.219496
48.219698
48.219915
48.220158
48.220437
48.220753
48.221089
48.221439
48.221938
48.223148
48.22429
48.229221
48.22942
48.328971
50.337876
48.219359
48.218414
48.218303
48.218347
48.218414
48.218428
48.218416
48.218458
48.218547
48.218584
48.218459
48.218213
48.218089
48.218452
48.219444
48.22082
48.222107
48.222913
48.223066
48.222611
48.221814
48.220888
48.219971
48.219222
48.218699
48.21837
48.218193
48.218126
48.218132
48.218182
48.218254
48.218348
48.218472
48.21862
48.218785
48.21898
48.219193
48.219455
48.219767
48.220107
48.220508
48.220958
48.221638
48.224069
48.224725
48.233744
48.231385
48.347087
50.453053
48.21762
48.216739
48.216634
48.216624
48.21666
48.216691
48.216666
48.216602
48.216561
48.216554
48.216499
48.21629
48.21597
48.21572
48.215727
48.216066
48.216636
48.217236
48.217683
48.217881
48.21783
48.217635
48.217369
48.217081
48.216841
48.216669
48.216555
48.216491
48.216458
48.216441
48.216425
48.216415
48.216418
48.216435
48.216464
48.216504
48.216548
48.216622
48.21674
48.216868
48.217051
48.217326
48.217773
48.221457
48.220758
48.23542
48.230147
48.422131
51.007872
)
;

boundaryField
{
    Side
    {
        type            empty;
    }
    Inlet
    {
        type            fixedValue;
        value           uniform 60.24606;
    }
    Airfoil
    {
        type            omegaWallFunction;
        blending        binomial;
        n               2;
        value           nonuniform List<scalar> 0();
    }
    Outlet
    {
        type            inletOutlet;
        inletValue      uniform 60.24606;
        value           nonuniform List<scalar> 
49
(
48.21762
48.216739
48.216634
48.216624
48.21666
48.216691
48.216666
48.216602
48.216561
48.216554
48.216499
48.21629
48.21597
48.21572
48.215727
48.216066
48.216636
48.217236
48.217683
48.217881
48.21783
48.217635
48.217369
48.217081
48.216841
48.216669
48.216555
48.216491
48.216458
48.216441
48.216425
48.216415
48.216418
48.216435
48.216464
48.216504
48.216548
48.216622
48.21674
48.216868
48.217051
48.217326
48.217773
48.221457
48.220758
48.23542
48.230147
48.422131
51.007872
)
;
    }
    procBoundary6to5
    {
        type            processor;
        value           nonuniform List<scalar> 
61
(
48.247651
48.245876
48.245514
48.245468
48.245466
48.2456
48.2456
48.245513
48.245565
48.245645
48.245742
48.245965
48.245965
48.246007
48.246164
48.246316
48.246438
48.246595
48.246595
48.246559
48.246521
48.246367
48.246065
48.245455
48.245455
48.244688
48.243605
48.24221
48.240583
48.238511
48.238511
48.236786
48.235189
48.233795
48.23244
48.23244
48.231555
48.230931
48.230496
48.230211
48.230211
48.230025
48.229918
48.229857
48.229857
48.229772
48.229692
48.229645
48.229645
48.229576
48.229507
48.229492
48.229492
48.229522
48.229654
48.229654
48.230005
48.229798
48.243787
48.243787
49.095021
)
;
    }
    procBoundary6to12
    {
        type            processor;
        value           uniform 48.247632;
    }
    procBoundary6to13
    {
        type            processor;
        value           nonuniform List<scalar> 
34
(
48.251193
48.254955
48.254955
48.254766
48.254544
48.254333
48.254135
48.253904
48.253586
48.253094
48.252332
48.251216
48.249774
48.248285
48.247209
48.246556
48.245896
48.244867
48.243146
48.240468
48.236783
48.23254
48.228875
48.227132
48.227074
48.226615
48.225863
48.224762
48.223523
48.222321
48.2213
48.220108
48.219355
48.217608
)
;
    }
}


// ************************************************************************* //
