/*--------------------------------*- C++ -*----------------------------------*\
| =========                 |                                                 |
| \\      /  F ield         | OpenFOAM: The Open Source CFD Toolbox           |
|  \\    /   O peration     | Version:  2506                                  |
|   \\  /    A nd           | Website:  www.openfoam.com                      |
|    \\/     M anipulation  |                                                 |
\*---------------------------------------------------------------------------*/
FoamFile
{
    version     2.0;
    format      ascii;
    arch        "LSB;label=32;scalar=64";
    class       volScalarField;
    location    "0.8";
    object      Cp;
}
// * * * * * * * * * * * * * * * * * * * * * * * * * * * * * * * * * * * * * //

dimensions      [0 0 0 0 0 0 0];

internalField   nonuniform List<scalar> 
1375
(
0.024545505
0.024632955
0.024597724
0.02444545
0.02417038
0.023796835
0.023457888
0.02315614
0.022872339
0.024538558
0.024634269
0.024605985
0.024453498
0.024177237
0.023802136
0.023460795
0.023154706
0.022870107
0.022667612
0.024530597
0.024636118
0.024613592
0.024460608
0.024182587
0.023807853
0.023466832
0.023152871
0.022868309
0.022663018
0.02452321
0.024637979
0.024622106
0.024468053
0.024187725
0.023814322
0.023471977
0.023150771
0.022866348
0.022657329
0.024517117
0.024639663
0.024630957
0.02447538
0.024193629
0.023820787
0.023472118
0.023150315
0.022865654
0.022650958
0.024511853
0.024641314
0.024638363
0.024481934
0.024199368
0.023827646
0.023470039
0.023149436
0.022865332
0.022643956
0.024506892
0.024642744
0.024644797
0.0244872
0.024204993
0.023834644
0.023466155
0.023148296
0.022865681
0.022636616
0.02450165
0.024643769
0.024650215
0.024491138
0.02421063
0.023841021
0.023461082
0.023146287
0.022867516
0.022631073
0.024493466
0.024644401
0.024654723
0.024494095
0.024215851
0.023845217
0.023455587
0.023145837
0.022859956
0.022630209
0.024485733
0.024644573
0.0246584
0.024496261
0.024217645
0.023848957
0.023448051
0.023144636
0.022849476
0.022627157
0.024481991
0.024642141
0.024662026
0.024496061
0.024217358
0.023849217
0.023439535
0.023141749
0.022844711
0.022623743
0.024475965
0.024636784
0.024665173
0.024497439
0.024210803
0.02384276
0.023434485
0.023134934
0.022840587
0.022624894
0.022518512
0.024465368
0.024632956
0.024666424
0.024502613
0.024192802
0.02383324
0.023429499
0.023124446
0.02284624
0.022620229
0.022497877
0.024452235
0.024628983
0.024665324
0.024502642
0.024171865
0.02382152
0.023422285
0.023120417
0.022856107
0.02260401
0.022476468
0.024438256
0.024621387
0.024661863
0.024497328
0.024153634
0.023797222
0.02341435
0.023118218
0.022858213
0.022590175
0.022455565
0.024421886
0.02461361
0.024653754
0.02448849
0.024134915
0.023759936
0.023402411
0.023112183
0.022856947
0.022582285
0.022435024
0.024404202
0.024600825
0.024641654
0.024474856
0.02411067
0.023720368
0.02338416
0.023104812
0.022851993
0.022577315
0.022412998
0.024383186
0.024579426
0.024622832
0.02446405
0.024077008
0.023681415
0.023342003
0.02308813
0.022844938
0.022579203
0.022392066
0.024358725
0.024551707
0.024592347
0.024431684
0.024058164
0.02362961
0.023293987
0.023055073
0.02284052
0.022584359
0.022376959
0.024332337
0.024518086
0.024551857
0.024383209
0.024039147
0.023556681
0.023249916
0.02300509
0.022843997
0.02260411
0.022362198
0.024303026
0.02447573
0.024494712
0.02433212
0.023991559
0.023495635
0.023192431
0.022959262
0.022820718
0.022629706
0.022357786
0.024268273
0.024422136
0.024415638
0.024260135
0.023929059
0.023443244
0.023127137
0.022906053
0.022773245
0.022637249
0.022390025
0.024220543
0.024360901
0.024316763
0.024161403
0.02384214
0.023403381
0.023046417
0.022828877
0.022731979
0.02264056
0.022455114
0.024158956
0.024268907
0.024224191
0.024037539
0.023739373
0.023346957
0.022943996
0.022746784
0.022676061
0.022632533
0.022512101
0.024091059
0.024126864
0.024099885
0.023906794
0.023630745
0.02325701
0.022851179
0.022654127
0.022599674
0.022608378
0.022536969
0.024013842
0.023975571
0.023927852
0.02375556
0.023481564
0.023144124
0.022789369
0.022546907
0.022517972
0.022554083
0.022549457
0.022466361
0.023922056
0.023820731
0.02372251
0.02355146
0.023314474
0.023013162
0.022717594
0.02244058
0.022416407
0.022466454
0.022546691
0.022551848
0.023817094
0.023642332
0.023479889
0.023315792
0.023148014
0.022854009
0.022616467
0.022350236
0.022300968
0.022389733
0.022554355
0.022621555
0.023695384
0.023438676
0.023223395
0.023048439
0.022930488
0.022700077
0.022494239
0.022267613
0.022188928
0.02229222
0.022533789
0.022656631
0.023538307
0.023224105
0.022956678
0.022745977
0.022644369
0.022571451
0.022353974
0.022194642
0.022113168
0.022165635
0.022400115
0.022656176
0.023343363
0.022989258
0.022684749
0.022439472
0.02233993
0.022382878
0.022219001
0.022111615
0.022103215
0.02208898
0.022248058
0.022574118
0.023092029
0.022733319
0.022430215
0.02216143
0.02203034
0.02212878
0.022095709
0.022063441
0.022057788
0.022064315
0.022155659
0.022421095
0.022800618
0.022756243
0.022460029
0.022168461
0.021907648
0.02178067
0.021821539
0.021932267
0.02199303
0.022029764
0.022094886
0.022172384
0.022346125
0.022649007
0.022319807
0.022153379
0.021905814
0.021703967
0.021601269
0.021534952
0.021758789
0.02187498
0.022015002
0.022082199
0.02221052
0.022396104
0.022629596
0.021778943
0.021775719
0.021654545
0.021523867
0.021421673
0.021339856
0.021526818
0.021779359
0.021981399
0.022124269
0.022272772
0.02246765
0.022693183
0.022914253
0.021221028
0.021342787
0.021404433
0.021367996
0.021283287
0.021232289
0.021356898
0.021662701
0.021905271
0.022188982
0.022398877
0.022587601
0.022805669
0.023010243
0.02068203
0.020907475
0.021087973
0.021192762
0.021144511
0.021148212
0.021227241
0.021448768
0.021763625
0.022133416
0.022470999
0.022726013
0.022907473
0.023075852
0.020289968
0.020493907
0.020757102
0.020924891
0.020985101
0.021070667
0.021136014
0.021342763
0.02170727
0.022109098
0.022472132
0.022775403
0.022968257
0.023114877
0.023181798
0.020037128
0.020078564
0.020296134
0.020503647
0.020700682
0.020914435
0.02109815
0.021363931
0.02170444
0.022061567
0.022386447
0.022660799
0.022849715
0.022957537
0.023012751
0.01990569
0.019735367
0.019775135
0.020044532
0.020468619
0.020867438
0.021236249
0.021563215
0.021830495
0.022077366
0.022339413
0.022537153
0.022718559
0.022813657
0.022866666
0.022925115
0.019796729
0.01951737
0.019456464
0.019770274
0.020320993
0.02089596
0.021387716
0.0217662
0.022020771
0.022162132
0.022291039
0.022389659
0.022502493
0.02254581
0.022596087
0.022598657
0.022566155
0.019860888
0.019617606
0.019624495
0.019911398
0.020422923
0.021037943
0.021604271
0.022045353
0.022300851
0.022414295
0.022419435
0.022412986
0.02241385
0.022440934
0.022484217
0.022504425
0.022490772
0.020226492
0.02014283
0.020147895
0.020321514
0.020665083
0.021156007
0.021669164
0.022085993
0.02234496
0.022461731
0.02244311
0.022402385
0.022356564
0.022341196
0.022343348
0.022377318
0.022416042
0.022447808
0.020821416
0.020953779
0.021010357
0.021066812
0.021247023
0.021431787
0.021656328
0.021896038
0.022115207
0.02224894
0.022316152
0.022372003
0.02240714
0.022431908
0.022474593
0.022533741
0.022605212
0.022679693
0.022762777
0.021325332
0.021628743
0.021951786
0.022159978
0.022182113
0.022118099
0.021974298
0.021804871
0.02178113
0.0218691
0.022035283
0.02224745
0.022448805
0.022609289
0.022738585
0.022838017
0.022909747
0.022967835
0.023039381
0.023107911
0.021819349
0.022066977
0.0225104
0.022852471
0.022961412
0.022812791
0.02243363
0.022028666
0.021675854
0.021521546
0.021666434
0.022009022
0.022402682
0.022765836
0.023033259
0.02321464
0.023319367
0.02338595
0.023431759
0.023471506
0.023517201
0.023568927
0.02252097
0.022534438
0.022604773
0.022803697
0.022974072
0.022904281
0.022626871
0.022237018
0.021855968
0.021693652
0.021822449
0.022139793
0.022537501
0.022854135
0.023084903
0.023274381
0.023458452
0.02359013
0.023670897
0.023727007
0.023738392
0.023734503
0.023742424
0.022651009
0.022780374
0.022546737
0.022295822
0.022185414
0.022172514
0.022273179
0.022400533
0.022410585
0.022407265
0.022621512
0.022856214
0.022841024
0.02289379
0.023012607
0.023249422
0.023176371
0.023149762
0.023201872
0.023298534
0.023238065
0.02321212
0.023231013
0.023321701
0.023389957
0.022801982
0.023168528
0.023258774
0.022662687
0.022141744
0.02213203
0.022455538
0.022690959
0.022991923
0.023450186
0.02359636
0.022927266
0.022423678
0.022276787
0.022188887
0.022066315
0.021872759
0.022127971
0.022539814
0.022663947
0.022686442
0.022981078
0.023267297
0.023387947
0.023516442
0.02380337
0.023924602
0.024656323
0.024644985
0.024632848
0.02461929
0.024603293
0.024583903
0.024560645
0.024534836
0.024510668
0.024484514
0.024451695
0.024417869
0.024383657
0.024349106
0.024315621
0.024283543
0.02425509
0.024232827
0.024215366
0.024196045
0.024173421
0.02414631
0.024119672
0.024096825
0.0240714
0.02404855
0.024023542
0.023992619
0.023940082
0.023815082
0.023603393
0.023293225
0.022857278
0.022337207
0.021757235
0.021151591
0.020643948
0.020287284
0.020113317
0.02013649
0.02018965
0.020175728
0.020251483
0.020615984
0.021135834
0.021874956
0.022474859
0.022371107
0.022275072
0.02462681
0.024614756
0.024601423
0.024587106
0.02457177
0.024555152
0.024536501
0.024513803
0.024489057
0.024463923
0.024435076
0.0244042
0.024371757
0.024338364
0.024304201
0.024269151
0.024233353
0.024197892
0.024163582
0.024133366
0.024105507
0.024085677
0.024067915
0.024056255
0.024059826
0.024070867
0.024077973
0.024054662
0.023985032
0.023850578
0.023626152
0.023302316
0.022867155
0.022345725
0.021760526
0.021193741
0.020727329
0.020391099
0.020316976
0.020434899
0.020548269
0.020407878
0.020216978
0.020440195
0.021121428
0.021929129
0.022299663
0.022041845
0.022024708
0.024489108
0.024485236
0.024480271
0.024474695
0.024468685
0.024461822
0.024453893
0.02444489
0.024434161
0.024422483
0.024410741
0.024395751
0.02437762
0.02435671
0.024332944
0.024304965
0.024270448
0.024231799
0.024193767
0.024159336
0.02412957
0.024100443
0.024082006
0.024074755
0.024069666
0.024054705
0.024023218
0.023970001
0.023876883
0.023729036
0.023510065
0.023192441
0.022762389
0.022283879
0.021811745
0.021338717
0.020922661
0.020653271
0.020611844
0.020728675
0.020776881
0.020541728
0.02017321
0.020393745
0.021181879
0.021848208
0.021993861
0.022146414
0.021950715
0.024251643
0.024260186
0.024268731
0.024277401
0.024285889
0.024293857
0.024301592
0.024310074
0.024316676
0.024319484
0.024321985
0.024323728
0.024323095
0.024319367
0.024311946
0.024300899
0.024285982
0.024265022
0.024239152
0.024209877
0.024175134
0.024134756
0.024097928
0.02405883
0.024008618
0.023949367
0.023871083
0.023771375
0.02364495
0.023492111
0.023278068
0.022999032
0.022694134
0.022334539
0.021937999
0.02158811
0.021265727
0.021011451
0.020918658
0.020904094
0.020848063
0.020603952
0.020238548
0.020454682
0.021170923
0.021570185
0.021747623
0.022358122
0.022018015
0.023955554
0.023972743
0.023990874
0.024010178
0.024030407
0.024051258
0.024072353
0.02409315
0.02411218
0.024129892
0.024149638
0.024169173
0.024184474
0.024196474
0.024205624
0.024209303
0.024211294
0.024206626
0.024193314
0.024171596
0.024141239
0.024102756
0.024044173
0.023961301
0.023857903
0.023734557
0.023598442
0.023455724
0.023317686
0.023190294
0.023057977
0.022900391
0.022701076
0.0224552
0.022178075
0.021914196
0.021644209
0.021364344
0.021117415
0.020923291
0.020820608
0.020673213
0.020439748
0.020588581
0.021055227
0.021229994
0.021673453
0.022308562
0.021994437
0.023658794
0.023673313
0.023689532
0.023707711
0.023727792
0.023749459
0.023772762
0.023797715
0.023825015
0.023854052
0.023881178
0.023906627
0.023933504
0.023962338
0.023990453
0.024016088
0.024033519
0.024044232
0.02404443
0.024030539
0.023999508
0.023947186
0.023869816
0.023764466
0.02363096
0.023472882
0.023305011
0.023146311
0.023015241
0.022916617
0.022851887
0.022806885
0.022731275
0.022615589
0.022457
0.022233339
0.021940602
0.021584166
0.021179867
0.020883123
0.020817123
0.020803191
0.020724368
0.020724719
0.020854412
0.020971197
0.021662652
0.021967595
0.021784241
0.023500992
0.023498221
0.023497443
0.023498918
0.023502474
0.023508222
0.023516329
0.023527235
0.023541613
0.023559891
0.02358185
0.023607436
0.023635893
0.023665464
0.023694396
0.02372221
0.023746968
0.023766363
0.023776393
0.023772546
0.023752294
0.023711048
0.023643435
0.023545527
0.023415965
0.023260451
0.023088916
0.02292145
0.022786626
0.022710727
0.022696742
0.022708688
0.022735592
0.022745036
0.022663963
0.022455625
0.022104837
0.021644984
0.021191208
0.020909489
0.020886237
0.021006076
0.021018675
0.02082649
0.020666935
0.020795453
0.021529762
0.021476356
0.021485114
0.023505187
0.023493939
0.02348188
0.023469185
0.023455858
0.023441886
0.023427546
0.02341339
0.023400119
0.023388493
0.023379591
0.023374605
0.023374405
0.023379276
0.02338881
0.02340254
0.023419214
0.023436407
0.023450204
0.02345599
0.023449276
0.023425966
0.023380915
0.023311131
0.023216276
0.023097178
0.022955922
0.022804509
0.02267166
0.022589294
0.022570609
0.022622543
0.022728081
0.022816158
0.022786043
0.022563679
0.02215928
0.021635263
0.021205848
0.021017339
0.021018385
0.021209505
0.021263087
0.020933315
0.020557657
0.020593384
0.021194673
0.02104866
0.021153255
0.02344518
0.023445272
0.023442821
0.023437179
0.023428168
0.023415629
0.023399453
0.023379773
0.02335676
0.023330847
0.023302389
0.02327157
0.023239324
0.023206653
0.023174693
0.023145935
0.023123072
0.023108063
0.023100864
0.023098958
0.023098127
0.02309372
0.023080794
0.023055697
0.023012956
0.022950219
0.022871876
0.022785499
0.022680642
0.022571455
0.022528761
0.022586314
0.022706834
0.022807707
0.022785321
0.022560675
0.022131367
0.021617773
0.021242539
0.021148961
0.021200213
0.02138883
0.021439153
0.021049664
0.020527211
0.020347716
0.020681727
0.020801563
0.020949915
0.023216883
0.023234461
0.023248816
0.023259099
0.023264804
0.023265497
0.023260842
0.023250445
0.023233975
0.023211028
0.023181393
0.023145145
0.023103025
0.023055377
0.023002559
0.022945844
0.022887693
0.022832167
0.022784769
0.02275082
0.022733279
0.022731248
0.022742022
0.022761053
0.022782778
0.022800823
0.02281422
0.022798325
0.022747459
0.022698757
0.022639706
0.022615949
0.022651252
0.022706844
0.022663243
0.022440306
0.022044695
0.021603523
0.021315034
0.021254545
0.021367751
0.021516746
0.021532196
0.021178602
0.020575673
0.020163909
0.020198409
0.020714798
0.020926143
0.022805779
0.022832762
0.022857534
0.022880174
0.022900162
0.022916593
0.022928551
0.022935049
0.02293515
0.02292797
0.022912546
0.022888296
0.02285519
0.022813094
0.022762155
0.022703348
0.02263827
0.02256999
0.022503931
0.022446827
0.022406307
0.022391219
0.022408519
0.022462546
0.022556135
0.022685288
0.022785581
0.022845268
0.022896037
0.022872306
0.022790798
0.022671978
0.022574572
0.022500905
0.022401528
0.022233416
0.021955638
0.021635785
0.021394079
0.02131471
0.021449391
0.021607397
0.021628039
0.021323854
0.020703315
0.020186932
0.019994213
0.020507489
0.020951631
0.022353266
0.022365696
0.022377134
0.022389941
0.022404198
0.022419293
0.022434461
0.022448943
0.022461832
0.022471925
0.022477755
0.02247813
0.022472123
0.02245875
0.022437407
0.022407928
0.022370794
0.022327876
0.022283325
0.022243513
0.02221803
0.02221769
0.022254603
0.022340428
0.022470528
0.022611092
0.022762697
0.022910413
0.023003663
0.023017931
0.022911599
0.02270034
0.022419713
0.022174712
0.022091867
0.022055555
0.021915057
0.021695616
0.021440498
0.02132235
0.021437934
0.021656644
0.021749257
0.021571141
0.021019867
0.020410403
0.019881407
0.020067259
0.021023217
0.021983475
0.021991876
0.022006091
0.022025411
0.022048844
0.022075174
0.022102705
0.022130053
0.022156146
0.022180778
0.022203554
0.022224291
0.022245605
0.022269258
0.022300717
0.022348313
0.02241726
0.022505509
0.02261527
0.022746522
0.022871605
0.022942383
0.022932202
0.022822876
0.022602686
0.022300521
0.022015336
0.021864926
0.021847977
0.021837479
0.021721518
0.021476707
0.021334697
0.021435345
0.021752607
0.022015818
0.021970291
0.021469368
0.02066421
0.019857929
0.019897264
0.021141176
0.022380613
0.022436157
0.022475667
0.022495306
0.022498044
0.022496929
0.022517396
0.022572745
0.022644525
0.02270147
0.022718053
0.02265027
0.022475755
0.022224941
0.021957925
0.021761194
0.021713369
0.021781253
0.021747255
0.021580502
0.021449967
0.021583523
0.022011334
0.022409796
0.02246658
0.021932996
0.020759612
0.019921933
0.020022537
0.021108247
0.022323172
0.022351471
0.022392714
0.022406372
0.022361274
0.022228698
0.022031307
0.02178821
0.021665864
0.021747941
0.021826769
0.021804567
0.021715071
0.021888119
0.022328558
0.022771972
0.022808585
0.021994063
0.020757757
0.020125568
0.02004564
0.020787209
0.021878927
0.021721266
0.021729485
0.021915345
0.022060832
0.022066275
0.022190494
0.022495665
0.02285131
0.022691867
0.021727997
0.020765029
0.020431293
0.01988877
0.020256068
0.022272264
0.022350107
0.022341183
0.022401828
0.022509447
0.02235894
0.021537019
0.02099736
0.020721641
0.01987767
0.019950438
0.022102197
0.022112452
0.022187703
0.021691686
0.021379179
0.02098756
0.020255798
0.020157375
0.022254376
0.021876278
0.021107371
0.020662801
0.020282419
0.020883854
0.020500108
0.020273827
0.020216242
)
;

boundaryField
{
    Side
    {
        type            empty;
    }
    Inlet
    {
        type            calculated;
        value           nonuniform List<scalar> 
48
(
0.02185686
0.021907103
0.021911395
0.021846249
0.021781555
0.021751493
0.021737621
0.021717377
0.021660938
0.021618947
0.021644648
0.021739829
0.021743881
0.021645906
0.021563048
0.021452612
0.021403804
0.021413663
0.021418736
0.021426606
0.021468766
0.021459605
0.021391233
0.021362597
0.021349764
0.021354126
0.021433118
0.021814886
0.021808319
0.021801613
0.02176014
0.021731244
0.021753291
0.021783021
0.021775954
0.021756203
0.021721272
0.021671468
0.021666335
0.021698314
0.021687727
0.021619301
0.021500132
0.021384907
0.021253666
0.021074842
0.020916584
0.020756175
)
;
    }
    Airfoil
    {
        type            calculated;
        value           nonuniform List<scalar> 0();
    }
    Outlet
    {
        type            calculated;
        value           nonuniform List<scalar> 0();
    }
    procBoundary3to2
    {
        type            processor;
        value           nonuniform List<scalar> 
65
(
0.022642775
0.022638632
0.022631634
0.022622805
0.022611999
0.022597482
0.022578174
0.022561785
0.022550772
0.022536541
0.022536541
0.022545621
0.022514118
0.0224833
0.022454581
0.022431847
0.022415656
0.022401904
0.022386069
0.022360232
0.022331351
0.022307257
0.022279356
0.022290546
0.0223733
0.0223733
0.022423311
0.022526875
0.022605479
0.022753488
0.022882937
0.022904223
0.022904223
0.023112774
0.022992435
0.022918738
0.022918738
0.023120911
0.023175122
0.02320262
0.02320262
0.023224127
0.023084503
0.023084503
0.022903081
0.022903081
0.022532506
0.022462092
0.022462092
0.022467716
0.022467716
0.022844906
0.022844906
0.023174086
0.023174086
0.023237374
0.023624834
0.023624834
0.023757967
0.023757967
0.023798084
0.023488378
0.023488378
0.023643237
0.023796358
)
;
    }
    procBoundary3to4
    {
        type            processor;
        value           nonuniform List<scalar> 
57
(
0.022047509
0.022026574
0.022008249
0.021994072
0.02198484
0.021981165
0.021981165
0.021805565
0.021794484
0.021794309
0.021806979
0.021833888
0.021875815
0.021931996
0.022000081
0.022076333
0.022156582
0.022236707
0.022313019
0.022313019
0.022460648
0.022514056
0.022539913
0.022536931
0.02250518
0.022448938
0.022381655
0.022333683
0.022333683
0.022044616
0.022039938
0.022107843
0.02221612
0.022304487
0.022294779
0.022128964
0.022128964
0.021965782
0.02176777
0.021759477
0.021984432
0.021984432
0.022355432
0.022433478
0.022222851
0.022222851
0.021861584
0.02197342
0.022323281
0.022323281
0.022931549
0.022059277
0.022059277
0.020292349
0.01993707
0.01993707
0.020031705
)
;
    }
    procBoundary3to10
    {
        type            processor;
        value           nonuniform List<scalar> 
23
(
0.024551813
0.024631792
0.024590897
0.02443912
0.024166827
0.023795878
0.023457972
0.023160977
0.022674189
0.022878242
0.022674189
0.024667259
0.024638686
0.02449463
0.024248144
0.023946118
0.023651973
0.023507703
0.02351601
0.02344911
0.023213507
0.022804533
0.02237001
)
;
    }
    procBoundary3to11
    {
        type            processor;
        value           uniform 0.022065983;
    }
}


// ************************************************************************* //
