/*--------------------------------*- C++ -*----------------------------------*\
| =========                 |                                                 |
| \\      /  F ield         | OpenFOAM: The Open Source CFD Toolbox           |
|  \\    /   O peration     | Version:  2506                                  |
|   \\  /    A nd           | Website:  www.openfoam.com                      |
|    \\/     M anipulation  |                                                 |
\*---------------------------------------------------------------------------*/
FoamFile
{
    version     2.0;
    format      ascii;
    arch        "LSB;label=32;scalar=64";
    class       volScalarField;
    location    "0.002";
    object      Co;
}
// * * * * * * * * * * * * * * * * * * * * * * * * * * * * * * * * * * * * * //

dimensions      [0 0 0 0 0 0 0];

internalField   nonuniform List<scalar> 
192657
(
0.0020693081
0.0022299731
0.0024019774
0.0025858044
0.0027820458
0.0029912762
0.0032140634
0.0034509551
0.0037024705
0.0039690919
0.0042512553
0.0045493408
0.0048636602
0.0051944474
0.005541847
0.005905904
0.0062865525
0.0066836068
0.0070967535
0.0075255433
0.0079693877
0.0084275555
0.0088991722
0.0093832249
0.0098785657
0.010383921
0.010897906
0.011419036
0.011945748
0.012476412
0.013009364
0.013542924
0.014075382
0.014604085
0.015120387
0.015600072
0.015989956
0.016224303
0.016366153
0.01677741
0.017556056
0.018261671
0.018640489
0.018887308
0.01937408
0.019895781
0.020284412
0.020661101
0.021050966
0.021438492
0.021808948
0.02217321
0.022518251
0.022854977
0.023193104
0.02350859
0.023841108
0.02415032
0.024453076
0.024766958
0.025045839
0.0253301
0.025618754
0.025892443
0.026157762
0.026425293
0.026693344
0.02695445
0.027210017
0.027465555
0.02771237
0.027934087
0.028123061
0.028291089
0.028443107
0.028593521
0.028752014
0.028916388
0.029085454
0.029256374
0.029424548
0.029593288
0.029761124
0.029925185
0.030087437
0.030248643
0.030409087
0.03057009
0.030733777
0.030900925
0.031072611
0.031250267
0.031435213
0.031628012
0.031828809
0.032038174
0.03225676
0.032484906
0.032723385
0.032973663
0.033237804
0.033515942
0.033803724
0.034091181
0.034366765
0.034607621
0.03482288
0.034958506
0.034938722
0.034741266
0.034483921
0.034192828
0.033870861
0.03352939
0.033175799
0.032814839
0.032448338
0.032078005
0.031705587
0.03133053
0.03095246
0.030569954
0.030181123
0.029783988
0.02937696
0.028955926
0.028519711
0.028063048
0.027582338
0.027074507
0.026531578
0.025948922
0.025322858
0.02464415
0.023903922
0.023093865
0.022204782
0.021225806
0.020143172
0.018937003
0.017580566
0.016042642
0.014281045
0.012257712
0.0099911591
0.0076030465
0.0052547756
0.0030415078
0.00099463649
0.0019999013
0.0021557233
0.0023226312
0.0025011113
0.002691759
0.0028951552
0.0031118781
0.0033424888
0.0035875241
0.0038474891
0.0041228468
0.0044140085
0.004721324
0.0050450699
0.0053854392
0.0057425292
0.0061163324
0.006506726
0.0069134614
0.0073361586
0.0077742988
0.0082272216
0.0086941239
0.0091740591
0.0096659434
0.010168563
0.010680583
0.011200563
0.011726971
0.012258206
0.012792614
0.013328513
0.013864187
0.014396992
0.014918371
0.015404423
0.015802399
0.016046083
0.016195252
0.016609935
0.017393911
0.018108427
0.018498089
0.018753823
0.019245948
0.019775889
0.020174651
0.020559461
0.020956689
0.021352164
0.021729779
0.022100887
0.022453732
0.02279682
0.023141046
0.023462178
0.023799939
0.024114697
0.024421181
0.024740082
0.025023126
0.02531006
0.025602433
0.025879741
0.026148417
0.0264172
0.02668629
0.026949408
0.02720617
0.027462989
0.027708688
0.027932157
0.028123159
0.028291683
0.028442081
0.028589015
0.028742843
0.028901147
0.029062855
0.029225907
0.029385911
0.029545918
0.029704434
0.029858321
0.030008978
0.030156538
0.030301523
0.030444766
0.030587766
0.03073055
0.030874169
0.031019946
0.031168597
0.03131971
0.031472873
0.031628243
0.031785811
0.03194485
0.032104351
0.032262828
0.032419328
0.032574602
0.032732165
0.03289762
0.033076236
0.033251981
0.033433555
0.033590571
0.033627888
0.033500739
0.033353047
0.033200116
0.033038272
0.032867196
0.032686229
0.03249522
0.032292716
0.032078854
0.03185502
0.031620648
0.031375583
0.031118763
0.030848799
0.03056435
0.03026468
0.029946168
0.029608945
0.029248208
0.028861414
0.028446825
0.02799623
0.027505754
0.026972657
0.026385729
0.025733176
0.025002153
0.024176128
0.023233565
0.022150421
0.020892462
0.019416165
0.017679268
0.01563316
0.013252866
0.010604031
0.0078733315
0.0052786435
0.0029483266
0.00093130005
0.0019328635
0.0020839677
0.0022459071
0.0024191669
0.0026043452
0.0028020283
0.0030128021
0.0032372392
0.0034758926
0.0037292866
0.0039979095
0.0042822019
0.0045825476
0.0048992638
0.0052325887
0.0055826705
0.005949557
0.0063331848
0.0067333705
0.0071498008
0.0075820269
0.0080294592
0.0084913639
0.0089668647
0.0094549435
0.009954448
0.010464099
0.010982504
0.011508171
0.012039525
0.012574931
0.013112714
0.013651157
0.01418764
0.014713721
0.01520581
0.015611623
0.015864494
0.016020877
0.016438373
0.017227332
0.017950469
0.018351011
0.018615668
0.019113093
0.019651234
0.020060076
0.020453088
0.020857892
0.02126126
0.021646259
0.022024342
0.022385091
0.022734813
0.023085423
0.023412529
0.023755587
0.024076049
0.024386861
0.024710799
0.024998195
0.025288784
0.025585023
0.025865538
0.0261381
0.026409046
0.026679669
0.026943898
0.027200545
0.027459163
0.02770744
0.027933805
0.028128512
0.028299123
0.028449066
0.028592209
0.028740231
0.028891969
0.029047218
0.029204061
0.029358048
0.029510432
0.029660528
0.02980549
0.029945747
0.030080841
0.03021123
0.03033783
0.030461269
0.030581811
0.030700324
0.030817913
0.030934969
0.031050997
0.031165552
0.031278351
0.03138875
0.031495506
0.031597638
0.031694783
0.031787083
0.031873216
0.031948159
0.032002024
0.032020145
0.032011909
0.032008911
0.031987015
0.031826501
0.031503867
0.031154934
0.030793578
0.030421274
0.030040587
0.029654258
0.029265009
0.02887426
0.02848356
0.02809401
0.027704673
0.02731439
0.026921702
0.026524989
0.026122607
0.025713048
0.025293692
0.024863091
0.024418055
0.023955957
0.023474304
0.022968369
0.02243445
0.02186894
0.021265485
0.020617121
0.019916043
0.019152755
0.018315316
0.017389053
0.016353248
0.015179685
0.01383253
0.012269217
0.010462725
0.0084551666
0.0063833782
0.0043889479
0.0025340733
0.00082427556
0.0018681131
0.0020146269
0.002171723
0.0023398894
0.0025197229
0.0027118142
0.0029167559
0.0031351303
0.0033675035
0.0036144181
0.0038763837
0.0041538683
0.0044472886
0.0047569985
0.0050832782
0.0054263241
0.0057862372
0.0061630121
0.0065565267
0.0069665341
0.0073926547
0.0078343682
0.0082910121
0.00876178
0.0092457222
0.0097417491
0.010248641
0.010765058
0.011289549
0.011820577
0.012356529
0.012895741
0.013436501
0.013976217
0.014506561
0.015004226
0.015417389
0.015679066
0.015842578
0.016263029
0.017057086
0.017788342
0.018198994
0.018472752
0.018975912
0.019521894
0.019940632
0.02034192
0.020754397
0.021165658
0.021558167
0.021943319
0.022312081
0.022668667
0.023025755
0.023358985
0.023707367
0.024033933
0.024349078
0.024678187
0.024970691
0.025264629
0.025564501
0.025849093
0.026125986
0.026399302
0.026671286
0.026936598
0.027194575
0.027455595
0.027706311
0.027934136
0.028131702
0.028304375
0.028454834
0.028596196
0.028740589
0.028887896
0.029037827
0.029188069
0.02933464
0.029478645
0.029619657
0.029755457
0.029885546
0.030009245
0.030126783
0.030239236
0.030346361
0.030448416
0.030546283
0.030640766
0.030731869
0.030818929
0.030901574
0.03097964
0.031052568
0.031119341
0.031179128
0.031231245
0.031275612
0.031313546
0.031349212
0.03138953
0.031442682
0.031511702
0.031572908
0.0315851
0.031442985
0.031142319
0.030814543
0.030475432
0.030126272
0.029769361
0.029406866
0.029041022
0.028673224
0.028304568
0.02793525
0.027563883
0.027189583
0.026811275
0.026427757
0.026037716
0.025639918
0.025231993
0.02481275
0.024379254
0.023929188
0.023460371
0.022968255
0.022449414
0.021900505
0.02131509
0.020685864
0.020004406
0.019260156
0.018439661
0.017526621
0.016498332
0.015324257
0.013967472
0.012385548
0.01055322
0.0085162142
0.0064138779
0.0043915806
0.0025200772
0.00081455888
0.0018055704
0.0019476206
0.0020999981
0.0022631961
0.0024378093
0.0026244316
0.0028236598
0.0030360844
0.0032622833
0.0035028145
0.0037582075
0.0040289549
0.0043155024
0.0046182378
0.0049374824
0.0052734781
0.0056263756
0.005996225
0.0063829652
0.0067864125
0.0072062537
0.0076420393
0.0080931777
0.0085589324
0.0090384231
0.0095306272
0.010034385
0.010548412
0.011071308
0.011601571
0.012137621
0.01267781
0.013220435
0.013762942
0.014297131
0.014800023
0.015220335
0.015490748
0.01566119
0.016083868
0.016882098
0.017621486
0.018042554
0.018325426
0.018833813
0.019387622
0.019816413
0.020226067
0.020646225
0.02106541
0.02146558
0.021857949
0.022234948
0.022598648
0.022962386
0.023301916
0.023655795
0.023988666
0.024308442
0.024643316
0.024940847
0.025238471
0.025543035
0.025831736
0.026112289
0.026388728
0.02666294
0.026930254
0.027189769
0.027451447
0.027704104
0.027934529
0.028137091
0.028314237
0.02846699
0.028607593
0.028747937
0.028889574
0.029032977
0.029176449
0.029316687
0.029454038
0.029587934
0.029716918
0.029839517
0.029954774
0.030062805
0.030164266
0.030258187
0.030345414
0.030426434
0.030501907
0.030572075
0.030636826
0.030696022
0.030749376
0.030796416
0.030836512
0.030869356
0.03089523
0.030914598
0.030926016
0.030925583
0.03091046
0.030878843
0.030839412
0.030811851
0.030773529
0.030610565
0.030287783
0.029930365
0.029561448
0.029183667
0.028800072
0.028413168
0.028024904
0.027636308
0.027247616
0.026858867
0.026469485
0.026078784
0.025685857
0.025289618
0.02488883
0.024482195
0.024067765
0.023644155
0.023209026
0.022760128
0.022295196
0.021810615
0.021303075
0.02076922
0.020203921
0.019601176
0.018953778
0.01825254
0.017485327
0.016636273
0.015682881
0.014593672
0.013328864
0.011843512
0.010110293
0.0081729914
0.006168047
0.0042350153
0.0024389922
0.00079044357
0.0017451651
0.0018828726
0.0020306552
0.0021890095
0.0023585268
0.002539803
0.0027334377
0.002940028
0.0031601616
0.0033944095
0.003643319
0.0039074049
0.0041871401
0.0044829451
0.0047951775
0.0051241209
0.0054699749
0.0058328427
0.00621272
0.0066094859
0.0070228934
0.0074525612
0.0078979677
0.0083584478
0.0088331904
0.0093212407
0.0098215054
0.010332757
0.010853646
0.011382717
0.011918422
0.012459139
0.013003177
0.013548023
0.014085609
0.014593263
0.015020209
0.015298902
0.015476146
0.015901054
0.016703657
0.017450878
0.017881532
0.018173422
0.018687357
0.019248835
0.019687353
0.020105387
0.020533307
0.020960384
0.02136833
0.021767964
0.022153321
0.022524378
0.022894881
0.023240818
0.023600225
0.023939532
0.024264363
0.024604739
0.024907692
0.025209581
0.025518587
0.025811127
0.026096274
0.026376562
0.026652871
0.026921615
0.027181935
0.02744508
0.027701868
0.027936702
0.028142873
0.028323446
0.028477334
0.028616913
0.028753959
0.028891462
0.029030617
0.029169669
0.029305297
0.029437737
0.029565589
0.029688145
0.029803185
0.029909614
0.030007677
0.030097532
0.0301786
0.03025128
0.030317007
0.030375902
0.030428251
0.030474378
0.030514637
0.030549155
0.030577525
0.030599187
0.030614113
0.030622643
0.030625949
0.03062671
0.030629957
0.030641444
0.030662003
0.030682614
0.030687298
0.030641889
0.030472397
0.03014345
0.029776327
0.029400042
0.029016612
0.02862862
0.028238293
0.027847296
0.027456345
0.027065521
0.026674841
0.026283828
0.025891839
0.025498007
0.025101238
0.024700292
0.02429396
0.023880615
0.023459108
0.023027217
0.022582661
0.022123053
0.021644756
0.021144285
0.020617933
0.020060278
0.019464812
0.018823734
0.018127239
0.017362779
0.01651446
0.015560338
0.014470392
0.01320641
0.011725168
0.01000083
0.0080782169
0.0060930721
0.0041819969
0.0024074667
0.0007795626
0.0016868247
0.0018203062
0.0019636175
0.0021172513
0.0022817968
0.0024578494
0.0026460114
0.0028468841
0.0030610634
0.0032891325
0.0035316538
0.0037891616
0.0040621532
0.0043510785
0.0046563297
0.0049782308
0.0053170264
0.0056728697
0.0060458123
0.0064357934
0.0068426297
0.0072660072
0.0077054744
0.0081604361
0.0086301526
0.0091137385
0.0096101648
0.010118267
0.010636754
0.011164214
0.01169914
0.01223994
0.012784944
0.01333168
0.013872234
0.014384275
0.014817618
0.015104524
0.015288388
0.0157149
0.016520724
0.01727571
0.017716269
0.018017226
0.018536208
0.019105135
0.0195535
0.019979978
0.020415679
0.020850661
0.021266517
0.021673534
0.02206735
0.02244602
0.022823444
0.023176056
0.023541145
0.023887242
0.024217215
0.024563442
0.024872327
0.025178383
0.025492167
0.025789533
0.026079415
0.026363323
0.026642144
0.026913018
0.027175297
0.027440605
0.027699971
0.027937655
0.028147518
0.028332812
0.02849049
0.02863214
0.028768426
0.028902957
0.029037885
0.029171685
0.02930146
0.029427363
0.029548214
0.029664008
0.029772537
0.029872625
0.02996434
0.030047053
0.030120535
0.030185082
0.030241966
0.03029114
0.030333061
0.03036867
0.030398434
0.030422317
0.030440096
0.03045187
0.030458149
0.030459457
0.030455757
0.030445779
0.030427633
0.030400124
0.030363119
0.030325317
0.030297486
0.030263889
0.030134113
0.029831592
0.029470031
0.029093291
0.028705694
0.028310339
0.027909814
0.02750614
0.027100759
0.026694667
0.026288539
0.025882639
0.025476917
0.025071034
0.024664289
0.024255701
0.023844128
0.023427972
0.023005493
0.022574307
0.022132027
0.021676277
0.021203882
0.020711471
0.020195357
0.019650495
0.019070589
0.018447898
0.017772732
0.01703251
0.01621089
0.01528563
0.014226276
0.012993776
0.011544343
0.0098519122
0.0079611959
0.0060074915
0.0041259385
0.002377681
0.00077053449
0.0016304788
0.00175985
0.0018988117
0.0020478472
0.0022075439
0.0023784961
0.0025613064
0.0027565803
0.0029649195
0.0031869165
0.0034231479
0.0036741657
0.0039404889
0.0042225944
0.0045209065
0.0048357865
0.0051675209
0.0055163114
0.0058822626
0.0062653712
0.0066655162
0.0070824494
0.0075157871
0.0079650059
0.0084294363
0.0089082627
0.0094005255
0.0099051226
0.01042082
0.010946263
0.011479986
0.012020432
0.012565955
0.013114131
0.013657202
0.014173164
0.014612402
0.014907015
0.015097293
0.015525277
0.016334553
0.017097026
0.017546905
0.017856521
0.018380664
0.018957017
0.019414908
0.01984975
0.020293268
0.020736163
0.021160003
0.021574455
0.021976783
0.022363226
0.022747694
0.023107068
0.023477948
0.023830904
0.024166321
0.024518563
0.024833291
0.025144006
0.025463247
0.025764888
0.026058804
0.026347505
0.026629498
0.026902554
0.027166701
0.027433194
0.027694934
0.02793811
0.028153104
0.028343764
0.028505106
0.028648081
0.02878249
0.028912887
0.029042719
0.029171731
0.029297766
0.029420083
0.029537479
0.029649418
0.029753864
0.029849539
0.029936222
0.030012937
0.030079468
0.030136527
0.030184841
0.030224926
0.030257179
0.03028303
0.03030335
0.030318351
0.0303278
0.03033173
0.030330632
0.030325385
0.030317477
0.030309505
0.030304032
0.030300887
0.03030283
0.030325608
0.030369132
0.030407737
0.030338179
0.030051459
0.029670094
0.029264079
0.028840429
0.0284035
0.027956802
0.027503311
0.027045349
0.026600232
0.026183455
0.025780285
0.025377007
0.024973008
0.024567471
0.024159393
0.023747622
0.023330617
0.02290663
0.022473781
0.022030025
0.021573119
0.021099978
0.020607073
0.020090442
0.019545014
0.018964671
0.018341996
0.017667502
0.016928832
0.016109889
0.015188718
0.014135056
0.012909687
0.011468702
0.0097859848
0.0079065026
0.0059656124
0.0040973988
0.0023636721
0.00076745095
0.0015760589
0.0017014352
0.0018361664
0.0019807243
0.0021356943
0.0023016682
0.0024792488
0.0026690428
0.0028716571
0.0030876925
0.0033177369
0.0035623578
0.0038220941
0.0040974469
0.0043888706
0.0046967603
0.005021443
0.0053631655
0.0057220825
0.0060982467
0.0064915967
0.0069019483
0.0073289864
0.0077722558
0.0082311583
0.0087049495
0.0091927373
0.0096934881
0.01020603
0.010729061
0.011261166
0.011800827
0.012346428
0.0128956
0.013440751
0.013960237
0.01440508
0.014707312
0.01490386
0.015332753
0.016144299
0.016913952
0.017373355
0.017691841
0.01822067
0.018804182
0.019271557
0.019714854
0.020166202
0.020617002
0.021048936
0.021470909
0.02188184
0.022276305
0.022667953
0.023034286
0.023411065
0.023771156
0.024112364
0.024470572
0.024791759
0.025107484
0.025432035
0.025738217
0.026037292
0.026331415
0.026616096
0.026891533
0.027158021
0.027426407
0.027691567
0.027940436
0.02815917
0.028353801
0.028518712
0.028664469
0.028799684
0.028929384
0.029057198
0.029183884
0.029307362
0.029425804
0.02953906
0.029646391
0.029746144
0.029837205
0.029919258
0.02999103
0.030052317
0.03010455
0.030147856
0.030182591
0.030209721
0.030230701
0.03024665
0.030257521
0.030263344
0.030274086
0.030308348
0.030358956
0.030409533
0.030462333
0.030519692
0.030581503
0.030645454
0.030706924
0.030757549
0.030785146
0.03071673
0.030442001
0.030061112
0.029656847
0.029236192
0.02880228
0.028358355
0.027907091
0.027450415
0.026989919
0.026526943
0.026062475
0.025597178
0.025131417
0.024665295
0.024198661
0.023731108
0.023261816
0.022789566
0.022312929
0.021843133
0.021379366
0.020902827
0.020407745
0.019890383
0.019346309
0.018769778
0.018153401
0.017487625
0.016759933
0.015953876
0.015047329
0.014009867
0.012801798
0.011378795
0.0097143
0.0078525576
0.0059283026
0.004079042
0.0023601716
0.00076735261
0.0015234986
0.0016449953
0.0017756117
0.0019158111
0.0020661755
0.0022272932
0.002399765
0.0025841991
0.0027812058
0.0029913919
0.0032153551
0.0034536765
0.0037069128
0.0039755877
0.0042601814
0.0045611217
0.0048787728
0.005213424
0.0055652781
0.0059344404
0.006320908
0.0067245594
0.0071451437
0.007582275
0.0080354264
0.0085039235
0.0089869453
0.0094835255
0.0099925554
0.010512795
0.011042879
0.011581334
0.012126579
0.012676304
0.013223085
0.013745633
0.014195589
0.014504932
0.014707467
0.015137064
0.015951046
0.016727689
0.017196111
0.017522846
0.018056311
0.018647129
0.019123654
0.019575204
0.020034435
0.020493152
0.020933203
0.021362743
0.021782239
0.022184847
0.022583798
0.022957267
0.023340022
0.023707378
0.024054372
0.024418863
0.024746606
0.025067347
0.025397692
0.025708906
0.026012718
0.02631179
0.026599986
0.026878739
0.02714778
0.027418093
0.027685879
0.027939425
0.028162298
0.028362619
0.028533415
0.028683753
0.02882057
0.028949045
0.029073217
0.029195755
0.02931539
0.029429917
0.029539774
0.029643585
0.029740388
0.029829259
0.029909636
0.029979697
0.030039343
0.030089751
0.030130912
0.030162891
0.030187471
0.030223853
0.030280948
0.030341542
0.030400613
0.030458819
0.03051648
0.030573064
0.030627098
0.030676658
0.030720681
0.030760917
0.030802291
0.030852118
0.030909722
0.030964025
0.030942482
0.030714542
0.030352709
0.029959236
0.029546351
0.029118301
0.028678707
0.028230528
0.027775933
0.027316449
0.026853247
0.02638711
0.025918563
0.025447817
0.024974819
0.024499354
0.024021119
0.023539526
0.023053927
0.022563251
0.022066111
0.021560751
0.02104475
0.020514978
0.019967744
0.019398488
0.018801287
0.018168521
0.017490473
0.016756754
0.015950175
0.015044387
0.014007991
0.012801199
0.011379498
0.0097173111
0.0078595865
0.0059398153
0.0040894226
0.0023645183
0.00076812873
0.0014727322
0.001590465
0.0017170801
0.0018530386
0.0019989168
0.0021552987
0.0023227831
0.0025019775
0.0026934943
0.0028979454
0.0031159365
0.0033480602
0.0035948888
0.0038569652
0.0041347949
0.0044288355
0.0047394854
0.0050670737
0.0054118488
0.0057739668
0.0061534799
0.0065503264
0.0069643211
0.007395145
0.0078423396
0.0083053025
0.008783284
0.0092753856
0.0097805667
0.010297647
0.010825318
0.011362156
0.01190662
0.012456459
0.013004435
0.013529634
0.013984378
0.014300708
0.014509096
0.014938862
0.015754306
0.016537349
0.017014796
0.017350114
0.017887882
0.018485504
0.018971095
0.019431007
0.019898099
0.020364715
0.020812955
0.021250111
0.021678183
0.022089099
0.022495528
0.022876349
0.02326531
0.023639997
0.023993255
0.024364021
0.024698569
0.025024957
0.025361501
0.025677489
0.025986014
0.026291314
0.026583721
0.026865591
0.027137369
0.027409604
0.027680176
0.027939413
0.028168265
0.028374149
0.028550112
0.028704134
0.028842513
0.028970754
0.029093256
0.029214011
0.02933258
0.029446294
0.029554855
0.029657603
0.029752754
0.029840057
0.029918877
0.029987296
0.030045309
0.030094168
0.03015898
0.03024156
0.030317609
0.030389424
0.030457834
0.030523804
0.030587845
0.030650528
0.030712508
0.030774558
0.030837724
0.030903325
0.03097219
0.031043019
0.03111297
0.031180144
0.031241342
0.031288722
0.031271896
0.031065653
0.030710029
0.030318889
0.029908327
0.029482111
0.029043776
0.028596307
0.028141677
0.027681414
0.027216761
0.026748374
0.026276827
0.025802441
0.025325234
0.024844939
0.024361148
0.02387304
0.023379825
0.022880208
0.022372688
0.021855517
0.021326242
0.020782003
0.020219447
0.019634154
0.01902042
0.018370865
0.017675915
0.016922992
0.016095507
0.015170984
0.014118387
0.012897186
0.011461961
0.009785056
0.007910461
0.0059740507
0.0041095489
0.002373832
0.00077039031
0.0014237026
0.0015377806
0.0016605062
0.0017923395
0.0019338498
0.002085616
0.0022482335
0.0024223085
0.0026084542
0.002807286
0.0030194159
0.0032454464
0.0034859633
0.0037415277
0.0040126669
0.0042998653
0.0046035537
0.0049240988
0.0052617914
0.0056168356
0.0059893373
0.0063792924
0.0067865772
0.0072109398
0.0076519907
0.0081091975
0.0085818808
0.0090692143
0.0095702239
0.010083794
0.010608676
0.011143496
0.011686761
0.012236285
0.012785013
0.013312408
0.013771459
0.014094253
0.014308133
0.014737844
0.015554774
0.016344089
0.016830168
0.01717326
0.017715222
0.018319889
0.018814189
0.01928218
0.019757148
0.020231643
0.020688081
0.021132857
0.021569451
0.021988758
0.022402769
0.022791099
0.023186317
0.023568473
0.023928096
0.024305198
0.024646929
0.02497902
0.025321794
0.025642916
0.02595663
0.026268019
0.026564235
0.026849706
0.027125189
0.02739962
0.027673273
0.027937744
0.028171726
0.028381967
0.028563462
0.028722548
0.02886498
0.028995508
0.02911831
0.029237993
0.029354717
0.029465969
0.029571669
0.0296718
0.029764236
0.029849567
0.029927236
0.030002485
0.030097255
0.030205842
0.030304831
0.030394537
0.030476752
0.030553891
0.030626845
0.030696782
0.030764693
0.030831491
0.030897619
0.030962677
0.031025499
0.031084686
0.031139736
0.031192646
0.031247809
0.031310262
0.031378763
0.03144606
0.031465504
0.031307021
0.030974544
0.030594782
0.030193117
0.02977422
0.029341981
0.02889963
0.028449326
0.027992605
0.027530558
0.027063664
0.026592277
0.026116621
0.025636818
0.025152773
0.024664218
0.024170376
0.023670608
0.023163657
0.022648092
0.02212224
0.021583564
0.021029188
0.020455817
0.019858943
0.019232776
0.01856996
0.017860992
0.017093385
0.01625066
0.015310418
0.014241684
0.013003993
0.011551793
0.0098572855
0.0079646623
0.0060110303
0.0041319077
0.0023850302
0.00077356108
0.001376353
0.0014868779
0.0016058267
0.0017336488
0.0018709076
0.0020181766
0.002176047
0.0023451226
0.0025260165
0.0027193459
0.0029257279
0.0031457729
0.0033800787
0.0036292219
0.0038937497
0.0041741712
0.0044709468
0.0047844781
0.0051150962
0.0054630503
0.005828497
0.0062114881
0.0066119607
0.0070297266
0.0074644639
0.00791571
0.0083828573
0.0088651493
0.0093616818
0.009871406
0.010393134
0.010925549
0.011467207
0.012015992
0.012565041
0.013094214
0.013557221
0.013886305
0.014105573
0.014534697
0.015352289
0.016147028
0.016641773
0.016992874
0.017538838
0.01814992
0.018652797
0.019128904
0.019611753
0.020094096
0.020558745
0.021011202
0.021456309
0.021884134
0.022305921
0.022701957
0.023103557
0.023493359
0.023859589
0.024243384
0.0245924
0.024930653
0.025280084
0.025606537
0.025925421
0.026242984
0.026544299
0.026834383
0.027113328
0.027389556
0.027666088
0.027935444
0.028175585
0.028391902
0.028580547
0.028746221
0.028893413
0.029025811
0.02914781
0.029265507
0.029380265
0.029490386
0.029595682
0.029695683
0.029788348
0.029874747
0.029967564
0.030082854
0.03020728
0.03032274
0.030428347
0.030524531
0.030612707
0.030695181
0.030773239
0.030847378
0.030918915
0.03098887
0.031058352
0.031128442
0.031200302
0.031274802
0.031351779
0.031429239
0.031504628
0.031577525
0.031647512
0.031709246
0.03173211
0.031600231
0.031283218
0.03090883
0.030511507
0.030096059
0.029666449
0.029226054
0.028777124
0.028321301
0.027859765
0.027392916
0.026921003
0.026444033
0.025961877
0.025474396
0.024981396
0.024482118
0.023976001
0.023461774
0.022938069
0.022403334
0.021855039
0.021290409
0.020706271
0.020098114
0.019460154
0.018785059
0.018063308
0.017282322
0.01642561
0.015470641
0.014386271
0.013131977
0.011662001
0.0099481858
0.0080349491
0.0060608099
0.0041632028
0.0024009786
0.00077802952
0.0013306231
0.0014376986
0.0015529799
0.0016769028
0.001810025
0.0019529141
0.0021061564
0.0022703523
0.0024461133
0.0026340579
0.0028348067
0.0030489766
0.0032771748
0.003519992
0.0037779935
0.0040517104
0.0043416304
0.0046481869
0.0049717489
0.0053126088
0.0056709711
0.006046941
0.0064405138
0.0068515635
0.0072798348
0.0077249343
0.008186324
0.0086633193
0.0091550865
0.0096606446
0.01017887
0.010708506
0.01124816
0.011795792
0.012344732
0.012875239
0.013341732
0.013676632
0.013900877
0.014329129
0.015147178
0.015947502
0.016450398
0.016808789
0.0173584
0.017976084
0.018487305
0.018971256
0.019461942
0.019952061
0.020424877
0.02088501
0.021338558
0.021774938
0.022204562
0.022608458
0.023016594
0.023414015
0.023787147
0.02417747
0.024534051
0.024878714
0.025234841
0.025566866
0.025891003
0.026215111
0.026521841
0.026816032
0.027098718
0.027377654
0.027657652
0.027932259
0.028179016
0.028401205
0.028595477
0.028766315
0.028918058
0.029053709
0.029177569
0.029296236
0.029411235
0.029521833
0.029627654
0.029727147
0.029819849
0.029918867
0.03004343
0.030181739
0.030313581
0.030437137
0.030550989
0.030655211
0.030751453
0.030841279
0.030926233
0.031007035
0.031085009
0.031161246
0.031236234
0.03130977
0.031381233
0.031449904
0.031515829
0.031580967
0.0316487
0.031722248
0.031801688
0.031880019
0.0319299
0.031842916
0.031554972
0.031191666
0.030802352
0.030393449
0.029969296
0.029533532
0.029088562
0.028636116
0.028177422
0.027712836
0.027242481
0.026766189
0.026283689
0.025794666
0.025298902
0.024795647
0.024284438
0.023764002
0.023233021
0.022690035
0.022132507
0.021557736
0.020962677
0.02034284
0.019692491
0.01900433
0.018268906
0.017473753
0.016602414
0.015632309
0.014532198
0.013261445
0.011773995
0.010041271
0.0081076115
0.0061128296
0.0041965903
0.0024189525
0.000783544
0.001286454
0.0013901879
0.0015019061
0.0016220394
0.0017511383
0.0018897631
0.0020384947
0.0021979298
0.0023686774
0.0025513554
0.0027465867
0.0029549935
0.0031771912
0.0034137819
0.0036653468
0.0039324373
0.0042155657
0.0045151957
0.0048317308
0.0051655036
0.0055167644
0.0058856697
0.0062722701
0.0066765009
0.0070981706
0.0075369537
0.0079923829
0.0084638444
0.0089505751
0.0094516636
0.0099660535
0.010492548
0.011029813
0.011575888
0.0121243
0.012655723
0.01312533
0.013465833
0.013695005
0.014121845
0.014939725
0.015744586
0.016255582
0.016621399
0.017174599
0.017798263
0.018317588
0.018809363
0.019307893
0.019805665
0.020286649
0.020754514
0.021216413
0.021661455
0.022099054
0.022511057
0.022925842
0.023331064
0.023711324
0.024108436
0.024472913
0.02482421
0.025187438
0.025525427
0.025854964
0.026185676
0.026498086
0.026797326
0.02708463
0.027366223
0.02764927
0.027928911
0.02818202
0.028410336
0.028611321
0.028789289
0.02894806
0.02908906
0.029216014
0.029335714
0.029450044
0.029559651
0.029664484
0.029763247
0.029860839
0.02998225
0.030127764
0.030269849
0.030406543
0.030535618
0.03065509
0.030764745
0.030865864
0.030960112
0.031048575
0.031132424
0.031212726
0.031290952
0.031368282
0.031446047
0.031525542
0.0316075
0.031691311
0.031774944
0.031856311
0.031934727
0.032012436
0.032085959
0.032136806
0.032074584
0.03181109
0.031456526
0.031074006
0.030670912
0.030251611
0.029819951
0.029378535
0.028929263
0.028473464
0.028011487
0.027543428
0.027069015
0.02658777
0.026099161
0.025602738
0.025097646
0.02458347
0.024058929
0.023522751
0.022973519
0.022408673
0.02182562
0.021221395
0.020591498
0.019930249
0.01923044
0.018482649
0.017674395
0.016789314
0.015804771
0.014689402
0.013402487
0.011897614
0.010145592
0.0081905591
0.0061735166
0.0042362755
0.0024402533
0.0007898977
0.001243796
0.0013442901
0.0014525475
0.001568999
0.0016941856
0.0018286605
0.0019729981
0.0021277903
0.0022936429
0.0024711727
0.0026610035
0.0028637609
0.0030800672
0.0033105343
0.0035557571
0.0038163052
0.0040927135
0.0043854728
0.004695019
0.0050217229
0.0053658776
0.005727688
0.0061072588
0.006504583
0.0069195325
0.0073518475
0.0078011299
0.0082668369
0.0087482775
0.0092446103
0.0097548461
0.010277854
0.010812358
0.011356483
0.011903952
0.012435862
0.012908132
0.013253775
0.013487395
0.013912602
0.014729838
0.015539517
0.016058091
0.016430879
0.01698705
0.017616718
0.018144116
0.018643367
0.019149564
0.019654898
0.020143976
0.020619571
0.021089703
0.021543441
0.021989065
0.022409273
0.022830789
0.023243927
0.023631503
0.02403552
0.024407852
0.024766175
0.02513661
0.02548055
0.025815637
0.026153058
0.026471972
0.02677659
0.027068332
0.027352842
0.027639485
0.027924414
0.028184008
0.028419159
0.028627001
0.028812079
0.028977594
0.029123395
0.029252967
0.029373682
0.029488461
0.029599186
0.029705754
0.029806672
0.029917832
0.030054152
0.030201869
0.030347483
0.030489028
0.030624186
0.030750601
0.030867458
0.03097558
0.031076655
0.031171742
0.03126235
0.031349474
0.031434172
0.031516928
0.03159777
0.031676581
0.031753289
0.031828486
0.031903969
0.031981982
0.032064227
0.032151713
0.032238955
0.032310643
0.032287884
0.03206133
0.0317207
0.03134672
0.030950168
0.030536028
0.03010858
0.029670713
0.029224547
0.028771556
0.02831212
0.027846312
0.027373775
0.0268939
0.026405982
0.025909424
0.025403136
0.024886601
0.024358515
0.023817639
0.023262603
0.022690819
0.022099715
0.021486447
0.020846562
0.020174408
0.019462796
0.018702407
0.017880842
0.016981755
0.015982494
0.014851601
0.013548223
0.012025599
0.010253936
0.0082770029
0.0062369856
0.0042781215
0.0024633083
0.00079709298
0.0012025965
0.0012999504
0.0014048477
0.001517723
0.0016391067
0.0017695439
0.0019096026
0.0020598689
0.0022209449
0.0023934449
0.0025779923
0.0027752154
0.0029857412
0.0032101905
0.00344917
0.0037032649
0.0039730305