/*--------------------------------*- C++ -*----------------------------------*\
| =========                 |                                                 |
| \\      /  F ield         | OpenFOAM: The Open Source CFD Toolbox           |
|  \\    /   O peration     | Version:  2506                                  |
|   \\  /    A nd           | Website:  www.openfoam.com                      |
|    \\/     M anipulation  |                                                 |
\*---------------------------------------------------------------------------*/
FoamFile
{
    version     2.0;
    format      ascii;
    arch        "LSB;label=32;scalar=64";
    class       volScalarField;
    location    "0.002";
    object      rho;
}
// * * * * * * * * * * * * * * * * * * * * * * * * * * * * * * * * * * * * * //

dimensions      [1 -3 0 0 0 0 0];

internalField   nonuniform List<scalar> 
192657
(
0.66509704
0.66515454
0.66507494
0.665071
0.66507056
0.66507055
0.66507055
0.66507055
0.66507055
0.66507055
0.66507055
0.66507055
0.66507055
0.66507055
0.66507055
0.66507055
0.66507055
0.66507055
0.66507055
0.66507055
0.66507055
0.66507055
0.66507055
0.66507055
0.66507055
0.66507055
0.66507055
0.66507055
0.66507055
0.66507054
0.66507053
0.66507119
0.66509059
0.66523811
0.66585939
0.66776169
0.67215982
0.67897158
0.68331913
0.68013354
0.6709988
0.66725738
0.67000988
0.67035737
0.66595084
0.66574697
0.66696616
0.66452608
0.66395869
0.66414969
0.66273015
0.66240392
0.6617953
0.66105641
0.6605578
0.65982151
0.65921807
0.65862316
0.65797122
0.65731926
0.65665378
0.6559826
0.65526599
0.65458716
0.65394831
0.65327467
0.65269478
0.65217874
0.65160752
0.65104414
0.65057846
0.65015412
0.64975663
0.64933148
0.64893304
0.64856926
0.64823537
0.64794444
0.64769247
0.64745996
0.64722749
0.64699377
0.64677038
0.6465662
0.64638015
0.64621094
0.64606488
0.64594344
0.64582897
0.64572445
0.64562288
0.64552525
0.64544755
0.64537162
0.64529622
0.64520951
0.64511334
0.64501737
0.64492345
0.64483278
0.64474872
0.64467343
0.64460618
0.64455785
0.64450815
0.64362165
0.64146153
0.63992241
0.63897533
0.63832191
0.6378336
0.63744975
0.63713672
0.63687469
0.63665234
0.63646216
0.63629832
0.63615627
0.63603247
0.63592373
0.63582741
0.63574136
0.63566378
0.6355932
0.63552804
0.63546654
0.63540725
0.6353489
0.63529034
0.63523045
0.63516806
0.63510391
0.63503766
0.63496871
0.63489625
0.63481847
0.63473154
0.63463122
0.63451734
0.63439386
0.63426355
0.63412781
0.63399056
0.6338598
0.63374749
0.6336643
0.63361222
0.63358498
0.63357477
0.66509744
0.6651545
0.66507498
0.66507099
0.66507056
0.66507055
0.66507055
0.66507055
0.66507055
0.66507055
0.66507055
0.66507055
0.66507055
0.66507055
0.66507055
0.66507055
0.66507055
0.66507055
0.66507055
0.66507055
0.66507055
0.66507055
0.66507055
0.66507055
0.66507055
0.66507055
0.66507055
0.66507055
0.66507055
0.66507054
0.66507053
0.66507114
0.66508995
0.66523516
0.66585
0.66773907
0.67212716
0.67895619
0.68338954
0.68025972
0.67114185
0.66732903
0.6700517
0.67045851
0.66607311
0.66582127
0.66704428
0.66465299
0.66405233
0.66424478
0.66285925
0.66250136
0.66192207
0.66117632
0.66067991
0.65995543
0.65935031
0.65876134
0.65810662
0.65745291
0.65678834
0.6561093
0.65539633
0.6547112
0.65407072
0.65339957
0.65281544
0.65229809
0.65173591
0.65116351
0.65068818
0.65025434
0.64985491
0.6494301
0.64902833
0.64865966
0.64831723
0.64801542
0.64775827
0.64752221
0.64728692
0.64705535
0.64683495
0.64663221
0.64644311
0.64627223
0.64612985
0.64600675
0.6458953
0.64578983
0.64569828
0.64561443
0.64554221
0.64548701
0.64542343
0.64536285
0.64529238
0.64522022
0.64515198
0.64508771
0.64503105
0.644982
0.64494208
0.64491429
0.64478011
0.64366541
0.64138145
0.63987113
0.63883479
0.63802619
0.63735696
0.63678492
0.63628626
0.63584525
0.63544927
0.63509479
0.63477816
0.634495
0.63423993
0.63400883
0.63379906
0.63360838
0.63343463
0.63327574
0.63312982
0.63299514
0.63287014
0.63275342
0.63264371
0.63253987
0.63244088
0.63234577
0.63225373
0.63216412
0.6320764
0.63199021
0.6319054
0.63182199
0.63174014
0.63166005
0.63158195
0.63150609
0.6314336
0.63136579
0.63130532
0.63125625
0.63122125
0.63119997
0.63119047
0.66509776
0.66515446
0.66507501
0.66507099
0.66507056
0.66507055
0.66507055
0.66507055
0.66507055
0.66507055
0.66507055
0.66507055
0.66507055
0.66507055
0.66507055
0.66507055
0.66507055
0.66507055
0.66507055
0.66507055
0.66507055
0.66507055
0.66507055
0.66507055
0.66507055
0.66507055
0.66507055
0.66507055
0.66507055
0.66507054
0.66507053
0.66507109
0.66508929
0.66523205
0.66584013
0.667715
0.6720913
0.67893278
0.68346494
0.68039173
0.6712905
0.66740266
0.67009294
0.6705633
0.66619593
0.66589477
0.6671234
0.66478091
0.6641473
0.66434007
0.66298878
0.66260078
0.66204843
0.66129822
0.66080289
0.66008819
0.65948386
0.65889787
0.65824212
0.65758814
0.65691716
0.65624024
0.6555234
0.65483196
0.65419768
0.65352766
0.65293382
0.65241562
0.65185692
0.65128312
0.65079631
0.65035583
0.64995244
0.6495266
0.64912119
0.64874634
0.64839435
0.64808312
0.64781917
0.64758022
0.64734501
0.64711662
0.64690242
0.64669862
0.64650641
0.64633786
0.64619697
0.64607475
0.64596853
0.64587211
0.64578048
0.64570711
0.64564936
0.64560052
0.64555821
0.64551059
0.6454601
0.64540867
0.64536176
0.64532316
0.64529369
0.64527442
0.64526957
0.64528485
0.64528957
0.64436379
0.64214521
0.64071839
0.63975849
0.63902284
0.63842165
0.63791144
0.63746857
0.63707835
0.63673101
0.63641964
0.63613925
0.63588635
0.63565927
0.63545621
0.63527428
0.63511067
0.63496287
0.63482866
0.63470608
0.63459338
0.63448898
0.63439151
0.63429974
0.63421259
0.63412909
0.63404834
0.63396953
0.6338919
0.63381467
0.63373711
0.63365851
0.63357823
0.63349583
0.6334112
0.63332469
0.63323738
0.63315062
0.63306753
0.6329936
0.63293506
0.63289478
0.63287121
0.63286102
0.66509804
0.66515443
0.66507503
0.66507099
0.66507056
0.66507055
0.66507055
0.66507055
0.66507055
0.66507055
0.66507055
0.66507055
0.66507055
0.66507055
0.66507055
0.66507055
0.66507055
0.66507055
0.66507055
0.66507055
0.66507055
0.66507055
0.66507055
0.66507055
0.66507055
0.66507055
0.66507055
0.66507055
0.66507055
0.66507054
0.66507053
0.66507105
0.66508869
0.66522918
0.66583117
0.6676936
0.67206049
0.67890939
0.68355063
0.68051638
0.67143172
0.66747424
0.67013866
0.67066557
0.66631501
0.66596959
0.66720266
0.66490774
0.66424455
0.66443544
0.66311713
0.66270234
0.66217469
0.66142054
0.66092756
0.66022162
0.65961827
0.65903577
0.65838065
0.65772118
0.65705397
0.65637066
0.65565096
0.65496062
0.65432538
0.65365629
0.6530566
0.65253588
0.65198288
0.65140609
0.6509087
0.65045876
0.6500495
0.64962547
0.64921727
0.64883539
0.64847618
0.64815659
0.64788331
0.647639
0.64740472
0.64718041
0.64696705
0.64676251
0.64657239
0.6464069
0.6462643
0.64614634
0.64604421
0.64595407
0.6458742
0.64580778
0.64576141
0.64572545
0.64569844
0.64567244
0.64564438
0.64561503
0.64558902
0.64556881
0.64555461
0.64555238
0.6455637
0.64557919
0.64553704
0.64469431
0.64245519
0.64098219
0.63997702
0.63920012
0.6385631
0.63802213
0.63755531
0.63714818
0.63679063
0.63647512
0.63619519
0.63594552
0.63572205
0.63552148
0.63534098
0.63517803
0.63503039
0.63489602
0.63477313
0.63466007
0.63455539
0.6344578
0.63436615
0.63427947
0.63419688
0.63411761
0.63404106
0.63396672
0.63389413
0.63382296
0.63375289
0.63368367
0.63361508
0.63354684
0.63347857
0.63340992
0.633341
0.63327319
0.63321047
0.63315868
0.63312167
0.63309933
0.63308944
0.66509838
0.66515441
0.66507503
0.665071
0.66507056
0.66507055
0.66507055
0.66507055
0.66507055
0.66507055
0.66507055
0.66507055
0.66507055
0.66507055
0.66507055
0.66507055
0.66507055
0.66507055
0.66507055
0.66507055
0.66507055
0.66507055
0.66507055
0.66507055
0.66507055
0.66507055
0.66507055
0.66507055
0.66507055
0.66507054
0.66507053
0.66507101
0.66508805
0.66522606
0.66582109
0.66766882
0.67202244
0.67887974
0.68363257
0.68064835
0.67158825
0.66755131
0.67017958
0.67077045
0.66644016
0.6660443
0.66728104
0.66503764
0.66434315
0.66453068
0.66324613
0.66280469
0.66230026
0.6615447
0.6610521
0.66035593
0.65975396
0.65917567
0.65851711
0.65785789
0.65718774
0.65650167
0.65578461
0.65508737
0.65445506
0.65379054
0.65318346
0.65265503
0.65210861
0.6515301
0.65102355
0.65056278
0.65015041
0.64972692
0.64931482
0.64892538
0.64855961
0.64822945
0.64794522
0.64769561
0.64746254
0.64724342
0.64703162
0.64682931
0.6466412
0.64647833
0.64633842
0.64622011
0.64612253
0.64603717
0.64596441
0.64590813
0.64586923
0.64584448
0.64582817
0.64581873
0.64580783
0.64579547
0.64578411
0.6457768
0.64577666
0.64578454
0.64580687
0.64585058
0.6458634
0.64516316
0.64299189
0.64147561
0.64045974
0.63968094
0.63904729
0.63851279
0.63805029
0.63764432
0.63728503
0.63696626
0.63668283
0.63643066
0.63620603
0.63600547
0.63582588
0.6356645
0.63551899
0.63538721
0.63526724
0.63515737
0.63505607
0.63496203
0.63487405
0.63479113
0.63471234
0.63463684
0.6345639
0.63449283
0.63442297
0.63435369
0.6342844
0.6342146
0.63414388
0.63407202
0.633999
0.63392507
0.63385112
0.63377933
0.63371403
0.63366093
0.63362337
0.63360074
0.63359063
0.6650987
0.66515437
0.66507502
0.665071
0.66507056
0.66507055
0.66507055
0.66507055
0.66507055
0.66507055
0.66507055
0.66507055
0.66507055
0.66507055
0.66507055
0.66507055
0.66507055
0.66507055
0.66507055
0.66507055
0.66507055
0.66507055
0.66507055
0.66507055
0.66507055
0.66507055
0.66507055
0.66507055
0.66507055
0.66507054
0.66507054
0.66507097
0.66508745
0.66522311
0.66581177
0.66764652
0.67198913
0.67885487
0.68372373
0.68077459
0.67173459
0.66762253
0.67022604
0.67087506
0.66656044
0.66611877
0.6673626
0.6651652
0.66444392
0.66462654
0.66337329
0.66291073
0.66242594
0.66167048
0.6611789
0.66048987
0.65989159
0.65931438
0.65865684
0.65799374
0.65732339
0.65663787
0.65591592
0.65521936
0.65459041
0.65392558
0.65330848
0.6527767
0.65223749
0.65165786
0.65114062
0.65066934
0.65025166
0.64982696
0.64941186
0.64901542
0.64864438
0.64830547
0.64801122
0.64775523
0.64752098
0.64730514
0.64709557
0.6468931
0.64670664
0.64654545
0.64640591
0.64628627
0.64619259
0.64611456
0.64604755
0.6459995
0.64596726
0.64594854
0.64594203
0.64594312
0.64594491
0.64594348
0.64594336
0.64594409
0.64594887
0.64596564
0.64599438
0.64601839
0.64601778
0.64546402
0.64338389
0.64180285
0.64074604
0.63994057
0.63928688
0.6387384
0.638267
0.63785572
0.6374934
0.63717131
0.63688393
0.63662745
0.63639822
0.63619296
0.63600879
0.63584317
0.63569396
0.63555887
0.63543584
0.63532313
0.63521924
0.6351229
0.63503297
0.6349485
0.63486868
0.63479274
0.63472002
0.63464995
0.63458197
0.6345156
0.63445038
0.63438589
0.63432171
0.63425739
0.63419248
0.63412667
0.63406025
0.63399473
0.6339341
0.63388394
0.63384791
0.63382599
0.63381628
0.66509902
0.66515431
0.66507507
0.66507098
0.66507056
0.66507055
0.66507055
0.66507055
0.66507055
0.66507055
0.66507055
0.66507055
0.66507055
0.66507055
0.66507055
0.66507055
0.66507055
0.66507055
0.66507055
0.66507055
0.66507055
0.66507055
0.66507055
0.66507055
0.66507055
0.66507055
0.66507055
0.66507055
0.66507055
0.66507054
0.66507054
0.66507093
0.66508683
0.66521997
0.66580144
0.66762104
0.67194835
0.67882268
0.68380731
0.68090156
0.67190254
0.66770292
0.67026669
0.67098062
0.66668871
0.66619399
0.66744212
0.66529702
0.66454595
0.66472191
0.66350126
0.66301844
0.66255281
0.66179818
0.66130603
0.66062527
0.66002881
0.65945554
0.65879642
0.65813033
0.65746297
0.65677017
0.65605317
0.65535339
0.65472379
0.6540611
0.65343978
0.652902
0.65236658
0.65178664
0.65125938
0.6507795
0.65035531
0.64993061
0.64951189
0.64910865
0.64873109
0.6483827
0.64807764
0.64781375
0.64757946
0.64736451
0.64715586
0.64695469
0.64677253
0.64661134
0.64646906
0.64635155
0.64625896
0.64618182
0.64611982
0.64607701
0.64605014
0.64603718
0.64603569
0.64604263
0.64605388
0.64606037
0.64606544
0.64607102
0.64608107
0.64610132
0.64613336
0.64618633
0.64619311
0.64576114
0.64379527
0.64213234
0.64104124
0.64021663
0.63954927
0.63898842
0.63850653
0.63808658
0.63771754
0.63739161
0.63710279
0.63684555
0.63661587
0.63641041
0.63622631
0.63606103
0.63591214
0.63577777
0.63565594
0.63554497
0.63544337
0.63534979
0.63526292
0.63518177
0.63510545
0.63503308
0.63496388
0.63489714
0.63483217
0.63476836
0.63470518
0.63464213
0.63457876
0.6345147
0.63444962
0.63438341
0.63431657
0.63425077
0.63418998
0.63413971
0.63410353
0.63408139
0.63407138
0.66509929
0.66515423
0.66507514
0.66507096
0.66507056
0.66507055
0.66507055
0.66507055
0.66507055
0.66507055
0.66507055
0.66507055
0.66507055
0.66507055
0.66507055
0.66507055
0.66507055
0.66507055
0.66507055
0.66507055
0.66507055
0.66507055
0.66507055
0.66507055
0.66507055
0.66507055
0.66507055
0.66507055
0.66507055
0.66507054
0.66507054
0.6650709
0.66508624
0.66521692
0.66579161
0.6675975
0.67191189
0.67879652
0.68389889
0.68101828
0.67206737
0.66777602
0.67031149
0.67108898
0.66681129
0.6662675
0.66752618
0.6654252
0.66465001
0.66481788
0.66362756
0.66312869
0.66267893
0.66192706
0.66143337
0.66076105
0.6601682
0.65959723
0.65893656
0.65827072
0.65759931
0.65691027
0.65619129
0.65548989
0.6548612
0.65420229
0.65357183
0.65302693
0.65249764
0.651919
0.65138263
0.6508915
0.65045971
0.65003186
0.64960717
0.64919969
0.64881762
0.64846142
0.64814638
0.64787398
0.64763746
0.64742072
0.64721175
0.64701317
0.64683199
0.64666875
0.64652519
0.64640838
0.64631547
0.6462382
0.64618014
0.64613772
0.64611175
0.64609982
0.64610223
0.64611298
0.64612872
0.64614633
0.64615865
0.64616822
0.64618037
0.64620316
0.64623597
0.64626035
0.64627625
0.64594679
0.64414332
0.64239268
0.64126455
0.64042039
0.63973974
0.639168
0.6386759
0.63824637
0.63786829
0.6375339
0.63723736
0.63697397
0.63673971
0.63653097
0.63634445
0.63617712
0.63602617
0.63588923
0.63576472
0.63565105
0.63554681
0.63545077
0.63536192
0.63527921
0.63520164
0.63512832
0.63505847
0.63499151
0.63492683
0.63486385
0.63480213
0.6347412
0.63468056
0.63461974
0.63455824
0.63449571
0.63443235
0.6343695
0.63431087
0.63426188
0.63422632
0.63420445
0.63419459
0.66509963
0.66515416
0.6650752
0.66507094
0.66507056
0.66507055
0.66507055
0.66507055
0.66507055
0.66507055
0.66507055
0.66507055
0.66507055
0.66507055
0.66507055
0.66507055
0.66507055
0.66507055
0.66507055
0.66507055
0.66507055
0.66507055
0.66507055
0.66507055
0.66507055
0.66507055
0.66507055
0.66507055
0.66507055
0.66507054
0.66507054
0.66507087
0.66508564
0.66521375
0.66578106
0.66757121
0.67186834
0.6787621
0.68398323
0.68113642
0.67225122
0.66786
0.67035239
0.67119603
0.66694237
0.66634259
0.66760804
0.66555747
0.66475604
0.66491334
0.66375521
0.66324143
0.6628054
0.66205775
0.66156153
0.66089788
0.66030906
0.65973884
0.65907954
0.65840973
0.65774257
0.65704873
0.65633084
0.65563004
0.6550008
0.65434032
0.65370671
0.65315782
0.65263302
0.65205105
0.65150705
0.65100459
0.65056623
0.65013465
0.64970507
0.64929467
0.64890804
0.64854126
0.64821625
0.64793578
0.64769386
0.64747329
0.64726331
0.64706572
0.6468865
0.64672236
0.64657724
0.64645705
0.64636067
0.64628598
0.64622812
0.64618846
0.64616139
0.64614691
0.64614933
0.64616132
0.64617814
0.64619525
0.64620816
0.64621848
0.64623141
0.64625292
0.64628401
0.64633377
0.64634946
0.64609058
0.64446551
0.64262948
0.64145483
0.64057916
0.63987476
0.63928548
0.63878103
0.63834281
0.63795845
0.6376192
0.63731843
0.63705093
0.63681246
0.6365995
0.636409
0.63623834
0.63608517
0.63594737
0.635823
0.63571028
0.63560761
0.63551354
0.63542671
0.63534596
0.63527023
0.63519866
0.63513057
0.6350653
0.63500227
0.63494096
0.63488078
0.63482119
0.63476166
0.63470173
0.63464098
0.63457914
0.63451646
0.63445433
0.63439636
0.63434787
0.63431258
0.63429074
0.63428075
0.66509992
0.66515409
0.66507525
0.66507092
0.66507056
0.66507055
0.66507055
0.66507055
0.66507055
0.66507055
0.66507055
0.66507055
0.66507055
0.66507055
0.66507055
0.66507055
0.66507055
0.66507055
0.66507055
0.66507055
0.66507055
0.66507055
0.66507055
0.66507055
0.66507055
0.66507055
0.66507055
0.66507055
0.66507055
0.66507054
0.66507054
0.66507085
0.66508505
0.66521063
0.6657708
0.66754633
0.67182842
0.67873394
0.68407454
0.68126094
0.67242074
0.66793404
0.67039582
0.67130809
0.66706769
0.66641489
0.66769557
0.66568704
0.66486285
0.66501114
0.663882
0.66335538
0.66293291
0.66219023
0.66169018
0.66103583
0.66045024
0.65988282
0.65922116
0.65855296
0.65788442
0.65718899
0.6564762
0.65577033
0.65514155
0.65448392
0.65384845
0.65329014
0.6527656
0.65218582
0.65163626
0.65112248
0.65067459
0.6502366
0.64980096
0.64938876
0.64899602
0.64862091
0.64828843
0.64799762
0.64774883
0.64752231
0.64731063
0.64711431
0.64693544
0.64676832
0.64661989
0.64649616
0.6463963
0.64631727
0.64626097
0.6462198
0.64618912
0.64617204
0.64616687
0.64617803
0.64619302
0.64621054
0.64622606
0.64623866
0.64625463
0.64627562
0.64630267
0.64632978
0.64635003
0.64616464
0.64474416
0.6428378
0.64162116
0.64072147
0.64000081
0.63939912
0.6388842
0.63843675
0.63804418
0.63769766
0.63739058
0.63711768
0.63687463
0.63665775
0.63646384
0.63629008
0.63613398
0.63599336
0.63586628
0.63575105
0.63564613
0.63555017
0.63546197
0.63538043
0.63530456
0.63523344
0.63516625
0.63510223
0.63504065
0.63498084
0.63492212
0.63486393
0.6348058
0.63474723
0.63468777
0.63462711
0.63456544
0.63450404
0.63444649
0.63439813
0.63436282
0.63434094
0.63433099
0.66510019
0.66515402
0.6650753
0.6650709
0.66507056
0.66507055
0.66507055
0.66507055
0.66507055
0.66507055
0.66507055
0.66507055
0.66507055
0.66507055
0.66507055
0.66507055
0.66507055
0.66507055
0.66507055
0.66507055
0.66507055
0.66507055
0.66507055
0.66507055
0.66507055
0.66507055
0.66507055
0.66507055
0.66507055
0.66507054
0.66507053
0.66507082
0.66508447
0.66520742
0.66576001
0.66751921
0.67178192
0.67869672
0.68416117
0.68138504
0.67260158
0.66802201
0.67043883
0.67141585
0.66720131
0.66649096
0.66778092
0.66582027
0.66497109
0.66510716
0.66401095
0.66347057
0.66305953
0.66232566
0.66181948
0.66117463
0.66059346
0.66002612
0.65936527
0.65869677
0.65802699
0.65733507
0.65661807
0.65591564
0.65528335
0.65462959
0.65398835
0.65342487
0.6529023
0.65232376
0.65176593
0.65123965
0.65078155
0.65033794
0.6498989
0.64948484
0.64908752
0.6487059
0.64836234
0.64806053
0.64780331
0.64756842
0.64735341
0.64715823
0.64697687
0.64680629
0.64665527
0.64652692
0.64642012
0.6463381
0.64627993
0.64623576
0.64620114
0.64618058
0.64617423
0.64617901
0.64619512
0.64621259
0.64623008
0.64624293
0.64625421
0.64627173
0.64629295
0.64633097
0.64634657
0.64620683
0.64498815
0.6430328
0.6417607
0.64082456
0.64007815
0.63945771
0.63892899
0.63847123
0.63807074
0.63771789
0.6374055
0.63712796
0.63688074
0.63666008
0.63646274
0.63628593
0.63612716
0.63598426
0.63585528
0.63573848
0.6356323
0.63553536
0.6354464
0.63536431
0.63528807
0.63521677
0.63514961
0.63508587
0.63502485
0.63496591
0.63490844
0.63485184
0.63479552
0.63473894
0.63468154
0.63462292
0.63456314
0.63450338
0.63444702
0.6343994
0.63436441
0.63434258
0.6343325
0.6651005
0.66515394
0.66507534
0.66507088
0.66507056
0.66507055
0.66507055
0.66507055
0.66507055
0.66507055
0.66507055
0.66507055
0.66507055
0.66507055
0.66507055
0.66507055
0.66507055
0.66507055
0.66507055
0.66507055
0.66507055
0.66507055
0.66507055
0.66507055
0.66507055
0.66507055
0.66507055
0.66507055
0.66507055
0.66507054
0.66507053
0.6650708
0.66508389
0.66520424
0.66574937
0.66749309
0.67173818
0.67866573
0.68425469
0.68151842
0.67277016
0.66809695
0.67048052
0.67153066
0.66733046
0.66656377
0.66787161
0.66595079
0.66507902
0.66520653
0.66413858
0.66358676
0.6631859
0.66246147
0.66195023
0.66131365
0.660737
0.66017119
0.65951067
0.65884157
0.6581757
0.65747679
0.65676726
0.65606044
0.65542835
0.65477619
0.65413669
0.65356391
0.65303844
0.65246008
0.65189927
0.65136213
0.6508934
0.6504425
0.64999945
0.64958076
0.64917687
0.64878866
0.64843477
0.64812331
0.64785674
0.64761359
0.64739354
0.6471969
0.64701297
0.64683985
0.64668403
0.64654843
0.64643654
0.64635259
0.64628899
0.64623734
0.64619741
0.64616971
0.64616
0.64616005
0.6461705
0.64618719
0.64620146
0.6462141
0.64622385
0.64623476
0.64624928
0.64626454
0.64628221
0.64618824
0.64517861
0.6432102
0.64188335
0.64091474
0.64014635
0.63950987
0.63896869
0.6385008
0.63809186
0.63773182
0.6374132
0.63713017
0.63687806
0.636653
0.63645166
0.63627121
0.63610914
0.63596327
0.63583166
0.63571259
0.63560449
0.63550599
0.63541582
0.63533285
0.63525605
0.63518447
0.63511726
0.63505367
0.63499296
0.63493445
0.63487747
0.63482142
0.63476571
0.63470977
0.63465305
0.63459512
0.63453599
0.63447677
0.63442079
0.63437331
0.63433833
0.63431649
0.6343065
0.66510079
0.66515386
0.66507538
0.66507087
0.66507056
0.66507055
0.66507055
0.66507055
0.66507055
0.66507055
0.66507055
0.66507055
0.66507055
0.66507055
0.66507055
0.66507055
0.66507055
0.66507055
0.66507055
0.66507055
0.66507055
0.66507055
0.66507055
0.66507055
0.66507055
0.66507055
0.66507055
0.66507055
0.66507055
0.66507054
0.66507053
0.66507077
0.66508333
0.665201
0.66573835
0.6674651
0.67168852
0.67862586
0.68434474
0.68164512
0.67295165
0.66818833
0.67052553
0.67163925
0.66746696
0.66664153
0.66795866
0.66608353
0.66518942
0.66530661
0.66426889
0.66370412
0.66331318
0.66260072
0.66208167
0.66145299
0.66088185
0.66031728
0.65965612
0.65899028
0.65832084
0.65762609
0.65691607
0.65620765
0.65557604
0.65492727
0.65428541
0.65370172
0.65317481
0.65260072
0.65203593
0.65148518
0.65100403
0.65054511
0.65009874
0.64967592
0.64926758
0.64887534
0.64851264
0.64818891
0.64790908
0.64765595
0.64743216
0.64723222
0.64704334
0.64686616
0.64670571
0.64656548
0.64644679
0.64635396
0.64628401
0.64622544
0.64617821
0.64614552
0.64612751
0.64612626
0.64613076
0.64614345
0.64615658
0.64616569
0.64617346
0.6461788
0.64618716
0.64621109
0.64622578
0.64615425
0.64533054
0.64338431
0.64198757
0.64097751
0.64018129
0.63952508
0.63896919
0.63849011
0.63807247
0.63770546
0.63738107
0.63709309
0.63683654
0.63660739
0.63640222
0.63621819
0.6360528
0.63590387
0.63576951
0.63564798
0.63553775
0.63543744
0.63534579
0.63526167
0.63518406
0.63511199
0.63504462
0.63498118
0.63492091
0.63486311
0.63480712
0.6347523
0.63469802
0.63464367
0.63458866
0.63453248
0.63447508
0.63441742
0.63436264
0.63431596
0.63428139
0.63425966
0.63424956
0.66510101
0.66515379
0.66507542
0.66507086
0.66507056
0.66507055
0.66507055
0.66507055
0.66507055
0.66507055
0.66507055
0.66507055
0.66507055
0.66507055
0.66507055
0.66507055
0.66507055
0.66507055
0.66507055
0.66507055
0.66507055
0.66507055
0.66507055
0.66507055
0.66507055
0.66507055
0.66507055
0.66507055
0.66507055
0.66507054
0.66507053
0.66507075
0.66508277
0.66519777
0.66572738
0.66743755
0.6716407
0.6785921
0.68444101
0.68178298
0.67312358
0.66826471
0.67056493
0.67175561
0.66760077
0.66671548
0.66804887
0.66621706
0.66529913
0.66540975
0.66439866
0.66382244
0.66344044
0.66274181
0.6622146
0.66159279
0.66102829
0.66046326
0.65980423
0.659138
0.65847182
0.65777578
0.65706512
0.65636055
0.65572316
0.65508038
0.65443686
0.65384526
0.65331437
0.65274128
0.6521713
0.65161106
0.65111789
0.65065212
0.65020217
0.64977347
0.64935817
0.6489614
0.64858785
0.64825266
0.64795973
0.64769636
0.64746933
0.64726361
0.64706872
0.64688808
0.64672502
0.64657634
0.6464485
0.64634779
0.6462683
0.64620126
0.64614613
0.64610881
0.64608518
0.64607327
0.64607339
0.64607904
0.6460887
0.64609486
0.64609772
0.64610037
0.64610095
0.64610285
0.64611933
0.64607476
0.64543004
0.64355233
0.6420842
0.64103611
0.64021423
0.63953922
0.63896872
0.63847798
0.6380509
0.63767616
0.6373453
0.63705172
0.63679021
0.63655654
0.63634721
0.63615927
0.63599021
0.63583784
0.63570026
0.63557578
0.63546287
0.63536015
0.63526639
0.63518045
0.6351013
0.63502797
0.63495959
0.6348954
0.63483461
0.63477651
0.63472042
0.63466568
0.63461167
0.63455777
0.63450335
0.63444791
0.63439132
0.63433445
0.63428037
0.63423414
0.63419983
0.63417828
0.63416833
0.6651013
0.66515371
0.66507545
0.66507085
0.66507056
0.66507055
0.66507055
0.66507055
0.66507055
0.66507055
0.66507055
0.66507055
0.66507055
0.66507055
0.66507055
0.66507055
0.66507055
0.66507055
0.66507055
0.66507055
0.66507055
0.66507055
0.66507055
0.66507055
0.66507055
0.66507055
0.66507055
0.66507055
0.66507055
0.66507054
0.66507053
0.66507073
0.66508221
0.6651945
0.66571613
0.66740872
0.67158772
0.67854983
0.6845327
0.68191395
0.67330379
0.66835946
0.67061257
0.67186505
0.6677389
0.66679687
0.66813803
0.66635168
0.66541327
0.66551374
0.66452866
0.66394296
0.66356711
0.66288429
0.66234831
0.66173415
0.66117603
0.66061178
0.65995181
0.65928798
0.65862347
0.65792384
0.65722132
0.65650924
0.65587696
0.65523599
0.65459256
0.65398845
0.65345231
0.65288194
0.65231074
0.65174183
0.65123355
0.65075929
0.65030352
0.649866
0.64944835
0.64904857
0.64866562
0.64832067
0.64801561
0.64774345
0.64750789
0.64729279
0.6470921
0.64690854
0.64673974
0.64658277
0.64644559
0.64633507
0.64624395
0.64616713
0.64610507
0.64605865
0.64602955
0.64600899
0.64600093
0.646002
0.64600616
0.64601126
0.6460118
0.64600924
0.6460079
0.64602
0.64603234
0.64599426
0.64549194
0.64371721
0.64216631
0.64107589
0.64022461
0.63952786
0.63894095
0.63843759
0.63800066
0.63761812
0.63728091
0.63698201
0.63671588
0.63647806
0.63626486
0.63607326
0.63590069
0.63574497
0.6356042
0.63547671
0.63536102
0.63525577
0.63515974
0.63507182
0.63499099
0.63491628
0.63484685
0.6347819
0.63472066
0.6346624
0.63460644
0.6345521
0.63449874
0.63444573
0.63439241
0.63433826
0.63428311
0.63422776
0.63417505
0.63412993
0.63409637
0.6340752
0.6340653
0.66510155
0.66515362
0.66507548
0.66507084
0.66507056
0.66507055
0.66507055
0.66507055
0.66507055
0.66507055
0.66507055
0.66507055
0.66507055
0.66507055
0.66507055
0.66507055
0.66507055
0.66507055
0.66507055
0.66507055
0.66507055
0.66507055
0.66507055
0.66507055
0.66507055
0.66507055
0.66507055
0.66507055
0.66507055
0.66507055
0.66507054
0.6650707
0.66508167
0.66519124
0.66570487
0.66737996
0.6715358
0.67851304
0.68462653
0.68205763
0.67348107
0.66844003
0.67065051
0.67198237
0.66787812
0.66687375
0.66822848
0.66648805
0.66552544
0.66562012
0.66465869
0.66406248
0.66369448
0.66302706
0.66248191
0.66187687
0.66132516
0.66076031
0.66010133
0.65944012
0.65877505
0.65808067
0.65737309
0.65666655
0.65603141
0.65539302
0.65474757
0.65413501
0.65359463
0.65302547
0.65245054
0.65187127
0.65134985
0.65086804
0.65040637
0.64996256
0.64954104
0.64913584
0.64874441
0.64838753
0.6480679
0.64778649
0.64754311
0.64731923
0.64711304
0.64692482
0.64674934
0.64658493
0.64643835
0.64631586
0.64621437
0.64612841
0.64605843
0.64600369
0.64596284
0.64593583
0.64591616
0.64590867
0.645908
0.64590916
0.64590931
0.6459043
0.64589693
0.64588908
0.64590088
0.64587862
0.6455069
0.6438768
0.64224703
0.64111764
0.64023823
0.63951975
0.63891604
0.63839945
0.63795198
0.63756095
0.63721682
0.6369122
0.63664122
0.63639912
0.636182
0.63598667
0.6358105
0.63565128
0.63550712
0.63537637
0.63525755
0.63514934
0.63505055
0.63496008
0.63487692
0.6348001
0.63472878
0.63466213
0.63459939
0.63453981
0.63448265
0.63442724
0.63437291
0.63431902
0.63426491
0.63421001
0.63415418
0.6340982
0.63404499
0.63399954
0.63396587
0.63394477
0.63393506
0.66510174
0.66515355
0.66507551
0.66507083
0.66507056
0.66507055
0.66507055
0.66507055
0.66507055
0.66507055
0.66507055
0.66507055
0.66507055
0.66507055
0.66507055
0.66507055
0.66507055
0.66507055
0.66507055
0.66507055
0.66507055
0.66507055
0.66507055
0.66507055
0.66507055
0.66507055
0.66507055
0.66507055
0.66507055
0.66507055
0.66507054
0.66507068
0.66508114
0.66518795
0.6656934
0.66735017
0.67147962
0.67846857
0.68470986
0.68219917
0.67365886
0.66854095
0.67069785
0.67209416
0.66801805
0.66696011
0.66831917
0.66662215
0.66564338
0.66572711
0.66478967
0.66418593
0.66382085
0.66317256
0.66261626
0.66202125
0.66147549
0.66090975
0.66025259
0.65959202
0.65893202
0.65823283
0.65753137
0.65682502
0.65618648
0.65555358
0.65490702
0.65428494
0.65373716
0.65316607
0.65259098
0.65200592
0.65147126
0.65097949
0.65050892
0.65005763
0.64963168
0.64922028
0.64882306
0.6484576
0.6481257
0.64783553
0.64758254
0.64734855
0.64713548
0.64694178
0.64675847
0.64658564
0.64643012
0.64629596
0.6461813
0.64608556
0.6460064
0.64594426
0.64589332
0.64585339
0.64582677
0.64581065
0.64580481
0.64580246
0.64579936
0.64579277
0.64578459
0.64578746
0.64579165
0.64576818
0.64548803
0.6440246
0.64231711
0.64114581
0.64023598
0.63949391
0.638872
0.63834127
0.63788274
0.63748295
0.63713184
0.63682156
0.63654588
0.63629978
0.63607911
0.63588051
0.63570118
0.63553881
0.63539151
0.63525764
0.63513581
0.63502473
0.63492325
0.63483032
0.63474495
0.63466623
0.63459331
0.63452538
0.63446165
0.63440134
0.63434372
0.63428803
0.63423355
0.63417953
0.6341252
0.63406987
0.63401319
0.63395566
0.63390027
0.6338518
0.63381577
0.63379341
0.6337836
0.66510199
0.66515347
0.66507554
0.66507083
0.66507056
0.66507055
0.66507055
0.66507055
0.66507055
0.66507055
0.66507055
0.66507055
0.66507055
0.66507055
0.66507055
0.66507055
0.66507055
0.66507055
0.66507055
0.66507055
0.66507055
0.66507055
0.66507055
0.66507055
0.66507055
0.66507055
0.66507055
0.66507055
0.66507055
0.66507055
0.66507054
0.66507066
0.66508061
0.66518466
0.66568188
0.66732026
0.67142387
0.67842849
0.68479063
0.68235661
0.67384189
0.66862756
0.6707354
0.67221113
0.66816167
0.66704035
0.6684085
0.6667597
0.66575986
0.66583526
0.66492214
0.66430969
0.66394935
0.66331732
0.66275172
0.66216775
0.66162715
0.6610609
0.66040383
0.65974714
0.6590878
0.65839046
0.65769292
0.65698285
0.65634959
0.65571383
0.65506619
0.65443536
0.65388158
0.65331055
0.65273405
0.65214129
0.65159215
0.65109067
0.65061117
0.6501537
0.6497236
0.64930694
0.64890517
0.64852909
0.64818526
0.64788483
0.64761894
0.64737496
0.64715538
0.64695479
0.64676383
0.64658416
0.6464203
0.64627456
0.64614777
0.64604291
0.64595529
0.64588106
0.64582055
0.64576944
0.64573206
0.64570795
0.6456942
0.64568821
0.64568158
0.64567184
0.64565876
0.64564328
0.64564501
0.64563037
0.64543263
0.64416064
0.64239384
0.64118187
0.64024243
0.63947664
0.63883598
0.63829059
0.63782045
0.63741143
0.6370529
0.6367366
0.63645597
0.63620571
0.63598147
0.63577965
0.63559729
0.63543193
0.63528159
0.63514459
0.63501953
0.6349052
0.63480053
0.63470453
0.63461627
0.63453489
0.63445958
0.63438959