/*--------------------------------*- C++ -*----------------------------------*\
| =========                 |                                                 |
| \\      /  F ield         | OpenFOAM: The Open Source CFD Toolbox           |
|  \\    /   O peration     | Version:  2506                                  |
|   \\  /    A nd           | Website:  www.openfoam.com                      |
|    \\/     M anipulation  |                                                 |
\*---------------------------------------------------------------------------*/
FoamFile
{
    version     2.0;
    format      ascii;
    arch        "LSB;label=32;scalar=64";
    class       volScalarField;
    location    "2.6";
    object      k;
}
// * * * * * * * * * * * * * * * * * * * * * * * * * * * * * * * * * * * * * //

dimensions      [0 2 -2 0 0 0 0];

internalField   nonuniform List<scalar> 
1376
(
6.0554879
6.0709768
5.8381388
5.6156784
5.4042951
5.1997394
4.9986099
4.8040729
4.6187924
4.4474578
4.2773688
6.7066152
6.4143094
6.1390535
5.8848654
5.646994
5.4167762
5.1904576
4.9676069
4.760705
4.5449384
6.7501179
6.5216385
6.3069648
6.1125939
5.9269605
5.7339279
5.5274577
5.3086561
5.093765
4.8641864
6.3367561
6.1916408
6.0612597
5.9539803
5.8513167
5.7313804
5.5842349
5.4101208
5.2247794
5.0248186
6.1821787
6.0517475
5.9421295
5.8572152
5.7785291
5.6855973
5.567409
5.4212029
5.2621816
5.0847449
6.308014
6.1723021
6.0569321
5.9615098
5.8707117
5.7687468
5.6475828
5.5034616
5.3518365
5.1740891
6.5151978
6.3808898
6.2626587
6.1576985
6.0539083
5.9398121
5.8103785
5.6623304
5.5112746
5.3271683
6.6979256
6.5717807
6.4568973
6.3497518
6.2411016
6.1225683
5.9908467
5.8432954
5.695045
5.5123255
6.823307
6.7081433
6.6000822
6.4961029
6.3894568
6.2737312
6.1461804
6.0046814
5.863088
5.6909794
6.8884754
6.784399
6.6843284
6.5864483
6.4860842
6.3778158
6.2586727
6.1269784
5.9948479
5.8391536
6.9012629
6.8071273
6.7149612
6.6244746
6.5325604
6.4340527
6.3253482
6.2052428
6.0838754
5.9468997
6.9571652
6.8726274
6.7870258
6.7022384
6.6194206
6.536503
6.4482129
6.3503055
6.2420787
6.1315407
6.0131628
6.8902087
6.8140838
6.7358469
6.6578039
6.5821437
6.5074407
6.4283827
6.3404356
6.2433811
6.1429741
6.0414036
6.8049061
6.7360623
6.6644708
6.5925667
6.5229696
6.4546919
6.3828773
6.3032759
6.2160635
6.1246974
6.0368104
6.7092631
6.6467452
6.5812794
6.5149534
6.4501376
6.3861844
6.3192901
6.2460692
6.1670343
6.0832956
6.0066492
6.6090534
6.5516509
6.4915929
6.4302378
6.3691563
6.3079117
6.2440593
6.17542
6.1028057
6.0252824
5.9571435
6.5082137
6.4544249
6.3986357
6.3414369
6.2834256
6.2241734
6.1624157
6.0971286
6.0293814
5.9567836
5.8947149
6.4097943
6.3582183
6.3053633
6.2513288
6.1959397
6.1386042
6.0787701
6.0162166
5.9521704
5.8834659
5.8254225
6.3169341
6.2667204
6.2157332
6.1639027
6.1106458
6.0552135
5.9973471
5.9372064
5.8760136
5.8104249
5.7547481
6.2333992
6.1843168
6.1346029
6.0841867
6.0324274
5.9785932
5.9225115
5.8643982
5.8053079
5.742167
5.687518
6.1626133
6.1147904
6.0661218
6.0165538
5.9656571
5.9129221
5.8582054
5.8015921
5.7438656
5.6825125
5.627833
6.1063822
6.0597388
6.0119708
5.9629908
5.9126141
5.8605791
5.8067737
5.7511394
5.6941797
5.6340468
5.5786507
6.064354
6.0185879
5.9714782
5.9229671
5.8730072
5.8214579
5.7682305
5.7131987
5.6566681
5.5974127
5.5411136
6.0340208
5.9887571
5.9421059
5.8941007
5.8446394
5.7935444
5.7407167
5.6860546
5.6298241
5.5713331
5.5143972
6.0121215
5.9672224
5.9209677
5.8734365
5.8244861
5.7738737
5.7214305
5.6670984
5.6112073
5.5535075
5.4963992
6.0394666
5.9963945
5.9517858
5.9058358
5.8586006
5.8099666
5.7597559
5.70778
5.6539875
5.5986645
5.5418005
5.4848501
6.0276738
5.9848754
5.9406454
5.8950161
5.8480248
5.7996406
5.7497876
5.6983321
5.6452117
5.5905637
5.5344176
5.4776202
6.0191093
5.976618
5.9327782
5.8875118
5.8408344
5.7927744
5.7432975
5.6923484
5.6398576
5.5858229
5.5302615
5.473528
6.0129731
5.9708524
5.927398
5.8825467
5.8363038
5.788651
5.7395825
5.6891036
5.6371536
5.5836898
5.5287077
5.4722244
6.0089416
5.9671279
5.9239929
5.8795253
5.8337068
5.7864854
5.7378821
5.6878719
5.6364036
5.5834437
5.5290375
5.4729573
6.0065522
5.9650629
5.922297
5.8782569
5.8328657
5.786097
5.7379339
5.6883681
5.6374005
5.5849743
5.5311457
5.4755017
6.0453936
6.0055615
5.9644196
5.9220348
5.878394
5.8334556
5.7871841
5.7394792
5.6903589
5.6398489
5.5879471
5.5347606
5.4797068
6.0452988
6.0059366
5.9652725
5.9233053
5.8800228
5.8354749
5.7896125
5.742397
5.6938342
5.6439149
5.5926414
5.5401063
5.4856303
6.0465404
6.007532
5.9672964
5.925829
5.8831159
5.8390977
5.793746
5.7470755
5.699078
5.6497645
5.5991284
5.5472787
5.4934185
6.0869574
6.0494917
6.0108378
5.9709762
5.9299194
5.887664
5.8441634
5.7993946
5.7533219
5.7059333
5.6572691
5.6072762
5.5561257
5.5029204
6.0915175
6.0544086
6.0161287
5.9767
5.9361073
5.8943531
5.8513911
5.8071789
5.7616916
5.7149293
5.666944
5.6176612
5.5672565
5.5147203
6.0985438
6.061803
6.0239535
5.9849838
5.9448721
5.9035906
5.8611375
5.8174926
5.7726588
5.7266258
5.6793748
5.6308066
5.5811461
5.5292925
6.1438686
6.1085557
6.0722065
6.0348056
5.9962943
5.9566655
5.9158804
5.8739573
5.8309065
5.7867334
5.7414034
5.6948822
5.6470622
5.5981934
5.5471009
6.157288
6.1223088
6.0863282
6.0493332
6.0112845
5.9721646
5.9319731
5.8906922
5.8482939
5.8047559
5.7600536
5.7142004
5.6671247
5.6191101
5.5688554
6.2090885
6.1754043
6.1407698
6.1051718
6.0685896
6.0310243
5.9924579
5.9528596
5.9121887
5.8704125
5.8275166
5.7834924
5.7383666
5.6920822
5.6449411
5.5955301
6.2654775
6.2329589
6.1995645
6.1652826
6.130086
6.093948
6.0568464
6.0187612
5.9796731
5.9395587
5.8983993
5.8561908
5.8129229
5.7686012
5.7231534
5.6768993
5.6283383
6.2968515
6.2645782
6.231472
6.1975176
6.1626874
6.1269638
6.0903174
6.0527192
6.0141609
5.9746272
5.934109
5.8926006
5.8500672
5.806531
5.7619109
5.7165591
5.6688822
6.3698863
6.3385881
6.3065239
6.2736723
6.2400076
6.2055114
6.1701591
6.133928
6.0968055
6.0587688
6.0198022
5.9798861
5.9390176
5.8971941
5.8544317
5.8106578
5.766243
5.7194817
6.4559066
6.4253902
6.3941635
6.3622092
6.3295064
6.2960349
6.2617788
6.2267248
6.1908451
6.1541126
6.1165214
6.0780628
6.038723
5.9984949
5.9573971
5.9154384
5.8725285
5.8290544
5.7832138
6.5608593
6.5308839
6.5002552
6.4689557
6.4369682
6.4042847
6.370891
6.3367689
6.301906
6.2662827
6.2298825
6.19269
6.1547037
6.1159242
6.0763438
6.0359538
5.9947721
5.9526962
5.9101254
5.865185
6.7231043
6.6939591
6.6642361
6.6339197
6.6029949
6.5714489
6.5392705
6.5064481
6.4729691
6.4388194
6.4039847
6.3684536
6.332222
6.2952906
6.2576541
6.2193124
6.180255
6.1404622
6.0999437
6.0585933
6.0168289
5.9727138
6.9026022
6.8732131
6.8432986
6.8128484
6.7818544
6.7503064
6.7181925
6.6855041
6.6522322
6.6183635
6.5838883
6.548804
6.5131134
6.4768211
6.4399251
6.4024129
6.3642723
6.3254959
6.2860579
6.2459665
6.2051161
6.1639393
6.1204706
7.1960797
7.1662005
7.1358561
7.105042
7.0737529
7.0419828
7.0097245
6.9769693
6.9437095
6.9099341
6.8756361
6.8408131
6.8054709
6.7696207
6.7332762
6.696442
6.6590939
6.6212056
6.582807
6.543975
6.5043051
6.4642004
6.42339
6.3824566
6.3390448
7.7443784
7.7144437
7.6842054
7.6536438
7.622729
7.5914255
7.5597043
7.5275082
7.4948236
7.4616313
7.4279405
7.3937748
7.3591647
7.3242009
7.2889389
7.2534673
7.2177903
7.1818606
7.145573
7.1088151
7.0714972
7.0340315
6.9962176
6.95848
6.9196383
6.8846172
6.8314629
4.1434452
4.4086357
4.7187623
4.8852307
4.9675965
5.0790936
5.2469279
5.4377001
5.6161379
5.7617111
5.8662797
5.9289941
5.9535099
5.949752
5.9184659
5.8693012
5.8084228
5.7417438
5.6745564
5.6114664
5.5562567
5.5114449
5.4777692
5.45421
5.4386784
5.4288796
5.4228696
5.4198722
5.4193542
5.4209814
5.424359
5.4294349
5.4361776
5.4447277
5.4550428
5.4676796
5.4830977
5.501791
5.5244982
5.5521176
5.5858327
5.6272971
5.6787903
5.7433784
5.8261036
5.934218
6.0821158
6.3002808
6.796258
4.0387045
4.3116453
4.6212365
4.7977722
4.9029437
5.0338797
5.2091732
5.3976065
5.5690945
5.7064153
5.8027996
5.8579858
5.8774733
5.8706782
5.8369718
5.787172
5.7272859
5.6629596
5.5992024
5.5403255
5.4897173
5.4493754
5.4195623
5.3990265
5.3857092
5.3774686
5.3727363
5.3709299
5.3711873
5.3737785
5.3779958
5.3838827
5.3913914
5.400649
5.4117185
5.4251114
5.4412934
5.4607664
5.4842658
5.5126654
5.5471112
5.5892894
5.6414376
5.7066013
5.7897635
5.8980864
6.0456384
6.2628162
6.7616531
3.9544268
4.2384002
4.552585
4.7415693
4.8664987
5.0110065
5.1882183
5.3706279
5.5323266
5.6587701
5.7446717
5.7910444
5.8054417
5.7936475
5.7575582
5.7071661
5.6483383
5.5864198
5.5261232
5.4714332
5.4252979
5.3891771
5.3628829
5.3449872
5.3335448
5.3267336
5.3233679
5.3225835
5.3237684
5.3272714
5.3322967
5.3389433
5.3471832
5.3571122
5.3689047
5.3830328
5.3999489
5.4201668
5.4444148
5.4735398
5.5086783
5.55154
5.6043108
5.6700057
5.7535565
5.8620348
6.0091665
6.225276
6.7267939
3.8772843
4.1723067
4.4923566
4.6930219
4.8341939
4.9888936
5.166414
5.3422382
5.4939304
5.6094421
5.6851474
5.7235077
5.73355
5.7171171
5.6794624
5.629139
5.5718
5.5125207
5.4557511
5.4051468
5.3632034
5.3308902
5.3076666
5.2920259
5.2822225
5.2768221
5.274824
5.2748632
5.2770915
5.2814284
5.2872144
5.2945614
5.3034847
5.3140833
5.326572
5.341409
5.3590245
5.3799382
5.4048705
5.4346712
5.4704761
5.5139951
5.5673553
5.6335383
5.7174313
5.8260162
5.9726802
6.1876401
6.6915176
3.7956703
4.0994377
4.4242453
4.6349116
4.7902626
4.9541628
5.1321586
5.3022686
5.4453928
5.5518292
5.6195221
5.6520556
5.659153
5.6399362
5.6019763
5.5526607
5.4974001
5.4410624
5.3878894
5.3412302
5.3031651
5.2742603
5.2537458
5.2401279
5.2319044
5.2279496
5.2270159
5.2279546
5.2311403
5.2362198
5.2427059
5.2507149
5.2602908
5.2715338
5.2846967
5.3002092
5.318471
5.3400418
5.3656087
5.3960371
5.4325023
5.4766423
5.5305525
5.5971809
5.6813736
5.790022
5.9361792
6.1499149
6.6556654
3.7045093
4.0121365
4.3390714
4.5577388
4.7257052
4.8985897
5.0783934
5.2451303
5.3825357
5.4830023
5.5458356
5.5753054
5.5811597
5.5615403
5.524654
5.4773171
5.424734
5.3716387
5.3221222
5.2792713
5.2448218
5.2190321
5.2009976
5.1893029
5.1826853
5.180154
5.1799724
5.1818649
5.1858836
5.1916343
5.1987723
5.2074027
5.2175825
5.2294382
5.2432426
5.2594009
5.2782816
5.3004601
5.3266271
5.3576652
5.3947571
5.4394706
5.4938925
5.5609271
5.6453777
5.7540494
5.8996724
6.1121395
6.6194141
3.607216
3.9125443
4.238836
4.4637983
4.6428977
4.8244305
5.0073671
5.1731312
5.3076557
5.4050863
5.4658162
5.4944986
5.5004903
5.4824428
5.4477108
5.4031021
5.3536575
5.3040099
5.2581448
5.218953
5.1879
5.1650249
5.1493483
5.1395617
5.1345899
5.1331955
5.1337575
5.1365435
5.1412925
5.1476604
5.155407
5.1646134
5.1753582
5.1877995
5.2022047
5.2189597
5.238435
5.2611868
5.2879336
5.3195607
5.3572407
5.4024886
5.4573724
5.5247742
5.6094495
5.7180952
5.8631599
6.0743636
6.583169
3.5131342
3.8124837
4.1370897
4.3675258
4.5562319
4.7452018
4.9311307
5.0966187
5.2294015
5.325038
5.3847721
5.4135149
5.4201377
5.404394
5.3721712
5.3305309
5.2843591
5.2381905
5.1959022
5.1602087
5.1323555
5.1122115
5.0987725
5.0908669
5.0874763
5.0869219
5.0883117
5.0919033
5.0973168
5.1042702
5.112584
5.1223294
5.133605
5.1465979
5.1615765
5.1788897
5.198922
5.2222306
5.2495481
5.2817503
5.3199729
5.3656969
5.4209957
5.4887339
5.5735889
5.6821648
5.8266324
6.0365913
6.5472792
3.4303813
3.7253947
4.0497311
4.285648
4.4823571
4.6766915
4.8639423
5.027976
5.1581481
5.2512436
5.309239
5.3373005
5.3440199
5.3297187
5.2994926
5.2604318
5.2172628
5.1743813
5.1354967
5.1031075
5.0782357
5.0606124
5.049264
5.043163
5.0411326
5.0412515
5.0435564
5.0478981
5.0539153
5.0614213
5.0703027
5.0805789
5.0923522
5.1058558
5.1213679
5.1392086
5.1597781
5.1836338
5.2115008
5.2442427
5.2829538
5.3291003
5.3847698
5.4528068
5.5378004
5.6462774
5.7901009
5.9987904
6.5119086
3.3611476
3.6578568
3.9843031
4.2257606
4.4289377
4.6264961
4.8130211
4.9737944
5.0997018
5.1886435
5.2432665
5.2690638
5.274761
5.2600108
5.2306862
5.1933799
5.1526628
5.1127249
5.077007
5.0477057
5.025587
5.0102696
5.0008643
4.99642
4.9953736
4.9962492
4.9994139
5.0044616
5.0110864
5.019151
5.0285774
5.0393618
5.051606
5.0655828
5.0816024
5.0999546
5.1210364
5.1454152
5.1737979
5.2070334
5.2461817
5.2927068
5.3487072
5.4170075
5.5020983
5.6104432
5.7535858
5.9609498
6.47702
3.3025051
3.6069186
3.9369634
4.1836079
4.3919986
4.5913038
4.7757889
4.932162
5.0527309
5.1363769
5.1863507
5.2085448
5.2122342
5.1952792
5.1657428
5.129353
5.0905297
5.0531908
5.0204013
4.99397
4.97438
4.961173
4.9535682
4.950585
4.9502281
4.9519411
4.9559008
4.9616114
4.9688235
4.9774319
4.9873788
4.9986637
5.0113729
5.0258074
5.0423047
5.0611398
5.0827105
5.1075793
5.1364366
5.1701125
5.209652
5.2565245
5.3128221
5.3813465
5.4664968
5.5746686
5.7170868
5.9230966
6.4424244
3.2503366
3.5651082
3.8988552
4.1501015
4.3628545
4.5631475
4.7450976
4.8967855
5.0117886
5.0898742
5.1347711
5.1527775
5.1541578
5.1341745
5.1038011
5.0678569
5.0305949
4.9956199
4.9655569
4.9417879
4.9245281
4.9132916
4.9073746
4.9055385
4.9057665
4.9083419
4.9130275
4.9193618
4.9271312
4.9362562
4.9467029
4.9584635
4.9716304
4.9865194
5.0034648
5.0227456
5.0447799
5.0701064
5.0993942
5.1334615
5.173364
5.22056
5.2771219
5.3458317
5.4310034
5.5389551
5.6805954
5.8852469
6.4079161
4.8618014
4.9714799
5.0442999
5.0844583
5.0988198
5.0974791
5.0749484
5.0437683
5.0082669
4.9725159
4.9397932
4.912287
4.8909833
4.8758884
4.8665248
4.8621642
4.8611692
4.8620879
4.8654657
4.8708029
4.8777141
4.8860123
4.8956196
4.9065189
4.918723
4.9323377
4.9476654
4.9650408
4.9847453
5.007206
5.0329491
5.0626321
5.0970675
5.1373126
5.1848084
5.2416038
5.3104629
5.3956213
5.5033028
5.6440981
5.8474061
6.3734936
4.8414154
4.8283545
4.8207862
4.8178336
4.8174572
4.8191841
4.8232935
4.8292194
4.8366545
4.8454393
4.8554929
4.8668038
4.8794159
4.8934534
4.9092027
4.9269844
4.9470894
4.9699469
4.9960844
5.0261374
5.0609176
5.101482
5.1492601
5.2062596
5.2752378
5.3603478
5.4677053
5.6075854
5.80958
6.3395803
4.7961566
4.8053753
4.8158225
4.8275086
4.8405022
4.8549484
4.8711015
4.8892633
4.9097499
4.9329856
4.959489
4.9898887
5.0249958
5.0658641
5.1139034
5.1710827
5.2401497
5.3251781
5.4321586
5.5710569
5.7717788
6.3078492
4.8518591
4.8727111
4.8963044
4.9231538
4.9538843
4.9892993
5.0304498
5.078724
5.1360624
5.2051886
5.2901059
5.3966613
5.5345173
5.7340016
6.2769849
4.918124
4.9538244
4.9952288
5.0437128
5.1011879
5.1703497
5.2551233
5.3612101
5.4979808
5.6962423
6.2461433
5.0664541
5.1356265
5.2202231
5.3258013
5.4614583
5.6585063
6.2151672
5.1853977
5.290432
5.424957
5.6207876
6.1838287
5.3884798
5.5830622
6.1519082
6.1192369
)
;

boundaryField
{
    Side
    {
        type            empty;
    }
    Inlet
    {
        type            turbulentIntensityKineticEnergyInlet;
        intensity       0.03;
        value           nonuniform List<scalar> 
48
(
12.017352
12.017208
12.017048
12.016896
12.016774
12.01667
12.016572
12.016535
12.016546
12.016564
12.016597
12.016621
12.016629
12.016591
12.016462
12.016213
12.01587
12.01558
12.015539
12.015846
12.016073
12.015761
12.015073
12.014421
12.014701
12.015394
12.015803
12.015828
12.015845
12.01608
12.016555
12.016948
12.016926
12.016714
12.016552
12.016421
12.016193
12.01598
12.015865
12.015761
12.015731
12.015824
12.01607
12.016345
12.016492
12.016475
12.01628
12.015936
)
;
    }
    Airfoil
    {
        type            kqRWallFunction;
        value           nonuniform List<scalar> 0();
    }
    Outlet
    {
        type            inletOutlet;
        inletValue      nonuniform List<scalar> 0();
        value           nonuniform List<scalar> 0();
    }
    procBoundary10to2
    {
        type            processor;
        value           uniform 6.3277517;
    }
    procBoundary10to3
    {
        type            processor;
        value           nonuniform List<scalar> 
23
(
4.3049297
4.470134
4.6326843
4.8118513
5.0062005
5.2091583
5.410397
5.6112668
5.8217764
5.8217764
6.6749348
4.1703775
4.057854
3.9627642
3.875938
3.7888764
3.6992263
3.6110327
3.5296097
3.4561816
3.387444
3.3200756
3.2541257
)
;
    }
    procBoundary10to9
    {
        type            processor;
        value           nonuniform List<scalar> 
66
(
6.3124034
7.0095216
6.9790066
6.4753355
6.3137755
6.4502337
6.6572393
6.8308041
6.9432195
6.9950739
6.9958996
6.9958996
7.0393415
6.9632446
6.8703862
6.7686355
6.6639062
6.5601583
6.4599981
6.3659345
6.2812449
6.2091508
6.1517063
6.1087322
6.0777907
6.0554481
6.0554481
6.0809233
6.0689915
6.0602677
6.0538854
6.0495147
6.046737
6.046737
6.0839251
6.0834171
6.0843622
6.0843622
6.1232657
6.1274734
6.1341852
6.1341852
6.1781714
6.1912964
6.1912964
6.2418497
6.2418497
6.2971274
6.3283178
6.3283178
6.4004344
6.4004344
6.4857298
6.4857298
6.6189168
6.5901976
6.5901976
6.751685
6.751685
6.9598435
6.9314757
6.9314757
7.254464
7.2254989
7.2254989
7.774009
)
;
    }
    procBoundary10to11
    {
        type            processor;
        value           nonuniform List<scalar> 
58
(
3.2016266
3.5255284
3.8622998
4.1177139
4.3343986
4.5353943
4.7147453
4.7147453
4.8238704
4.9287482
4.9968913
5.0330299
5.0448459
5.0405144
5.0164837
4.9849468
4.9501723
4.9160466
4.8855332
4.8604335
4.8604335
4.793018
4.7818896
4.7760345
4.7742225
4.7744141
4.7770113
4.7817892
4.788248
4.788248
4.7561768
4.7657846
4.7765925
4.788625
4.8019768
4.8167966
4.8333277
4.8333277
4.8147776
4.8359767
4.8599081
4.8870863
4.8870863
4.8826055
4.9185647
4.9601975
5.0088676
5.0088676
5.0318645
5.1010174
5.1010174
5.1506437
5.255101
5.255101
5.3520234
5.5452947
5.5452947
6.085822
)
;
    }
}


// ************************************************************************* //
