/*--------------------------------*- C++ -*----------------------------------*\
| =========                 |                                                 |
| \\      /  F ield         | OpenFOAM: The Open Source CFD Toolbox           |
|  \\    /   O peration     | Version:  2506                                  |
|   \\  /    A nd           | Website:  www.openfoam.com                      |
|    \\/     M anipulation  |                                                 |
\*---------------------------------------------------------------------------*/
FoamFile
{
    version     2.0;
    format      ascii;
    arch        "LSB;label=32;scalar=64";
    class       volScalarField;
    location    "0.0005";
    object      Ma;
}
// * * * * * * * * * * * * * * * * * * * * * * * * * * * * * * * * * * * * * //

dimensions      [0 0 0 0 0 0 0];

internalField   nonuniform List<scalar> 
192657
(
0.29959466
0.29959123
0.29959232
0.29959231
0.29959231
0.29959231
0.29959231
0.29959231
0.29959231
0.29959231
0.29959231
0.29959231
0.29959231
0.29959231
0.29959231
0.29959231
0.29959231
0.29959231
0.29959231
0.29959231
0.29959231
0.29959231
0.29959231
0.29959231
0.29959231
0.29959231
0.29959231
0.29959231
0.29959231
0.29959231
0.29959231
0.29959231
0.29959231
0.29959231
0.29959231
0.29959231
0.29959231
0.29959231
0.29959231
0.29959231
0.29959231
0.29959231
0.29959231
0.29959231
0.29959231
0.29959231
0.29959231
0.29959228
0.29959132
0.29958463
0.29956448
0.29952677
0.29953811
0.29995423
0.30157117
0.30552308
0.31074627
0.31425335
0.31612579
0.31831523
0.32334322
0.32768989
0.32942193
0.3314111
0.33493586
0.33718416
0.33984346
0.34197518
0.34452141
0.34654601
0.34907837
0.35089638
0.353029
0.35450306
0.35645209
0.35758919
0.35888982
0.35897582
0.35987297
0.36039943
0.36224175
0.36396821
0.36437933
0.36561494
0.36665144
0.36767606
0.36749442
0.36812517
0.36855336
0.36860695
0.36879283
0.36927794
0.36992114
0.37061968
0.37124961
0.37182377
0.37246634
0.3732595
0.37409708
0.37481619
0.37544144
0.37599802
0.37652258
0.37703294
0.37753179
0.37799698
0.37849956
0.37901561
0.37956248
0.38011694
0.38071738
0.38130325
0.3814617
0.37989162
0.37613323
0.37240381
0.36879055
0.36501005
0.36091579
0.35651334
0.35187102
0.34706019
0.34213164
0.33711436
0.33202417
0.32686726
0.32164169
0.31633898
0.31094418
0.3054385
0.29979843
0.29399324
0.28798778
0.28174071
0.27520168
0.26830984
0.26097186
0.25304476
0.24428213
0.23437015
0.2228798
0.20916831
0.19231543
0.17114252
0.14470958
0.11363373
0.080457326
0.047559208
0.015819504
0.29959465
0.29959126
0.29959232
0.29959231
0.29959231
0.29959231
0.29959231
0.29959231
0.29959231
0.29959231
0.29959231
0.29959231
0.29959231
0.29959231
0.29959231
0.29959231
0.29959231
0.29959231
0.29959231
0.29959231
0.29959231
0.29959231
0.29959231
0.29959231
0.29959231
0.29959231
0.29959231
0.29959231
0.29959231
0.29959231
0.29959231
0.29959231
0.29959231
0.29959231
0.29959231
0.29959231
0.29959231
0.29959231
0.29959231
0.29959231
0.29959231
0.29959231
0.29959231
0.29959231
0.29959231
0.29959231
0.29959231
0.29959229
0.29959149
0.29958529
0.29956553
0.29952669
0.29953903
0.29996178
0.30167508
0.30567359
0.31049741
0.3137235
0.31587218
0.3183834
0.32336481
0.32718129
0.32904446
0.33118292
0.33474248
0.33693851
0.33963024
0.34176248
0.34436629
0.34648401
0.34904563
0.35084183
0.35300381
0.35447302
0.35642963
0.35752428
0.35880414
0.35890566
0.359855
0.36040435
0.36228226
0.36401769
0.36445169
0.36572426
0.36671955
0.36777095
0.3675656
0.36822628
0.36864018
0.3686381
0.36881866
0.36928724
0.36989569
0.37055829
0.37112643
0.37164463
0.37222415
0.37297628
0.37372882
0.37432901
0.37483882
0.3752785
0.37568781
0.37608414
0.37645659
0.37677542
0.37700664
0.37711843
0.37716757
0.37738679
0.37765933
0.3778321
0.37723818
0.37407364
0.36961541
0.36551635
0.36142851
0.35706201
0.35233149
0.34730101
0.34205712
0.33667042
0.33118903
0.32564206
0.32004423
0.31439858
0.30869912
0.30293258
0.29707822
0.29111008
0.28499504
0.27869121
0.27214986
0.26531148
0.25809879
0.25041359
0.2421311
0.23308821
0.22307243
0.21180487
0.19890336
0.18384336
0.16593573
0.1444146
0.11901607
0.091068408
0.063089617
0.036617103
0.011948758
0.29959496
0.29959129
0.29959231
0.29959231
0.29959231
0.29959231
0.29959231
0.29959231
0.29959231
0.29959231
0.29959231
0.29959231
0.29959231
0.29959231
0.29959231
0.29959231
0.29959231
0.29959231
0.29959231
0.29959231
0.29959231
0.29959231
0.29959231
0.29959231
0.29959231
0.29959231
0.29959231
0.29959231
0.29959231
0.29959231
0.29959231
0.29959231
0.29959231
0.29959231
0.29959231
0.29959231
0.29959231
0.29959231
0.29959231
0.29959231
0.29959231
0.29959231
0.29959231
0.29959231
0.29959231
0.29959231
0.29959231
0.29959229
0.29959161
0.29958563
0.29956419
0.29951579
0.29949068
0.29980835
0.30142463
0.30522227
0.31008507
0.31370037
0.31586188
0.31800168
0.32283302
0.32693778
0.32912262
0.33102055
0.3344479
0.33678497
0.33952262
0.34167643
0.34433354
0.3463902
0.34892587
0.35072373
0.35291716
0.35441802
0.35643526
0.35750962
0.35880328
0.35887832
0.35988195
0.36045349
0.3623304
0.36408886
0.36448112
0.36575471
0.36677464
0.36784662
0.36756188
0.36824494
0.36861113
0.36853236
0.36870289
0.36915475
0.36972996
0.37035217
0.37084674
0.37130307
0.37183335
0.3725113
0.37317778
0.37369082
0.37409583
0.37442499
0.37472047
0.37500388
0.37525929
0.3754972
0.37578266
0.37610714
0.37645569
0.37669827
0.37687145
0.37690742
0.37602296
0.372429
0.3679396
0.36381214
0.35965289
0.35520607
0.35042787
0.34536684
0.3401028
0.33470236
0.32921126
0.32365706
0.31805366
0.31240383
0.3067017
0.30093444
0.29508201
0.28911955
0.28301576
0.27673196
0.27022481
0.26344157
0.2563122
0.24874532
0.24062091
0.23177955
0.22200827
0.21101298
0.19839764
0.18361557
0.16595371
0.14464306
0.11946262
0.09171581
0.063755289
0.037110357
0.012143523
0.29959509
0.29959134
0.29959231
0.29959231
0.29959231
0.29959231
0.29959231
0.29959231
0.29959231
0.29959231
0.29959231
0.29959231
0.29959231
0.29959231
0.29959231
0.29959231
0.29959231
0.29959231
0.29959231
0.29959231
0.29959231
0.29959231
0.29959231
0.29959231
0.29959231
0.29959231
0.29959231
0.29959231
0.29959231
0.29959231
0.29959231
0.29959231
0.29959231
0.29959231
0.29959231
0.29959231
0.29959231
0.29959231
0.29959231
0.29959231
0.29959231
0.29959231
0.29959231
0.29959231
0.29959231
0.29959231
0.29959231
0.2995923
0.29959172
0.29958602
0.29956362
0.2995097
0.29946906
0.29975742
0.30142868
0.30529776
0.31008639
0.31337143
0.31545493
0.31777071
0.32294606
0.32680184
0.32872604
0.33058034
0.33423131
0.33660847
0.33932276
0.34148173
0.34411274
0.34618602
0.34881269
0.35063493
0.35289385
0.35443948
0.35646498
0.35752274
0.35884691
0.35891461
0.35990235
0.36044697
0.36234869
0.36412508
0.36448352
0.36576522
0.36678386
0.36786903
0.36756869
0.36822938
0.36856049
0.36845917
0.36858288
0.36898784
0.3695126
0.37008196
0.37052018
0.37092231
0.37139151
0.37201534
0.3726261
0.3730843
0.37343646
0.37370686
0.37394256
0.37416365
0.37435368
0.3744972
0.37454068
0.3746665
0.37476361
0.37485975
0.37494966
0.37490162
0.37379204
0.36998635
0.36549747
0.36134895
0.35713077
0.35258397
0.34766655
0.34245304
0.33703247
0.33147433
0.32582545
0.32011452
0.31435623
0.30855373
0.30270135
0.29678619
0.29078792
0.28468091
0.27843234
0.27200079
0.26533893
0.25839032
0.25108401
0.24333185
0.23502312
0.22601539
0.2161226
0.20509357
0.19254946
0.17795871
0.16062326
0.13978734
0.11523916
0.088287971
0.061248761
0.035586058
0.011621806
0.29959529
0.2995914
0.29959231
0.29959231
0.29959231
0.29959231
0.29959231
0.29959231
0.29959231
0.29959231
0.29959231
0.29959231
0.29959231
0.29959231
0.29959231
0.29959231
0.29959231
0.29959231
0.29959231
0.29959231
0.29959231
0.29959231
0.29959231
0.29959231
0.29959231
0.29959231
0.29959231
0.29959231
0.29959231
0.29959231
0.29959231
0.29959231
0.29959231
0.29959231
0.29959231
0.29959231
0.29959231
0.29959231
0.29959231
0.29959231
0.29959231
0.29959231
0.29959231
0.29959231
0.29959231
0.29959231
0.29959231
0.2995923
0.29959178
0.29958624
0.29956252
0.29950008
0.29942882
0.29963509
0.30120596
0.3048898
0.3095379
0.31302954
0.31545929
0.31767546
0.32249596
0.3262213
0.32855385
0.33057192
0.33409664
0.33638765
0.33915224
0.34131248
0.34400618
0.34613344
0.34875912
0.35056613
0.35285801
0.35437302
0.35638663
0.35743414
0.35880547
0.35885987
0.35987735
0.36042202
0.36233767
0.36414651
0.36454005
0.36587945
0.36685214
0.36793939
0.36764028
0.36827929
0.36856506
0.36838861
0.36849789
0.36889093
0.36939492
0.3699373
0.37031631
0.37065934
0.37109136
0.37169095
0.37226116
0.37266801
0.37296256
0.37317889
0.37336335
0.37353977
0.37371827
0.37389203
0.37405629
0.37412731
0.37418006
0.37424644
0.37430666
0.37422167
0.37298632
0.36903101
0.36454947
0.36038548
0.35613076
0.35153816
0.34657606
0.3413216
0.33586318
0.33026877
0.32458381
0.31883775
0.31304622
0.3072131
0.30133344
0.29539525
0.2893794
0.28326174
0.2770111
0.27058754
0.26394443
0.25702444
0.24975519
0.24204576
0.23378002
0.22480762
0.21493129
0.20388481
0.19129432
0.17664083
0.15924537
0.13838242
0.11388487
0.087097877
0.060325658
0.03499741
0.011410798
0.29959547
0.29959147
0.29959231
0.29959231
0.29959231
0.29959231
0.29959231
0.29959231
0.29959231
0.29959231
0.29959231
0.29959231
0.29959231
0.29959231
0.29959231
0.29959231
0.29959231
0.29959231
0.29959231
0.29959231
0.29959231
0.29959231
0.29959231
0.29959231
0.29959231
0.29959231
0.29959231
0.29959231
0.29959231
0.29959231
0.29959231
0.29959231
0.29959231
0.29959231
0.29959231
0.29959231
0.29959231
0.29959231
0.29959231
0.29959231
0.29959231
0.29959231
0.29959231
0.29959231
0.29959231
0.29959231
0.29959231
0.2995923
0.29959183
0.29958638
0.29956157
0.2994923
0.29939909
0.29956648
0.30112864
0.30486364
0.30957448
0.31294725
0.31517605
0.31724086
0.32225762
0.32625294
0.32846568
0.33017855
0.33371127
0.33613525
0.33897794
0.34117561
0.34387196
0.34592982
0.34857143
0.35040148
0.35274305
0.35427508
0.35633505
0.35742002
0.35886366
0.35889835
0.35989484
0.36037859
0.3623245
0.36413476
0.36454795
0.36586973
0.36690002
0.36801115
0.36763069
0.36825793
0.36850513
0.36830912
0.36837572
0.36872765
0.36919695
0.36970137
0.37005863
0.37038474
0.37078077
0.37134571
0.37189812
0.37229126
0.37257264
0.37276543
0.37292912
0.37308746
0.3732324
0.37337196
0.37346645
0.37353072
0.37359039
0.37366402
0.37373979
0.37366022
0.37237522
0.36834899
0.36387335
0.35969253
0.35539454
0.35074006
0.34570561
0.34037287
0.33483289
0.32915533
0.32338596
0.31755413
0.31167492
0.30575227
0.29978151
0.29375093
0.28764151
0.2814293
0.27508371
0.26856629
0.26183338
0.25483283
0.24749594
0.23973447
0.2314359
0.22245312
0.21259163
0.20158714
0.18906589
0.17450816
0.1572368
0.13653631
0.11226211
0.085777014
0.059364191
0.034416442
0.011213156
0.29959573
0.29959153
0.29959232
0.29959231
0.29959231
0.29959231
0.29959231
0.29959231
0.29959231
0.29959231
0.29959231
0.29959231
0.29959231
0.29959231
0.29959231
0.29959231
0.29959231
0.29959231
0.29959231
0.29959231
0.29959231
0.29959231
0.29959231
0.29959231
0.29959231
0.29959231
0.29959231
0.29959231
0.29959231
0.29959231
0.29959231
0.29959231
0.29959231
0.29959231
0.29959231
0.29959231
0.29959231
0.29959231
0.29959231
0.29959231
0.29959231
0.29959231
0.29959231
0.29959231
0.29959231
0.29959231
0.29959231
0.2995923
0.29959185
0.29958642
0.29956035
0.29948346
0.2993626
0.29946842
0.30092674
0.30451924
0.30905178
0.31243471
0.31493296
0.31718259
0.32206163
0.32579074
0.32796155
0.32994803
0.33366665
0.33602154
0.33882459
0.34097343
0.34364538
0.34576064
0.34848029
0.35032323
0.35271859
0.35425052
0.35631357
0.35741844
0.35891116
0.35891044
0.35988627
0.36036197
0.36230672
0.36419589
0.36456531
0.36591268
0.36694065
0.36798718
0.36758318
0.36821963
0.36843472
0.36819227
0.36826775
0.36862839
0.36910139
0.36960096
0.36993555
0.3702496
0.37065547
0.37123585
0.37178777
0.37217007
0.37243709
0.372624
0.3727852
0.37294567
0.37309966
0.37319902
0.37326957
0.373323
0.37337529
0.37344442
0.37352614
0.37344718
0.37213353
0.36808298
0.36362029
0.35943672
0.3551249
0.35045018
0.34539145
0.34003107
0.33446015
0.32875198
0.32295826
0.31710334
0.31120067
0.30525433
0.29926071
0.29320908
0.28708076
0.28085163
0.27449082
0.26795911
0.26121153
0.25419359
0.24683507
0.23904664
0.23071493
0.2216943
0.21179335
0.20075255
0.18820382
0.17363367
0.15637095
0.13570564
0.1114996
0.085123144
0.058860527
0.034095644
0.011097937
0.29959605
0.29959158
0.29959232
0.29959231
0.29959231
0.29959231
0.29959231
0.29959231
0.29959231
0.29959231
0.29959231
0.29959231
0.29959231
0.29959231
0.29959231
0.29959231
0.29959231
0.29959231
0.29959231
0.29959231
0.29959231
0.29959231
0.29959231
0.29959231
0.29959231
0.29959231
0.29959231
0.29959231
0.29959231
0.29959231
0.29959231
0.29959231
0.29959231
0.29959231
0.29959231
0.29959231
0.29959231
0.29959231
0.29959231
0.29959231
0.29959231
0.29959231
0.29959231
0.29959231
0.29959231
0.29959231
0.29959231
0.2995923
0.29959187
0.29958639
0.29955905
0.29947524
0.29932995
0.29939148
0.30079508
0.30440412
0.3090026
0.31243472
0.3148282
0.31686191
0.32157465
0.32557211
0.32792474
0.32983181
0.33336209
0.33568243
0.3385646
0.34076143
0.34353423
0.3456694
0.3483537
0.35018346
0.35259898
0.35410304
0.3561844
0.35732317
0.35888643
0.35886173
0.35983754
0.36027291
0.36230506
0.3642274
0.36464866
0.36596789
0.36694901
0.36808647
0.36765025
0.36825652
0.36847912
0.36821873
0.36825898
0.3685988
0.36906044
0.36954925
0.36987454
0.37018154
0.37056662
0.37113363
0.37169583
0.37209793
0.37238702
0.37258488
0.37275347
0.37291068
0.37304204
0.37315282
0.37323597
0.37329192
0.37333875
0.37339814
0.37347366
0.37338405
0.37205013
0.36800991
0.36355958
0.3593786
0.35506496
0.35038698
0.34532422
0.33995706
0.33437389
0.32864155
0.32280547
0.31689844
0.31093802
0.30493114
0.2988753
0.29275999
0.28656632
0.28027014
0.27384193
0.2672438
0.26043208
0.25335382
0.24594082
0.23810698
0.22974226
0.22070142
0.21079245
0.19975448
0.1872186
0.17267185
0.15544561
0.13483617
0.11071709
0.084469081
0.058370139
0.033789508
0.010989173
0.29959638
0.29959161
0.29959232
0.29959231
0.29959231
0.29959231
0.29959231
0.29959231
0.29959231
0.29959231
0.29959231
0.29959231
0.29959231
0.29959231
0.29959231
0.29959231
0.29959231
0.29959231
0.29959231
0.29959231
0.29959231
0.29959231
0.29959231
0.29959231
0.29959231
0.29959231
0.29959231
0.29959231
0.29959231
0.29959231
0.29959231
0.29959231
0.29959231
0.29959231
0.29959231
0.29959231
0.29959231
0.29959231
0.29959231
0.29959231
0.29959231
0.29959231
0.29959231
0.29959231
0.29959231
0.29959231
0.29959231
0.2995923
0.29959188
0.29958637
0.29955772
0.29946671
0.29929516
0.29930225
0.30060431
0.30410714
0.30855047
0.31189829
0.31440968
0.3166195
0.32140338
0.32539899
0.32746024
0.32934214
0.33312317
0.33556713
0.33845046
0.34064194
0.34337497
0.34544386
0.3481661
0.35003749
0.35250358
0.35403179
0.35617299
0.35734467
0.35894867
0.35887345
0.35984382
0.36029237
0.36235786
0.36432133
0.36470207
0.36600329
0.36703423
0.36814346
0.36762278
0.36825733
0.36845288
0.36815188
0.36819331
0.36855219
0.36903166
0.3695345
0.36985921
0.37016937
0.37057363
0.37117631
0.37176296
0.37217273
0.37246081
0.37266025
0.37283329
0.37301035
0.37318606
0.37332152
0.37341091
0.37348314
0.37355471
0.37364084
0.37371795
0.37361853
0.37223194
0.36816141
0.36371702
0.35952738
0.35519739
0.35049816
0.34541035
0.34001654
0.33440712
0.32865186
0.32279822
0.31687617
0.31090297
0.30488263
0.29881021
0.29267485
0.28645996
0.28014412
0.27369641
0.26708131
0.26025489
0.2531639
0.24573954
0.23789357
0.2295144
0.22045701
0.21053059
0.19947621
0.18692727
0.172373
0.15514592
0.13454337
0.11044017
0.084220447
0.058167123
0.033651076
0.010934589
0.29959668
0.29959163
0.29959232
0.29959231
0.29959231
0.29959231
0.29959231
0.29959231
0.29959231
0.29959231
0.29959231
0.29959231
0.29959231
0.29959231
0.29959231
0.29959231
0.29959231
0.29959231
0.29959231
0.29959231
0.29959231
0.29959231
0.29959231
0.29959231
0.29959231
0.29959231
0.29959231
0.29959231
0.29959231
0.29959231
0.29959231
0.29959231
0.29959231
0.29959231
0.29959231
0.29959231
0.29959231
0.29959231
0.29959231
0.29959231
0.29959231
0.29959231
0.29959231
0.29959231
0.29959231
0.29959231
0.29959231
0.2995923
0.29959188
0.29958637
0.29955642
0.2994583
0.29926183
0.29921938
0.30044298
0.30392354
0.30840584
0.31188041
0.31434307
0.31645399
0.32098241
0.32497762
0.32717456
0.32928852
0.33305888
0.33532972
0.33815535
0.34034876
0.34313757
0.34530113
0.34808144
0.34994677
0.35241983
0.35392397
0.35608975
0.35726965
0.35891084
0.35879906
0.35978474
0.36023337
0.36236009
0.36440527
0.36475049
0.36606607
0.36708433
0.36822
0.36771063
0.36833308
0.36856039
0.36827541
0.36830665
0.36866005
0.36914097
0.36964169
0.36997718
0.37029694
0.37069729
0.37129951
0.37190775
0.37234701
0.37266063
0.37287538
0.37306125
0.37323748
0.37338726
0.37350888
0.37361419
0.37369586
0.37377281
0.37386865
0.3739712
0.3739
0.37255495
0.36853257
0.36411827
0.35994731
0.35562821
0.35093306
0.34584107
0.34043286
0.33479847
0.32900879
0.32311322
0.31714312
0.31111617
0.30503958
0.29891292
0.29272858
0.28647048
0.28011704
0.27363999
0.2669984
0.26014795
0.25303455
0.24558816
0.23772166
0.22932622
0.22025753
0.21032489
0.19926892
0.18672201
0.17217267
0.15495401
0.13436131
0.11026508
0.084051235
0.058015319
0.033538603
0.010886974
0.29959699
0.29959164
0.29959232
0.29959231
0.29959231
0.29959231
0.29959231
0.29959231
0.29959231
0.29959231
0.29959231
0.29959231
0.29959231
0.29959231
0.29959231
0.29959231
0.29959231
0.29959231
0.29959231
0.29959231
0.29959231
0.29959231
0.29959231
0.29959231
0.29959231
0.29959231
0.29959231
0.29959231
0.29959231
0.29959231
0.29959231
0.29959231
0.29959231
0.29959231
0.29959231
0.29959231
0.29959231
0.29959231
0.29959231
0.29959231
0.29959231
0.29959231
0.29959231
0.29959231
0.29959231
0.29959231
0.29959231
0.2995923
0.29959188
0.29958632
0.2995551
0.29944996
0.29922817
0.29913097
0.30026128
0.30364255
0.30802337
0.31140461
0.3138527
0.31607614
0.32067421
0.32484088
0.32693343
0.32884121
0.33262636
0.33502109
0.33796147
0.34023701
0.3430633
0.34517528
0.34791854
0.34976315
0.35225751
0.35378662
0.3560335
0.3572185
0.35888697
0.35872485
0.35974547
0.36023024
0.36243192
0.36450259
0.3648909
0.36617846
0.36721294
0.3684093
0.36785569
0.36850013
0.36873531
0.368399
0.36842253
0.36878657
0.36928222
0.36980262
0.37014125
0.37046699
0.37088318
0.37151482
0.3721496
0.37260522
0.37293265
0.37316277
0.37336422
0.37356395
0.3737561
0.37390664
0.37401294
0.37410372
0.37418833
0.37428217
0.37437369
0.37428224
0.37289883
0.36886534
0.36446267
0.36030414
0.35599773
0.35131656
0.34623919
0.34084366
0.33521824
0.32943249
0.32353478
0.31755628
0.31151494
0.30541774
0.29926284
0.29304193
0.28674018
0.28033756
0.27380643
0.26711058
0.26020796
0.25304696
0.2455603
0.23766162
0.22923783
0.22014412
0.21018972
0.19911566
0.18655515
0.17199734
0.1547745
0.13418031
0.11008293
0.083871824
0.057854555
0.03342086
0.010838232
0.29959731
0.29959165
0.29959232
0.29959231
0.29959231
0.29959231
0.29959231
0.29959231
0.29959231
0.29959231
0.29959231
0.29959231
0.29959231
0.29959231
0.29959231
0.29959231
0.29959231
0.29959231
0.29959231
0.29959231
0.29959231
0.29959231
0.29959231
0.29959231
0.29959231
0.29959231
0.29959231
0.29959231
0.29959231
0.29959231
0.29959231
0.29959231
0.29959231
0.29959231
0.29959231
0.29959231
0.29959231
0.29959231
0.29959231
0.29959231
0.29959231
0.29959231
0.29959231
0.29959231
0.29959231
0.29959231
0.29959231
0.2995923
0.29959188
0.29958621
0.2995537
0.29944183
0.29919523
0.29904313
0.30009397
0.30340148
0.30780622
0.31130931
0.31377959
0.31599045
0.32039192
0.32441978
0.32646384
0.32857846
0.33259616
0.33495172
0.33776872
0.33997967
0.34275684
0.34488913
0.34771893
0.34962102
0.3521714
0.3537411
0.35604467
0.35721206
0.35889455
0.35868183
0.35969831
0.36018214
0.36240623
0.3645658
0.36490198
0.36621802
0.3673191
0.36855001
0.3679863
0.36862949
0.36888349
0.36855739
0.36856759
0.36893581
0.36944195
0.3699767
0.37033203
0.37067198
0.37109252
0.37174207
0.37241406
0.37290842
0.37326539
0.37351157
0.37372401
0.37392345
0.3741003
0.37425056
0.37437814
0.37448099
0.37457825
0.37469474
0.3748177
0.3747611
0.37342024
0.36943263
0.36505446
0.36091276
0.3566207
0.35195118
0.34688145
0.34148872
0.33585927
0.33006243
0.32414808
0.31814873
0.31208356
0.30596066
0.29977925
0.29353105
0.28720025
0.28076664
0.27420326
0.26747396
0.26053616
0.2533378
0.24581117
0.23787013
0.22940475
0.22027157
0.2102811
0.1991755
0.18658893
0.17201107
0.15477374
0.13416662
0.1100504
0.083814329
0.057781769
0.033356334
0.010808084
0.29959765
0.29959167
0.29959232
0.29959231
0.29959231
0.29959231
0.29959231
0.29959231
0.29959231
0.29959231
0.29959231
0.29959231
0.29959231
0.29959231
0.29959231
0.29959231
0.29959231
0.29959231
0.29959231
0.29959231
0.29959231
0.29959231
0.29959231
0.29959231
0.29959231
0.29959231
0.29959231
0.29959231
0.29959231
0.29959231
0.29959231
0.29959231
0.29959231
0.29959231
0.29959231
0.29959231
0.29959231
0.29959231
0.29959231
0.29959231
0.29959231
0.29959231
0.29959231
0.29959231
0.29959231
0.29959231
0.29959231
0.2995923
0.29959188
0.29958607
0.29955224
0.29943385
0.29916252
0.29895204
0.29991986
0.30311117
0.30746646
0.31091522
0.31328714
0.31553293
0.31995769
0.32413957
0.32629592
0.32834274
0.33222326
0.3345154
0.3374064
0.33973634
0.34261514
0.34481009
0.34765076
0.34951341
0.35205176
0.35361571
0.35595086
0.35711443
0.35882088
0.35857841
0.35964705
0.36013877
0.36240793
0.36463048
0.36501982
0.36635806
0.3674683
0.36873857
0.36821152
0.36888161
0.3691658
0.36881611
0.36883129
0.369221
0.36974877
0.37030859
0.37067698
0.37102614
0.37146333
0.37214137
0.37283928
0.37334681
0.37371152
0.3739643
0.37418874
0.37441833
0.37464463
0.37481972
0.37494897
0.37505971
0.37516295
0.37527704
0.37538805
0.37531661
0.37398101
0.37001567
0.3656332
0.36148736
0.35719967
0.35254416
0.34749458
0.34212425
0.3365166
0.33073692
0.32483112
0.31883084
0.31275658
0.30661753
0.30041393
0.2941391
0.28777872
0.28131291
0.27471463
0.26794875
0.26097403
0.25373922
0.24617714
0.23820189
0.22970356
0.22053867
0.21051773
0.19938298
0.18676867
0.17216445
0.15490126
0.13426577
0.11011299
0.083833494
0.057766616
0.033328696
0.010791652
0.299598
0.29959168
0.29959232
0.29959231
0.29959231
0.29959231
0.29959231
0.29959231
0.29959231
0.29959231
0.29959231
0.29959231
0.29959231
0.29959231
0.29959231
0.29959231
0.29959231
0.29959231
0.29959231
0.29959231
0.29959231
0.29959231
0.29959231
0.29959231
0.29959231
0.29959231
0.29959231
0.29959231
0.29959231
0.29959231
0.29959231
0.29959231
0.29959231
0.29959231
0.29959231
0.29959231
0.29959231
0.29959231
0.29959231
0.29959231
0.29959231
0.29959231
0.29959231
0.29959231
0.29959231
0.29959231
0.29959231
0.2995923
0.29959189
0.29958594
0.29955076
0.29942596
0.2991303
0.29885947
0.29974874
0.30283164
0.30720025
0.31073481
0.31318033
0.31546031
0.31977218
0.32383738
0.32585307
0.32788536
0.33198194
0.33441533
0.33731811
0.33961217
0.34240093
0.34453145
0.34736974
0.34926572
0.35186332
0.35349581
0.35591232
0.357092
0.35884686
0.35857694
0.35962885
0.36010568
0.36239126
0.36468048
0.36508511
0.36642381
0.3676128
0.36898691
0.3684227
0.36910468
0.36942185
0.36907847
0.36907616
0.36946586
0.37000015
0.3705766
0.37097047
0.37134132
0.37177748
0.37246575
0.37320046
0.37375041
0.37415286
0.37443306
0.37467613
0.374904
0.37510672
0.37528464
0.37543257
0.37555452
0.3756675
0.37579788
0.37593805
0.37591448
0.37468485
0.37082799
0.36646118
0.36231703
0.35803063
0.35337845
0.34833468
0.34297178
0.33737176
0.33159897
0.32569802
0.31969786
0.31361651
0.30746366
0.30124112
0.29494284
0.28855505
0.28205882
0.27542787
0.26862717
0.26161575
0.25434305
0.24674245
0.23872861
0.23019218
0.22099017
0.21093358
0.19976507
0.18711918
0.17248538
0.155193
0.13452341
0.11032162
0.083975964
0.057843907
0.033359208
0.010796416
0.29959836
0.29959169
0.29959232
0.29959231
0.29959231
0.29959231
0.29959231
0.29959231
0.29959231
0.29959231
0.29959231
0.29959231
0.29959231
0.29959231
0.29959231
0.29959231
0.29959231
0.29959231
0.29959231
0.29959231
0.29959231
0.29959231
0.29959231
0.29959231
0.29959231
0.29959231
0.29959231
0.29959231
0.29959231
0.29959231
0.29959231
0.29959231
0.29959231
0.29959231
0.29959231
0.29959231
0.29959231
0.29959231
0.29959231
0.29959231
0.29959231
0.29959231
0.29959231
0.29959231
0.29959231
0.29959231
0.29959231
0.2995923
0.2995919
0.29958584
0.29954934
0.2994182
0.29909854
0.2987642
0.29957304
0.3025302
0.3068748
0.31039325
0.31275303
0.31496102
0.31924314
0.32340527
0.32557275
0.32770487
0.33178655
0.33407819
0.33692402
0.33925997
0.34210923
0.34432624
0.34725632
0.34917828
0.35180023
0.35343513
0.35585644
0.35702805
0.35882514
0.35852356
0.35957893
0.36004813
0.36235533
0.36474736
0.36511849
0.36651508
0.36776619
0.36912172
0.36862134
0.36931658
0.36967592
0.36934061
0.36935035
0.36977011
0.37033128
0.37094456
0.37135534
0.37173671
0.37219158
0.37291744
0.37369516
0.37427418
0.37469781
0.37499289
0.37525248
0.3755104
0.37576376
0.37595924
0.37610789
0.37623512
0.37635132
0.37647888
0.37660893
0.3765746
0.37535309
0.37152731
0.36718584
0.36306249
0.35879488
0.35416235
0.34914034
0.34380062
0.3382239
0.33247292
0.32659077
0.32060516
0.31453268
0.30838095
0.30215117
0.29583859
0.28943067
0.28290934
0.27624929
0.26941654
0.26237099
0.25506244
0.24742459
0.23937248
0.23079714
0.22155596
0.21146027
0.20025296
0.18756867
0.17289655
0.15556449
0.13484939
0.11058822
0.084167897
0.05796152
0.033417331
0.010811784
0.29959873
0.2995917
0.29959232
0.29959231
0.29959231
0.29959231
0.29959231
0.29959231
0.29959231
0.29959231
0.29959231
0.29959231
0.29959231
0.29959231
0.29959231
0.29959231
0.29959231
0.29959231
0.29959231
0.29959231
0.29959231
0.29959231
0.29959231
0.29959231
0.29959231
0.29959231
0.29959231
0.29959231
0.29959231
0.29959231
0.29959231
0.29959231
0.29959231
0.29959231
0.29959231
0.29959231
0.29959231
0.29959231
0.29959231
0.29959231
0.29959231
0.29959231
0.29959231
0.29959231
0.29959231
0.29959231
0.29959231
0.2995923
0.29959191
0.29958577
0.29954802
0.29941061
0.29906718
0.29866666
0.2993958
0.30223171
0.30657293
0.31015805
0.31257364
0.31481999
0.31909141
0.32321646
0.32526091
0.32726822
0.33139486
0.33380933
0.33678255
0.33918497
0.34199662
0.34413986
0.34702412
0.34893354
0.35157418
0.35321905
0.35568967
0.35690595
0.35879002
0.35849758
0.35958211
0.36002679
0.36234709
0.36480709
0.36526046
0.36662505
0.36789869
0.3694025
0.36892918
0.36963121
0.37003449
0.36970276
0.36969474
0.37012695
0.37070414
0.37133833
0.37177429
0.37217774
0.37263331
0.37336799
0.37417416
0.37478508
0.3752378
0.37555146
0.37582738
0.37609579
0.37634596
0.37656111
0.37673158
0.37687155
0.37699836
0.37714128
0.37729439
0.37729194
0.37611519
0.37234676
0.36804965
0.36396343
0.35973216
0.35513469
0.35014518
0.34483506
0.33928503
0.33355771
0.32769575
0.32172606
0.3156643
0.30951714
0.30328464
0.29696174
0.29053699
0.28399332
0.2773058
0.2704406
0.26335808
0.25600937
0.24832928
0.2402334
0.23161334
0.22232704
0.21218632
0.20093452
0.18820642
0.17349076
0.15611322
0.13534404
0.11100744
0.084485495
0.058170716
0.033530945
0.010846138
0.29959912
0.29959171
0.29959232
0.29959231
0.29959231
0.29959231
0.29959231
0.29959231
0.29959231
0.29959231
0.29959231
0.29959231
0.29959231
0.29959231
0.29959231
0.29959231
0.29959231
0.29959231
0.29959231
0.29959231
0.29959231
0.29959231
0.29959231
0.29959231
0.29959231
0.29959231
0.29959231
0.29959231
0.29959231
0.29959231
0.29959231
0.29959231
0.29959231
0.29959231
0.29959231
0.29959231
0.29959231
0.29959231
0.29959231
0.29959231
0.29959231
0.29959231
0.29959231
0.29959231
0.29959231
0.29959231
0.29959231
0.29959231
0.29959192
0.29958573
0.29954682
0.29940324
0.29903615
0.29856655
0.29921453
0.30192762
0.30623727
0.30984864
0.3122061
0.31432402
0.31854837
0.3226939
0.32481001
0.32696756
0.33123125
0.33360835
0.33648545
0.33884648
0.34163098
0.34379095
0.34677093
0.34877488
0.35148522
0.35315095
0.35564689
0.35686633
0.35880009
0.35847505
0.35955877
0.35999435
0.36228868
0.36485331
0.36525373
0.36670017
0.36809294
0.36956716
0.36909963
0.36984556
0.37029514
0.369968
0.36997084
0.37042927
0.37103602
0.37171966
0.37219458
0.37261662
0.37307944
0.37384209
0.37469172
0.37534059
0.37582573
0.37616683
0.37646547
0.37675741
0.37703899
0.37726512
0.37744125
0.37759364
0.37773121
0.37787914
0.37803189
0.37802903
0.37687358
0.37313939
0.36884149
0.36476184
0.36055432
0.35599269
0.35104133
0.34576831
0.34025414
0.33456127
0.32873202
0.32279274
0.31675819
0.31063375
0.30441783
0.29810343
0.29167781
0.28512472
0.27842105
0.27153412
0.26442462
0.25704374
0.24932721
0.24119184
0.23252979
0.22319956
0.21301349
0.20171535
0.18894003
0.17417579
0.1567462
0.13591502
0.11149356
0.084858397
0.058421061
0.033669937
0.01088928
0.29959952
0.29959172
0.29959232
0.29959231
0.29959231
0.29959231
0.29959231
0.29959231
0.29959231
0.29959231
0.29959231
0.29959231
0.29959231
0.29959231
0.29959231
0.29959231
0.29959231
0.29959231
0.29959231
0.29959231
0.29959231
0.29959231
0.29959231
0.29959231
0.29959231
0.29959231
0.29959231
0.29959231
0.29959231
0.29959231
0.29959231
0.29959231
0.29959231
0.29959231
0.29959231
0.29959231
0.29959231
0.29959231
0.29959231
0.29959231
0.29959231
0.29959231
0.29959231
0.29959231
0.29959231
0.29959231
0.29959231
0.29959231
0.29959193
0.29958573
0.29954577
0.29939614
0.29900531
0.29846386
0.29902967
0.30162594
0.30589903
0.3095833
0.31197001
0.31407664
0.31838989
0.32256517
0.32460195
0.32667609
0.33085587
0.33322019
0.33619369
0.33868718
0.34152665
0.34367317
0.34662912
0.34863013
0.35133344
0.35296073
0.35544099
0.35668098
0.35870547
0.35838718
0.35949819
0.3599153
0.36223673
0.36490598
0.36537978
0.36681646
0.36824561
0.36982531
0.36942486
0.37015719
0.37065556
0.37035487
0.3703455
0.37081421
0.37143343
0.37214314
0.37264599
0.37309137
0.37355659
0.37432935
0.3752194
0.37591367
0.37643832
0.37680573
0.377123
0.3774237
0.37770384
0.37793944
0.37812785
0.37828487
0.37842571
0.37858049
0.37874838
0.37878413
0.37774801
0.3741429
0.36985347
0.36577
0.36156279
0.35701162
0.35208231
0.34683837
0.34135561
0.33569397
0.32989461