/*--------------------------------*- C++ -*----------------------------------*\
| =========                 |                                                 |
| \\      /  F ield         | OpenFOAM: The Open Source CFD Toolbox           |
|  \\    /   O peration     | Version:  2506                                  |
|   \\  /    A nd           | Website:  www.openfoam.com                      |
|    \\/     M anipulation  |                                                 |
\*---------------------------------------------------------------------------*/
FoamFile
{
    version     2.0;
    format      ascii;
    arch        "LSB;label=32;scalar=64";
    class       volScalarField;
    location    "2.8";
    object      omega;
}
// * * * * * * * * * * * * * * * * * * * * * * * * * * * * * * * * * * * * * //

dimensions      [0 0 -1 0 0 0 0];

internalField   nonuniform List<scalar> 
1375
(
39.750573
39.557656
39.382135
39.222651
39.078333
38.949472
38.836374
38.73992
38.659932
38.603826
38.556118
38.562968
38.597987
38.683622
38.84899
39.139829
39.6339
40.470567
41.893386
44.440591
48.570155
55.181027
66.92176
97.548943
251.83435
1128.9865
58.924649
56.495021
54.405714
52.604599
51.041704
49.676041
48.475977
47.416049
46.475337
45.63737
44.888248
44.216433
43.61222
43.067342
42.574842
42.128906
41.724345
41.356792
41.022283
40.717507
40.439816
40.186458
39.954888
39.743623
39.551106
39.375899
39.216656
39.07261
38.943934
38.830694
38.733926
38.653741
38.59724
38.547688
38.552714
38.584481
38.664967
38.822423
39.10079
39.575464
40.376936
41.747463
44.185883
48.225362
54.684265
66.056868
94.918181
240.45007
1129.7267
58.90764
56.45288
54.347245
52.536215
50.967813
49.599829
48.399317
47.34035
46.401808
45.566666
44.820819
44.152689
43.552353
43.011368
42.522718
42.080503
41.679524
41.315385
40.984068
40.682234
40.407261
40.156386
39.9271
39.717963
39.527381
39.353877
39.196134
39.053542
38.926189
38.813872
38.717824
38.638385
38.582432
38.532864
38.536953
38.566786
38.643656
38.795055
39.064332
39.52254
40.299396
41.614363
43.967811
47.918154
54.23123
65.345199
93.444055
231.60395
1132.5297
58.878893
56.381427
54.248196
52.420383
50.842841
49.470981
48.270443
47.213887
46.279411
45.449123
44.708703
44.046481
43.452302
42.917544
42.435101
41.998921
41.603752
41.245153
40.919032
40.622077
40.351715
40.105137
39.879892
39.674568
39.48755
39.317333
39.16267
39.023113
38.898659
38.788945
38.695564
38.618976
38.565923
38.520711
38.526738
38.559778
38.641593
38.798958
39.074781
39.542125
40.326375
41.661131
43.99437
47.950711
54.34989
65.740262
92.905451
237.449
1137.6499
58.838143
56.280656
54.109234
52.258749
50.669218
49.292732
48.092586
47.039574
46.11072
45.28758
44.555264
43.901535
43.315894
42.789621
42.315534
41.887444
41.500087
41.148957
40.829881
40.539618
40.275614
40.034985
39.815353
39.615324
39.433277
39.267679
39.117371
38.982059
38.861596
38.755621
38.666054
38.593579
38.544442
38.506515
38.515772
38.554559
38.644601
38.81687
39.108754
39.609439
40.413925
41.801458
44.297588
48.352621
54.800297
65.490611
95.306514
233.07917
1144.7724
58.785091
56.15034
53.930809
52.052589
50.449249
49.068089
47.869139
46.821467
45.900541
45.0869
44.365004
43.722046
43.147167
42.631546
42.167865
41.749804
41.37212
41.030211
40.719852
40.437891
40.181734
39.948459
39.735769
39.542253
39.366308
39.206378
39.061425
38.931275
38.815614
38.714243
38.629384
38.561886
38.517243
38.488173
38.500888
38.546391
38.648952
38.830256
39.153921
39.658135
40.54139
41.99856
44.551879
48.666063
55.04447
67.419663
94.945064
242.7432
1153.4818
58.719279
55.990699
53.714647
51.805181
50.186901
48.801528
47.605278
46.564958
45.654217
44.852309
44.142986
43.512929
42.950934
42.447975
41.996578
41.590334
41.224016
40.892876
40.592682
40.320402
40.073332
39.848529
39.643814
39.457809
39.288897
39.135505
38.996775
38.872588
38.762471
38.666485
38.586974
38.525063
38.485366
38.465865
38.482538
38.536607
38.64544
38.848334
39.174978
39.725831
40.635783
42.133533
44.812756
49.254352
56.076967
67.775811
98.787917
249.54705
1163.6147
58.640162
55.801195
53.460184
51.516911
49.884258
48.496674
47.30585
46.275363
45.377198
44.589326
43.894782
43.27975
42.732628
42.244157
41.806715
41.413844
41.060282
40.741101
40.452212
40.190679
39.95365
39.738249
39.54241
39.364747
39.203592
39.057442
38.925567
38.807852
38.703812
38.613897
38.540378
38.485114
38.448569
38.442477
38.463781
38.52408
38.648048
38.861555
39.207897
39.81358
40.708316
42.377933
45.091031
49.499797
56.654599
68.48575
98.856305
246.82442
1174.8562
58.547251
55.583587
53.173284
51.195453
49.549478
48.161483
46.978234
45.959797
45.076343
44.304672
43.627053
43.028871
42.49816
42.025591
41.603379
41.225018
40.885242
40.578989
40.302339
40.052352
39.82608
39.620703
39.434281
39.265467
39.112559
38.974115
38.849607
38.738849
38.641316
38.557871
38.490605
38.442907
38.41028
38.415797
38.443681
38.514213
38.653057
38.876506
39.268777
39.857816
40.949465
42.566996
45.559618
50.23583
57.837761
70.705103
100.33651
262.54072
1186.9427
58.439789
55.336387
52.852053
50.841306
49.185409
47.800772
46.628234
45.624666
44.758366
44.004974
43.346021
42.766089
42.253091
41.797497
41.391437
41.028464
40.70321
40.41055
40.146739
39.908746
39.69364
39.49867
39.322099
39.162562
39.018243
38.887841
38.770899
38.667244
38.576595
38.500067
38.439582
38.399458
38.374187
38.386206
38.424268
38.508733
38.652319
38.90254
39.324016
39.941007
41.005653
42.678513
45.617686
50.938056
58.34139
71.558126
105.14452
264.76341
1199.4952
58.318233
55.063759
52.504033
50.461901
48.799193
47.421101
46.262408
45.276562
44.429737
43.696506
43.057481
42.496841
42.002437
41.564676
41.175465
40.828366
40.517946
40.239248
39.988557
39.762746
39.559101
39.374808
39.208263
39.058016
38.922379
38.800131
38.690978
38.594611
38.510922
38.441473
38.388099
38.355209
38.339468
38.355878
38.405896
38.501956
38.661702
38.956666
39.334878
40.101029
41.148417
43.13648
46.588363
51.575965
59.534677
73.260303
106.31271
271.52605
1212.2335
58.18122
54.764489
52.131197
50.062405
48.397509
47.029923
45.888117
44.922314
44.096664
43.384858
42.766569
42.226035
41.750816
41.331195
40.959223
40.628247
40.332838
40.068228
39.830719
39.617157
39.424892
39.251138
39.09464
38.953769
38.826749
38.712561
38.611138
38.522107
38.445586
38.3832
38.336762
38.310121
38.306922
38.32811
38.389334
38.496756
38.688886
38.950052
39.49461
40.176484
41.322096
43.237063
46.860597
52.275409
60.748668
75.16717
109.72361
290.56181
1224.9323
58.029324
54.443055
51.739
49.648961
47.986761
46.63362
45.511565
44.567777
43.764649
43.075128
42.478227
41.958142
41.502397
41.101018
40.746244
40.431419
40.15083
39.900083
39.675513
39.474137
39.293123
39.129876
38.983235
38.85135
38.732772
38.626625
38.532848
38.450814
38.381252
38.326141
38.287262
38.266748
38.273525
38.304095
38.374305
38.494873
38.685837
39.038729
39.488854
40.306991
41.603416
43.866423
47.560338
52.98425
61.980159
77.47501
113.50151
300.76596
1237.4867
57.862557
54.102169
51.332673
49.228058
47.573757
46.238574
45.138582
44.218247
43.438571
42.771788
42.196536
41.696897
41.260441
40.877233
40.53935
40.240098
39.974113
39.737022
39.524976
39.335198
39.165024
39.012078
38.874957
38.751751
38.641454
38.543055
38.456577
38.381672
38.319053
38.270587
38.238402
38.225707
38.241118
38.283087
38.359159
38.49254
38.726983
39.045572
39.671435
40.602618
41.71857
44.180428
47.596023
53.670212
63.315367
79.637976
117.68734
318.65653
1249.9337
57.680873
53.74516
50.917639
48.805647
47.164456
45.850295
44.774114
43.878117
43.122436
42.478449
41.924706
41.445205
41.027655
40.662095
40.340452
40.056356
39.804381
39.580272
39.380433
39.201815
39.04193
38.898821
38.770669
38.655848
38.55327
38.462222
38.382802
38.314743
38.258738
38.217008
38.191585
38.188108
38.209536
38.25996
38.346776
38.508632
38.735445
39.114024
39.661818
40.563563
42.340063
44.646452
48.349188
55.142199
65.429563
82.175641
125.52494
351.3151
1262.5711
57.488399
53.379457
50.501646
48.388589
46.764585
45.47372
44.422436
43.551273
42.819486
42.197931
41.665072
41.20517
40.805769
40.457162
40.151138
39.881353
39.642721
39.43097
39.242585
39.074715
38.924589
38.790638
38.67106
38.564131
38.468558
38.384758
38.312189
38.250264
38.200909
38.165768
38.145982
38.151805
38.180484
38.239735
38.342467
38.508853
38.755753
39.159995
39.897678
41.058597
42.388458
44.705628
49.166759
55.97977
66.953015
85.939449
127.31854
359.14734
1275.6691
57.273193
52.997038
50.083838
47.978767
46.376326
45.110803
44.085342
43.239196
42.531045
41.93134
41.418751
40.977698
40.595695
40.263001
39.971809
39.715676
39.489558
39.289497
39.111781
38.953956
38.813102
38.687761
38.576189
38.47647
38.387784
38.310538
38.244548
38.189053
38.144905
38.115653
38.104068
38.117364
38.152935
38.219666
38.338889
38.515454
38.798324
39.22236
39.880406
41.024558
42.757474
45.669053
49.734786
57.095296
69.34338
88.292268
143.10243
416.38438
1290.2345
57.083153
52.645053
49.690305
47.591718
46.010882
44.770235
43.769628
42.947145
42.261363
41.682196
41.188665
40.765163
40.399426
40.081534
39.80388
39.560504
39.346133
39.156714
38.988884
38.840121
38.707753
38.590419
38.486114
38.393284
38.310927
38.239884
38.180034
38.13024
38.09058
38.06699
38.064193
38.083331
38.126475
38.207097
38.335276
38.526272
38.817567
39.261343
40.25028
41.324597
43.124053
46.000838
51.286139
58.983234
71.351265
94.569222
140.21367
410.56469
1306.2179
56.724243
52.166661
49.25051
47.18803
45.640195
44.430621
43.458457
42.661685
41.999214
41.441095
40.966731
40.560709
40.210881
39.907485
39.64286
39.411605
39.208444
39.029198
38.870984
38.730968
38.60655
38.496601
38.399078
38.312622
38.236318
38.171227
38.116535
38.072338
38.038555
38.021187
38.025923
38.049647
38.10165
38.194047
38.336627
38.54197
38.889349
39.431364
40.23415
41.745571
43.834316
46.604458
51.30107
59.930713
74.014069
97.048235
170.53876
473.96215
1325.5415
56.809616
52.018429
48.997499
46.917761
45.374854
44.177049
43.219232
42.437315
41.789412
41.24535
40.784109
40.390681
40.052436
39.759776
39.505253
39.283318
39.088666
38.917486
38.766922
38.634045
38.516261
38.412169
38.320261
38.239135
38.167731
38.107546
38.057178
38.016503
37.987983
37.976606
37.987049
38.0147
38.073909
38.175759
38.322472
38.57859
38.913255
39.431041
40.27956
42.197763
44.619719
47.594618
52.705376
61.734999
78.181272
107.55463
165.76736
531.14941
1349.0266
1370.5581
509.14623
172.07104
114.39556
79.044997
65.772645
53.970476
48.418039
44.596
42.973744
41.283841
39.49182
38.984869
38.603208
38.360964
38.178582
38.062597
37.988332
37.950343
37.933209
37.936648
37.958973
37.994529
38.038701
38.092645
38.157601
38.232145
38.31704
38.413329
38.522554
38.64639
38.786874
38.947091
39.129908
39.338342
39.577895
39.854134
40.173897
40.546397
40.98382
41.500783
42.117337
42.862472
43.776502
44.921058
46.397276
48.389838
51.296579
55.926807
1400.8727
529.26377
183.56451
114.77909
81.387771
66.737424
55.138661
50.644844
46.027083
44.37758
41.446201
39.791067
39.156728
38.674629
38.3723
38.176194
38.04394
37.962667
37.915422
37.891131
37.888053
37.902695
37.932078
37.970528
38.018651
38.077079
38.14496
38.222712
38.311354
38.41228
38.526959
38.657306
38.806273
38.976866
39.171939
39.396627
39.656241
39.957445
40.308999
40.722326
41.211948
41.797109
42.505229
43.375071
44.465858
45.874548
47.778131
50.560029
55.000505
1432.7564
545.03836
181.42508
125.17315
84.51398
71.098763
58.123326
51.53007
46.137494
44.528759
41.680208
39.986791
39.167597
38.726569
38.416839
38.182066
38.038122
37.94487
37.883021
37.849362
37.838734
37.847955
37.870856
37.904096
37.946486
37.99854
38.059976
38.131002
38.212163
38.304963
38.41111
38.531916
38.670198
38.829293
39.011935
39.222377
39.466104
39.749762
40.081509
40.472156
40.936125
41.49174
42.165167
42.993589
44.034058
45.37964
47.200264
49.864272
54.125616
1464.5034
553.65697
183.89356
134.14517
90.540966
73.736153
57.160577
51.172908
46.797574
45.261687
42.198293
40.013865
39.28586
38.807167
38.449383
38.186495
38.024372
37.923079
37.850379
37.809503
37.793535
37.795165
37.813229
37.83964
37.875724
37.92165
37.976875
38.041548
38.115571
38.200952
38.298801
38.410606
38.539147
38.687325
38.858015
39.054911
39.283727
39.551044
39.86401
40.233534
40.673507
41.201367
41.842428
42.6323
43.626025
44.913063
46.657101
49.212087
53.30826
1496.3931
549.25095
193.15128
144.2389
91.642505
75.667674
57.573628
52.286422
47.027031
46.641945
42.942482
40.668659
39.442277
38.857151
38.463484
38.192362
38.014264
37.897282
37.818196
37.770231
37.748449
37.742595
37.753042
37.775189
37.805619
37.846295
37.89599
37.954417
38.02228
38.100375
38.190219
38.293384
38.412654
38.550292
38.709649
38.893971
39.108871
39.360669
39.656112
40.005919
40.423408
40.925332
41.536159
42.290171
43.240373
44.473137
46.146509
48.600658
52.547693
1529.9978
568.02756
193.38569
140.80328
90.07346
76.923339
58.337841
52.646591
48.006999
47.322159
44.135339
41.098617
39.559862
39.038403
38.54961
38.215117
38.017332
37.883472
37.787491
37.731768
37.700799
37.689221
37.694796
37.712381
37.738666
37.773406
37.816866
37.869448
37.930929
38.002416
38.085236
38.179986
38.290315
38.418192
38.566763
38.739326
38.941144
39.178165
39.457278
39.788615
40.185007
40.662693
41.245258
41.965882
42.875639
44.058107
45.666082
48.027195
51.840438
89.61069
79.34775
63.457031
55.804247
51.063031
48.043971
44.017447
40.928008
39.709656
39.039344
38.542576
38.238437
38.011448
37.863897
37.760803
37.696155
37.661604
37.643509
37.645455
37.651038
37.673216
37.702007
37.740357
37.787106
37.842424
37.907128
37.982791
38.070243
38.171957
38.290627
38.429046
38.590493
38.780048
39.003238
39.267007
39.580964
39.957478
40.412451
40.968672
41.658111
42.530306
43.666168
45.213489
47.489057
51.181417
39.701553
39.038525
38.578784
38.232035
38.006378
37.830043
37.726391
37.657328
37.616555
37.592242
37.588611
37.591942
37.606371
37.631278
37.664394
37.705809
37.756283
37.814426
37.883188
37.963388
38.057282
38.167289
38.296101
38.447128
38.625124
38.835309
39.084695
39.382314
39.740161
40.173866
40.705421
41.365739
42.203018
43.295632
44.78685
46.983516
50.565799
37.530742
37.530441
37.545325
37.561816
37.589439
37.626172
37.670844
37.724125
37.786341
37.859534
37.945972
38.047945
38.167835
38.30897
38.475941
38.673938
38.909767
39.192053
39.532477
39.946264
40.454693
41.087888
41.892736
42.945108
44.38424
46.507776
49.989798
38.043994
38.175686
38.332202
38.518706
38.741803
39.009729
39.333865
39.729046
40.215808
40.8237
41.598318
42.613162
44.003821
46.059464
49.450267
)
;

boundaryField
{
    Side
    {
        type            empty;
    }
    Inlet
    {
        type            fixedValue;
        value           uniform 60.24606;
    }
    Airfoil
    {
        type            omegaWallFunction;
        blending        binomial;
        n               2;
        value           nonuniform List<scalar> 
26
(
1128.9865
1129.7267
1132.5297
1137.6499
1144.7724
1153.4818
1163.6147
1174.8562
1186.9427
1199.4952
1212.2335
1224.9323
1237.4867
1249.9337
1262.5711
1275.6691
1290.2345
1306.2179
1325.5415
1349.0266
1370.5581
1400.8727
1432.7564
1464.5034
1496.3931
1529.9978
)
;
    }
    Outlet
    {
        type            inletOutlet;
        inletValue      nonuniform List<scalar> 0();
        value           nonuniform List<scalar> 0();
    }
    procBoundary0to1
    {
        type            processor;
        value           nonuniform List<scalar> 
53
(
1563.2533
567.77564
192.41009
136.74091
136.74091
90.688705
96.330233
68.184056
61.547529
52.025453
49.428617
43.616663
40.862913
40.862913
39.902926
39.374379
38.640325
38.302668
38.028064
37.830291
37.693908
37.61434
37.56497
37.541595
37.541595
37.487352
37.472246
37.483258
37.495622
37.518914
37.549802
37.588946
37.635627
37.692112
37.758717
37.838063
37.932396
37.932396
37.924104
38.04689
38.193622
38.369398
38.580494
38.834927
39.143785
39.521509
39.988015
40.57225
41.318634
42.298478
43.643997
45.636634
48.945354
)
;
    }
    procBoundary0to7
    {
        type            processor;
        value           nonuniform List<scalar> 
50
(
39.743182
39.550635
39.375405
39.216111
39.071811
38.942912
38.829824
38.733243
38.652837
38.595969
38.546581
38.551823
38.583856
38.664699
38.822381
39.100736
39.575265
40.376992
41.74987
44.179431
48.222319
54.679163
66.047051
95.038489
240.91647
1129.7697
58.930183
56.508336
54.423657
52.625077
51.063315
49.69798
48.497418
47.436421
46.494779
45.655821
44.905759
44.233027
43.627881
43.082036
42.588538
42.141624
41.736103
41.367622
41.032238
40.726701
40.448351
40.194407
39.962311
39.962311
)
;
    }
}


// ************************************************************************* //
