/*--------------------------------*- C++ -*----------------------------------*\
| =========                 |                                                 |
| \\      /  F ield         | OpenFOAM: The Open Source CFD Toolbox           |
|  \\    /   O peration     | Version:  2506                                  |
|   \\  /    A nd           | Website:  www.openfoam.com                      |
|    \\/     M anipulation  |                                                 |
\*---------------------------------------------------------------------------*/
FoamFile
{
    version     2.0;
    format      ascii;
    arch        "LSB;label=32;scalar=64";
    class       volScalarField;
    location    "2.8";
    object      p;
}
// * * * * * * * * * * * * * * * * * * * * * * * * * * * * * * * * * * * * * //

dimensions      [1 -1 -2 0 0 0 0];

internalField   nonuniform List<scalar> 
1375
(
47087.891
47095.247
47104.158
47113.124
47121.333
47131.789
47145.521
47160.95
47178.339
47197.092
47218.767
47247.052
47279.12
47311.78
47347.828
47390.776
47446.162
47519.511
47610.379
47717.257
47846.892
48012.702
48227.443
48512.557
48915.608
49484.028
47072.256
47054.504
47041.958
47040.99
47043.975
47045.84
47047.254
47048.463
47047.643
47047.879
47048.735
47050.173
47052.107
47053.911
47055.505
47057.747
47060.184
47063.043
47065.72
47068.455
47072.884
47078.128
47082.283
47087.792
47095.162
47103.922
47112.614
47121.05
47131.834
47144.921
47159.64
47177.441
47196.948
47218.792
47247.001
47278.924
47311.203
47346.918
47390.262
47446.482
47519.697
47609.561
47715.88
47845.321
48010.856
48225.617
48510.827
48912.004
49476.345
47071.582
47054.175
47041.855
47041.161
47043.937
47045.949
47046.698
47047.756
47048.072
47048.278
47048.53
47049.852
47051.849
47053.588
47055.169
47057.271
47059.597
47062.453
47065.117
47067.745
47072.132
47077.266
47081.344
47086.948
47094.336
47102.837
47111.103
47119.694
47130.827
47143.136
47157.104
47175.209
47195.244
47217.338
47245.352
47276.526
47307.888
47343.262
47387.306
47444.628
47517.47
47605.718
47710.768
47839.194
48003.246
48216.137
48498.308
48892.868
49447.1
47070.378
47053.493
47041.965
47041.1
47043.794
47045.639
47046.915
47047.325
47048.164
47048.166
47048.175
47049.696
47051.762
47053.28
47054.71
47056.558
47058.734
47061.599
47064.123
47066.535
47070.834
47075.715
47079.612
47085.194
47092.481
47100.541
47108.253
47116.93
47128.157
47139.486
47152.81
47170.961
47191.049
47213.3
47240.764
47270.415
47300.412
47335.586
47380.313
47438.214
47509.949
47595.788
47698.783
47825.129
47985.694
48193.653
48470.853
48851.504
49383.852
47068.713
47052.729
47042.209
47041.202
47043.39
47045.274
47046.936
47047.582
47047.766
47047.56
47047.976
47049.902
47051.788
47052.919
47054.159
47055.753
47057.846
47060.678
47062.837
47064.919
47069.042
47073.536
47077.151
47082.562
47089.638
47097.16
47104.29
47113.005
47123.954
47134.214
47147.077
47164.927
47184.712
47206.989
47233.281
47260.689
47289.408
47324.696
47369.88
47427.395
47497.197
47580.007
47680.047
47803.226
47959.105
48163.664
48426.606
48796.188
49293.427
47066.816
47052.027
47042.577
47041.975
47043.96
47045.826
47046.355
47047.452
47047.432
47047.063
47047.807
47049.849
47051.328
47052.181
47053.35
47054.735
47056.801
47059.445
47061.047
47062.846
47066.752
47070.771
47074.084
47079.279
47086.11
47093.019
47099.593
47108.276
47118.527
47127.731
47140.203
47157.453
47176.955
47199
47223.379
47248.213
47276.147
47311.977
47357.066
47413.841
47480.631
47559.886
47656.887
47776.821
47927.538
48120.091
48374.265
48718.127
49179.746
47064.766
47051.326
47042.617
47042.453
47044.332
47045.545
47045.508
47046.364
47046.612
47046.193
47047.069
47049.078
47050.291
47050.983
47052.042
47053.253
47055.344
47057.672
47058.666
47060.345
47064.046
47067.6
47070.606
47075.581
47082.076
47088.27
47094.338
47102.792
47111.935
47120.24
47132.274
47148.86
47168.222
47189.367
47211.128
47233.715
47261.898
47298.022
47342.521
47397.801
47461.018
47536.989
47630.033
47744.726
47890.03
48069.497
48312.277
48627.133
49038.788
47062.487
47050.304
47042.609
47042.765
47044.03
47044.535
47045.1
47045.258
47045.487
47045.043
47046.098
47047.949
47048.906
47049.46
47050.337
47051.362
47053.517
47055.349
47055.862
47057.675
47061.107
47064.069
47066.742
47071.537
47077.54
47082.937
47088.573
47096.554
47104.363
47111.935
47123.4
47139.546
47158.581
47177.813
47196.7
47218.194
47247.247
47282.721
47326.288
47378.704
47439.04
47510.128
47600.376
47710.592
47846.125
48023.264
48237.58
48528.258
48877.502
47060.369
47049.116
47042.282
47041.982
47043.837
47043.746
47044.632
47044.532
47044.352
47043.838
47045.333
47047.105
47047.543
47047.799
47048.421
47049.401
47051.599
47052.796
47053.078
47054.897
47057.879
47060.241
47062.629
47067.245
47072.633
47077.237
47082.395
47089.625
47096.101
47102.992
47113.872
47129.769
47147.735
47164.203
47180.785
47202.6
47231.89
47265.81
47307.619
47357.079
47413.182
47480.135
47565.301
47671.088
47795.227
47962.015
48164.553
48404.423
48689.734
47057.876
47048.424
47041.831
47041.734
47043.663
47043.913
47044.501
47044.138
47043.366
47042.947
47044.757
47046.187
47046.313
47046.338
47046.567
47047.404
47049.5
47050.268
47050.407
47051.917
47054.485
47056.161
47058.188
47062.592
47067.382
47071.214
47075.829
47082.008
47087.145
47093.32
47103.877
47119.39
47135.35
47148.849
47164.534
47187.246
47215.439
47246.969
47286.156
47334.067
47384.311
47449.737
47530.282
47626.493
47746.438
47886.191
48073.46
48279.688
48475.183
47056.309
47048.794
47042.748
47042.116
47043.712
47043.99
47044.321
47043.827
47042.766
47042.799
47044.341
47045.162
47044.737
47044.744
47044.801
47045.615
47047.263
47047.502
47047.617
47048.598
47050.826
47051.83
47053.748
47057.787
47061.811
47064.89
47069.027
47073.893
47077.614
47083.148
47093.697
47108.269
47121.553
47132.805
47148.896
47171.805
47197.139
47225.773
47264.082
47305.661
47352.715
47411.069
47490.601
47577.532
47688.609
47821.776
47967.401
48137.678
48241.316
47055.242
47047.529
47042.894
47041.794
47043.059
47044.003
47044.007
47043.51
47042.491
47042.969
47043.844
47044.109
47043.233
47042.778
47043.133
47043.98
47044.669
47044.866
47044.962
47045.648
47047.365
47047.605
47049.561
47053.015
47056.077
47058.365
47062.078
47065.494
47067.935
47073.147
47083.641
47096.424
47106.877
47117.104
47133.882
47155.418
47176.694
47203.327
47239.497
47277.742
47321.756
47375.317
47443.863
47525.789
47613.594
47734.104
47874.94
47976.367
47976.146
47053.301
47046.046
47043.005
47041.449
47041.521
47042.994
47043.255
47042.897
47042.165
47042.774
47043.149
47042.743
47042.138
47041.031
47041.211
47042.39
47042.357
47041.92
47041.618
47042.442
47043.837
47043.628
47045.407
47048.104
47050.398
47051.769
47054.896
47056.799
47058.248
47063.441
47073.438
47083.92
47091.938
47102.158
47118.898
47137.367
47154.38
47181.231
47212.853
47245.803
47283.176
47339.353
47400.92
47471.871
47545.418
47639.244
47758.387
47818.003
47687.25
47052.01
47045.365
47042.976
47041.74
47040.882
47042.148
47042.376
47042.084
47041.522
47042.26
47042.206
47041.513
47040.416
47039.548
47040.187
47040.338
47040.252
47039.546
47038.912
47038.933
47039.864
47039.637
47041.363
47043.009
47044.647
47045.238
47047.565
47048.049
47048.983
47054.227
47062.796
47070.862
47077.205
47087.865
47103.225
47117.137
47132.632
47157.545
47187.291
47216.173
47247.96
47292.117
47351.913
47406.441
47469.38
47551.431
47633.57
47649.66
47376.774
47051.123
47044.848
47042.368
47041.82
47041.125
47041.883
47041.629
47041.211
47041.128
47041.857
47041.151
47040.105
47038.983
47038.749
47038.948
47038.886
47038.389
47037.212
47036.831
47036.435
47036.311
47036.012
47037.323
47038.454
47038.756
47038.952
47040.07
47039.48
47040.555
47045.442
47051.879
47057.807
47063.056
47073.692
47086.093
47096.117
47111.088
47135.232
47158.855
47181.728
47214.306
47252.164
47298.018
47339.389
47382.38
47440.921
47515.8
47488.063
47048.245
47050.712
47044.096
47041.719
47041.706
47041.409
47041.684
47040.708
47040.501
47040.957
47041.393
47040.172
47038.887
47037.553
47038.161
47037.723
47037.419
47036.479
47035.018
47034.411
47034.179
47033.005
47032.883
47033.586
47034.341
47033.415
47032.677
47032.727
47031.273
47032.601
47036.595
47040.817
47044.946
47049.531
47059.297
47067.961
47074.936
47089.991
47111.252
47128.461
47147.254
47170.152
47206.235
47242.841
47271.981
47303.646
47337.879
47358.507
47314.409
46745.289
47049.971
47043.845
47041.526
47041.725
47041.52
47041.076
47039.553
47039.774
47040.703
47041.052
47039.525
47038.129
47036.677
47036.935
47037.073
47036.034
47034.776
47033.075
47031.588
47031.664
47030.11
47029.566
47030.091
47030.181
47028.293
47026.69
47025.42
47023.858
47024.833
47026.904
47029.67
47032.351
47036.474
47044.238
47048.867
47054.506
47069.645
47086.755
47097.907
47111.185
47130.579
47153.467
47175.859
47189.153
47213.7
47229.207
47244.845
47143.953
46422.917
47049.703
47043.343
47041.621
47041.725
47041.34
47040.358
47038.938
47038.927
47040.203
47040.593
47038.76
47037.461
47036.817
47036.029
47035.668
47034.753
47033.47
47031.567
47029.363
47029.228
47027.334
47026.571
47026.529
47026.236
47023.082
47020.526
47018.333
47017.511
47016.795
47016.509
47018.202
47019.986
47023.245
47028.216
47029.211
47034.266
47046.871
47058.934
47062.318
47067.15
47085.704
47098.454
47112.87
47110.937
47121.746
47127.256
47048.551
46925.398
46213.176
47051.629
47044.306
47042.346
47041.745
47041.278
47039.89
47038.609
47038.658
47039.754
47039.816
47037.86
47036.614
47036.392
47035.203
47033.353
47032.74
47031.772
47029.376
47027.558
47027.174
47024.786
47023.773
47023.214
47022.146
47017.913
47014.542
47011.401
47011.311
47008.45
47006.099
47007.159
47007.557
47009.467
47011.027
47010.552
47013.68
47022.885
47029.023
47026.608
47035.895
47030.258
47032.815
47032.327
47024.127
47020.506
47019.788
47001.219
46703.178
45983.36
47052.78
47048.34
47043.496
47041.823
47040.802
47039.094
47038.214
47038.433
47039.568
47038.889
47036.52
47035.739
47035.444
47034.104
47032.285
47030.825
47029.282
47026.609
47025.451
47025.202
47022.681
47021.126
47020.127
47018.14
47013.013
47008.904
47005.205
47004.159
46999.705
46995.555
46996.18
46995.339
46994.697
46991.904
46990.521
46993.254
46996.565
46995.84
46975.021
46982.458
46985.148
46969.777
46950.213
46923.898
46909.195
46883.962
46565.702
46636.313
46207.566
45996.609
46529.472
46283.529
46722.632
46734.283
46841.29
46878.882
46897.977
46912.884
46926.892
46954.966
46958.275
46967.081
46970.827
46972.043
46974.064
46979.78
46982.932
46985.556
46985.764
46990.534
46997.121
47000.131
47003.808
47008.238
47014.026
47016.978
47018.568
47020.375
47022.678
47023.613
47024.548
47027.296
47030.597
47031.474
47032.507
47034.698
47035.265
47035.83
47037.934
47039.287
47038.009
47038.166
47039.025
47040.416
47042.207
47043.703
47050.055
47048.708
45698.779
46367.81
46351.206
46609.068
46612.743
46750.141
46788.498
46839.096
46871.275
46895.707
46916.991
46925.454
46941.734
46948.756
46953.581
46956.344
46963.628
46969.714
46974.936
46976.737
46981.834
46989.823
46994.407
46998.378
47003.038
47009.377
47013.333
47015.742
47017.768
47020.731
47022.641
47023.302
47025.631
47029.034
47030.353
47031.416
47034.109
47035.047
47035.949
47037.386
47038.654
47038.557
47038.451
47038.729
47040.101
47042.042
47042.819
47048.011
47044.418
45731.983
46305.748
46202.966
46556.717
46517.924
46671.825
46742.16
46798.781
46834.251
46846.886
46859.492
46893.12
46910.096
46926.123
46933.45
46938.824
46947.834
46956.107
46964.036
46967.971
46973.099
46981.838
46987.949
46992.491
46997.751
47004.93
47009.719
47013.089
47015.445
47018.847
47021.226
47021.847
47023.705
47026.741
47029.694
47031.258
47033.12
47034.535
47036.094
47036.748
47038.055
47038.838
47038.5
47038.413
47039.625
47041.63
47041.992
47046.582
47043.301
45805.548
46261.502
46105.174
46467.209
46436.615
46617.932
46653.206
46741.074
46785.913
46809.072
46830.345
46847.678
46875.191
46898.697
46914.159
46921.914
46932.574
46942.042
46952.119
46959.115
46964.763
46973.808
46981.823
46987.348
46992.734
47000.535
47006.243
47010.273
47012.946
47016.675
47019.422
47020.099
47022.17
47026.118
47029.319
47030.379
47031.628
47033.638
47035.3
47036.136
47037.923
47038.648
47038.44
47038.072
47039.14
47041.147
47041.174
47045.915
47041.659
45789.503
46136.973
46052.947
46387.573
46412.097
46558.808
46574.173
46676.486
46727.95
46768.871
46802.357
46814.232
46850.39
46872.654
46890.563
46904.163
46917.189
46927.561
46939.299
46949.72
46957.195
46966.44
46974.517
46981.377
46988.173
46996.123
47003.121
47007.49
47010.4
47014.441
47018.256
47020.141
47021.396
47024.844
47028.377
47029.287
47031.237
47033.537
47034.48
47035.52
47037.584
47038.331
47038.363
47038.032
47038.724
47040.554
47040.634
47044.287
47040.797
45785.914
46146.931
46028.637
46349.77
46347.241
46482.756
46506.377
46627.65
46679.925
46710.118
46746.824
46792.878
46814.779
46847.628
46870.409
46886.07
46903.099
46915.098
46927.102
46939.318
46948.623
46959.009
46968.446
46975.814
46983.381
46992.434
47000.142
47005.104
47009.095
47012.317
47016.639
47019.898
47021.869
47024.03
47027.297
47029.166
47031.045
47033.213
47034.115
47035.176
47037.068
47037.963
47038.141
47038.102
47038.374
47040.054
47040.351
47042.819
47041.522
46265.02
46437.605
46413.137
46578.207
46652.044
46696.975
46713.963
46748.498
46781.009
46817.767
46846.192
46868.249
46887.743
46901.941
46915.018
46928.817
46940.231
46951.956
46963.598
46972.911
46979.598
46987.873
46996.967
47002.248
47007.366
47011.567
47015.61
47018.361
47021.305
47023.429
47026.361
47028.819
47030.546
47032.623
47034.021
47034.948
47036.359
47037.526
47038.179
47037.986
47037.986
47039.678
47039.866
47042.34
47041.815
46759.422
46791.722
46822.491
46850.479
46873.768
46890.035
46903.338
46918.979
46933.295
46946.132
46956.684
46967.123
46976.397
46984.126
46993.864
46999.441
47004.372
47009.482
47015.076
47017.375
47019.94
47022.601
47025.526
47028.227
47030.24
47032.032
47033.586
47034.541
47035.839
47037.288
47038.109
47037.659
47037.615
47039.56
47039.515
47042.07
47041.22
46952.182
46960.744
46970.174
46981.547
46991.022
46997.839
47002.793
47006.742
47012.792
47016.793
47019.041
47021.796
47024.894
47027.6
47029.689
47031.753
47033.408
47034.292
47035.606
47037.009
47037.926
47037.687
47037.514
47039.224
47039.133
47041.579
47040.287
47024.282
47027.01
47029.066
47031.242
47033.222
47034.285
47035.621
47036.751
47037.583
47037.789
47037.645
47038.758
47038.778
47040.922
47039.658
)
;

boundaryField
{
    Side
    {
        type            empty;
    }
    Inlet
    {
        type            totalPressure;
        rho             rho;
        psi             none;
        gamma           1;
        p0              uniform 50000;
        value           nonuniform List<scalar> 
29
(
47043.451
47043.582
47043.774
47043.996
47044.218
47044.413
47044.558
47044.647
47044.674
47044.683
47044.677
47044.608
47044.538
47044.54
47044.547
47044.511
47044.59
47044.731
47044.638
47044.048
47042.422
47041.174
47040.698
47040.92
47040.989
47040.947
47040.909
47040.897
47040.847
)
;
    }
    Airfoil
    {
        type            zeroGradient;
    }
    Outlet
    {
        type            fixedValue;
        value           nonuniform List<scalar> 0();
    }
    procBoundary0to1
    {
        type            processor;
        value           nonuniform List<scalar> 
53
(
45765.754
46164.918
46005.649
46288.007
46288.007
46189.205
46420.328
46389.649
46547.115
46608.391
46663.58
46704.168
46723.264
46723.264
46733.952
46773.119
46805.566
46831.743
46860.903
46880.319
46894.548
46909.285
46924.868
46940.054
46940.054
46948.451
46960.221
46965.928
46975.749
46987.932
46996.047
47002.183
47007.03
47010.959
47015.505
47019.037
47021.591
47021.591
47023.851
47026.564
47028.641
47030.758
47032.933
47034.146
47035.436
47036.672
47037.295
47037.608
47037.565
47038.496
47038.727
47040.291
47039.39
)
;
    }
    procBoundary0to7
    {
        type            processor;
        value           nonuniform List<scalar> 
50
(
47087.515
47094.931
47103.942
47112.965
47120.822
47131.156
47145.488
47161.505
47178.397
47196.395
47218.073
47246.41
47278.228
47310.895
47347.209
47390.082
47445.109
47518.683
47610.206
47717.164
47846.598
48012.075
48225.817
48509.335
48910.157
49475.461
47072.489
47054.768
47041.985
47041.004
47043.879
47045.865
47047.191
47047.758
47048.124
47048.263
47048.988
47050.409
47052.3
47054.111
47055.695
47058.018
47060.47
47063.267
47065.822
47068.583
47073.086
47078.339
47082.482
47082.482
)
;
    }
}


// ************************************************************************* //
