/*--------------------------------*- C++ -*----------------------------------*\
| =========                 |                                                 |
| \\      /  F ield         | OpenFOAM: The Open Source CFD Toolbox           |
|  \\    /   O peration     | Version:  2506                                  |
|   \\  /    A nd           | Website:  www.openfoam.com                      |
|    \\/     M anipulation  |                                                 |
\*---------------------------------------------------------------------------*/
FoamFile
{
    version     2.0;
    format      ascii;
    arch        "LSB;label=32;scalar=64";
    class       volVectorField;
    location    "0.0165";
    object      wallShearStress;
}
// * * * * * * * * * * * * * * * * * * * * * * * * * * * * * * * * * * * * * //

dimensions      [1 -1 -2 0 0 0 0];

internalField   uniform (0 0 0);

boundaryField
{
    Side
    {
        type            empty;
    }
    Inlet
    {
        type            calculated;
        value           uniform (0 0 0);
    }
    Airfoil
    {
        type            calculated;
        value           nonuniform List<vector> 
95
(
(-1.3504885 0.086978981 7.7533015e-17)
(-3.7233306 0.24485473 7.7879818e-17)
(-5.0311182 0.34047118 -7.810448e-17)
(-5.4155182 0.36845465 1.5656404e-16)
(-4.3272959 0.29918707 7.8343468e-17)
(-1.831596 0.1380182 -1.4959473e-22)
(1.9940372 -0.10730395 -7.8096358e-17)
(5.8328555 -0.35125082 7.7771244e-17)
(8.7677612 -0.54075942 7.7395115e-17)
(9.9775738 -0.6213624 1.5425894e-16)
(7.3016758 -0.4709966 3.7615819e-37)
(2.2126741 -0.16825299 -5.1635518e-35)
(-1.4177022 0.059030299 2.9936667e-22)
(-4.9220108 0.27478207 -7.855161e-17)
(-7.0598569 0.40477788 -1.5846995e-16)
(-7.2257741 0.42736852 1.592742e-16)
(-7.0653708 0.41740209 1.2586253e-33)
(-6.2990426 0.36874197 7.9997436e-17)
(-5.8664865 0.33950548 2.9050697e-33)
(-5.77385 0.32979552 -3.0628573e-39)
(-5.7485983 0.32442179 -3.0830263e-22)
(-5.6375171 0.31316016 8.1088987e-17)
(-5.6425778 0.30800439 3.1038842e-22)
(-5.7840889 0.3115547 3.1165997e-22)
(-5.729716 0.30644005 -3.1211094e-22)
(-5.3272073 0.28440868 -8.1865704e-17)
(-4.3227464 0.23290294 -8.1754751e-17)
(-2.3251527 0.13432615 -8.1518665e-17)
(0.5775268 -0.0057370902 -8.1206814e-17)
(3.8815745 -0.16283434 3.7764733e-24)
(7.0920148 -0.31440291 3.0925848e-22)
(9.060697 -0.40375304 -1.5889693e-38)
(9.0900454 -0.41136375 -3.743589e-23)
(6.8982263 -0.32738593 -8.0165605e-17)
(3.0785519 -0.16255812 3.5460204e-24)
(-2.4940113 0.083438183 -4.0703513e-17)
(-7.2486094 0.26822482 -4.1112034e-17)
(-8.5044576 0.34685492 2.1754439e-24)
(-7.3542418 0.29626849 -4.1439818e-17)
(-6.6671996 0.26520127 6.337234e-22)
(-6.3357005 0.25304941 -6.4733198e-26)
(-6.3644386 0.24844055 -3.1980594e-22)
(-6.7657487 0.25078457 -7.7600994e-39)
(-6.7395693 0.24447356 3.2376369e-22)
(-6.7932752 0.2440179 -1.9758398e-25)
(-7.078076 0.24776205 -4.2881349e-17)
(-7.5525416 0.25780036 3.2803733e-22)
(-8.1761938 0.27043319 4.2999427e-17)
(-8.6273627 0.2757102 -1.034435e-36)
(-8.8661644 0.27520702 -4.2951955e-17)
(-8.7896801 0.26582553 -4.297164e-17)
(-8.4036426 0.24728882 -1.880791e-37)
(-7.6796693 0.21897812 -3.2842872e-22)
(-6.6968271 0.18420922 -8.6296441e-17)
(-5.4909553 0.14666051 4.3277013e-17)
(-4.09478 0.10757998 -2.1706533e-17)
(-2.3761697 0.064588406 -6.6405501e-22)
(0.027268868 0.012695862 -2.1823009e-17)
(3.0253083 -0.048160706 -4.3658429e-17)
(5.7574678 -0.099865054 4.2317797e-37)
(7.4680509 -0.12965556 -9.8982633e-24)
(8.6602955 -0.14508968 3.0562853e-37)
(9.961513 -0.15881557 -2.185335e-17)
(10.51764 -0.16362335 3.3463017e-22)
(9.2410415 -0.14171695 -2.1882006e-17)
(6.0919884 -0.10364495 2.1968963e-17)
(0.77259051 -0.03721356 -1.1084999e-17)
(-5.1108981 0.038419473 2.2356505e-17)
(-5.5537944 0.052881483 3.4345307e-22)
(-2.8919131 0.033510728 1.1284687e-17)
(-1.8116315 0.02053869 -5.1367928e-34)
(-1.3613887 0.014593865 -1.1343708e-17)
(-1.5153042 0.011565244 -6.4652189e-38)
(-1.8329518 0.0099013847 -3.4907335e-22)
(-1.9944489 0.0081036617 3.5157343e-22)
(-2.0565033 0.006058029 -1.0497232e-25)
(-2.1870968 0.0026547735 3.5723009e-22)
(-2.613664 -0.00012002841 -7.3763403e-19)
(-3.1826996 -0.0047903411 4.973241e-25)
(-3.40765 -0.0070081505 -3.6570642e-22)
(-3.2860166 -0.0094705968 4.4692509e-26)
(-3.1446738 -0.012131012 6.0639966e-18)
(-3.1549989 -0.016138853 3.7201503e-22)
(-3.2165912 -0.020369459 3.7374907e-22)
(-3.1633014 -0.023526926 -3.7548335e-22)
(-3.0543263 -0.026193146 1.235539e-17)
(-3.1016351 -0.031265886 -3.0562853e-37)
(-3.3497989 -0.039279932 -1.246465e-17)
(-3.6058628 -0.047075755 -3.8216173e-22)
(-3.7581341 -0.053422789 -3.8395394e-22)
(-3.8841356 -0.059906254 7.7146977e-22)
(-3.9822271 -0.066117702 -1.269878e-17)
(-3.9929336 -0.070835616 -3.9022585e-22)
(-4.0423379 -0.076941802 2.5623165e-17)
(-4.2618632 -0.087467254 -2.8211864e-37)
)
;
    }
    Outlet
    {
        type            calculated;
        value           nonuniform List<vector> 0();
    }
    procBoundary10to3
    {
        type            processor;
        value           uniform (0 0 0);
    }
    procBoundary10to9
    {
        type            processor;
        value           uniform (0 0 0);
    }
    procBoundary10to11
    {
        type            processor;
        value           uniform (0 0 0);
    }
}


// ************************************************************************* //
