/*--------------------------------*- C++ -*----------------------------------*\
| =========                 |                                                 |
| \\      /  F ield         | OpenFOAM: The Open Source CFD Toolbox           |
|  \\    /   O peration     | Version:  2506                                  |
|   \\  /    A nd           | Website:  www.openfoam.com                      |
|    \\/     M anipulation  |                                                 |
\*---------------------------------------------------------------------------*/
FoamFile
{
    version     2.0;
    format      ascii;
    arch        "LSB;label=32;scalar=64";
    class       volVectorField;
    location    "0.25";
    object      U;
}
// * * * * * * * * * * * * * * * * * * * * * * * * * * * * * * * * * * * * * //

dimensions      [0 1 -1 0 0 0 0];

internalField   nonuniform List<vector> 
1376
(
(94.061826 -0.023245531 0)
(94.078495 -0.042534953 0)
(94.113413 -0.048255523 1.2226273e-17)
(94.153614 -0.0602795 6.0237783e-18)
(94.122126 -0.023634382 0)
(94.125226 -0.03377283 0)
(94.137025 -0.038351417 1.5910552e-21)
(94.155534 -0.045021871 1.7661668e-17)
(94.176482 -0.053697553 -1.7330923e-17)
(94.195988 -0.055617806 1.1346869e-17)
(94.211769 -0.05717036 1.5641586e-21)
(94.224192 -0.057900944 0)
(94.234085 -0.058208713 -3.2056772e-17)
(94.242325 -0.057999815 2.0905028e-17)
(94.158412 -0.031431149 1.2070963e-17)
(94.156754 -0.015000415 0)
(94.155116 -0.026021078 -2.9269824e-17)
(94.158586 -0.034809132 -5.745241e-18)
(94.167313 -0.042013593 -1.2651712e-21)
(94.178523 -0.04428585 -1.1141209e-17)
(94.18971 -0.046559539 1.3470775e-21)
(94.200055 -0.04797921 1.0718803e-17)
(94.209399 -0.049257863 1.0500064e-17)
(94.218024 -0.050018799 0)
(94.226081 -0.050541846 -3.0138337e-17)
(94.233556 -0.050809016 9.8102543e-18)
(94.240333 -0.05088668 -1.9139608e-17)
(94.246306 -0.050643873 3.7295468e-17)
(94.251419 -0.05004089 -1.8148015e-17)
(94.181372 -0.027993179 1.4763686e-18)
(94.177155 -0.0086115946 -1.4551428e-18)
(94.17108 -0.01800139 2.2917323e-17)
(94.167146 -0.025771433 -5.6287276e-18)
(94.167499 -0.028795353 1.6654538e-17)
(94.170528 -0.034082989 -1.088998e-17)
(94.176575 -0.037396201 1.0690782e-17)
(94.183878 -0.038937455 0)
(94.19138 -0.040379415 -1.0323479e-17)
(94.19891 -0.041542154 0)
(94.206397 -0.042599729 1.9763692e-17)
(94.2137 -0.043544498 0)
(94.220696 -0.044261345 3.7688179e-17)
(94.227315 -0.044732376 -1.8369117e-17)
(94.233471 -0.045021751 1.7887759e-17)
(94.239083 -0.04517459 5.2181663e-22)
(94.244087 -0.04512876 -1.6901529e-17)
(94.248403 -0.044742338 1.6399814e-17)
(94.252034 -0.044156963 -2.9666442e-22)
(94.201404 -0.022026495 -1.155283e-17)
(94.19613 -0.0043636999 -1.1392427e-17)
(94.18881 -0.011538451 -1.6835455e-17)
(94.181775 -0.016865735 -5.5212922e-18)
(94.177081 -0.020569301 0)
(94.176009 -0.023483964 -1.0652191e-17)
(94.177128 -0.026250557 -2.0906338e-17)
(94.179973 -0.029255367 -2.0615914e-17)
(94.184312 -0.03141328 0)
(94.189387 -0.03318288 0)
(94.194868 -0.034872801 0)
(94.200576 -0.035877995 0)
(94.206378 -0.036749701 -1.8568056e-17)
(94.212231 -0.037544881 -3.6213736e-17)
(94.218155 -0.038294292 0)
(94.223923 -0.038980854 -1.7160454e-17)
(94.229412 -0.039590871 -2.9136495e-22)
(94.23456 -0.03992511 0)
(94.239225 -0.040082341 3.1405454e-17)
(94.243373 -0.040003154 -3.0415123e-17)
(94.247006 -0.039754876 2.9419821e-17)
(94.250066 -0.039235424 -2.8421235e-17)
(94.252547 -0.038357839 -1.3710133e-17)
(94.22221 -0.015441191 0)
(94.21696 -0.0012938709 1.1159562e-17)
(94.209729 -0.0069050237 5.5001261e-18)
(94.201808 -0.0099734241 -1.0832615e-17)
(94.194772 -0.012573623 2.2732654e-22)
(94.189964 -0.015114364 5.2358914e-18)
(94.187905 -0.017567608 4.1202995e-24)
(94.188284 -0.019687252 3.0280748e-17)
(94.189899 -0.021469129 -9.8976421e-18)
(94.19211 -0.023202364 -7.2456496e-23)
(94.194635 -0.024639972 9.5382943e-18)
(94.197643 -0.026446754 -1.8641482e-17)
(94.201241 -0.028054316 3.6411051e-17)
(94.205263 -0.029245964 1.7764071e-17)
(94.209594 -0.030539778 1.731526e-17)
(94.214263 -0.031852447 -1.6956314e-17)
(94.219039 -0.032612501 1.6479539e-17)
(94.223827 -0.033383947 0)
(94.228582 -0.034160487 -1.552019e-17)
(94.233098 -0.034794296 0)
(94.237269 -0.035388426 9.1314847e-22)
(94.241007 -0.035868475 2.8133296e-17)
(94.24424 -0.036072228 5.5642256e-22)
(94.246948 -0.036175271 -1.3094179e-17)
(94.249059 -0.036008919 0)
(94.250428 -0.035774917 4.8476043e-17)
(94.250989 -0.035285199 -1.1652909e-17)
(94.243822 -0.0088230089 0)
(94.239322 0.00085840072 1.0939009e-17)
(94.233224 -0.0035114143 0)
(94.226042 -0.0045871295 1.0628423e-17)
(94.218721 -0.0056730124 1.5694433e-17)
(94.212427 -0.0071341496 -2.572629e-17)
(94.20786 -0.0088904789 -1.0113578e-17)
(94.204957 -0.010695147 2.979057e-17)
(94.20342 -0.012358118 1.9476737e-17)
(94.202976 -0.014017784 -1.9091445e-17)
(94.203517 -0.015382695 -1.8687639e-17)
(94.204713 -0.016621565 3.6567656e-17)
(94.206387 -0.01777368 -3.5738836e-17)
(94.208501 -0.019087839 -5.2329321e-17)
(94.210895 -0.020226511 1.7003124e-17)
(94.213601 -0.02138251 -1.6649121e-17)
(94.216727 -0.022902837 -1.6191479e-17)
(94.220111 -0.024028695 1.5732217e-17)
(94.22367 -0.025156305 0)
(94.227366 -0.026728319 -4.4863062e-22)
(94.231067 -0.028589754 -2.8668713e-17)
(94.234669 -0.030149458 -1.3942816e-17)
(94.238017 -0.03153819 -1.3460826e-17)
(94.240959 -0.032980797 2.5964167e-17)
(94.243407 -0.034333703 1.2507127e-17)
(94.245238 -0.035890005 -1.2032077e-17)
(94.246363 -0.037132755 0)
(94.246672 -0.038271256 -1.1107928e-17)
(94.245984 -0.039491202 -1.0661769e-17)
(94.24438 -0.041050048 2.0425367e-17)
(94.263266 -0.0036292394 0)
(94.259985 0.0024959043 -5.3860868e-22)
(94.25578 -0.00089548947 0)
(94.250582 -0.00062119083 1.5647171e-17)
(94.24467 -0.0005532626 -1.541006e-17)
(94.238728 -0.0010777763 4.0439834e-17)
(94.23334 -0.0019946263 1.9880279e-17)
(94.22885 -0.0031609335 -3.9060742e-17)
(94.225327 -0.0043758841 9.5846189e-18)
(94.222658 -0.0054585367 -2.8195838e-17)
(94.220695 -0.006469885 9.7016815e-22)
(94.219393 -0.0074356843 -1.8014782e-17)
(94.218767 -0.0083533583 -1.7625353e-17)
(94.218838 -0.0094607643 5.1671924e-17)
(94.219607 -0.010580324 -1.678906e-17)
(94.220889 -0.011677835 1.6351849e-17)
(94.222585 -0.012884241 1.5918962e-17)
(94.224602 -0.014405343 -1.5479507e-17)
(94.226766 -0.01610823 1.5032592e-17)
(94.229108 -0.017914893 1.4578075e-17)
(94.231585 -0.019554692 -2.8235258e-17)
(94.234076 -0.021491753 1.3734612e-17)
(94.236546 -0.023684721 -1.3268629e-17)
(94.238821 -0.026504634 2.5609478e-17)
(94.24083 -0.029918706 -2.4685511e-17)
(94.242519 -0.033354035 1.1883223e-17)
(94.24373 -0.036812056 -1.1423798e-17)
(94.244284 -0.040466311 -4.3935143e-17)
(94.243946 -0.044094644 -1.4805706e-22)
(94.242523 -0.047138309 2.0221124e-17)
(94.240149 -0.050182275 2.7146356e-22)
(94.237446 -0.053303228 -1.8509837e-17)
(94.235139 -0.056653706 1.777487e-17)
(94.276404 -0.0015087886 9.334583e-18)
(94.274575 0.0038290661 -9.215147e-18)
(94.272501 0.0013950546 0)
(94.269744 0.0024970336 -2.0487461e-17)
(94.266193 0.0034904745 5.0463754e-18)
(94.262102 0.0039116546 -3.4769068e-17)
(94.257853 0.0039688042 -9.771541e-18)
(94.253736 0.0037021631 3.8411488e-17)
(94.249932 0.0032401896 0)
(94.246515 0.0026662699 1.8502483e-17)
(94.2435 0.0019719291 1.813467e-17)
(94.240922 0.0012210588 1.7756469e-17)
(94.238793 0.00031005383 0)
(94.237163 -0.00064876187 0)
(94.236038 -0.0016580787 -4.2248994e-22)
(94.235392 -0.0026415835 1.6140459e-17)
(94.235223 -0.0037357794 1.5729939e-17)
(94.235484 -0.005182195 -1.5314309e-17)
(94.236112 -0.006856306 1.982537e-22)
(94.237038 -0.008725467 -2.8862668e-17)
(94.238228 -0.010920825 5.5919134e-17)
(94.239574 -0.013541557 -2.7061588e-17)
(94.240893 -0.016968328 0)
(94.242136 -0.02079116 -1.2637856e-17)
(94.243313 -0.024853946 1.8949664e-23)
(94.244378 -0.029441034 3.522715e-17)
(94.245139 -0.034472913 0)
(94.24548 -0.039779115 2.1730072e-17)
(94.24516 -0.045084194 2.0886674e-17)
(94.243863 -0.050226565 -2.002976e-17)
(94.241422 -0.055239812 9.1719518e-23)
(94.238103 -0.060506845 -1.8343761e-17)
(94.234336 -0.065223481 0)
(94.231217 -0.071262919 0)
(94.229196 -0.080811975 0)
(94.282332 -0.0021672203 -1.0481276e-17)
(94.281774 0.00529904 0)
(94.281346 0.0038834074 2.0413445e-17)
(94.280564 0.0053956102 0)
(94.279222 0.0068826519 1.487536e-17)
(94.277303 0.0080350218 -1.4646793e-17)
(94.274953 0.0088271616 0)
(94.272377 0.0092484567 -1.889022e-17)
(94.269745 0.0094787627 -9.2776767e-18)
(94.267146 0.0095704154 1.8211005e-17)
(94.26465 0.0094271391 4.4641799e-17)
(94.262309 0.0090673709 -3.4985703e-17)
(94.260138 0.0085383048 1.7119135e-17)
(94.258173 0.0079865817 0)
(94.256488 0.0071637809 -3.2687713e-17)
(94.255128 0.0061754159 1.5943583e-17)
(94.254029 0.004972214 -5.3628163e-22)
(94.253161 0.0033619699 1.5120687e-17)
(94.252493 0.0014882826 1.4700821e-17)
(94.251986 -0.00058629922 1.4275141e-17)
(94.251611 -0.0030749368 -1.3846334e-17)
(94.251288 -0.0061838653 -1.6634177e-22)
(94.251005 -0.010057765 -1.2973903e-17)
(94.250805 -0.01446553 -1.2539684e-17)
(94.250641 -0.019482249 -7.2627777e-17)
(94.250431 -0.025234462 -1.1668185e-17)
(94.250113 -0.031380734 2.2469042e-17)
(94.249588 -0.038190921 1.1088263e-22)
(94.248673 -0.044783473 2.0763066e-17)
(94.247176 -0.051509793 0)
(94.244764 -0.057757821 1.9099898e-17)
(94.241294 -0.064411628 -1.8271523e-17)
(94.236968 -0.071036833 1.7451241e-17)
(94.232508 -0.079266462 1.6661459e-17)
(94.228691 -0.089279821 1.5961635e-17)
(94.22577 -0.10166582 6.8458271e-17)
(94.223 -0.11893817 3.6415644e-17)
(94.220409 -0.13713443 1.6403893e-21)
(94.282857 -0.0062769089 -2.1748995e-17)
(94.283333 0.0062800659 -1.2629636e-18)
(94.283789 0.0054994902 2.4934075e-18)
(94.284119 0.0071778714 1.9666583e-17)
(94.284138 0.0089658226 -9.6953848e-18)
(94.283759 0.010583173 3.8427936e-17)
(94.283025 0.01212472 3.4813451e-22)
(94.282027 0.013388433 9.2928045e-18)
(94.280904 0.014298221 -9.1308434e-18)
(94.279717 0.014880417 -2.6893945e-17)
(94.278464 0.015252202 -1.7586574e-17)
(94.277204 0.015446738 1.7234417e-17)
(94.276 0.015311411 -1.6873888e-17)
(94.274862 0.015030921 1.6503554e-17)
(94.27379 0.014548042 4.9871606e-22)
(94.272822 0.013711154 1.5737905e-17)
(94.271964 0.012444265 -1.5343804e-17)
(94.27119 0.010876788 -2.9884696e-17)
(94.270484 0.0089553406 0)
(94.269775 0.0066461439 0)
(94.268935 0.0036724725 0)
(94.267877 -0.00011699335 -1.3280171e-17)
(94.266611 -0.0045592373 2.5708082e-17)
(94.265143 -0.0094784202 4.9704817e-17)
(94.263461 -0.015205585 2.3996354e-17)
(94.261575 -0.021666244 -4.950417e-22)
(94.25959 -0.028912727 -2.2290897e-17)
(94.257471 -0.036775294 -2.1447205e-17)
(94.255179 -0.044689374 -2.2518359e-23)
(94.252722 -0.052763372 1.9792435e-17)
(94.24977 -0.060225874 3.796785e-17)
(94.246098 -0.068099582 3.6371265e-17)
(94.241551 -0.076432652 -5.2190612e-17)
(94.236187 -0.085325847 -3.3226141e-17)
(94.23085 -0.096683503 -1.5830853e-17)
(94.226311 -0.11124497 -3.0176787e-17)
(94.222527 -0.12747903 -2.8868952e-17)
(94.219598 -0.14608868 -2.0682867e-17)
(94.217231 -0.16952657 -1.3125332e-17)
(94.215373 -0.19081297 8.4730885e-23)
(94.281114 -0.0085736184 2.0043109e-17)
(94.282031 0.0075551405 1.9792735e-17)
(94.282628 0.0065662066 -1.9533173e-17)
(94.283292 0.00859992 -1.4448246e-17)
(94.283958 0.010877877 -4.7416742e-18)
(94.284539 0.013000107 0)
(94.284882 0.014811675 -2.7719428e-17)
(94.284958 0.016458495 9.0924573e-18)
(94.284797 0.017767865 0)
(94.284535 0.018668194 -8.8337948e-18)
(94.284304 0.019409622 2.5992864e-17)
(94.284073 0.019998866 -5.4878138e-22)
(94.283861 0.020439102 -3.326043e-17)
(94.28373 0.020490808 1.6276138e-17)
(94.283659 0.02015332 0)
(94.283579 0.019519434 1.5523799e-17)
(94.283538 0.018446948 -1.5133909e-17)
(94.283565 0.016888159 3.0694222e-22)
(94.283589 0.014725611 1.436379e-17)
(94.283509 0.011870371 0)
(94.283216 0.0081920719 0)
(94.282637 0.003719543 1.3150139e-17)
(94.281719 -0.0013533031 -1.2734528e-17)
(94.280343 -0.0071019029 -2.4632895e-17)
(94.278349 -0.01359008 -2.3792662e-17)
(94.275696 -0.020887338 -5.1333937e-22)
(94.272542 -0.028867546 2.2117227e-17)
(94.26893 -0.037311261 2.1285338e-17)
(94.264995 -0.045952161 -2.046234e-17)
(94.26088 -0.054974985 -1.9650968e-17)
(94.256552 -0.063797972 -1.8853012e-17)
(94.251885 -0.072756627 -5.4209491e-17)
(94.246687 -0.082621303 3.4601241e-17)
(94.240679 -0.09316233 1.6541627e-17)
(94.234131 -0.10466012 -6.318234e-17)
(94.227997 -0.11866602 0)
(94.222671 -0.13678004 0)
(94.218655 -0.1529215 0)
(94.216347 -0.16986073 0)
(94.215984 -0.19597941 0)
(94.216131 -0.21787535 4.1124533e-17)
(94.214133 -0.23707612 5.6097641e-18)
(94.27999 -0.010772019 0)
(94.280826 0.0097510717 -3.6420117e-17)
(94.281114 0.0075845474 -2.3968899e-18)
(94.281734 0.0095569121 0)
(94.282434 0.011924741 -1.8703692e-17)
(94.283045 0.01413217 0)
(94.283556 0.01623837 -1.8135153e-17)
(94.284 0.018181801 8.9211472e-18)
(94.28441 0.020002147 -1.7529164e-17)
(94.284867 0.021671546 5.1896453e-17)
(94.285339 0.022964819 -2.5462668e-17)
(94.285822 0.023924776 -7.1281701e-22)
(94.286255 0.024627228 -1.6311331e-17)
(94.286633 0.024980698 5.2527793e-22)
(94.28704 0.024352026 1.5619022e-17)
(94.2875 0.023412898 -3.0702876e-17)
(94.288013 0.022221774 -1.4976946e-17)
(94.288628 0.020554673 4.4517946e-22)
(94.289326 0.01810073 2.8420914e-17)
(94.290022 0.015040455 -4.1450475e-17)
(94.290637 0.011112819 -1.341325e-17)
(94.291086 0.0063807038 -1.300414e-17)
(94.291204 0.00067670061 2.5218377e-17)
(94.290798 -0.0061918963 -2.4422768e-17)
(94.289707 -0.013999573 2.3595361e-17)
(94.28781 -0.022625055 -1.93309e-22)
(94.285091 -0.031556036 -2.1947287e-17)
(94.281482 -0.040795318 -2.1129226e-17)
(94.276954 -0.050137068 0)
(94.271607 -0.059666097 1.9515e-17)
(94.26568 -0.06943414 1.4857364e-22)
(94.259349 -0.079512336 5.3844613e-17)
(94.252684 -0.090147179 -3.4377736e-17)
(94.245453 -0.10228633 1.6444469e-17)
(94.237528 -0.11554552 3.1427014e-17)
(94.229811 -0.13031712 0)
(94.223211 -0.14510989 0)
(94.218538 -0.16463957 3.4104599e-17)
(94.216041 -0.18252748 -6.4875773e-18)
(94.21563 -0.19962153 0)
(94.215956 -0.22196649 -4.0900726e-17)
(94.215846 -0.24248982 -5.577409e-18)
(94.213097 -0.26729095 0)
(94.281991 -0.011284883 0)
(94.282067 0.010820476 2.140572e-17)
(94.281715 0.0075776493 2.3483044e-18)
(94.281556 0.010359403 1.8638634e-17)
(94.281587 0.012768069 1.3774216e-17)
(94.281812 0.015065043 1.8096976e-17)
(94.282192 0.017270527 3.5647964e-17)
(94.282678 0.019383231 0)
(94.283228 0.021406708 0)
(94.283798 0.023367681 -1.7019563e-17)
(94.284377 0.024973424 0)
(94.284998 0.026360779 -1.58327e-22)
(94.285647 0.027452516 1.6045152e-17)
(94.286263 0.028155502 1.2715377e-22)
(94.286897 0.028298917 -1.535123e-17)
(94.287633 0.027899291 3.0132699e-17)
(94.2884 0.026748648 -1.4707277e-17)
(94.289201 0.024908229 1.4343454e-17)
(94.290113 0.022025856 0)
(94.291123 0.018323088 -1.3162979e-22)
(94.292157 0.013587726 1.3208926e-17)
(94.293141 0.0078349082 2.5640324e-17)
(94.293984 0.0010032327 -2.4851605e-17)
(94.294595 -0.0067477513 2.4046822e-17)
(94.294895 -0.015488843 0)
(94.294627 -0.024645762 0)
(94.293527 -0.034453352 -2.1788291e-17)
(94.291372 -0.044765519 4.1959684e-17)
(94.287829 -0.055659168 1.6975188e-22)
(94.28285 -0.0666511 -3.8772295e-17)
(94.276584 -0.077467215 1.8604815e-17)
(94.269128 -0.088557271 0)
(94.260732 -0.10060034 -3.4163226e-17)
(94.25163 -0.11349782 3.2687466e-17)
(94.241988 -0.12738791 -3.1240843e-17)
(94.232409 -0.14164533 -1.491143e-17)
(94.224205 -0.15737 1.4218605e-17)
(94.217969 -0.17054991 -2.7090336e-17)
(94.21422 -0.18719941 -3.2223987e-17)
(94.212454 -0.20384049 6.1351756e-18)
(94.212848 -0.22549426 0)
(94.214702 -0.24652697 0)
(94.216166 -0.26870788 0)
(94.215422 -0.27865348 -5.0415191e-18)
(94.21024 -0.35023939 -3.3412234e-17)
(94.288449 -0.010407331 1.8945193e-17)
(94.287275 0.011759301 -2.1061391e-17)
(94.285852 0.0080420879 6.9323921e-18)
(94.284885 0.011239917 -2.2797584e-17)
(94.284238 0.013841201 -1.7996167e-17)
(94.283861 0.016326622 -8.8722053e-18)
(94.283675 0.018802351 3.2966238e-22)
(94.283604 0.021191677 -8.6090993e-18)
(94.283629 0.023462091 1.6945963e-17)
(94.283762 0.025301839 0)
(94.284085 0.027111724 0)
(94.284582 0.028442131 0)
(94.285208 0.029427822 1.580231e-17)
(94.285897 0.030093081 -1.5475447e-17)
(94.286599 0.030339765 0)
(94.2873 0.029868819 0)
(94.287987 0.0285574 -1.4427447e-17)
(94.288655 0.026459704 4.0212466e-22)
(94.289354 0.023380431 1.3723071e-17)
(94.29013 0.019483273 0)
(94.291016 0.014533198 2.6110106e-17)
(94.292009 0.0085799118 -1.2668687e-17)
(94.293063 0.0015475375 -3.6831713e-17)
(94.294119 -0.0062631821 1.1877785e-17)
(94.295176 -0.015496776 2.3076885e-17)
(94.296068 -0.025738463 0)
(94.296568 -0.037034643 -2.9335736e-22)
(94.296273 -0.049066144 4.2258686e-22)
(94.294762 -0.061400523 0)
(94.291636 -0.073770372 1.9265391e-17)
(94.286556 -0.086677882 -1.8492423e-17)
(94.279437 -0.09977421 0)
(94.270476 -0.11319862 3.3969814e-17)
(94.259991 -0.12725075 -1.62515e-17)
(94.248573 -0.14205848 1.5535931e-17)
(94.236898 -0.15586957 -2.9667867e-17)
(94.22609 -0.16840604 2.8293743e-17)
(94.21731 -0.18261096 3.3686592e-17)
(94.211011 -0.194693 1.9310899e-17)
(94.206998 -0.21096981 -6.1240729e-18)
(94.206751 -0.22989255 -4.0771945e-17)
(94.21008 -0.24786361 4.4249544e-17)
(94.213941 -0.27143059 5.2448344e-18)
(94.21624 -0.27842449 4.0038172e-17)
(94.215757 -0.35703539 -2.1563582e-22)
(94.196912 -0.21099147 -4.5211715e-18)
(94.300924 -0.0078972612 -1.862002e-17)
(94.298304 0.012494117 1.8407073e-17)
(94.295648 0.0086262401 0)
(94.293475 0.012169512 1.7959278e-17)
(94.291701 0.014996495 2.658682e-17)
(94.290278 0.017764787 -8.7407075e-18)
(94.289124 0.020429228 -1.7228625e-17)
(94.288211 0.023057373 0)
(94.287512 0.025581024 -1.6690253e-17)
(94.287014 0.027928546 1.6402508e-17)
(94.286742 0.029902963 1.6112923e-17)
(94.286687 0.031533113 -3.1658564e-17)
(94.28683 0.032692875 1.5537163e-17)
(94.287141 0.033338112 -1.5225136e-17)
(94.287535 0.03333809 0)
(94.287955 0.032654912 1.4580487e-17)
(94.28843 0.031185498 0)
(94.288949 0.028935057 -1.3904419e-17)
(94.289506 0.02559242 0)
(94.29011 0.021359484 2.6548082e-17)
(94.290758 0.015982115 1.2902212e-17)
(94.291454 0.0096063664 0)
(94.292188 0.002076713 7.2873321e-17)
(94.292992 -0.0064747916 -4.7028834e-17)
(94.293884 -0.01632493 -2.2836965e-17)
(94.294809 -0.026885203 -2.2062916e-17)
(94.295734 -0.038715469 2.1278659e-17)
(94.296491 -0.051450585 0)
(94.29681 -0.065522919 0)
(94.295923 -0.080004404 -1.9062038e-17)
(94.293086 -0.09577095 3.6782983e-17)
(94.287843 -0.11165823 -1.7633338e-17)
(94.279897 -0.12712059 -1.6893644e-17)
(94.269559 -0.14296698 3.2336487e-17)
(94.257351 -0.15756127 1.1081443e-21)
(94.243992 -0.1710942 -2.6856531e-22)
(94.230629 -0.1834923 -4.224688e-17)
(94.218929 -0.19531269 8.7699376e-22)
(94.208938 -0.20599545 -3.198824e-17)
(94.202064 -0.21837589 6.1116048e-18)
(94.198877 -0.2360135 4.6487225e-17)
(94.201208 -0.25041281 3.8320853e-21)
(94.206801 -0.27280675 0)
(94.211547 -0.27746474 -4.4727071e-17)
(94.217424 -0.35991882 9.4639547e-18)
(94.199927 -0.20720562 6.962205e-17)
(94.198237 -0.55448885 -2.1347205e-18)
(94.18956 -0.008038758 -6.4906962e-17)
(94.319995 -0.003722403 1.1434042e-18)
(94.315834 0.012971262 -1.1306302e-18)
(94.311787 0.0094345991 -1.7878476e-17)
(94.308191 0.013769636 -1.7660759e-17)
(94.305029 0.017027919 0)
(94.302267 0.020050944 0)
(94.299888 0.022768228 0)
(94.297881 0.02545514 -1.6709022e-17)
(94.296194 0.02793343 8.2255257e-18)
(94.294762 0.03037333 -2.4276458e-17)
(94.293585 0.032482512 0)
(94.292675 0.034299824 0)
(94.292021 0.03565235 1.0697098e-22)
(94.291588 0.036414947 1.5027165e-17)
(94.291316 0.036435111 -1.4709876e-17)
(94.291186 0.035664609 1.4401623e-17)
(94.291199 0.033932719 -6.5784962e-23)
(94.291325 0.031235506 -1.1266229e-22)
(94.291523 0.027476051 -1.7358974e-23)
(94.291771 0.022754591 4.8241587e-22)
(94.292051 0.016828325 -2.5418061e-17)
(94.29235 0.0098907994 0)
(94.292689 0.0018994527 -2.3980167e-17)
(94.293096 -0.0070484539 -4.9354556e-22)
(94.293561 -0.016997022 4.5233059e-17)
(94.294174 -0.027897489 0)
(94.294898 -0.040296222 -2.1093086e-17)
(94.295524 -0.053752042 -7.947273e-22)
(94.295855 -0.068579557 -5.8861091e-17)
(94.295834 -0.085785785 1.8832207e-17)
(94.295139 -0.10325486 3.6402126e-17)
(94.292489 -0.1219925 -1.7549751e-17)
(94.28702 -0.14055688 0)
(94.27852 -0.15785943 0)
(94.26721 -0.17449786 -3.0770766e-17)
(94.2535 -0.18827826 2.9398799e-17)
(94.238596 -0.20075761 5.6114089e-17)
(94.223728 -0.21001191 -2.6738782e-17)
(94.210354 -0.22290788 2.5424175e-17)
(94.199321 -0.23075578 -4.855617e-17)
(94.192589 -0.24376985 0)
(94.190988 -0.25629844 3.2708899e-21)
(94.195229 -0.27443423 4.7094898e-17)
(94.202039 -0.2751301 7.449267e-17)
(94.21206 -0.36181317 0)
(94.199378 -0.2070255 0)
(94.202483 -0.55619632 0)
(94.197371 -0.011868408 6.4836007e-17)
(94.243121 -0.72086221 0)
(94.346367 0.0023978538 0)
(94.340408 0.012745688 1.7775926e-17)
(94.334844 0.0094476953 1.3769025e-21)
(94.32968 0.014447016 0)
(94.324907 0.018168173 0)
(94.320544 0.021754844 0)
(94.316628 0.025111907 -1.6684788e-17)
(94.313159 0.028410449 3.2889017e-17)
(94.310121 0.031405274 0)
(94.307487 0.034176376 0)
(94.305203 0.036520207 0)
(94.303262 0.038346547 -1.5400178e-17)
(94.301665 0.039547729 -1.5118515e-17)
(94.30038 0.040082057 0)
(94.299356 0.039905422 2.906016e-17)
(94.298532 0.039016155 -1.49988e-22)
(94.297841 0.037208367 -2.7821795e-17)
(94.297222 0.034351454 -1.3589455e-17)
(94.296664 0.030304393 2.6521106e-17)
(94.296179 0.025116123 1.0211624e-22)
(94.295807 0.018699266 -2.5158822e-17)
(94.295575 0.011179665 1.2224705e-17)
(94.295476 0.0027463475 2.3756752e-17)
(94.295476 -0.006831837 -4.6110827e-17)
(94.295523 -0.017401774 -2.232716e-17)
(94.295634 -0.028905462 2.1589762e-17)
(94.295747 -0.042231946 -1.2528862e-21)
(94.29573 -0.056644128 -1.3296033e-21)
(94.295424 -0.072469035 1.9492708e-17)
(94.294956 -0.089879935 -3.7402451e-17)
(94.294449 -0.11018368 1.7991206e-17)
(94.293379 -0.13007894 -1.7369484e-17)
(94.290607 -0.15120436 0)
(94.285078 -0.17115706 -1.6008779e-17)
(94.276183 -0.18890179 6.1251882e-17)
(94.264022 -0.20456219 -4.3904221e-17)
(94.249155 -0.21745423 -1.3973162e-17)
(94.23235 -0.22703615 -3.9978112e-17)
(94.215835 -0.23703695 2.5378428e-17)
(94.201359 -0.24628761 4.8255391e-17)
(94.190041 -0.25488867 4.0306801e-17)
(94.183894 -0.26356397 -4.3964299e-17)
(94.18338 -0.27892415 -3.1320411e-17)
(94.188414 -0.27565019 -4.9560286e-17)
(94.200956 -0.36459051 -3.291408e-17)
(94.196007 -0.20605071 7.1282246e-17)
(94.203246 -0.55748261 -6.7847861e-17)
(94.199333 -0.020230162 1.0061243e-18)
(94.255147 -0.72655291 6.020496e-17)
(94.379887 0.0093945491 1.6557696e-17)
(94.371982 0.011421529 -1.6380093e-17)
(94.365007 0.0091226254 -4.3164611e-18)
(94.358287 0.014547774 -7.3465558e-23)
(94.351856 0.01860881 2.9500643e-17)
(94.345787 0.02264692 -8.3199481e-18)
(94.340143 0.026580361 8.2078929e-18)
(94.33495 0.030404721 -1.2010738e-21)
(94.330232 0.033921378 -7.9703147e-18)
(94.325995 0.037116475 1.5693314e-17)
(94.322203 0.03988282 0)
(94.318842 0.042108724 1.5173673e-17)
(94.315917 0.043715898 2.9803418e-17)
(94.313427 0.044594522 -2.9243431e-17)
(94.311342 0.044484727 1.4334062e-17)
(94.309587 0.043352679 -2.0012179e-22)
(94.308076 0.041015098 -1.3735918e-17)
(94.306734 0.037534972 1.342512e-17)
(94.305504 0.032991013 1.3106483e-17)
(94.304374 0.027364369 2.5561542e-17)
(94.303342 0.020614191 -3.7346986e-17)
(94.302421 0.012800539 0)
(94.301628 0.003863733 0)
(94.300935 -0.0062481039 2.2852112e-17)
(94.300295 -0.017489158 -4.4310142e-17)
(94.299635 -0.029724852 2.1449346e-17)
(94.298923 -0.043867228 2.0734922e-17)
(94.29818 -0.059503749 2.0010746e-17)
(94.297239 -0.075993899 1.929176e-17)
(94.296066 -0.095048596 1.8580063e-17)
(94.294763 -0.11561052 0)
(94.29337 -0.13815082 0)
(94.291643 -0.16041665 0)
(94.288603 -0.18245771 -1.5920698e-17)
(94.282851 -0.20212953 3.0478323e-17)
(94.273703 -0.21965316 -1.4570069e-17)
(94.260599 -0.23378281 0)
(94.243822 -0.24446284 2.6557319e-17)
(94.225736 -0.25368581 -1.2655977e-17)
(94.208207 -0.26005378 -1.204691e-17)
(94.192664 -0.26828185 -4.5782827e-17)
(94.180642 -0.2737025 0)
(94.174685 -0.28466177 4.6906087e-17)
(94.175584 -0.27857061 -5.761723e-22)
(94.186983 -0.36735009 -9.3950386e-18)
(94.189411 -0.20271786 -1.3800427e-16)
(94.200386 -0.55838681 6.7402486e-17)
(94.198612 -0.025667942 0)
(94.269074 -0.70607244 -6.1029994e-17)
(94.417563 0.01527472 -1.7366081e-17)
(94.40881 0.0082649668 0)
(94.401128 0.0079944739 1.2739197e-17)
(94.393289 0.013562253 4.1962856e-18)
(94.385406 0.01777174 -2.0304771e-21)
(94.37763 0.022097943 0)
(94.370101 0.026497857 0)
(94.362941 0.030818149 -1.5621209e-21)
(94.356254 0.03492903 3.9231111e-17)
(94.35011 0.038732084 -3.8632218e-17)
(94.344531 0.042075585 5.3406186e-22)
(94.339505 0.044812703 -2.9900283e-17)
(94.335012 0.046813168 -1.4686808e-17)
(94.331023 0.047924431 2.9909921e-22)
(94.327521 0.047926097 -2.0015183e-22)
(94.324465 0.046802543 -1.3851706e-17)
(94.321817 0.044465153 -1.3557641e-17)
(94.319547 0.040926166 0)
(94.317567 0.036151715 -2.5898179e-17)
(94.315793 0.030202717 1.2634462e-17)
(94.314161 0.022967825 4.9253236e-17)
(94.312624 0.014628236 0)
(94.31114 0.0050887082 0)
(94.309695 -0.0056068418 0)
(94.308281 -0.017608045 6.5862227e-17)
(94.306822 -0.030921396 -8.506364e-17)
(94.305296 -0.045640941 -3.0565015e-22)
(94.303759 -0.062242998 -1.9878162e-17)
(94.30204 -0.080202799 -1.9181195e-17)
(94.300002 -0.099750357 1.8479509e-17)
(94.297739 -0.12074014 -1.7773632e-17)
(94.295651 -0.14361281 3.4159878e-17)
(94.293502 -0.16741964 1.0841584e-22)
(94.291014 -0.19038719 1.5800095e-17)
(94.287466 -0.21310423 -3.0302686e-17)
(94.281367 -0.23248819 2.9003498e-17)
(94.271095 -0.24969355 2.7717335e-17)
(94.256601 -0.26268092 0)
(94.238757 -0.27157836 -2.5230583e-17)
(94.219673 -0.27720843 0)
(94.200566 -0.28207496 0)
(94.183853 -0.28743902 0)
(94.171544 -0.29477742 -8.2811974e-17)
(94.167711 -0.28416753 3.9528275e-17)
(94.175703 -0.37107507 3.7503945e-17)
(94.180084 -0.19792894 7.1074995e-17)
(94.192912 -0.55827893 0)
(94.196873 -0.03424238 -6.2826083e-17)
(94.278497 -0.70730421 -6.1858938e-17)
(94.450301 0.017450164 0)
(94.443359 0.0037068121 0)
(94.436947 0.0052554238 0)
(94.429788 0.010268968 1.6515441e-17)
(94.42196 0.01414754 -3.2630969e-17)
(94.413595 0.018465386 0)
(94.404886 0.023064799 0)
(94.396053 0.027818751 -3.1350908e-17)
(94.387339 0.032568549 -1.544997e-17)
(94.378954 0.037135148 -1.5215389e-17)
(94.37107 0.041253618 1.2684125e-21)
(94.363807 0.044709195 1.0672874e-21)
(94.357232 0.047329345 1.4475521e-17)
(94.351372 0.048965936 0)
(94.346224 0.049435429 2.7722806e-22)
(94.341754 0.048694546 1.366733e-17)
(94.337911 0.046626262 -1.3383006e-17)
(94.334628 0.043176029 2.6183832e-17)
(94.331809 0.038349106 -1.279363e-17)
(94.32935 0.032286521 1.2488402e-17)
(94.327155 0.02487427 -2.4353691e-17)
(94.325132 0.016186309 0)
(94.323184 0.0061363787 -7.9565606e-24)
(94.321221 -0.0051326564 -1.0869025e-22)
(94.319209 -0.017800035 8.092669e-23)
(94.317134 -0.032025032 -1.2789182e-22)
(94.314894 -0.047526802 2.0404163e-17)
(94.312485 -0.064914983 1.9725417e-17)
(94.310035 -0.084187529 0)
(94.307301 -0.10383539 0)
(94.304248 -0.12646743 0)
(94.301336 -0.1489596 -3.4012223e-17)
(94.298354 -0.17314711 0)
(94.295304 -0.19792297 0)
(94.292154 -0.2216381 0)
(94.287736 -0.2423538 -2.8844499e-17)
(94.280289 -0.26159381 5.4170002e-22)
(94.269044 -0.27656518 2.6353586e-17)
(94.253442 -0.28696379 3.7715082e-17)
(94.234585 -0.2935678 -1.1981641e-17)
(94.214072 -0.29759694 0)
(94.193538 -0.29896346 0)
(94.176606 -0.30385014 8.2357898e-17)
(94.166202 -0.28980353 -3.9262433e-17)
(94.169612 -0.37354779 -4.6803045e-18)
(94.169005 -0.19292421 4.4329405e-18)
(94.183527 -0.56074912 -6.9486301e-17)
(94.191656 -0.033137051 6.4727186e-17)
(94.28331 -0.70876569 6.1671803e-17)
(94.467644 0.014996125 0)
(94.464134 0.00044410113 0)
(94.460575 0.0022761831 0)
(94.456103 0.0056537296 -1.6262432e-17)
(94.450736 0.0080379968 1.6065324e-17)
(94.444391 0.011227493 0)
(94.437082 0.01511645 0)
(94.428891 0.019604155 2.3157298e-17)
(94.419956 0.024473688 1.5216471e-17)
(94.410525 0.029501488 -7.4926861e-18)
(94.400882 0.034383568 1.4754497e-17)
(94.391347 0.038821591 1.4513163e-17)
(94.382227 0.042537631 0)
(94.373782 0.045290487 0)
(94.366191 0.046801299 1.3749357e-17)
(94.359566 0.046947646 -2.696235e-17)
(94.353926 0.045667362 2.6413112e-17)
(94.349226 0.042823863 -1.2925218e-17)
(94.345365 0.038461287 -2.5274079e-17)
(94.342209 0.03259732 -3.7027062e-17)
(94.339586 0.025323877 1.2040893e-17)
(94.337304 0.016734028 -7.0401159e-17)
(94.335238 0.0065001026 -2.2840383e-17)
(94.333251 -0.0051365166 -2.2202246e-17)
(94.331171 -0.018355816 2.1553958e-17)
(94.328939 -0.033043024 0)
(94.326479 -0.049367185 -2.0237199e-17)
(94.323709 -0.067154214 0)
(94.320743 -0.086401952 1.8905191e-17)
(94.317512 -0.10797541 -3.6475823e-17)
(94.314035 -0.13084614 -1.0149085e-22)
(94.310427 -0.15380666 3.3817021e-17)
(94.30691 -0.17848941 2.029272e-22)
(94.303297 -0.20222608 -1.559959e-17)
(94.299552 -0.22782517 0)
(94.295139 -0.25027274 -2.8678508e-17)
(94.289269 -0.27149972 -5.4902213e-17)
(94.280862 -0.28789051 -3.9362137e-17)
(94.268304 -0.29943267 4.57584e-22)
(94.251542 -0.30633089 5.7180838e-22)
(94.231574 -0.31202815 -5.6883069e-18)
(94.209409 -0.31238562 -1.0826042e-17)
(94.18847 -0.31495624 1.0289055e-17)
(94.172704 -0.29846706 -4.8813212e-18)
(94.168264 -0.3741613 0)
(94.159444 -0.19464978 -3.3243449e-17)
(94.17843 -0.55716442 6.5236959e-17)
(94.183007 -0.033268944 -9.9467867e-19)
(94.286321 -0.69909744 9.449132e-19)
(94.471171 0.0089287449 1.6471199e-17)
(94.470156 -0.001253236 -2.0369799e-18)
(94.469095 0.00043624631 -1.0132528e-17)
(94.467436 0.00322901 1.201493e-17)
(94.465147 0.0047867926 7.9125967e-18)
(94.461893 0.0065880004 7.8121369e-18)
(94.457533 0.0086539786 1.5419069e-17)
(94.452022 0.011100923 -1.5208557e-17)
(94.445402 0.014070485 -7.4958544e-18)
(94.437721 0.017711088 2.2153915e-17)