/*--------------------------------*- C++ -*----------------------------------*\
| =========                 |                                                 |
| \\      /  F ield         | OpenFOAM: The Open Source CFD Toolbox           |
|  \\    /   O peration     | Version:  2506                                  |
|   \\  /    A nd           | Website:  www.openfoam.com                      |
|    \\/     M anipulation  |                                                 |
\*---------------------------------------------------------------------------*/
FoamFile
{
    version     2.0;
    format      ascii;
    arch        "LSB;label=32;scalar=64";
    class       volScalarField;
    location    "1.4";
    object      rho;
}
// * * * * * * * * * * * * * * * * * * * * * * * * * * * * * * * * * * * * * //

dimensions      [1 -3 0 0 0 0 0];

internalField   nonuniform List<scalar> 
19257
(
0.66590621
0.66580699
0.66578516
0.6657925
0.66578339
0.66578054
0.66578148
0.6657671
0.66576212
0.66576471
0.66576202
0.66574093
0.66572597
0.66571282
0.66567907
0.66564817
0.66564142
0.66563397
0.66564966
0.66564158
0.665607
0.66558389
0.66555547
0.66550764
0.66548221
0.66546695
0.66543893
0.66541651
0.66538683
0.66535044
0.66533043
0.66529552
0.66527288
0.66525339
0.6651913
0.66519256
0.66528602
0.66543369
0.66541281
0.6653811
0.66524227
0.66493484
0.66489209
0.66477373
0.66410893
0.66367801
0.66114578
0.66190997
0.65670071
0.66590135
0.66580037
0.66578471
0.66579154
0.66578639
0.66578011
0.66578111
0.66576368
0.66576689
0.66576877
0.66576208
0.66574175
0.66572833
0.66572844
0.66570052
0.66566451
0.6656614
0.66565575
0.66567212
0.66565973
0.66563036
0.66560948
0.66558987
0.6655562
0.66552352
0.66552334
0.66550577
0.66548854
0.66546686
0.66544872
0.66543195
0.66541912
0.66542703
0.66544801
0.66540947
0.66539135
0.66549742
0.6657215
0.66586493
0.66584691
0.66579363
0.66597867
0.66598256
0.66580803
0.66505733
0.66468763
0.664343
0.66487337
0.65492689
0.66590544
0.66580418
0.66578331
0.66578629
0.66578917
0.66578361
0.66578648
0.66577531
0.66576527
0.66576242
0.66575484
0.66575613
0.66573939
0.66573593
0.66571188
0.66568849
0.66569099
0.66566183
0.66567251
0.66566811
0.66565675
0.66564445
0.66562922
0.66560723
0.66557687
0.66557866
0.66557507
0.66556126
0.66555241
0.66554135
0.66553123
0.66555086
0.6655823
0.66562662
0.66562049
0.6656035
0.66570856
0.66595925
0.66617771
0.66626298
0.66652118
0.66645784
0.66640429
0.66653991
0.66695195
0.66598748
0.66448568
0.66602346
0.65814487
0.66591291
0.66580383
0.66577796
0.66578344
0.66579121
0.66578547
0.66578753
0.66578378
0.66576304
0.66576357
0.66577273
0.66577207
0.66575408
0.66574228
0.66573204
0.66570124
0.66570164
0.66567606
0.66568748
0.66568999
0.66569103
0.66567977
0.66567094
0.66565465
0.66563507
0.66563356
0.66564623
0.66563838
0.66563637
0.66563654
0.66564577
0.66567543
0.66572393
0.6657982
0.66583681
0.6658423
0.66591288
0.66619824
0.66652072
0.66671428
0.66665156
0.66693461
0.66740554
0.66766363
0.66758155
0.66734377
0.66744803
0.66732474
0.65992691
0.66590806
0.66581084
0.66576936
0.66577865
0.66578597
0.66578674
0.66578822
0.66578215
0.66576973
0.66577981
0.66578204
0.66577472
0.66576561
0.66575195
0.66575048
0.6657197
0.66572681
0.66571001
0.66570775
0.66571403
0.66571719
0.66571105
0.66571292
0.66570087
0.6656889
0.66569434
0.66571168
0.66571276
0.66572581
0.66573954
0.66575792
0.66579519
0.66585872
0.66595925
0.66604639
0.66606956
0.66613501
0.66638258
0.66680784
0.66705565
0.66732899
0.66765451
0.6679031
0.66825962
0.66873399
0.66872956
0.6695035
0.66910576
0.66216019
0.66591147
0.66581241
0.66577135
0.66577786
0.66578367
0.66578729
0.66579022
0.66578791
0.66577829
0.66578148
0.66578116
0.6657804
0.66577203
0.66576641
0.66576028
0.66574006
0.66574026
0.66573479
0.66572819
0.66573167
0.66574187
0.66575122
0.66575153
0.66574284
0.66574465
0.66575917
0.6657762
0.66579528
0.66581896
0.66584277
0.6658736
0.66591816
0.66599134
0.66611321
0.66624705
0.6663041
0.66637027
0.66658672
0.66703096
0.66740623
0.66768946
0.6679012
0.66838389
0.66903286
0.66950565
0.66996399
0.67016033
0.67036879
0.66646342
0.6659274
0.66581768
0.66577316
0.66578212
0.66578631
0.66579205
0.6657917
0.66579244
0.66578671
0.66578494
0.6657915
0.66579465
0.66578869
0.66578095
0.66577712
0.66576123
0.66575271
0.66575923
0.66575147
0.66575463
0.66578042
0.66578903
0.66578847
0.66579365
0.66580486
0.66582292
0.66584743
0.66587994
0.66591576
0.66594692
0.66598942
0.6660443
0.66612412
0.66626345
0.66643362
0.66654714
0.66661203
0.66681213
0.66724704
0.66774967
0.66807506
0.66846917
0.66901235
0.6696759
0.67029234
0.67109985
0.67211748
0.67230156
0.66940287
0.66593828
0.66582813
0.66577647
0.66578477
0.66578979
0.66580004
0.66579501
0.66579703
0.66579517
0.66579278
0.66580272
0.66580545
0.66580317
0.66579869
0.66579596
0.66578234
0.66577992
0.66578824
0.66577723
0.66578615
0.66581143
0.66582988
0.66583365
0.66584482
0.66586586
0.665888
0.66591982
0.66596283
0.66601089
0.66605436
0.66610814
0.66617229
0.6662603
0.66640895
0.66660848
0.6667755
0.66687418
0.66703754
0.6674446
0.66798544
0.66845531
0.66891566
0.66939586
0.67011671
0.67113388
0.67201109
0.67330075
0.6735183
0.67269214
0.66595939
0.66583531
0.66577259
0.66577864
0.6657888
0.66580776
0.66580207
0.66580373
0.66580193
0.66579896
0.66580471
0.6658137
0.66581128
0.66581391
0.66580843
0.66580627
0.66580735
0.66581337
0.66580488
0.66581567
0.66584013
0.66587173
0.66587729
0.66589288
0.66592257
0.66595218
0.66599083
0.66604248
0.66610535
0.66616335
0.66622802
0.66630171
0.66639768
0.66655261
0.66677701
0.66698763
0.66714053
0.66728707
0.66765807
0.66823528
0.66877332
0.66927061
0.66990103
0.67081808
0.67174388
0.67287617
0.67431711
0.67527012
0.6758929
0.66598348
0.66584224
0.66577672
0.66577017
0.66579545
0.66581012
0.6658101
0.66580736
0.66580673
0.66580688
0.66580888
0.66581888
0.66582025
0.66582216
0.66582464
0.66582951
0.66583031
0.66583712
0.66583654
0.66584248
0.66586743
0.66590476
0.66592238
0.66593961
0.66597655
0.66601665
0.66606278
0.66612137
0.66619371
0.66626908
0.66634728
0.66643154
0.66653434
0.66669465
0.66693327
0.66718624
0.66738961
0.6675573
0.66788024
0.66843478
0.6690832
0.66973267
0.67039972
0.67118105
0.67234083
0.67374843
0.67529516
0.67688396
0.67854002
0.66601369
0.66584938
0.66577462
0.66576713
0.66581088
0.66581617
0.66581828
0.66580968
0.66580802
0.66581182
0.665817
0.66582899
0.66583213
0.66583371
0.66584264
0.66584915
0.6658501
0.66585905
0.66586896
0.6658717
0.66589717
0.66593573
0.66596853
0.66598859
0.66603084
0.66608207
0.66613354
0.66619873
0.66627705
0.66636779
0.66646367
0.66656042
0.66666906
0.66683305
0.66707832
0.66736535
0.66761328
0.66783094
0.66811247
0.66865293
0.66933458
0.67001912
0.67074036
0.67169299
0.67292846
0.67452982
0.67608618
0.67837255
0.68102833
0.66603715
0.66585413
0.66578258
0.66577588
0.66581533
0.66581904
0.66582177
0.66581325
0.66581121
0.66581905
0.66582621
0.66584292
0.66584801
0.66584938
0.66585948
0.66586904
0.66586996
0.66588157
0.66590293
0.66590804
0.66593038
0.66596921
0.66601536
0.66604279
0.66608494
0.66614535
0.66620411
0.66627551
0.66635798
0.66645839
0.66657279
0.66668549
0.66680131
0.66696625
0.66721689
0.6675231
0.66781725
0.66807372
0.66836937
0.66886953
0.66955282
0.67034565
0.67119174
0.67219977
0.67343601
0.67515244
0.67719085
0.67947918
0.68313649
0.66607054
0.66586934
0.66578672
0.66577886
0.66581336
0.66582606
0.66583073
0.66582155
0.66581662
0.66582704
0.66583899
0.66585611
0.66586395
0.66586493
0.66587367
0.66588884
0.66589425
0.665905
0.66593277
0.66594766
0.66596755
0.66600411
0.66605578
0.66609365
0.6661356
0.66620366
0.66627107
0.66634654
0.66643379
0.66653975
0.66667001
0.6668014
0.666927
0.66709284
0.66734655
0.66766569
0.66799514
0.66829265
0.66861075
0.66908156
0.66978109
0.67059875
0.6714878
0.67257436
0.67392858
0.67563037
0.67796107
0.68070873
0.68515282
0.66610701
0.66588368
0.66578835
0.6657802
0.66581433
0.66583119
0.66584356
0.66583546
0.66583111
0.66584083
0.66585338
0.66586794
0.66588013
0.66588151
0.66588851
0.66590748
0.66591649
0.66592835
0.66595888
0.66598322
0.66600123
0.66603414
0.66608751
0.66613695
0.66618157
0.666254
0.66633105
0.66641123
0.66650303
0.66661276
0.66675436
0.66690438
0.66704315
0.66721135
0.66746733
0.66779663
0.66814691
0.66848639
0.66882896
0.66929328
0.6699743
0.67083705
0.67180067
0.67292512
0.6744097
0.67624303
0.67859648
0.68196773
0.68672857
0.66613907
0.66590126
0.66579771
0.66578566
0.66581555
0.66584017
0.66585219
0.66584612
0.66584533
0.66585445
0.66586502
0.66587873
0.66589278
0.66589564
0.66589944
0.66591994
0.66593545
0.66594928
0.66598063
0.66601341
0.66603468
0.66606545
0.66611817
0.66617635
0.66622546
0.66629928
0.66638365
0.66647027
0.66656572
0.66667819
0.66682754
0.66699363
0.6671473
0.66731991
0.66757787
0.66791659
0.66828172
0.66864885
0.66902305
0.66948967
0.67016033
0.67103305
0.67206272
0.67322635
0.67476713
0.67674469
0.67920136
0.68267855
0.68812564
0.66616412
0.66591844
0.66580882
0.66578336
0.66581048
0.66584726
0.66586096
0.66585044
0.66584814
0.66585797
0.66586835
0.66588144
0.66589657
0.6659026
0.66590737
0.66592884
0.66594934
0.66596661
0.66599906
0.66603679
0.66606352
0.66609451
0.66614653
0.66621031
0.66626514
0.66633986
0.6664285
0.66652202
0.66662079
0.66673538
0.666891
0.66707012
0.66723763
0.66741656
0.66767685
0.66802411
0.66840058
0.66878578
0.66918735
0.66966719
0.67033124
0.67120398
0.67226633
0.67351747
0.67508183
0.67715087
0.67984545
0.68348395
0.68932126
0.66617853
0.66593131
0.66581443
0.66577269
0.66581278
0.6658564
0.66587088
0.66585593
0.66585037
0.66586177
0.66587529
0.66588887
0.6659033
0.66591031
0.66591573
0.66593821
0.66596229
0.66598126
0.66601341
0.66605393
0.66608582
0.66611797
0.66616912
0.66623561
0.66629681
0.66637348
0.66646475
0.66656383
0.66666579
0.66678155
0.66694277
0.66713255
0.66731121
0.66749665
0.66776019
0.66811448
0.66849925
0.66889498
0.66931635
0.66981194
0.67047452
0.67135302
0.67242446
0.67372513
0.67536243
0.67745874
0.68027065
0.6840641
0.69024014
0.66619382
0.66593955
0.6658055
0.66576812
0.66581432
0.66586072
0.6658735
0.66586696
0.66586248
0.66587027
0.66588181
0.66589463
0.66590928
0.66591768
0.66592436
0.66594765
0.66597475
0.66599572
0.66602728
0.66606829
0.66610299
0.66613629
0.66618695
0.66625307
0.66631851
0.66639697
0.66648986
0.66659252
0.66669673
0.66681206
0.66697664
0.66717386
0.66735995
0.66755057
0.66781816
0.66817721
0.66856464
0.66896349
0.66939649
0.66990591
0.67056907
0.6714405
0.67251136
0.67383445
0.67552017
0.67769296
0.68053934
0.6844936
0.69085008
0.66620649
0.66594566
0.6658026
0.66576343
0.665809
0.66585023
0.66587408
0.66587617
0.66587108
0.66587274
0.66588016
0.66589346
0.665911
0.66592193
0.66593037
0.66595326
0.66598125
0.66600466
0.66603684
0.66607755
0.66611227
0.66614538
0.66619547
0.66625952
0.66632677
0.66640649
0.66649956
0.66660287
0.66670762
0.66682202
0.66698716
0.66718658
0.66737436
0.66756806
0.66784033
0.66820191
0.66858566
0.66897919
0.66941598
0.66993396
0.67059683
0.67145376
0.67251281
0.67384055
0.67555321
0.6777481
0.68064426
0.68464119
0.69109711
0.6662124
0.66594765
0.66579459
0.6657687
0.66580996
0.66585176
0.66586994
0.66587085
0.66586964
0.66587367
0.66588083
0.66589525
0.66591339
0.66592411
0.66593288
0.66595538
0.66598348
0.66600843
0.66604067
0.66608107
0.66611517
0.66614721
0.66619643
0.66625786
0.6663252
0.66640571
0.66649853
0.66660046
0.66670549
0.66682162
0.66698708
0.66718447
0.66737034
0.66756778
0.66784702
0.66821012
0.66858677
0.66897198
0.66941041
0.66993534
0.67059918
0.67144589
0.67248952
0.673817
0.67554184
0.67774257
0.68063726
0.68463661
0.69112765
0.66621121
0.66594087
0.66578921
0.6657726
0.66581512
0.66585757
0.66586761
0.66585865
0.66586211
0.66587077
0.66587859
0.66589273
0.66591304
0.66592469
0.6659341
0.66595639
0.66598427
0.66601013
0.6660417
0.66608158
0.6661151
0.6661472
0.66619683
0.6662568
0.66632369
0.66640452
0.66649665
0.66659602
0.66670194
0.66682272
0.66698868
0.66718077
0.66736356
0.66756766
0.66785674
0.6682204
0.66858829
0.66896543
0.66940659
0.66993966
0.67060781
0.67144904
0.67248215
0.67380774
0.67554209
0.67774591
0.68063962
0.68463165
0.69109489
0.6662036
0.6659354
0.66579045
0.66577225
0.66581603
0.66584929
0.66585021
0.6658483
0.66586129
0.66587012
0.66587266
0.66588827
0.6659099
0.66591986
0.66592927
0.66595193
0.66598073
0.66600777
0.66603857
0.66607717
0.66610854
0.66614122
0.66619182
0.66625039
0.66631619
0.66639563
0.66648473
0.66658016
0.66668651
0.66681193
0.66697703
0.66715971
0.6673376
0.66755105
0.66785203
0.66821317
0.66856794
0.66893553
0.66937782
0.66991649
0.67058798
0.67142501
0.67244628
0.67376648
0.67549018
0.67768162
0.68054292
0.68444612
0.69079094
0.66619126
0.66592733
0.66579484
0.66577308
0.66581018
0.66584099
0.66584413
0.66583849
0.66585228
0.66586778
0.66586744
0.66588253
0.66590198
0.66591046
0.66592052
0.66594353
0.66597277
0.66599956
0.66602899
0.66606564
0.66609367
0.6661263
0.66617583
0.66623146
0.66629555
0.66637127
0.66645522
0.66654707
0.66665248
0.66677935
0.66693951
0.66710873
0.66728128
0.66750449
0.66781303
0.66816301
0.66849896
0.66885624
0.6692942
0.66982946
0.67049682
0.67132168
0.67232755
0.67361876
0.67532259
0.67746256
0.68023667
0.68403623
0.69013775
0.66617303
0.66591392
0.66578967
0.6657733
0.66580837
0.66583612
0.66584057
0.66583664
0.66584499
0.66585978
0.66586291
0.66587618
0.66589091
0.66589845
0.66590986
0.66593284
0.66596023
0.66598526
0.66601461
0.6660492
0.66607264
0.66610406
0.66615127
0.66620407
0.66626594
0.66633617
0.66641558
0.6665047
0.66660655
0.66673183
0.6668834
0.6670374
0.66720547
0.66743812
0.66774674
0.66807573
0.66839041
0.66873758
0.66916587
0.66969003
0.67034955
0.6711544
0.67213457
0.6733939
0.67506197
0.67708208
0.67979007
0.68347172
0.68924164
0.666145
0.66589948
0.66577827
0.66577223
0.66580525
0.66582684
0.66583546
0.66583488
0.66583976
0.66585131
0.66585944
0.66587245
0.6658815
0.66588577
0.66589673
0.66591989
0.66594732
0.66597117
0.66600018
0.66602949
0.66604671
0.66607718
0.66612237
0.66617259
0.66622995
0.66629374
0.66637022
0.66645554
0.66655208
0.66667497
0.66681458
0.66695269
0.6671189
0.6673605
0.66766273
0.66796512
0.66825716
0.6685952
0.66900842
0.66952022
0.67016023
0.67095467
0.67188859
0.67314055
0.67470077
0.6766684
0.67929133
0.6826513
0.68807914
0.66610717
0.66588803
0.66577153
0.66577268
0.66580504
0.66582391
0.6658327
0.66582842
0.66583138
0.6658392
0.66585099
0.66586442
0.66587082
0.66587278
0.66588191
0.66590461
0.66593145
0.66595411
0.66598323
0.66600474
0.66601557
0.66604503
0.66608761
0.66613453
0.66618516
0.66624369
0.66631767
0.66639697
0.66648939
0.66660921
0.66673323
0.66685714
0.66702526
0.66727368
0.66756154
0.6678327
0.66810597
0.66843388
0.66883021
0.66932371
0.66995943
0.670706
0.67161708
0.67283794
0.67429594
0.67626671
0.67856039
0.68171071
0.68659542
0.66607257
0.66587821
0.6657752
0.66578322
0.6658118
0.66582681
0.66582448
0.66582121
0.66582277
0.66582884
0.66584224
0.66585074
0.66585495
0.66585763
0.66586481
0.66588699
0.66591159
0.66593295
0.66595838
0.66596988
0.6659778
0.66600683
0.6660459
0.66608871
0.66613143
0.66618586
0.6662561
0.66632899
0.66641983
0.66653261
0.66663805
0.6667524
0.66692679
0.66717714
0.66744083
0.66767852
0.6679388
0.66825674
0.6686251
0.66910056
0.66973197
0.67042058
0.67133006
0.67243305
0.67386455
0.67561357
0.6778768
0.68076396
0.68493533
0.66604144
0.66586664
0.6657726
0.66578167
0.66580393
0.66581729
0.66581298
0.6658141
0.66581658
0.6658213
0.66583214
0.66583469
0.66583879
0.66584139
0.66584796
0.66586885
0.66588913
0.66591108
0.6659317
0.66593284
0.66594008
0.66596789
0.66600212
0.66603938
0.66607435
0.66612377
0.66618759
0.66625538
0.66634537
0.66644507
0.66653196
0.66664297
0.6668256
0.66706805
0.66729806
0.6675085
0.66776007
0.66805206
0.66840312
0.66888961
0.66946956
0.67014083
0.67101326
0.67206415
0.67341339
0.67483292
0.67702579
0.6795166
0.68304062
0.66601548
0.66585673
0.66577833
0.66578004
0.66580015
0.66580628
0.66580317
0.66580592
0.66580855
0.66581441
0.6658214
0.66582176
0.66582529
0.66583034
0.66583531
0.66585383
0.66586944
0.66589
0.66590395
0.66589678
0.66590322
0.66592795
0.66595733
0.66598731
0.66601643
0.66606267
0.66611971
0.666182
0.66626567
0.66634627
0.66642003
0.66653455
0.6667206
0.66694199
0.6671363
0.66732614
0.6675654
0.66783379
0.66817176
0.66863582
0.66916141
0.66977967
0.67060293
0.67167049
0.67280536
0.6743695
0.67618541
0.67817326
0.68086568
0.66598441
0.66585146
0.66578751
0.66578771
0.66580872
0.66580765
0.665801
0.66580034
0.66579936
0.66580245
0.6658057
0.66581207
0.66581135
0.6658149
0.66582128
0.6658362
0.6658499
0.6658657
0.66586927
0.66585506
0.66586219
0.66588533
0.66591062
0.66593294
0.6659564
0.6660012
0.6660527
0.66610851
0.66617909
0.66623965
0.66630833
0.66642882
0.66660799
0.66679834
0.66695959
0.66713611
0.6673512
0.66760938
0.66791875
0.66838167
0.66886746
0.66943816
0.67022338
0.67113114
0.67215351
0.67343087
0.67503782
0.67677378
0.67849934
0.66597359
0.66584377
0.6657882
0.66578169
0.66580414
0.66580355
0.66579801
0.66579528
0.665792
0.66579095
0.66579153
0.66579623
0.66579924
0.66579799
0.66580233
0.66581639
0.66583237
0.66583798
0.66583757
0.66581837
0.66582253
0.66584057
0.66586197
0.66587872
0.66589433
0.66593736
0.66598253
0.66602784
0.66608206
0.66613027
0.66620112
0.66632152
0.66648234
0.66663996
0.66677612
0.6669355
0.66713663
0.667361
0.66767455
0.66807934
0.66849925
0.66911162
0.66994191
0.6706684
0.67157284
0.67276058
0.67397356
0.6751005
0.67575162
0.66595316
0.66582671
0.66577895
0.66577648
0.66579056
0.6657942
0.66579457
0.6657921
0.66578772
0.66578137
0.6657833
0.66578084
0.66578495
0.66578795
0.6657865
0.66579139
0.66581024
0.66581044
0.66580387
0.66578553
0.66578574
0.66580073
0.66581808
0.66582762
0.66583608
0.66587362
0.66591002
0.66594178
0.66598106
0.66602397
0.66609642
0.66620731
0.6663454
0.66647392
0.6665889
0.66672782
0.66691997
0.66709511
0.66741823
0.66777663
0.66812194
0.66868093
0.66943151
0.67017632
0.67082929
0.67169041
0.67301048
0.67362156
0.6728056
0.66592846
0.66582313
0.66578248
0.66578001
0.66578131
0.66578605
0.66579344
0.66578641
0.66578572
0.665775
0.66577211
0.66576581
0.66576904
0.66577034
0.66576773
0.66577969
0.66578747
0.66577926
0.6657674
0.66575545
0.66574391
0.66575756
0.66577507
0.66577989
0.66578466
0.665813
0.66583747
0.66585661
0.66588613
0.66592715
0.66599164
0.66608396
0.66620044
0.66630578
0.66639968
0.66653236
0.66667299
0.6668729
0.6671588
0.66748168
0.66781894
0.66839308
0.66898664
0.66955371
0.67017308
0.67099541
0.67168889
0.67192161
0.66955095
0.66590508
0.66582163
0.66578539
0.66578324
0.66577901
0.66577868
0.66579003
0.66578176
0.66577696
0.66577046
0.6657655
0.66575113
0.66575305
0.66575263
0.66575541
0.6657697
0.66577159
0.66576028
0.66573713
0.66573073
0.66571379
0.66572203
0.66573448
0.6657279
0.66573426
0.66575328
0.66576493
0.66577423
0.66579557
0.66583266
0.66588411
0.66595789
0.66605381
0.66613488
0.6662141
0.66632463
0.66643898
0.66661373
0.66686937
0.66707705
0.66741788
0.66805705
0.66860615
0.66911056
0.66913825
0.67000555
0.67080594
0.67054777
0.66615096
0.66590113
0.6658169
0.66578059
0.66578575
0.6657788
0.66577902
0.66578161
0.6657777
0.66576805
0.66576205
0.66575598
0.66574385
0.66574437
0.66573818
0.66574392
0.66575587
0.66574813
0.66573772
0.66571165
0.66570082
0.66568975
0.66569694
0.66569342
0.66567868
0.66568633
0.66568645
0.66569387
0.66569646
0.66571093
0.66573401
0.66576888
0.66582819
0.66590463
0.66596741
0.6660295
0.6661108
0.66621167
0.66634924
0.66660067
0.66676186
0.66704475
0.66749762
0.66797655
0.66835519
0.6683415
0.66878213
0.6689045
0.66908369
0.66310746
0.66589487
0.66581833
0.66578297
0.66578807
0.6657781
0.66578058
0.66577488
0.66577378
0.66576134
0.66575443
0.66574176
0.66573487
0.6657363
0.66572393
0.6657357
0.66574365
0.66572152
0.66570234
0.66568515
0.66566588
0.66565578
0.6656714
0.66565416
0.66563326
0.66563888
0.66562316
0.66562042
0.66562396
0.66562803
0.66563549
0.66565216
0.66570107
0.6657598
0.66580225
0.66584481
0.66591092
0.66596594
0.66614488
0.66626122
0.66641098
0.66680645
0.66718197
0.66739134
0.66754322
0.6673011
0.66749711
0.66759248
0.66769822
0.65973735
0.66589346
0.66581305
0.66578905
0.66578901
0.66577766
0.66577767
0.66577324
0.66577023
0.66575342
0.66574772
0.66573509
0.66572674
0.66572663
0.66571891
0.66572897
0.66573354
0.66571572
0.66567754
0.66566209
0.66563645
0.66563188
0.66564282
0.66560979
0.6655951
0.66559007
0.66556647
0.66554982
0.66555204
0.6655462
0.66553258
0.66553656
0.66557462
0.66561172
0.66563517
0.66565984
0.66568033
0.66573628
0.66582825
0.66593544
0.66600173
0.66625034
0.66653953
0.66660939
0.66649828
0.66792884
0.66579996
0.6646997
0.66619909
0.65784258
0.66589411
0.66581104
0.66579188
0.6657869
0.66577874
0.66577444
0.66577006
0.66576437
0.66575126
0.66574806
0.6657322
0.66572439
0.6657183
0.6657141
0.6657205
0.66571239
0.66568699
0.66566529
0.6656467
0.66561283
0.66561534
0.66562051
0.66556689
0.66555694
0.66554394
0.66550592
0.66548495
0.6654778
0.66546498
0.6654323
0.66542703
0.665443
0.66545896
0.66546825
0.66546149
0.6654652
0.66551983
0.66554849
0.66561648
0.66571117
0.66587209
0.66574272
0.66572613
0.66535744
0.66545156
0.66514099
0.66317226
0.66466742
0.65542108
0.66588911
0.66581354
0.66579123
0.66578819
0.66577678
0.6657718
0.66576545
0.66576137
0.66575101
0.66574521
0.66572664
0.66572482
0.66571508
0.66570556
0.66570557
0.66569149
0.66565126
0.665635
0.6656179
0.66558797
0.66559763
0.66559098
0.6655319
0.66552058
0.66549516
0.66544674
0.66542417
0.66540639
0.66537381
0.66532961
0.66532392
0.66532185
0.66530466
0.66529409
0.66524626
0.6652524
0.66523609
0.6652912
0.66520306
0.6652573
0.66540556
0.6653747
0.66498518
0.66452848
0.66289253
0.66390456
0.66290617
0.66290364
0.65423281
0.66852884
0.66868667
0.66935679
0.66875
0.66860178
0.66829706
0.6679944
0.66771529
0.66745457
0.66722119
0.66699493
0.66678187
0.66659566
0.66640816
0.66617503
0.66607893
0.66601901
0.66592433
0.66580019
0.66571636
0.66571486
0.66570642
0.6656747
0.66565248
0.66563817
0.6656442
0.66564602
0.66564033
0.66564379
0.66565187
0.66566509
0.66567326
0.66567289
0.66567974
0.66569209
0.66570736
0.66572004
0.66572837
0.66573056
0.66573357
0.66574246
0.66575561
0.66576036
0.66576816
0.665769
0.66578002
0.66577271
0.66578662
0.66579508
0.66585941
0.66731348
0.66753014
0.66783788
0.66766753
0.66751501
0.66733367
0.66715628
0.66696669
0.66678042
0.66658816
0.66642083
0.66627356
0.66613296
0.66603472
0.66592495
0.66579897
0.66572618
0.66569324
0.66567894
0.6656564
0.66562401
0.66560694
0.66560133
0.66559589
0.66561069
0.66561788
0.66561858
0.66562194
0.66563539
0.66565074
0.66566055
0.66566316
0.66567366
0.66568801
0.66570301
0.66571714
0.66572621
0.66572852
0.66573178
0.66574143
0.66575482
0.66576063
0.6657677
0.6657691
0.6657795
0.66577289
0.66578566
0.66579487
0.66478398
0.6659919
0.6666164
0.66659917
0.66661725
0.66655143
0.66646914
0.66640817
0.66633009
0.66623865
0.66612852
0.66603668
0.66592377
0.66586795
0.66578075
0.66567701
0.6656459
0.6656224
0.6655946
0.66557021
0.66555213
0.66554132
0.66554323
0.6655464
0.66554573
0.66556276
0.66558533
0.66559265
0.6655995
0.66561662
0.66563585
0.66564904
0.66565482
0.66566808
0.66568447
0.66569902
0.66571448
0.66572432
0.66572674
0.6657305
0.6657403
0.66575415
0.66576082
0.66576723
0.66576935
0.6657792
0.66577292
0.66578485
0.6657947
0.66297432
0.66476605
0.66521664
0.66558399
0.66564004
0.66571421
0.66575225
0.66575984
0.66574975
0.66573624
0.665695
0.66565253
0.66560742
0.66555471
0.66550652
0.66548558
0.66545015
0.66545236
0.66544185
0.66543668
0.66545834
0.66547769
0.66547137
0.66548529
0.66550166
0.66552254
0.6655553
0.66556965
0.66557998
0.66559987
0.66562324
0.6656388
0.66564649
0.66566257
0.6656808
0.66569552
0.66571227
0.66572267
0.66572515
0.66572923
0.66573905
0.66575356
0.66576091
0.66576697
0.66576968
0.66577902
0.66577308
0.66578435
0.66579447
0.66241784
0.66379404
0.66450901
0.66469008
0.66481272
0.66492105
0.6649944
0.66507232
0.66511522
0.6651578
0.66516564
0.66521006
0.66521688
0.66522244
0.66524329
0.66525717
0.66526417
0.66528301
0.66532541
0.66533835
0.6653537
0.66539716
0.66541662
0.66542748
0.66545131
0.66548697
0.66552636
0.66554429
0.66555952
0.6655837
0.66560996
0.66562813
0.66563876
0.66565724
0.6656771
0.66569237
0.66571025
0.66572094
0.66572372
0.66572805
0.66573775
0.66575296
0.66576081
0.6657669
0.66576974
0.66577877
0.66577312
0.66578402
0.66579419
0.66093066
0.6631438
0.66339262
0.66397138
0.66398792
0.66426462
0.66435267
0.66450346
0.66457404
0.66466056
0.66471581
0.6648165
0.66489684
0.66496898
0.66499033
0.66503542
0.66507978
0.6651228
0.66519394
0.66523342
0.66524276
0.66529465
0.66535192
0.66537734
0.66539676
0.66544654
0.66549846
0.66552048
0.66553888
0.66556781
0.6655977
0.6656185
0.66563128
0.66565191
0.66567316
0.66568945
0.66570851
0.66571915
0.66572216
0.66572673
0.66573649
0.66575234
0.66576061
0.66576714
0.66576968
0.66577856
0.66577287
0.66578396
0.66579391
0.66070466
0.66237807
0.66285079
0.66330773
0.6632794
0.66364989
0.66367387
0.66391944
0.66402549
0.66418891
0.66428837
0.66442206
0.66454152
0.6646748
0.66474786
0.66482031
0.66489785
0.66495725
0.66502787
0.66511976
0.66516844
0.6652016
0.66526582
0.66533116
0.66536106
0.6654066
0.66546626
0.66550228
0.66552264
0.66555323
0.66558612
0.6656089
0.66562437
0.66564666
0.66566922
0.66568716
0.66570673
0.66571709
0.66572033
0.66572555
0.66573529
0.66575178
0.66576029
0.66576759
0.66576966
0.66577828
0.66577249
0.66578374
0.66579358
0.65955044
0.66217056
0.6621097
0.66278185
0.66262125
0.66305385
0.66315279
0.66343561
0.66357416
0.66376965
0.66391098
0.66407883
0.66418059
0.66435967
0.66452249
0.66462801
0.66470729
0.66481397
0.66488569
0.66497775
0.66508461
0.66514813
0.66518722
0.6652613
0.66533286
0.66538009
0.66543047
0.66547847
0.66550852
0.66553917
0.66557378
0.66559918
0.6656181
0.6656413
0.66566531
0.66568524
0.66570429
0.66571497
0.66571834
0.6657247
0.66573406
0.66575131
0.66575994
0.66576813
0.6657696
0.66577767
0.66577205
0.66578324
0.66579321
0.65964452
0.66086284
0.66142226
0.6622778
0.66215872
0.66255915
0.66268933
0.66298714
0.66310647
0.66331731
0.66348422
0.66374801
0.66386939
0.66399541
0.66419372
0.6644364
0.66455186
0.66467318
0.66478116
0.66485259
0.66495598
0.66507992
0.66515478
0.66519705
0.66528502
0.66535736
0.66540398
0.66545156
0.66549203
0.66552661
0.66556214
0.66558919
0.66561207
0.66563618
0.66566155
0.66568365
0.6657017
0.66571259
0.66571623
0.66572383
0.6657328
0.66575095
0.66575965
0.66576848
0.66576944
0.66577736
0.66577206
0.66578354
0.66579306
0.65768604
0.6618587
0.66098152
0.66175667
0.66162873
0.66204068
0.6621133
0.66249401
0.66268262
0.66295598
0.66305672
0.66339098
0.66368175
0.66383156
0.66387487
0.66414084
0.66436637
0.66451773
0.66466384
0.66477969
0.66485743
0.66497189
0.66510949
0.66517658
0.66523226
0.66531848
0.66538544
0.66543133
0.6654719
0.66551341
0.66555126
0.66557943
0.66560568
0.66563147
0.66565812
0.66568231
0.66569907
0.66570965
0.66571421
0.66572281
0.66573181
0.66575067
0.6657595
0.66576845
0.66576939
0.66577725
0.66577253
0.66578365
0.66579293
0.65954274
0.65981765
0.66068425
0.66120417
0.66089286
0.66155209
0.66154642
0.66198954
0.66224678
0.66268845
0.6627654
0.66298729
0.66331309
0.66371251
0.66377403
0.6638537
0.6641123
0.66436188
0.66452788
0.66468259
0.66481423
0.66489292
0.66502325
0.66514816
0.66520747
0.66527224
0.66535454
0.66541794
0.66545442
0.66549763
0.66554015
0.66557082
0.66559897
0.66562687
0.66565523
0.66568082
0.66569639
0.66570639
0.66571235
0.66572179
0.66573133
0.6657505
0.66575943
0.66576813
0.66576937
0.66577688
0.66577221
0.66578312
0.6657927
0.65686896
0.66154481
0.65919916
0.66086788
0.66058492
0.66118439
0.66134687
0.66167349
0.66173325
0.66227049
0.66263948
0.66285521
0.6628581
0.66327936
0.66369257
0.66382915
0.66389731
0.66417661
0.66440635
0.66455847
0.66472666
0.66486868
0.66495761
0.66508456
0.6651851
0.66524535
0.66531873
0.66539635
0.66544213
0.66548341
0.66552804
0.66556309
0.66559285
0.66562197
0.66565285
0.66567883
0.66569346
0.66570318
0.66571048
0.66572082
0.6657312
0.66575042
0.66575923
0.66576787
0.66576937
0.66577637
0.66577245
0.6657828
0.66579258
0.65740678
0.65948411
0.65995629
0.66005469
0.66031265
0.66079212
0.66095028
0.66151303
0.66144313
0.66176678
0.66223638
0.66276656
0.66279724
0.66286482
0.66328626
0.66376178
0.66388952
0.66401785
0.66426954
0.66448008
0.66461617
0.66479956
0.66494503
0.66502976
0.66513584
0.66522597
0.6652947
0.66536947
0.66542715
0.66547265
0.66551578
0.66555515
0.66558731
0.66561729
0.66565022
0.66567621
0.66569045
0.66569993
0.66570871
0.66571989
0.66573124
0.66575026
0.66575895
0.66576773
0.6657694
0.66577661
0.66577286
0.66578245
0.66579264
0.65664327
0.65930425
0.65913576
0.6601934
0.65979437
0.66057144
0.66046212
0.66106559
0.66137777
0.66164791
0.6616889
0.66227163
0.66273447
0.66292586
0.66294788
0.66345831
0.66387398
0.6639875
0.66414334
0.66439389
0.66456528
0.66471024
0.66489635
0.66501435
0.66509196
0.66518791
0.66527824
0.66534983
0.66540985
0.66546152
0.66550551
0.66554658
0.66558151
0.66561344
0.66564711
0.66567315
0.6656875
0.6656971
0.66570728
0.66571896
0.66573142
0.66574988
0.66575869
0.66576769
0.66576938
0.66577691
0.66577255
0.66578203
0.6657928
0.65594312
0.65941263
0.65855158
0.65963476
0.6596332
0.66029972
0.66031135
0.66059931
0.66097052
0.66161358
0.6615859
0.6618536
0.66227042
0.66279973
0.66299444
0.66319508
0.66361799
0.66398183
0.66410876
0.66429271
0.66452349
0.66466919
0.66483058
0.6649804
0.66507805
0.66515237
0.66525069
0.6653377
0.66539528
0.66544897
0.66549669
0.66553915
0.6655747
0.66561025
0.66564459
0.66566965
0.66568463
0.66569508
0.66570609
0.66571814
0.66573161
0.6657493
0.66575856
0.66576764
0.66576952
0.6657771
0.66577237
0.66578137
0.66579297
0.65628993
0.6586963
0.6585
0.65906508
0.65889387
0.65983473
0.65997462
0.66058658
0.66044835
0.66118804
0.66154995
0.66184451
0.66197325
0.66257231
0.66296209
0.66315361
0.66340283
0.66379536
0.66409131
0.66424711
0.66445225
0.66464974
0.66479167
0.66493096
0.66505679
0.66513516
0.6652233