/*--------------------------------*- C++ -*----------------------------------*\
| =========                 |                                                 |
| \\      /  F ield         | OpenFOAM: The Open Source CFD Toolbox           |
|  \\    /   O peration     | Version:  2506                                  |
|   \\  /    A nd           | Website:  www.openfoam.com                      |
|    \\/     M anipulation  |                                                 |
\*---------------------------------------------------------------------------*/
FoamFile
{
    version     2.0;
    format      ascii;
    arch        "LSB;label=32;scalar=64";
    class       volScalarField;
    location    "1.15";
    object      yPlus;
}
// * * * * * * * * * * * * * * * * * * * * * * * * * * * * * * * * * * * * * //

dimensions      [0 0 0 0 0 0 0];

internalField   uniform 0;

boundaryField
{
    Side
    {
        type            empty;
    }
    Inlet
    {
        type            calculated;
        value           uniform 0;
    }
    Airfoil
    {
        type            calculated;
        value           nonuniform List<scalar> 
33
(
856.07821
870.19479
885.27696
902.30974
919.01534
936.94214
957.87772
980.23316
999.25124
1022.3386
1035.4102
1060.8224
1087.8847
1113.2556
1137.5889
1159.9858
1184.4521
1204.081
1229.662
1250.6616
1271.331
1307.9018
1316.3009
1334.2311
1344.9902
1365.3088
1378.4845
1397.7441
1410.6615
1421.6046
1436.7406
1438.554
1455.0801
)
;
    }
    Outlet
    {
        type            calculated;
        value           nonuniform List<scalar> 0();
    }
    procBoundary1to0
    {
        type            processor;
        value           uniform 0;
    }
    procBoundary1to2
    {
        type            processor;
        value           uniform 0;
    }
    procBoundary1to8
    {
        type            processor;
        value           uniform 0;
    }
}


// ************************************************************************* //
