/*--------------------------------*- C++ -*----------------------------------*\
| =========                 |                                                 |
| \\      /  F ield         | OpenFOAM: The Open Source CFD Toolbox           |
|  \\    /   O peration     | Version:  2506                                  |
|   \\  /    A nd           | Website:  www.openfoam.com                      |
|    \\/     M anipulation  |                                                 |
\*---------------------------------------------------------------------------*/
FoamFile
{
    version     2.0;
    format      ascii;
    arch        "LSB;label=32;scalar=64";
    class       volScalarField;
    location    "0.0075";
    object      k;
}
// * * * * * * * * * * * * * * * * * * * * * * * * * * * * * * * * * * * * * //

dimensions      [0 2 -2 0 0 0 0];

internalField   nonuniform List<scalar> 
192657
(
0.069927739
0.063359392
0.063354522
0.063354566
0.063354387
0.063354379
0.063354373
0.063354373
0.063354373
0.063354373
0.063354373
0.063354373
0.063354373
0.063354373
0.063354373
0.063354373
0.063354374
0.063354378
0.063354389
0.063354407
0.063354411
0.063354344
0.063354233
0.063354357
0.063354941
0.063355343
0.063354026
0.063354768
0.063364091
0.063370965
0.063329547
0.063231124
0.063179253
0.063237605
0.063302017
0.063266537
0.06325274
0.063378948
0.063572929
0.063830665
0.06412897
0.064028891
0.063532206
0.063173991
0.063290649
0.06342193
0.063209603
0.063111204
0.063113391
0.062845918
0.062715747
0.062780669
0.062705899
0.062673826
0.062773537
0.06290595
0.062821285
0.062341814
0.061524205
0.060573577
0.060047675
0.060075986
0.060489567
0.060715251
0.06073471
0.060837365
0.06120086
0.06174667
0.062130212
0.062410627
0.062942987
0.063465607
0.063793164
0.06415822
0.064579927
0.064895895
0.064801472
0.063513957
0.062201862
0.062024223
0.064112858
0.066074132
0.066530154
0.066393245
0.067385031
0.068897588
0.070016892
0.071026622
0.072072649
0.072789405
0.073299977
0.074044465
0.074986959
0.075977664
0.076881907
0.07781399
0.079032622
0.080717462
0.082909784
0.085205198
0.087342679
0.08911461
0.09073942
0.15335594
5.5062495
26.892359
51.019725
72.143789
90.10741
105.32708
118.17072
128.97873
138.03437
145.37589
151.26292
156.03341
159.75895
162.54826
164.51223
165.74747
166.34242
166.38281
165.97663
165.18311
164.07452
162.71135
161.13924
159.39153
157.50503
155.50867
153.42823
151.23949
148.92187
146.44189
143.74069
140.73091
137.30429
133.32609
128.57699
122.59478
114.5798
103.35068
87.347208
65.285841
38.901291
16.173709
4.2115473
0.69666277
1.1964371
0.069524066
0.063359354
0.063354527
0.063354566
0.063354388
0.063354379
0.063354373
0.063354373
0.063354373
0.063354373
0.063354373
0.063354373
0.063354373
0.063354373
0.063354373
0.063354373
0.063354374
0.063354378
0.063354389
0.063354408
0.063354413
0.063354348
0.063354241
0.063354364
0.063354957
0.063355384
0.063354125
0.063354787
0.063364254
0.063371457
0.063330812
0.063232072
0.063179248
0.06323688
0.063302286
0.063267339
0.063252402
0.063378187
0.063573087
0.0638313
0.064132552
0.064038979
0.063541915
0.063180458
0.063294176
0.063429454
0.063217908
0.063117829
0.063122991
0.062856039
0.062721908
0.062787372
0.062713756
0.062680737
0.06277834
0.062909676
0.062832007
0.062359511
0.061551639
0.060608155
0.060083283
0.060108293
0.060482385
0.060701866
0.060710787
0.060795753
0.061142862
0.061681053
0.062082288
0.062406775
0.062948849
0.063473399
0.06380696
0.06418099
0.064614702
0.064940405
0.064865031
0.063610856
0.06230046
0.062126485
0.064174821
0.06613793
0.066590828
0.066445459
0.067469954
0.069035251
0.070196778
0.071236137
0.072310902
0.073051452
0.073586276
0.07436329
0.075333088
0.076336402
0.077253599
0.078220276
0.079509254
0.081274735
0.083459711
0.085707938
0.087806832
0.08954756
0.095573192
0.4220889
7.1574161
30.433703
55.046981
76.229697
94.210391
109.4223
122.23252
132.98068
141.95168
149.35201
155.35732
160.11406
163.75991
166.42446
168.22771
169.27296
169.65274
169.46303
168.79662
167.71215
166.27813
164.55422
162.59448
160.44039
158.09806
155.58304
152.89854
150.07553
147.11101
143.98116
140.6415
137.01801
132.99036
128.36168
122.81726
115.86489
106.75608
94.356554
77.320138
55.101753
30.776666
12.078129
3.0546294
0.47099519
0.63421394
0.070774181
0.063359303
0.063354532
0.06335456
0.063354388
0.063354379
0.063354373
0.063354373
0.063354373
0.063354373
0.063354373
0.063354373
0.063354373
0.063354373
0.063354373
0.063354373
0.063354374
0.063354378
0.063354389
0.063354408
0.063354414
0.063354351
0.063354245
0.063354365
0.063354966
0.063355409
0.063354185
0.063354814
0.06336439
0.063371894
0.063332027
0.063232932
0.063179141
0.063235956
0.063302387
0.063268024
0.063251841
0.063377014
0.063572858
0.063831521
0.064135777
0.06404938
0.063552443
0.063187137
0.06327485
0.063436893
0.06322653
0.063124398
0.063132744
0.06286664
0.062727878
0.062793847
0.062721554
0.062687309
0.062782284
0.062912934
0.062843648
0.0623801
0.061584018
0.060647032
0.060119291
0.06013858
0.060474726
0.060689669
0.060688467
0.060755047
0.061082667
0.061610038
0.062024027
0.062369992
0.062946907
0.0634748
0.063813751
0.064194559
0.06463915
0.064984255
0.064946239
0.063752055
0.062420329
0.062207776
0.064182934
0.066172916
0.066651142
0.066488741
0.067511338
0.06911101
0.07032592
0.071390542
0.072501324
0.073281983
0.073838715
0.074624601
0.075606797
0.076622386
0.077553627
0.078531188
0.079824217
0.081580637
0.083747476
0.085963321
0.088031402
0.089767987
0.094258584
0.33416798
6.1614729
29.870944
54.947698
76.325574
94.439087
109.74897
122.65813
133.49524
142.51472
149.94024
155.9638
160.73352
164.38711
167.039
168.80175
169.8014
170.14806
169.92924
169.22441
168.09464
166.60088
164.79654
162.72961
160.44492
157.98508
155.36592
152.59119
149.65337
146.53009
143.17442
139.52979
135.51529
131.00422
125.80487
119.62639
112.02218
102.29949
89.507572
72.532682
51.083717
28.266298
11.052633
2.7985077
0.44490287
0.67795674
0.071367481
0.063359248
0.063354536
0.063354559
0.063354388
0.063354379
0.063354373
0.063354373
0.063354373
0.063354373
0.063354373
0.063354373
0.063354373
0.063354373
0.063354373
0.063354373
0.063354374
0.063354378
0.063354389
0.063354408
0.063354416
0.063354355
0.063354251
0.06335437
0.063354985
0.063355459
0.06335431
0.063354852
0.063364546
0.063372397
0.063333312
0.063233885
0.063179045
0.06323511
0.0633025
0.063268792
0.063251412
0.06337597
0.063572659
0.06383167
0.064139055
0.064059888
0.063563242
0.063194147
0.063279983
0.06344461
0.063235457
0.063131215
0.063142518
0.062877584
0.062734146
0.06280043
0.062729565
0.062694182
0.062786544
0.062916242
0.062855219
0.062400242
0.061615918
0.060685661
0.060155247
0.060169582
0.060469599
0.06067986
0.060668771
0.060718515
0.061026758
0.061540562
0.061961715
0.062327523
0.062932969
0.063474727
0.063819634
0.064206707
0.064661241
0.065028763
0.065024049
0.063892182
0.062546331
0.062303043
0.064185707
0.066211588
0.066715428
0.066545048
0.067554393
0.069187886
0.070458256
0.071551009
0.072695993
0.073519326
0.074105201
0.074900455
0.075897857
0.076930085
0.077879829
0.0788711
0.08017129
0.081920112
0.084062816
0.086247215
0.08828427
0.089994498
0.093671188
0.27041897
5.1603751
27.830561
53.310852
75.002242
93.568648
109.30209
122.54245
133.5911
142.74091
150.28496
156.43144
161.36335
165.21051
168.08624
170.09786
171.34474
171.92075
171.90808
171.39367
170.43134
169.08448
167.40779
165.4473
163.24012
160.8145
158.19129
155.38305
152.39263
149.21387
145.82993
142.17704
138.1485
133.60968
128.34622
122.03444
114.19128
104.09058
90.727916
73.085554
51.076418
28.005964
10.87451
2.7436411
0.42578082
0.5893246
0.07226019
0.063359184
0.06335454
0.063354558
0.063354388
0.063354379
0.063354373
0.063354373
0.063354373
0.063354373
0.063354373
0.063354373
0.063354373
0.063354373
0.063354373
0.063354373
0.063354374
0.063354378
0.063354389
0.063354409
0.063354418
0.06335436
0.063354259
0.063354376
0.063355004
0.063355501
0.06335443
0.063354888
0.0633647
0.063372875
0.063334607
0.063234859
0.06317895
0.063234214
0.063302551
0.06326954
0.063250954
0.063374815
0.063572363
0.063831775
0.0641422
0.064070447
0.063574363
0.063201343
0.06328276
0.063452772
0.063244593
0.063138102
0.063152124
0.062888833
0.062740482
0.062806943
0.06273762
0.062701066
0.062790756
0.062919427
0.062866803
0.062420642
0.061648519
0.060725096
0.060191183
0.060200369
0.060466345
0.060671879
0.060650981
0.060685584
0.06097396
0.061471887
0.061895971
0.062280702
0.062910715
0.063468342
0.063823563
0.064216553
0.064679258
0.065072635
0.065102742
0.064043078
0.062683359
0.062403489
0.064180369
0.066247279
0.066783843
0.066609754
0.067594213
0.069256109
0.070583211
0.071705934
0.072882831
0.07375356
0.074374182
0.07517511
0.076186162
0.077238426
0.07821087
0.07921412
0.080512806
0.082244953
0.084359101
0.086512929
0.088515987
0.090206363
0.093245798
0.21811654
4.1353812
25.501142
51.59901
73.514604
92.305912
108.23446
121.64309
132.87316
142.2261
149.95644
156.26994
161.33493
165.30134
168.29528
170.41287
171.7517
172.41973
172.50289
172.07053
171.179
169.88684
168.24941
166.31214
164.1077
161.65936
158.98373
156.08917
152.97322
149.62266
146.01071
142.09293
137.79459
132.97287
127.4163
120.82463
112.74402
102.49218
89.135794
71.651501
49.941102
27.302523
10.578573
2.6670009
0.41445315
0.57717565
0.073049288
0.063359112
0.063354544
0.063354557
0.063354388
0.063354379
0.063354373
0.063354373
0.063354373
0.063354373
0.063354373
0.063354373
0.063354373
0.063354373
0.063354373
0.063354373
0.063354374
0.063354378
0.063354389
0.063354409
0.06335442
0.063354364
0.063354267
0.063354382
0.063355023
0.063355548
0.063354557
0.063354921
0.063364851
0.063373343
0.063335935
0.063235874
0.063178852
0.063233292
0.063302565
0.063270292
0.063250494
0.063373602
0.063571971
0.063831889
0.064145243
0.064081054
0.063585782
0.063208717
0.06328587
0.063460949
0.063253944
0.0631451
0.063161522
0.062900412
0.062746943
0.062813442
0.062745766
0.062707986
0.062795005
0.062922569
0.062878296
0.0624411
0.061681425
0.060765055
0.060227069
0.060231123
0.060464861
0.060665677
0.060634823
0.060656623
0.0609249
0.061405178
0.061828587
0.062228893
0.062881177
0.063455623
0.063825595
0.064224627
0.064693993
0.065114245
0.065180353
0.064201026
0.062831131
0.062512847
0.064163941
0.06627942
0.066856354
0.066686339
0.067633594
0.069318257
0.070703342
0.071857724
0.073063474
0.073985429
0.074647069
0.075452707
0.076476113
0.077552213
0.078551792
0.07956702
0.080859322
0.082570448
0.084653336
0.086779548
0.088750499
0.090408579
0.092966348
0.17868132
3.1740665
22.429263
49.00429
71.229548
90.432912
106.78767
120.58148
132.12273
141.70193
149.59199
156.03937
161.23658
165.33654
168.49457
170.79884
172.34726
173.22371
173.49327
173.22864
172.49631
171.3513
169.84645
168.02391
165.91154
163.53232
160.90592
158.04447
154.94873
151.60567
147.98362
144.02545
139.64093
134.69417
128.98421
122.19419
113.85386
103.28916
89.574662
71.740223
49.767478
27.067166
10.448199
2.6295587
0.40458278
0.53970745
0.073924082
0.063359031
0.063354548
0.063354556
0.063354388
0.063354379
0.063354373
0.063354373
0.063354373
0.063354373
0.063354373
0.063354373
0.063354373
0.063354373
0.063354373
0.063354373
0.063354374
0.063354378
0.063354389
0.06335441
0.063354422
0.063354369
0.063354274
0.063354388
0.063355041
0.063355599
0.063354689
0.063354954
0.063365
0.063373818
0.063337287
0.063236943
0.06317875
0.063232345
0.063302552
0.063271046
0.063250029
0.063372327
0.0635714
0.063832075
0.064148183
0.064091708
0.06359749
0.063216226
0.063288882
0.063466322
0.06326353
0.063152213
0.063170704
0.062912315
0.062753546
0.062819952
0.06275403
0.062714918
0.062799278
0.06292573
0.062889667
0.062461683
0.06171466
0.060805606
0.060262956
0.060261873
0.060464512
0.060660977
0.060619954
0.060631667
0.060879832
0.061341177
0.061760695
0.062171607
0.062842706
0.063438896
0.063826073
0.064231155
0.064706135
0.065152465
0.065256559
0.064366306
0.062990138
0.062630888
0.064142226
0.06630578
0.066932315
0.066776763
0.067674251
0.069373763
0.07081855
0.072006631
0.073236955
0.074213735
0.074922716
0.075733391
0.076766694
0.077869985
0.078901717
0.079929649
0.081210812
0.082896889
0.084946664
0.087047639
0.088990091
0.0906252
0.092781052
0.14881536
2.3596784
19.350521
46.309879
68.844668
88.343891
104.95784
118.99862
130.80126
140.67086
148.86539
155.59917
161.05315
165.37105
168.65306
171.05614
172.70238
173.65566
174.00608
173.83267
173.19914
172.15422
170.73054
168.95726
166.87094
164.50276
161.87297
158.99287
155.86406
152.47279
148.78486
144.74251
140.25792
135.20024
129.37283
122.47743
114.05823
103.43403
89.672752
71.790446
49.776493
27.052647
10.435832
2.6254406
0.4028078
0.53044559
0.074802264
0.06335894
0.063354553
0.063354555
0.063354389
0.063354379
0.063354373
0.063354373
0.063354373
0.063354373
0.063354373
0.063354373
0.063354373
0.063354373
0.063354373
0.063354373
0.063354374
0.063354378
0.063354389
0.06335441
0.063354424
0.063354374
0.06335428
0.063354396
0.063355059
0.063355652
0.063354819
0.06335499
0.06336515
0.063374307
0.06333864
0.063238074
0.063178643
0.063231385
0.063302456
0.063271803
0.063249562
0.063371
0.063570595
0.063832387
0.064151029
0.064102412
0.063609463
0.063223832
0.063291961
0.063450367
0.06327337
0.063159433
0.063179704
0.062924491
0.062760313
0.062826486
0.062762436
0.062721859
0.062803582
0.062928965
0.062900853
0.062482382
0.061748146
0.060846662
0.060298895
0.060292739
0.060465096
0.060657482
0.060606235
0.060610588
0.060838999
0.061280528
0.061693305
0.062109582
0.062796107
0.063415523
0.063822393
0.064236089
0.064716137
0.065186961
0.06533046
0.064537707
0.063160168
0.062757665
0.064114649
0.066324244
0.067010881
0.066883184
0.067717778
0.069422814
0.070928831
0.072152678
0.073402713
0.074437339
0.075200643
0.076018458
0.077057948
0.078190519
0.079259419
0.080302349
0.081568868
0.083226857
0.085241069
0.087319252
0.089237347
0.090851413
0.092690167
0.12720669
1.6652436
16.094794
43.05086
65.98755
85.927622
102.96873
117.38097
129.4772
139.56842
147.93637
154.82315
160.43011
164.92392
168.44265
171.09546
172.96921
174.15762
174.72693
174.73784
174.24808
173.31054
171.9765
170.29471
168.30735
166.0443
163.52329
160.747
157.70111
154.36055
150.68862
146.62689
142.0848
136.92628
130.9498
123.85326
115.18716
104.28994
90.25717
72.125373
49.910239
27.071218
10.427354
2.6212739
0.39995948
0.51352244
0.075722484
0.063358839
0.063354557
0.063354554
0.063354389
0.063354379
0.063354373
0.063354373
0.063354373
0.063354373
0.063354373
0.063354373
0.063354373
0.063354373
0.063354373
0.063354373
0.063354374
0.063354378
0.063354389
0.063354411
0.063354426
0.063354379
0.063354286
0.063354404
0.063355077
0.063355704
0.063354938
0.063355042
0.063365296
0.063374803
0.063339979
0.063239285
0.063178536
0.063230415
0.063302301
0.063272572
0.063249104
0.063369623
0.063569545
0.063832821
0.064153783
0.064113176
0.063621688
0.06323151
0.063295108
0.063461076
0.063283263
0.063166755
0.063188588
0.062936887
0.062767267
0.062833061
0.062771001
0.062728818
0.062807927
0.062932327
0.062911813
0.062503184
0.061781847
0.060888184
0.060334912
0.060323827
0.060471393
0.060654888
0.06059379
0.060593075
0.060802511
0.061223703
0.06162731
0.062044138
0.062742576
0.063384562
0.063810651
0.064239305
0.064724482
0.065217736
0.065401474
0.06471338
0.063340672
0.062892748
0.064084978
0.066333861
0.067090967
0.067007542
0.067765928
0.069466498
0.07103447
0.072295966
0.073561152
0.074655604
0.075480196
0.076309591
0.077350754
0.07851277
0.079623547
0.080685499
0.081935503
0.083562993
0.085539871
0.087596407
0.089492158
0.091093863
0.092734589
0.11366281
1.1487033
13.064636
39.655571
63.027542
83.316205
100.70287
115.45335
127.87446
138.26967
146.91283
154.04185
159.85905
164.53505
168.21328
171.01407
173.03664
174.3817
175.11182
175.29527
174.98571
174.22965
173.06702
171.53132
169.65051
167.4467
164.93627
162.12841
159.02277
155.60893
151.86059
147.72557
143.1167
137.89757
131.85919
124.69329
115.94756
104.95433
90.797396
72.517769
50.146306
27.176709
10.460931
2.628582
0.39978601
0.50553525
0.076668335
0.063358727
0.063354561
0.063354553
0.063354389
0.063354379
0.063354373
0.063354373
0.063354373
0.063354373
0.063354373
0.063354373
0.063354373
0.063354373
0.063354373
0.063354373
0.063354374
0.063354378
0.063354389
0.063354411
0.063354428
0.063354384
0.063354293
0.063354413
0.063355097
0.063355755
0.063355049
0.063355118
0.063365435
0.063375304
0.0633413
0.063240584
0.06317844
0.063229429
0.063302073
0.063273362
0.063248662
0.063368187
0.063568315
0.063833308
0.064156434
0.064124004
0.063634155
0.063239258
0.063298324
0.06346716
0.063292397
0.063174185
0.063197422
0.06294946
0.062774434
0.06283969
0.062779735
0.06273582
0.062812336
0.062935841
0.062922512
0.06252407
0.061815729
0.060930095
0.060371011
0.060355108
0.060486081
0.060652946
0.060583002
0.060578686
0.060770309
0.061171017
0.06156344
0.061976527
0.062682841
0.063346447
0.06379466
0.064240627
0.064731365
0.065244908
0.065469319
0.064891126
0.063531072
0.063035221
0.064056309
0.066336176
0.067171948
0.06715029
0.067819496
0.069505898
0.071135005
0.072435566
0.073712555
0.074867671
0.07575988
0.076607137
0.077645779
0.078835187
0.079991387
0.0810776
0.082311513
0.083906787
0.08584449
0.08788011
0.089758406
0.091352686
0.092907621
0.10517435
0.76173913
10.185001
35.836657
59.769634
80.467047
98.277943
113.416
126.17263
136.85027
145.73352
153.07406
159.08648
163.95035
167.81445
170.80082
173.01024
174.52282
175.43198
175.78474
175.63882
175.0395
174.02802
172.63894
170.90038
168.83316
166.4507
163.75757
160.74719
157.40128
153.68602
149.54459
144.88885
139.58593
133.43625
126.14132
117.25411
106.10873
91.78607
73.319568
50.727397
27.509987
10.592749
2.6615133
0.40341891
0.50172014
0.077649365
0.063358603
0.063354565
0.063354552
0.06335439
0.063354379
0.063354373
0.063354373
0.063354373
0.063354373
0.063354373
0.063354373
0.063354373
0.063354373
0.063354373
0.063354373
0.063354374
0.063354378
0.063354389
0.063354412
0.06335443
0.063354389
0.0633543
0.063354422
0.063355115
0.063355806
0.063355162
0.063355205
0.063365569
0.063375813
0.06334261
0.063241964
0.063178356
0.063228418
0.063301781
0.063274179
0.063248246
0.063366683
0.063566994
0.063833776
0.064158966
0.064134894
0.063646861
0.063247096
0.063301598
0.063474003
0.063299851
0.06318175
0.063206255
0.062962191
0.062781818
0.062846341
0.062788616
0.062742896
0.062816822
0.062939513
0.062932923
0.062545035
0.061849797
0.060972322
0.060407177
0.060386441
0.060505338
0.060651462
0.060574329
0.060566987
0.060742214
0.061122687
0.061502292
0.061907969
0.062617846
0.063301483
0.063772737
0.064240563
0.064736787
0.065268701
0.065533973
0.065068152
0.0637308
0.063184313
0.064032851
0.066318919
0.067253612
0.067309136
0.067879837
0.069543096
0.071229963
0.072570602
0.073858064
0.075073206
0.076038185
0.076911085
0.077944843
0.079157265
0.080360711
0.08147753
0.082698739
0.084260819
0.086158539
0.088172247
0.09003631
0.091628165
0.093097766
0.10048393
0.50347281
7.7117553
31.894786
56.412439
77.448615
95.650954
111.17612
124.29551
135.29621
144.4598
152.04145
158.26313
163.31351
167.35047
170.50415
172.88162
174.56808
175.63726
176.15914
176.18408
175.75172
174.89955
173.65865
172.05439
170.10568
167.82488
165.21627
162.27354
158.97892
155.29902
151.1771
146.5245
141.20704
135.02274
127.6683
118.69155
107.42249
92.93863
74.267002
51.416779
27.905366
10.749295
2.7006773
0.40799546
0.49906233
0.078662141
0.063358466
0.06335457
0.063354551
0.06335439
0.063354379
0.063354373
0.063354373
0.063354373
0.063354373
0.063354373
0.063354373
0.063354373
0.063354373
0.063354373
0.063354373
0.063354374
0.063354378
0.063354389
0.063354412
0.063354432
0.063354393
0.063354308
0.06335443
0.063355134
0.063355858
0.06335528
0.063355291
0.063365696
0.063376331
0.063343908
0.063243423
0.063178272
0.063227378
0.063301439
0.063275022
0.063247871
0.063365108
0.063565643
0.063834196
0.064161358
0.064145848
0.063659808
0.063255065
0.063304926
0.063480559
0.063305773
0.063189515
0.06321511
0.062975093
0.062789409
0.062852965
0.062797623
0.062750076
0.062821395
0.062943337
0.062943029
0.062566076
0.061884038
0.061014779
0.060443407
0.060417686
0.06052694
0.060650434
0.060567937
0.060557704
0.060717918
0.061078786
0.061444308
0.061839556
0.062548582
0.063249985
0.063743521
0.064232877
0.064740486
0.065289202
0.065595753
0.065241637
0.063939415
0.063339319
0.064018195
0.066274561
0.067335332
0.067477168
0.067948246
0.069579615
0.0713176
0.072699293
0.073998571
0.075271585
0.076312643
0.07721925
0.078248876
0.079478456
0.080728619
0.081882449
0.083097262
0.084626497
0.086484168
0.088474871
0.090329553
0.091922408
0.093342982
0.097914058
0.33168388
5.5906167
27.722091
52.856032
74.245892
92.876368
108.82216
122.32167
133.65203
143.096
150.91588
157.34317
162.57622
166.78159
170.09641
172.63314
174.4832
175.71797
176.415
176.60944
176.35082
175.67075
174.59719
173.15218
171.35136
169.20404
166.71185
163.86635
160.64808
157.02258
152.93242
148.28877
142.95649
136.73279
129.31507
120.251
108.8684
94.238413
75.373178
52.256681
28.407679
10.953681
2.7524507
0.41474964
0.50071184
0.079710043
0.063358316
0.063354575
0.063354549
0.06335439
0.063354378
0.063354373
0.063354373
0.063354373
0.063354373
0.063354373
0.063354373
0.063354373
0.063354373
0.063354373
0.063354373
0.063354374
0.063354378
0.063354389
0.063354413
0.063354434
0.063354398
0.063354317
0.063354438
0.063355153
0.063355912
0.063355399
0.063355377
0.063365821
0.063376857
0.063345191
0.06324497
0.063178172
0.063226317
0.063301057
0.063275894
0.063247545
0.063363461
0.063564273
0.06383457
0.064163602
0.064156869
0.063672996
0.063263194
0.063308312
0.063487065
0.063337145
0.06319753
0.063223982
0.062988206
0.062797205
0.062859503
0.062806739
0.062757375
0.062826068
0.062947285
0.06295282
0.062587173
0.061918432
0.061057375
0.060479706
0.060448873
0.06055105
0.060649884
0.060563766
0.060550617
0.060697033
0.06103928
0.061389858
0.061772279
0.062476128
0.063192612
0.06370769
0.064218569
0.064742338
0.065306306
0.065655158
0.06540858
0.06415727
0.063500262
0.064013781
0.066227255
0.067414478
0.067646603
0.068027424
0.069617532
0.071396122
0.072820133
0.074135378
0.075462749
0.076581444
0.077529565
0.078559134
0.079799744
0.081093622
0.082290443
0.083507665
0.085005738
0.086824276
0.088789991
0.090638278
0.092236605
0.09363204
0.096719354
0.22844196
3.9246214
23.573857
49.200417
70.902381
89.947173
106.32349
120.22303
131.911
141.66231
149.74145
156.38705
161.80693
166.17754
169.64522
172.33016
174.33001
175.7228
176.56248
176.92195
176.83284
176.3233
175.41879
174.13828
172.49425
170.49289
168.13298
165.40354
162.28286
158.73463
154.69952
150.08615
144.7586
138.51348
131.04704
121.90523
110.41252
95.632888
76.563192
53.162103
28.950688
11.17522
2.8086571
0.42219322
0.50331232
0.080792763
0.06335815
0.063354579
0.063354548
0.063354391
0.063354378
0.063354373
0.063354373
0.063354373
0.063354373
0.063354373
0.063354373
0.063354373
0.063354373
0.063354373
0.063354373
0.063354374
0.063354378
0.063354389
0.063354413
0.063354437
0.063354403
0.063354325
0.063354446
0.063355171
0.063355968
0.063355519
0.063355468
0.063365945
0.063377385
0.063346465
0.063246612
0.063178053
0.063225246
0.063300638
0.063276798
0.063247269
0.063361752
0.063562861
0.063834885
0.064165692
0.06416796
0.06368643
0.0632715
0.063311776
0.063493417
0.063345865
0.063205606
0.063232865
0.063001584
0.062805214
0.062865881
0.062815935
0.062764789
0.062830877
0.062951245
0.062962326
0.062608284
0.061952922
0.061100037
0.060516089
0.06048008
0.060578081
0.060649712
0.060561537
0.060545493
0.060679156
0.061004046
0.061339219
0.061706965
0.062401524
0.063130049
0.063665715
0.064200039
0.064742776
0.065319603
0.065712822
0.065566253
0.064385267
0.06366773
0.064021724
0.066170516
0.067486511
0.067812817
0.068119997
0.069657918
0.071463059
0.072931271
0.074269079
0.075646157
0.076842439
0.077839308
0.078875214
0.080121963
0.081454163
0.082698316
0.083928281
0.085399015
0.087179969
0.089119852
0.090965424
0.092569303
0.093951657
0.096235381
0.16701426
2.6376175
19.467796
45.373022
67.420278
86.900463
103.73002
118.0476
130.10848
140.17907
148.52573
155.39345
160.99893
165.5285
169.13815
171.95681
174.08941
175.61964
176.61121
177.12092
177.18707
176.84142
176.10446
174.99156
173.51154
171.66702
169.45341
166.85669
163.85228
160.40097
156.4416
151.88206
146.58525
140.34667
132.861
123.67166
112.09803
97.193304
77.931744
54.233328
29.609581
11.448315
2.8784092
0.4318458
0.50958931
0.08191272
0.063357969
0.063354583
0.063354547
0.063354391
0.063354378
0.063354373
0.063354373
0.063354373
0.063354373
0.063354373
0.063354373
0.063354373
0.063354373
0.063354373
0.063354373
0.063354374
0.063354378
0.06335439
0.063354414
0.063354439
0.063354408
0.063354334
0.063354453
0.063355189
0.063356026
0.063355639
0.063355566
0.063366075
0.063377909
0.063347744
0.063248343
0.06317794
0.063224166
0.063300175
0.063277732
0.063247036
0.063359992
0.063561375
0.063835094
0.064167635
0.064179091
0.063700135
0.063279986
0.063315346
0.063499628
0.063357077
0.063212927
0.063241747
0.063015259
0.062813469
0.06287206
0.062825181
0.062772321
0.062835821
0.062955173
0.06297155
0.062629355
0.061987443
0.061142715
0.06055259
0.060511296
0.060607837
0.06064973
0.060560714
0.060542057
0.060663943
0.060972918
0.061292604
0.061644328
0.062325853
0.063063081
0.063617834
0.064174421
0.064736711
0.065328523
0.065769149
0.0657122
0.064623448
0.063842691
0.064070329
0.06610156
0.06754641
0.067973925
0.068229196
0.069702487
0.071517427
0.073031691
0.074400078
0.075821866
0.077094949
0.078147535
0.079196868
0.080447103
0.081810707
0.083104271
0.084357635
0.085806619
0.087552
0.089465032
0.09130914
0.09292411
0.094310027
0.096174169
0.13364247
1.7193959
15.622961
41.419413
63.839074
83.741736
101.02253
115.77769
128.23411
138.64981
147.28761
154.39556
160.19742
164.88872
168.63543
171.57622
173.82481
175.47216
176.58857
177.22139
177.42894
177.2339
176.65461
175.70392
174.38719
172.70314
170.64328
168.18985
165.31484
161.97631
158.1106
153.62328
148.37513
142.15948
134.66852
125.44225
113.79442
98.767458
79.313894
55.316562
30.277659
11.725916
2.9493899
0.44176123
0.51665571
0.083069922
0.06335777
0.063354588
0.063354546
0.063354392
0.063354378
0.063354373
0.063354373
0.063354373
0.063354373
0.063354373
0.063354373
0.063354373
0.063354373
0.063354373
0.063354373
0.063354374
0.063354378
0.06335439
0.063354414
0.063354441
0.063354413
0.063354343
0.06335446
0.063355208
0.063356085
0.063355758
0.063355675
0.063366215
0.063378421
0.063349039
0.063250144
0.063177858
0.063223062
0.063299659
0.063278692
0.063246847
0.063358184
0.063559798
0.063835189
0.06416946
0.064190207
0.063714145
0.063288659
0.063319055
0.063505696
0.063367733
0.063218651
0.063250636
0.063029237
0.062822021
0.062878052
0.062834457
0.062779983
0.062840868
0.062959101
0.062980465
0.062650324
0.062021916
0.061185402
0.060589218
0.06054226
0.060639944
0.060650997
0.060560591
0.060539982
0.060651067
0.06094567
0.061250139
0.061584917
0.06225009
0.06299252
0.063564559
0.064141336
0.064721608
0.065332904
0.06582378
0.065844976
0.064870978
0.064025677
0.064138668
0.066024269
0.067590322
0.068128687
0.068357082
0.069752277
0.071559505
0.073120672
0.074527689
0.075989405
0.077338202
0.078453835
0.07952321
0.080776094
0.082163536
0.083505665
0.084792162
0.086227425
0.087939672
0.089826601
0.091669634
0.093293168
0.094686473
0.096319612
0.11570182
1.0821237
12.107161
37.299648
60.168346
80.488121
98.230134
113.44063
126.31032
137.09096
146.03798
153.40073
159.40834
164.26417
168.14331
171.19402
173.53955
175.27935
176.49175
177.23641
177.55682
177.48844
177.04803
176.24661
175.08685
173.56401
171.66568
169.37008
166.64525
163.4455
159.70374
155.32245
150.15947
144.00515
136.54827
127.32416
115.63886
100.52006
80.890766
56.582593
31.075146
12.061706
3.0357165
0.45412308
0.52745191
0.084266331
0.063357554
0.063354592
0.063354545
0.063354392
0.063354378
0.063354373
0.063354373
0.063354373
0.063354373
0.063354373
0.063354373
0.063354373
0.063354373
0.063354373
0.063354373
0.063354374
0.063354378
0.06335439
0.063354415
0.063354443
0.063354419
0.063354351
0.063354468
0.063355228
0.063356145
0.063355873
0.063355802
0.063366366
0.063378912
0.063350355
0.063252008
0.063177811
0.063221927
0.063299082
0.063279683
0.063246698
0.06335632
0.063558125
0.06383522
0.064171216
0.064201264
0.063728479
0.063297535
0.063322932
0.063511623
0.06337858
0.063223196
0.063259536
0.063043487
0.062830908
0.062883905
0.06284374
0.062787778
0.062845991
0.062963056
0.062989048
0.062671152
0.062056268
0.061228111
0.060625974
0.060572422
0.060674141
0.060657039
0.060561876
0.060538914
0.060640267
0.060922073
0.061211909
0.06152917
0.062175188
0.062919262
0.063506633
0.064101978
0.064702992
0.065334193
0.06587406
0.065964921
0.065125681
0.064217409
0.064226313
0.065944631
0.067617452
0.068274986
0.068504909
0.069809594
0.071592195
0.073198522
0.074650864
0.076149173
0.077572632
0.078758947
0.079854709
0.081110394
0.082514801
0.0839017
0.085228775
0.086659922
0.088342018
0.09020311
0.092043888
0.093682338
0.095091379
0.096595128
0.10688911
0.67186217
9.0686339
33.072365
56.444179
77.148542
95.346959
111.02522
124.32977
135.50031
144.78313
152.42599
158.66083
163.69674
167.71645
170.877
173.31113
175.12697
176.41171
177.23487
177.64135
177.67379
177.34804
176.67594
175.6588
174.28892
172.54992
170.41552
167.849
164.79987
161.19656
156.93727
151.8758
145.79851
138.38978
129.17956
117.4658
102.26171
82.461851
57.848149
31.876309
12.400499
3.1229702
0.4667439
0.53928506
0.085502734
0.063357318
0.063354596
0.063354544
0.063354392
0.063354378
0.063354373
0.063354373
0.063354373
0.063354373
0.063354373
0.063354373
0.063354373
0.063354373
0.063354373
0.063354373
0.063354374
0.063354378
0.06335439
0.063354415
0.063354444
0.063354425
0.06335436
0.063354476
0.063355248
0.063356202
0.063355984
0.063355947
0.063366524
0.063379377
0.063351697
0.063253934
0.063177793
0.063220761
0.063298439
0.063280714
0.063246586
0.063354382
0.063556369
0.0638352