/*--------------------------------*- C++ -*----------------------------------*\
| =========                 |                                                 |
| \\      /  F ield         | OpenFOAM: The Open Source CFD Toolbox           |
|  \\    /   O peration     | Version:  2506                                  |
|   \\  /    A nd           | Website:  www.openfoam.com                      |
|    \\/     M anipulation  |                                                 |
\*---------------------------------------------------------------------------*/
FoamFile
{
    version     2.0;
    format      ascii;
    arch        "LSB;label=32;scalar=64";
    class       volScalarField;
    location    "0.0075";
    object      nut;
}
// * * * * * * * * * * * * * * * * * * * * * * * * * * * * * * * * * * * * * //

dimensions      [0 2 -1 0 0 0 0];

internalField   nonuniform List<scalar> 
192657
(
4.0884398e-06
3.7126e-06
3.7123743e-06
3.7123747e-06
3.7123691e-06
3.7123689e-06
3.7123687e-06
3.7123687e-06
3.7123687e-06
3.7123687e-06
3.7123687e-06
3.7123687e-06
3.7123687e-06
3.7123687e-06
3.7123687e-06
3.7123687e-06
3.7123688e-06
3.7123688e-06
3.7123691e-06
3.7123697e-06
3.7123703e-06
3.7123699e-06
3.7123692e-06
3.7123755e-06
3.7123929e-06
3.7124018e-06
3.7123564e-06
3.7123575e-06
3.7125888e-06
3.7127426e-06
3.7115665e-06
3.7088966e-06
3.7076028e-06
3.7093205e-06
3.7111143e-06
3.7103316e-06
3.7109444e-06
3.7169916e-06
3.7281984e-06
3.744699e-06
3.7617224e-06
3.7557883e-06
3.7270862e-06
3.7056435e-06
3.7119281e-06
3.7208596e-06
3.7098361e-06
3.7045649e-06
3.7026961e-06
3.6845927e-06
3.6772066e-06
3.6825193e-06
3.6781742e-06
3.676841e-06
3.6859782e-06
3.6941703e-06
3.6817432e-06
3.6407652e-06
3.57779e-06
3.5130965e-06
3.4891221e-06
3.5099879e-06
3.5444438e-06
3.5556919e-06
3.5463765e-06
3.5470199e-06
3.5676815e-06
3.6014247e-06
3.6178487e-06
3.6304928e-06
3.672393e-06
3.7071054e-06
3.7211768e-06
3.7364124e-06
3.7532827e-06
3.7599091e-06
3.6998505e-06
3.51212e-06
3.3700091e-06
3.3664396e-06
3.6100065e-06
3.7730519e-06
3.7487032e-06
3.6754754e-06
3.7349017e-06
3.8367479e-06
3.8758784e-06
3.9098044e-06
3.9558115e-06
3.9572452e-06
3.9359834e-06
3.9536333e-06
3.9947528e-06
4.0370197e-06
4.0635801e-06
4.0941424e-06
4.154212e-06
4.2566693e-06
4.4002459e-06
4.53676e-06
4.6529485e-06
4.7424739e-06
4.8281858e-06
7.9997662e-06
0.00021278043
0.00069946807
0.001086459
0.0013709472
0.0015783372
0.0017238048
0.0018175708
0.0018686336
0.0018848767
0.0018705347
0.0018320095
0.0017771125
0.0017098146
0.0016331265
0.001549612
0.0014615513
0.0013708048
0.0012788744
0.0011871695
0.0010965299
0.0010077702
0.00092152029
0.0008382491
0.00075831425
0.00068203921
0.00060967953
0.00054143143
0.00047727291
0.00041722935
0.00036129916
0.00030940666
0.0002614368
0.00021728326
0.000176885
0.00014025391
0.0001074323
7.8500683e-05
5.3648848e-05
3.3178933e-05
1.7465371e-05
6.9651035e-06
1.7451249e-06
2.1908316e-07
1.1908953e-08
3.4368581e-09
4.0660943e-06
3.7125978e-06
3.7123746e-06
3.7123747e-06
3.7123691e-06
3.7123689e-06
3.7123687e-06
3.7123687e-06
3.7123687e-06
3.7123687e-06
3.7123687e-06
3.7123687e-06
3.7123687e-06
3.7123687e-06
3.7123687e-06
3.7123687e-06
3.7123688e-06
3.7123688e-06
3.7123691e-06
3.7123697e-06
3.7123704e-06
3.71237e-06
3.7123694e-06
3.7123757e-06
3.7123933e-06
3.712403e-06
3.7123593e-06
3.7123584e-06
3.7125935e-06
3.7127557e-06
3.7116006e-06
3.7089205e-06
3.7076015e-06
3.7092989e-06
3.7111176e-06
3.7103489e-06
3.7109247e-06
3.716954e-06
3.7281889e-06
3.7447225e-06
3.7619383e-06
3.7563667e-06
3.7276498e-06
3.7060138e-06
3.7120778e-06
3.7212622e-06
3.7102908e-06
3.7049329e-06
3.7032511e-06
3.6851467e-06
3.6775001e-06
3.6828656e-06
3.67862e-06
3.6771993e-06
3.6862293e-06
3.694426e-06
3.68235e-06
3.641666e-06
3.5790508e-06
3.5146601e-06
3.490735e-06
3.5116252e-06
3.5438578e-06
3.5546005e-06
3.5445975e-06
3.5442004e-06
3.5638873e-06
3.5971672e-06
3.6144532e-06
3.6296101e-06
3.672098e-06
3.7068041e-06
3.7208952e-06
3.7365667e-06
3.7539375e-06
3.7607874e-06
3.7025298e-06
3.5154462e-06
3.3699735e-06
3.3648706e-06
3.6061668e-06
3.7710494e-06
3.7466295e-06
3.6686718e-06
3.7289245e-06
3.834647e-06
3.8779004e-06
3.9119519e-06
3.958443e-06
3.95896e-06
3.9365469e-06
3.9545736e-06
3.9959204e-06
4.0372207e-06
4.0629137e-06
4.0957959e-06
4.1604966e-06
4.2689197e-06
4.4111616e-06
4.5406416e-06
4.651224e-06
4.7343971e-06
5.0428727e-06
2.1432618e-05
0.00026137918
0.0007474444
0.0011232281
0.0013951829
0.0015910777
0.001726152
0.0018105447
0.001852997
0.0018612367
0.0018417731
0.0018004216
0.0017421099
0.0016710672
0.0015908108
0.0015042199
0.0014135866
0.0013207311
0.0012271908
0.0011342408
0.0010427407
0.00095349817
0.00086715405
0.00078422952
0.00070511326
0.00062997633
0.00055902154
0.00049237246
0.00043020426
0.00037257006
0.00031946597
0.00027084098
0.0002266233
0.00018672625
0.00015097418
0.00011918975
9.1203117e-05
6.6838488e-05
4.5928515e-05
2.8467522e-05
1.4788586e-05
5.6542706e-06
1.335224e-06
1.5987884e-07
8.0080012e-09
1.8081646e-09
4.1373094e-06
3.7125949e-06
3.7123748e-06
3.7123744e-06
3.7123691e-06
3.7123689e-06
3.7123687e-06
3.7123687e-06
3.7123687e-06
3.7123687e-06
3.7123687e-06
3.7123687e-06
3.7123687e-06
3.7123687e-06
3.7123687e-06
3.7123687e-06
3.7123688e-06
3.7123688e-06
3.7123691e-06
3.7123697e-06
3.7123704e-06
3.71237e-06
3.7123695e-06
3.7123756e-06
3.7123936e-06
3.7124037e-06
3.7123611e-06
3.7123601e-06
3.7125975e-06
3.7127688e-06
3.7116344e-06
3.7089429e-06
3.7075951e-06
3.709273e-06
3.7111175e-06
3.7103638e-06
3.710893e-06
3.7168993e-06
3.7281627e-06
3.744727e-06
3.7621402e-06
3.7569697e-06
3.728266e-06
3.7064034e-06
3.7119952e-06
3.7216639e-06
3.71077e-06
3.7053077e-06
3.7038212e-06
3.6857403e-06
3.6777866e-06
3.6832047e-06
3.679072e-06
3.6775399e-06
3.6864399e-06
3.6946797e-06
3.6830843e-06
3.6428195e-06
3.5806942e-06
3.5164952e-06
3.4922711e-06
3.5130356e-06
3.5432449e-06
3.5536418e-06
3.5429873e-06
3.5414781e-06
3.5599805e-06
3.592654e-06
3.610554e-06
3.6267675e-06
3.6712516e-06
3.7061541e-06
3.7203067e-06
3.7363107e-06
3.7541698e-06
3.7623321e-06
3.7087173e-06
3.5232015e-06
3.371934e-06
3.3606397e-06
3.5952585e-06
3.7673475e-06
3.7475052e-06
3.6624783e-06
3.720361e-06
3.8293756e-06
3.8788773e-06
3.9122145e-06
3.9598643e-06
3.9620207e-06
3.9378654e-06
3.9534874e-06
3.9939404e-06
4.0350609e-06
4.0607566e-06
4.0933435e-06
4.1573814e-06
4.2639244e-06
4.4035128e-06
4.5292697e-06
4.6363735e-06
4.7138745e-06
4.9372445e-06
1.6957378e-05
0.00022597984
0.00072744074
0.0011072507
0.0013762335
0.0015690172
0.0017019615
0.0017855176
0.0018278492
0.0018359688
0.001816463
0.001775234
0.0017171936
0.0016466006
0.0015668873
0.0014808789
0.0013909672
0.0012990491
0.0012066032
0.0011148155
0.0010245647
0.00093660297
0.00085153082
0.0007698385
0.00069193773
0.00061815798
0.00054868049
0.00048360869
0.00042297699
0.00036678132
0.00031495228
0.00026738937
0.00022396182
0.00018451632
0.00014897001
0.00011724033
8.9234678e-05
6.485254e-05
4.4058067e-05
2.6926408e-05
1.3778829e-05
5.2088466e-06
1.2247264e-06
1.4696283e-07
7.5983512e-09
1.9421289e-09
4.1712091e-06
3.7125917e-06
3.712375e-06
3.7123743e-06
3.7123691e-06
3.7123689e-06
3.7123687e-06
3.7123687e-06
3.7123687e-06
3.7123687e-06
3.7123687e-06
3.7123687e-06
3.7123687e-06
3.7123687e-06
3.7123687e-06
3.7123687e-06
3.7123688e-06
3.7123688e-06
3.7123691e-06
3.7123697e-06
3.7123704e-06
3.7123701e-06
3.7123697e-06
3.7123758e-06
3.7123941e-06
3.7124052e-06
3.7123646e-06
3.7123612e-06
3.7126017e-06
3.7127823e-06
3.711669e-06
3.7089665e-06
3.7075905e-06
3.7092477e-06
3.7111193e-06
3.7103794e-06
3.7108685e-06
3.7168473e-06
3.7281332e-06
3.7447218e-06
3.762339e-06
3.7575722e-06
3.7288921e-06
3.7068069e-06
3.712267e-06
3.7220642e-06
3.7112579e-06
3.7056874e-06
3.7043929e-06
3.6863479e-06
3.6780805e-06
3.6835334e-06
3.6795234e-06
3.6778889e-06
3.6866546e-06
3.6949206e-06
3.6838149e-06
3.6439589e-06
3.5823109e-06
3.5183168e-06
3.4937914e-06
3.5144779e-06
3.5427591e-06
3.5527852e-06
3.5415013e-06
3.5389959e-06
3.5563229e-06
3.5882267e-06
3.6064233e-06
3.6235949e-06
3.6696946e-06
3.7053882e-06
3.7196342e-06
3.7359293e-06
3.7542293e-06
3.7638888e-06
3.7146393e-06
3.5322916e-06
3.3746537e-06
3.3579498e-06
3.5838366e-06
3.7632278e-06
3.7488252e-06
3.6575454e-06
3.712418e-06
3.8240543e-06
3.8804357e-06
3.9132268e-06
3.9613256e-06
3.9654495e-06
3.9404693e-06
3.9534531e-06
3.9930651e-06
4.034284e-06
4.0603211e-06
4.0924771e-06
4.1560474e-06
4.2605929e-06
4.3975168e-06
4.5198692e-06
4.6231433e-06
4.6942059e-06
4.8699966e-06
1.3690151e-05
0.00019433717
0.00067883737
0.0010656061
0.001336103
0.0015326008
0.001669292
0.0017558386
0.0018000601
0.0018094743
0.0017914389
0.0017519013
0.0016959993
0.0016277218
0.0015503771
0.0014667408
0.0013790884
0.001289261
0.0011987076
0.0011086796
0.0010200143
0.00093347866
0.00084967083
0.00076906042
0.00069201521
0.00061880519
0.00054964441
0.00048468359
0.00042401234
0.00036770482
0.000315806
0.00026824426
0.0002248996
0.0001856457
0.00015030487
0.00011871244
9.0715238e-05
6.616898e-05
4.5031689e-05
2.7485041e-05
1.398534e-05
5.2295669e-06
1.2143073e-06
1.4438211e-07
7.2690382e-09
1.6869166e-09
4.2219304e-06
3.712588e-06
3.7123752e-06
3.7123743e-06
3.7123691e-06
3.7123689e-06
3.7123687e-06
3.7123687e-06
3.7123687e-06
3.7123687e-06
3.7123687e-06
3.7123687e-06
3.7123687e-06
3.7123687e-06
3.7123687e-06
3.7123687e-06
3.7123688e-06
3.7123688e-06
3.7123691e-06
3.7123697e-06
3.7123705e-06
3.7123702e-06
3.7123698e-06
3.7123759e-06
3.7123947e-06
3.7124064e-06
3.7123682e-06
3.7123623e-06
3.7126061e-06
3.7127954e-06
3.711704e-06
3.7089909e-06
3.7075858e-06
3.7092213e-06
3.711119e-06
3.7103948e-06
3.7108421e-06
3.7167905e-06
3.7280995e-06
3.7447155e-06
3.7625305e-06
3.7581794e-06
3.7295392e-06
3.7072225e-06
3.7124123e-06
3.7224624e-06
3.7117586e-06
3.7060742e-06
3.7049543e-06
3.686978e-06
3.678381e-06
3.6838565e-06
3.6799753e-06
3.678238e-06
3.6868688e-06
3.6951547e-06
3.6845547e-06
3.6451287e-06
3.5839926e-06
3.5201959e-06
3.4952838e-06
3.5158771e-06
3.542382e-06
3.5520369e-06
3.5401284e-06
3.5367321e-06
3.5528539e-06
3.5838589e-06
3.6021174e-06
3.6201635e-06
3.6676285e-06
3.7042454e-06
3.7188497e-06
3.7354162e-06
3.7540727e-06
3.7655028e-06
3.7210509e-06
3.5432156e-06
3.3786689e-06
3.3557684e-06
3.5706753e-06
3.7584142e-06
3.7510146e-06
3.6537581e-06
3.7046967e-06
3.8183504e-06
3.8820477e-06
3.9146291e-06
3.9625221e-06
3.969336e-06
3.9444174e-06
3.9540743e-06
3.9925724e-06
4.0342858e-06
4.0612537e-06
4.0924754e-06
4.1547079e-06
4.2559904e-06
4.3900387e-06
4.5098579e-06
4.6095279e-06
4.6746926e-06
4.8129971e-06
1.1038898e-05
0.00016044791
0.0006306583
0.0010275336
0.0012981731
0.0014952312
0.0016327351
0.0017204487
0.0017667159
0.0017789407
0.0017636707
0.0017266338
0.0016727595
0.0016062731
0.0015306565
0.001448635
0.0013624838
0.001274128
0.0011850476
0.0010964092
0.0010090992
0.00092386807
0.00084132216
0.00076193439
0.0006860652
0.00061397461
0.00054586466
0.00048186768
0.000422044
0.0003664256
0.000315005
0.00026772396
0.00022449099
0.00018518345
0.00014969983
0.00011794727
8.9837107e-05
6.5290457e-05
4.4291653e-05
2.6957973e-05
1.3680901e-05
5.1030285e-06
1.1826085e-06
1.4048375e-07
7.0815239e-09
1.6534767e-09
4.2668541e-06
3.7125838e-06
3.7123754e-06
3.7123742e-06
3.7123691e-06
3.7123689e-06
3.7123687e-06
3.7123687e-06
3.7123687e-06
3.7123687e-06
3.7123687e-06
3.7123687e-06
3.7123687e-06
3.7123687e-06
3.7123687e-06
3.7123687e-06
3.7123688e-06
3.7123688e-06
3.7123691e-06
3.7123697e-06
3.7123705e-06
3.7123703e-06
3.71237e-06
3.7123761e-06
3.7123952e-06
3.7124078e-06
3.7123719e-06
3.7123633e-06
3.7126104e-06
3.7128082e-06
3.7117399e-06
3.7090162e-06
3.707581e-06
3.709194e-06
3.711118e-06
3.7104102e-06
3.7108154e-06
3.716731e-06
3.7280601e-06
3.7447095e-06
3.7627156e-06
3.7587892e-06
3.7302033e-06
3.7076478e-06
3.7125745e-06
3.722835e-06
3.712271e-06
3.7064686e-06
3.7055017e-06
3.6876301e-06
3.67869e-06
3.6841755e-06
3.6804254e-06
3.678586e-06
3.6870822e-06
3.6953846e-06
3.6853017e-06
3.6463144e-06
3.5857106e-06
3.5221149e-06
3.4967548e-06
3.5172499e-06
3.5421062e-06
3.5513897e-06
3.5388479e-06
3.5347014e-06
3.5496091e-06
3.5796173e-06
3.5977384e-06
3.6164424e-06
3.6651207e-06
3.7027282e-06
3.7179546e-06
3.7348184e-06
3.7537529e-06
3.7670263e-06
3.7276523e-06
3.5549933e-06
3.3840831e-06
3.3544462e-06
3.5558394e-06
3.7526787e-06
3.7538927e-06
3.6514933e-06
3.6973275e-06
3.812452e-06
3.8836011e-06
3.9165806e-06
3.9636077e-06
3.9736462e-06
3.9498054e-06
3.9557315e-06
3.9928038e-06
4.0353486e-06
4.0638779e-06
4.0939219e-06
4.1542112e-06
4.2515845e-06
4.3825677e-06
4.5004528e-06
4.5969838e-06
4.6564416e-06
4.7655414e-06
9.0140618e-06
0.00012766864
0.00056896408
0.00097667871
0.0012516823
0.0014527098
0.0015942522
0.0016858627
0.0017356046
0.0017507671
0.0017380517
0.0017034049
0.0016518148
0.0015874632
0.0015140182
0.0014340512
0.0013498633
0.0012633337
0.0011758923
0.0010887249
0.0010027736
0.00091877566
0.00083732838
0.0007588945
0.00068382528
0.00061238471
0.00054478793
0.00048118546
0.00042166089
0.0003662715
0.00031503353
0.0002679038
0.00022480444
0.00018563715
0.00015028955
0.00011862584
9.0518052e-05
6.5870605e-05
4.4684507e-05
2.7152083e-05
1.3725564e-05
5.0887814e-06
1.1719701e-06
1.3863438e-07
6.9117405e-09
1.5456313e-09
4.3165677e-06
3.7125791e-06
3.7123756e-06
3.7123742e-06
3.7123692e-06
3.7123689e-06
3.7123687e-06
3.7123687e-06
3.7123687e-06
3.7123687e-06
3.7123687e-06
3.7123687e-06
3.7123687e-06
3.7123687e-06
3.7123687e-06
3.7123687e-06
3.7123688e-06
3.7123688e-06
3.7123691e-06
3.7123697e-06
3.7123705e-06
3.7123704e-06
3.7123702e-06
3.7123762e-06
3.7123958e-06
3.7124092e-06
3.7123757e-06
3.7123643e-06
3.7126147e-06
3.7128211e-06
3.7117765e-06
3.7090429e-06
3.7075761e-06
3.709166e-06
3.7111167e-06
3.7104256e-06
3.7107881e-06
3.7166687e-06
3.7280101e-06
3.7447072e-06
3.7628945e-06
3.7594021e-06
3.7308841e-06
3.7080809e-06
3.7127321e-06
3.7230952e-06
3.7127954e-06
3.7068714e-06
3.706034e-06
3.6883035e-06
3.6790087e-06
3.6844942e-06
3.6808763e-06
3.6789308e-06
3.6872943e-06
3.695616e-06
3.6860541e-06
3.6475162e-06
3.5874657e-06
3.5240784e-06
3.4982075e-06
3.5185952e-06
3.5418943e-06
3.5508374e-06
3.5376471e-06
3.5329039e-06
3.546604e-06
3.5755478e-06
3.5933577e-06
3.6124089e-06
3.6620762e-06
3.7009785e-06
3.7169759e-06
3.7341833e-06
3.7533351e-06
3.768379e-06
3.7343838e-06
3.5681818e-06
3.3909556e-06
3.3539839e-06
3.539625e-06
3.7458095e-06
3.7572339e-06
3.65105e-06
3.6904118e-06
3.8063271e-06
3.8848686e-06
3.9191989e-06
3.9646413e-06
3.9783492e-06
3.9566401e-06
3.9586321e-06
3.993807e-06
4.0374442e-06
4.0682226e-06
4.0970262e-06
4.1547054e-06
4.2476938e-06
4.3753508e-06
4.4917189e-06
4.585864e-06
4.6404673e-06
4.7251479e-06
7.4898239e-06
9.8408242e-05
0.00050675031
0.00092607304
0.0012057925
0.0014094832
0.0015536475
0.0016481714
0.0017012235
0.0017200154
0.0017109682
0.0016797324
0.0016312018
0.0015694434
0.0014976761
0.0014192166
0.0013365863
0.0012514344
0.0011653062
0.001079423
0.0009947289
0.0009119471
0.00083162415
0.00075419633
0.00068003964
0.00060943837
0.00054260879
0.00047969549
0.0004207748
0.00036589127
0.00031504506
0.00026818137
0.00022521916
0.00018606885
0.00015063958
0.00011885013
9.0628119e-05
6.5909241e-05
4.4698053e-05
2.7157412e-05
1.3726688e-05
5.087052e-06
1.1707762e-06
1.3840692e-07
6.8799397e-09
1.5187429e-09
4.3664576e-06
3.7125739e-06
3.7123758e-06
3.7123741e-06
3.7123692e-06
3.7123689e-06
3.7123687e-06
3.7123687e-06
3.7123687e-06
3.7123687e-06
3.7123687e-06
3.7123687e-06
3.7123687e-06
3.7123687e-06
3.7123687e-06
3.7123687e-06
3.7123688e-06
3.7123688e-06
3.7123691e-06
3.7123697e-06
3.7123706e-06
3.7123706e-06
3.7123703e-06
3.7123764e-06
3.7123963e-06
3.7124108e-06
3.7123795e-06
3.7123655e-06
3.7126189e-06
3.7128345e-06
3.7118133e-06
3.7090713e-06
3.707571e-06
3.7091375e-06
3.7111114e-06
3.710441e-06
3.7107604e-06
3.7166042e-06
3.7279464e-06
3.7447119e-06
3.7630681e-06
3.7600181e-06
3.7315798e-06
3.7085201e-06
3.7128935e-06
3.7232137e-06
3.7133245e-06
3.7072821e-06
3.706554e-06
3.6889948e-06
3.6793379e-06
3.6848146e-06
3.6813306e-06
3.6792717e-06
3.6875038e-06
3.6958536e-06
3.6868084e-06
3.6487569e-06
3.5892521e-06
3.5260833e-06
3.4996466e-06
3.5199198e-06
3.5417327e-06
3.5503697e-06
3.5365238e-06
3.5313302e-06
3.5438534e-06
3.5716903e-06
3.5890423e-06
3.6081161e-06
3.6585437e-06
3.6988469e-06
3.7157685e-06
3.7335377e-06
3.752869e-06
3.7695326e-06
3.7411617e-06
3.5827521e-06
3.399231e-06
3.3544557e-06
3.5220831e-06
3.7376226e-06
3.7606917e-06
3.6526942e-06
3.6841158e-06
3.7999406e-06
3.8856593e-06
3.9225353e-06
3.9657107e-06
3.9833612e-06
3.9649007e-06
3.9630814e-06
3.9956773e-06
4.0404686e-06
4.0741702e-06
4.1020153e-06
4.1564568e-06
4.244851e-06
4.3686229e-06
4.4837922e-06
4.5762819e-06
4.6268891e-06
4.691808e-06
6.3813257e-06
7.2048556e-05
0.00043988618
0.00086959364
0.0011553033
0.0013643135
0.0015128558
0.001611451
0.0016681918
0.0016902909
0.001684232
0.0016557347
0.0016097395
0.0015504454
0.0014813569
0.0014053231
0.0013246388
0.0012413081
0.0011568165
0.0010723524
0.00098886887
0.00090712171
0.0008277163
0.00075113513
0.00067775887
0.00060786095
0.00054164838
0.00047925485
0.00042074329
0.00036615961
0.00031552249
0.00026879887
0.00022592464
0.00018681881
0.00015139153
0.00011955638
9.123934e-05
6.6385302e-05
4.5020275e-05
2.7334687e-05
1.3796284e-05
5.1012483e-06
1.17109e-06
1.3818901e-07
6.8281222e-09
1.4694973e-09
4.4187014e-06
3.712568e-06
3.712376e-06
3.7123741e-06
3.7123692e-06
3.7123689e-06
3.7123687e-06
3.7123687e-06
3.7123687e-06
3.7123687e-06
3.7123687e-06
3.7123687e-06
3.7123687e-06
3.7123687e-06
3.7123687e-06
3.7123687e-06
3.7123688e-06
3.7123688e-06
3.7123691e-06
3.7123697e-06
3.7123706e-06
3.7123707e-06
3.7123705e-06
3.7123766e-06
3.7123968e-06
3.7124123e-06
3.712383e-06
3.7123671e-06
3.7126231e-06
3.7128481e-06
3.7118497e-06
3.7091018e-06
3.7075657e-06
3.7091086e-06
3.7111059e-06
3.7104566e-06
3.7107322e-06
3.7165375e-06
3.7278684e-06
3.744723e-06
3.7632366e-06
3.7606373e-06
3.7322892e-06
3.7089649e-06
3.713058e-06
3.723815e-06
3.7138265e-06
3.7076998e-06
3.7070666e-06
3.6897001e-06
3.6796785e-06
3.6851376e-06
3.6817913e-06
3.6796096e-06
3.6877101e-06
3.6961014e-06
3.6875625e-06
3.6500316e-06
3.5910687e-06
3.5281283e-06
3.501075e-06
3.5212292e-06
3.5418975e-06
3.5499753e-06
3.5354896e-06
3.5299605e-06
3.5413637e-06
3.5680729e-06
3.5848521e-06
3.6036512e-06
3.6545925e-06
3.6962785e-06
3.7141074e-06
3.7328849e-06
3.752395e-06
3.7704893e-06
3.7478733e-06
3.5985139e-06
3.4086926e-06
3.355931e-06
3.503577e-06
3.7280485e-06
3.7635597e-06
3.6566381e-06
3.6787276e-06
3.7931307e-06
3.885962e-06
3.9265594e-06
3.9669386e-06
3.9885984e-06
3.9744418e-06
3.9693775e-06
3.9985577e-06
4.0443261e-06
4.0814828e-06
4.1090249e-06
4.1596993e-06
4.2435739e-06
4.3627298e-06
4.4768424e-06
4.5682869e-06
4.6161425e-06
4.6677739e-06
5.6810053e-06
5.1309516e-05
0.00037470488
0.000811256
0.0011049271
0.0013186109
0.0014707954
0.0015733262
0.0016340886
0.0016601383
0.001657789
0.001632645
0.0015895968
0.0015328385
0.0014659017
0.0013917265
0.0013127073
0.0012308968
0.0011477642
0.0010645761
0.00098229566
0.00090168543
0.00082333872
0.00074771536
0.00067517465
0.00060598081
0.00054034185
0.00047840282
0.00042024713
0.00036593953
0.00031551101
0.00026893706
0.00022616112
0.00018710976
0.00015169813
0.00011984809
9.1496323e-05
6.6596385e-05
4.5178273e-05
2.74375e-05
1.3848294e-05
5.1186188e-06
1.1743685e-06
1.3849007e-07
6.8201331e-09
1.4455407e-09
4.4723604e-06
3.7125615e-06
3.7123762e-06
3.712374e-06
3.7123692e-06
3.7123689e-06
3.7123687e-06
3.7123687e-06
3.7123687e-06
3.7123687e-06
3.7123687e-06
3.7123687e-06
3.7123687e-06
3.7123687e-06
3.7123687e-06
3.7123687e-06
3.7123688e-06
3.7123688e-06
3.7123691e-06
3.7123697e-06
3.7123706e-06
3.7123708e-06
3.7123706e-06
3.7123769e-06
3.7123974e-06
3.7124138e-06
3.7123863e-06
3.7123694e-06
3.7126271e-06
3.7128618e-06
3.7118855e-06
3.7091347e-06
3.7075605e-06
3.7090792e-06
3.7110982e-06
3.7104726e-06
3.7107038e-06
3.7164685e-06
3.7277797e-06
3.7447365e-06
3.7633996e-06
3.7612597e-06
3.7330118e-06
3.7094157e-06
3.7132249e-06
3.7241561e-06
3.7142589e-06
3.7081246e-06
3.7075766e-06
3.6904164e-06
3.6800308e-06
3.6854634e-06
3.6822598e-06
3.6799471e-06
3.6879128e-06
3.6963611e-06
3.6883147e-06
3.6513184e-06
3.5929177e-06
3.5302098e-06
3.5024943e-06
3.5225227e-06
3.542542e-06
3.5496433e-06
3.5345693e-06
3.5287687e-06
3.5391302e-06
3.5647122e-06
3.5808356e-06
3.5990964e-06
3.6502644e-06
3.6932969e-06
3.7122159e-06
3.7322043e-06
3.7519251e-06
3.7712691e-06
3.7544211e-06
3.615364e-06
3.4195855e-06
3.3584596e-06
3.4844874e-06
3.7171498e-06
3.7649512e-06
3.66291e-06
3.6744489e-06
3.785758e-06
3.8858003e-06
3.9311031e-06
3.9684409e-06
3.9940148e-06
3.9850599e-06
3.9777041e-06
4.0026372e-06
4.048916e-06
4.0898049e-06
4.1180205e-06
4.1646177e-06
4.2442392e-06
4.3580031e-06
4.471057e-06
4.5620686e-06
4.6084447e-06
4.6528119e-06
5.2365305e-06
3.4996069e-05
0.00030944035
0.00074820864
0.0010531145
0.0012716448
0.0014284983
0.0015354051
0.001600295
0.0016302089
0.0016314397
0.0016095787
0.0015695104
0.0015154304
0.0014508783
0.001378807
0.0013016476
0.0012213434
0.001139637
0.0010576867
0.0009765163
0.00089690499
0.00081946831
0.00074468002
0.0006729064
0.00060441252
0.00053940272
0.00047801561
0.00042032689
0.00036639321
0.00031624037
0.00026984468
0.00022715647
0.00018811489
0.00015265275
0.00012071142
9.2235452e-05
6.718721e-05
4.5608817e-05
2.7716194e-05
1.3998844e-05
5.1777901e-06
1.1883073e-06
1.4011368e-07
6.8761995e-09
1.4333798e-09
4.5279784e-06
3.7125543e-06
3.7123764e-06
3.712374e-06
3.7123692e-06
3.7123689e-06
3.7123687e-06
3.7123687e-06
3.7123687e-06
3.7123687e-06
3.7123687e-06
3.7123687e-06
3.7123687e-06
3.7123687e-06
3.7123687e-06
3.7123687e-06
3.7123688e-06
3.7123688e-06
3.7123691e-06
3.7123697e-06
3.7123707e-06
3.7123709e-06
3.7123708e-06
3.7123771e-06
3.7123979e-06
3.7124153e-06
3.7123896e-06
3.712372e-06
3.7126309e-06
3.7128757e-06
3.7119211e-06
3.70917e-06
3.7075556e-06
3.7090491e-06
3.7110886e-06
3.7104893e-06
3.7106755e-06
3.7163965e-06
3.7276856e-06
3.7447482e-06
3.7635563e-06
3.7618854e-06
3.7337478e-06
3.7098737e-06
3.7133926e-06
3.7245391e-06
3.714644e-06
3.7085577e-06
3.7080875e-06
3.6911424e-06
3.6803946e-06
3.6857895e-06
3.6827356e-06
3.6802872e-06
3.688112e-06
3.6966318e-06
3.6890635e-06
3.6526273e-06
3.5948049e-06
3.532322e-06
3.5039057e-06
3.5237917e-06
3.5434394e-06
3.5493641e-06
3.5337917e-06
3.5277296e-06
3.5371391e-06
3.561615e-06
3.5770283e-06
3.5945291e-06
3.6456143e-06
3.689917e-06
3.7099959e-06
3.7314938e-06
3.7514468e-06
3.7718981e-06
3.7607003e-06
3.6330647e-06
3.433495e-06
3.3620898e-06
3.4654147e-06
3.7040628e-06
3.7647839e-06
3.6711061e-06
3.6713847e-06
3.7780255e-06
3.8850646e-06
3.9359032e-06
3.9703495e-06
3.9996076e-06
3.9965286e-06
3.9880762e-06
4.0082064e-06
4.0542057e-06
4.0987725e-06
4.1288077e-06
4.1715078e-06
4.2470953e-06
4.354911e-06
4.4667112e-06
4.5577462e-06
4.6039259e-06
4.6413678e-06
4.9837446e-06
2.3623043e-05
0.00024900687
0.00068300848
0.0010002931
0.001223384
0.0013856828
0.0014969009
0.0015661315
0.0016002014
0.0016052943
0.0015869329
0.0015499732
0.0014986151
0.0014364268
0.0013664053
0.001291032
0.0012123066
0.0011318702
0.0010510855
0.00097097076
0.00089231104
0.0008157348
0.00074172393
0.00067064924
0.00060277832
0.00053831695
0.00047740506
0.00042011997
0.00036652025
0.00031663394
0.00027044054
0.00022789417
0.00018893654
0.00015349764
0.00012150575
9.2928138e-05
6.7752094e-05
4.6036393e-05
2.8006221e-05
1.4162654e-05
5.2445825e-06
1.20446e-06
1.4202228e-07
6.9466028e-09
1.4242238e-09
4.585353e-06
3.7125464e-06
3.7123766e-06
3.7123739e-06
3.7123692e-06
3.7123689e-06
3.7123687e-06
3.7123687e-06
3.7123687e-06
3.7123687e-06
3.7123687e-06
3.7123687e-06
3.7123687e-06
3.7123687e-06
3.7123687e-06
3.7123687e-06
3.7123688e-06
3.7123688e-06
3.7123691e-06
3.7123697e-06
3.7123707e-06
3.712371e-06
3.712371e-06
3.7123773e-06
3.7123985e-06
3.7124168e-06
3.7123931e-06
3.7123746e-06
3.7126346e-06
3.7128898e-06
3.7119563e-06
3.7092076e-06
3.7075505e-06
3.7090184e-06
3.7110775e-06
3.7105067e-06
3.7106476e-06
3.7163213e-06
3.7275897e-06
3.7447567e-06
3.7637055e-06
3.7625144e-06
3.7344978e-06
3.7103404e-06
3.713561e-06
3.7249055e-06
3.7160483e-06
3.7090012e-06
3.7086013e-06
3.6918786e-06
3.6807694e-06
3.6861124e-06
3.6832172e-06
3.680633e-06
3.6883076e-06
3.696911e-06
3.689807e-06
3.6539662e-06
3.5967327e-06
3.5344571e-06
3.5053116e-06
3.5250281e-06
3.5444566e-06
3.5491365e-06
3.53317e-06
3.5268287e-06
3.5353676e-06
3.5587783e-06
3.573452e-06
3.5900154e-06
3.6407018e-06
3.6861573e-06
3.7073716e-06
3.7303494e-06
3.7509255e-06
3.7723901e-06
3.7666401e-06
3.6512635e-06
3.4488347e-06
3.3668095e-06
3.4471113e-06
3.6877608e-06
3.7636779e-06
3.6808763e-06
3.6695543e-06
3.7702375e-06
3.8834825e-06
3.9405701e-06
3.9727709e-06
4.005422e-06
4.0086459e-06
4.0002803e-06
4.0155456e-06
4.0601929e-06
4.1080504e-06
4.1409927e-06
4.1805949e-06
4.2521098e-06
4.3538156e-06
4.4640265e-06
4.5554342e-06
4.6026877e-06
4.6354179e-06
4.8386667e-06
1.5813889e-05
0.00019284754
0.00061432902
0.00094658381
0.0011754756
0.0013429059
0.0014585544
0.0015322224
0.0015704679
0.0015794293
0.0015645876
0.0015307757
0.0014821913
0.0014224179
0.0013544796
0.0012808953
0.0012037242
0.0011246176
0.0010450205
0.00096589879
0.00088813755
0.00081236864
0.00073908846
0.00066867622
0.00060140277
0.00053747343
0.00047702619
0.00042013663
0.00036686256
0.00031723227
0.00027122395
0.00022879746
0.00018987357
0.00015439209
0.00012232252
9.3643158e-05
6.8345871e-05
4.6496484e-05
2.8328491e-05
1.4353015e-05
5.3264926e-06
1.2252411e-06
1.4455641e-07
7.0532374e-09
1.4272608e-09
4.6446735e-06
3.7125376e-06
3.7123768e-06
3.7123738e-06
3.7123692e-06
3.7123689e-06
3.7123687e-06
3.7123687e-06
3.7123687e-06
3.7123687e-06
3.7123687e-06
3.7123687e-06
3.7123687e-06
3.7123687e-06
3.7123687e-06
3.7123687e-06
3.7123688e-06
3.7123688e-06
3.7123691e-06
3.7123697e-06
3.7123707e-06
3.7123711e-06
3.7123712e-06
3.7123775e-06
3.712399e-06
3.7124184e-06
3.7123966e-06
3.7123772e-06
3.7126382e-06
3.7129042e-06
3.7119911e-06
3.7092476e-06
3.7075446e-06
3.7089871e-06
3.7110653e-06
3.7105248e-06
3.7106207e-06
3.7162424e-06
3.7274928e-06
3.7447624e-06
3.7638464e-06
3.7631473e-06
3.7352623e-06
3.7108169e-06
3.7137309e-06
3.7252667e-06
3.7178727e-06
3.7094504e-06
3.7091183e-06
3.6926275e-06
3.6811551e-06
3.6864282e-06
3.6837025e-06
3.6809859e-06
3.6885004e-06
3.6971945e-06
3.6905423e-06
3.6553352e-06
3.598696e-06
3.5366061e-06
3.5067153e-06
3.526232e-06
3.5456025e-06
3.5489592e-06
3.5327059e-06
3.5260568e-06
3.5337887e-06
3.5561913e-06
3.5701188e-06
3.5856129e-06
3.6355928e-06
3.6820581e-06
3.7043881e-06
3.7287832e-06
3.7503318e-06
3.7727372e-06
3.7721802e-06
3.6696148e-06
3.4657931e-06
3.3725721e-06
3.4301805e-06
3.6692943e-06
3.7613563e-06
3.6942908e-06
3.669008e-06
3.7627416e-06
3.8807441e-06
3.944613e-06
3.9757816e-06
4.0114951e-06
4.0212142e-06
4.0139754e-06
4.0248921e-06
4.0669923e-06
4.1174398e-06
4.1541709e-06
4.1918406e-06
4.2592228e-06
4.3550413e-06
4.463163e-06
4.555078e-06
4.6045344e-06
4.6340321e-06
4.7634244e-06
1.0998395e-05
0.00014438115
0.00054441362
0.00089200966
0.0011267628
0.0012993969
0.0014201715
0.0014983601
0.0015409177
0.0015538848
0.0015426787
0.0015121013
0.0014663477
0.0014090211
0.0013431805
0.0012713882
0.001195752
0.0011179859
0.001039414
0.00096126561
0.00088434896
0.00080931601
0.0007366887
0.00066686426
0.00060012441
0.0005366785
0.00047666221
0.00042014648
0.00036718543
0.00031780979
0.00027198027
0.00022963044
0.00019072909
0.00015523642
0.00012311872
9.4357003e-05
6.8949551e-05
4.6970896e-05
2.8664597e-05
1.455358e-05
5.4136413e-06
1.2475256e-06
1.4728638e-07
7.1700426e-09
1.4327485e-09
4.7059176e-06
3.712528e-06
3.712377e-06
3.7123738e-06
3.7123692e-06
3.7123689e-06
3.7123687e-06
3.7123687e-06
3.7123687e-06
3.7123687e-06
3.7123687e-06
3.7123687e-06
3.7123687e-06
3.7123687e-06
3.7123687e-06
3.7123687e-06
3.7123688e-06
3.7123688e-06
3.7123691e-06
3.7123697e-06
3.7123708e-06
3.7123712e-06
3.7123714e-06
3.7123777e-06
3.7123996e-06
3.7124201e-06
3.7124001e-06
3.7123799e-06
3.7126418e-06
3.7129187e-06
3.7120255e-06
3.7092903e-06
3.707538e-06
3.7089556e-06
3.7110519e-06
3.7105436e-06
3.7105949e-06
3.7161604e-06
3.7273937e-06
3.7447646e-06
3.7639782e-06
3.7637845e-06
3.736042e-06
3.7113034e-06
3.7139046e-06
3.7256175e-06
3.718375e-06
3.7098739e-06
3.7096381e-06
3.6933919e-06
3.6815528e-06
3.6867327e-06
3.6841897e-06
3.6813462e-06
3.6886932e-06
3.697474e-06
3.6912681e-06
3.6567282e-06
3.6006834e-06
3.5387621e-06
3.50812e-06
3.5274055e-06
3.5469002e-06
3.5488229e-06
3.53239e-06
3.5254056e-06
3.5323751e-06
3.5538383e-06
3.5670334e-06
3.581366e-06
3.630352e-06
3.6776621e-06
3.7010822e-06
3.7269e-06
3.749672e-06
3.7729063e-06
3.7772959e-06
3.6878013e-06
3.4852369e-06
3.3793053e-06
3.4152164e-06
3.6483148e-06
3.7569662e-06
3.7083685e-06
3.6697774e-06
3.7558268e-06
3.876532e-06
3.9474094e-06
3.979371e-06
4.0178098e-06
4.0340099e-06
4.0287452e-06
4.0362794e-06
4.0747866e-06
4.1268467e-06
4.1678741e-06
4.2049858e-06
4.2682255e-06
4.3587006e-06
4.464144e-06
4.5565588e-06
4.6090522e-06
4.6364216e-06
4.7249073e-06
8.0882413e-06
0.00010331931
0.00047297377
0.0008359827
0.0010777997
0.0012553333
0.001382322
0.001464915
0.0015118046
0.0015287911
0.0015212373
0.0014939141
0.001451009
0.0013961399
0.001332398
0.0012623902
0.0011882746
0.0011118176
0.0010344164
0.00095720062
0.00088105126
0.00080668087
0.00073462735
0.0006653085
0.00059902185
0.00053598958
0.0004763485
0.00042016221
0.00036747048
0.0003182786
0.00027257436
0.00023032698
0.00019149267
0.00015602496
0.00012388949
9.507054e-05
6.9572256e-05
4.7476673e-05
2.9035964e-05
1.4783813e-05
5.5174471e-06
1.2748298e-06
1.5068676e-07
7.3233547e-09
1.4485689e-09
4.7692167e-06
3.7125175e-06
3.7123772e-06
3.7123737e-06
3.7123692e-06
3.7123689e-06
3.7123687e-06
3.7123687e-06
3.7123687e-06
3.7123687e-06
3.7123687e-06
3.7123687e-06
3.7123687e-06
3.7123687e-06
3.7123687e-06
3.7123687e-06
3.7123687e-06
3.7123688e-06
3.7123691e-06
3.7123697e-06
3.7123708e-06
3.7123713e-06
3.7123715e-06
3.7123778e-06
3.7124001e-06