/*--------------------------------*- C++ -*----------------------------------*\
| =========                 |                                                 |
| \\      /  F ield         | OpenFOAM: The Open Source CFD Toolbox           |
|  \\    /   O peration     | Version:  2506                                  |
|   \\  /    A nd           | Website:  www.openfoam.com                      |
|    \\/     M anipulation  |                                                 |
\*---------------------------------------------------------------------------*/
FoamFile
{
    version     2.0;
    format      ascii;
    arch        "LSB;label=32;scalar=64";
    class       volScalarField;
    location    "0.0125";
    object      Ma;
}
// * * * * * * * * * * * * * * * * * * * * * * * * * * * * * * * * * * * * * //

dimensions      [0 0 0 0 0 0 0];

internalField   nonuniform List<scalar> 
192657
(
0.30043925
0.29925351
0.30021843
0.29978382
0.29983759
0.29973028
0.29966985
0.29962966
0.29960805
0.2995975
0.29959123
0.29956944
0.29946903
0.29911755
0.29818286
0.29642775
0.29472714
0.29617069
0.30026604
0.30433604
0.3056744
0.3052235
0.30424497
0.30350035
0.30230737
0.30261449
0.30355611
0.30351471
0.30324075
0.30338052
0.30349253
0.30351136
0.30356779
0.30368326
0.30377843
0.30387436
0.30389617
0.30397649
0.30409533
0.30418423
0.30426314
0.30426477
0.30430936
0.30434911
0.30454722
0.30464512
0.30485169
0.30516628
0.30538501
0.30582373
0.30630561
0.30674434
0.30741504
0.30818456
0.30891929
0.3098202
0.31090449
0.31201648
0.31313129
0.31440037
0.31583039
0.31725826
0.31866402
0.32014435
0.32172947
0.3233503
0.32490047
0.32636889
0.32783999
0.32935771
0.33086323
0.33228289
0.33360195
0.33485437
0.33608212
0.33729928
0.33847703
0.33956829
0.34055469
0.34146047
0.34231891
0.34315056
0.34396513
0.34475755
0.34550675
0.34619344
0.34681787
0.34739681
0.34795206
0.34850321
0.34906146
0.34962229
0.35017007
0.3506903
0.35117668
0.3516304
0.35205792
0.35246837
0.35287261
0.35327937
0.35369084
0.35410487
0.35451748
0.35492718
0.35533091
0.35572583
0.35633686
0.35605793
0.3538287
0.35003539
0.34611308
0.34206379
0.33788785
0.33363366
0.32934254
0.32504243
0.32074962
0.31646925
0.31220359
0.30795857
0.30373393
0.29952319
0.29531666
0.29110304
0.28686949
0.2826011
0.27828131
0.27389167
0.26941087
0.26481577
0.2600799
0.25517209
0.25005863
0.24470044
0.23904846
0.23304131
0.22658725
0.21954359
0.21166182
0.20265474
0.19210811
0.17941954
0.1637781
0.14429173
0.12060728
0.093849184
0.066145841
0.039013095
0.012952215
0.30044118
0.29925403
0.30022085
0.29978391
0.29983793
0.29973029
0.29966977
0.29962959
0.29960804
0.29959752
0.29959133
0.29956985
0.29947068
0.2991226
0.29819371
0.29644006
0.29471779
0.29612355
0.30020619
0.30428967
0.30565515
0.30523279
0.30426548
0.30351771
0.30231311
0.30258592
0.30353949
0.30350603
0.30322502
0.30336057
0.30347204
0.30348728
0.3035344
0.30364612
0.30373545
0.30382326
0.30384764
0.30392387
0.30403704
0.30412104
0.30419141
0.30417947
0.30421626
0.30424633
0.30443148
0.30450915
0.30470731
0.30500145
0.30520241
0.30562714
0.30608478
0.30650437
0.30715959
0.30790523
0.30861771
0.30950151
0.31056681
0.31165725
0.3127535
0.31401251
0.31542857
0.31684023
0.31823562
0.31970959
0.32129257
0.3229095
0.32445302
0.32592213
0.32739898
0.32892295
0.33043293
0.33185637
0.33317972
0.33444046
0.33567978
0.33690779
0.33809358
0.33918945
0.34017979
0.34109036
0.34195456
0.34279092
0.34360828
0.34440062
0.34514616
0.34582596
0.34644093
0.34700879
0.34755159
0.34808869
0.34862983
0.34916911
0.34968848
0.35017152
0.35061277
0.3510158
0.35138696
0.35173546
0.35207211
0.35240566
0.35274027
0.35307521
0.35340695
0.35372845
0.35403306
0.35431539
0.35419271
0.35327161
0.35037208
0.34625979
0.34199107
0.33754381
0.33295636
0.32826999
0.32352529
0.31875562
0.31398614
0.30923128
0.30449508
0.29978776
0.29510832
0.29045082
0.28580625
0.28116311
0.2765077
0.27182362
0.26709192
0.26229109
0.25739574
0.25237747
0.24720258
0.24183001
0.23621239
0.23029196
0.22399402
0.21722388
0.2098624
0.2017564
0.19270641
0.1824499
0.17063045
0.15677487
0.14031486
0.12076818
0.098376524
0.074675144
0.051543264
0.029863495
0.0097289737
0.30044314
0.29925536
0.30021901
0.29978373
0.29983871
0.2997307
0.29967001
0.29962969
0.29960811
0.29959757
0.29959142
0.29957016
0.29947177
0.29912586
0.29820035
0.29644566
0.29470415
0.29608156
0.30015631
0.30425104
0.30563704
0.3052391
0.30428427
0.30353311
0.30231728
0.3025599
0.30352348
0.30349608
0.30320914
0.3033417
0.30345139
0.30346271
0.30350039
0.303608
0.3036915
0.3037722
0.30379849
0.30386868
0.30397702
0.30405534
0.30411678
0.30409218
0.30412243
0.30414108
0.30431325
0.30437199
0.30456017
0.3048349
0.30501865
0.30542832
0.30586161
0.30626221
0.3069007
0.30762247
0.30831313
0.30917968
0.31022479
0.3112934
0.31237308
0.3136186
0.3150202
0.31641683
0.31780207
0.3192688
0.32084744
0.32245956
0.32399984
0.32546958
0.3269489
0.32847741
0.32999286
0.33142187
0.33275249
0.33402164
0.33526942
0.33650544
0.3376985
0.33880139
0.33979837
0.34071527
0.34158404
0.34242271
0.34324004
0.34402969
0.34476968
0.34544112
0.34604473
0.34659803
0.3471233
0.3476387
0.34815251
0.34865785
0.34913808
0.34957889
0.34997461
0.35032643
0.35064042
0.35092542
0.35119224
0.35144877
0.35169706
0.35193615
0.35216351
0.35237614
0.35257056
0.35279041
0.35315335
0.35257054
0.3495652
0.3453543
0.34098961
0.3364529
0.33177894
0.32701558
0.32220262
0.31736918
0.31253883
0.30773875
0.30298835
0.29827713
0.29359644
0.28893742
0.28429017
0.27964315
0.27498289
0.27029348
0.26555661
0.26075144
0.2558535
0.2508358
0.24566695
0.24030901
0.23471865
0.22884373
0.2226171
0.21595213
0.20873535
0.20081567
0.19199093
0.1819837
0.17041649
0.15679773
0.14054288
0.12118954
0.099004779
0.075458776
0.052296444
0.030404777
0.0099395851
0.30044395
0.29925599
0.30021521
0.29978343
0.29983909
0.29973083
0.29967009
0.29962975
0.29960816
0.29959761
0.2995915
0.29957054
0.29947316
0.29912996
0.29820882
0.29645403
0.29469194
0.29603162
0.30009838
0.30420789
0.30562003
0.3052469
0.30430491
0.30355298
0.30232392
0.30253107
0.30350646
0.30348714
0.30319365
0.30332328
0.30343054
0.30343759
0.30346643
0.30356981
0.30364712
0.30372037
0.30374794
0.30381302
0.30391582
0.30398916
0.30404124
0.30400409
0.30402664
0.30403495
0.30419373
0.30423285
0.30441272
0.30466686
0.30483311
0.3052277
0.30563619
0.30601808
0.30664039
0.30733766
0.30800583
0.30885459
0.30987963
0.31092666
0.31198677
0.31322109
0.31460737
0.31598743
0.31736181
0.3188213
0.32039754
0.32200425
0.32353757
0.32500732
0.32649118
0.3280257
0.32954653
0.33097935
0.33231461
0.33359259
0.33485129
0.33609805
0.33729929
0.33840695
0.33940789
0.34032912
0.34120226
0.34204388
0.34286196
0.34364921
0.34438257
0.34504288
0.34563144
0.34616719
0.3466728
0.34716618
0.34765488
0.34813079
0.34857465
0.34897092
0.34931559
0.34961293
0.34986971
0.35009602
0.35030327
0.35050046
0.35069169
0.35087602
0.3510501
0.35120887
0.35134789
0.35140816
0.35132003
0.35060278
0.34765073
0.34342866
0.33902994
0.33444897
0.32972408
0.32490475
0.32003391
0.31514354
0.3102524
0.30537559
0.30051975
0.29568705
0.29087532
0.28607991
0.28129329
0.27650506
0.27170255
0.26687044
0.26199098
0.25704383
0.25200464
0.24684594
0.24153493
0.23603173
0.23029111
0.22425916
0.21786769
0.21103174
0.20364464
0.19556924
0.18662662
0.17657655
0.16507338
0.15163853
0.13569938
0.1167964
0.095203263
0.072386855
0.050052207
0.029037396
0.009469769
0.30044388
0.29925626
0.30021276
0.29978366
0.29983991
0.29973119
0.29967044
0.29962993
0.29960827
0.29959768
0.29959158
0.29957083
0.29947416
0.29913276
0.29821413
0.2964572
0.29467505
0.29598635
0.30004868
0.30417138
0.30560357
0.30525175
0.30432357
0.30357037
0.30232848
0.30250306
0.3034898
0.30347687
0.30317783
0.3033052
0.30340861
0.30341223
0.30343161
0.30352984
0.30360205
0.30366895
0.3036971
0.30375501
0.3038523
0.30392075
0.30396373
0.30391384
0.30393069
0.30392695
0.30407214
0.30409295
0.30426324
0.30449712
0.30464619
0.30502474
0.3054089
0.30577211
0.30637687
0.3070494
0.30769592
0.30852638
0.30953111
0.31055483
0.31159828
0.31281861
0.31418765
0.31555316
0.31691596
0.31836742
0.31993832
0.32153849
0.32306902
0.32453904
0.32602506
0.32756417
0.32908952
0.33052748
0.33187027
0.33315674
0.33442445
0.33567949
0.3368882
0.33800333
0.3390118
0.33994002
0.34081793
0.34166131
0.34247833
0.34326139
0.34398774
0.34463854
0.34521502
0.34573599
0.34622382
0.34669492
0.3471558
0.3475989
0.34800796
0.34836956
0.3486791
0.34893892
0.34915648
0.34934188
0.34950684
0.34965986
0.34980391
0.34993917
0.35006398
0.35017629
0.35027377
0.35041779
0.3505395
0.34989522
0.34702193
0.34279987
0.33838163
0.33377817
0.32902698
0.32417571
0.31926735
0.31433734
0.30941369
0.30450445
0.2996156
0.29474966
0.28990523
0.28507758
0.28025872
0.27543837
0.27060435
0.26574166
0.26083344
0.25586057
0.25080018
0.24562635
0.24030789
0.23480665
0.22907896
0.22307153
0.21671484
0.20992214
0.20258224
0.19455018
0.18563601
0.175586
0.16404999
0.15056094
0.13456684
0.1156425
0.094104491
0.071437641
0.049324447
0.028575742
0.0093044664
0.30044369
0.29925669
0.30021147
0.29978444
0.29984028
0.29973147
0.29967061
0.29963004
0.29960834
0.29959772
0.29959166
0.29957119
0.2994755
0.29913662
0.29822195
0.29646445
0.29466127
0.29593287
0.29998856
0.30412766
0.30558684
0.30525705
0.30434491
0.30359218
0.30233671
0.30247194
0.30347167
0.30346722
0.30316257
0.30328651
0.30338618
0.30338677
0.30339662
0.30348982
0.30355643
0.30361693
0.30364474
0.30369642
0.30378804
0.3038516
0.30388536
0.30382439
0.30383371
0.30381794
0.30394919
0.30395202
0.30411379
0.3043258
0.30445747
0.30482067
0.30517964
0.30552457
0.30611229
0.30675961
0.30738366
0.30819568
0.30917915
0.31018041
0.31120436
0.31241132
0.31376426
0.31511315
0.31646371
0.31790779
0.31947492
0.32106836
0.322592
0.32406038
0.32554982
0.327095
0.32862605
0.33006759
0.33141567
0.33271132
0.3339894
0.33525529
0.33647254
0.33759328
0.33860664
0.33954012
0.34042301
0.34127058
0.34209015
0.34287293
0.34359458
0.34423572
0.34479876
0.34530459
0.34577633
0.34623048
0.34667365
0.34709725
0.3474822
0.34781435
0.34809119
0.34831821
0.34850333
0.3486579
0.348794
0.34892095
0.34904307
0.34916
0.34926963
0.34936842
0.34945263
0.34945191
0.34945069
0.3489308
0.3463427
0.34219315
0.33780616
0.33323243
0.3285049
0.32367054
0.31876949
0.31383229
0.30888047
0.30392856
0.29898549
0.29405532
0.28913788
0.28423027
0.27932687
0.27441878
0.26949428
0.26453885
0.25953751
0.25447134
0.2493169
0.24404802
0.23863369
0.23303631
0.22721346
0.22111464
0.21467576
0.20781354
0.20042149
0.19236039
0.18344552
0.17342591
0.16195208
0.14855673
0.13268916
0.11393245
0.092619061
0.070238401
0.04845156
0.028045849
0.009123024
0.30044363
0.29925659
0.30021127
0.29978586
0.2998412
0.29973191
0.29967102
0.29963026
0.29960847
0.2995978
0.29959174
0.29957148
0.29947652
0.29913941
0.29822703
0.29646694
0.29464305
0.29588401
0.29993656
0.30409071
0.30557075
0.30526138
0.30436441
0.30361148
0.30234251
0.30244187
0.30345363
0.3034566
0.30314642
0.30326736
0.30336279
0.30336131
0.30336113
0.30344843
0.30351001
0.30356571
0.30359229
0.30363666
0.30372204
0.30378093
0.30380498
0.30373232
0.30373537
0.30370749
0.30382513
0.30381031
0.30396245
0.30415255
0.30426774
0.3046145
0.30494903
0.30527528
0.30584445
0.3064664
0.30706885
0.30786155
0.30882404
0.30980114
0.31080762
0.31200009
0.31333421
0.31466814
0.31600541
0.31744089
0.31900141
0.32058696
0.32210758
0.32357541
0.32506742
0.32661669
0.32815102
0.32959751
0.33095323
0.33225735
0.33354501
0.33481971
0.33604504
0.33717439
0.33819699
0.33913891
0.34002828
0.34087949
0.34170026
0.34248164
0.34319992
0.34383613
0.34439282
0.34489077
0.34535218
0.3457925
0.34621794
0.34662138
0.34698735
0.34730314
0.34756497
0.34777633
0.34794596
0.3480848
0.34820495
0.34831513
0.34841878
0.34851692
0.3486096
0.34869569
0.34877308
0.34890442
0.34890515
0.34847366
0.34609991
0.34199931
0.33762597
0.33306575
0.3283473
0.32351633
0.31861379
0.31367036
0.3087075
0.30373975
0.29877653
0.29382235
0.28887735
0.28393902
0.2790021
0.27405883
0.26910023
0.26411535
0.25908886
0.2540008
0.24882609
0.24353856
0.23810767
0.23249605
0.22666093
0.22055025
0.21409687
0.20721565
0.19979881
0.19170732
0.18275803
0.17270387
0.16120068
0.14778733
0.1319198
0.11318821
0.09193338
0.069651118
0.04799979
0.027757979
0.0090195871
0.30044336
0.29925595
0.30021152
0.2997873
0.29984182
0.29973232
0.29967122
0.29963039
0.29960855
0.29959785
0.29959182
0.29957184
0.29947787
0.29914328
0.29823482
0.29647413
0.29462865
0.29582759
0.29987327
0.30404491
0.30555337
0.30526421
0.30438621
0.30363511
0.30235229
0.30240955
0.30343393
0.30344651
0.30313072
0.30324805
0.30333977
0.30333579
0.30332578
0.30340725
0.30346435
0.30351395
0.30353843
0.30357591
0.303656
0.30370972
0.30372384
0.30364099
0.30363696
0.30359603
0.30369925
0.30366768
0.30381074
0.30397835
0.3040768
0.30440752
0.30471625
0.30502431
0.30557565
0.30617185
0.30675174
0.30752543
0.30846573
0.30941886
0.31040661
0.31158337
0.31290086
0.31421767
0.31554083
0.31696931
0.31852394
0.32010172
0.32161542
0.32307985
0.32457454
0.32612996
0.32766958
0.32911942
0.33048113
0.33179448
0.33309239
0.33437822
0.3356127
0.33674904
0.33777809
0.33872726
0.33962388
0.34048272
0.34131059
0.34209696
0.34281588
0.34344785
0.34399752
0.34448803
0.34494235
0.34537629
0.34579665
0.34619492
0.34655219
0.34685528
0.34710277
0.34730078
0.34745811
0.34758689
0.34769961
0.34780588
0.34791069
0.34801416
0.34811368
0.34820473
0.34828167
0.34829948
0.34831307
0.34801061
0.34600464
0.34202475
0.3376797
0.33314271
0.32843602
0.32360679
0.31869754
0.31374136
0.30876238
0.30377685
0.29879544
0.29382373
0.2888627
0.28390892
0.27895496
0.27399093
0.2690048
0.26398148
0.25890283
0.25375158
0.24850831
0.24315008
0.23764783
0.23196537
0.2260617
0.21988607
0.21337242
0.20643932
0.19898203
0.19086197
0.18189602
0.17183675
0.16033976
0.14694438
0.13110876
0.11242874
0.091255054
0.069088723
0.047580423
0.0274979
0.0089285723
0.30044282
0.29925472
0.3002118
0.29978871
0.29984287
0.29973301
0.29967165
0.29963063
0.2996087
0.29959793
0.29959191
0.29957216
0.29947894
0.2991462
0.29824009
0.29647664
0.29460968
0.29577466
0.29981791
0.30400641
0.30553703
0.305267
0.30440673
0.3036557
0.30235868
0.30237778
0.30341451
0.30343516
0.30311457
0.30322872
0.30331603
0.30330959
0.30329028
0.30336499
0.30341729
0.30346243
0.30348433
0.30351439
0.30358818
0.30363752
0.30364149
0.30354728
0.30353607
0.30348268
0.30357265
0.30352402
0.30365776
0.30380242
0.30388468
0.30419783
0.3044819
0.30477173
0.30530349
0.30587388
0.30643196
0.30718561
0.30810372
0.30903267
0.31000171
0.31116301
0.31246151
0.31376166
0.31507027
0.3164896
0.31803605
0.31960505
0.32111468
0.32257776
0.32407561
0.32563399
0.32717586
0.32863082
0.33000014
0.33132193
0.33262987
0.33392508
0.3351686
0.3363151
0.33735542
0.33831494
0.33922063
0.34008645
0.3409197
0.34171002
0.34243214
0.3430671
0.34361949
0.34411157
0.344565
0.3449951
0.3454089
0.34579984
0.34615257
0.34645463
0.34670286
0.34690171
0.34706085
0.34719169
0.34730649
0.34741404
0.34751769
0.3476186
0.34771649
0.34780981
0.3479024
0.34801818
0.34804647
0.34780849
0.3460841
0.34225797
0.33795342
0.33346071
0.32879534
0.32400046
0.31911677
0.31417623
0.30920172
0.30420817
0.29920576
0.29420122
0.28919712
0.2841922
0.27918252
0.27416167
0.26912103
0.26404893
0.25893085
0.25374933
0.24848267
0.24310456
0.23758366
0.23188201
0.22595646
0.21975691
0.21322003
0.20626379
0.19878264
0.19063855
0.18164924
0.17156843
0.16005318
0.14664457
0.13080289
0.11212674
0.090970664
0.068839682
0.047385144
0.02737159
0.0088825787
0.30044264
0.29925269
0.30021217
0.29978962
0.2998439
0.2997335
0.29967188
0.29963078
0.2996088
0.29959798
0.29959199
0.29957253
0.29948029
0.29915014
0.29824811
0.2964842
0.29459519
0.29571557
0.29975072
0.30395731
0.30551807
0.30526906
0.30442947
0.30368066
0.30236954
0.30234467
0.3033926
0.3034245
0.30309917
0.30320976
0.30329253
0.30328357
0.30325494
0.30332308
0.30337079
0.30341027
0.30342905
0.30345196
0.30352031
0.30356441
0.30355841
0.30345469
0.30343595
0.30336835
0.3034439
0.30337977
0.30350417
0.30362565
0.30369095
0.30398746
0.30424542
0.30451714
0.30503062
0.30557437
0.30610973
0.30684394
0.30773923
0.30864278
0.30959361
0.31073767
0.31201863
0.3133003
0.3145932
0.31600562
0.317544
0.31910445
0.32060661
0.32206522
0.32356534
0.32512963
0.32667583
0.32813404
0.32950974
0.33084055
0.33215911
0.33346586
0.3347194
0.33587449
0.336923
0.3378922
0.33880833
0.33968601
0.34053157
0.34133278
0.34206197
0.34269983
0.34325319
0.34374658
0.3442026
0.34463701
0.3450573
0.34545498
0.34581117
0.34611353
0.34636174
0.34656206
0.34672394
0.34685962
0.34698137
0.3470986
0.3472158
0.34733267
0.34744613
0.34755108
0.34763492
0.34767072
0.34772055
0.3475867
0.34623242
0.34262878
0.33836022
0.33389843
0.32925629
0.32447682
0.31960285
0.31466853
0.30969824
0.30470781
0.29970725
0.29470196
0.28969338
0.28467945
0.27965485
0.27461218
0.26954226
0.26443345
0.25927184
0.25404078
0.24871975
0.243286
0.23771156
0.231961
0.22599349
0.21975927
0.21319388
0.20621424
0.19871433
0.19055588
0.18155643
0.17146928
0.15995091
0.14654181
0.13070183
0.11202729
0.090870564
0.068740794
0.04729771
0.027309305
0.0088578737
0.300443
0.29924939
0.30021333
0.29979038
0.29984535
0.29973424
0.29967233
0.29963104
0.29960896
0.29959807
0.29959207
0.29957286
0.29948142
0.29915324
0.29825376
0.29648709
0.29457548
0.29565903
0.29969207
0.30391687
0.30550054
0.30527132
0.30445082
0.30370275
0.30237645
0.30231155
0.30337137
0.30341322
0.30308385
0.30319092
0.30326827
0.30325666
0.30321982
0.30328031
0.30332292
0.30335806
0.30337362
0.30338929
0.3034509
0.30348998
0.30347374
0.30336035
0.30333285
0.30325232
0.30331485
0.30323452
0.30334945
0.30344649
0.30349583
0.30377436
0.30400746
0.30426125
0.30475428
0.30527174
0.30578464
0.30649862
0.30737014
0.30824986
0.30918092
0.31030789
0.31157021
0.31283275
0.31411078
0.31551322
0.31704165
0.31859269
0.32008925
0.32154602
0.32304924
0.32461501
0.32616297
0.3276267
0.32900973
0.33034911
0.33167791
0.33299447
0.33425811
0.33542497
0.33648663
0.33746826
0.33839615
0.33928443
0.34013976
0.34095056
0.3416902
0.3423393
0.34290419
0.34340805
0.34387197
0.34431171
0.34473546
0.34513688
0.34550043
0.34581391
0.34607479
0.34628828
0.34646417
0.34661352
0.34674804
0.34687605
0.34700075
0.34712302
0.34724217
0.34735647
0.34747038
0.3476028
0.34766131
0.3475593
0.34645603
0.34312206
0.33890768
0.33449877
0.32990629
0.32516808
0.32032535
0.31541204
0.31045293
0.30546442
0.30045716
0.29543728
0.29040726
0.28536739
0.28031458
0.27524187
0.27014007
0.26499765
0.25980085
0.25453334
0.24917481
0.24370197
0.23808651
0.23229316
0.22628141
0.22000214
0.21339162
0.20636822
0.198827
0.19063057
0.18159742
0.17148196
0.1599417
0.14651778
0.13066797
0.11198532
0.090818975
0.068681248
0.047239742
0.027265643
0.0088398679
0.30044502
0.29924626
0.30021669
0.29979092
0.29984691
0.29973463
0.29967262
0.29963124
0.29960908
0.29959813
0.29959215
0.29957324
0.29948282
0.29915729
0.29826209
0.2964952
0.29456129
0.29559663
0.29962076
0.30386428
0.30547938
0.30527305
0.30447384
0.30372906
0.3023893
0.30227672
0.30334736
0.30340255
0.30306971
0.30317226
0.30324441
0.30323043
0.30318456
0.30323754
0.30327594
0.30330576
0.30331722
0.30332524
0.3033808
0.3034142
0.30338806
0.30326586
0.3032309
0.30313554
0.30318397
0.30308857
0.30319285
0.30326611
0.30329901
0.30356078
0.3037677
0.30400307
0.30447734
0.30496723
0.30545708
0.30615132
0.30699946
0.3078529
0.30876511
0.30987452
0.31111779
0.31235989
0.31362143
0.31501598
0.31653464
0.31807655
0.3195645
0.32101661
0.32252179
0.3240928
0.32564391
0.32711089
0.32850009
0.32984822
0.33118833
0.33251691
0.33379162
0.33496845
0.33603998
0.33703364
0.33797524
0.33887916
0.33975107
0.34057749
0.34132965
0.34198833
0.34256222
0.34307611
0.3435521
0.34400632
0.34444679
0.3448648
0.34524159
0.3455655
0.34583659
0.34606149
0.34624944
0.34641221
0.34656149
0.34670619
0.34685042
0.34699353
0.34713222
0.3472612
0.34736709
0.34743024
0.34751345
0.34749529
0.34670418
0.34370429
0.33954636
0.33517638
0.33061866
0.32590877
0.32108926
0.31619577
0.31125407
0.30628075
0.30128599
0.29627486
0.29124837
0.28620493
0.28114127
0.27605187
0.27092867
0.26576085
0.26053504
0.25523544
0.24984239
0.24433334
0.23868061
0.23284961
0.22680035
0.22048377
0.21383605
0.2067757
0.19919823
0.19096676
0.1819002
0.17175335
0.16018393
0.14673268
0.13085648
0.11214434
0.090940182
0.068759373
0.047280719
0.027281472
0.0088420768
0.30044752
0.29924479
0.30022255
0.299792
0.29984879
0.29973511
0.29967315
0.29963154
0.29960925
0.29959822
0.29959224
0.29957358
0.29948404
0.2991606
0.29826823
0.29649865
0.29454099
0.29553651
0.29955808
0.30382136
0.30546071
0.30527312
0.30449584
0.30375276
0.30239828
0.3022418
0.3033244
0.30339118
0.30305512
0.30315304
0.30321995
0.30320345
0.30314912
0.30319399
0.30322739
0.3032526
0.30326038
0.30326086
0.30330889
0.3033373
0.30330092
0.30317035
0.3031253
0.30301626
0.30305231
0.30294168
0.30303558
0.30308383
0.30310155
0.30334453
0.30352594
0.30374372
0.30419669
0.30465961
0.30512681
0.30580042
0.30662354
0.30745289
0.30834481
0.30943531
0.31065959
0.31188047
0.31312754
0.31451072
0.31601784
0.31754959
0.31903046
0.32048044
0.3219876
0.32355873
0.32511163
0.32658434
0.32798044
0.32933749
0.33068774
0.33202631
0.33331207
0.33450198
0.33558817
0.3365962
0.3375519
0.33846951
0.33935491
0.34019566
0.34096414
0.34164147
0.34223489
0.34276731
0.34325933
0.34372747
0.34418053
0.34461172
0.34500503
0.34534842
0.3456399
0.34588538
0.34609425
0.34627691
0.34644446
0.34660489
0.34676122
0.3469141
0.34706273
0.34720562
0.34734742
0.34750132
0.34759288
0.34758126
0.34697247
0.34434
0.34027278
0.33596086
0.3314579
0.32679356
0.32200953
0.31714225
0.3122189
0.30725747
0.30226924
0.29725999
0.29223094
0.28718032
0.2821041
0.27699689
0.27185148
0.26665745
0.26140192
0.25606956
0.25064111
0.24509445
0.23940216
0.23352982
0.22743798
0.22107836
0.21438786
0.20728562
0.19966761
0.19139733
0.18229404
0.17211273
0.16051109
0.14702932
0.13112236
0.11237446
0.091123662
0.068888101
0.047358588
0.027319604
0.0088518521
0.30044874
0.29924523
0.30022763
0.29979302
0.29985094
0.29973501
0.29967352
0.2996318
0.29960939
0.2995983
0.29959232
0.29957394
0.29948547
0.29916478
0.29827691
0.29650742
0.29452724
0.29547131
0.2994828
0.30376485
0.30543721
0.30527328
0.30451892
0.30378055
0.30241411
0.30220644
0.30329873
0.30338035
0.30304132
0.3031337
0.30319611
0.30317583
0.30311343
0.30315068
0.30317926
0.30319934
0.30320202
0.30319528
0.30323635
0.30325976
0.30321311
0.30307435
0.30302015
0.30289697
0.30291974
0.30279395
0.30287631
0.3029003
0.3029018
0.30312708
0.30328223
0.30348164
0.30391536
0.30434977
0.3047939
0.30544744
0.30624644
0.30704929
0.30792041
0.30899381
0.3101973
0.31139588
0.31262636
0.31399944
0.31549576
0.31701783
0.31848861
0.31993415
0.32144293
0.32301824
0.3245733
0.32604909
0.32745062
0.32881626
0.33017846
0.33152961
0.33282741
0.33402826
0.33512575
0.33614772
0.33711982
0.33805576
0.33896049
0.33981991
0.34060485
0.34129777
0.34190767
0.34245826
0.34297093
0.34346243
0.34394055
0.34439579
0.34480942
0.34517022
0.34547864
0.34574128
0.34596721
0.34616767
0.34635392
0.34653458
0.34671343
0.34688958
0.34705976
0.34721845
0.34735248
0.34744438
0.34756336
0.34762052
0.34724298
0.3450143
0.34106217
0.33679571
0.33233619
0.32770964
0.32295796
0.31811859
0.31321967
0.30827976
0.30331032
0.29831697
0.29330056
0.28825869
0.28318644
0.27807709
0.27292307
0.2677148
0.26244006
0.25708398
0.25162775
0.24604976
0.24032322
0.23441425
0.22828393
0.22188452
0.21515333
0.20800995
0.20035077
0.19203972
0.1828964
0.17267609
0.16103645
0.14751691
0.13156973
0.1127724
0.091453951
0.069134619
0.047520939
0.027408172
0.0088785831
0.30044916
0.2992463
0.30022848
0.29979375
0.2998536
0.29973485
0.29967412
0.29963217
0.29960959
0.2995984
0.29959242
0.2995743
0.29948676
0.29916833
0.29828359
0.29651159
0.29450657
0.29540638
0.29941609
0.30371924
0.30541651
0.30527448
0.30454204
0.30380623
0.3024256
0.30217014
0.30327404
0.30336918
0.3030277
0.3031137
0.30317082
0.30314758
0.30307753
0.30310646
0.30312928
0.30314431
0.30314384
0.30312943
0.30316304
0.30318064
0.30312402
0.30297752
0.3029118
0.30277463
0.30278522
0.30264537
0.30271669
0.30271471
0.30270126
0.30290697
0.30303631
0.30321847
0.30363018
0.30403687
0.30445855
0.3050907
0.30586406
0.3066415
0.30749227
0.30854551
0.30972834
0.31090472
0.31212099
0.31348089
0.3149646
0.31647535
0.31793791
0.31938091
0.32088984
0.32246428
0.32402142
0.32550257
0.32691065
0.32828565
0.32965757
0.3310187
0.33232815
0.33354291
0.33465613
0.33569412
0.33668203
0.33763388
0.33855483
0.33943197
0.34023729
0.34095396
0.34158899
0.34216407
0.34269935
0.34321193
0.34371018
0.34418606
0.3446229
0.34500895
0.34534283
0.34563073
0.34588151
0.34610511
0.34631237
0.34651124
0.34670443
0.34689306
0.34707589
0.34725165
0.34742516
0.3476055
0.34772566
0.34777921
0.34750745
0.34567845
0.3419007
0.33769509
0.33329313
0.32871578
0.32400382
0.31919566
0.31432111
0.30940037
0.3044461
0.29946466
0.29445712
0.28942093
0.28435076
0.27923926
0.27407793
0.26885693
0.26356464
0.2581866
0.25270422
0.24709629
0.24133646
0.23539138
0.22922243
0.22278235
0.21600921
0.20882302
0.20112065
0.19276638
0.18358012
0.17331728
0.16163535
0.14807287
0.13207931
0.11322542
0.091831256
0.069418983
0.047710987
0.027513697
0.0089111728
0.30044948
0.29924598
0.30022392
0.29979417
0.29985632
0.29973449
0.29967461
0.29963247
0.29960975
0.29959848
0.2995925
0.29957468
0.29948821
0.29917265
0.29829265
0.29652109
0.29449328
0.29533916
0.29933623
0.3036585
0.30538908
0.30527561
0.3045659
0.30383634
0.30244386
0.30213502
0.30324713
0.30335773
0.30301501
0.30309292
0.30314556
0.30311901
0.30304147
0.30306184
0.30307997
0.30308986
0.30308418
0.30306288
0.30308839
0.3031011
0.30303368
0.30287991
0.30280322
0.30265282
0.3026511
0.30249604
0.30255483
0.30252716
0.30249791
0.30268539
0.30278873
0.30295236
0.30334393
0.30372182
0.3041203
0.30473189
0.3054802
0.3062312
0.3070589
0.30809523
0.30925574
0.31040867
0.31160822
0.31295528
0.31442772
0.31592788
0.31737904
0.31881758
0.32032759
0.321905
0.32346361
0.32494733
0.32635991
0.32774349
0.32912768
0.33050192
0.33182408
0.33305025
0.33417584
0.33522901
0.33623504
0.33720668
0.33814831
0.33904554
0.33986948
0.34060523
0.3412615
0.34186022
0.34242217
0.34296427
0.34349327
0.34399848
0.34446108
0.34487003
0.34522586
0.34553491
0.34580602
0.34605006
0.34627816
0.34649907
0.34671631
0.34692889
0.34713375
0.34732528
0.34749008
0.34761531
0.34776492
0.34787922
0.34776457
0.34632971
0.34277504
0.33862085
0.33426818
0.32973576
0.32506275
0.32028797
0.31544236
0.31054731
0.30561634
0.30065627
0.29566825
0.29064949
0.28559408
0.28049388
0.27533935
0.27011925
0.26482115
0.25943114
0.25393146
0.24830124
0.24251456
0.23653852
0.23033513
0.22385755
0.21704418
0.20981561
0.20206919
0.19366964
0.18443725
0.17412768
0.16239828
0.14878657
0.13273869
0.11381711
0.092330214
0.069801253
0.047971429
0.027661323
0.0089579365
0.30044993
0.29924415
0.30021975
0.29979557
0.2998577
0.29973504
0.29967526
0.29963284
0.29960995
0.29959859
0.29959259
0.29957506
0.29948957
0.29917645
0.29829992
0.29652611
0.29447244
0.29526906
0.29926517
0.30360951
0.3053666
0.30527138
0.30459029
0.30386486
0.30245643
0.30209842
0.30322171
0.30334674
0.30300227
0.30307095
0.30311935
0.30308941
0.30300539
0.30301699
0.30302911
0.30303374
0.30302436
0.30299599
0.30301326
0.30301951
0.30294221
0.30278143
0.30269186
0.30252763
0.30251363
0.3023458
0.30239196
0.30233751
0.30229412
0.30246158
0.30253886
0.30268532
0.30305409
0.30340362
0.30378
0.30436896
0.30509152
0.30581514
0.30662261
0.30763821
0.30877543
0.30990633
0.31109086
0.31242303
0.31388218
0.31536946
0.31681154
0.31824687
0.3197552
0.32133115
0.32289192
0.32437998
0.32579902
0.32719219
0.32858551
0.32996959
0.33130352
0.33254398
0.33368593
0.33475624
0.33577908
0.33676789
0.33772747
0.33864436
0.33949032
0.3402511
0.34093396
0.34155922
0.34214697
0.34271418
0.34326798
0.34379882
0.34428922
0.34472769
0.34511314
0.34545148
0.34575079
0.34602065
0.34627183
0.34651244
0.3467454
0.34697178
0.34719093
0.34740185
0.34760967
0.3478177
0.34796566
0.34807144
0.34800228
0.34691843
0.34365976
0.3395738
0.33528098
0.33080186
0.32617283
0.32143331
0.31661603
0.3117443
0.30683327
0.30189093
0.29691907
0.29191506
0.28687276
0.2817835
0.27663701
0.27142114
0.26612236
0.26072577
0.25521372
0.24956597
0.24375686
0.2377537
0.23151879
0.22500582
0.21815373
0.21088357
0.20309309
0.1946474
0.18536709
0.17500794
0.16322703
0.14956082
0.13345227
0.114456
0.092869308
0.070216251
0.048256293
0.027824154
0.0090100456
0.30045075
0.29924131
0.30021909
0.29979742
0.29985764
0.29973617
0.29967575
0.29963314
0.29961012
0.29959868
0.29959267
0.29957546
0.29949106
0.29918091
0.29830939
0.2965364
0.29445969
0.29519945
0.29918079
0.30354437
0.30533701
0.30526294
0.30461554
0.30389758
0.30247633
0.30206401
0.30319315
0.30333502
0.30299083
0.30304901
0.30309306
0.30305978
0.30296871
0.30297164
0.3029789
0.30297837
0.30296367
0.30292788
0.30293609
0.30293713
0.30284914
0.30268243
0.30257921
0.30240352
0.3023779
0.30219467
0.30222707
0.30214616
0.30208797
0.30223581
0.30228705
0.302415
0.30276261
0.30308336
0.30343637
0.30400408
0.30470058
0.30539767
0.30618081
0.3071783
0.30829223
0.30939942
0.31056631
0.31188336
0.31333092
0.31480616
0.31623599
0.31766627
0.31917483
0.3207526
0.32231442
0.32380417
0.32522702
0.32662872
0.32803417
0.32943171
0.33077855
0.33203052
0.33318548
0.33427143
0.33531296
0.33632189
0.33730235
0.33823961
0.33910484
0.33988516
0.34059002
0.34124004
0.3418557
0.34245367
0.34303946
0.34360136
0.34412045
0.34458555
0.34499672
0.34535962
0.34568253
0.34597583
0.3462505
0.34651484
0.3467731
0.34702426
0.34726548
0.34749125
0.34768824
0.34784792
0.34802654
0.34818921
0.3482245
0.34745505
0.34454148
0.3405263
0.33628789
0.33186
0.32727537
0.32257333
0.31778789
0.31294391
0.30805798
0.3031392
0.29819008
0.29320827
0.28818756
0.28311881
0.27799101
0.27279105
0.2675042
0.26211421
0.256602