/*--------------------------------*- C++ -*----------------------------------*\
| =========                 |                                                 |
| \\      /  F ield         | OpenFOAM: The Open Source CFD Toolbox           |
|  \\    /   O peration     | Version:  2506                                  |
|   \\  /    A nd           | Website:  www.openfoam.com                      |
|    \\/     M anipulation  |                                                 |
\*---------------------------------------------------------------------------*/
FoamFile
{
    version     2.0;
    format      ascii;
    arch        "LSB;label=32;scalar=64";
    class       volScalarField;
    location    "1.25";
    object      rho;
}
// * * * * * * * * * * * * * * * * * * * * * * * * * * * * * * * * * * * * * //

dimensions      [1 -3 0 0 0 0 0];

internalField   nonuniform List<scalar> 
1375
(
0.66573108
0.66575154
0.66570654
0.66572945
0.66575366
0.66571079
0.6657063
0.66572824
0.66575577
0.66570087
0.66571046
0.66570631
0.66572856
0.66575831
0.66570321
0.66570081
0.66571137
0.66570617
0.66572957
0.66576078
0.6657046
0.66570386
0.66570147
0.66571199
0.66570691
0.66573077
0.66576273
0.66570592
0.66570556
0.66570472
0.66570349
0.66571242
0.66570761
0.66573168
0.66576365
0.66569905
0.66570641
0.66570535
0.6657057
0.66570497
0.66571406
0.66570864
0.66573252
0.66576395
0.66569208
0.66569996
0.66570671
0.66570549
0.66570649
0.66570598
0.66571551
0.66571003
0.66573338
0.66576392
0.66569254
0.66569395
0.66570066
0.66570644
0.66570624
0.66570717
0.66570717
0.66571647
0.66571159
0.66573419
0.66576338
0.66568504
0.6656947
0.66569569
0.66570131
0.66570627
0.66570757
0.66570769
0.66570856
0.66571749
0.66571271
0.66573477
0.66576234
0.66566789
0.66568744
0.66569693
0.66569734
0.66570166
0.6657063
0.66571002
0.66570873
0.66570967
0.66571897
0.66571354
0.66573516
0.66576126
0.6656714
0.66569033
0.66569916
0.66569915
0.66570206
0.66570644
0.66571117
0.66571027
0.66571057
0.66572056
0.66571429
0.66573539
0.66576034
0.66566328
0.66567497
0.66569363
0.66570171
0.66570102
0.66570277
0.66570728
0.66570952
0.66571176
0.66571111
0.66572234
0.66571509
0.66573536
0.66575946
0.66566206
0.66566709
0.66567855
0.66569707
0.66570449
0.66570297
0.66570338
0.6657084
0.6657092
0.66571322
0.66571194
0.66572418
0.66571579
0.66573543
0.66575873
0.66565058
0.66566673
0.66567062
0.66568208
0.66570045
0.66570718
0.66570501
0.66570437
0.6657097
0.66570991
0.66571452
0.66571303
0.66572589
0.66571629
0.6657355
0.66575799
0.66563257
0.66564724
0.66565853
0.66567194
0.66567405
0.66568564
0.66570364
0.66570975
0.66570683
0.6657054
0.66571093
0.66571077
0.66571589
0.66571394
0.6657275
0.66571679
0.66573543
0.66575774
0.66562877
0.66564403
0.66565706
0.6656673
0.66567787
0.66567778
0.66568922
0.66570667
0.66571216
0.6657086
0.66570649
0.66571197
0.66571078
0.6657173
0.6657144
0.66572937
0.66571726
0.66573578
0.66575804
0.66564117
0.66564474
0.66565594
0.66566645
0.66567611
0.6656843
0.66568188
0.66569297
0.66570956
0.66571439
0.66571018
0.66570783
0.66571351
0.6657111
0.66571908
0.66571463
0.66573136
0.66571765
0.6657362
0.66575846
0.66565011
0.66566004
0.66566082
0.66566235
0.66566944
0.66567666
0.66568541
0.66569093
0.6656865
0.66569727
0.66571256
0.66571644
0.66571168
0.66570901
0.66571568
0.66571203
0.66572093
0.66571519
0.66573348
0.66571814
0.66573683
0.66575913
0.66542049
0.66540935
0.66540114
0.66539507
0.66539291
0.66539944
0.66540558
0.6653992
0.66538589
0.66537604
0.66537545
0.66537538
0.66537541
0.66537929
0.66538562
0.66539276
0.66541119
0.66544888
0.66549597
0.6655754
0.66562094
0.66561791
0.66560413
0.66527543
0.66525095
0.66522884
0.66520763
0.66518664
0.66517003
0.66515236
0.66513012
0.66510569
0.6650863
0.66507609
0.66506471
0.66504666
0.66503613
0.66505488
0.66510092
0.66517321
0.66523642
0.66527679
0.66541225
0.66556937
0.66566037
0.66576472
0.66523738
0.66522665
0.66522655
0.66523042
0.66523494
0.66524612
0.66526355
0.66528689
0.66531394
0.66534806
0.66539256
0.66543923
0.665483
0.66553059
0.66560309
0.66570089
0.66582267
0.66593782
0.66603304
0.66623682
0.66644283
0.66655736
0.66665817
0.66539842
0.66541449
0.66543829
0.66547172
0.66550505
0.6655424
0.66558554
0.66563068
0.66567386
0.66571773
0.6657725
0.66583111
0.66588425
0.66593306
0.66599671
0.66607767
0.66617623
0.66626344
0.66636362
0.66654945
0.66676273
0.66687563
0.66688107
0.66559078
0.66561772
0.66565034
0.6656837
0.66571787
0.6657557
0.66579717
0.66583908
0.66587273
0.66590672
0.66595261
0.66600572
0.66605203
0.66609241
0.66614024
0.66620788
0.66629398
0.66636926
0.66645636
0.66661253
0.66680085
0.66692109
0.66693316
0.66572085
0.66574694
0.66577615
0.66580273
0.6658297
0.66586089
0.66589401
0.66593254
0.66595864
0.66598097
0.666021
0.66607094
0.66611103
0.66613973
0.66618272
0.66624411
0.66632354
0.66639495
0.66647172
0.66660006
0.66677523
0.66692672
0.6669542
0.66579145
0.66581518
0.66583938
0.66586022
0.6658806
0.66590686
0.66593432
0.66597037
0.66599169
0.66600689
0.66604422
0.66609191
0.66612802
0.66615045
0.66619011
0.66624971
0.66632585
0.66639583
0.6664619
0.66656494
0.66673089
0.66688753
0.66688443
0.66582558
0.66584654
0.66586682
0.66588374
0.66590128
0.66592482
0.66594891
0.66598286
0.66600198
0.666013
0.66604782
0.66609364
0.66612857
0.66614813
0.66618558
0.66624191
0.66631319
0.66638394
0.66644093
0.66652405
0.666692
0.66683245
0.66681483
0.66583966
0.66585805
0.66587564
0.6658903
0.66590782
0.66592964
0.66595257
0.6659841
0.66600261
0.66601112
0.66604247
0.6660864
0.66612228
0.66614128
0.6661765
0.66622726
0.66629102
0.66636463
0.66641626
0.66647847
0.66664705
0.66678021
0.6667811
0.66673209
0.66584282
0.66585956
0.66587578
0.66588961
0.6659074
0.66592866
0.66595094
0.66597953
0.66599845
0.66600594
0.66603299
0.66607496
0.66611253
0.66613209
0.66616352
0.6662062
0.66626257
0.66634291
0.6663956
0.66643596
0.66659367
0.66672236
0.66674478
0.66666529
0.66584099
0.66585697
0.66587259
0.66588608
0.66590397
0.6659249
0.66594568
0.66597177
0.665992
0.66599934
0.66602165
0.66606139
0.66609964
0.66612044
0.66614992
0.66618542
0.66623223
0.66631501
0.6663718
0.66639368
0.66653658
0.66665421
0.66665633
0.66662338
0.66585307
0.66586843
0.66588147
0.66589923
0.66591954
0.66593839
0.66596239
0.66598465
0.66599255
0.66601021
0.66604742
0.66608396
0.66610462
0.66613559
0.66616702
0.66620246
0.66628172
0.66634458
0.66635515
0.66647475
0.66659846
0.6665822
0.66659417
0.66584891
0.66586418
0.66587666
0.66589398
0.66591352
0.66593045
0.66595212
0.66597666
0.66598648
0.66600055
0.66603481
0.66606759
0.6660858
0.66611995
0.6661483
0.66616878
0.66624271
0.66632057
0.66633704
0.66637894
0.66652885
0.66651758
0.66655381
0.66584477
0.66586017
0.66587248
0.66588917
0.66590825
0.66592261
0.66594052
0.66596719
0.66598045
0.66599214
0.66602287
0.66605197
0.66606682
0.66610312
0.66613411
0.66613586
0.66619917
0.66629928
0.66632892
0.66629441
0.66644157
0.66644305
0.66646624
0.66584089
0.66585678
0.66586926
0.66588501
0.66590413
0.66591583
0.66592921
0.6659576
0.66597457
0.66598401
0.66601047
0.66603854
0.66604944
0.66608199
0.66612546
0.66612152
0.6661466
0.6662521
0.66630674
0.66628141
0.66632125
0.66636455
0.66636203
0.66583766
0.66585435
0.66586671
0.66588069
0.66589993
0.6659108
0.66592046
0.66594984
0.6659703
0.66597691
0.66599617
0.66602687
0.66603507
0.66605609
0.66610749
0.66611819
0.66611293
0.6661996
0.66626449
0.66625233
0.66622317
0.66629149
0.66629451
0.66629605
0.66583492
0.66585288
0.66586544
0.66587724
0.66589638
0.66590859
0.665915
0.66594191
0.6659655
0.66597327
0.66598002
0.66601503
0.66603161
0.66603403
0.66607942
0.66611093
0.66610903
0.66612351
0.66618901
0.66619899
0.66617683
0.66622498
0.66623718
0.66618676
0.66583206
0.66585153
0.66586579
0.6658755
0.66589364
0.66590875
0.66591454
0.66593286
0.66595933
0.66597371
0.66597105
0.66599349
0.66602364
0.66602867
0.66605561
0.66609152
0.66609594
0.66607458
0.66612532
0.66614482
0.6661288
0.66615827
0.6661398
0.66610755
0.66582931
0.66584982
0.66586639
0.66587504
0.66589096
0.66590906
0.6659181
0.66592429
0.66594941
0.66596712
0.66597094
0.66597737
0.6660071
0.66601876
0.66603348
0.6660683
0.66607226
0.66607396
0.66606369
0.66608597
0.66608792
0.66607462
0.66604721
0.66608056
0.66603729
0.66582692
0.66584755
0.6658663
0.66587514
0.66588807
0.66590688
0.66591915
0.66592182
0.66594091
0.66595541
0.66596341
0.66596806
0.66599649
0.66601313
0.6660063
0.66602858
0.66604776
0.66604584
0.66603178
0.66602638
0.66603356
0.66601074
0.66601265
0.66602263
0.66595175
0.66582552
0.66584365
0.66586403
0.66587543
0.66588363
0.66590082
0.66591508
0.6659228
0.66593108
0.66594628
0.66595993
0.66595471
0.66597161
0.66600591
0.66598853
0.66598887
0.66601848
0.66601471
0.66600541
0.66600581
0.66597554
0.66595939
0.66597492
0.66593208
0.66591471
0.66582473
0.6658391
0.66585984
0.6658736
0.66587975
0.66589351
0.6659072
0.66592382
0.66592628
0.6659308
0.66594295
0.6659512
0.66594856
0.6659723
0.66597435
0.66597621
0.66597884
0.66598234
0.66597458
0.6659724
0.66593365
0.66594293
0.66590665
0.66586046
0.66587438
0.66586918
0.66582381
0.66583425
0.66585381
0.66586909
0.665876
0.66588704
0.66589542
0.66590802
0.66592517
0.66592688
0.66592651
0.66594253
0.66594223
0.66593661
0.66594903
0.66595067
0.66594413
0.66594798
0.66594846
0.66591902
0.665903
0.66591374
0.66586296
0.66582117
0.66584177
0.66579411
0.66582164
0.66582763
0.66584668
0.6658646
0.66586919
0.66587949
0.66589141
0.66589412
0.66590703
0.66591897
0.66592152
0.6659227
0.66592515
0.66592146
0.6659211
0.6659204
0.66592177
0.66592368
0.66591965
0.66588663
0.66586708
0.66587853
0.66583391
0.66581419
0.66580901
0.66573872
0.66581971
0.6658242
0.66583624
0.66585597
0.66586557
0.66586974
0.66588219
0.66589
0.66589044
0.66589943
0.66591122
0.66591159
0.66590817
0.66590766
0.66589587
0.6658987
0.66589721
0.6658926
0.66589089
0.6658608
0.66585314
0.6658551
0.66581163
0.66579875
0.66577727
0.66571809
0.665699
0.66582147
0.66582754
0.66584371
0.66586007
0.66586401
0.66586971
0.66587728
0.66588302
0.66588423
0.66589245
0.66589457
0.6658951
0.66588809
0.66588423
0.66587823
0.6658671
0.6658691
0.66586825
0.66584823
0.66584512
0.66582493
0.66578857
0.66578297
0.66575193
0.66571082
0.66569868
0.66581663
0.66582363
0.66583307
0.66584839
0.66585861
0.66586194
0.66586478
0.66587007
0.66587257
0.66587359
0.66587494
0.66587812
0.66587366
0.66587249
0.66586125
0.66584765
0.66584791
0.66584929
0.66583392
0.66582709
0.66580386
0.665771
0.66576626
0.66573923
0.66570975
0.66569999
0.66567191
0.66581115
0.66581663
0.66582582
0.66583471
0.6658442
0.6658527
0.66585701
0.66585694
0.66586032
0.66585992
0.66585746
0.66585986
0.66586342
0.66585501
0.66585167
0.66583215
0.66583121
0.66583333
0.66581799
0.66581737
0.66579265
0.66576179
0.66575117
0.66572993
0.66570854
0.66570191
0.66567936
0.66580673
0.66580915
0.66581502
0.66582173
0.66583081
0.66583793
0.66584412
0.66584706
0.66584984
0.66584598
0.66584414
0.66584766
0.66584136
0.66584434
0.66583813
0.66582278
0.66582501
0.66581338
0.66579834
0.6657973
0.66577452
0.66575303
0.66574388
0.66572556
0.66571094
0.66570212
0.66568288
0.66580487
0.66580375
0.66580654
0.66580937
0.66581569
0.66582196
0.66583077
0.66583512
0.66583794
0.66583515
0.66583579
0.66583404
0.66582276
0.66582913
0.66582071
0.66581307
0.6658141
0.66580045
0.66578744
0.66578215
0.66576128
0.66574183
0.66573287
0.66571735
0.66570502
0.66569543
0.665678
0.6658024
0.6658028
0.66580392
0.66580248
0.66580097
0.66580687
0.66581581
0.6658174
0.6658236
0.6658213
0.66582439
0.66582121
0.66581271
0.6658112
0.66580416
0.66579999
0.66579857
0.66578471
0.66577177
0.66576697
0.66575424
0.66574006
0.66573123
0.66571767
0.66570493
0.66569265
0.66567712
0.66580218
0.66580258
0.66580043
0.66579704
0.66579852
0.66579785
0.6658026
0.66580665
0.66580481
0.66580628
0.6658006
0.66579524
0.66579774
0.66579031
0.66578146
0.66577995
0.6657753
0.6657659
0.66576153
0.66575074
0.66573886
0.66573021
0.66571662
0.66570469
0.66569284
0.66568067
0.66579758
0.66580023
0.66579687
0.66579589
0.66579364
0.66578772
0.66579177
0.66578536
0.66578411
0.66578897
0.66578581
0.66578036
0.66578363
0.66577955
0.66577169
0.66577328
0.66576131
0.66574983
0.66574701
0.66573632
0.66572764
0.66572081
0.66571073
0.66570299
0.66569394
0.66568539
0.66579357
0.66579355
0.66579353
0.66579414
0.66578924
0.66578596
0.66578692
0.66577505
0.66577104
0.66577514
0.66576635
0.6657653
0.66577077
0.66576573
0.66576342
0.6657607
0.66574886
0.66574454
0.66574032
0.66573254
0.66572776
0.66572146
0.66571461
0.66570858
0.66570119
0.66569394
0.66579044
0.66579142
0.66579007
0.66578594
0.66578626
0.66578223
0.66577386
0.66577369
0.66576912
0.66575885
0.6657575
0.66575687
0.66575058
0.66574855
0.66574444
0.66573792
0.66573375
0.66572846
0.66572296
0.66571905
0.66571499
0.6657107
0.66570641
0.66570182
0.66569691
0.66578542
0.66578464
0.66578353
0.66578263
0.66578415
0.66578034
0.66577712
0.66577687
0.6657703
0.66576369
0.66576307
0.66576059
0.66575307
0.66574809
0.66574175
0.66573457
0.66572943
0.66572415
0.66571898
0.66571421
0.665709
0.66570447
0.66569999
0.66569556
0.66569128
0.66578077
0.66578049
0.66577999
0.66577904
0.66577829
0.66577563
0.66577388
0.66577351
0.66576969
0.66576682
0.6657654
0.66576011
0.66575472
0.66575209
0.66574688
0.66574221
0.66573755
0.66573278
0.6657286
0.66572427
0.66571993
0.66571539
0.66571067
0.66570601
0.66570144
0.66577414
0.66577378
0.66577203
0.66577123
0.66576946
0.6657676
0.66576663
0.66576444
0.66576262
0.66576026
0.66575564
0.66575264
0.66574987
0.66574646
0.66574318
0.66574004
0.66573707
0.66573397
0.66573077
0.66572774
0.66572464
0.66572158
0.66571852
0.66571554
0.66577084
0.66576903
0.66576692
0.6657659
0.6657632
0.66576094
0.66575834
0.66575631
0.66575547
0.66575204
0.66574852
0.66574576
0.66574253
0.66573924
0.66573599
0.66573329
0.66573072
0.66572844
0.66572657
0.66572469
0.665723
0.66572141
0.6657198
0.66571818
0.66576773
0.66576611
0.66576358
0.66576138
0.6657587
0.66575635
0.6657541
0.66575043
0.66574622
0.66574376
0.66574061
0.66573747
0.66573412
0.66573134
0.66572821
0.66572499
0.66572269
0.66572048
0.66571859
0.66571702
0.66571568
0.66571441
0.66571309
0.66576473
0.66576194
0.66576023
0.66575655
0.66575332
0.66575085
0.66574709
0.66574364
0.66574021
0.66573802
0.66573574
0.66573237
0.66572983
0.66572771
0.66572544
0.66572276
0.66571942
0.66571614
0.66571435
0.66571442
0.66571241
0.66571019
0.66576935
0.66576707
0.66576378
0.66575987
0.6657575
0.66575462
0.66575185
0.66574895
0.66574674
0.66574519
0.66574147
0.6657384
0.6657374
0.66573404
0.66573103
0.66572973
0.66572755
0.66572492
0.66572334
0.66572134
0.66571912
0.66571746
0.66576202
0.66575929
0.66575617
0.66575358
0.66575045
0.6657473
0.66574435
0.66574169
0.66573807
0.665734
0.66573286
0.66573148
0.66572798
0.66572525
0.66572317
0.66572085
0.66571895
0.66571743
0.66571576
0.6657142
0.66571299
0.6657666
0.66576401
0.66576084
0.66575754
0.66575481
0.66575224
0.66574946
0.66574662
0.66574385
0.66574133
0.66573909
0.66573669
0.66573461
0.66573301
0.66573122
0.6657293
0.66572762
0.66572601
0.66572411
0.66572237
0.66575603
0.6657528
0.66575013
0.66574726
0.66574426
0.66574176
0.66573952
0.6657372
0.66573492
0.66573275
0.66573047
0.6657282
0.66572623
0.66572443
0.66572255
0.66572072
0.66571888
0.66571703
0.66571564
0.66576126
0.66575979
0.66575812
0.66575629
0.66575436
0.66575225
0.66575002
0.66574791
0.66574596
0.66574426
0.66574275
0.66574138
0.66574023
0.66573928
0.66573817
0.66573667
0.66573521
0.66574096
0.66573977
0.66573848
0.66573702
0.66573538
0.66573371
0.66573213
0.66573047
0.66572865
0.66572697
0.66572539
0.66572365
0.66572191
0.66572037
0.6657193
0.66571877
0.66574399
0.66574361
0.66574329
0.66574273
0.6657419
0.66574106
0.66574062
0.66574086
0.66574111
0.66574152
0.66574146
0.66574041
0.66573914
0.665738
0.66576599
0.66576641
0.66576662
0.66576679
0.66576693
0.6657666
0.66576591
0.66576512
0.66576407
0.66576271
0.66576151
0.66576037
)
;

boundaryField
{
    Side
    {
        type            empty;
    }
    Inlet
    {
        type            calculated;
        value           nonuniform List<scalar> 
32
(
0.66573862
0.66573858
0.66573833
0.66573807
0.66573798
0.66573797
0.66573803
0.66573819
0.66573845
0.66573872
0.66573901
0.66573935
0.66573971
0.66574007
0.66574038
0.66574068
0.66574098
0.66574124
0.66574141
0.66574153
0.66574091
0.66574068
0.66574054
0.66574048
0.66574051
0.66574066
0.66574084
0.66574103
0.66574119
0.66574131
0.66574142
0.66574152
)
;
    }
    Airfoil
    {
        type            calculated;
        value           nonuniform List<scalar> 0();
    }
    Outlet
    {
        type            calculated;
        value           nonuniform List<scalar> 0();
    }
    procBoundary2to1
    {
        type            processor;
        value           nonuniform List<scalar> 
75
(
0.66573279
0.66575113
0.66570769
0.66570769
0.66571213
0.66571213
0.66570069
0.66570069
0.66570238
0.66570238
0.66570366
0.66570366
0.66570545
0.66570545
0.66569761
0.66569761
0.66569047
0.66569047
0.66569051
0.66569051
0.66568299
0.66568299
0.66566453
0.66566453
0.66565463
0.66565901
0.66565901
0.66565788
0.66565788
0.66564343
0.66564343
0.66562095
0.66563768
0.66563768
0.66561362
0.66561362
0.66562024
0.66562024
0.66562531
0.66563765
0.66563765
0.66563924
0.66563924
0.66568094
0.66592015
0.66673744
0.66688567
0.66685709
0.66679324
0.66677478
0.66677453
0.66677453
0.66699359
0.66688603
0.66680789
0.66665501
0.66653263
0.66650253
0.66641034
0.66641034
0.66629952
0.66619494
0.66612964
0.66612964
0.66599122
0.66596781
0.66593202
0.66593202
0.66577571
0.66573131
0.66570807
0.66570807
0.66568252
0.66566999
0.66566999
)
;
    }
    procBoundary2to3
    {
        type            processor;
        value           nonuniform List<scalar> 
65
(
0.66529771
0.66525164
0.66538505
0.66556359
0.66569271
0.66576728
0.66580565
0.6658226
0.66582846
0.66582823
0.66583714
0.66583714
0.66583262
0.66582799
0.66582368
0.66582014
0.66581758
0.66581642
0.66581718
0.66581897
0.66581998
0.6658186
0.66581589
0.66581244
0.66580912
0.66581467
0.66581467
0.66580868
0.66580504
0.66580382
0.66580342
0.66579901
0.66579851
0.66579851
0.66579387
0.66579054
0.66578984
0.66578984
0.66578591
0.66577991
0.66577428
0.66577428
0.66577027
0.66576898
0.66576898
0.66576815
0.66576815
0.66577249
0.66576444
0.66576444
0.66577031
0.66577031
0.66575866
0.66575866
0.66576385
0.6657625
0.6657625
0.66574213
0.66574213
0.66574451
0.66574432
0.66574432
0.6657651
0.66576547
0.66576547
)
;
    }
    procBoundary2to9
    {
        type            processor;
        value           nonuniform List<scalar> 
23
(
0.66541942
0.66540594
0.66540021
0.66540089
0.66540396
0.66541023
0.66541073
0.66540331
0.66539458
0.66538978
0.66539085
0.66538696
0.66538462
0.66538686
0.66539236
0.66539925
0.66542944
0.6654605
0.66545585
0.66551943
0.66560665
0.6656244
0.66562608
)
;
    }
    procBoundary2to10
    {
        type            processor;
        value           uniform 0.66542962;
    }
}


// ************************************************************************* //
