/*--------------------------------*- C++ -*----------------------------------*\
| =========                 |                                                 |
| \\      /  F ield         | OpenFOAM: The Open Source CFD Toolbox           |
|  \\    /   O peration     | Version:  2506                                  |
|   \\  /    A nd           | Website:  www.openfoam.com                      |
|    \\/     M anipulation  |                                                 |
\*---------------------------------------------------------------------------*/
FoamFile
{
    version     2.0;
    format      ascii;
    arch        "LSB;label=32;scalar=64";
    class       volScalarField;
    location    "0.45";
    object      alphat;
}
// * * * * * * * * * * * * * * * * * * * * * * * * * * * * * * * * * * * * * //

dimensions      [1 -1 -1 0 0 0 0];

internalField   nonuniform List<scalar> 
1376
(
0.0020076163
0.0075119127
0.014572734
0.016060723
0.040635307
0.028925245
0.043011664
0.051890033
0.055912157
0.061704584
0.077928918
0.046403873
0.076805674
0.07321235
0.12689801
0.12849253
0.12925629
0.12938274
0.12910389
0.12859988
0.12808635
0.12766337
0.12732632
0.12708948
0.12690981
0.12676149
0.12665789
0.0017950158
0.010288768
0.016252727
0.030253617
0.029738028
0.053577077
0.056596269
0.060886537
0.068280105
0.076840592
0.084380761
0.076303322
0.10740861
0.06069603
0.11243963
0.12862984
0.12925512
0.12931213
0.12902863
0.12848087
0.12800082
0.12760927
0.12729733
0.12708105
0.126907
0.12676335
0.12666755
0.12660485
0.12656976
0.001726455
0.010243879
0.018246087
0.027801916
0.045988274
0.035431423
0.042263056
0.047052788
0.049294567
0.052817667
0.066652544
0.050420569
0.063945603
0.12512151
0.12730823
0.12866367
0.12922117
0.12923378
0.12890086
0.12842183
0.12794762
0.12757669
0.12728139
0.12708648
0.12691275
0.12677297
0.12668143
0.12662135
0.12658767
0.12655796
0.0016423423
0.01009434
0.018206475
0.031681547
0.032463988
0.057474086
0.058078708
0.070634103
0.075066128
0.087467401
0.086977007
0.11151889
0.10506216
0.085934262
0.11183883
0.12873707
0.12920026
0.12915834
0.1288183
0.12835469
0.1278916
0.12753804
0.12726121
0.12708521
0.12691642
0.12678028
0.12669386
0.12663757
0.12660397
0.12657486
0.12655162
0.0015763604
0.010122551
0.019212563
0.032424224
0.046483046
0.05329869
0.049307837
0.056721511
0.051793911
0.061186209
0.065679875
0.061171786
0.064737674
0.11740366
0.11883691
0.12867739
0.12908191
0.12908802
0.12872707
0.12828982
0.12785056
0.12750519
0.12723917
0.12707928
0.12691919
0.12678681
0.12670427
0.12665251
0.1266192
0.12659133
0.1265719
0.12655662
0.12654817
0.0015198801
0.0099696728
0.019115722
0.032078634
0.038137795
0.056382862
0.053680975
0.069444276
0.064807532
0.082364696
0.083664907
0.10477235
0.099697572
0.098039037
0.11832612
0.12859226
0.1289997
0.12899755
0.12865905
0.12822492
0.12781215
0.12747145
0.12721592
0.12706811
0.1269142
0.12678994
0.12671255
0.12666503
0.12663293
0.12660806
0.12659207
0.12657823
0.12657061
0.12656115
0.0014680303
0.010008139
0.019699668
0.032242237
0.045940883
0.055871508
0.050864674
0.067766836
0.055829769
0.065504026
0.064883004
0.073123609
0.070392734
0.10172233
0.10242772
0.12572879
0.12890561
0.12891297
0.12859146
0.12815053
0.12776052
0.12743238
0.12719157
0.12705359
0.12690363
0.12678839
0.12671879
0.12667666
0.12664605
0.12662518
0.1266121
0.12659972
0.12659276
0.12658467
0.12657882
0.001423008
0.0098869199
0.019709704
0.031977289
0.042035399
0.055399147
0.052641109
0.073070877
0.065507365
0.073280381
0.073985044
0.095067223
0.0941458
0.10393531
0.11164639
0.12842419
0.12878923
0.12882595
0.12852212
0.12808712
0.12771338
0.12739689
0.12716742
0.12703984
0.12689379
0.12678605
0.12672445
0.12668935
0.12666029
0.12664293
0.12663173
0.12662116
0.12661458
0.12660806
0.12660313
0.12660118
0.001371513
0.01003773
0.020701688
0.032573488
0.043173552
0.055343772
0.049457239
0.069699624
0.059781889
0.073094031
0.067509079
0.084686293
0.085004858
0.092203831
0.090966786
0.11829983
0.12869611
0.12874108
0.12844314
0.12802563
0.12766456
0.12735787
0.12714087
0.1270261
0.12688677
0.12678532
0.12673074
0.1267019
0.12667566
0.12666135
0.12665031
0.12664202
0.12663593
0.12663109
0.12662752
0.1266272
0.0013246993
0.0099551998
0.021243142
0.033422252
0.03667504
0.055640426
0.051674117
0.065505976
0.061165684
0.077860799
0.071843815
0.09612457
0.10779171
0.1023378
0.089980298
0.10953848
0.12861649
0.12866065
0.128355
0.12795565
0.1276143
0.12732841
0.12711915
0.12701623
0.12688457
0.12678939
0.1267411
0.12671462
0.126691
0.12668075
0.1266683
0.12666218
0.12665695
0.12665395
0.12665195
0.12665345
0.12666013
0.0012756146
0.010185508
0.02276944
0.035370783
0.039592369
0.057106409
0.050933966
0.075293828
0.056886973
0.069436827
0.061014644
0.073686975
0.078543316
0.11966947
0.10402207
0.099297246
0.12847916
0.12858108
0.12828664
0.12790538
0.12757087
0.12730351
0.12710518
0.12700988
0.12688313
0.12679469
0.12675456
0.12672805
0.12670537
0.12670013
0.1266864
0.12668187
0.12667779
0.1266768
0.12667652
0.12667998
0.12668759
0.12670031
0.001228912
0.0091998493
0.023528876
0.035616943
0.041613919
0.058698862
0.04716235
0.082475008
0.057907937
0.070874561
0.06222745
0.071104924
0.063664809
0.09095567
0.12656676
0.11652805
0.11823707
0.12848787
0.12821288
0.12786123
0.12752773
0.12727768
0.1270955
0.12700132
0.12688201
0.1267993
0.12676683
0.12674155
0.12671983
0.12671845
0.12670481
0.12670168
0.12669875
0.12669964
0.12670124
0.12670676
0.12671551
0.12672996
0.12675245
0.0011915085
0.0077568687
0.024779951
0.027859693
0.034956109
0.056026218
0.038174787
0.073176128
0.053518213
0.076875577
0.057541267
0.089867039
0.061489084
0.069608513
0.092493731
0.12794844
0.12377043
0.12841024
0.12813605
0.12781603
0.12749683
0.12725661
0.12709025
0.12698981
0.12688192
0.12680582
0.12677732
0.12675252
0.12673519
0.12673597
0.12672339
0.1267218
0.12672016
0.12672242
0.12672599
0.12673366
0.12674377
0.12675998
0.12678407
0.12681447
0.0012090134
0.0097348945
0.01540448
0.019740876
0.053606082
0.06224117
0.040463295
0.054398436
0.045585561
0.068764957
0.051563117
0.07122684
0.083573697
0.081583968
0.078382349
0.11386785
0.1281679
0.12836747
0.12807106
0.12776114
0.1274658
0.12724106
0.12708661
0.12697528
0.12688164
0.12681417
0.12678855
0.12676069
0.1267501
0.1267532
0.12674249
0.12674205
0.12674223
0.12674527
0.12675072
0.12676062
0.12677244
0.12679039
0.1268161
0.12684825
0.12689048
0.001099658
0.010321267
0.025679021
0.034360387
0.031182071
0.063199055
0.038373475
0.063372531
0.044368384
0.066275878
0.050954423
0.06611898
0.058747484
0.12538339
0.094570508
0.10301067
0.12811382
0.12824535
0.1280012
0.12770867
0.1274359
0.1272287
0.12707994
0.12696688
0.12688294
0.12682417
0.12680145
0.126771
0.12676414
0.12676995
0.1267626
0.12676262
0.12676484
0.12676852
0.12677562
0.12678764
0.1268016
0.12682136
0.12684868
0.12688269
0.12692642
0.12698404
0.0010966549
0.010176008
0.023713421
0.038284957
0.030979112
0.042575466
0.037752482
0.061881071
0.048321466
0.070787577
0.058715716
0.082997809
0.060495592
0.092619543
0.097458527
0.123192
0.11878144
0.12817933
0.12792339
0.1276577
0.12741129
0.12721556
0.12706736
0.12696698
0.12688714
0.12683629
0.12681325
0.12678671
0.126779
0.12678594
0.12678323
0.12678383
0.12678773
0.12679218
0.12680087
0.1268147
0.12683116
0.12685292
0.12688187
0.12691776
0.12696314
0.12702207
0.12709459
0.0010361024
0.010165018
0.026072682
0.037925855
0.039881949
0.060800036
0.035609778
0.053230362
0.045296315
0.073799055
0.054245852
0.07517784
0.087574097
0.069436364
0.081091917
0.12201715
0.11853503
0.12811051
0.12783793
0.12760874
0.1273875
0.12719752
0.1270486
0.12697245
0.12689264
0.12685078
0.12682308
0.12680569
0.12679632
0.12680256
0.12680355
0.12680567
0.12681086
0.12681616
0.12682659
0.12684198
0.12686099
0.12688491
0.12691569
0.12695332
0.12700057
0.12706095
0.12713445
0.127224
0.00097081125
0.010023356
0.025058384
0.036138229
0.032158795
0.062940153
0.035213835
0.053566844
0.04235221
0.052881776
0.053154518
0.048051385
0.067113463
0.067634106
0.079574056
0.086552439
0.12115189
0.12805177
0.127801
0.12758477
0.12736517
0.12717802
0.1270299
0.12697377
0.12689866
0.12686552
0.12683467
0.12682366
0.12681554
0.12682173
0.12682341
0.12682808
0.12683419
0.12684069
0.12685281
0.12686983
0.12689121
0.12691723
0.12695021
0.12698959
0.12703873
0.12710048
0.12717524
0.1272656
0.12736929
0.00093518111
0.010106941
0.026138678
0.036659062
0.02488614
0.038444408
0.035530319
0.042078133
0.042531858
0.050609206
0.056977607
0.062167745
0.05042027
0.088259692
0.10301024
0.090750801
0.10394465
0.12800649
0.12774727
0.1275678
0.12733954
0.12716654
0.12702749
0.12696447
0.12690211
0.12687672
0.12685139
0.12683935
0.1268349
0.12684338
0.12684334
0.12685113
0.12685761
0.12686607
0.12687956
0.1268983
0.12692212
0.12694999
0.12698546
0.12702686
0.12707774
0.12714069
0.12721671
0.1273081
0.12741278
0.12755259
0.00087315283
0.0096747054
0.025549628
0.033741779
0.0358464
0.047547857
0.033853924
0.036438643
0.036276104
0.052779212
0.051629851
0.083069882
0.067916901
0.065735291
0.09725454
0.11061226
0.12058658
0.12650607
0.12770768
0.12754809
0.12729887
0.12714787
0.12704629
0.12695679
0.12690389
0.12688331
0.12687053
0.12685501
0.12685458
0.12686611
0.12686338
0.12687472
0.12688121
0.12689225
0.126907
0.12692728
0.12695371
0.12698348
0.1270213
0.12706499
0.12711752
0.12718165
0.127259
0.12735173
0.12745747
0.12759914
0.12780717
0.00084561995
0.0082727098
0.021524288
0.035656139
0.025715587
0.044697908
0.034914304
0.048690779
0.035517967
0.04370111
0.044879716
0.043417223
0.069740397
0.063563593
0.082573099
0.09758276
0.12773573
0.1278905
0.12766709
0.12753532
0.12728121
0.12711873
0.12704649
0.12696367
0.12691112
0.12689509
0.12688581
0.12686929
0.12687459
0.12688941
0.12688414
0.12689814
0.12690516
0.12691896
0.12693525
0.1269569
0.12698566
0.12701782
0.1270578
0.12710356
0.12715803
0.12722356
0.12730218
0.12739644
0.1275031
0.12764711
0.12786053
0.12824374
0.12882909
0.0008056364
0.0077269351
0.016565696
0.029342125
0.026205514
0.029666075
0.032267405
0.038586059
0.044033786
0.054330062
0.052681917
0.042517108
0.060913873
0.062100662
0.097361158
0.090019536
0.099221379
0.12780932
0.12761375
0.10519656
0.12729415
0.12714049
0.12702097
0.12696703
0.12691791
0.12691534
0.12690256
0.12688193
0.12689057
0.12691205
0.12690694
0.12692137
0.1269294
0.12694598
0.12696403
0.12698744
0.12701797
0.12705275
0.12709509
0.12714285
0.12719914
0.12726639
0.12734663
0.12744176
0.1275497
0.12769721
0.12791628
0.12830833
0.12891042
0.00076616007
0.0082270306
0.018520588
0.035397833
0.028029668
0.038734737
0.028258893
0.035611148
0.039121599
0.036031296
0.056039312
0.085845089
0.076919919
0.079055279
0.072361017
0.079608754
0.11326591
0.12772549
0.12756204
0.12744074
0.1272948
0.12717737
0.127007
0.1269694
0.12691997
0.12692647
0.1269238
0.12690162
0.12690412
0.1269287
0.12693101
0.12694515
0.12695418
0.12697323
0.12699286
0.1270186
0.12705093
0.1270883
0.12713297
0.12718311
0.12724105
0.12731028
0.12739163
0.12748754
0.12759797
0.12774946
0.12797372
0.1283767
0.12900148
0.00074297621
0.0059025274
0.014637377
0.028976451
0.021397627
0.034657128
0.027675894
0.031762139
0.033014465
0.030896961
0.036696798
0.045774261
0.049959014
0.067744083
0.073310676
0.095313995
0.12762151
0.07846018
0.12753331
0.12736477
0.12727373
0.12717049
0.12702147
0.12697481
0.12693215
0.12692922
0.126939
0.1269247
0.12692441
0.12694556
0.12695253
0.12696712
0.12697959
0.12700115
0.12702201
0.12705033
0.12708464
0.12712482
0.1271714
0.12722417
0.12728433
0.127355
0.12743704
0.1275352
0.12764925
0.12780393
0.1280337
0.12845168
0.12908971
0.00068433263
0.010093258
0.017560537
0.031910525
0.019879509
0.021608509
0.029365276
0.040441784
0.036491622
0.044940714
0.043840833
0.042459151
0.08323124
0.063071025
0.10770673
0.116585
0.067137773
0.12772113
0.11323036
0.12737545
0.12282601
0.12712129
0.12702325
0.12697366
0.12695288
0.12693073
0.12694534
0.12694152
0.12694879
0.12696605
0.12697429
0.1269897
0.12700528
0.12702988
0.12705253
0.12708319
0.12711923
0.12716241
0.12721064
0.12726581
0.12732857
0.12740084
0.12748483
0.12758473
0.12770111
0.12786049
0.12809697
0.12852197
0.12918062
0.0006733204
0.010586822
0.017770239
0.021008702
0.020765282
0.028664313
0.027167472
0.031856498
0.034475341
0.044261914
0.058236107
0.043938392
0.065114156
0.074007229
0.061476143
0.079557877
0.11777194
0.12767475
0.094077659
0.12735121
0.12715236
0.12705979
0.12700424
0.12697147
0.12696534
0.12695053
0.12695817
0.12695847
0.12697089
0.12699154
0.12699812
0.12701502
0.12703219
0.12705768
0.12708443
0.12711755
0.12715495
0.12720079
0.12725124
0.12730827
0.12737379
0.12744813
0.12753386
0.1276355
0.12775471
0.12792018
0.12816439
0.12859893
0.12927867
0.00062609011
0.01123056
0.018338391
0.030875495
0.017815999
0.02701212
0.027529906
0.022408783
0.028999487
0.027164566
0.051691907
0.042359874
0.036667988
0.046107247
0.063450416
0.078323007
0.12763158
0.074743336
0.12748661
0.12737334
0.12719584
0.12709054
0.12702161
0.1269994
0.12698488
0.12697946
0.12698219
0.12698204
0.12699248
0.12701829
0.12702519
0.1270433
0.12706123
0.12708683
0.12711548
0.12715189
0.12719155
0.12723992
0.12729365
0.12735197
0.12741974
0.12749647
0.1275841
0.12768765
0.12781107
0.1279832
0.12823558
0.12867736
0.12938112
0.00062866844
0.011359696
0.012571147
0.028589646
0.02191143
0.024992755
0.023693029
0.023702496
0.037938274
0.026400316
0.044733415
0.04004716
0.068655918
0.061333427
0.087579992
0.073137554
0.069118646
0.11130568
0.12517168
0.12359457
0.12720239
0.12710382
0.12703997
0.12701995
0.12700327
0.12700139
0.12700466
0.12700349
0.12701537
0.12704315
0.12705202
0.12707142
0.12709023
0.12711769
0.12714971
0.12718778
0.12722956
0.12727986
0.12733634
0.12739742
0.12746667
0.12754548
0.12763575
0.12774195
0.12787019
0.12804988
0.12831119
0.12876236
0.12949369
0.00060200075
0.01178417
0.011877566
0.01588196
0.015393807
0.018089155
0.024171699
0.02656138
0.046143912
0.034342653
0.05328449
0.04846533
0.056991952
0.083472897
0.05827111
0.085033609
0.08657077
0.12764703
0.11400768
0.12727486
0.12713176
0.12704741
0.1270243
0.12701466
0.12700432
0.12701421
0.12702631
0.12702346
0.12704048
0.12706463
0.12707947
0.12710145
0.12712168
0.12714994
0.12718498
0.12722493
0.127269
0.12732171
0.12737952
0.12744381
0.12751523
0.12759556
0.12768925
0.12779876
0.12793219
0.12812073
0.12839085
0.12885335
0.12961884
0.0005748904
0.012501268
0.009502612
0.01458082
0.013904847
0.013527283
0.028345821
0.025157091
0.047935644
0.027379731
0.035715377
0.042228531
0.043460266
0.049314148
0.063688844
0.073324087
0.12768951
0.10631987
0.12747056
0.12727085
0.12714038
0.12706751
0.1270365
0.12702965
0.12702273
0.12702416
0.12704407
0.12704398
0.12705971
0.12708364
0.12710403
0.12712774
0.12715401
0.12718332
0.00054748504
0.012992013
0.013461926
0.013994317
0.021110332
0.01793446
0.02951801
0.014198083
0.033007353
0.022616201
0.034895509
0.034546921
0.049442788
0.054924233
0.077085026
0.071913894
0.076586879
0.11684246
0.12039595
0.12729637
0.12718098
0.00052640704
0.013384584
0.016978138
0.009645314
0.020866601
0.011415407
0.018905397
0.015167614
0.024169341
0.029246559
0.037936286
0.00051835588
0.013240267
0.01003284
0.0098241356
0.00964421
0.009679021
0.0098829194
0.010000445
0.010231322
0.01047202
0.010633953
0.010920586
0.011369932
0.011606301
0.011868238
0.012152868
0.012441965
0.015423537
0.015177258
0.014758265
0.014762156
0.014537079
0.014372517
0.021997083
0.027432005
0.026840741
0.026823854
0.026487961
0.026081845
0.024292903
0.040497325
0.040165951
0.040297251
0.0403736
0.040142052
0.030264628
0.05172742
0.051760748
0.052410747
0.053030448
0.053166581
0.036901898
0.062819351
0.063191007
0.064270603
0.065271806
0.065669704
0.042976634
0.07446439
0.076390879
0.077601419
0.078558246
0.078695258
0.052552344
0.08960629
0.090166195
0.091128684
0.091496449
0.062542289
0.10148263
0.10200287
0.10263441
0.10249853
0.087379412
0.10993983
0.11046562
0.1109266
0.11084017
0.055411255
0.11568229
0.11616061
0.11667192
0.11690109
0.12045865
0.076991862
0.12107981
0.12133632
0.12149824
0.063993201
0.1243496
0.12459519
0.12479968
0.1249572
0.12695998
0.12697965
0.12719527
0.12731959
0.12856681
0.12857722
0.12862106
0.12866142
0.12931542
0.12932349
0.12929696
0.1292917
0.12943323
0.12947093
0.12942346
0.12938308
0.12913133
0.12917022
0.12914172
0.12862308
0.12865192
0.12864973
0.1281016
0.1281175
0.12812238
0.12766368
0.12766166
0.12731918
0.12730921
0.12707506
0.12706186
0.12689758
0.12674817
)
;

boundaryField
{
    Side
    {
        type            empty;
    }
    Inlet
    {
        type            calculated;
        value           nonuniform List<scalar> 9(0.13306402 0.13307234 0.13307663 0.13309077 0.13310496 0.13311538 0.13312439 0.13312892 0.13311739);
    }
    Airfoil
    {
        type            compressible::alphatWallFunction;
        value           nonuniform List<scalar> 
33
(
0.0011339971
0.001121027
0.0011185687
0.0011031203
0.0010927317
0.0010814721
0.0010699421
0.0010618067
0.0010479419
0.0010374977
0.0010191674
0.0010107106
0.0010002294
0.00099617232
0.00097629749
0.00096289291
0.00094024407
0.0009205704
0.00090054419
0.00088467538
0.00086402421
0.00085011115
0.00083117603
0.00081782383
0.00080123504
0.00078628967
0.00077168261
0.00075775129
0.00074395549
0.00073072199
0.00071893682
0.00070840683
0.00069880809
)
;
    }
    Outlet
    {
        type            calculated;
        value           nonuniform List<scalar> 0();
    }
    procBoundary8to1
    {
        type            processor;
        value           nonuniform List<scalar> 8(0.0019928278 0.010587205 0.010327168 0.010175158 0.010175158 0.011448376 0.011031473 0.01056675);
    }
    procBoundary8to7
    {
        type            processor;
        value           nonuniform List<scalar> 
53
(
0.12721988
0.12726249
0.12730966
0.12736509
0.12742486
0.12749082
0.12756518
0.12764759
0.12774494
0.12785801
0.12799609
0.12819364
0.12847352
0.12895273
0.12975659
0.12711559
0.12707465
0.12706016
0.12704898
0.12705161
0.12705528
0.12706444
0.1270845
0.12710856
0.12712882
0.12715631
0.127186
0.12721988
0.12721645
0.054263884
0.051681837
0.073793381
0.058305014
0.096777212
0.1033608
0.12632072
0.1274154
0.12726595
0.12711559
0.12716383
0.0089959948
0.01281332
0.020738878
0.01165906
0.017410047
0.024325501
0.025546473
0.031439399
0.054263884
0.027823081
0.00051316134
0.0089959948
0.0097994267
)
;
    }
    procBoundary8to9
    {
        type            processor;
        value           nonuniform List<scalar> 
75
(
0.12659188
0.1266438
0.12659188
0.1265527
0.1265394
0.1265394
0.12653128
0.12653128
0.12653498
0.12653498
0.1265255
0.12653764
0.12653764
0.12655456
0.12655456
0.12657523
0.12657523
0.12660575
0.1266329
0.1266329
0.12667089
0.12667089
0.12672101
0.12672101
0.12678111
0.12678111
0.12685509
0.12685509
0.12694677
0.12694677
0.12705563
0.12705563
0.12718327
0.12718327
0.1273274
0.1273274
0.12750744
0.12750744
0.12775621
0.12775621
0.12817859
0.12817859
0.12875165
0.010755969
0.012762532
0.014386669
0.025847501
0.040005243
0.053246873
0.065906482
0.078567043
0.091134532
0.091134532
0.10201216
0.1104477
0.11684474
0.1215199
0.12498526
0.12734949
0.12734949
0.12867811
0.12930036
0.12937016
0.12908693
0.12908693
0.12860241
0.12808215
0.12766859
0.12766859
0.12731722
0.12706046
0.12688229
0.12688229
0.12673285
0.1266438
)
;
    }
}


// ************************************************************************* //
