/*--------------------------------*- C++ -*----------------------------------*\
| =========                 |                                                 |
| \\      /  F ield         | OpenFOAM: The Open Source CFD Toolbox           |
|  \\    /   O peration     | Version:  2506                                  |
|   \\  /    A nd           | Website:  www.openfoam.com                      |
|    \\/     M anipulation  |                                                 |
\*---------------------------------------------------------------------------*/
FoamFile
{
    version     2.0;
    format      ascii;
    arch        "LSB;label=32;scalar=64";
    class       volScalarField;
    location    "0.021";
    object      Co;
}
// * * * * * * * * * * * * * * * * * * * * * * * * * * * * * * * * * * * * * //

dimensions      [0 0 0 0 0 0 0];

internalField   nonuniform List<scalar> 
13763
(
0.05581211
0.052965422
0.04906463
0.044766008
0.040651882
0.037200033
0.034727577
0.033183835
0.032310757
0.031802556
0.031397557
0.030925956
0.030321706
0.029592066
0.028777726
0.027930803
0.027089607
0.026269581
0.025476938
0.024717859
0.024002706
0.023347272
0.022772529
0.022302491
0.02196566
0.021782943
0.02180243
0.021984402
0.022465647
0.02296482
0.023811061
0.024829439
0.025203859
0.027253109
0.025825064
0.029145105
0.026937994
0.028206802
0.026388298
0.025929682
0.024369116
0.023223044
0.021796337
0.020507485
0.019248108
0.018075273
0.016985156
0.015977366
0.052884553
0.050197614
0.046509005
0.042441219
0.038546876
0.035279645
0.032940975
0.031483017
0.030660968
0.030184644
0.029805663
0.029362822
0.028793446
0.028104481
0.027334631
0.026533456
0.025737393
0.02496113
0.024210582
0.023491639
0.022814182
0.022193252
0.021648831
0.021203789
0.020885305
0.020713222
0.020733625
0.02090801
0.021368325
0.021843449
0.022652241
0.023620628
0.023981136
0.025932158
0.02457533
0.027737126
0.025636956
0.026846685
0.025116023
0.024681044
0.023195938
0.02210616
0.020748457
0.019522331
0.018323964
0.017207963
0.016170633
0.015211614
0.014327804
0.013513505
0.050089456
0.047555172
0.044069285
0.04022202
0.036537619
0.033446728
0.031235849
0.029859847
0.029086575
0.028640743
0.028286665
0.027871342
0.027335317
0.026685238
0.025957909
0.025200452
0.024447515
0.023713064
0.023002732
0.022322135
0.021680688
0.021092721
0.02057727
0.020156114
0.019855173
0.019693276
0.019714598
0.019881794
0.020322194
0.020774443
0.021547573
0.022468356
0.022815652
0.024673023
0.023384189
0.026395155
0.024397
0.02555043
0.023903553
0.023491123
0.022077971
0.021041865
0.019749947
0.018583619
0.017443408
0.016381582
0.015394567
0.014482035
0.013641039
0.012866163
0.012149755
0.047448075
0.045057138
0.041762094
0.03812268
0.034636286
0.031711747
0.029621372
0.028322554
0.027595092
0.027177785
0.026846962
0.0264574
0.025952695
0.02533921
0.024651952
0.023935728
0.02322349
0.022528515
0.021856166
0.021211796
0.020604378
0.020047563
0.019559486
0.019160889
0.018876492
0.018724158
0.018746241
0.018906503
0.019327871
0.019758286
0.020497414
0.021372857
0.021707488
0.023475669
0.02225146
0.025118849
0.023217683
0.024317439
0.022750219
0.02235914
0.021014393
0.020029278
0.018799903
0.01769042
0.016605505
0.015595193
0.014656024
0.0137877
0.012987424
0.012250042
0.011568282
0.010936036
0.010349563
0.044938462
0.042683345
0.039569341
0.036127205
0.0328288
0.030062207
0.028086228
0.026860639
0.026176588
0.025786268
0.025477433
0.025112256
0.024637236
0.024058469
0.023409249
0.02273218
0.022058598
0.021401126
0.020764867
0.020154923
0.019579845
0.019052637
0.018590577
0.018213416
0.017944732
0.017801469
0.017824245
0.017977876
0.01838109
0.018790698
0.019497411
0.020329668
0.020652202
0.022335375
0.021172746
0.023903325
0.022094566
0.023143136
0.021651805
0.021281016
0.020001424
0.019064849
0.017895037
0.016839682
0.015807427
0.014846171
0.013952568
0.013126347
0.012364849
0.011663178
0.011014414
0.010412746
0.0098546142
0.0093355373
0.0088512445
0.04254963
0.040423613
0.037481812
0.034227387
0.031107878
0.028491594
0.026624469
0.025468542
0.024825764
0.024461081
0.024173134
0.023831133
0.023384348
0.022838616
0.0222256
0.021585804
0.020949025
0.02032726
0.019725365
0.019148204
0.018603923
0.018104912
0.01766763
0.017310885
0.017057166
0.016922541
0.016945973
0.017093289
0.017479204
0.017869002
0.018544829
0.019335964
0.019646968
0.021249113
0.020145213
0.022745419
0.021024749
0.022024517
0.020605522
0.020254038
0.019036533
0.018146188
0.017033124
0.016029329
0.015047238
0.014132714
0.013282517
0.012496402
0.011771845
0.01110419
0.010486858
0.0099143183
0.0093831827
0.0088891953
0.008428293
0.0079971189
0.007591942
0.040287569
0.038283203
0.035503989
0.032426962
0.029476608
0.027002471
0.025238255
0.024148117
0.023544236
0.02320364
0.022935288
0.022615076
0.0221949
0.021680352
0.021101548
0.020497
0.019895037
0.019307064
0.018737699
0.018191579
0.017676464
0.017204158
0.01679034
0.016452921
0.016213354
0.016086872
0.016110861
0.016252109
0.016621509
0.016992417
0.017638805
0.018390779
0.018690756
0.020215707
0.019167693
0.021643756
0.020006904
0.020960143
0.019609972
0.01927679
0.018118346
0.017271948
0.016212864
0.015258108
0.014323736
0.013453666
0.012644763
0.011896803
0.011207392
0.010572102
0.0099846771
0.009439853
0.008934406
0.0084642932
0.0080256495
0.0076152762
0.007229626
0.0068680058
0.0065319607
0.0062144279
0.038140633
0.036251311
0.033626092
0.030717208
0.027927239
0.025587893
0.023921238
0.022893423
0.022326329
0.022008462
0.021758585
0.021458947
0.021063941
0.020578929
0.020032554
0.01946143
0.018892495
0.018336585
0.017798093
0.017281436
0.016794011
0.016347058
0.015955516
0.015636441
0.015410296
0.015291522
0.015315999
0.015451437
0.015805077
0.016157979
0.016776301
0.017490974
0.017780414
0.019231783
0.018237018
0.020594794
0.019037784
0.019946644
0.018662024
0.018346219
0.017244014
0.016439437
0.015431746
0.014523672
0.013634732
0.012806986
0.012037399
0.011325768
0.010669821
0.010065347
0.0095063994
0.0089879661
0.0085069802
0.0080596018
0.0076421539
0.0072515885
0.0068845334
0.0065403525
0.0062205054
0.0059182381
0.005627145
0.0053370373
0.036105725
0.034324951
0.031845306
0.029095508
0.026457359
0.02424562
0.022671298
0.021702409
0.021170029
0.020873545
0.020641028
0.020360758
0.019989503
0.019532406
0.019016711
0.01847723
0.017939572
0.017414037
0.0169048
0.016416069
0.01595489
0.015531973
0.015161548
0.014859855
0.014646417
0.01453492
0.014559807
0.014689669
0.015028262
0.015363995
0.015955557
0.016634699
0.016914063
0.0182953
0.017351245
0.019596335
0.018115345
0.018981874
0.017759661
0.017460339
0.016411663
0.015646861
0.014688081
0.013824428
0.012978726
0.01219126
0.011459092
0.01078204
0.010157945
0.0095828048
0.0090509638
0.0085576524
0.0080999524
0.0076742166
0.0072769471
0.0069052394
0.0065558877
0.0062283105
0.0059238852
0.0056361526
0.005359065
0.0050829023
0.034177481
0.032499091
0.030157015
0.027557697
0.025063217
0.022972249
0.021485287
0.020572097
0.02007246
0.019796083
0.019579869
0.019317826
0.018968974
0.018538252
0.018051573
0.017542036
0.017033991
0.016537223
0.016055699
0.015593429
0.015157125
0.014756988
0.014406574
0.014121349
0.013919938
0.013815306
0.013840531
0.013965043
0.014289269
0.014608634
0.015174685
0.01581999
0.016089717
0.017404119
0.016508352
0.018646104
0.017237486
0.01806364
0.016900833
0.01661714
0.015619406
0.014892427
0.013980188
0.013158796
0.012354236
0.0116051
0.010908541
0.010264395
0.0096706131
0.0091233893
0.0086173471
0.0081479459
0.0077124092
0.0073072732
0.0069292105
0.0065754529
0.0062429533
0.0059311815
0.0056414368
0.0053675409
0.0051037864
0.0048408996
0.032342904
0.030761729
0.028550408
0.026094172
0.023736328
0.021760222
0.020356333
0.019496085
0.019027541
0.018770235
0.018569479
0.018324731
0.017997163
0.017591514
0.017132432
0.016651383
0.016171514
0.01570212
0.015246972
0.014809888
0.014397261
0.014018809
0.013687446
0.013417897
0.013227933
0.013129834
0.013155372
0.013274784
0.013585314
0.013889097
0.01443083
0.015043912
0.015304448
0.016555121
0.015705428
0.017740864
0.016401257
0.017188898
0.016082728
0.015813897
0.014864712
0.014173752
0.013305858
0.012524723
0.011759358
0.011046735
0.010384099
0.0097713012
0.0092063963
0.0086857668
0.0082043013
0.0077576775
0.0073432541
0.0069577419
0.0065979758
0.0062613177
0.0059448714
0.0056481559
0.0053723958
0.0051116809
0.0048606273
0.0046103867
0.030602999
0.029113638
0.027026026
0.024705277
0.022476868
0.020609584
0.019284376
0.018474223
0.018035046
0.017795701
0.017609484
0.017381037
0.017073572
0.016691642
0.016258689
0.015804628
0.015351464
0.014908022
0.014477885
0.014064689
0.013674523
0.013316643
0.013003351
0.012748669
0.012569552
0.012477628
0.012503424
0.01261795
0.012915407
0.013204339
0.013722889
0.014305283
0.014557034
0.015746957
0.014941166
0.016879116
0.015605242
0.016356143
0.015303913
0.015049179
0.014146217
0.01348952
0.012663837
0.011921013
0.011192955
0.010515089
0.0098847431
0.009301785
0.0087643693
0.0082690565
0.0078109873
0.0073860477
0.0069917245
0.0066248949
0.0062825482
0.0059621702
0.0056610082
0.005378628
0.0051161829
0.0048680184
0.004629058
0.0043908589
0.028956233
0.027553285
0.025582375
0.023389579
0.021283476
0.019519033
0.018268154
0.017505271
0.017093729
0.01687122
0.01669861
0.016485455
0.016196906
0.01583734
0.015429057
0.015000496
0.014572576
0.014153677
0.013747201
0.013356608
0.012987702
0.012649294
0.012353106
0.012112487
0.011943619
0.011857506
0.011883489
0.011993318
0.012278285
0.012553056
0.013049496
0.01360266
0.013846001
0.014978021
0.014214033
0.016059115
0.014847814
0.015563658
0.014562766
0.014321384
0.013462403
0.012838274
0.012052749
0.011346365
0.0106538
0.010008999
0.0094093758
0.0088548102
0.0083435511
0.0078723287
0.0074365237
0.0070322197
0.0066570254
0.0063079764
0.0059822086
0.0056773256
0.0053907116
0.0051219765
0.0048722055
0.0046359879
0.0044085397
0.0041818038
0.027394598
0.026073237
0.024212719
0.022141062
0.020150803
0.018483776
0.017303285
0.016585119
0.016199668
0.015993003
0.015833181
0.015634427
0.015363736
0.015025319
0.014640388
0.014235981
0.013831981
0.013436345
0.013052302
0.012683147
0.012334403
0.012014466
0.011734501
0.011507218
0.011348057
0.011267436
0.011293559
0.011398884
0.011671927
0.011933201
0.012408555
0.012933879
0.013169178
0.014245987
0.013521845
0.015278422
0.014126736
0.014809126
0.013857136
0.013628417
0.012811315
0.012218165
0.011470873
0.01079917
0.010140392
0.009527068
0.0089566915
0.0084291558
0.0079427989
0.007494512
0.0070799043
0.0066952475
0.0063382666
0.0060061472
0.0056961653
0.0054060365
0.0051332752
0.0048775333
0.0046398309
0.0044149902
0.0041985046
0.003982685
0.025913681
0.024669347
0.022913254
0.02095629
0.019075757
0.017501011
0.016387175
0.015711313
0.015350492
0.015158737
0.015010932
0.01482574
0.01457191
0.014253491
0.013890665
0.013509136
0.013127803
0.012754218
0.012391445
0.012042619
0.011713
0.011410584
0.011146006
0.010931368
0.010781405
0.010705973
0.010732192
0.010833204
0.01109486
0.011343273
0.01179852
0.012297328
0.012524938
0.013549104
0.012862945
0.014535177
0.01344029
0.014090753
0.013185348
0.012968635
0.012191412
0.01162773
0.010916835
0.010278139
0.0096515235
0.0090681634
0.0085256287
0.0080238251
0.0075611751
0.0071347234
0.0067402967
0.0063743455
0.0060347052
0.0057187048
0.0054237532
0.0051476725
0.0048881014
0.0046447315
0.0044185206
0.0042045133
0.0039984666
0.003793042
0.02450917
0.023337577
0.021680284
0.019831925
0.01805534
0.016568022
0.015517316
0.014881483
0.014543918
0.014366197
0.014229688
0.014057271
0.013819361
0.013519858
0.013177961
0.012818106
0.012458256
0.012105575
0.011762972
0.011433428
0.011121952
0.010836157
0.010586176
0.010383531
0.010242285
0.010171756
0.010198035
0.010294917
0.010545704
0.010781868
0.011217942
0.0116915
0.011911762
0.012885737
0.012235792
0.013827644
0.012786877
0.013406875
0.012545844
0.012340517
0.011601267
0.011065613
0.010389366
0.0097820818
0.0091860802
0.0086312404
0.0081152077
0.0076378984
0.0071978155
0.0067921497
0.0064169344
0.0060687905
0.0057456585
0.0054450035
0.0051643611
0.0049016548
0.0046546415
0.0044230507
0.0042077805
0.0040040879
0.0038079802
0.0036124529
0.02317687
0.022073984
0.020510188
0.018764696
0.017086606
0.015682136
0.014691234
0.014093282
0.013777679
0.01361317
0.01348728
0.013326899
0.013104024
0.012822416
0.012500339
0.012161021
0.011821535
0.011488677
0.011165205
0.010853952
0.010559691
0.01028967
0.01005354
0.0098622711
0.0097292856
0.0096633954
0.0096897004
0.0097826303
0.010023041
0.010247538
0.010665328
0.01111484
0.01132808
0.012254194
0.011638785
0.013154028
0.012164837
0.012755759
0.011937008
0.011742476
0.011039391
0.010530399
0.0098871417
0.009309753
0.0087428953
0.0082152057
0.0077244029
0.0072704125
0.0068518144
0.0064659379
0.0061090131
0.0057778234
0.005470409
0.0051843647
0.0049173464
0.0046673745
0.0044323183
0.0042119432
0.0040070905
0.0038132197
0.0036265759
0.0034404727
0.021914337
0.020876226
0.019400774
0.017752579
0.016167697
0.014841636
0.013907312
0.013345157
0.013050254
0.012898146
0.012782208
0.012633134
0.01242443
0.01215972
0.011856382
0.011536497
0.011216289
0.010902204
0.010596855
0.010302936
0.01002499
0.0097699183
0.0095469157
0.009366425
0.0092412576
0.0091797421
0.0092060343
0.0092951734
0.0095256699
0.0097390504
0.010139397
0.010566004
0.010772525
0.011652992
0.011070513
0.01251273
0.011572686
0.012135848
0.011357375
0.011173073
0.010504426
0.010020789
0.0094089373
0.0088599987
0.0083208827
0.0078190368
0.0073522509
0.0069204593
0.0065223144
0.0061552776
0.0058157662
0.005500718
0.0052082682
0.0049361349
0.0046820887
0.0044442421
0.0042205714
0.004010876
0.0038159427
0.0036314249
0.0034537932
0.0032766645
0.020720809
0.019743521
0.018351258
0.016794802
0.015297861
0.014045788
0.013164828
0.012636383
0.012360909
0.01222038
0.012113707
0.011975198
0.011779787
0.011530973
0.011245291
0.010943734
0.010641719
0.010345359
0.010057129
0.0097795884
0.0095170623
0.0092761223
0.0090655261
0.0088952154
0.0087774196
0.008720008
0.008746234
0.0088317237
0.0090527395
0.0092555183
0.0096392201
0.010044007
0.010244089
0.011081029
0.010529918
0.011902546
0.011009295
0.01154595
0.010805815
0.010631186
0.0099953057
0.0095357592
0.0089537846
0.0084319001
0.0079191731
0.0074419111
0.0069979733
0.0065873014
0.0062086165
0.0058595053
0.0055365635
0.0052368752
0.0049586662
0.0046997716
0.0044580712
0.0042317648
0.0040189307
0.0038194007
0.0036339093
0.0034582949
0.0032892422
0.0031206569
0.019590053
0.018670088
0.017356405
0.015886699
0.014472955
0.013290888
0.012460399
0.0119638
0.011706628
0.011576959
0.011478962
0.011350371
0.011167481
0.01093367
0.010664677
0.010380455
0.010095658
0.0098160793
0.0095440606
0.0092820361
0.0090341205
0.008806571
0.0086077296
0.0084470607
0.0083362387
0.0082826961
0.0083088238
0.0083908151
0.0086027732
0.0087954536
0.0091632776
0.0095472822
0.0097412054
0.010536634
0.010015436
0.011321734
0.01047307
0.010984419
0.010280804
0.010115335
0.0095106549
0.0090740129
0.0085204775
0.0080243336
0.007536722
0.0070828568
0.0066606651
0.0062700948
0.0059099325
0.005577884
0.0052707144
0.0049856474
0.0047209946
0.0044747027
0.004244755
0.0040294349
0.0038269177
0.0036370654
0.003460563
0.0032934257
0.0031325409
0.0029720899
0.018517758
0.017651896
0.016412538
0.015024962
0.013690025
0.012574269
0.011791571
0.011325091
0.011085187
0.010965723
0.010875863
0.0107566
0.010585521
0.010365893
0.010112692
0.009844888
0.0095764048
0.0093127323
0.0090560847
0.0088087744
0.0085747171
0.0083598699
0.0081721786
0.0080206527
0.0079164372
0.0078665499
0.0078925563
0.0079711995
0.0081745058
0.0083575718
0.0087102483
0.0090744599
0.0092624953
0.010018327
0.0095256725
0.010768733
0.0099625763
0.010449762
0.0097809517
0.0096241637
0.0090492025
0.0086343459
0.0081078913
0.0076362463
0.0071725454
0.0067409542
0.0063394656
0.0059680334
0.0056255062
0.0053097031
0.0050175504
0.0047464048
0.0044946596
0.0042603676
0.0040416107
0.0038367515
0.003644058
0.0034634212
0.0032954782
0.0031364132
0.0029833063
0.002830601
0.017503744
0.016688702
0.015519362
0.014209257
0.0129487
0.01189554
0.011157935
0.010719829
0.010496134
0.010386196
0.01030391
0.010193359
0.010033361
0.009827076
0.0095887583
0.0093364431
0.0090833605
0.0088347105
0.0085925867
0.0083591845
0.0081382295
0.0079353927
0.0077582425
0.0076153552
0.0075173711
0.007470914
0.0074967594
0.0075721831
0.0077672139
0.0079411163
0.0082793356
0.0086246903
0.0088070851
0.0095251486
0.009059702
0.010242482
0.0094768153
0.0099409216
0.0093052521
0.0091566722
0.0086099967
0.0082158408
0.0077151545
0.0072668093
0.0068258574
0.0064154577
0.0060336678
0.0056804461
0.0053547
0.0050543565
0.004776495
0.0045185985
0.0042791381
0.0040562673
0.0038481619
0.0036532602
0.003469918
0.0032980537
0.0031382586
0.0029868789
0.0028411766
0.0026958457
0.016543812
0.015776589
0.014673306
0.01343638
0.012246123
0.011252131
0.010557129
0.010145792
0.0099373391
0.0098363094
0.0097610881
0.0096586929
0.0095091102
0.0093153985
0.0090911283
0.0088534455
0.0086149207
0.0083804781
0.0081520951
0.0079318553
0.007723303
0.0075318365
0.0073646642
0.0072299498
0.0071378525
0.007094622
0.0071202772
0.0071926112
0.007379729
0.0075449023
0.0078693228
0.0081967134
0.0083737086
0.0090557416
0.0086162474
0.0097415553
0.0090144753
0.0094565365
0.0088524382
0.0087116249
0.0081918826
0.0078174042
0.0073412469
0.0069150685
0.0064957675
0.0061055356
0.0057424942
0.0054066053
0.0050968321
0.004811204
0.0045469462
0.0043016621
0.0040738963
0.0038618985
0.0036639337
0.0034785119
0.0033040729
0.0031405609
0.0029885235
0.0028444615
0.0027058095
0.0025675003
0.015634945
0.014912731
0.013871788
0.012704002
0.011580203
0.010642147
0.0099874061
0.0096013287
0.0094072124
0.0093145167
0.0092458866
0.0091511267
0.0090113344
0.008829474
0.008618465
0.0083946088
0.0081698486
0.0079488448
0.0077334644
0.0075256837
0.007328874
0.0071481735
0.006990448
0.006863468
0.0067769337
0.0067367398
0.0067621803
0.0068315521
0.0070111047
0.007167967
0.0074792192
0.007789499
0.0079613283
0.0086089909
0.0081942557
0.0092647709
0.0085744666
0.0089954728
0.0084214512
0.0082879871
0.00779389
0.0074381154
0.006985307
0.0065802161
0.0061815195
0.0058104801
0.0054652815
0.0051458888
0.0048513181
0.004579696
0.0043283865
0.0040951074
0.0038784735
0.0036768257
0.0034885138
0.0033121163
0.0031461531
0.0029905925
0.0028459401
0.0027088451
0.0025769054
0.002445281
0.014775965
0.014095984
0.013113715
0.0120111
0.010949984
0.010064694
0.0094479113
0.0090856092
0.0089049324
0.0088199966
0.0087574823
0.0086698371
0.0085392139
0.0083684888
0.0081699641
0.0079591393
0.0077473615
0.0075390401
0.007335936
0.007139923
0.0069542072
0.0067836791
0.0066348778
0.0065151993
0.0064339063
0.0063965567
0.0064217497
0.0064882731
0.0066605856
0.006809529
0.0071082093
0.0074021863
0.0075690659
0.0081839395
0.0077928117
0.0088110899
0.0081558185
0.008556709
0.008011326
0.007884805
0.007415115
0.0070771083
0.006646516
0.006261477
0.0058823819
0.0055296003
0.0052013771
0.0048976796
0.0046175739
0.004359279
0.004120291
0.0038984362
0.0036923963
0.0035005986
0.003321474
0.0031536658
0.0029957701
0.0028477781
0.0027101554
0.0025796929
0.0024541429
0.0023288826
0.01396284
0.013322588
0.012395669
0.011354611
0.010352736
0.0095173158
0.0089363928
0.0085965168
0.0084284709
0.0083507831
0.0082939628
0.008212968
0.0080909554
0.0079307184
0.0077439728
0.0075454558
0.0073459478
0.0071496185
0.0069581271
0.0067732495
0.0065980342
0.0064371352
0.0062967803
0.0061840089
0.006107666
0.0060729905
0.0060979147
0.0061617063
0.0063270926
0.0064684965
0.0067551736
0.0070336184
0.0071957606
0.0077793461
0.0074107484
0.0083792099
0.007757336
0.0081390069
0.0076209123
0.0075009594
0.0070545135
0.006733396
0.0063239547
0.0059579932
0.0055975551
0.0052621507
0.0049500853
0.0046613275
0.0043949911
0.0041493828
0.0039221243
0.0037111454
0.0035151912
0.0033327714
0.0031623936
0.0030027633
0.0028525489
0.0027117635
0.0025808338
0.0024566871
0.0023372213
0.0022180207
0.013194379
0.0125914
0.011716576
0.010733536
0.009787536
0.0089991568
0.0084520418
0.0081332716
0.0079770628
0.0079061176
0.0078545734
0.0077797693
0.0076658163
0.0075154302
0.0073397708
0.0071528521
0.0069649151
0.0067799014
0.0065993729
0.0064250118
0.0062597158
0.0061079141
0.0059755374
0.0058692858
0.005797606
0.0057654343
0.0057900628
0.0058512296
0.0060099858
0.0061442097
0.006419426
0.0066830721
0.0068406768
0.007394411
0.0070473025
0.0079682662
0.007378212
0.007741519
0.0072494103
0.0071356613
0.0067113384
0.0064062637
0.0060169481
0.0056691265
0.0053264372
0.0050075634
0.0047108699
0.0044363261
0.0041830907
0.0039495541
0.003733457
0.0035328276
0.0033464713
0.0031729764
0.0030109231
0.0028590761
0.0027161729
0.0025822469
0.0024576878
0.0023395534
0.0022258791
0.002112447
0.012467757
0.011899774
0.011074013
0.010145695
0.009252427
0.008508446
0.0079932245
0.0076943299
0.0075492212
0.0074845518
0.0074378983
0.0073688599
0.007262455
0.0071213269
0.0069561079
0.0067801247
0.0066031061
0.0064287757
0.0062586025
0.0060941788
0.0059382586
0.0057950563
0.00567022
0.0055701264
0.0055028419
0.0054730166
0.0054973275
0.0055559742
0.0057083831
0.005835771
0.0061000418
0.0063495869
0.0065028465
0.007028094
0.0067014914
0.0075771575
0.007017431
0.007363189
0.0068958337
0.0067879472
0.0063846868
0.0060948546
0.0057246949
0.0053941259
0.0050683256
0.0047651809
0.0044831151
0.004222098
0.0039813307
0.0037592828
0.0035538086
0.00336303
0.0031858094
0.0030208097
0.0028666806
0.0027222428
0.0025862997
0.0024589039
0.0023404095
0.0022279995
0.0021198391
0.0020118991
0.011780832
0.011245694
0.010466129
0.0095894102
0.0087458975
0.0080438101
0.0075586679
0.0072784852
0.0071437807
0.0070849468
0.0070428205
0.0069791461
0.0068798052
0.0067473736
0.0065919827
0.0064263068
0.0062595874
0.0060953406
0.0059349459
0.0057799097
0.0056328491
0.0054977736
0.0053800619
0.0052857827
0.0052226395
0.0051950117
0.0052189844
0.0052752121
0.0054215426
0.0055424235
0.0057962399
0.0060323487
0.0061814477
0.0066795095
0.0063724765
0.0072049414
0.0066741209
0.0070031078
0.0065593316
0.0064569838
0.0060737754
0.0057984243
0.0054464969
0.0051323354
0.0048226055
0.0045344263
0.0042662797
0.0040181346
0.0037892325
0.0035781183
0.0033827543
0.0032013512
0.0030328261
0.0028759125
0.0027293261
0.0025919411
0.0024626236
0.0023414443
0.0022287232
0.0021217634
0.0020188523
0.001916141
0.011131703
0.010627372
0.0098912763
0.0090631853
0.008266594
0.0076040165
0.0071472288
0.0068846515
0.00675969
0.0067062738
0.0066683296
0.0066096374
0.0065168998
0.0063926295
0.0062464833
0.0060905159
0.0059335058
0.0057787704
0.0056276043
0.0054814316
0.0053427382
0.0052153387
0.0051043549
0.0050155623
0.0049563181
0.0049307454
0.00495436
0.0050082649
0.0051487727
0.00526346
0.0055072897
0.0057305945
0.0058757089
0.0063478251
0.0060594683
0.0068507299
0.0063474591
0.0066604171
0.0062390993
0.006141982
0.0057778619
0.0055162661
0.0051816906
0.0048831313
0.0045886915
0.0043147505
0.0040598476
0.0038239506
0.0036063392
0.0034056297
0.0032198871
0.0030474069
0.0028871576
0.0027379402
0.002598533
0.0024678613
0.0023448509
0.0022295892
0.0021223637
0.0020205928
0.0019226789
0.0018249452
0.010518547
0.010043088
0.0093478713
0.0085655828
0.0078132179
0.0071878823
0.0067578081
0.0065117854
0.0063959396
0.0063475449
0.006313455
0.0062593818
0.0061728089
0.0060561907
0.0059187334
0.0057719039
0.0056240405
0.0054782715
0.0053358099
0.0051980008
0.0050672054
0.0049470521
0.0048424179
0.0047587991
0.0047032223
0.0046795688
0.0047028054
0.0047544793
0.0048894068
0.0049981993
0.0052324868
0.005443589
0.0055848866
0.0060322386
0.005761706
0.006513667
0.0060366524
0.0063342889
0.0059343604
0.0058421808
0.0054962301
0.0052476984
0.0049296361
0.0046459116
0.0043660189
0.004105623
0.0038633204
0.0036390773
0.0034322094
0.0032414008
0.0030648142
0.0029008256
0.0027484526
0.0026065601
0.0024739861
0.0023497043
0.0022326974
0.0021230689
0.0020210745
0.0019242437
0.001831087
0.0017380921
0.0099394483
0.0094910446
0.008834264
0.0080951105
0.0073844241
0.0067941863
0.0063892762
0.006158817
0.0060514966
0.0060077515
0.0059772088
0.005927413
0.0058465912
0.0057371439
0.0056078503
0.0054696191
0.0053303704
0.0051930519
0.0050587984
0.0049288797
0.0048055375
0.0046922231
0.0045935801
0.0045148391
0.0044627106
0.0044408482
0.0044636889
0.0045132206
0.0046427988
0.0047459822
0.0049711516
0.0051706244
0.0053082667
0.0057319809
0.0054784615
0.0061929352
0.005740945
0.006023936
0.005644378
0.0055568591
0.0052282025
0.0049920776
0.0046897299
0.00442011
0.0041540567
0.0039065462
0.0036762315
0.0034630764
0.0032664308
0.0030850434
0.0029171696
0.0027612618
0.0026163846
0.0024814634
0.0023553929
0.0022371928
0.0021259005
0.002021634
0.0019246188
0.0018324911
0.0017438628
0.0016553791
0.0093931619
0.008970063
0.0083493592
0.0076507639
0.006979296
0.0064220863
0.0060408453
0.0058249941
0.0057256301
0.0056861751
0.0056588812
0.0056130313
0.0055375596
0.0054348168
0.0053131779
0.0051830225
0.0050518732
0.0049225058
0.0047959801
0.0046734936
0.0045571742
0.0044503044
0.0043573053
0.0042831547
0.0042342614
0.0042140641
0.0042364884
0.0042839604
0.0044084072
0.0045062524
0.0047227069
0.0049110948
0.0050452342
0.0054463853
0.0052090996
0.005887817
0.0054596686
0.0057286585
0.0053684933
0.0052853682
0.0049731662
0.0047488182
0.0044614204
0.0042052058
0.0039523149
0.0037170583
0.0034981455
0.0032955373
0.0031086158
0.002936191
0.0027766062
0.0026283869
0.0024906418
0.002362354
0.0022424721
0.0021300597
0.002024206
0.0019250426
0.0018327661
0.0017451154
0.0016607973
0.0015766075
0.0088774148
0.008478017
0.0078912155
0.0072307976
0.0065962705
0.0060701707
0.005711215
0.0055090898
0.005417159
0.0053816661
0.0053573499
0.0053151428
0.0052446526
0.0051481845
0.0050337301
0.0049111668
0.0047876399
0.0046657605
0.0045465168
0.0044310373
0.0043213413
0.0042205498
0.0041328725
0.0040630461
0.0040171912
0.0039985445
0.0040205368
0.0040660315
0.0041855553
0.004278323
0.0044864464
0.0046642683
0.0047950529
0.0051746624
0.0049528761
0.0055974801
0.005192057
0.0054476613
0.0051059649
0.0050269857
0.0047304452
0.0045172803
0.0042441098
0.0040006398
0.0037602713
0.0035366717
0.0033286065
0.0031360331
0.0029583643
0.0027944677
0.0026427709
0.0025018683
0.0023709108
0.0022489363
0.0021349445
0.0020280409
0.001927364
0.0018330584
0.0017452925
0.0016619042
0.0015816892
0.0015015871
0.0083904791
0.008013287
0.0074583483
0.0068338688
0.0062341386
0.0057373429
0.0053993711
0.0052101435
0.0051251563
0.0050933194
0.0050717277
0.00503288
0.0049670256
0.0048764281
0.0047687157
0.0046532891
0.0045369347
0.0044221069
0.0043097251
0.0042008514
0.0040974014
0.0040023428
0.0039196832
0.00385393
0.0038109283
0.003793725
0.0038152717
0.003858869
0.0039736686
0.0040616083
0.0042617664
0.0044295169
0.004557089
0.0049161304
0.0047091457
0.0053212004
0.0049374407
0.0051802481
0.0048561418
0.0047810747
0.0044994416
0.0042968962
0.0040372665
0.0038059133
0.0035774588
0.0033649486
0.0031672041
0.0029841788
0.0028153141
0.0026595329
0.0025153424
0.002381403
0.0022569054
0.0021409397
0.0020325541
0.0019308939
0.0018351449
0.0017454633
0.0016619909
0.0015826608
0.0015063516
0.001430141
0.007931315
0.0075748919
0.0070498459
0.0064591414
0.0058921361
0.0054228993
0.005104655
0.0049275269
0.0048490114
0.0048205347
0.0048014222
0.0047656587
0.0047041045
0.0046189855
0.0045175857
0.0044088544
0.0042992369
0.0041910376
0.0040851102
0.0039824537
0.0038848844
0.0037952237
0.0037172867
0.0036553628
0.0036150338
0.0035991681
0.0036202532
0.0036620278
0.0037722904
0.0038556389
0.0040481795
0.0042063289
0.0043308233
0.0046702255
0.0044773713
0.005058371
0.0046952543
0.0049258263
0.0046184652
0.004547085
0.004279635
0.0040871688
0.0038404213
0.0036205835
0.0034034603
0.0032014961
0.0030135678
0.0028396245
0.0026791348
0.002531074
0.0023940249
0.0022667105
0.0021483596
0.0020381114
0.0019350606
0.0018383902
0.0017473312
0.0016620506
0.0015826643
0.0015071973
0.0014346057
0.0013620993
0.0074981841
0.0071612067
0.0066642227
0.0061052759
0.0055690592
0.0051257498
0.0048260601
0.004660288
0.0045878062
0.0045624166
0.0045455568
0.0045126222
0.0044550559
0.0043750499
0.0042795621
0.0041771133
0.004073825
0.0039718582
0.0038720039
0.0037752003
0.0036831692
0.0035985925
0.0035251018
0.003466779
0.0034289538
0.0034143281
0.0034349382
0.0034749631
0.003580867
0.0036598513
0.0038451056
0.0039941014
0.0041156482
0.004436295
0.0042569359
0.0048083002
0.0044648593
0.0046837324
0.0043923155
0.0043244114
0.004070458
0.0038875601
0.0036530708
0.0034441786
0.0032378345
0.0030459011
0.0028673106
0.0027020075
0.002549486
0.0024087707
0.0022785167
0.0021575066
0.0020450049
0.0019401981
0.0018422244
0.0017503031
0.0016637083
0.0015826166
0.0015071195
0.0014353305
0.0013662775
0.0012972972
0.0070899259
0.0067711468
0.0063004804
0.0057713639
0.0052640842
0.0048451414
0.0045628864
0.0044077622
0.0043408978
0.004318336
0.0043035135
0.0042731642
0.0042192873
0.0041440443
0.0040540844
0.0039575227
0.0038601728
0.0037640591
0.0036699123
0.0035786123
0.0034917908
0.0034119969
0.0033426873
0.0032877463
0.0032522628
0.0032387828
0.003258904
0.0032972485
0.0033989633
0.0034737998
0.0036520836
0.0037923526
0.0039110762
0.0042138115
0.004047339
0.0045704241
0.0042457321
0.0044534198
0.0041771789
0.0041125493
0.0038714349
0.0036976166
0.0034747885
0.003276297
0.0030802039
0.0028978088
0.002728099
0.0025710137
0.0024260712
0.0022923434
0.0021685537
0.0020535411
0.0019466047
0.0018469752
0.0017538325
0.0016664303
0.0015840839
0.0015069788
0.0014351827
0.0013668948
0.0013012097
0.0012355856
0.0067051573
0.0064034244
0.0059574404
0.0054563397
0.0049762502
0.004580201
0.0043143253
0.0041691836
0.0041075467
0.0040875703
0.0040745833
0.0040465906
0.0039961218
0.0039253115
0.003840517
0.0037494686
0.0036576879
0.0035670684
0.003478283
0.0033921562
0.0033102334
0.003234937
0.0031695573
0.0031177906
0.0030844954
0.003072072
0.0030916916
0.0031284225
0.0032261086
0.0032970043
0.0034686181
0.0036005664
0.0037165861
0.0040022133
0.0038480483
0.0043441448
0.004037319
0.004234312