/*--------------------------------*- C++ -*----------------------------------*\
| =========                 |                                                 |
| \\      /  F ield         | OpenFOAM: The Open Source CFD Toolbox           |
|  \\    /   O peration     | Version:  2506                                  |
|   \\  /    A nd           | Website:  www.openfoam.com                      |
|    \\/     M anipulation  |                                                 |
\*---------------------------------------------------------------------------*/
FoamFile
{
    version     2.0;
    format      ascii;
    arch        "LSB;label=32;scalar=64";
    class       volScalarField;
    location    "0.95";
    object      nut;
}
// * * * * * * * * * * * * * * * * * * * * * * * * * * * * * * * * * * * * * //

dimensions      [0 2 -1 0 0 0 0];

internalField   nonuniform List<scalar> 
1375
(
0.071345982
0.091177368
0.11179941
0.057684104
0.072147854
0.092198247
0.11290429
0.13197005
0.14806781
0.16067612
0.16985979
0.17604257
0.058369837
0.073166274
0.093475993
0.11426934
0.13325679
0.149161
0.16151556
0.17043175
0.17637132
0.1800126
0.18207528
0.18281729
0.18296654
0.18283862
0.18265302
0.059165389
0.074374366
0.094996545
0.11589781
0.13479505
0.15046906
0.16251975
0.17111662
0.17677083
0.18019854
0.18207237
0.1827163
0.1828169
0.18267808
0.18250685
0.18239745
0.18222281
0.18206509
0.18198461
0.060004164
0.07568415
0.096664938
0.11770259
0.13651534
0.15194112
0.16365318
0.17189112
0.17722689
0.18041971
0.18207841
0.18261949
0.18266958
0.18252097
0.18236632
0.18225747
0.18206882
0.18193178
0.18186106
0.1818197
0.18179837
0.18179152
0.18179495
0.060818835
0.076990987
0.098354728
0.11954972
0.13829096
0.15346862
0.16483105
0.17269487
0.17769901
0.18064794
0.18208223
0.18252018
0.18252141
0.18236578
0.18222798
0.1821088
0.18191663
0.18179998
0.18173793
0.18170161
0.18168371
0.18167914
0.18168406
0.18169557
0.18171175
0.18173148
0.18175437
0.061562857
0.078205225
0.099948535
0.12130636
0.13998677
0.1549283
0.16595263
0.17345369
0.17813635
0.18084888
0.18206987
0.18241108
0.18236966
0.1822107
0.18208789
0.18195174
0.18176645
0.18166806
0.18161412
0.18158313
0.18156889
0.18156675
0.18157325
0.18158578
0.18160256
0.18162248
0.18164513
0.18167052
0.18169893
0.18173081
0.062218898
0.079269025
0.10135989
0.12287085
0.14149765
0.15622308
0.16693792
0.17410836
0.17849864
0.18099642
0.18203087
0.18228824
0.18221369
0.18205468
0.18194491
0.18178923
0.18161861
0.18153578
0.18148947
0.18146394
0.18145354
0.18145399
0.18146216
0.18147579
0.1814933
0.18151365
0.18153633
0.18156132
0.18158896
0.18161968
0.18165414
0.18169342
0.18173866
0.062796018
0.080168138
0.10255444
0.12419778
0.1427754
0.15730872
0.16775128
0.17463337
0.17876966
0.18108119
0.18196225
0.18215159
0.18205363
0.18189942
0.18179843
0.18162462
0.18147335
0.18140334
0.18136412
0.181344
0.18133754
0.1813407
0.18135067
0.1813655
0.18138387
0.18140487
0.18142799
0.18145313
0.18148043
0.18151018
0.18154326
0.18158072
0.18162368
0.18167367
0.18173265
0.063318261
0.080930947
0.10355739
0.12530756
0.1438368
0.15819948
0.16840477
0.17503852
0.17895758
0.18111008
0.18186843
0.18200451
0.18189179
0.18174785
0.18164854
0.18146037
0.18133078
0.18127124
0.18123856
0.1812236
0.18122105
0.18122704
0.181239
0.1812552
0.18127455
0.18129636
0.18132016
0.18134562
0.18137267
0.18140179
0.18143383
0.18146973
0.18151068
0.18155799
0.18161363
0.1816804
0.18176085
0.18185673
0.063809553
0.081608776
0.1044337
0.12626715
0.14474432
0.15894972
0.16894239
0.17535683
0.17908582
0.18109997
0.18175819
0.18185232
0.18173179
0.18160086
0.18149416
0.18130079
0.18119124
0.18114007
0.18111314
0.18110289
0.18110406
0.18111293
0.18112708
0.18114488
0.18116533
0.18118789
0.18121223
0.18123807
0.18126546
0.18129467
0.18132609
0.1813607
0.1813997
0.18144437
0.1814967
0.18155947
0.18163574
0.181728
0.18183778
0.18196589
0.064283725
0.082249644
0.10525242
0.12715205
0.14556983
0.15962181
0.16941395
0.17562464
0.17918136
0.18106776
0.18164041
0.18170006
0.18157607
0.18145765
0.18133723
0.1811473
0.18105468
0.18101022
0.18098822
0.18098208
0.18098668
0.18099831
0.18101457
0.181034
0.18105579
0.1810794
0.18110451
0.18113104
0.18115892
0.18118825
0.18121934
0.18125311
0.18129044
0.18133281
0.18138206
0.1814409
0.18151272
0.18160075
0.18170711
0.18183296
0.1819797
0.18214972
0.064744259
0.082883881
0.10606273
0.12801903
0.1463683
0.16026292
0.16985599
0.1758681
0.17926289
0.18102488
0.18152092
0.18155073
0.18142519
0.18131703
0.18117969
0.18099968
0.18092085
0.18088192
0.1808641
0.18086144
0.18086897
0.18088315
0.18090163
0.18092292
0.18094616
0.18097087
0.18099688
0.18102411
0.18105264
0.18108251
0.18111382
0.18114702
0.18118317
0.18122363
0.18127011
0.18132523
0.18139245
0.18147559
0.18157766
0.18170045
0.18184542
0.1820149
0.18221337
0.065188516
0.0835184
0.1068805
0.12888975
0.14716262
0.16089317
0.17028375
0.17609812
0.17933712
0.18097535
0.18140154
0.18140505
0.18127851
0.18117818
0.18102326
0.18085743
0.18078963
0.18075546
0.18074129
0.18074158
0.18075162
0.18076802
0.1807885
0.18081155
0.18083629
0.18086231
0.18088945
0.18091769
0.18094709
0.18097759
0.18100936
0.1810425
0.18107789
0.18111685
0.18116102
0.18121283
0.18127562
0.18135349
0.18145045
0.18156924
0.18171166
0.18188011
0.18207923
0.18231853
0.18261118
0.065616436
0.084150478
0.10770409
0.12976516
0.14795531
0.16151483
0.17069832
0.176315
0.17940265
0.1809184
0.18128141
0.18126204
0.1811342
0.18104059
0.18086876
0.18071972
0.18066089
0.18063102
0.18062014
0.18062298
0.18063512
0.18065335
0.1806755
0.18070012
0.18072635
0.18075377
0.1807822
0.18081161
0.18084205
0.18087348
0.1809058
0.18093927
0.18097456
0.18101255
0.1810548
0.18110382
0.18116263
0.18123537
0.18132655
0.18144009
0.1815787
0.18174528
0.18194491
0.18218652
0.1824822
0.18282545
0.066035034
0.084778987
0.108528
0.13063957
0.14874181
0.16212412
0.17109635
0.17651575
0.1794558
0.18085205
0.18115861
0.18111946
0.18099322
0.18090268
0.18071645
0.18058582
0.18053432
0.18050843
0.18050062
0.18050574
0.18051963
0.18053935
0.18056289
0.18058892
0.18061659
0.18064543
0.18067522
0.18070589
0.18073745
0.18076989
0.18080317
0.18083735
0.18087267
0.18091001
0.18095119
0.1809981
0.18105337
0.18112103
0.18120605
0.18131342
0.1814471
0.1816109
0.18181019
0.18205388
0.18235248
0.18269562
0.1829377
0.0664597
0.08541572
0.10935883
0.13151668
0.14952438
0.16272241
0.17147864
0.17670058
0.17949562
0.18077579
0.18103204
0.18097674
0.18085558
0.18076235
0.18056697
0.18045491
0.18040948
0.18038731
0.18038238
0.18038963
0.18040515
0.18042622
0.18045103
0.18047833
0.18050733
0.18053753
0.18056863
0.18060048
0.18063311
0.18066654
0.18070076
0.18073573
0.18077163
0.18080923
0.18084978
0.18089497
0.18094736
0.1810108
0.18108992
0.18119039
0.18131774
0.18147713
0.18167481
0.18191981
0.18222101
0.1825636
0.18279129
0.18175269
0.16864819
0.066909188
0.086081006
0.11021114
0.13240648
0.15031039
0.16331556
0.17185002
0.1768732
0.17952449
0.18069111
0.18090219
0.18083436
0.18072039
0.18061828
0.18042121
0.18032621
0.18028592
0.18026727
0.18026508
0.18027443
0.18029157
0.18031398
0.18033998
0.18036847
0.18039866
0.18043007
0.18046237
0.18049539
0.18052909
0.18056354
0.18059874
0.1806347
0.18067157
0.18070981
0.18075037
0.18079466
0.18084475
0.180904
0.18097726
0.18107078
0.18119102
0.18134456
0.1815389
0.18178375
0.18208675
0.18242839
0.1826413
0.18149824
0.16820488
0.067401178
0.08679873
0.11110511
0.13332374
0.15111023
0.1639113
0.17221675
0.17703869
0.17954637
0.18060081
0.1807707
0.18069315
0.18058665
0.18047101
0.18027936
0.18019915
0.18016336
0.18014803
0.18014844
0.18015979
0.18017852
0.18020226
0.18022945
0.18025906
0.18029041
0.18032299
0.18035644
0.18039058
0.18042538
0.1804609
0.18049721
0.1805343
0.18057225
0.18061136
0.18065214
0.18069577
0.1807443
0.18080038
0.18086852
0.18095523
0.18106761
0.18121358
0.1814027
0.18164566
0.1819491
0.18228972
0.18248816
0.18124064
0.16804745
0.067947511
0.087583466
0.11205091
0.13427354
0.15192589
0.1645107
0.1725804
0.17719923
0.17956379
0.18050757
0.18063947
0.18055393
0.18045387
0.18032192
0.18014134
0.18007345
0.1800417
0.18002948
0.1800323
0.18004552
0.18006576
0.18009078
0.18011912
0.18014982
0.18018226
0.18021595
0.18025057
0.18028591
0.18032193
0.18035866
0.18039617
0.18043447
0.18047355
0.18051355
0.18055493
0.18059866
0.18064601
0.18069938
0.18076328
0.18084325
0.18094741
0.18108504
0.1812672
0.1815062
0.18180868
0.18214782
0.18233277
0.18097109
0.16729326
0.068552234
0.088438345
0.113049
0.13525257
0.15275168
0.16510805
0.17293693
0.17735277
0.17957636
0.18041276
0.18050983
0.18041722
0.18032209
0.18017289
0.1800071
0.17994911
0.17992102
0.17991164
0.17991662
0.17993151
0.17995311
0.1799793
0.18000869
0.18004042
0.1800739
0.18010871
0.18014452
0.18018116
0.18021853
0.18025663
0.18029548
0.1803351
0.18037544
0.18041647
0.18045855
0.18050244
0.18054927
0.18060097
0.18066089
0.18073509
0.18083172
0.18096021
0.18113372
0.18136652
0.1816664
0.18200333
0.18217519
0.18068499
0.16592359
0.069209023
0.089351472
0.11408594
0.13624665
0.15357399
0.16569187
0.17327805
0.17749409
0.17958138
0.18031631
0.18038217
0.18028312
0.18019156
0.18002572
0.17987668
0.17982648
0.17980165
0.17979478
0.17980157
0.17981781
0.17984051
0.17986765
0.17989795
0.1799306
0.17996505
0.18000094
0.18003797
0.18007597
0.18011481
0.18015443
0.1801948
0.18023589
0.18027762
0.18031995
0.18036303
0.18040741
0.18045408
0.18050464
0.18056192
0.18063143
0.18072047
0.18083963
0.18100347
0.18122844
0.18152382
0.18185707
0.18201438
0.18038962
0.16526248
0.069900946
0.090301934
0.11514379
0.13724075
0.15438007
0.16625179
0.17359606
0.17761798
0.17957569
0.18021745
0.18025619
0.18015108
0.18006282
0.17988175
0.17975011
0.17970594
0.17968396
0.17967925
0.17968749
0.17970469
0.17972812
0.17975592
0.17978688
0.17982025
0.17985553
0.17989241
0.17993063
0.17996999
0.18001037
0.18005163
0.18009364
0.18013635
0.18017966
0.18022349
0.18026795
0.18031339
0.18036049
0.18041048
0.18046575
0.18053097
0.18061356
0.18072447
0.18087821
0.18109364
0.18138238
0.18170994
0.18184927
0.18008798
0.16495163
0.070601844
0.091262343
0.11620225
0.13822193
0.1551621
0.16678295
0.17388761
0.17772198
0.17955765
0.18011527
0.18013073
0.18002242
0.17993501
0.17974162
0.17962721
0.17958767
0.17956816
0.17956524
0.17957456
0.17959238
0.17961616
0.17964427
0.17967559
0.17970943
0.17974535
0.17978305
0.17982232
0.17986298
0.17990485
0.17994777
0.17999154
0.18003602
0.1800811
0.18012672
0.18017289
0.18021978
0.18026783
0.18031791
0.18037201
0.18043404
0.18051128
0.18061443
0.18075868
0.18096428
0.1812441
0.18156263
0.18167944
0.17977407
0.16482603
0.071281021
0.092204306
0.11724321
0.13918221
0.15591912
0.16728779
0.17415585
0.17780847
0.17952869
0.18001003
0.18000562
0.17989739
0.17980677
0.17960582
0.17950752
0.17947156
0.17945412
0.17945267
0.17946277
0.17948088
0.17950472
0.17953279
0.17956418
0.17959826
0.1796346
0.17967293
0.17971305
0.17975481
0.17979802
0.17984251
0.17988806
0.17993444
0.17998149
0.18002907
0.18007712
0.18012575
0.18017526
0.18022623
0.18028018
0.18034035
0.18041334
0.1805096
0.18064541
0.18084105
0.18111045
0.18141649
0.18150535
0.17942591
0.16386925
0.071908635
0.093102366
0.11825148
0.14011668
0.15665347
0.16777219
0.17440704
0.17788246
0.17949237
0.17990348
0.17988199
0.17977586
0.1796776
0.17947471
0.17939044
0.17935722
0.17934156
0.17934123
0.17935181
0.17936998
0.17939364
0.17942146
0.17945264
0.17948668
0.17952321
0.17956198
0.17960276
0.17964539
0.17968973
0.17973562
0.1797828
0.17983105
0.17988016
0.1799299
0.17998014
0.18003086
0.18008225
0.18013479
0.18018945
0.18024884
0.18031876
0.18040968
0.18053797
0.18072396
0.1809822
0.18127288
0.18132701
0.17902876
0.16191921
0.072459318
0.093934937
0.11921327
0.14101959
0.15736594
0.16824067
0.17464667
0.17794871
0.17945218
0.17979759
0.1797609
0.17965738
0.1795483
0.17934822
0.17927586
0.17924473
0.17923039
0.17923075
0.17924148
0.17925943
0.17928267
0.17931003
0.17934079
0.17937457
0.17941108
0.17945005
0.17949129
0.17953461
0.17957986
0.1796269
0.17967557
0.17972564
0.17977681
0.17982886
0.17988156
0.17993473
0.17998843
0.18004294
0.18009895
0.18015861
0.1802269
0.18031384
0.18043558
0.18061291
0.1808593
0.1811321
0.18114372
0.17860518
0.1609229
0.072915969
0.094685726
0.12011547
0.1418824
0.15805271
0.16869319
0.17487662
0.17800952
0.17940992
0.17969351
0.17964275
0.17954147
0.17941948
0.17922618
0.17916374
0.17913421
0.17912088
0.17912157
0.17913203
0.17914939
0.17917187
0.17919845
0.17922854
0.1792618
0.17929798
0.17933692
0.17937842
0.17942227
0.17946829
0.17951634
0.1795663
0.179618
0.17967123
0.17972568
0.179781
0.17983691
0.17989321
0.17995
0.18000787
0.18006858
0.18013651
0.18022092
0.18033771
0.18050731
0.18074188
0.18099442
0.18095536
0.17818056
0.16103693
0.073275862
0.095344918
0.12094391
0.14269047
0.15870147
0.169121
0.17509199
0.17806233
0.17936458
0.17959091
0.17952709
0.17942739
0.17929138
0.17910829
0.17905398
0.17902578
0.17901324
0.17901399
0.17902392
0.17904035
0.1790617
0.17908709
0.17911607
0.17914837
0.17918387
0.17922243
0.17926387
0.179308
0.17935462
0.17940357
0.1794547
0.17950793
0.17956312
0.17961996
0.17967805
0.1797369
0.1797961
0.1798555
0.17991555
0.1799779
0.18004654
0.18012989
0.18024337
0.1804068
0.18063021
0.18086067
0.18076509
0.17774561
0.16081586
0.16950874
0.17528159
0.17810283
0.17931134
0.17948798
0.17941274
0.17931424
0.17916413
0.17899414
0.17894638
0.1789194
0.17890759
0.17890826
0.17891748
0.17893275
0.17895272
0.17897662
0.17900408
0.17903491
0.17906908
0.17910659
0.17914746
0.17919152
0.17923852
0.17928823
0.1793405
0.17939521
0.17945228
0.17951144
0.17957225
0.17963413
0.17969647
0.17975885
0.1798215
0.17988592
0.17995599
0.18003971
0.18015172
0.18031084
0.18052412
0.18073259
0.18057741
0.17726716
0.15903187
0.17929807
0.17920101
0.17903772
0.17888315
0.17884064
0.17881492
0.17880388
0.17880444
0.17881289
0.17882694
0.17884537
0.17886753
0.17889313
0.17892208
0.17895442
0.1789903
0.17902984
0.17907303
0.17911982
0.17916997
0.17922322
0.17927937
0.17933828
0.17939975
0.17946331
0.1795282
0.17959374
0.17965935
0.17972502
0.17979211
0.17986438
0.17994958
0.18006171
0.18021836
0.18042343
0.18061098
0.18039266
0.17674692
0.15741799
0.17871205
0.1787018
0.17870228
0.17870997
0.17872281
0.17873965
0.17875996
0.17878354
0.17881036
0.17884054
0.17887429
0.17891181
0.17895337
0.17899906
0.1790488
0.17910248
0.17915979
0.17922044
0.17928424
0.17935051
0.17941848
0.17948729
0.17955625
0.17962527
0.17969553
0.17977068
0.17985845
0.17997221
0.18012807
0.1803274
0.18049555
0.18020901
0.17621108
0.15766776
0.17863528
0.17865377
0.17867529
0.17869987
0.17872766
0.1787589
0.178794
0.17883329
0.17887706
0.17892556
0.17897879
0.17903651
0.17909849
0.17916421
0.17923301
0.17930409
0.1793763
0.1794488
0.17952142
0.17959527
0.17967392
0.1797651
0.17988169
0.18003862
0.18023441
0.18038504
0.1800267
0.17566483
0.15732269
0.17864478
0.17867728
0.17871395
0.1787552
0.17880143
0.17885305
0.17891013
0.17897236
0.17903934
0.17911043
0.1791844
0.17925997
0.17933622
0.1794127
0.17949045
0.17957322
0.17966869
0.17978924
0.17994866
0.18014215
0.18027746
0.17984615
0.1750933
0.15551858
0.17867751
0.17872662
0.17878173
0.17884302
0.17891018
0.17898251
0.17905875
0.17913756
0.17921758
0.17929833
0.17938075
0.17946839
0.17956894
0.17969444
0.17985694
0.18004849
0.18016904
0.17966066
0.17449491
0.15493619
0.17877782
0.17885005
0.17892768
0.179009
0.17909276
0.17917822
0.17926604
0.17935952
0.17946595
0.17959679
0.17976272
0.17995249
0.18005658
0.17946255
0.17382311
0.15341157
0.17887532
0.17896249
0.17905256
0.17914603
0.17924611
0.17935943
0.17949681
0.17966693
0.17985403
0.1799385
0.17924305
0.17303817
0.15389453
0.17902091
0.17912826
0.17924974
0.17939489
0.17956991
0.17975358
0.17981399
0.1790016
0.1721913
0.15254144
0.17929061
0.17947107
0.17965086
0.17968264
0.17873614
0.17127594
0.15153143
0.17954505
0.17954455
0.17844357
0.17032258
0.15218217
0.16930742
0.1507764
)
;

boundaryField
{
    Side
    {
        type            empty;
    }
    Inlet
    {
        type            calculated;
        value           nonuniform List<scalar> 
25
(
0.19975827
0.19975539
0.19975609
0.19976943
0.19979752
0.19983059
0.19987186
0.19992551
0.1999765
0.2000193
0.20006251
0.20010681
0.20014579
0.20017581
0.20019899
0.20022163
0.20024503
0.20025449
0.20024906
0.20023747
0.20023763
0.20023527
0.20022093
0.20018892
0.20016605
)
;
    }
    Airfoil
    {
        type            nutkWallFunction;
        blending        stepwise;
        value           nonuniform List<scalar> 0();
    }
    Outlet
    {
        type            calculated;
        value           nonuniform List<scalar> 0();
    }
    procBoundary5to4
    {
        type            processor;
        value           nonuniform List<scalar> 
64
(
0.070705614
0.090333976
0.110862
0.13091744
0.13091744
0.1471651
0.15997735
0.16938081
0.17576899
0.179872
0.179872
0.18209178
0.18292508
0.18312002
0.18300296
0.18280598
0.18253368
0.18253368
0.18237613
0.18220185
0.18210983
0.18193822
0.18193822
0.18191343
0.18190421
0.1819061
0.18180551
0.18180551
0.1818212
0.18184092
0.18186434
0.18178049
0.18178049
0.18181007
0.18184348
0.18176684
0.18176684
0.18180799
0.18185543
0.18179131
0.18179131
0.1818535
0.18180325
0.18180325
0.18188742
0.18198621
0.18196905
0.18196905
0.18209866
0.182114
0.182114
0.18228434
0.18234738
0.18234738
0.18245024
0.18245024
0.18273992
0.18295373
0.18295373
0.18308017
0.18308017
0.18200037
0.18200037
0.16971974
)
;
    }
    procBoundary5to6
    {
        type            processor;
        value           nonuniform List<scalar> 
61
(
0.073549312
0.095908255
0.12168317
0.14342339
0.15929242
0.15929242
0.16984304
0.17543544
0.17812406
0.17924595
0.17938238
0.17938238
0.17918175
0.17908696
0.17891218
0.17877481
0.17873647
0.17873647
0.17861034
0.17860089
0.17860131
0.17860829
0.17861995
0.17861995
0.17853191
0.17854868
0.1785682
0.17859058
0.17861599
0.17861599
0.17853205
0.17856185
0.17859562
0.17863394
0.17863394
0.17855446
0.17860041
0.17865274
0.17871186
0.17871186
0.17864383
0.17871462
0.17879212
0.17879212
0.17873761
0.17882694
0.17892138
0.17892138
0.17889077
0.17900583
0.17913648
0.17913648
0.17918244
0.17936948
0.17936948
0.17943446
0.17939938
0.17812615
0.17812615
0.16834809
0.1502074
)
;
    }
    procBoundary5to12
    {
        type            processor;
        value           nonuniform List<scalar> 
30
(
0.057911229
0.058482869
0.059106023
0.059749512
0.060382954
0.060991867
0.061580786
0.062165728
0.06275953
0.063362975
0.063966375
0.064557094
0.065128099
0.06568295
0.066232377
0.066786404
0.06734797
0.067913955
0.068478347
0.069037686
0.06959252
0.070146517
0.070700335
0.071248143
0.071775754
0.072264803
0.072698563
0.073071183
0.05714108
0.05714108
)
;
    }
}


// ************************************************************************* //
