/*--------------------------------*- C++ -*----------------------------------*\
| =========                 |                                                 |
| \\      /  F ield         | OpenFOAM: The Open Source CFD Toolbox           |
|  \\    /   O peration     | Version:  2506                                  |
|   \\  /    A nd           | Website:  www.openfoam.com                      |
|    \\/     M anipulation  |                                                 |
\*---------------------------------------------------------------------------*/
FoamFile
{
    version     2.0;
    format      ascii;
    arch        "LSB;label=32;scalar=64";
    class       volScalarField;
    location    "0.00049";
    object      Ma;
}
// * * * * * * * * * * * * * * * * * * * * * * * * * * * * * * * * * * * * * //

dimensions      [0 0 0 0 0 0 0];

internalField   nonuniform List<scalar> 
3474
(
3.3806622
7.3534237
8.7430897
8.5623113
8.4390557
8.326843
8.2692512
8.1449591
7.8069837
7.4258415
7.1824974
7.0468424
6.9879428
7.0472387
7.0701329
6.9981073
6.8311927
6.6747618
6.5643378
6.4266481
6.1719723
5.9354551
5.7163141
5.5781925
5.4868486
5.3911969
5.2568966
5.1252459
4.9377133
4.751547
4.5525634
4.3622424
4.1103913
3.9148532
3.7003224
3.4606503
3.2663044
3.1050724
2.9290328
2.8092959
2.7810475
2.7556268
2.579802
2.2579053
2.0271552
1.9562809
1.9467008
1.8830103
1.8099241
1.808481
1.7878818
1.7532541
1.7503049
1.6491775
1.5191936
2.7856432
5.7972809
7.3448248
7.4222505
7.3633198
7.3236491
7.3281294
7.2766831
7.1976676
7.0091124
6.8406387
6.7115612
6.6240204
6.5427928
6.5021185
6.4363229
6.3281874
6.2384914
6.1703364
6.0869095
5.9406716
5.7546514
5.5969771
5.4701216
5.2612546
5.1487816
5.0583192
4.9487954
4.825077
4.6700976
4.4901784
4.3755257
4.1894173
3.990848
3.7745852
3.6241844
3.5431625
3.416608
3.284775
3.1737283
3.0779955
2.8510905
2.558463
2.4003963
2.3277862
2.253977
2.1713582
2.0874247
2.0122101
1.9601198
1.9380305
1.9311663
1.8655781
1.5486119
1.7330832
2.3914588
4.9246066
6.4947592
6.7371136
6.7452668
6.7217448
6.7146049
6.6775231
6.6440156
6.5730815
6.5145605
6.430844
6.368546
6.2753671
6.1988023
6.0790396
5.980075
5.9095034
5.857382
5.8021606
5.7362555
5.6163612
5.4585987
5.3544516
5.2174657
5.1288394
5.0561101
4.9668587
4.8662401
4.7791998
4.6392488
4.5105742
4.367343
4.1997602
4.0061648
3.8602048
3.7277346
3.578042
3.4526547
3.3395331
3.1758715
2.9811111
2.866904
2.7998336
2.6842908
2.5487133
2.4389854
2.3077466
2.2432319
2.214884
2.2150087
2.1414665
1.8406811
1.7868063
1.9760053
2.0875967
4.5034484
6.0849829
6.3978675
6.4022112
6.3866041
6.3557105
6.3271497
6.2985038
6.2665662
6.2338253
6.1838634
6.1330543
6.045941
5.9765239
5.8910865
5.8440495
5.7952515
5.7568996
5.7036839
5.6238338
5.4990286
5.3833278
5.3130521
5.2120465
5.1683481
5.1105625
5.0732864
4.9905884
4.9264756
4.8499577
4.7502103
4.5978336
4.4239057
4.2351536
4.0501195
3.8859024
3.7557863
3.6517182
3.541236
3.4064926
3.2871163
3.1881759
3.0470653
2.8962739
2.7742606
2.6551595
2.5741652
2.5601692
2.565239
2.4843203
2.2319214
1.9046424
2.1167272
2.2190558
2.2026705
1.9360249
4.4874938
6.0695217
6.370043
6.3753899
6.3628156
6.3248624
6.2945846
6.2626646
6.2323298
6.1917998
6.1494812
6.09615
6.022883
5.9646303
5.902182
5.8755667
5.8326465
5.8053365
5.7430527
5.6556983
5.5310835
5.4269348
5.3504523
5.2661928
5.2434042
5.1471401
5.094861
5.0329818
4.997331
4.938686
4.894298
4.765948
4.5979104
4.4197948
4.2529542
4.1086361
3.9443399
3.7774857
3.6551701
3.5588981
3.4650831
3.3596764
3.2334022
3.1396173
3.0599472
2.9809749
2.9504918
2.9144201
2.7714739
2.5495473
2.0856763
2.2190331
2.4554967
2.497936
2.3717856
1.7655815
4.447034
6.0252416
6.3022969
6.3078032
6.2961439
6.2655412
6.2362885
6.1943709
6.1451158
6.0832891
6.0385982
5.9787698
5.9260049
5.8741065
5.8274556
5.7903151
5.7610956
5.7359766
5.6704611
5.5808875
5.4559963
5.3908232
5.3478313
5.2938262
5.2763456
5.1880883
5.1231048
5.033663
5.0061966
5.002195
4.9766357
4.9018306
4.7627089
4.6069928
4.4511958
4.2507318
4.0720482
3.930837
3.8309849
3.7531146
3.6774513
3.5862772
3.4900174
3.4153377
3.3379594
3.2473836
3.1486566
3.0036253
2.7698128
2.3161398
2.3776491
2.7033431
2.8015627
2.6646348
2.5032672
1.6096626
4.3422197
5.9418877
6.207976
6.188074
6.1568742
6.1031078
6.0515933
5.9889673
5.9388873
5.8910149
5.8524152
5.8151339
5.7841748
5.7506432
5.7250096
5.6863811
5.6580201
5.6088612
5.529408
5.4320984
5.3588668
5.3286033
5.2981093
5.2668844
5.2359597
5.1528749
5.1001669
5.0563042
5.0526787
5.0946435
5.0716421
5.0210034
4.9500758
4.8362966
4.6889571
4.5117267
4.3038633
4.1367269
4.0161003
3.9150836
3.8282836
3.7342133
3.6433183
3.5622035
3.476576
3.3547342
3.209026
2.967736
2.5892699
2.6593318
2.9903869
3.0598676
2.8580311
2.782431
2.8501881
2.8460462
1.4827862
4.150744
5.7757259
6.0408223
5.9962538
5.96552
5.9157119
5.8885896
5.8500501
5.8276964
5.7988644
5.7769499
5.7507026
5.7367341
5.7105011
5.6764
5.6213221
5.5677442
5.48717
5.4201393
5.3784929
5.3558299
5.3262489
5.3083976
5.288382
5.2426393
5.1486287
5.062885
5.02104
5.0798398
5.0870744
5.0748423
5.0393716
5.0054358
4.952212
4.8379937
4.6765435
4.4537617
4.2626691
4.1315968
4.0511958
3.9636564
3.8658306
3.7686009
3.6900481
3.6024366
3.4512539
3.1760818
2.9401216
3.0401828
3.2235192
3.1727585
2.9958593
3.0764254
3.1963796
3.1133684
2.9233596
1.4743693
3.9402341
5.5269891
5.8134057
5.7997198
5.7829979
5.7606452
5.7475639
5.7258936
5.7147933
5.6924698
5.6734058
5.6411323
5.6093792
5.5645085
5.515372
5.4596651
5.4188805
5.3784867
5.3600138
5.3344533
5.3206928
5.302138
5.2909578
5.271598
5.2381098
5.1553291
5.0788096
5.0050811
4.9884426
5.0154472
5.026767
5.0410247
5.0131081
4.9756938
4.9091535
4.7732094
4.6151648
4.4677252
4.3478755
4.2702
4.1763882
4.0593986
3.9368633
3.8150075
3.6075742
3.3890991
3.294445
3.3626403
3.384123
3.2067485
3.2033269
3.3938177
3.4819213
3.392232
3.2647244
3.3682971
1.3877419
3.6788152
5.2931052
5.6349345
5.6418827
5.6259279
5.6074848
5.584309
5.5565174
5.5305811
5.4964863
5.4699915
5.4312175
5.3921418
5.3521784
5.3209201
5.2956757
5.2810578
5.2690021
5.2678651
5.2468475
5.2413484
5.2377472
5.2280921
5.2114816
5.2123601
5.1481461
5.0725724
4.9704722
4.9572515
5.0547064
5.106504
5.1107603
5.0888943
5.0533467
5.0335552
4.9372491
4.8088964
4.6615148
4.5232276
4.4160451
4.28856
4.1125281
3.8964579
3.7327523
3.6607308
3.6451537
3.5926175
3.4542901
3.3621715
3.5648215
3.693665
3.6653721
3.6247842
3.7333151
3.7952997
3.8412517
1.3044238
3.5375207
5.1976793
5.5641957
5.5699402
5.546186
5.51185
5.477847
5.4426135
5.4107484
5.3789541
5.3605119
5.3396852
5.3185029
5.3005654
5.2874017
5.2809406
5.277507
5.2701335
5.2683018
5.2498397
5.2586276
5.2647182
5.2461028
5.2316857
5.2431069
5.2116254
5.0780953
4.9607581
5.0291279
5.1503824
5.2011996
5.2122067
5.2082638
5.1770739
5.1551264
5.0778259
4.9129251
4.6679532
4.4453037
4.3045122
4.1675327
4.0269413
4.0024715
3.9577311
3.9127725
3.6953994
3.5587682
3.690639
3.881804
3.8457474
3.807774
3.9248045
4.1000408
4.1973121
4.1687172
4.1230157
4.3161296
1.3668251
3.5495819
5.1440074
5.4906572
5.497912
5.4837198
5.4515545
5.4276156
5.4025361
5.384207
5.3671526
5.364087
5.3636748
5.3659953
5.3622209
5.3508745
5.3471576
5.3450274
5.3237715
5.3073543
5.3000075
5.3189386
5.3232895
5.3040278
5.3047229
5.3053217
5.2939259
5.09347
4.9161114
5.0222221
5.160064
5.1900796
5.1915634
5.2045734
5.1585243
5.115601
5.0407656
4.9072088
4.7783636
4.7034526
4.5849414
4.4506727
4.3355048
4.1838036
3.940731
3.8174513
3.8439162
4.0236334
4.0015353
3.9849477
4.1001941
4.2525926
4.3705688
4.4644193
4.4723667
4.3725999
4.3595944
4.4651571
1.4613692
3.5772689
5.0823936
5.4054001
5.4227626
5.4078819
5.3880704
5.3710136
5.3556129
5.3450391
5.3359021
5.3433368
5.3510881
5.3567824
5.356295
5.3399272
5.3362911
5.3359146
5.306094
5.2873302
5.2838781
5.3059191
5.3074705
5.2871776
5.2968441
5.2912522
5.2721134
5.1272169
5.041143
5.0016044
5.0097548
5.0545977
5.0640088
5.1089839
5.1450777
5.1507618
5.1166305
5.0793588
5.040018
4.9638704
4.716323
4.3717357
4.1230089
3.9616604
4.0148421
4.1842537
4.16337
4.1874697
4.2859162
4.4058179
4.4860613
4.5539729
4.6071308
4.6432538
4.6317128
4.5655931
4.4880379
4.4625123
1.4631788
3.5188639
4.964906
5.2843539
5.3069961
5.2953838
5.2808743
5.2672684
5.2567637
5.2486922
5.2456654
5.2553417
5.2659497
5.2738951
5.2772478
5.2703104
5.262725
5.256622
5.2379856
5.2237502
5.2335904
5.2570568
5.2580007
5.2478906
5.2703815
5.2842429
5.2765983
5.2400215
5.2155645
5.233564
5.1310932
5.0946761
5.1436665
5.1664855
5.1426078
5.0770307
4.9943588
4.8331045
4.5103906
4.3308682
4.1953595
4.2294455
4.3175138
4.3254615
4.3426313
4.3966182
4.4440405
4.5055259
4.5684384
4.6028324
4.6386425
4.6800134
4.7417727
4.7991731
4.80359
4.6844717
4.4775286
4.2654779
1.5379774
3.6425451
5.1116492
5.4288812
5.4579692
5.4528795
5.4441245
5.432977
5.4286859
5.4240797
5.4260366
5.4380573
5.4579222
5.4734456
5.4845734
5.4658605
5.4581921
5.4502623
5.4467629
5.4286243
5.4218942
5.4359999
5.4352203
5.4201006
5.4181102
5.4150613
5.3770774
5.3447007
5.2735525
5.1096998
4.8382193
4.7111972
4.7450584
4.6620461
4.5626182
4.4523163
4.371307
4.2773132
4.2880314
4.4614234
4.5192005
4.5136125
4.5063519
4.5326384
4.5749158
4.6026602
4.6095472
4.6247536
4.6522195
4.687628
4.7377192
4.8083061
4.8798677
4.9520483
4.8880329
4.6671889
4.2662529
3.0519999
1.6550498
3.6505425
5.0572109
5.367707
5.3973209
5.3883455
5.3751071
5.3609644
5.3489096
5.3386494
5.3338906
5.3333591
5.3434838
5.3475196
5.3450701
5.315213
5.2942379
5.2716523
5.2389148
5.1970198
5.1491183
5.1053452
5.0264492
4.8948716
4.711766
4.5460588
4.4360388
4.3673015
4.298867
4.2632365
4.4373188
4.5427618
4.5668857
4.6118617
4.6162953
4.597631
4.576617
4.551703
4.5803422
4.6399423
4.6578549
4.6598885
4.6621113
4.6683152
4.6852051
4.6924268
4.6969874
4.7232508
4.7734148
4.8300436
4.8987546
4.9484904
4.991226
4.9728027
4.8530378
4.3912398
2.8831296
0.51042125
1.9536081
3.4678149
4.3382582
4.5129488
4.525596
4.5148409
4.5017401
4.4879239
4.4748466
4.4616651
4.4503139
4.4395619
4.4328101
4.4190741
4.3993814
4.3809627
4.3623593
4.3401928
4.3010979
4.2735805
4.2442613
4.2393202
4.2244168
4.2222735
4.2355579
4.3272362
4.4262724
4.5230903
4.5955032
4.6516418
4.6854288
4.6952219
4.7133762
4.7196353
4.7059372
4.6806452
4.6829863
4.7148405
4.7441931
4.7624454
4.7730812
4.7736261
4.7701236
4.7761563
4.8023356
4.8295451
4.8488242
4.8878939
4.9149593
4.9424501
4.9734094
4.9711039
4.9682559
4.8721122
4.3686771
2.4061389
0.43445157
0.45001796
2.8578362
4.1521136
4.533001
4.5758338
4.5853977
4.581255
4.5910418
4.5918914
4.6022216
4.6071696
4.6168901
4.6223246
4.6290874
4.6287311
4.6309853
4.6331293
4.638508
4.638872
4.6357314
4.6317548
4.637703
4.6486817
4.6579413
4.6647476
4.6748442
4.6924566
4.7173599
4.7453476
4.7704746
4.7904885
4.8029202
4.829389
4.8482307
4.8643032
4.8594457
4.842361
4.8419262
4.8502176
4.8665656
4.8858822
4.901053
4.9144899
4.9151305
4.9247473
4.9457826
4.9539339
4.9503008
4.9418826
4.9480256
4.9325365
4.9225532
4.837976
4.5492681
3.7333405
1.5331794
0.40808655
0.46692165
0.45320566
3.5427515
4.6359805
4.8262632
4.8377529
4.8435718
4.8369652
4.8418285
4.8403655
4.8438962
4.845667
4.8485096
4.8481474
4.8460483
4.8380232
4.835929
4.8368922
4.8360803
4.8315059
4.8231781
4.8222185
4.8271007
4.8400726
4.8483461
4.8563088
4.8678376
4.8785343
4.8919482
4.9058351
4.9147832
4.9245532
4.9426783
4.9655476
4.988493
5.0038475
5.0005491
4.983953
4.9880718
4.9938716
5.0102505
5.0207804
5.0251055
5.008369
4.9873602
4.9661742
4.9659412
4.9518918
4.9214584
4.8798682
4.8028563
4.581962
4.1179108
3.0803728
1.5747285
0.55598067
0.4782899
0.49499319
0.45929491
0.45312654
3.7876472
4.806438
4.9596514
4.9730567
4.9712952
4.971758
4.9718825
4.9739238
4.9745847
4.9775646
4.979361
4.9778525
4.9747161
4.9691742
4.9663352
4.9680674
4.966837
4.9605375
4.9505882
4.9496727
4.9531928
4.9640868
4.9697536
4.9738162
4.9805493
4.9861542
4.9947125
5.0062279
5.0157555
5.0300186
5.0490056
5.0727912
5.0899786
5.1002555
5.0836453
5.0551585
5.0400025
5.0293765
5.0264351
5.0218193
5.0072798
4.9734061
4.9297553
4.879186
4.8032752
4.6513327
4.3577312
3.8486378
2.9362135
1.8386864
0.83789895
0.4593504
0.51158753
0.53308859
0.51292044
0.49302133
0.4597403
0.45306854
3.8146197
4.8736078
5.0296011
5.0412875
5.0397616
5.0398554
5.0389064
5.0403457
5.0400488
5.0405912
5.039502
5.0376509
5.0325577
5.0289174
5.0243903
5.0233093
5.018071
5.0109271
4.9993374
4.9943472
4.9923809
4.9970659
4.9960376
4.9946174
4.9946068
4.9938767
4.9952778
4.9993762
5.0028169
5.0088093
5.0194079
5.0332637
5.0390183
5.0372996
5.0065895
4.9679989
4.9338537
4.8905374
4.8316403
4.7436791
4.5993004
4.3787468
4.0444769
3.5880784
2.9248832
2.1676643
1.2834458
0.62554225
0.43530209
0.48422232
0.52394687
0.53593796
0.54061576
0.52885808
0.51327161
0.49294473
0.45977662
0.45304476
3.7386381
4.8132216
4.9664638
4.9752265
4.9727503
4.9707472
4.9689526
4.9677515
4.9660031
4.9643802
4.9626463
4.9554538
4.9458536
4.9356079
4.9281302
4.9228426
4.9142057
4.9013863
4.8820969
4.871384
4.8630606
4.8606594
4.8493811
4.8352929
4.8194401
4.7993844
4.7744113
4.746544
4.7079238
4.6638588
4.6125999
4.5502849
4.462283
4.341388
4.1598634
3.9290761
3.6447286
3.2810483
2.8484602
2.3878144
1.8741464
1.3527424
0.79196665
0.50836493
0.42110131
0.44462515
0.48138213
0.49886289
0.50966093
0.52130162
0.52969259
0.53582577
0.54045896
0.5287686
0.51317644
0.49288439
0.4597702
0.45298712
3.2687877
4.2266952
4.3489605
4.3427594
4.3283072
4.3096625
4.2927594
4.2714897
4.251409
4.2252068
4.1987316
4.1644212
4.1301249
4.0888594
4.0495208
4.0019422
3.9507174
3.8841921
3.812153
3.7324325
3.6495279
3.5559505
3.4484263
3.3179733
3.1752683
3.0112247
2.8406645
2.6461446
2.433568
2.2023758
1.9662297
1.7175181
1.4754864
1.209846
0.95694152
0.71111728
0.53637642
0.43847166
0.41795537
0.43275901
0.465841
0.47828369
0.48716146
0.48962867
0.4930835
0.49409726
0.49435014
0.50197979
0.5091091
0.52103385
0.5294712
0.53561273
0.54025014
0.52864897
0.5130608
0.49280093
0.4597199
0.4528561
0.464723
1.0731237
1.4149876
1.4216797
1.401424
1.3644607
1.3373386
1.2967649
1.2648124
1.2199326
1.1830671
1.1317921
1.086984
1.0296723
0.97980197
0.92074433
0.86893806
0.80627347
0.74944816
0.68489366
0.63162953
0.57602913
0.5322606
0.48856704
0.45006958
0.42817586
0.40310995
0.40834824
0.39705291
0.42118552
0.42317682
0.45622675
0.46435375
0.48843485
0.49182027
0.49204751
0.48693497
0.4838005
0.48393565
0.49038472
0.4949233
0.497097
0.49384305
0.49035979
0.48989341
0.49291666
0.49395126
0.49420062
0.50181888
0.50893271
0.52085549
0.52928659
0.53543093
0.5400683
0.52854595
0.51295706
0.49272488
0.45963183
0.45267752
0.46454422
0.33352791
0.46337479
0.48179333
0.48326125
0.48450025
0.48484243
0.48621468
0.4866656
0.48812702
0.48860802
0.49012348
0.49008574
0.49074367
0.48928988
0.48879936
0.48600621
0.48419125
0.47979904
0.47779902
0.47534486
0.47563846
0.47337619
0.47259531
0.47077389
0.47054784
0.47068842
0.47378362
0.47698668
0.48141723
0.48608303
0.49403063
0.50007119
0.50357355
0.50467404
0.49532455
0.48915025
0.48473027
0.4834962
0.48923848
0.49463858
0.49713717
0.49415674
0.49012637
0.48956007
0.49274334
0.49382364
0.49389885
0.50164837
0.50864381
0.52063282
0.52906906
0.53522319
0.53986713
0.52846635
0.51284443
0.4926299
0.45954582
0.45247271
0.46434848
0.34809745
0.4820438
0.50023967
0.50160897
0.50144859
0.50137321
0.50106915
0.50080497
0.50048236
0.49993242
0.49909711
0.49853441
0.49764182
0.49653475
0.49470459
0.49204664
0.48845222
0.48442454
0.4809283
0.4789037
0.47726452
0.47514766
0.47222079
0.47065772
0.47009387
0.46982812
0.47316482
0.47602524
0.4813717
0.4864537
0.49454837
0.49997286
0.50303138
0.50390478
0.49524771
0.48942646
0.48485446
0.48328999
0.48876672
0.49446956
0.49708827
0.49412336
0.48997824
0.48938642
0.49261218
0.4936902
0.4936935
0.5015007
0.50843044
0.52042638
0.52885885
0.53500705
0.5396455
0.52833953
0.51270295
0.49252257
0.45942912
0.45224753
0.46408932
0.34931451
0.48324373
0.50116456
0.50232399
0.50191892
0.50170276
0.50122563
0.5010286
0.50052899
0.50029924
0.4996911
0.49907286
0.49788515
0.49632412
0.49409986
0.49148727
0.48770116
0.48355985
0.47964803
0.47762306
0.47616083
0.47446256
0.4720419
0.47068585
0.47034991
0.47046172
0.47373073
0.47663527
0.48125473
0.48601257
0.49373836
0.49975384
0.50323407
0.50432673
0.49518684
0.48900907
0.48458089
0.4832841
0.48892248
0.49436655
0.49689298
0.49392538
0.4898878
0.48930919
0.49251181
0.49358626
0.49359908
0.50133488
0.50831132
0.52027796
0.52871199
0.53486673
0.53950461
0.52828414
0.51265355
0.49249694
0.45940533
0.45210617
0.46389622
0.34972894
0.48368958
0.50155589
0.5026861
0.50224244
0.50203051
0.50155005
0.50137484
0.5009123
0.50071833
0.50017616
0.49944727
0.49814529
0.49645998
0.49404636
0.49111971
0.48710839
0.48286825
0.47876109
0.47669758
0.47542253
0.47387168
0.47184171
0.47061897
0.47039391
0.47088402
0.47413098
0.47701496
0.48111669
0.48579479
0.49322848
0.49957469
0.5032804
0.50447777
0.49507157
0.48872564
0.48440538
0.48332355
0.48909036
0.4942541
0.49667455
0.49387014
0.48983589
0.48923963
0.49240982
0.49348672
0.4935196
0.5012073
0.50819834
0.52015162
0.52858748
0.53475833
0.53940307
0.52827818
0.51264215
0.49250714
0.45942583
0.4520161
0.4637624
0.34939286
0.4833321
0.50123762
0.50238977
0.50198076
0.50173964
0.50134935
0.50108739
0.50075278
0.50035454
0.49970234
0.49887887
0.4976659
0.496241
0.4940768
0.49115407
0.48721399
0.48277026
0.47887538
0.47673601
0.4753959
0.47392084
0.471861
0.47067038
0.47043961
0.47080837
0.47408805
0.47688142
0.4810632
0.48561714
0.49312327
0.49932956
0.50295358
0.5041194
0.49503873
0.4887366
0.48445544
0.48329196
0.48879056
0.49405829
0.49652348
0.49389508
0.48973986
0.48911454
0.49226853
0.49336086
0.49340584
0.50105971
0.50805298
0.51999685
0.52842782
0.53460787
0.539257
0.52824082
0.5126037
0.4925159
0.45946556
0.45197178
0.46368939
0.34909682
0.48300923
0.50094814
0.50212329
0.5017944
0.50158047
0.50127882
0.50103155
0.50074152
0.50036228
0.499743
0.49907723
0.49792762
0.49642556
0.49413319
0.49092597
0.48682147
0.48231035
0.47821017
0.47607262
0.47502279
0.47364815
0.47177242
0.47061376
0.47036915
0.47071612
0.47419346
0.47685532
0.48092487
0.48526226
0.49283138
0.49912027
0.50284727
0.50406046
0.49495597
0.48849521
0.48421042
0.48312057
0.48871734
0.49389665
0.49632444
0.49369551
0.48958577
0.48895248
0.49208739
0.49319885
0.49322276
0.50087234
0.50783837
0.51978448
0.52820132
0.53438978
0.53903496
0.5281012
0.51246621
0.49240997
0.45949049
0.45181174
0.4634909
0.34920409
0.4832522
0.50127615
0.5024994
0.50231869
0.50206738
0.5017704
0.50150257
0.50095632
0.50043842
0.4996978
0.49890653
0.49756753
0.49580977
0.49366196
0.49074777
0.4867905
0.48216991
0.47815503
0.47579178
0.47446252
0.47311851
0.47153759
0.47068947
0.4704765
0.47121689
0.47452722
0.47718867
0.48074709
0.48506904
0.49236172
0.49895723
0.50288539
0.50419477
0.49490829
0.48830986
0.48403558
0.4830825
0.48881778
0.49386342
0.49623627
0.49356084
0.48949948
0.48887592
0.49202044
0.49314852
0.49314193
0.50077371
0.50770635
0.51965478
0.52805409
0.53424722
0.53888556
0.52801939
0.51237892
0.49234643
0.45953772
0.45169587
0.46333165
0.34852912
0.48256661
0.50072729
0.5020533
0.50201455
0.50189357
0.50176196
0.50158979
0.50100206
0.50045779
0.49974929
0.49893993
0.49767641
0.4959928
0.49378786
0.49070207
0.48673106
0.48200296
0.47794486
0.47553289
0.47432161
0.47310141
0.47163294
0.47086379
0.47049372
0.47089516
0.47454856
0.47699413
0.4808242
0.48481219
0.49240674
0.49882575
0.50271312
0.50400622
0.49495554
0.4883145
0.48404102
0.48302709
0.48858205
0.49374809
0.49616941
0.49358275
0.48943769
0.48879632
0.49195699
0.49309451
0.49303264
0.50068807
0.50758268
0.5195288
0.52792377
0.53412123
0.53875782
0.52796546
0.51230668
0.49228737
0.45959388
0.45158948
0.46319716
0.34838628
0.48241815
0.50058895
0.50191499
0.50183403
0.50170791
0.50153648
0.50137143
0.50077899
0.50015575
0.49945419
0.49868725
0.49742224
0.49569269
0.49355851
0.49059028
0.48674924
0.48227549
0.47828144
0.47590419
0.47458369
0.4732063
0.47157722
0.47069523
0.47037955
0.47074548
0.47422303
0.4767624
0.48069788
0.48483452
0.4923432
0.49870248
0.50251979
0.5037789
0.49499453
0.48829888
0.48400589
0.48290244
0.48831089
0.4936064
0.49607646
0.49356551
0.48933056
0.48866697
0.49184779
0.49299138
0.49289091
0.50055701
0.50741667
0.51936379
0.52775486
0.53395527
0.53858912
0.52786103
0.51218783
0.49218397
0.45958657
0.45143608
0.46301545
0.3486338
0.48262272
0.50069352
0.50195108
0.5018153
0.50161276
0.50127751
0.50099765
0.50047658
0.49994773
0.49919529
0.49837934
0.49706188
0.49542244
0.49329196
0.49061097
0.48678652
0.48235044
0.47849151
0.47603279
0.47447619
0.47297003
0.47113445
0.47013649
0.46979425
0.47013749
0.4736074
0.47627717
0.48050768
0.48486147
0.49245724
0.49866102
0.50234874
0.50353705
0.49469987
0.48819212
0.483804
0.48258733
0.48799248
0.49341727
0.49595895
0.49342966
0.48910992
0.48843576
0.49165092
0.49280252
0.49266047
0.50035759
0.50717175
0.51913423
0.52752633
0.53373776
0.53837585
0.52772511
0.51204099
0.49205185
0.45955866
0.45122738
0.4627771
0.49241981
0.34829921
0.48217271
0.50019194
0.50139808
0.50112989
0.50088803
0.50057689
0.50028916
0.49983298
0.49944528
0.49875647
0.49809928
0.49693125
0.49538219
0.49327091
0.49041519
0.48665056
0.4825588
0.47858606
0.47632313
0.47484499
0.47324269
0.4710867
0.46982913
0.46948928
0.46968225
0.47305031
0.47585682
0.48033563
0.48486299
0.49250265
0.49845311
0.50194362
0.50304399
0.49444358
0.488125
0.48371146
0.48235981
0.4876197
0.4931879
0.49578534
0.49332409
0.48890136
0.48820829
0.49145791
0.49262632
0.49242406
0.50015268
0.50692405
0.51890574
0.5272977
0.53352465
0.53816996
0.52762961
0.51193522
0.4919646
0.45958751
0.45102974
0.46254103
0.49218455
0.34783996
0.48165984
0.49972568
0.50098297
0.50078871
0.50063267
0.50036065
0.50009907
0.49980491
0.4992664
0.49855182
0.49792675
0.49691559
0.49557642
0.49346694
0.49043879
0.48655859
0.48224133
0.47834657
0.47610991
0.47470903
0.47314494
0.47095038
0.46966811
0.46926828
0.46929949
0.47285402
0.47555759
0.48017067
0.48461218
0.49248245
0.49833751
0.50178255
0.50286349
0.49422016
0.48797146
0.48356951
0.48220033
0.48739595
0.4929561
0.4955641
0.49324476
0.48872635
0.48800412
0.49126451
0.4924449
0.49219977
0.49991526
0.50667804
0.51866565
0.52706405
0.53330456
0.53795753
0.52753103
0.5118203
0.4918726
0.45961125
0.45083954
0.46232773
0.49199771
0.34710147
0.48090561
0.4990913
0.50041681
0.50027604
0.50012729
0.49993858
0.49974814
0.49929544
0.49879806
0.49816214
0.49753656
0.49642138
0.49495915
0.49310071
0.49054479
0.48690553
0.48255097
0.47880476
0.47657405
0.47508234
0.47334737
0.47098811
0.46967171
0.46919303
0.46889461
0.47246671
0.47509011
0.48011385
0.48455611
0.49263254
0.49809348
0.50143078
0.5024378
0.49413835
0.48800579
0.48360138
0.48213766
0.48709764
0.49273215
0.49536825
0.49323427
0.48860351
0.4878483
0.49111322
0.49230735
0.49203973
0.49972963
0.50648254
0.51846536
0.52686344
0.53311434
0.53776947
0.52742644
0.51170813
0.49178235
0.45962975
0.45066501
0.46211663
0.49180188
0.34663184
0.48042836
0.49866657
0.50001725
0.49991688
0.49983509
0.49958313
0.49937265
0.49880757
0.4982002
0.49752165
0.49689974
0.49586357
0.49451614
0.49273159
0.49050254
0.48716269
0.48316632
0.47968062
0.47733045
0.47554519
0.47359129
0.47101105
0.46968937
0.46911134
0.46879053
0.47210551
0.47487217
0.48001574
0.48478374
0.49269148
0.49802346
0.50107296
0.50197781
0.49404655
0.48813734
0.48370657
0.48214053
0.4868775
0.49259108
0.495255
0.49324854
0.48853632
0.48775601
0.49100665
0.49220098
0.49194136
0.49960729
0.50634447
0.51831949
0.52671714
0.53297789
0.53763737
0.52738741
0.51166284
0.49175403
0.45971582
0.45054729
0.46193193
0.49158559
0.34639836
0.48018035
0.49844468
0.49981182
0.49970213
0.49963517
0.49926474
0.49911741
0.49859802
0.49805811
0.49719509
0.4965676
0.49559887
0.49445358
0.49258118
0.49026155
0.48693837
0.48323595
0.47988984
0.47763222
0.47579609
0.47378601
0.47117828
0.46984326
0.46930279
0.46897789
0.47209793
0.47487739
0.47999588
0.48481168
0.49255472
0.49781849
0.50081186
0.50169384
0.4940319
0.48816572
0.48378189
0.48220508
0.4868145
0.49248781
0.49511858
0.49315865
0.48851475
0.48772835
0.49091882
0.49212723
0.49190134
0.49950452
0.50626069
0.51821871
0.52660998
0.53287568
0.53753422
0.5273773
0.51164821
0.49176874
0.45984256
0.45051453
0.4618533
0.34650075
0.48039901
0.49872869
0.50013494
0.50009987
0.50006429
0.49975139
0.4996032
0.49887061
0.49807943
0.49715674
0.49633184
0.49525828
0.49407783
0.49228815
0.49003183
0.48686842
0.48341766
0.48011442
0.4776748
0.47560842
0.47342674
0.47089969
0.46970596
0.46914658
0.46884849
0.4719289
0.47462499
0.47984127
0.48459411
0.49238261
0.49770942
0.5008008
0.50173006
0.49421846
0.48807038
0.48364193
0.48203438
0.48658498
0.49235957
0.4950275
0.49317792
0.48844475
0.48762497
0.49082079
0.49205535
0.49179076
0.49938441
0.50611847
0.51810315
0.52648963
0.53277036
0.53743387
0.52738884
0.51163339
0.49176613
0.4599577
0.34622795
0.4800498
0.4983602
0.49975165
0.49969957
0.49964852
0.49932754
0.49917421
0.49855279
0.49799845
0.4970519
0.49634877
0.49537041
0.49415269
0.49225811
0.49001695
0.48678998
0.48321223
0.47990134
0.4775125
0.47554474
0.47343775
0.47087192
0.46961307
0.46906537
0.46874657
0.4719015
0.47452148
0.47972834
0.4844173
0.49226834
0.49748282
0.50055738
0.50146735
0.49407236
0.48803011
0.48360637
0.4819851
0.48638634
0.4921438
0.49480545
0.49308756
0.48835538
0.48751675
0.49066655
0.49190218
0.49163213
0.49918287
0.50593471
0.51790773
0.52629421
0.53257726
0.53724228
0.52729347
0.51150994
0.34576734
0.47949058
0.49780428
0.49920082
0.49916146
0.49912545
0.49883975
0.49872627
0.49818525
0.49768518
0.49682878
0.49617465
0.49525265
0.49408781
0.49219619
0.48986035
0.486561
0.48294656
0.47960901
0.47734742
0.47558405
0.47362546
0.47104203
0.46974182
0.46919189
0.46884532
0.47200832
0.47462086
0.47966361
0.48426623
0.49201258
0.49719703
0.50026573
0.50118409
0.49393214
0.48792035
0.48355186
0.48195332
0.48627232
0.49201415
0.49466392
0.49294243
0.48823752
0.48740207
0.4905436
0.4917739
0.49149322
0.49903965
0.50579332
0.51773966
0.52611929
0.53240317
0.53706423
0.52716316
0.34576582
0.47949938
0.49782792
0.49923835
0.49919737
0.49915811
0.49888234
0.49878432
0.49822588
0.49752199
0.49671897
0.49601844
0.49501758
0.49381418
0.49196908
0.48952787
0.48614504
0.48239493
0.4790237
0.47673838
0.47500384
0.47314657
0.47084999
0.46970201
0.46923239
0.46895218
0.47221129
0.47468459
0.47964481
0.48390919
0.49160221
0.4967689
0.49998616
0.50096732
0.49371584
0.487677
0.48343927
0.48190902
0.48613058
0.49174183
0.49435859
0.49281562
0.48809791
0.48724901
0.49034698
0.49158723
0.49132093
0.49880852
0.50557459
0.51752081
0.52590355
0.5322023
0.34608848
0.4798784
0.49818073
0.49956426
0.49947404
0.49940022
0.49902293
0.49885341
0.49810621
0.49743792
0.49660348
0.4957993
0.49461796
0.49324732
0.49134612
0.4890704
0.4858324
0.48217827
0.47883417
0.47650304
0.47460573
0.47266803
0.47054629
0.46948541
0.46913378
0.50079672
0.49359885
0.48743242
0.48322433
0.4817421
0.48599516
0.49155947
0.49415135
0.49257871
0.48793353
0.48710014
0.49017362
0.49141569
0.491165
0.49861782
0.50536965
0.51731196
0.52568822
0.53199948
0.34597658
0.47971396
0.49799433
0.49936178
0.4992778
0.49915081
0.49897318
0.49870539
0.49797602
0.4971995
0.49636577
0.49559168
0.49443594
0.49285377
0.49103414
0.48868625
0.48552321
0.4818542
0.47840243
0.47593818
0.47414238
0.47238354
0.47051443
0.49839258
0.50514364
0.51708398
0.34490429
0.47861166
0.4970711
0.49856695
0.4986019
0.49858797
0.49830615
0.49815864
0.49749423
0.49657181
0.49555792
0.49469193
0.49365519
0.49246314
0.49073965
0.48864765
0.48573247
0.48241217
0.47936796
0.34413316
0.47765967
0.4960849
0.4975414
0.49745431
0.49736169
0.49711149
0.49677601
0.49614567
0.49529905
0.494487
0.49386209
0.49294646
0.49171816
0.49029786
0.48871748
0.48623452
0.48325138
0.34374594
0.47706757
0.49537422
0.49674821
0.49662913
0.49655184
0.49617012
0.49600833
0.49542391
0.49488153
0.494232
0.49370714
0.49285962
0.4918518
0.49039654
0.4885449
0.48591795
0.34300021
0.47625655
0.49464789
0.49608021
0.49603427
0.49593492
0.4957858
0.49548481
0.49488677
0.49419181
0.49342636
0.49278442
0.49194161
0.49090887
0.48969208
0.48816232
0.34263323
0.47576029
0.49409232
0.49547707
0.49536841
0.49524465
0.49502437
0.49474318
0.49416471
0.49363274
0.49301392
0.49263504
0.49198476
0.49085233
0.48969109
0.34303328
0.47614328
0.49438115
0.49570702
0.49553496
0.49534823
0.49506646
0.49473846
0.49433008
0.49385963
0.49309332
0.49246715
0.49169606
0.49085587
0.34439003
0.47785035
0.49614063
0.49749652
0.49733641
0.49716335
0.49688127
0.49643931
0.49562571
0.49492465
0.49405557
0.49338589
0.49234177
0.34410387
0.47764859
0.49607214
0.49752392
0.49755253
0.49753421
0.49727912
0.49711876
0.49634812
0.49539885
0.49443211
0.49349919
0.34380027
0.47739217
0.49592235
0.49745117
0.49758219
0.49755504
0.49750543
0.49727523
0.4965829
0.49557377
0.4947308
0.3436789
0.4773993
0.49604077
0.49764366
0.4978539
0.49790718
0.49789601
0.49754008
0.49694428
0.4959091
0.34361512
0.47712641
0.49558833
0.49706038
0.49705202
0.49702525
0.49670882
0.49652487
0.49588389
0.34317666
0.47668712
0.4952195
0.49673723
0.49681327
0.49679837
0.49654577
0.49635855
0.34208131
0.47557006
0.49429209
0.49594226
0.4961819
0.4962646
0.34320241
0.47659817
0.49501454
0.49643698
10.498816
2.3219452
6.9584515
2.2915054
0.87632889
7.0186846
0.72608604
0.56835044
0.53339169
0.52632668
0.53759531
0.58607276
0.63321752
0.6510598
0.65553206
0.66351798
9.7696754
1.0410395
6.8429438
2.1517211
0.61826559
7.0270846
0.7198317
0.57358127
0.53464347
0.52694742
0.53714943
0.58674069
0.63288494
0.65243269
0.65651299
0.66322222
9.504121
1.0086157
6.6997092
2.2038921
0.64652557
6.9790208
0.73032737
0.57974327
0.5360338
0.52801355
0.53586716
0.58673462
0.63348173
0.65322726
0.65806862
0.66321402
9.1873219
0.19338114
6.5126325
2.3030092
0.76585912
7.522516
0.7469204
0.58292138
0.53698955
0.52887329
0.53494474
0.58562472
0.63510042
0.65289705
0.65890281
0.66332092
8.7973604