/*--------------------------------*- C++ -*----------------------------------*\
| =========                 |                                                 |
| \\      /  F ield         | OpenFOAM: The Open Source CFD Toolbox           |
|  \\    /   O peration     | Version:  2506                                  |
|   \\  /    A nd           | Website:  www.openfoam.com                      |
|    \\/     M anipulation  |                                                 |
\*---------------------------------------------------------------------------*/
FoamFile
{
    version     2.0;
    format      ascii;
    arch        "LSB;label=32;scalar=64";
    class       volScalarField;
    location    "1.65";
    object      rho;
}
// * * * * * * * * * * * * * * * * * * * * * * * * * * * * * * * * * * * * * //

dimensions      [1 -3 0 0 0 0 0];

internalField   nonuniform List<scalar> 
1376
(
0.66819997
0.6687279
0.66889227
0.66867325
0.66852039
0.66830019
0.66807225
0.66780975
0.66751068
0.66724475
0.66700762
0.6667754
0.66656242
0.66647775
0.6663581
0.66617834
0.66600769
0.66591667
0.66581066
0.66574876
0.66573485
0.6657183
0.66569946
0.66566568
0.66562905
0.66561106
0.66561074
0.66557902
0.66699863
0.66754303
0.66783003
0.66766871
0.66757281
0.66737531
0.6671694
0.66696718
0.66678063
0.66658433
0.66644615
0.66637695
0.6662078
0.66601342
0.6659356
0.66586725
0.66578073
0.66572943
0.66569504
0.66565749
0.66562397
0.66560379
0.66558775
0.66558039
0.66557819
0.66558057
0.66559133
0.66560558
0.66463062
0.66598352
0.66655753
0.66649529
0.66662744
0.66651708
0.66647835
0.66642396
0.66633801
0.66624966
0.66616444
0.66609096
0.66595206
0.6658941
0.66585484
0.66577796
0.66571324
0.66566098
0.66562215
0.66557765
0.66554181
0.66552854
0.66552682
0.6655337
0.66553981
0.66554666
0.665555
0.66556865
0.66558625
0.66559727
0.66262995
0.66480078
0.66499969
0.66564741
0.66562459
0.66579877
0.66578681
0.66580841
0.66580347
0.66578602
0.66574805
0.66571107
0.66567247
0.66563863
0.66556156
0.66551175
0.66549602
0.66547439
0.66545348
0.66544631
0.66544826
0.66544193
0.66545452
0.66547707
0.66548954
0.66550818
0.665526
0.66554105
0.66556172
0.66557837
0.66559415
0.66234366
0.66396591
0.664575
0.66473497
0.66488459
0.66497689
0.66503077
0.66511934
0.66516146
0.66522366
0.66522782
0.66526887
0.6652706
0.66526585
0.66528433
0.66529344
0.66528299
0.66529927
0.66532487
0.66533894
0.66535273
0.66535251
0.66537209
0.66541305
0.66544203
0.66546939
0.66549529
0.66551415
0.6655381
0.66555898
0.66558008
0.66560761
0.66562203
0.66104109
0.66332873
0.66352415
0.66401531
0.66406561
0.66431436
0.66440978
0.66454852
0.66464713
0.66475592
0.66482015
0.6648851
0.66490576
0.6649604
0.66499837
0.66504679
0.6650878
0.66512825
0.66516919
0.66521199
0.6652489
0.66526883
0.66530164
0.66535729
0.66539725
0.66543373
0.66546485
0.66548676
0.66551499
0.66554029
0.66556722
0.66559846
0.66561484
0.66563156
0.66099918
0.66246899
0.66299465
0.66329297
0.66337636
0.66363771
0.66378234
0.66398836
0.66411689
0.66429597
0.66436238
0.66445187
0.66454431
0.66463548
0.66469648
0.66478703
0.66486384
0.66494351
0.66502144
0.66508533
0.66514677
0.66519638
0.66523892
0.66530021
0.6653515
0.66539705
0.66543139
0.66545698
0.66549155
0.66552384
0.66555559
0.66558929
0.66560779
0.66562538
0.66564444
0.6598305
0.66243394
0.66220051
0.66267202
0.66275906
0.66309535
0.66321435
0.66346354
0.66359672
0.66379584
0.66395815
0.6641278
0.66421502
0.6643599
0.66444531
0.6645491
0.66466052
0.66476832
0.6648863
0.66498006
0.66504823
0.66511707
0.66517485
0.66524598
0.66530836
0.66536004
0.66540117
0.6654313
0.66546952
0.6655088
0.66554708
0.66558121
0.66560034
0.66561945
0.66563922
0.66565782
0.65968377
0.66131128
0.66194848
0.66227084
0.66226001
0.66267835
0.66266024
0.66294774
0.6630687
0.66328823
0.66350128
0.66377072
0.66391279
0.66408501
0.66422535
0.66434906
0.66448001
0.66459997
0.66472337
0.66486072
0.66495805
0.66503708
0.66511218
0.66519683
0.66527008
0.6653236
0.66536992
0.66540971
0.66545035
0.66549322
0.66553794
0.66557424
0.66559233
0.66561292
0.66563407
0.66565471
0.6583069
0.66143608
0.66134249
0.66204899
0.6614977
0.6621145
0.66213228
0.66252972
0.66272172
0.66294636
0.66305883
0.66336111
0.6635912
0.66379973
0.66396728
0.66415197
0.66432457
0.66446596
0.66457927
0.66472652
0.66486861
0.66496853
0.66505176
0.66514557
0.66522997
0.6652879
0.66533762
0.66538762
0.66543506
0.66547939
0.66552622
0.66556664
0.66558495
0.66560607
0.66562924
0.6656519
0.66566785
0.6604791
0.6588129
0.65970389
0.66123714
0.6605379
0.66153693
0.66158002
0.66202766
0.66229276
0.66267029
0.66274454
0.66296669
0.66321836
0.66354463
0.66374406
0.66392888
0.66414047
0.6643422
0.66447761
0.66460758
0.66476321
0.66489397
0.66499661
0.66509767
0.66518797
0.66525444
0.66530954
0.66536138
0.6654214
0.66546998
0.66551473
0.66555653
0.66557815
0.6655999
0.66562454
0.66564906
0.66566504
0.66568361
0.65554236
0.662693
0.65892018
0.66106127
0.66070383
0.66132476
0.6613209
0.66156601
0.66172615
0.66220848
0.66254072
0.66284055
0.66293572
0.66325563
0.66355104
0.66376263
0.6639492
0.6641777
0.66436706
0.66452246
0.66467393
0.66481346
0.66493879
0.66505276
0.66514529
0.66522138
0.66528571
0.66533552
0.66540253
0.66546177
0.66550758
0.66554461
0.6655705
0.66559474
0.66562071
0.6656459
0.66566218
0.66568131
0.66570016
0.65691152
0.65927341
0.66035606
0.66009341
0.66021365
0.66081866
0.66105306
0.66143516
0.66143486
0.66173944
0.66210836
0.66263149
0.66283085
0.66299863
0.66328826
0.66363277
0.66383989
0.66404014
0.66422718
0.66442446
0.66460988
0.66475052
0.66487856
0.66500541
0.66510442
0.66518627
0.665264
0.66531888
0.66537929
0.66545078
0.6655025
0.66553569
0.66556177
0.66558953
0.66561771
0.66564249
0.66565907
0.66567939
0.6656984
0.66570911
0.65677147
0.65915633
0.65881317
0.65969568
0.65964861
0.66021018
0.66039098
0.66115339
0.6613824
0.66168775
0.66176298
0.66217645
0.66262438
0.66293995
0.66305707
0.66341904
0.66373542
0.66397827
0.66413515
0.66430879
0.66452706
0.6647048
0.66483125
0.6649583
0.66506779
0.66515169
0.66523944
0.66530603
0.66536476
0.6654351
0.66549361
0.66553062
0.66555439
0.66558316
0.66561462
0.66563957
0.66565558
0.66567731
0.66569669
0.66570743
0.66571693
0.65603358
0.65903316
0.65864384
0.65991784
0.65951192
0.6601667
0.65994987
0.6605299
0.66088718
0.6615518
0.6617431
0.66191923
0.66223979
0.66279337
0.66303508
0.66324602
0.66355085
0.66387587
0.66410352
0.66424372
0.66443755
0.66464877
0.66479435
0.66491848
0.66503535
0.6651249
0.66520814
0.66529098
0.66536044
0.66542276
0.66548116
0.66552354
0.66555055
0.66557729
0.66561144
0.6656369
0.6656523
0.66567472
0.66569492
0.66570591
0.66571591
0.66572392
0.65612764
0.6587368
0.65729554
0.65915273
0.65905835
0.66011968
0.66001629
0.66034565
0.66048075
0.66100895
0.66147731
0.66204791
0.66202207
0.66250121
0.66292874
0.66323372
0.66344085
0.66372033
0.66400957
0.66421363
0.66438842
0.66459282
0.66475255
0.66488566
0.66500823
0.6651042
0.66518357
0.66527147
0.66535274
0.66542306
0.66546904
0.66551318
0.66554667
0.66557445
0.66560715
0.66563359
0.6656502
0.66567202
0.66569317
0.66570492
0.66571483
0.6657235
0.66572876
0.65447068
0.65891038
0.65796297
0.65865499
0.65864841
0.65935918
0.65964508
0.66050932
0.66047753
0.66091475
0.66101031
0.66176633
0.66213969
0.6623429
0.66268431
0.663133
0.66344658
0.66365575
0.66390419
0.66414023
0.66436029
0.66455475
0.66471187
0.66485509
0.66498369
0.66508523
0.66517147
0.6652558
0.66534066
0.66541914
0.66546501
0.6655014
0.66554263
0.66557178
0.66560291
0.66562971
0.66564862
0.66567033
0.66569167
0.66570441
0.66571466
0.66572262
0.66572807
0.66573666
0.65526901
0.65833429
0.65783052
0.6585362
0.65830094
0.65912923
0.65909896
0.65995414
0.66017828
0.66094184
0.66101619
0.66144161
0.66193019
0.6624349
0.66256558
0.66296512
0.66335486
0.66366669
0.66389047
0.66407689
0.66431151
0.6645219
0.66467805
0.6648276
0.66496277
0.66506773
0.66516068
0.66525119
0.66533063
0.66540878
0.66546088
0.66549618
0.66553596
0.66556853
0.66560178
0.66562535
0.66564644
0.66566938
0.66569026
0.66570421
0.66571488
0.66572169
0.66572721
0.66573695
0.66574295
0.6550011
0.65567997
0.65664104
0.65821866
0.65793944
0.65910502
0.65899434
0.65973903
0.6598093
0.66057975
0.66092115
0.66147213
0.66171368
0.66231428
0.66266047
0.66293009
0.66324474
0.66357949
0.66389071
0.66407004
0.66427554
0.66448915
0.6646536
0.66480376
0.6649468
0.6650543
0.66515088
0.66524909
0.66532973
0.66539706
0.66545359
0.66549519
0.66552778
0.66556656
0.66560226
0.66562232
0.66564403
0.66566808
0.66568895
0.66570357
0.6657145
0.66572127
0.66572639
0.66573718
0.66574212
0.66575577
0.65312543
0.65808056
0.65639797
0.65792882
0.65762501
0.65880246
0.6587665
0.65976586
0.65977269
0.66048394
0.66066497
0.66139624
0.66170121
0.66219296
0.66259529
0.66300744
0.66322925
0.66351072
0.6638331
0.66405777
0.66426671
0.66446977
0.66463917
0.66478964
0.66493264
0.66504313
0.66514464
0.6652442
0.66532813
0.66539176
0.66544675
0.66548852
0.66552612
0.66556204
0.66559961
0.66562132
0.66564237
0.66566763
0.6656875
0.66570227
0.66571367
0.66572112
0.66572664
0.66573715
0.66574116
0.6657565
0.66574883
0.65409393
0.65660808
0.65607163
0.65776611
0.6573848
0.65858226
0.65835569
0.65945288
0.65966319
0.66064431
0.66074301
0.6613461
0.66164124
0.66219309
0.66251991
0.66293023
0.66327567
0.66357195
0.66382084
0.66400817
0.6642498
0.66444391
0.66462068
0.66478955
0.66492774
0.66503436
0.66514317
0.6652402
0.66532417
0.66538871
0.66543749
0.66548412
0.66552306
0.66555596
0.66559895
0.6656217
0.6656412
0.66566819
0.66568713
0.66570085
0.66571287
0.66572099
0.6657265
0.66573684
0.66574085
0.66575668
0.66574782
0.66575818
0.66578509
0.65368606
0.65640303
0.6555073
0.65738671
0.65703972
0.65854944
0.65846944
0.6594238
0.65949212
0.66048421
0.66057526
0.66144587
0.66170433
0.66222945
0.66252552
0.66297837
0.66326686
0.66352305
0.66379556
0.66401182
0.6642405
0.66442298
0.66462157
0.66478956
0.66492882
0.66504302
0.66514795
0.66523885
0.66532023
0.66538344
0.6654323
0.66547925
0.66551986
0.66555772
0.66559869
0.6656219
0.66564108
0.66566628
0.66568764
0.66570129
0.66571288
0.66572028
0.66572499
0.66573793
0.66574075
0.66575537
0.66574751
0.66575794
0.665784
0.65275026
0.65651679
0.65533941
0.6572845
0.65676073
0.65820065
0.65829304
0.65963949
0.65944843
0.66045843
0.66058562
0.66146438
0.66178613
0.66227217
0.66250285
0.66296163
0.66324531
0.66348624
0.66378971
0.66408227
0.66424941
0.66445465
0.66465612
0.66480505
0.66493112
0.66505246
0.66515337
0.66523695
0.66531358
0.6653808
0.66543307
0.66547535
0.66551993
0.66555988
0.66559773
0.66562297
0.66564096
0.66566389
0.66568715
0.66570321
0.66571279
0.66571944
0.66572569
0.66573894
0.66573827
0.6657556
0.66574828
0.66575823
0.66578161
0.65271994
0.65664198
0.65522875
0.65725767
0.65703173
0.65846127
0.65804582
0.65953049
0.65933719
0.66056663
0.66083794
0.66150431
0.66172832
0.66222301
0.66259019
0.66294121
0.66329871
0.6636349
0.66384522
0.66404873
0.66424875
0.66445919
0.66465729
0.66480075
0.66493217
0.66504945
0.66515236
0.66523196
0.66530883
0.6653754
0.66543167
0.66547729
0.66552001
0.66555861
0.6655965
0.6656216
0.66564504
0.66566753
0.66568595
0.66570221
0.66571141
0.66572135
0.6657276
0.66573875
0.66573817
0.66575647
0.66574669
0.66575789
0.66577785
0.65272584
0.65567075
0.65495694
0.65719216
0.65646741
0.65852936
0.65829109
0.65963857
0.65979526
0.66085487
0.66056043
0.66153554
0.6616988
0.66232673
0.66285076
0.66301453
0.66330684
0.66361445
0.6638051
0.6640386
0.66425907
0.6644433
0.66462983
0.66481702
0.66495302
0.66505819
0.66515677
0.66524444
0.6653184
0.66537603
0.66543232
0.66547822
0.66552035
0.66555751
0.66560083
0.66562462
0.6656489
0.66566679
0.66568532
0.66570131
0.6657129
0.66572351
0.66572715
0.66573736
0.66573887
0.66575689
0.66574496
0.66575747
0.66577447
0.65216125
0.65608295
0.65474906
0.65730644
0.65660939
0.65869588
0.65841748
0.65973228
0.65969311
0.66065295
0.66090785
0.66167892
0.66176347
0.6623549
0.66273057
0.66296582
0.66327182
0.66355846
0.66388422
0.66413803
0.66428455
0.66450422
0.66469942
0.66484767
0.6649792
0.66509548
0.66516882
0.66525626
0.66532053
0.66537875
0.66542886
0.66547875
0.6655232
0.66555901
0.66560319
0.66562824
0.66564632
0.66566538
0.66568893
0.66570318
0.66571339
0.66572288
0.66572609
0.66573905
0.66574116
0.66575551
0.6657454
0.66575792
0.66577234
0.65202388
0.65571588
0.65505048
0.65737401
0.65673464
0.65894336
0.65824517
0.65992277
0.65965861
0.66100717
0.6613539
0.66156972
0.6619298
0.6624077
0.66265917
0.66310218
0.66346186
0.66374826
0.66397671
0.66415758
0.66434619
0.66454247
0.66471645
0.66486103
0.6649861
0.66509065
0.66517135
0.66525291
0.66532027
0.66537241
0.66542859
0.66548531
0.66553029
0.6655674
0.66560057
0.66563009
0.66563873
0.66566727
0.66569825
0.66570454
0.66571245
0.66572148
0.66572923
0.66574125
0.66574039
0.66575579
0.66574605
0.66575791
0.66577234
0.65129098
0.65634634
0.6550484
0.65789611
0.6566902
0.65875511
0.65864456
0.66041437
0.66002708
0.66119581
0.66074567
0.66183226
0.66242595
0.6626448
0.66299977
0.66323352
0.66348945
0.66372919
0.66397689
0.66419855
0.66442209
0.66458058
0.66474855
0.66489808
0.66499681
0.66507327
0.66518302
0.6652661
0.66531552
0.66538238
0.6654409
0.66549104
0.66553508
0.66557716
0.66560438
0.66562988
0.66564231
0.66567123
0.6656966
0.66570461
0.66571319
0.66572357
0.665733
0.66573927
0.66574027
0.66575851
0.66574627
0.66575852
0.66577353
0.65227338
0.65604326
0.65471374
0.65780121
0.6570908
0.65910188
0.65876873
0.66031411
0.6601113
0.66094084
0.66119737
0.66205343
0.66237854
0.66272238
0.66291716
0.66324207
0.66356556
0.66387502
0.66407933
0.66428062
0.664469
0.66462451
0.66479403
0.66491323
0.66501492
0.66512076
0.66521832
0.66528799
0.6653378
0.66539758
0.665443
0.66549216
0.66554744
0.66557439
0.66560144
0.6656314
0.66564655
0.66567245
0.66569505
0.66570783
0.66571831
0.66572426
0.66573
0.66574298
0.66574368
0.66576065
0.66574695
0.66575862
0.66577644
0.65145438
0.65681612
0.65468715
0.65801426
0.65688206
0.65955652
0.65832591
0.66016319
0.66035761
0.66124125
0.6618476
0.66210642
0.66260812
0.6628961
0.66315734
0.66351357
0.66380495
0.66401543
0.66415707
0.66436724
0.66453421
0.66467342
0.66483287
0.66495227
0.66504457
0.6651381
0.66523654
0.66529956
0.66534404
0.66539103
0.66545173
0.66549878
0.66554829
0.66556993
0.6516305
0.65695762
0.65477582
0.65895793
0.65687248
0.66014273
0.65885045
0.66062747
0.66087082
0.66146616
0.66181513
0.66242513
0.66293316
0.66308282
0.66339513
0.6636754
0.66389117
0.66406454
0.66424987
0.66445501
0.66461867
0.6521972
0.656401
0.65484366
0.65999863
0.65756622
0.66014429
0.65916849
0.66084105
0.66108146
0.66159282
0.66215014
0.6525748
0.65699295
0.66718407
0.66872373
0.67023967
0.67021102
0.66886174
0.66717076
0.66637383
0.66584797
0.66569323
0.67049632
0.66931361
0.66757164
0.66661194
0.6661087
0.66590576
0.67042116
0.66981003
0.66846222
0.66745631
0.66706323
0.66680256
0.66996106
0.6696154
0.66846351
0.66763465
0.66727747
0.66701738
0.66950057
0.66924976
0.66834482
0.66746374
0.66717893
0.66706538
0.66889619
0.66880183
0.66812088
0.66742469
0.66717642
0.66705308
0.66847845
0.66842916
0.66790759
0.66732602
0.66710804
0.66701469
0.66810504
0.6680645
0.66766898
0.66721509
0.66705887
0.6669717
0.66776574
0.66773097
0.66745537
0.66712105
0.66698257
0.66745961
0.66744226
0.66725541
0.66701489
0.66689831
0.66719167
0.66717055
0.66704712
0.66689977
0.66679445
0.66696439
0.66696044
0.66688242
0.66677107
0.66670431
0.6667141
0.66678155
0.66672274
0.66662993
0.66664118
0.66649342
0.66657097
0.66654674
0.66652195
0.66654201
0.66638947
0.66637359
0.66646567
0.66643406
0.66629804
0.66626478
0.66636703
0.66632694
0.6661873
0.66618417
0.66619459
0.66622748
0.66608961
0.6660814
0.66607329
0.66616712
0.66602581
0.66600322
0.66597391
0.66588279
0.66597575
0.66594058
0.66579162
0.66590938
0.66591174
0.66577034
0.66583202
0.66574008
0.66576035
0.66571737
0.66571819
0.66568855
0.66565504
)
;

boundaryField
{
    Side
    {
        type            empty;
    }
    Inlet
    {
        type            calculated;
        value           nonuniform List<scalar> 9(0.66574395 0.66574456 0.665745 0.66574525 0.66574537 0.66574563 0.66574598 0.66574637 0.66574701);
    }
    Airfoil
    {
        type            calculated;
        value           nonuniform List<scalar> 
33
(
0.66819997
0.66557902
0.66463062
0.66262995
0.66234366
0.66104109
0.66099918
0.6598305
0.65968377
0.6583069
0.6604791
0.65554236
0.65691152
0.65677147
0.65603358
0.65612764
0.65447068
0.65526901
0.6550011
0.65312543
0.65409393
0.65368606
0.65275026
0.65271994
0.65272584
0.65216125
0.65202388
0.65129098
0.65227338
0.65145438
0.6516305
0.6521972
0.6525748
)
;
    }
    Outlet
    {
        type            calculated;
        value           nonuniform List<scalar> 0();
    }
    procBoundary8to1
    {
        type            processor;
        value           nonuniform List<scalar> 8(0.66801017 0.66563586 0.66583399 0.66637081 0.66637081 0.66762155 0.66917882 0.67047095);
    }
    procBoundary8to7
    {
        type            processor;
        value           nonuniform List<scalar> 
53
(
0.66561161
0.66563468
0.66564647
0.66567477
0.66569583
0.66571157
0.66571865
0.66572404
0.66572945
0.66574545
0.66574733
0.66576029
0.66574626
0.66575706
0.6657799
0.66475893
0.66490369
0.66499653
0.66507532
0.6651694
0.66526061
0.66530448
0.66534329
0.66540095
0.66547215
0.66551689
0.6655426
0.66561161
0.66558093
0.66280015
0.66300505
0.66326514
0.66354906
0.66380068
0.66401402
0.66422291
0.66438559
0.66455267
0.66475893
0.66467963
0.65571742
0.65990819
0.65680758
0.65991289
0.65995964
0.66082007
0.66149633
0.6621768
0.66280015
0.66276902
0.65113851
0.65571742
0.65803575
)
;
    }
    procBoundary8to9
    {
        type            processor;
        value           nonuniform List<scalar> 
75
(
0.66561646
0.66564297
0.66561646
0.66562387
0.66561239
0.66561239
0.66560878
0.66560878
0.66561762
0.66561762
0.66563042
0.66563774
0.66563774
0.66564965
0.66564965
0.66566119
0.66566119
0.66567305
0.66567051
0.66567051
0.66568623
0.66568623
0.66570191
0.66570191
0.66571071
0.66571071
0.6657176
0.6657176
0.66572425
0.66572425
0.66572893
0.66572893
0.66573635
0.66573635
0.66574337
0.66574337
0.66575585
0.66575585
0.66574979
0.66574979
0.6657604
0.6657604
0.66578384
0.66560371
0.66572975
0.66660836
0.6668202
0.66688746
0.66688185
0.6668569
0.66682194
0.66690955
0.66690955
0.66683911
0.66676904
0.66668498
0.6665959
0.66649515
0.66641778
0.66641778
0.66631126
0.66622221
0.66615096
0.66608057
0.66608057
0.66597913
0.66588757
0.66587724
0.66587724
0.66582875
0.66576568
0.66571001
0.66571001
0.66568571
0.66564297
)
;
    }
}


// ************************************************************************* //
