/*--------------------------------*- C++ -*----------------------------------*\
| =========                 |                                                 |
| \\      /  F ield         | OpenFOAM: The Open Source CFD Toolbox           |
|  \\    /   O peration     | Version:  2506                                  |
|   \\  /    A nd           | Website:  www.openfoam.com                      |
|    \\/     M anipulation  |                                                 |
\*---------------------------------------------------------------------------*/
FoamFile
{
    version     2.0;
    format      ascii;
    arch        "LSB;label=32;scalar=64";
    class       volScalarField;
    location    "0.00016";
    object      Ma;
}
// * * * * * * * * * * * * * * * * * * * * * * * * * * * * * * * * * * * * * //

dimensions      [0 0 0 0 0 0 0];

internalField   nonuniform List<scalar> 
192657
(
0.29959276
0.29959228
0.29959231
0.29959231
0.29959231
0.29959231
0.29959231
0.29959231
0.29959231
0.29959231
0.29959231
0.29959231
0.29959231
0.29959231
0.29959231
0.29959231
0.29959231
0.29959231
0.29959231
0.29959231
0.29959231
0.29959231
0.29959231
0.29959231
0.29959231
0.29959231
0.29959231
0.29959231
0.29959231
0.29959231
0.29959231
0.29959231
0.29959231
0.29959231
0.29959231
0.29959231
0.29959231
0.29959231
0.29959231
0.29959232
0.29959231
0.29959231
0.29959231
0.29959231
0.29959231
0.29959231
0.29959231
0.29959231
0.29959231
0.29959231
0.29959231
0.29959229
0.29959228
0.29959228
0.29959228
0.29959228
0.29959229
0.29959229
0.2995923
0.29959231
0.29959232
0.29959232
0.29959232
0.29959231
0.29959231
0.2995923
0.2995923
0.2995923
0.2995923
0.2995923
0.2995923
0.2995923
0.2995923
0.2995923
0.29959229
0.29959229
0.29959229
0.29959229
0.29959211
0.29959032
0.29957746
0.29949931
0.29935299
0.30060205
0.31106756
0.31630663
0.31327317
0.36804459
0.51005952
0.51683293
0.54547359
0.559766
0.55977969
0.55802001
0.55658262
0.55427927
0.55240511
0.55205134
0.55189087
0.55197512
0.55205492
0.55146471
0.54899973
0.54195032
0.52684238
0.5015177
0.46669086
0.42777904
0.39224184
0.3631752
0.34118282
0.32044104
0.29012072
0.24660601
0.21792197
0.21073175
0.212739
0.20194647
0.13682417
0.043824535
0.033055799
0.2197406
0.26678002
0.2786084
0.25034958
0.2358194
0.17767546
0.09264728
0.086020881
0.18270261
0.27480801
0.32708496
0.40681196
0.50652025
0.59550588
0.66567958
0.71028216
0.74183504
0.76382285
0.77375461
0.77402192
0.77197237
0.76906445
0.76716678
0.77151141
0.7847266
0.81899646
0.83655107
0.75879371
0.29959275
0.29959231
0.29959231
0.29959231
0.29959231
0.29959231
0.29959231
0.29959231
0.29959231
0.29959231
0.29959231
0.29959231
0.29959231
0.29959231
0.29959231
0.29959231
0.29959231
0.29959231
0.29959231
0.29959231
0.29959231
0.29959231
0.29959231
0.29959231
0.29959231
0.29959231
0.29959231
0.29959231
0.29959231
0.29959231
0.29959231
0.29959231
0.29959231
0.29959231
0.29959231
0.29959231
0.29959231
0.29959231
0.29959231
0.29959232
0.29959231
0.29959231
0.29959231
0.29959231
0.29959231
0.29959231
0.29959231
0.29959231
0.29959231
0.29959231
0.29959231
0.2995923
0.29959229
0.29959227
0.29959227
0.29959227
0.29959228
0.29959228
0.29959229
0.29959229
0.29959229
0.29959229
0.29959229
0.2995923
0.2995923
0.2995923
0.2995923
0.29959231
0.29959231
0.29959231
0.29959231
0.29959231
0.29959231
0.29959231
0.29959231
0.29959231
0.2995923
0.29959229
0.29959214
0.29959074
0.29958051
0.2995209
0.29945678
0.30123567
0.31286539
0.31749603
0.31404732
0.40995004
0.52792145
0.5307763
0.56032523
0.57324641
0.57302578
0.5712236
0.56991111
0.56753587
0.56620477
0.56611238
0.56587385
0.56594395
0.56546835
0.56396739
0.56020992
0.55112551
0.53338373
0.504807
0.4675206
0.42790678
0.39486581
0.37135271
0.35481544
0.33431627
0.29848259
0.25495113
0.23747088
0.23406506
0.23756626
0.19314833
0.088016252
0.031417736
0.18561646
0.27125987
0.30362259
0.31758551
0.31930268
0.27406275
0.21022248
0.065176976
0.0087962904
0.16562844
0.2443553
0.30240158
0.4186446
0.5371893
0.6418205
0.71647752
0.76211825
0.79488848
0.81206409
0.81189641
0.80669598
0.7966211
0.78890168
0.78791867
0.79328523
0.80742331
0.8360887
0.84661552
0.76232538
0.29959292
0.29959231
0.29959231
0.29959231
0.29959231
0.29959231
0.29959231
0.29959231
0.29959231
0.29959231
0.29959231
0.29959231
0.29959231
0.29959231
0.29959231
0.29959231
0.29959231
0.29959231
0.29959231
0.29959231
0.29959231
0.29959231
0.29959231
0.29959231
0.29959231
0.29959231
0.29959231
0.29959231
0.29959231
0.29959231
0.29959231
0.29959231
0.29959231
0.29959231
0.29959231
0.29959231
0.29959231
0.29959231
0.29959231
0.29959232
0.29959231
0.29959231
0.29959231
0.29959231
0.29959231
0.29959231
0.29959231
0.29959231
0.29959231
0.29959231
0.29959231
0.29959231
0.2995923
0.29959229
0.29959227
0.29959227
0.29959227
0.29959227
0.29959228
0.29959228
0.29959228
0.29959228
0.29959228
0.29959228
0.29959228
0.29959228
0.29959228
0.29959228
0.29959229
0.29959229
0.29959229
0.2995923
0.29959231
0.29959232
0.29959232
0.29959232
0.29959231
0.2995923
0.29959214
0.29959068
0.29957957
0.29951474
0.29947391
0.30160588
0.31425217
0.31904886
0.31605988
0.41988355
0.52535905
0.52698704
0.55568337
0.56877191
0.5689351
0.5672062
0.56561374
0.56320271
0.5621517
0.56170249
0.56165824
0.56167901
0.56133291
0.55983367
0.55612237
0.54730495
0.53090803
0.50354728
0.46727002
0.42839849
0.39462061
0.37004369
0.35255871
0.33255757
0.29755995
0.25344059
0.23545181
0.23192734
0.23595288
0.20119397
0.1085469
0.032295182
0.17740878
0.27361128
0.30635822
0.3186132
0.31182362
0.26872392
0.21082696
0.089894869
0.027848322
0.15646751
0.25277163
0.30965304
0.42228365
0.531953
0.63434757
0.70364209
0.7505011
0.77993703
0.80009493
0.80127371
0.7985666
0.7915696
0.78605638
0.78529623
0.7898517
0.80208659
0.82918562
0.83960073
0.75593869
0.299593
0.29959231
0.29959231
0.29959231
0.29959231
0.29959231
0.29959231
0.29959231
0.29959231
0.29959231
0.29959231
0.29959231
0.29959231
0.29959231
0.29959231
0.29959231
0.29959231
0.29959231
0.29959231
0.29959231
0.29959231
0.29959231
0.29959231
0.29959231
0.29959231
0.29959231
0.29959231
0.29959231
0.29959231
0.29959231
0.29959231
0.29959231
0.29959231
0.29959231
0.29959231
0.29959231
0.29959231
0.29959231
0.29959232
0.29959231
0.29959231
0.29959231
0.29959231
0.29959231
0.29959231
0.29959231
0.29959231
0.29959231
0.29959231
0.29959231
0.29959231
0.29959231
0.29959231
0.2995923
0.29959229
0.29959228
0.29959227
0.29959227
0.29959227
0.29959228
0.29959227
0.29959227
0.29959227
0.29959227
0.29959227
0.29959227
0.29959227
0.29959227
0.29959228
0.29959228
0.29959229
0.29959229
0.2995923
0.2995923
0.29959231
0.29959231
0.29959231
0.2995923
0.29959217
0.29959081
0.29958057
0.29952192
0.29956327
0.30244098
0.31656738
0.32141143
0.32069287
0.44913291
0.52584283
0.52767836
0.55406796
0.56496303
0.56472108
0.56402501
0.56265798
0.5600893
0.55928102
0.55888025
0.5587454
0.5588567
0.55844106
0.55703655
0.55353731
0.54528195
0.52941549
0.50258208
0.46682242
0.42771996
0.39335211
0.36778892
0.34984939
0.33039045
0.2968462
0.25201551
0.23245538
0.22824549
0.23230581
0.20002387
0.1098326
0.019899332
0.16171793
0.26683816
0.30098762
0.31350082
0.30595869
0.26561552
0.20692855
0.085499202
0.0081282058
0.15673219
0.25764604
0.31123508
0.41778194
0.52348517
0.6259212
0.69409539
0.74301875
0.77036883
0.79384131
0.79572224
0.79393948
0.78840708
0.78333919
0.78201328
0.78610814
0.7983615
0.8273717
0.84001424
0.75818143
0.29959309
0.29959231
0.29959231
0.29959231
0.29959231
0.29959231
0.29959231
0.29959231
0.29959231
0.29959231
0.29959231
0.29959231
0.29959231
0.29959231
0.29959231
0.29959231
0.29959231
0.29959231
0.29959231
0.29959231
0.29959231
0.29959231
0.29959231
0.29959231
0.29959231
0.29959231
0.29959231
0.29959231
0.29959231
0.29959231
0.29959231
0.29959231
0.29959231
0.29959231
0.29959231
0.29959231
0.29959231
0.29959231
0.29959232
0.29959231
0.29959231
0.29959231
0.29959231
0.29959231
0.29959231
0.29959231
0.29959231
0.29959231
0.29959231
0.29959231
0.29959231
0.29959231
0.29959231
0.29959231
0.2995923
0.29959229
0.29959228
0.29959228
0.29959227
0.29959227
0.29959227
0.29959227
0.29959227
0.29959227
0.29959227
0.29959227
0.29959227
0.29959227
0.29959227
0.29959227
0.29959228
0.29959228
0.29959229
0.2995923
0.2995923
0.2995923
0.2995923
0.29959229
0.29959217
0.29959087
0.29958082
0.29952161
0.29962926
0.30323928
0.31878764
0.32365528
0.32636777
0.47533489
0.53541679
0.53988708
0.56471327
0.57362555
0.57300563
0.57163749
0.57003186
0.56783894
0.5670242
0.56659543
0.56666249
0.56644528
0.56606289
0.56422893
0.56003259
0.55046439
0.53327064
0.50503893
0.46780326
0.42889324
0.39535829
0.37142844
0.35438326
0.33436233
0.29902808
0.25479713
0.23655606
0.23275546
0.23643003
0.19775066
0.1003146
0.031790595
0.17945474
0.27225478
0.3048526
0.31722107
0.31360193
0.2691034
0.20577979
0.060021534
0.0076451916
0.16498061
0.25418621
0.30970491
0.42056798
0.5342781
0.63707928
0.70980315
0.75650284
0.78790267
0.8071709
0.80786767
0.80429545
0.79583468
0.78968884
0.78887627
0.79385775
0.80680964
0.83475953
0.84538425
0.7615042
0.29959319
0.29959231
0.29959231
0.29959231
0.29959231
0.29959231
0.29959231
0.29959231
0.29959231
0.29959231
0.29959231
0.29959231
0.29959231
0.29959231
0.29959231
0.29959231
0.29959231
0.29959231
0.29959231
0.29959231
0.29959231
0.29959231
0.29959231
0.29959231
0.29959231
0.29959231
0.29959231
0.29959231
0.29959231
0.29959231
0.29959231
0.29959231
0.29959231
0.29959231
0.29959231
0.29959231
0.29959231
0.29959231
0.29959232
0.29959231
0.29959232
0.29959231
0.29959231
0.29959231
0.29959231
0.29959231
0.29959231
0.29959231
0.29959231
0.29959231
0.29959231
0.29959231
0.29959231
0.29959231
0.29959231
0.2995923
0.2995923
0.2995923
0.29959229
0.29959229
0.29959228
0.29959228
0.29959227
0.29959227
0.29959227
0.29959227
0.29959227
0.29959227
0.29959227
0.29959227
0.29959227
0.29959228
0.29959228
0.29959229
0.2995923
0.2995923
0.2995923
0.29959229
0.29959218
0.29959089
0.29958087
0.29952431
0.29973965
0.30454229
0.32182209
0.32652759
0.33112472
0.48441615
0.53596814
0.54201036
0.56546803
0.57360008
0.57280027
0.57096371
0.56895418
0.56664052
0.56576958
0.56515336
0.56528441
0.56503821
0.5646527
0.56292403
0.55884278
0.54962662
0.53228509
0.50435407
0.46724587
0.42787574
0.39329948
0.36740364
0.34866523
0.32857247
0.29511056
0.24978221
0.22868013
0.22398273
0.22751553
0.19564982
0.10622821
0.017662398
0.12761261
0.25117121
0.28641959
0.29764336
0.28628811
0.25702791
0.18453647
0.037190535
0.03491704
0.17858444
0.26813457
0.31768533
0.41681627
0.52321736
0.62424928
0.69386913
0.74267404
0.77205689
0.79539037
0.79689144
0.79444125
0.78779495
0.78242797
0.78138152
0.78631078
0.79981729
0.83039272
0.84345911
0.76141106
0.29959329
0.29959231
0.29959231
0.29959231
0.29959231
0.29959231
0.29959231
0.29959231
0.29959231
0.29959231
0.29959231
0.29959231
0.29959231
0.29959231
0.29959231
0.29959231
0.29959231
0.29959231
0.29959231
0.29959231
0.29959231
0.29959231
0.29959231
0.29959231
0.29959231
0.29959231
0.29959231
0.29959231
0.29959231
0.29959231
0.29959231
0.29959231
0.29959231
0.29959231
0.29959231
0.29959231
0.29959231
0.29959231
0.29959232
0.29959231
0.29959232
0.29959231
0.29959231
0.29959231
0.29959231
0.29959231
0.29959231
0.29959231
0.29959231
0.29959232
0.29959231
0.29959231
0.29959231
0.29959231
0.29959231
0.29959231
0.29959231
0.29959231
0.2995923
0.2995923
0.2995923
0.2995923
0.29959229
0.29959229
0.29959228
0.29959228
0.29959228
0.29959227
0.29959227
0.29959227
0.29959227
0.29959227
0.29959228
0.29959229
0.29959229
0.29959229
0.29959229
0.29959229
0.29959218
0.2995909
0.29958072
0.29952564
0.29985111
0.30590063
0.32481135
0.32942941
0.34675615
0.50731503
0.53895251
0.54814476
0.56938709
0.57588318
0.5748598
0.57293124
0.57068432
0.56824205
0.56733379
0.566571
0.56660398
0.5663413
0.56570347
0.56391593
0.5596066
0.55013175
0.53257787
0.50461426
0.46736639
0.42827946
0.39449348
0.36971485
0.3520993
0.33205629
0.2975937
0.25317335
0.23465818
0.23078675
0.23439554
0.19742974
0.10015708
0.012059026
0.16042453
0.26355103
0.29620313
0.30677154
0.29769387
0.26610116
0.19093102
0.0340868
0.037597406
0.18710315
0.27090279
0.32103014
0.42197617
0.53322839
0.63464613
0.70753491
0.75526061
0.78721927
0.80879902
0.80978084
0.80641385
0.7981785
0.79216312
0.79153687
0.79688918
0.81066579
0.840031
0.85188476
0.76858132
0.29959339
0.29959231
0.29959231
0.29959231
0.29959231
0.29959231
0.29959231
0.29959231
0.29959231
0.29959231
0.29959231
0.29959231
0.29959231
0.29959231
0.29959231
0.29959231
0.29959231
0.29959231
0.29959231
0.29959231
0.29959231
0.29959231
0.29959231
0.29959231
0.29959231
0.29959231
0.29959231
0.29959231
0.29959231
0.29959231
0.29959231
0.29959231
0.29959231
0.29959231
0.29959231
0.29959231
0.29959231
0.29959231
0.29959231
0.29959231
0.29959232
0.29959231
0.29959231
0.29959231
0.29959231
0.29959231
0.29959231
0.29959231
0.29959231
0.29959232
0.29959231
0.29959231
0.29959231
0.29959231
0.29959231
0.29959231
0.29959231
0.29959231
0.29959231
0.29959231
0.29959231
0.29959231
0.2995923
0.2995923
0.2995923
0.2995923
0.29959229
0.29959229
0.29959229
0.29959229
0.29959229
0.29959229
0.29959229
0.2995923
0.29959229
0.29959229
0.29959229
0.29959229
0.29959218
0.29959095
0.29958048
0.29952667
0.29999835
0.30784482
0.32849349
0.33266252
0.36084892
0.52233164
0.54508773
0.55679641
0.57717171
0.58266676
0.58147691
0.57941799
0.5769301
0.57443982
0.57352733
0.57277938
0.57272928
0.57244782
0.57169347
0.5697765
0.56511543
0.55475547
0.53588762
0.50643571
0.46813434
0.42881807
0.39467527
0.3689188
0.34983109
0.32857157
0.29394008
0.24860976
0.22931976
0.22539519
0.22920616
0.20377585
0.120396
0.02966888
0.11041831
0.24869044
0.28337679
0.29254315
0.27322665
0.25709026
0.17240609
0.017253005
0.056419586
0.1978052
0.28066362
0.32950986
0.42683542
0.53534336
0.63402552
0.70481633
0.75189719
0.78445719
0.80599046
0.80669385
0.80287811
0.79397354
0.7878671
0.78705471
0.79299094
0.80768651
0.83901401
0.85183496
0.76919138
0.2995935
0.29959231
0.29959231
0.29959231
0.29959231
0.29959231
0.29959231
0.29959231
0.29959231
0.29959231
0.29959231
0.29959231
0.29959231
0.29959231
0.29959231
0.29959231
0.29959231
0.29959231
0.29959231
0.29959231
0.29959231
0.29959231
0.29959231
0.29959231
0.29959231
0.29959231
0.29959231
0.29959231
0.29959231
0.29959231
0.29959231
0.29959231
0.29959231
0.29959231
0.29959231
0.29959231
0.29959231
0.29959231
0.29959231
0.29959231
0.29959232
0.29959231
0.29959231
0.29959231
0.29959231
0.29959231
0.29959231
0.29959231
0.29959231
0.29959232
0.29959231
0.29959231
0.29959231
0.29959231
0.29959231
0.29959231
0.29959232
0.29959232
0.29959232
0.29959232
0.29959232
0.29959231
0.29959231
0.29959231
0.29959231
0.29959231
0.2995923
0.2995923
0.2995923
0.2995923
0.2995923
0.2995923
0.2995923
0.2995923
0.29959231
0.2995923
0.2995923
0.29959229
0.29959218
0.29959092
0.29957995
0.29952759
0.30016619
0.310054
0.3321101
0.33606671
0.37756982
0.5345227
0.54965837
0.56371887
0.58297978
0.58788615
0.586581
0.58440208
0.58172428
0.57915614
0.57819914
0.57743454
0.5773349
0.57703056
0.57618321
0.5741558
0.56928857
0.55826243
0.53826311
0.50754661
0.4682529
0.42852544
0.39392721
0.36743067
0.34732239
0.32518315
0.29060686
0.24472102
0.22409346
0.21996321
0.22371227
0.2051179
0.13045833
0.05651487
0.064788957
0.23528903
0.27352489
0.28284251
0.25929624
0.24869286
0.16696843
0.016003337
0.057665101
0.19458312
0.2830958
0.3314387
0.42637231
0.53139323
0.62763053
0.69638888
0.74393299
0.77620563
0.79887086
0.79966819
0.79600763
0.78739063
0.78146621
0.78050275
0.78675225
0.80217411
0.83535029
0.84924
0.76726675
0.29959361
0.29959231
0.29959231
0.29959231
0.29959231
0.29959231
0.29959231
0.29959231
0.29959231
0.29959231
0.29959231
0.29959231
0.29959231
0.29959231
0.29959231
0.29959231
0.29959231
0.29959231
0.29959231
0.29959231
0.29959231
0.29959231
0.29959231
0.29959231
0.29959231
0.29959231
0.29959231
0.29959231
0.29959231
0.29959231
0.29959231
0.29959231
0.29959231
0.29959231
0.29959231
0.29959231
0.29959231
0.29959231
0.29959231
0.29959231
0.29959232
0.29959231
0.29959231
0.29959231
0.29959231
0.29959231
0.29959231
0.29959231
0.29959231
0.29959232
0.29959231
0.29959231
0.29959231
0.29959231
0.29959231
0.29959231
0.29959232
0.29959232
0.29959232
0.29959232
0.29959232
0.29959232
0.29959232
0.29959232
0.29959231
0.29959231
0.29959231
0.29959231
0.29959231
0.29959231
0.29959231
0.29959231
0.29959231
0.29959231
0.29959231
0.29959231
0.29959231
0.2995923
0.29959219
0.29959091
0.2995793
0.29952882
0.30036912
0.31289847
0.33610877
0.33981975
0.3926334
0.54296112
0.55339023
0.56938194
0.58767234
0.59222431
0.59084762
0.58858014
0.58572681
0.58311426
0.58211125
0.58134313
0.58123713
0.58091343
0.57999026
0.57783922
0.57272725
0.56110175
0.54013692
0.50836129
0.46828343
0.42821294
0.39346299
0.36667238
0.34620642
0.32369665
0.2890816
0.24293561
0.22184356
0.21769706
0.22177247
0.20569043
0.13532821
0.072542735
0.036210217
0.22693871
0.26725681
0.27674044
0.25500137
0.24559211
0.16331872
0.0058287801
0.065665416
0.19895897
0.28608356
0.33317114
0.42511764
0.53048079
0.62487119
0.69452093
0.74217999
0.77608918
0.79895423
0.79952621
0.79550741
0.78635688
0.78022184
0.77924415
0.7860124
0.80246831
0.83726378
0.85214445
0.77076225
0.29959372
0.29959231
0.29959231
0.29959231
0.29959231
0.29959231
0.29959231
0.29959231
0.29959231
0.29959231
0.29959231
0.29959231
0.29959231
0.29959231
0.29959231
0.29959231
0.29959231
0.29959231
0.29959231
0.29959231
0.29959231
0.29959231
0.29959231
0.29959231
0.29959231
0.29959231
0.29959231
0.29959231
0.29959231
0.29959231
0.29959231
0.29959231
0.29959231
0.29959231
0.29959231
0.29959231
0.29959231
0.29959231
0.29959231
0.29959231
0.29959232
0.29959232
0.29959231
0.29959231
0.29959231
0.29959231
0.29959231
0.29959231
0.29959231
0.29959232
0.29959231
0.29959231
0.29959231
0.29959231
0.29959231
0.29959231
0.29959232
0.29959232
0.29959232
0.29959232
0.29959232
0.29959232
0.29959232
0.29959232
0.29959232
0.29959232
0.29959231
0.29959231
0.29959231
0.29959231
0.29959231
0.29959231
0.29959231
0.29959232
0.29959232
0.29959232
0.29959231
0.29959231
0.2995922
0.29959085
0.29957792
0.29953037
0.30059742
0.31618692
0.33998538
0.34363096
0.40422495
0.54853432
0.55637597
0.57361053
0.59136258
0.59579117
0.59435246
0.59198666
0.58897216
0.58631318
0.58526939
0.58451088
0.58440093
0.58406304
0.5830667
0.58080441
0.57548076
0.56338926
0.54167692
0.50910031
0.46852862
0.4283488
0.39375777
0.36715566
0.34676725
0.32379865
0.28861303
0.2425352
0.22239188
0.21863317
0.22292797
0.20712976
0.13761229
0.078363747
0.037920319
0.22879709
0.26810236
0.27704449
0.25627017
0.24779996
0.1650547
0.0017631864
0.071802572
0.20448465
0.29092255
0.3374906
0.42767413
0.53420981
0.62652996
0.6974163
0.74472596
0.78103604
0.80349767
0.80366128
0.79897843
0.78883689
0.78223671
0.78145684
0.78896703
0.80642433
0.84171342
0.85659129
0.77511559
0.29959384
0.29959231
0.29959231
0.29959231
0.29959231
0.29959231
0.29959231
0.29959231
0.29959231
0.29959231
0.29959231
0.29959231
0.29959231
0.29959231
0.29959231
0.29959231
0.29959231
0.29959231
0.29959231
0.29959231
0.29959231
0.29959231
0.29959231
0.29959231
0.29959231
0.29959231
0.29959231
0.29959231
0.29959231
0.29959231
0.29959231
0.29959231
0.29959231
0.29959231
0.29959231
0.29959231
0.29959231
0.29959231
0.29959231
0.29959232
0.29959231
0.29959232
0.29959231
0.29959231
0.29959231
0.29959231
0.29959231
0.29959231
0.29959231
0.29959232
0.29959231
0.29959231
0.29959231
0.29959231
0.29959231
0.29959231
0.29959232
0.29959232
0.29959232
0.29959232
0.29959232
0.29959232
0.29959232
0.29959232
0.29959232
0.29959232
0.29959231
0.29959231
0.29959231
0.29959231
0.29959231
0.29959231
0.29959232
0.29959232
0.29959232
0.29959232
0.29959232
0.29959231
0.2995922
0.29959081
0.29957597
0.29953354
0.30086183
0.32006991
0.34400042
0.34759823
0.41527145
0.55321036
0.55911767
0.57753567
0.59477842
0.59913649
0.5976176
0.59515243
0.59194472
0.58920499
0.58812588
0.58736717
0.58725012
0.58695029
0.58591821
0.58358945
0.5780987
0.56557316
0.54310505
0.50971965
0.46868162
0.42815561
0.39343894
0.36666115
0.34610491
0.32279184
0.28739363
0.24115762
0.22101619
0.21736153
0.22198006
0.21066046
0.14454984
0.083938683
0.015241598
0.22489342
0.26643327
0.27586685
0.25673151
0.25007881
0.17566536
0.0015262912
0.078603578
0.20289121
0.29440732
0.34098996
0.42995398
0.53516183
0.6254833
0.69562966
0.74342729
0.78039135
0.80347089
0.80365002
0.79895333
0.78872637
0.78232056
0.78147213
0.78924794
0.80708483
0.84339882
0.8590348
0.77800612
0.29959396
0.29959231
0.29959231
0.29959231
0.29959231
0.29959231
0.29959231
0.29959231
0.29959231
0.29959231
0.29959231
0.29959231
0.29959231
0.29959231
0.29959231
0.29959231
0.29959231
0.29959231
0.29959231
0.29959231
0.29959231
0.29959231
0.29959231
0.29959231
0.29959231
0.29959231
0.29959231
0.29959231
0.29959231
0.29959231
0.29959231
0.29959231
0.29959231
0.29959231
0.29959231
0.29959231
0.29959231
0.29959231
0.29959231
0.29959232
0.29959231
0.29959232
0.29959231
0.29959231
0.29959231
0.29959231
0.29959231
0.29959231
0.29959231
0.29959232
0.29959231
0.29959231
0.29959231
0.29959231
0.29959231
0.29959231
0.29959232
0.29959232
0.29959232
0.29959232
0.29959232
0.29959232
0.29959232
0.29959232
0.29959232
0.29959232
0.29959232
0.29959231
0.29959231
0.29959231
0.29959231
0.29959231
0.29959232
0.29959232
0.29959232
0.29959232
0.29959232
0.29959231
0.2995922
0.29959073
0.29957353
0.29953713
0.3011565
0.32445254
0.34781289
0.35137939
0.42095641
0.55390669
0.5587897
0.57783177
0.59502742
0.59942138
0.59781577
0.5952693
0.59186212
0.5890077
0.5878892
0.5871308
0.58701378
0.58677138
0.58575398
0.58346044
0.57802121
0.56554955
0.5430658
0.50958611
0.46862455
0.42797202
0.3933105
0.36674276
0.3464787
0.32309671
0.28728668
0.24132963
0.2222187
0.21897125
0.22421024
0.21209146
0.14562244
0.086052237
0.023795381
0.22926031
0.27043179
0.28003231
0.26148963
0.25540063
0.18465963
0.007718889
0.074820157
0.1996422
0.29511171
0.3418781
0.4304821
0.53604963
0.62530622
0.69612216
0.74446536
0.78225264
0.80554359
0.80575139
0.80107856
0.79084384
0.78460796
0.78373893
0.79156761
0.80933499
0.84564436
0.86129002
0.78017456
0.29959409
0.29959231
0.29959231
0.29959231
0.29959231
0.29959231
0.29959231
0.29959231
0.29959231
0.29959231
0.29959231
0.29959231
0.29959231
0.29959231
0.29959231
0.29959231
0.29959231
0.29959231
0.29959231
0.29959231
0.29959231
0.29959231
0.29959231
0.29959231
0.29959231
0.29959231
0.29959231
0.29959231
0.29959231
0.29959231
0.29959231
0.29959231
0.29959231
0.29959231
0.29959231
0.29959231
0.29959231
0.29959231
0.29959231
0.29959232
0.29959231
0.29959232
0.29959231
0.29959231
0.29959231
0.29959231
0.29959231
0.29959231
0.29959231
0.29959231
0.29959232
0.29959231
0.29959231
0.29959231
0.29959231
0.29959231
0.29959232
0.29959232
0.29959232
0.29959232
0.29959232
0.29959232
0.29959232
0.29959232
0.29959232
0.29959232
0.29959232
0.29959231
0.29959231
0.29959231
0.29959231
0.29959231
0.29959232
0.29959232
0.29959233
0.29959232
0.29959232
0.29959231
0.29959219
0.29959061
0.29957068
0.29953876
0.30150374
0.32929288
0.35158759
0.35531645
0.42572031
0.55768888
0.56235298
0.58178327
0.59931226
0.6038399
0.6021321
0.59950487
0.59590816
0.59289948
0.59175494
0.59099481
0.59087508
0.59064255
0.58960308
0.58724899
0.5814826
0.56835887
0.54486051
0.5103787
0.46875842
0.42783036
0.39312705
0.36659549
0.34622936
0.32229695
0.28603582
0.24016438
0.22145357
0.21849755
0.22426853
0.21356711
0.1507349
0.097525543
0.0046216302
0.22578096
0.26816232
0.27781291
0.26152514
0.25689657
0.18841822
0.0054663134
0.083250331
0.20228155
0.29872067
0.34513349
0.43203899
0.53782545
0.62497068
0.69634455
0.74499619
0.78435248
0.80746171
0.8073553
0.80218876
0.7912653
0.78475355
0.78386466
0.79235599
0.81119456
0.8487685
0.86521458
0.78454536
0.29959422
0.29959231
0.29959231
0.29959231
0.29959231
0.29959231
0.29959231
0.29959231
0.29959231
0.29959231
0.29959231
0.29959231
0.29959231
0.29959231
0.29959231
0.29959231
0.29959231
0.29959231
0.29959231
0.29959231
0.29959231
0.29959231
0.29959231
0.29959231
0.29959231
0.29959231
0.29959231
0.29959231
0.29959231
0.29959231
0.29959231
0.29959231
0.29959231
0.29959231
0.29959231
0.29959231
0.29959231
0.29959231
0.29959231
0.29959231
0.29959231
0.29959232
0.29959232
0.29959231
0.29959231
0.29959231
0.29959231
0.29959231
0.29959231
0.29959231
0.29959231
0.29959231
0.29959231
0.29959231
0.29959231
0.29959231
0.29959232
0.29959232
0.29959232
0.29959232
0.29959232
0.29959232
0.29959232
0.29959232
0.29959232
0.29959232
0.29959232
0.29959231
0.29959231
0.29959231
0.29959231
0.29959231
0.29959231
0.29959232
0.29959233
0.29959232
0.29959232
0.29959231
0.29959218
0.29959046
0.29956723
0.29953659
0.30197705
0.3341986
0.35511736
0.35909025
0.42673738
0.55782784
0.56263192
0.5820783
0.60027007
0.60502962
0.60321397
0.60049233
0.59669974
0.59348328
0.59229621
0.59152065
0.59139647
0.59119747
0.59020115
0.58790508
0.58209004
0.56888509
0.54511552
0.51045259
0.46866142
0.42762617
0.39302074
0.36680429
0.34682085
0.32268951
0.28577645
0.24092283
0.22363924
0.22137839
0.22809076
0.21357458
0.15190787
0.11034426
0.019851947
0.23275038
0.27370558
0.28302007
0.26625874
0.26238173
0.20033334
0.020125663
0.073963118
0.19743413
0.29802012
0.34494292
0.43227273
0.53915064
0.62563463
0.69812611
0.74723804
0.78735478
0.81036369
0.81021507
0.80495876
0.79385903
0.78734457
0.78626592
0.79470173
0.8134675
0.8512488
0.86790005
0.78723836
0.29959435
0.29959231
0.29959231
0.29959231
0.29959231
0.29959231
0.29959231
0.29959231
0.29959231
0.29959231
0.29959231
0.29959231
0.29959231
0.29959231
0.29959231
0.29959231
0.29959231
0.29959231
0.29959231
0.29959231
0.29959231
0.29959231
0.29959231
0.29959231
0.29959231
0.29959231
0.29959231
0.29959231
0.29959231
0.29959231
0.29959231
0.29959231
0.29959231
0.29959231
0.29959231
0.29959231
0.29959231
0.29959231
0.29959231
0.29959231
0.29959231
0.29959232
0.29959232
0.29959231
0.29959231
0.29959231
0.29959231
0.29959231
0.29959231
0.29959232
0.29959231
0.29959231
0.29959231
0.29959231
0.29959231
0.29959231
0.29959232
0.29959232
0.29959232
0.29959232
0.29959232
0.29959232
0.29959232
0.29959232
0.29959232
0.29959232
0.29959232
0.29959231
0.29959231
0.29959231
0.29959231
0.29959231
0.29959231
0.29959232
0.29959233
0.29959232
0.29959232
0.29959232
0.29959218
0.29959036
0.29956295
0.29953078
0.30258998
0.33915034
0.35871293
0.36265483
0.42746604
0.55646341
0.56112002
0.58056365
0.59937619
0.60438944
0.60246613
0.59966414
0.59567141
0.59221405
0.59099016
0.59017604
0.59007127
0.58992262
0.58901635
0.58683012
0.58109417
0.56800398
0.54432759
0.50996671
0.46841937
0.42761022
0.39351996
0.36826667
0.34930923
0.32504466
0.2869218
0.24482075
0.22977427
0.22854443
0.23552046
0.21183391
0.13758988
0.095248023
0.093290472
0.25536178
0.29218394
0.30137367
0.28140124
0.27556921
0.21616892
0.055406759
0.032112332
0.1849245
0.29295083
0.34233424
0.43412952
0.54485526
0.63129093
0.70695972
0.75562427
0.79689458
0.81861438
0.81818799
0.81249807
0.80074682
0.79369412
0.79238517
0.8006207
0.81900962
0.85584466
0.87176983
0.79036327
0.29959449
0.29959231
0.29959231
0.29959231
0.29959231
0.29959231
0.29959231
0.29959231
0.29959231
0.29959231
0.29959231
0.29959231
0.29959231
0.29959231
0.29959231
0.29959231
0.29959231
0.29959231
0.29959231
0.29959231
0.29959231
0.29959231
0.29959231
0.29959231
0.29959231
0.29959231
0.29959231
0.29959231
0.29959231
0.29959231
0.29959231
0.29959231
0.29959231
0.29959231
0.29959231
0.29959231
0.29959231
0.29959231
0.29959231
0.29959231
0.29959231
0.29959232
0.29959232
0.29959231
0.29959231
0.29959231
0.29959231
0.29959231
0.29959231
0.29959231
0.29959231
0.29959231
0.29959231
0.29959231
0.29959231
0.29959231
0.29959231
0.29959232
0.29959232
0.29959232
0.29959232
0.29959232
0.29959232
0.29959232
0.29959232
0.29959232
0.29959232
0.29959231
0.29959231
0.29959231
0.29959231
0.29959231
0.29959231
0.29959232
0.29959233
0.29959232
0.29959232
0.29959232
0.29959218
0.29959027
0.29955763
0.29952277
0.30333334
0.34399334
0.36230967
0.36631366
0.43117505
0.5558486
0.55971936
0.57945402
0.59869643
0.60395235
0.60190605
0.59901551
0.59477958
0.59109474
0.58981164
0.58892734
0.58887101
0.58873226
0.58788985
0.58581382
0.58019719
0.56728374
0.54370071
0.50953219
0.46804419
0.42735741
0.39372669
0.36938082
0.35146161
0.32700468
0.28788623
0.24819796
0.23475904
0.23448345
0.24117429
0.20906985
0.11764288
0.057294541
0.14529682
0.27324809
0.30769013
0.31702555
0.29574829
0.28804715
0.22859032
0.086853468
0.0098993176
0.18210302
0.2922282
0.34258121
0.43638016
0.54978895
0.63631439
0.71482248
0.76342339
0.80534539
0.82633348
0.82576171
0.81977804
0.80761087
0.80016939
0.79866745
0.80678466
0.82505213
0.86166499
0.87763682
0.79610143
0.29959464
0.29959231
0.29959231
0.29959231
0.29959231
0.29959231
0.29959231
0.29959231
0.29959231
0.29959231
0.29959231
0.29959231
0.29959231
0.29959231
0.29959231
0.29959231
0.29959231
0.29959231
0.29959231
0.29959231
0.29959231
0.29959231
0.29959231
0.29959231
0.29959231
0.29959231
0.29959231
0.29959231
0.29959231
0.29959231
0.29959231
0.29959231
0.29959231
0.29959231
0.29959231
0.29959231
0.29959231
0.29959231
0.29959231
0.29959231
0.29959232
0.29959231
0.29959232
0.29959231
0.29959231
0.29959231
0.29959231
0.29959231
0.29959231
0.29959231
0.29959231
0.29959231
0.29959231
0.29959231
0.29959231
0.29959231
0.29959231
0.29959232
0.29959232
0.29959232
0.29959232
0.29959232
0.29959232
0.29959232
0.29959232
0.29959232
0.29959232
0.29959232
0.29959231
0.29959231
0.29959231
0.29959231
0.29959231
0.29959232
0.29959233
0.29959232
0.29959232
0.29959232
0.29959217
0.29959017
0.29955114
0.29951642
0.30421447
0.34870351
0.36590976
0.37005511
0.43969486
0.55756799
0.55999506
0.58045966
0.59985358
0.60530793
0.60311846
0.60010014
0.59557479
0.59165205
0.5902903
0.58930923
0.58930059
0.58915621
0.58834866
0.58634043
0.58079449
0.56770909
0.54385692
0.50948224
0.46765584
0.42704273
0.39422165
0.37161101
0.35516326
0.32960167
0.28849626
0.25340848
0.24222542
0.24494591
0.25153536
0.21211819
0.10397731
0.016914374
0.20671892
0.30014153
0.33282633