/*--------------------------------*- C++ -*----------------------------------*\
| =========                 |                                                 |
| \\      /  F ield         | OpenFOAM: The Open Source CFD Toolbox           |
|  \\    /   O peration     | Version:  2506                                  |
|   \\  /    A nd           | Website:  www.openfoam.com                      |
|    \\/     M anipulation  |                                                 |
\*---------------------------------------------------------------------------*/
FoamFile
{
    version     2.0;
    format      ascii;
    arch        "LSB;label=32;scalar=64";
    class       volScalarField;
    location    "0.2";
    object      T;
}
// * * * * * * * * * * * * * * * * * * * * * * * * * * * * * * * * * * * * * //

dimensions      [0 0 0 1 0 0 0];

internalField   nonuniform List<scalar> 
1375
(
245.65429
245.55027
245.671
245.65725
245.5549
245.6754
245.67285
245.65755
245.56045
245.67022
245.67635
245.6744
245.65724
245.55897
245.66334
245.67098
245.67721
245.67579
245.65949
245.55885
245.66096
245.66421
245.67161
245.67801
245.67696
245.66301
245.56581
245.66138
245.6619
245.66514
245.67211
245.67863
245.67788
245.66296
245.57188
245.66398
245.66249
245.66286
245.66599
245.67254
245.67907
245.67866
245.66399
245.56901
245.66778
245.66548
245.66365
245.66387
245.66679
245.67288
245.67943
245.67935
245.66537
245.57274
245.67014
245.66924
245.66688
245.66478
245.66492
245.66758
245.67315
245.67977
245.68011
245.66628
245.57357
245.67298
245.67138
245.67058
245.6682
245.6659
245.66595
245.66836
245.67341
245.6801
245.68085
245.66684
245.57574
245.67548
245.67418
245.67255
245.67178
245.66944
245.667
245.66694
245.66911
245.6737
245.68037
245.68124
245.66808
245.58247
245.67634
245.67524
245.67361
245.67284
245.67057
245.66807
245.66783
245.66983
245.67401
245.68051
245.68141
245.66963
245.58441
245.67753
245.67705
245.67615
245.67454
245.67379
245.67162
245.66909
245.66863
245.67051
245.67432
245.68051
245.68154
245.67189
245.58444
245.67782
245.67841
245.67765
245.67693
245.67536
245.67461
245.67258
245.67003
245.66936
245.67112
245.6746
245.68044
245.68171
245.67258
245.58706
245.67882
245.67891
245.67921
245.67818
245.6776
245.67605
245.67536
245.67338
245.67083
245.67002
245.67164
245.67483
245.68035
245.68188
245.67181
245.58738
245.68141
245.68119
245.67968
245.67979
245.67992
245.67866
245.67819
245.67663
245.67601
245.67405
245.6715
245.67061
245.67205
245.67499
245.68026
245.68204
245.6711
245.59131
245.68054
245.68268
245.682
245.68053
245.68049
245.68051
245.67914
245.67865
245.67715
245.67652
245.67461
245.67209
245.67115
245.67236
245.67509
245.68017
245.68213
245.67053
245.59684
245.67981
245.68224
245.68377
245.68294
245.6813
245.68114
245.68099
245.67958
245.67898
245.67758
245.67689
245.67502
245.6726
245.67165
245.67259
245.67515
245.68008
245.68205
245.67014
245.59613
245.68313
245.68113
245.68172
245.68354
245.68473
245.68369
245.68194
245.68171
245.68142
245.67999
245.67922
245.67802
245.67721
245.67534
245.67299
245.67208
245.67278
245.67518
245.67996
245.68187
245.67075
245.59633
245.7518
245.75406
245.7594
245.76741
245.77864
245.79312
245.80927
245.82597
245.84437
245.86632
245.89197
245.92144
245.95402
245.98964
246.02943
246.06793
246.10695
246.14556
246.18578
246.24026
246.28964
246.34316
246.40047
245.80354
245.81246
245.82391
245.83783
245.85442
245.87509
245.89987
245.92758
245.95595
245.98455
246.01743
246.05593
246.09251
246.121
246.1469
246.17575
246.20812
246.2353
246.25163
246.27301
246.30361
246.33035
246.34881
245.81455
245.81998
245.82599
245.83191
245.83811
245.84681
245.85898
245.8732
245.88519
245.89519
245.9099
245.93076
245.94591
245.95012
245.95167
245.96061
245.97518
245.98194
245.97958
245.97828
246.00161
246.01946
246.02788
245.75471
245.75016
245.74628
245.74261
245.74004
245.7396
245.74125
245.74754
245.75427
245.75941
245.76894
245.78474
245.7986
245.80482
245.81048
245.82427
245.84091
245.85011
245.85113
245.8581
245.88498
245.90768
245.92046
245.68349
245.67517
245.66877
245.66419
245.66181
245.66157
245.66408
245.67238
245.68122
245.68962
245.70266
245.72008
245.73616
245.74601
245.75662
245.77373
245.7925
245.80475
245.8109
245.82302
245.85012
245.87384
245.88671
245.63555
245.62807
245.62317
245.62055
245.61991
245.6219
245.62852
245.63875
245.64977
245.66133
245.67674
245.69558
245.71293
245.72504
245.73781
245.75606
245.77533
245.78858
245.79699
245.81068
245.83665
245.85903
245.87218
245.60911
245.60354
245.60052
245.5995
245.59994
245.60465
245.61346
245.62459
245.63706
245.65062
245.66728
245.68667
245.70454
245.71778
245.7314
245.74929
245.76725
245.78084
245.79199
245.80661
245.82923
245.84842
245.86108
245.59587
245.59197
245.59031
245.59009
245.5919
245.59822
245.60743
245.61883
245.63221
245.64702
245.66431
245.6836
245.70162
245.71533
245.72907
245.74618
245.76279
245.77663
245.7891
245.80293
245.8227
245.84192
245.85507
245.59001
245.5872
245.58621
245.58656
245.58966
245.59647
245.6054
245.61666
245.63051
245.64612
245.66363
245.68249
245.70053
245.71448
245.72798
245.74402
245.75956
245.77411
245.78765
245.79985
245.81576
245.83663
245.85046
245.86281
245.58803
245.58579
245.58503
245.58591
245.58979
245.5967
245.60516
245.61617
245.63022
245.64629
245.6636
245.68178
245.69989
245.71431
245.72765
245.74256
245.75714
245.77242
245.78704
245.79808
245.8089
245.83108
245.84529
245.85378
245.58799
245.58598
245.58533
245.58648
245.59077
245.59772
245.60584
245.61654
245.6306
245.64689
245.66377
245.6811
245.69919
245.71431
245.72775
245.74196
245.75561
245.77076
245.78479
245.79441
245.80398
245.82734
245.84078
245.83884
245.58691
245.58636
245.58753
245.59199
245.59908
245.60706
245.61737
245.63116
245.64747
245.66393
245.68046
245.69849
245.71456
245.72825
245.74173
245.75359
245.76747
245.78086
245.78991
245.80237
245.82281
245.83241
245.83015
245.5881
245.58771
245.58869
245.59314
245.60046
245.60846
245.61829
245.63145
245.64754
245.66369
245.67972
245.69785
245.71492
245.72871
245.74042
245.74936
245.76136
245.77815
245.78925
245.79927
245.81318
245.82146
245.82424
245.58919
245.58908
245.58975
245.59389
245.60145
245.60958
245.61883
245.63101
245.64692
245.66332
245.67925
245.6969
245.71371
245.72747
245.73898
245.74677
245.75518
245.77494
245.78725
245.79213
245.80124
245.81107
245.81854
245.59004
245.59006
245.59057
245.59406
245.60166
245.61001
245.61896
245.63023
245.64595
245.66281
245.67863
245.69531
245.71056
245.72365
245.73739
245.74661
245.75086
245.76616
245.78152
245.78761
245.78974
245.80005
245.80392
245.5905
245.59047
245.59108
245.59392
245.60117
245.60962
245.61861
245.62925
245.64464
245.66162
245.677
245.6932
245.70756
245.71915
245.73223
245.74458
245.75052
245.7564
245.77285
245.78044
245.78305
245.787
245.78844
245.79234
245.59024
245.59016
245.59106
245.59344
245.60021
245.60862
245.61767
245.62768
245.64228
245.65923
245.67384
245.69003
245.7057
245.71693
245.72574
245.73833
245.74771
245.75353
245.76201
245.77018
245.7747
245.77653
245.77832
245.78057
245.58961
245.58927
245.59032
245.59247
245.59848
245.6068
245.61606
245.62553
245.63868
245.65614
245.67114
245.68537
245.70165
245.71358
245.72103
245.73222
245.74268
245.74887
245.75364
245.75918
245.76307
245.76696
245.76788
245.76933
245.5888
245.58817
245.58893
245.59129
245.59625
245.60398
245.61361
245.62338
245.63498
245.65177
245.66773
245.68005
245.69517
245.70798
245.71787
245.72698
245.7362
245.74267
245.74684
245.74949
245.75161
245.75508
245.75551
245.75961
245.75295
245.58776
245.5869
245.58717
245.58983
245.59415
245.60111
245.61055
245.62092
245.63126
245.6461
245.66293
245.67598
245.69016
245.70274
245.71343
245.72147
245.73011
245.73527
245.73858
245.73973
245.74211
245.7442
245.74768
245.74492
245.73989
245.58686
245.58591
245.58588
245.58833
245.59273
245.59869
245.60663
245.6178
245.62858
245.64141
245.65777
245.67188
245.68421
245.69634
245.70737
245.71581
245.72387
245.72907
245.7296
245.73197
245.73577
245.73778
245.73963
245.73206
245.73516
245.58602
245.58523
245.58513
245.58669
245.59123
245.59689
245.60346
245.61463
245.62595
245.63711
245.65363
245.66916
245.67938
245.69036
245.7007
245.70853
245.7169
245.72256
245.72462
245.72772
245.72909
245.73323
245.72874
245.72657
245.72674
245.7163
245.58566
245.58494
245.58495
245.58499
245.58874
245.59511
245.60188
245.61151
245.62343
245.63519
245.64976
245.66511
245.67508
245.68561
245.69477
245.70233
245.70964
245.71478
245.72064
245.72178
245.72359
245.724
245.7202
245.71956
245.71733
245.71116
245.58524
245.58413
245.58446
245.58482
245.58651
245.59319
245.6005
245.6088
245.62091
245.63379
245.64616
245.65969
245.67191
245.68197
245.68897
245.69683
245.70289
245.70893
245.71275
245.71446
245.71807
245.71526
245.71339
245.71503
245.71214
245.70664
245.58454
245.58324
245.58373
245.58453
245.58561
245.59109
245.59898
245.60725
245.61772
245.63079
245.64343
245.65553
245.66752
245.67763
245.68586
245.69249
245.6975
245.70267
245.70498
245.70716
245.71065
245.70977
245.70835
245.711
245.70825
245.70332
245.70145
245.58238
245.5826
245.58348
245.58603
245.59018
245.59655
245.60461
245.61494
245.6264
245.63997
245.65219
245.66334
245.67365
245.68264
245.68848
245.69331
245.69638
245.6994
245.702
245.70348
245.70312
245.70372
245.70576
245.70393
245.70028
245.6979
245.58175
245.58188
245.58305
245.58553
245.58874
245.59358
245.60153
245.61162
245.62365
245.6366
245.64865
245.66059
245.67039
245.67812
245.68411
245.6895
245.69268
245.69548
245.69717
245.69764
245.69891
245.70048
245.70029
245.69713
245.69505
245.69338
245.6892
245.581
245.58068
245.58153
245.58433
245.58734
245.59204
245.59866
245.6084
245.6212
245.63311
245.64577
245.65729
245.6668
245.67495
245.68113
245.6864
245.68977
245.69272
245.69464
245.6946
245.69448
245.69447
245.69354
245.69155
245.68987
245.68908
245.68635
245.58023
245.57975
245.58038
245.5825
245.58568
245.59013
245.59696
245.60687
245.61807
245.63045
245.64248
245.65331
245.66352
245.67178
245.67808
245.6832
245.68757
245.69055
245.69206
245.69235
245.69208
245.69141
245.69093
245.68902
245.68753
245.68635
245.68388
245.57953
245.57898
245.57946
245.58075
245.58385
245.58911
245.59664
245.60582
245.61622
245.6278
245.63842
245.64967
245.65979
245.66763
245.67527
245.68069
245.68431
245.68677
245.68874
245.68978
245.69033
245.69041
245.69022
245.68897
245.68738
245.686
245.68397
245.57871
245.57859
245.57902
245.58
245.58239
245.58844
245.59582
245.60447
245.61519
245.62564
245.63559
245.64641
245.65503
245.66296
245.67066
245.67626
245.68047
245.6842
245.68623
245.68783
245.68877
245.68888
245.68903
245.68791
245.68679
245.68583
245.68461
245.57787
245.5783
245.57938
245.58251
245.58805
245.5947
245.60406
245.61478
245.62406
245.63376
245.6431
245.65103
245.65864
245.66616
245.67185
245.67667
245.68035
245.68295
245.68511
245.68631
245.68726
245.68761
245.68752
245.68724
245.6865
245.68573
245.57657
245.57722
245.5785
245.58253
245.58799
245.5948
245.60441
245.6141
245.62409
245.63415
245.64256
245.65075
245.65845
245.66474
245.66963
245.67419
245.67766
245.68059
245.68224
245.68334
245.68412
245.68444
245.6848
245.68472
245.68456
245.68423
245.57564
245.57581
245.57804
245.58239
245.58763
245.59616
245.60504
245.61419
245.62468
245.63405
245.64299
245.6519
245.65875
245.66487
245.67021
245.67422
245.67762
245.68008
245.68149
245.68246
245.68291
245.68309
245.68319
245.68309
245.68293
245.68251
245.57565
245.5787
245.58169
245.58893
245.59743
245.60553
245.61598
245.62612
245.63535
245.64494
245.65246
245.65928
245.66551
245.66999
245.67341
245.67666
245.67872
245.68033
245.68158
245.68223
245.68262
245.68274
245.68264
245.68246
245.68215
245.57567
245.57822
245.5846
245.5919
245.59969
245.60944
245.61917
245.62753
245.63722
245.64542
245.65231
245.659
245.66414
245.66853
245.67262
245.6755
245.67776
245.67973
245.68092
245.6816
245.68189
245.68195
245.6819
245.6818
245.68165
245.57695
245.58166
245.58846
245.59552
245.60419
245.61347
245.62215
245.63087
245.6391
245.64637
245.65346
245.65899
245.66385
245.66824
245.67141
245.67372
245.67606
245.67763
245.6788
245.6796
245.68002
245.68026
245.68034
245.68033
245.68021
245.586
245.59288
245.60083
245.60944
245.61825
245.6265
245.6348
245.64235
245.64902
245.65474
245.65997
245.66463
245.66816
245.67081
245.67301
245.67479
245.67625
245.67741
245.67807
245.67868
245.67899
245.67914
245.67921
245.67922
245.59186
245.59913
245.60752
245.61627
245.62438
245.63245
245.6399
245.64647
245.65251
245.65795
245.66232
245.6659
245.6691
245.67148
245.67313
245.67514
245.67644
245.67714
245.67791
245.6782
245.67831
245.67842
245.67845
245.67831
245.60721
245.61526
245.62338
245.63116
245.63849
245.64503
245.65086
245.65621
245.66079
245.6646
245.66779
245.67052
245.6725
245.67425
245.67549
245.67607
245.67677
245.6771
245.67735
245.67762
245.67768
245.67761
245.67749
245.62503
245.63258
245.63945
245.64558
245.65105
245.65568
245.65984
245.66331
245.66591
245.66805
245.66982
245.67122
245.67244
245.67337
245.67422
245.67484
245.67529
245.67569
245.67582
245.67583
245.67572
245.67556
245.63522
245.64112
245.64644
245.65118
245.65526
245.6589
245.66198
245.66459
245.66685
245.66863
245.6702
245.67144
245.67228
245.67299
245.67348
245.67364
245.67383
245.67391
245.67377
245.67365
245.67353
245.67327
245.64974
245.65367
245.6572
245.66015
245.66272
245.66494
245.66673
245.66818
245.66939
245.67042
245.67113
245.6717
245.67225
245.67254
245.67276
245.67291
245.67292
245.67287
245.67286
245.67268
245.6724
245.66036
245.66258
245.66441
245.66598
245.66736
245.66855
245.66958
245.67036
245.671
245.67158
245.67198
245.67237
245.67275
245.67289
245.67288
245.67304
245.67312
245.67307
245.67302
245.67295
245.66856
245.66957
245.67056
245.67141
245.67201
245.6725
245.67291
245.67336
245.67376
245.6741
245.67442
245.67469
245.67487
245.67506
245.6752
245.67526
245.67529
245.67528
245.67523
245.67448
245.67511
245.67568
245.67624
245.67675
245.67715
245.67749
245.67774
245.67797
245.67824
245.67852
245.6788
245.67907
245.67931
245.67953
245.67971
245.67985
245.67895
245.67924
245.67975
245.6804
245.68095
245.68118
245.68123
245.68106
245.68083
245.68069
245.68066
245.68067
245.6807
245.68091
245.68124
245.68157
245.67217
245.67172
245.67315
245.6738
245.67522
245.67435
245.67436
245.67287
245.67164
245.67111
245.6707
245.67121
245.67067
245.67059
245.61482
245.61759
245.61557
245.60782
245.60344
245.60094
245.59913
245.59905
245.60137
245.59949
245.59617
245.59838
)
;

boundaryField
{
    Side
    {
        type            empty;
    }
    Inlet
    {
        type            totalTemperature;
        gamma           1.4;
        T0              uniform 250;
        value           nonuniform List<scalar> 
32
(
245.58063
245.58086
245.58173
245.58202
245.58213
245.58251
245.58222
245.58238
245.58319
245.58397
245.58374
245.58386
245.58481
245.5854
245.58512
245.58486
245.58545
245.58683
245.58763
245.58736
245.59071
245.59088
245.59055
245.58994
245.58936
245.58842
245.58808
245.58859
245.58871
245.58793
245.58716
245.58697
)
;
    }
    Airfoil
    {
        type            zeroGradient;
    }
    Outlet
    {
        type            inletOutlet;
        inletValue      nonuniform List<scalar> 0();
        value           nonuniform List<scalar> 0();
    }
    procBoundary2to1
    {
        type            processor;
        value           nonuniform List<scalar> 
75
(
245.65282
245.54994
245.66922
245.66922
245.67431
245.67431
245.66945
245.66945
245.6625
245.6625
245.66001
245.66001
245.66029
245.66029
245.66246
245.66246
245.66625
245.66625
245.6688
245.6688
245.67163
245.67163
245.67449
245.67449
245.67553
245.6766
245.6766
245.67659
245.67659
245.67794
245.67794
245.67996
245.68029
245.68029
245.67863
245.67863
245.67749
245.67749
245.68025
245.67896
245.67896
245.68443
245.68443
246.46376
246.35991
246.02863
245.93043
245.89947
245.88584
245.87521
245.86844
245.86844
245.88521
245.87313
245.86083
245.84616
245.83156
245.81595
245.80135
245.80135
245.79829
245.78326
245.76995
245.76995
245.75094
245.74443
245.73091
245.73091
245.71344
245.70631
245.70356
245.70356
245.69456
245.69183
245.69183
)
;
    }
    procBoundary2to3
    {
        type            processor;
        value           nonuniform List<scalar> 
65
(
245.79746
245.81137
245.76123
245.69454
245.64613
245.61781
245.60298
245.59602
245.59352
245.59336
245.58886
245.58886
245.59003
245.59121
245.59222
245.59273
245.59276
245.5925
245.5918
245.5909
245.59003
245.58911
245.5885
245.58815
245.58739
245.58372
245.58372
245.58248
245.58199
245.58181
245.58106
245.58015
245.57779
245.57779
245.57661
245.57582
245.57486
245.57486
245.57441
245.57472
245.57993
245.57993
245.58514
245.59933
245.59933
245.61701
245.61701
245.62811
245.64532
245.64532
245.65776
245.65776
245.66715
245.66715
245.67319
245.67382
245.67382
245.67881
245.67881
245.6729
245.67396
245.67396
245.61024
245.61458
245.61458
)
;
    }
    procBoundary2to9
    {
        type            processor;
        value           nonuniform List<scalar> 
23
(
245.74984
245.75248
245.75857
245.76641
245.77685
245.79142
245.8082
245.82507
245.84193
245.86169
245.88782
245.9197
245.95318
245.98685
246.02308
246.06155
246.10303
246.14445
246.18522
246.23425
246.28597
246.33989
246.40226
)
;
    }
    procBoundary2to10
    {
        type            processor;
        value           uniform 245.75151;
    }
}


// ************************************************************************* //
