/*--------------------------------*- C++ -*----------------------------------*\
| =========                 |                                                 |
| \\      /  F ield         | OpenFOAM: The Open Source CFD Toolbox           |
|  \\    /   O peration     | Version:  2506                                  |
|   \\  /    A nd           | Website:  www.openfoam.com                      |
|    \\/     M anipulation  |                                                 |
\*---------------------------------------------------------------------------*/
FoamFile
{
    version     2.0;
    format      ascii;
    arch        "LSB;label=32;scalar=64";
    class       volScalarField;
    location    "0.0085";
    object      omega;
}
// * * * * * * * * * * * * * * * * * * * * * * * * * * * * * * * * * * * * * //

dimensions      [0 0 -1 0 0 0 0];

internalField   nonuniform List<scalar> 
13761
(
16443.556
16443.187
16443.362
16443.012
16442.79
16442.999
16444.563
16446.105
16442.997
16442.759
16442.94
16443.96
16445.399
16447.536
16450.219
16443.001
16442.756
16442.932
16443.89
16445.323
16446.817
16449.194
16451.898
16453.861
16443.012
16442.757
16442.922
16443.87
16445.316
16446.753
16449.022
16451.063
16452.883
16455.873
16461.504
16443.016
16442.755
16442.914
16443.857
16445.313
16446.762
16448.973
16450.947
16452.726
16455.031
16460.304
16474.692
16516.88
16443.023
16442.757
16442.904
16443.844
16445.311
16446.767
16448.945
16450.916
16452.685
16454.886
16460.029
16473.255
16513.712
16650.924
17133.49
16443.024
16442.756
16442.896
16443.833
16445.303
16446.776
16448.921
16450.895
16452.654
16454.841
16459.873
16472.53
16510.758
16639.315
17090.077
18373.456
20356.591
22497.323
16443.032
16442.761
16442.886
16443.821
16445.296
16446.776
16448.899
16450.872
16452.625
16454.794
16459.746
16471.896
16507.895
16627.415
17047.342
18262.874
20191.746
22373.838
23563.89
22035.701
16443.035
16442.762
16442.874
16443.811
16445.285
16446.782
16448.877
16450.848
16452.591
16454.75
16459.615
16471.302
16505.094
16615.743
17004.742
18154.246
20027.589
22241.494
23591.019
22318.317
19032.259
18596.412
16443.042
16442.769
16442.863
16443.8
16445.274
16446.782
16448.855
16450.824
16452.557
16454.698
16459.494
16470.737
16502.403
16604.256
16962.491
18044.432
19856.435
22090.502
23590.583
22617.85
19116.795
18595.283
19052.688
19367.337
16443.044
16442.773
16442.849
16443.788
16445.261
16446.786
16448.832
16450.798
16452.519
16454.645
16459.373
16470.209
16499.813
16593.103
16920.793
17933.653
19677.949
21919.384
23571.09
22930.25
19220.509
18601.113
19027.312
19340.776
19268.013
18393.233
16443.051
16442.782
16442.835
16443.777
16445.247
16446.786
16448.808
16450.771
16452.481
16454.586
16459.259
16469.715
16497.357
16582.281
16879.91
17822.276
19492.768
21725.05
23542.486
23246.342
19349.454
18615.788
18997.893
19314.071
19317.323
18460.508
17956.675
18040.083
18646.268
16443.05
16442.788
16442.821
16443.764
16445.231
16446.79
16448.781
16450.743
16452.44
16454.525
16459.147
16469.258
16495.035
16571.896
16840.123
17710.407
19302.695
21505.086
23506.669
23553.668
19512.066
18641.197
18962.315
19291.882
19359.26
18536.297
17983.133
18023.823
18615.3
19842.987
23425.465
16443.052
16442.797
16442.811
16443.749
16445.215
16446.793
16448.755
16450.713
16452.398
16454.459
16459.041
16468.835
16492.876
16561.98
16801.732
17598.843
19108.95
21265.687
23446.939
23843.231
19720.066
18681.005
18920.75
19271.477
19393.986
18621.517
18013.89
18011.55
18585.34
19780.691
23249.262
38130.914
126246.32
296168.61
16443.051
16442.801
16442.805
16443.732
16445.197
16446.796
16448.727
16450.682
16452.354
16454.39
16458.94
16468.45
16490.882
16552.612
16765.087
17490.895
18908.69
21011.835
23345.299
24105.095
19990.461
18739.371
18871.891
19250.897
19420.906
18715.813
18048.397
18004.345
18556.32
19718.516
23067.507
37235.252
120275.93
282779.3
373254.88
106311.09
179320.59
16443.051
16442.807
16442.804
16443.71
16445.179
16446.796
16448.7
16450.65
16452.309
16454.316
16458.843
16468.103
16489.082
16543.836
16730.38
17386.722
18703.645
20743.429
23197.463
24316.298
20348.649
18815.94
18817.102
19229.052
19438.398
18816.642
18088.847
18002.427
18528.238
19656.438
22880.162
36268.271
113586.74
267980.31
343887.66
102014.22
169089.23
16443.049
16442.81
16442.804
16443.686
16445.158
16446.796
16448.671
16450.617
16452.262
16454.238
16458.75
16467.795
16487.481
16535.72
16697.855
17284.906
18498.46
20461.289
22999.978
24452.797
20830.984
18901.645
18766.547
19204.748
19445.459
18922.768
18136.98
18006.589
18501.071
19594.574
22687.328
35233.66
106162.7
251669.66
314977.07
97745.761
159330.62
16443.047
16442.818
16442.806
16443.661
16445.136
16446.796
16448.643
16450.583
16452.214
16454.155
16458.653
16467.529
16486.093
16528.318
16667.746
17186.667
18294.164
20166.903
22750.762
24505.181
21466.686
19009.228
18725.098
19176.829
19445.361
19032.691
18194.171
18017.583
18474.709
19533.002
22489.084
34140.3
98058.743
233782.36
286772.31
93546.67
149942.97
16443.042
16442.821
16442.807
16443.633
16445.111
16446.795
16448.613
16450.546
16452.165
16454.067
16458.555
16467.302
16484.897
16521.691
16640.255
17092.933
18092.807
19862.388
22450.561
24408.953
22260.604
19156.663
18698.328
19143.554
19433.035
19144.378
18261.545
18036.194
18448.95
19471.746
22285.518
33001.804
89426.424
214334.46
259421.43
89409.475
140881.72
16443.038
16442.829
16442.812
16443.607
16445.082
16446.792
16448.584
16450.508
16452.114
16453.974
16458.449
16467.124
16483.827
16515.882
16615.493
17004.694
17896.356
19548.351
22113.014
24243.133
23129.973
19359.564
18689.542
19103.766
19409.321
19254.199
18340.157
18063.482
18423.496
19410.696
22076.656
31835.104
80516.017
193444.4
233011.09
85332.425
132124.48
16443.03
16442.832
16442.815
16443.59
16445.047
16446.789
16448.553
16450.466
16452.061
16453.879
16458.338
16466.99
16482.877
16510.894
16593.55
16922.811
17707.143
19227.372
21739.266
24092.327
23890.606
19637.288
18699.445
19056.199
19379.026
19353.775
18431.13
18100.783
18398.065
19349.528
21862.394
30658.366
71643.363
171367.35
207509.07
81307.325
123667.39
16443.022
16442.839
16442.817
16443.58
16445.006
16446.783
16448.521
16450.422
16452.008
16453.779
16458.217
16466.885
16482.097
16506.673
16574.427
16848.063
17527.563
18905.18
21314.892
23979.492
24403.202
20028.428
18757.531
18996.091
19356.129
19427.483
18535.794
18149.489
18372.608
19287.689
21642.639
29489.431
63135.815
148541.81
182845.93
77335.619
115515.03
16443.012
16442.842
16442.82
16443.571
16444.961
16446.776
16448.488
16450.375
16451.953
16453.68
16458.085
16466.794
16481.496
16503.147
16558.082
16781.081
17359.701
18589.989
20873.167
23736.591
24672.124
20601.894
18880.615
18924.951
19338.062
19469.805
18655.854
18210.265
18347.798
19224.344
21417.402
28343.847
55272.05
125624.92
158907.25
73422.932
107678.44
16443.001
16442.849
16442.825
16443.565
16444.912
16446.764
16448.454
16450.324
16451.897
16453.581
16457.941
16466.717
16481.089
16500.286
16544.35
16722.302
17205.324
18285.286
20420.325
23379.674
24725.769
21408.069
19052.856
18862.277
19317.415
19485.163
18793.618
18281.456
18325.842
19158.334
21186.831
27233.314
48246.256
103488.06
135533.41
69575.735
100165.28
16442.987
16442.852
16442.829
16443.561
16444.863
16446.748
16448.419
16450.269
16451.841
16453.485
16457.785
16466.642
16480.862
16498.048
16533.023
16671.906
17066.071
17994.549
19960.75
22947.82
24528.439
22273.566
19270.318
18835.346
19290.864
19485.507
18950.688
18357.947
18311.284
19088.216
20951.379
26166.033
42165.918
83176.264
112661.06
65804.382
92980.995
16442.972
16442.86
16442.835
16443.56
16444.815
16446.727
16448.383
16450.21
16451.785
16453.392
16457.618
16466.552
16480.748
16496.455
16523.907
16629.759
16943.328
17721.557
19491.845
22494.245
24413.902
22941.336
19575.737
18837.043
19254.649
19470.563
19118.085
18442.508
18306.916
19012.405
20711.766
25147.767
37060.824
65759.695
90606.249
62119.976
86126.785
16442.955
16442.862
16442.84
16443.56
16444.768
16446.697
16448.347
16450.146
16451.729
16453.304
16457.44
16466.449
16480.656
16495.356
16516.862
16595.393
16838.036
17472.192
19018.586
21967.401
24315.408
23503.044
20022.225
18866.797
19205.182
19443.886
19280.969
18544.882
18315.059
18929.397
20468.906
24183.911
32895.211
52031.786
70837.26
58534.481
79599.572
16442.936
16442.866
16442.845
16443.563
16444.732
16446.655
16448.309
16450.074
16451.673
16453.22
16457.252
16466.331
16480.597
16494.668
16511.632
16568.149
16750.292
17251.967
18559.424
21320.642
24065.814
24068.952
20668.56
18925.832
19139.143
19412.546
19422.036
18669.289
18340.372
18838.272
20223.894
23281.804
29581.732
42123.421
55762.996
55058.009
73395.439
16442.917
16442.866
16442.848
16443.563
16444.708
16446.599
16448.27
16449.995
16451.616
16453.141
16457.057
16466.183
16480.565
16494.352
16507.931
16547.238
16679.274
17062.976
18134.613
20604.093
23695.788
24412.203
21536.879
19049.977
19053.804
19395.161
19516.723
18815.227
18386.887
18739.844
19977.96
22451.939
27002.918
35410.379
46069.94
51705.087
67511.567
16442.898
16442.865
16442.853
16443.564
16444.683
16446.533
16448.23
16449.908
16451.554
16453.064
16456.856
16466.012
16480.56
16494.262
16505.458
16531.849
16623.645
16905.403
17753.741
19890.742
23144.006
24555.188
22527.038
19305.605
18998.519
19377.077
19568.08
18980.194
18455.837
18639.033
19732.362
21706.133
25030.255
31085.303
40140.313
48227.406
61946.767
16442.88
16442.86
16442.856
16443.572
16444.656
16446.465
16448.188
16449.815
16451.485
16452.99
16456.653
16465.819
16480.57
16494.396
16503.952
16521.126
16581.78
16778.941
17424.804
19206.285
22389.467
24410.86
23478.272
19801.883
18992.594
19339.678
19586.092
19165.228
18539.337
18548.782
19488.372
21052.814
23528.799
28228.38
36221.231
44721.042
56696.878
16442.865
16442.852
16442.858
16443.584
16444.628
16446.4
16448.143
16449.714
16451.407
16452.914
16456.45
16465.61
16480.569
16494.592
16503.182
16514.101
16551.781
16681.399
17149.602
18565.811
21486.764
24079.375
24198.049
20641.377
19084.299
19273.64
19579.73
19372.916
18622.652
18490.343
19247.791
20491.864
22376.034
26202.864
33273.296
41298.539
51760.742
16442.854
16442.84
16442.857
16443.6
16444.604
16446.322
16448.092
16449.605
16451.319
16452.837
16456.244
16465.383
16480.559
16494.854
16502.889
16509.788
16531.6
16610.405
16931.143
17998.138
20523.57
23557.373
24541.461
21880.849
19345.37
19219.276
19560.376
19561.888
18750.152
18465.509
19015.065
20014.784
21475.097
24643.259
30811.663
38034.24
47142.429
16442.845
16442.825
16442.852
16443.615
16444.583
16446.236
16448.033
16449.487
16451.221
16452.756
16456.036
16465.137
16480.52
16495.136
16502.926
16507.34
16518.727
16561.606
16768.011
17526.741
19581.042
22705.315
24574.638
23392.75
19757.656
19220.814
19568.301
19688.415
18940.205
18480.945
18800.604
19608.909
20756.546
23364.595
28645.292
34975.408
42850.266
16442.837
16442.808
16442.842
16443.629
16444.569
16446.157
16447.963
16449.361
16451.111
16452.667
16455.828
16464.876
16480.444
16495.372
16503.132
16506.064
16510.734
16529.669
16651.386
17154.367
18713.032
21607.794
24301.91
24682.722
20595.664
19403.329
19578.158
19763.769
19196.724
18545.973
18626.79
19262.236
20173.38
22282.488
26712.442
32154.695
38895.442
16442.831
16442.79
16442.827
16443.638
16444.556
16446.091
16447.888
16449.229
16450.987
16452.566
16455.622
16464.599
16480.336
16495.551
16503.411
16505.486
16505.884
16510.256
16573.926
16881.813
17980.89
20428.061
23646.576
25321.423
22218.874
19847.752
19577.549
19816.901
19506.936
18645.455
18526.931
18968.241
19694.096
21361.139
24999.703
29596.435
35291.107
16442.829
16442.774
16442.805
16443.644
16444.544
16446.041
16447.797
16449.091
16450.843
16452.449
16455.424
16464.304
16480.193
16495.678
16503.659
16505.469
16502.998
16498.992
16525.824
16697.298
17412.132
19298.661
22504.06
25160.855
24285.406
20743.877
19718.018
19872.555
19810.853
18848.909
18500.167
18731.991
19297.157
20583.974
23507.064
27318.331
32050.204
16442.835
16442.761
16442.775
16443.646
16444.54
16445.989
16447.689
16448.945
16450.676
16452.311
16455.233
16463.987
16480.018
16495.765
16503.92
16505.69
16501.881
16491.923
16497.549
16581.334
17004.422
18306.94
21073.815
24579.751
25461.854
22423.403
20222.911
19991.154
20047.578
19203.094
18573.893
18575.849
18970.034
19938.504
22234.257
25331.634
29183.498
16442.841
16442.748
16442.739
16443.637
16444.544
16445.936
16447.581
16448.793
16450.485
16452.152
16455.042
16463.641
16479.808
16495.824
16504.169
16506.003
16502.052
16487.365
16482.479
16514.203
16735.773
17537.107
19666.645
23457.94
25733.41
24281.05
21314.398
20243.517
20232.19
19675.383
18718.635
18527.633
18714.934
19410.478
21175.438
23640.582
26697.806
16442.867
16442.735
16442.701
16443.615
16444.552
16445.885
16447.467
16448.651
16450.269
16451.977
16454.842
16463.259
16479.552
16495.863
16504.399
16506.311
16502.431
16485.691
16474.469
16480.027
16579.081
17005.713
18384.537
21717.231
25235.416
25596.15
23015.45
20918.065
20430.388
20159.08
19088.827
18583.189
18556.378
18987.25
20317.081
22240.832
24593.956
16442.888
16442.719
16442.667
16443.577
16444.554
16445.841
16447.364
16448.512
16450.025
16451.785
16454.626
16462.838
16479.237
16495.883
16504.601
16506.567
16502.943
16486.101
16469.894
16464.88
16498.796
16694.756
17441.757
19756.854
23711.996
26033.27
24945.837
22229.351
20910.013
20568.93
19716.534
18753.399
18512.701
18672.434
19639.024
21117.4
22864.491
16442.911
16442.705
16442.64
16443.523
16444.537
16445.791
16447.291
16448.344
16449.754
16451.564
16454.389
16462.368
16478.844
16495.873
16504.805
16506.815
16503.367
16486.875
16468.46
16457.852
16462.635
16536.815
16875.474
18174.065
21303.793
24885.719
26104.027
24176.987
21896.534
21023.46
20451.455
19228.11
18567.856
18495.72
19122.417
20243.875
21491.655
16442.932
16442.696
16442.62
16443.453
16444.506
16445.73
16447.234
16448.205
16449.481
16451.303
16454.132
16461.843
16478.341
16495.788
16504.986
16507.049
16503.742
16487.827
16469.096
16454.211
16448.933
16468.582
16590.44
17165.826
19053.262
22545.649
25547.629
25778.687
23647.334
21865.822
21104.393
20025.309
18815.168
18454.076
18766.031
19586.564
20445.416
16442.942
16442.712
16442.601
16443.368
16444.468
16445.656
16447.165
16448.093
16449.194
16450.99
16453.847
16461.267
16477.703
16495.602
16505.15
16507.306
16504.171
16488.719
16470.119
16453.479
16443.236
16443.83
16478.381
16675.161
17503.09
19757.662
23472.332
25997.464
25563.113
23438.803
21875.657
20953.305
19490.402
18615.422
18592.446
19118.331
19681.897
16442.934
16442.744
16442.585
16443.275
16444.416
16445.574
16447.08
16447.99
16448.914
16450.65
16453.511
16460.644
16476.891
16495.275
16505.268
16507.564
16504.628
16489.569
16471.273
16454.292
16440.313
16434.894
16441.646
16498.046
16774.176
17746.705
20287.126
24128.612
26326.883
25563.669
23329.928
21895.184
20596.873
19069.725
18611.505
18836.68
19149.066
16442.91
16442.767
16442.582
16443.186
16444.343
16445.484
16446.971
16447.896
16448.693
16450.26
16453.115
16459.956
16475.862
16494.744
16505.322
16507.802
16505.148
16490.456
16472.362
16455.411
16439.619
16430.111
16429.127
16444.98
16531.83
16834.707
17873.532
20634.442
24705.958
26801.429
25563.98
23303.449
21822.77
20115.585
18984.814
18744.219
18811.724
16442.896
16442.777
16442.593
16443.112
16444.247
16445.384
16446.833
16447.788
16448.488
16449.855
16452.674
16459.179
16474.575
16493.913
16505.213
16507.978
16505.754
16491.485
16473.416
16456.668
16440.156
16427.456
16422.863
16426.355
16460.138
16558.457
16848.555
17889.413
20814.947
25325.067
27300.695
25687.141
23331.964
21582.992
19956.425
19025.741
18675.492
16442.877
16442.765
16442.589
16443.07
16444.14
16445.27
16446.662
16447.66
16448.303
16449.5
16452.165
16458.315
16472.992
16492.67
16504.899
16508.078
16506.438
16492.765
16474.531
16457.991
16441.272
16426.45
16418.878
16418.173
16431.911
16477.267
16569.592
16828.687
17789.964
20833.804
25570.741
27715.232
25790.178
23607.512
21784.161
20106.061
18838.153
16442.86
16442.737
16442.557
16443.062
16444.027
16445.149
16446.461
16447.498
16448.125
16449.163
16451.594
16457.392
16471.091
16490.886
16504.287
16508.104
16507.075
16494.317
16475.845
16459.376
16442.888
16426.75
16416.451
16413.65
16417.975
16442.612
16488.407
16566.634
16779.486
17622.721
20462.363
25118.368
27710.458
26307.081
24740.381
22405.683
20195.382
16442.856
16442.711
16442.536
16443.058
16443.921
16445.028
16446.24
16447.294
16447.931
16448.842
16451.063
16456.33
16468.891
16488.439
16503.136
16507.877
16507.537
16496.106
16477.38
16460.786
16444.791
16428.061
16415.359
16410.317
16410.343
16422.899
16453.595
16493.02
16553.286
16726.613
17395.42
19614.571
24024.209
27633.555
27889.434
25782.361
23625.826
16442.862
16442.671
16442.508
16443.027
16443.831
16444.908
16446.01
16447.047
16447.707
16448.524
16450.507
16455.185
16466.512
16485.276
16501.223
16507.374
16507.754
16498.175
16479.24
16462.252
16446.824
16430.224
16415.702
16407.769
16405.758
16409.728
16430.64
16461.384
16492.272
16539.239
16673.341
17112.129
18642.739
22653.172
27136.303
28779.411
27288.147
16442.889
16442.635
16442.474
16442.991
16443.757
16444.785
16445.781
16446.762
16447.46
16448.219
16449.951
16454.068
16463.994
16481.474
16498.413
16506.155
16507.301
16500.342
16481.581
16463.936
16448.881
16432.898
16417.283
16406.597
16402.425
16402.185
16412.066
16437.728
16466.248
16492.113
16529.019
16609.838
16856.838
17851.773
20678.873
24808.325
28018.768
16442.933
16442.612
16442.443
16442.917
16443.691
16444.653
16445.558
16446.445
16447.18
16447.899
16449.396
16452.963
16461.426
16477.174
16494.618
16504.192
16506.23
16502.024
16484.492
16465.921
16450.845
16435.794
16420.075
16407.283
16400.525
16398.472
16400.163
16415.432
16443.476
16470.887
16491.882
16511.622
16547.975
16696.205
17238.079
18772.447
21707.593
16442.989
16442.602
16442.393
16442.837
16443.618
16444.514
16445.336
16446.119
16446.877
16447.572
16448.858
16451.877
16458.918
16472.565
16489.781
16501.38
16504.622
16502.949
16488.059
16468.474
16452.832
16438.687
16423.703
16409.661
16400.045
16395.837
16394.947
16399.208
16418.135
16446.931
16471.975
16486.531
16497.36
16525.885
16616.316
16879.808
17556.593
16443.047
16442.619
16442.363
16442.753
16443.486
16444.362
16445.123
16445.799
16446.538
16447.232
16448.345
16450.847
16456.549
16467.912
16484.12
16497.499
16502.689
16502.767
16492.011
16471.993
16455.16
16441.376
16427.577
16413.445
16401.539
16394.619
16392.138
16392.014
16398.801
16418.553
16445.14
16468.99
16485.556
16498.939
16517.85
16554.704
16633.101
16443.094
16442.645
16442.33
16442.66
16443.349
16444.218
16444.898
16445.501
16446.16
16446.864
16447.859
16449.905
16454.391
16463.434
16477.847
16492.398
16499.979
16501.36
16495.42
16476.558
16457.97
16443.806
16431.226
16418.167
16405.183
16395.369
16390.654
16389.374
16389.951
16397.846
16414.907
16439.495
16467.09
16488.802
16501.082
16509.491
16514.533
16443.128
16442.681
16442.318
16442.593
16443.215
16444.02
16444.672
16445.216
16445.771
16446.457
16447.389
16449.06
16452.466
16459.356
16471.373
16486.067
16496.23
16499.246
16497.326
16482.14
16462.084
16446.561
16434.451
16422.975
16410.638
16398.897
16391.083
16388.078
16387.525
16388.709
16394.61
16408.248
16432.235
16461.177
16485.446
16499.363
16503.069
16443.154
16442.708
16442.306
16442.539
16443.101
16443.81
16444.413
16444.914
16445.406
16446.007
16446.911
16448.305
16450.82
16455.86
16465.226
16478.714
16490.916
16496.501
16496.998
16487.804
16467.952
16450.264
16437.503
16427.204
16416.743
16405.175
16394.794
16388.616
16386.791
16386.477
16386.852
16390.712
16401.933
16421.513
16447.235
16472.337
16490.704
16443.187
16442.723
16442.288
16442.49
16443.01
16443.602
16444.147
16444.593
16445.025
16445.542
16446.385
16447.601
16449.409
16452.928
16459.774
16471.056
16484.001
16492.519
16494.809
16491.625
16475.18
16455.744
16441.111
16430.719
16422.011
16412.54
16402.116
16393.009
16387.819
16386.119
16385.562
16385.632
16388.818
16395.997
16408.776
16426.412
16448.392
16443.234
16442.731
16442.265
16442.442
16442.932
16443.408
16443.878
16444.268
16444.624
16445.061
16445.804
16446.881
16448.203
16450.567
16455.241
16463.694
16475.681
16486.771
16491.816
16492.141
16482.72
16463.774
16446.489
16434.489
16426.1
16418.739
16410.608
16401.455
16393.352
16388.294
16385.812
16385.183
16386.363
16388.374
16391.393
16395.155
16403.11
16443.29
16442.741
16442.237
16442.39
16442.846
16443.221
16443.612
16443.94
16444.237
16444.574
16445.157
16446.075
16447.116
16448.668
16451.633
16457.248
16466.806
16478.769
16487.31
16489.801
16487.633
16473.377
16454.693
16439.762
16429.928
16423.34
16417.547
16410.894
16403.201
16395.768
16390.072
16387.48
16387.253
16387.762
16388.145
16386.993
16386.349
16443.353
16442.755
16442.201
16442.338
16442.741
16443.035
16443.346
16443.607
16443.852
16444.108
16444.512
16445.211
16446.046
16447.078
16448.89
16452.176
16458.494
16468.853
16479.756
16485.781
16486.999
16481.062
16465.59
16448.394
16435.225
16427.079
16422.048
16417.877
16413.241
16407.323
16400.086
16393.723
16390.267
16389.135
16388.521
16387.781
16388.664
16443.414
16442.763
16442.162
16442.281
16442.619
16442.853
16443.067
16443.256
16443.444
16443.645
16443.92
16444.381
16444.942
16445.613
16446.703
16448.478
16451.881
16458.859
16469.291
16478.718
16483.063
16483.478
16475.505
16460.737
16444.916
16432.743
16425.554
16421.589
16419.048
16416.857
16413.175
16406.97
16399.125
16391.934
16387.457
16385.96
16386.444
16443.472
16442.77
16442.134
16442.221
16442.49
16442.664
16442.789
16442.903
16443.017
16443.144
16443.318
16443.605
16443.907
16444.217
16444.764
16445.628
16447.136
16450.743
16458.11
16468.336
16476.748
16480.105
16480.127
16472.038
16459.136
16444.535
16432.452
16425.017
16421.468
16420.147
16419.718
16419.06
16416.515
16410.696
16401.061
16390.61
16382.498
16443.537
16442.794
16442.123
16442.172
16442.367
16442.461
16442.506
16442.55
16442.596
16442.633
16442.695
16442.819
16442.925
16442.972
16443.083
16443.265
16443.665
16444.952
16448.567
16455.923
16465.746
16473.781
16477.165
16477.375
16470.926
16461.021
16447.524
16434.672
16425.763
16421.797
16420.701
16420.609
16421.579
16422.895
16423.556
16422.904
16415.889
16443.594
16442.825
16442.118
16442.128
16442.245
16442.247
16442.219
16442.215
16442.199
16442.142
16442.069
16441.996
16441.898
16441.764
16441.619
16441.392
16441.154
16441.066
16441.942
16445.064
16451.91
16461.344
16469.878
16474.378
16475.349
16471.78
16465.509
16454.808
16441.471
16429.419
16422.273
16419.835
16419.578
16421.46
16425.162
16428.893
16432.858
16443.63
16442.865
16442.116
16442.079
16442.141
16442.03
16441.94
16441.895
16441.832
16441.691
16441.479
16441.206
16440.881
16440.539
16440.181
16439.702
16439.096
16438.493
16438.071
16438.024
16440.389
16445.965
16455.238
16464.825
16471.378
16473.793
16473.825
16470.703
16465.269
16455.174
16442.496
16430.076
16421.316
16417.067
16415.744
16415.656
16417.177
16443.632
16442.894
16442.146
16442.057
16442.062
16441.831
16441.668
16441.585
16441.484
16441.256
16440.926
16440.488
16439.963
16439.42
16438.855
16438.185
16437.36
16436.361
16435.216
16434.336
16434.015
16434.872
16439.36
16447.227
16457.351
16466.551
16472.359
16474.505
16474.835
16474.031
16470.596
16463.497
16453.154
16440.125
16427.435
16417.276
16410.612
16443.601
16442.908
16442.205
16442.052
16441.992
16441.648
16441.394
16441.286
16441.153
16440.85
16440.404
16439.816
16439.13
16438.437
16437.738
16436.932
16435.948
16434.723
16433.171
16431.53
16430.324
16429.841
16429.953
16432.701
16438.053
16446.415
16456.436
16466.066
16473.146
16477.055
16478.761
16479.432
16479.661
16476.695
16470.811
16462.235
16450.997
16443.647
16442.796
16442.294
16442.053
16441.922
16441.48
16441.139
16440.983
16440.826
16440.481
16439.93
16439.202
16438.372
16437.551
16436.772
16435.917
16434.864
16433.522
16431.805
16429.856
16428.013
16426.631
16425.926
16425.766
16426.653
16429.824
16434.987
16442.849
16452.322
16462.245
16471.091
16477.981
16482.622
16485.489
16486.86
16487.177
16486.596
16442.622
16442.42
16442.047
16441.831
16441.328
16440.912
16440.697
16440.498
16440.115
16439.493
16438.663
16437.72
16436.782
16435.917
16435.02
16433.953
16432.6
16430.878
16428.911
16426.945
16425.181
16423.72
16422.694
16422.252
16422.243
16423.462
16426.269
16430.565
16436.605
16444.121
16452.935
16462.325
16471.384
16479.261
16485.462
16489.823
16442.959
16442.517
16442.043
16441.767
16441.218
16440.724
16440.446
16440.19
16439.765
16439.108
16438.221
16437.201
16436.172
16435.207
16434.25
16433.17
16431.835
16430.182
16428.327
16426.447
16424.667
16423.043
16421.579
16420.45
16419.83
16419.656
16419.827
16421.015
16422.983
16425.892
16429.855
16434.84
16440.739
16447.237
16454.041
16460.862
16443.188
16442.67
16442.04
16441.74
16441.171
16440.586
16440.223
16439.903
16439.446
16438.783
16437.866
16436.799
16435.703
16434.639
16433.604
16432.505
16431.224
16429.695
16427.991
16426.234
16424.504
16422.88
16421.384
16420.112
16419.163
16418.569
16418.297
16418.237
16418.444
16419.277
16420.593
16422.536
16425.039
16427.988
16431.329
16434.939
16443.449
16442.821
16442.048
16441.739
16441.175
16440.504
16440.053
16439.653
16439.152
16438.492
16437.593
16436.519
16435.365
16434.2
16433.073
16431.951
16430.744
16429.367
16427.831
16426.19
16424.502
16422.882
16421.413
16420.167
16419.2
16418.506
16418.046
16417.798
16417.727
16417.744
16418.016
16418.648
16419.449
16420.352
16421.407
16422.645
16443.736
16442.991
16442.069
16441.748
16441.219
16440.468
16439.925
16439.455
16438.912
16438.239
16437.367
16436.324
16435.159
16433.919
16432.708
16431.552
16430.395
16429.149
16427.779
16426.292
16424.752
16423.241
16421.87
16420.731
16419.811
16419.054
16418.431
16417.98
16417.771
16417.74
16417.843
16418.179
16418.619
16419.007
16419.339
16419.651
16444.062
16443.215
16442.142
16441.793
16441.287
16440.477
16439.872
16439.364
16438.762
16438.027
16437.148
16436.136
16435.003
16433.766
16432.533
16431.357
16430.217
16429.041
16427.792
16426.498
16425.204
16423.961
16422.81
16421.802
16420.939
16420.195
16419.555
16419.046
16418.734
16418.64
16418.658
16418.822
16419.081
16419.317
16419.476
16419.595
16444.47
16443.522
16442.256
16441.876
16441.406
16440.572
16439.871
16439.347
16438.708
16437.906
16436.987
16435.967
16434.872
16433.703
16432.494
16431.321
16430.188
16429.04
16427.87
16426.717
16425.631
16424.629
16423.699
16422.832
16422.029
16421.313
16420.722
16420.297
16420.065
16420.003
16420.028
16420.171
16420.362
16420.516
16420.585
16420.594
16445.01
16443.983
16442.429
16441.964
16441.548
16440.772
16440.018
16439.438
16438.731
16437.855
16436.904
16435.864
16434.809
16433.73
16432.62
16431.509
16430.399
16429.299
16428.222
16427.201
16426.27
16425.422
16424.613
16423.826
16423.088
16422.445
16421.942
16421.592
16421.391
16421.327
16421.337
16421.423
16421.529
16421.61
16421.659
16421.624
16445.631
16444.595
16442.718
16442.127
16441.768
16441.092
16440.253
16439.596
16438.866
16437.931
16436.92
16435.867
16434.827
16433.826
16432.836
16431.83
16430.789
16429.736
16428.726
16427.822
16427.037
16426.318
16425.596
16424.868
16424.197
16423.64
16423.212
16422.903
16422.704
16422.626
16422.63
16422.717
16422.819
16422.88
16422.91
16422.874
16446.334
16445.367
16443.171
16442.394
16442.063
16441.498
16440.539
16439.75
16439.032
16438.189
16437.248
16436.19
16435.129
16434.15
16433.212
16432.27
16431.303
16430.322
16429.379
16428.548
16427.85
16427.229
16426.614
16425.997
16425.434
16424.966
16424.592
16424.306
16424.109
16424.018
16424.011
16424.088
16424.215
16424.3
16424.318
16424.28
16447.132
16446.285
16443.821
16442.753
16442.39
16441.943
16440.955
16440.018
16439.298
16438.517
16437.641
16436.673
16435.674
16434.718
16433.8
16432.893
16431.985
16431.075
16430.202
16429.437
16428.812
16428.279
16427.774
16427.271
16426.794
16426.367
16426
16425.706
16425.512
16425.44
16425.443
16425.541
16425.696
16425.814
16425.855
16425.814
16447.951
16447.337
16444.793
16443.218
16442.697
16442.368
16441.579
16440.54
16439.722
16438.896
16438.017
16437.163
16436.316
16435.462
16434.591
16433.717
16432.874
16432.065
16431.291
16430.603
16430.045
16429.589
16429.163
16428.724
16428.279
16427.861
16427.489
16427.192
16427.008
16426.953
16426.967
16427.091
16427.263
16427.386
16427.433
16427.424
16448.778
16448.441
16446.165
16443.925
16443.048
16442.762
16442.297
16441.284
16440.305
16439.411
16438.523
16437.755
16437.044
16436.284
16435.48
16434.692
16433.961
16433.271
16432.606
16432.01
16431.532
16431.146
16430.775
16430.367
16429.936
16429.528
16429.171
16428.888
16428.715
16428.661
16428.673
16428.794
16428.982
16429.124
16429.186
16429.195
16449.574
16449.456
16447.884
16445.153
16443.564
16443.132
16442.876
16442.124
16441.093
16440.237
16439.427
16438.663
16437.939
16437.196
16436.469
16435.804
16435.191
16434.59
16433.997
16433.473
16433.077
16432.78
16432.5
16432.179
16431.829
16431.495
16431.202
16430.958
16430.799
16430.747
16430.755
16430.859
16431.05
16431.234
16431.343
16431.395
16450.332
16450.309
16449.536
16447.131
16444.549
16443.559
16443.286
16442.916
16442.116
16441.332
16440.617
16439.855
16439.093
16438.376
16437.729
16437.135
16436.556
16435.969
16435.401
16434.929
16434.615
16434.426
16434.285
16434.13
16433.962
16433.815
16433.692
16433.58
16433.494
16433.465
16433.479
16433.58
16433.739
16433.86
16433.909
16433.921
16451.116
16450.995
16450.642
16449.512
16446.63
16444.471
16443.785
16443.583
16443.215
16442.511
16441.835
16441.166
16440.498
16439.866
16439.255
16438.653
16438.061
16437.501
16436.999
16436.596
16436.333
16436.191
16436.107
16436.033
16435.974
16435.954
16435.961
16435.988
16436.004
16436.016
16436.04
16436.118
16436.179
16436.189
16436.053
16435.816
16452.091
16451.594
16451.325
16451.139
16449.722
16446.939
16445.1
16444.475
16444.187
16443.75
16443.147
16442.585
16442.013
16441.452
16440.882
16440.321
16439.824
16439.424
16439.089
16438.772
16438.473
16438.232
16438.036
16437.839
16437.615