/*--------------------------------*- C++ -*----------------------------------*\
| =========                 |                                                 |
| \\      /  F ield         | OpenFOAM: The Open Source CFD Toolbox           |
|  \\    /   O peration     | Version:  2506                                  |
|   \\  /    A nd           | Website:  www.openfoam.com                      |
|    \\/     M anipulation  |                                                 |
\*---------------------------------------------------------------------------*/
FoamFile
{
    version     2.0;
    format      ascii;
    arch        "LSB;label=32;scalar=64";
    class       volScalarField;
    location    "0.75";
    object      T;
}
// * * * * * * * * * * * * * * * * * * * * * * * * * * * * * * * * * * * * * //

dimensions      [0 0 0 1 0 0 0];

internalField   nonuniform List<scalar> 
1375
(
245.59488
245.54404
245.59669
245.59303
245.54283
245.5865
245.59502
245.59176
245.54086
245.57516
245.58427
245.59337
245.59095
245.54034
245.5671
245.57318
245.58205
245.59182
245.59015
245.54061
245.56074
245.56539
245.5711
245.57982
245.59035
245.58926
245.54147
245.55589
245.55919
245.56347
245.56897
245.57762
245.58884
245.58842
245.54311
245.55141
245.55448
245.55765
245.56146
245.56683
245.57548
245.58716
245.58747
245.54596
245.54901
245.55034
245.55302
245.55608
245.5595
245.56475
245.57336
245.58527
245.58611
245.54793
245.54654
245.54844
245.54938
245.55159
245.55456
245.55765
245.56276
245.57124
245.58316
245.58412
245.54868
245.54329
245.54626
245.54785
245.54857
245.55024
245.55304
245.55598
245.56094
245.56912
245.58093
245.58213
245.54852
245.53987
245.54334
245.54599
245.5473
245.54766
245.54893
245.55149
245.55444
245.55934
245.56712
245.57879
245.58051
245.54852
245.54006
245.54346
245.5458
245.54681
245.54671
245.54762
245.54999
245.55304
245.55789
245.56532
245.57683
245.57919
245.54876
245.53731
245.54027
245.54361
245.54567
245.54632
245.54589
245.54635
245.54862
245.55174
245.55647
245.56365
245.57511
245.57802
245.54898
245.53575
245.5379
245.54053
245.54376
245.54554
245.5458
245.5451
245.54516
245.54734
245.55053
245.5551
245.56207
245.57372
245.57707
245.54929
245.53493
245.53642
245.5385
245.54084
245.54392
245.5454
245.54526
245.54432
245.54405
245.54612
245.5495
245.55383
245.56059
245.57256
245.5762
245.54954
245.53246
245.5341
245.53577
245.53718
245.53909
245.54119
245.54412
245.54526
245.54471
245.54354
245.54309
245.545
245.54866
245.55263
245.55924
245.57158
245.57537
245.54966
245.53256
245.53353
245.53488
245.53663
245.53797
245.53969
245.54159
245.54436
245.54512
245.54418
245.54274
245.54227
245.54396
245.54795
245.55148
245.55798
245.57063
245.57455
245.54996
245.5348
245.53422
245.53485
245.53585
245.53753
245.5388
245.5403
245.54205
245.54462
245.54496
245.54373
245.54204
245.54157
245.54301
245.54722
245.55041
245.55676
245.56969
245.57365
245.5505
245.53681
245.53769
245.53697
245.53622
245.53657
245.53719
245.53854
245.53964
245.54089
245.54256
245.54489
245.5448
245.54334
245.54148
245.54102
245.54215
245.54652
245.54936
245.55557
245.56868
245.57268
245.55108
245.78719
245.78921
245.7895
245.78945
245.79217
245.80135
245.81429
245.8267
245.83866
245.85326
245.86969
245.88635
245.90097
245.91534
245.93614
245.96489
245.99357
246.02029
246.04865
246.08881
246.14739
246.20247
246.24367
245.83825
245.84588
245.85269
245.86057
245.87129
245.8857
245.90304
245.92192
245.94151
245.96185
245.97928
245.99628
246.01649
246.03719
246.0534
246.06398
246.075
246.09609
246.1228
246.14445
246.16119
246.1745
246.17766
245.84779
245.85105
245.85332
245.85505
245.85641
245.85748
245.85823
245.85958
245.86253
245.86469
245.86335
245.85774
245.85383
245.85195
245.84637
245.83417
245.82664
245.82833
245.84337
245.85324
245.85747
245.85922
245.85278
245.78667
245.77942
245.77208
245.76494
245.75714
245.74837
245.73925
245.73146
245.72661
245.72269
245.71657
245.70922
245.70411
245.70154
245.69872
245.69167
245.68774
245.69757
245.71799
245.73395
245.74379
245.75226
245.75598
245.7135
245.70345
245.6942
245.68579
245.67752
245.6694
245.66161
245.65516
245.65166
245.64957
245.64664
245.6438
245.64348
245.6448
245.64571
245.64243
245.64236
245.65533
245.67623
245.69537
245.71267
245.72412
245.73259
245.66437
245.65582
245.64849
245.64183
245.63541
245.62956
245.62435
245.62082
245.61961
245.61961
245.61948
245.61901
245.62087
245.62625
245.62851
245.62727
245.62799
245.64199
245.6626
245.68134
245.69827
245.70908
245.72115
245.63738
245.63084
245.62554
245.62075
245.61589
245.61151
245.60821
245.60651
245.6063
245.60805
245.60906
245.60942
245.61252
245.61919
245.62213
245.62204
245.62464
245.63805
245.65688
245.6739
245.68773
245.7016
245.7152
245.62393
245.61898
245.61526
245.6117
245.60766
245.60403
245.60175
245.60087
245.60132
245.60377
245.60518
245.60589
245.6091
245.6156
245.61898
245.62003
245.62445
245.63692
245.65436
245.67033
245.68094
245.69235
245.70951
245.61804
245.61412
245.61135
245.60847
245.60469
245.60137
245.59969
245.5992
245.60004
245.60245
245.60382
245.60479
245.60794
245.61369
245.61707
245.61898
245.62466
245.63614
245.6526
245.66799
245.67586
245.68365
245.70334
245.71738
245.61606
245.61268
245.61043
245.60789
245.60413
245.6009
245.5996
245.59943
245.6006
245.60264
245.60368
245.60488
245.6078
245.61249
245.61597
245.61919
245.6259
245.63503
245.64895
245.66466
245.67188
245.67634
245.69617
245.71147
245.61601
245.61281
245.61082
245.6085
245.60478
245.6016
245.60052
245.60059
245.60204
245.60356
245.60408
245.60534
245.6081
245.61204
245.61589
245.62062
245.6275
245.63332
245.64324
245.65901
245.66622
245.66991
245.68924
245.70402
245.61361
245.61177
245.60966
245.60618
245.6031
245.60195
245.602
245.60348
245.60462
245.60476
245.60586
245.60866
245.61257
245.61667
245.6219
245.62813
245.63179
245.63763
245.65246
245.65993
245.66364
245.68291
245.6898
245.61474
245.61292
245.61102
245.60794
245.60499
245.60344
245.60307
245.60425
245.60549
245.60587
245.60673
245.60919
245.61283
245.61643
245.62125
245.62758
245.63126
245.63389
245.64626
245.65358
245.65387
245.67331
245.68052
245.61586
245.61402
245.61226
245.6095
245.60663
245.60463
245.60372
245.60447
245.60621
245.60737
245.60793
245.60936
245.61191
245.61429
245.61873
245.62663
245.63064
245.63072
245.63827
245.64596
245.64255
245.65728
245.67484
245.61668
245.61481
245.61311
245.61039
245.60747
245.60532
245.6042
245.60468
245.60669
245.60797
245.60791
245.60831
245.61063
245.61246
245.61507
245.624
245.62906
245.62885
245.62953
245.64036
245.64369
245.64518
245.66178
245.61698
245.61513
245.61348
245.61066
245.60762
245.60555
245.60444
245.60449
245.60619
245.60761
245.60719
245.60656
245.60827
245.61106
245.61128
245.61665
245.62448
245.6268
245.62674
245.6333
245.639
245.63479
245.64621
245.64657
245.61666
245.6148
245.6133
245.61058
245.60749
245.60548
245.60424
245.6037
245.60428
245.6057
245.60587
245.60455
245.60441
245.60836
245.61039
245.61078
245.61664
245.62111
245.62141
245.62306
245.62764
245.62875
245.6323
245.63457
245.61599
245.61393
245.61243
245.60995
245.60689
245.60485
245.60359
245.60249
245.60211
245.60237
245.60288
245.60251
245.60209
245.60402
245.6072
245.60836
245.60875
245.61213
245.61479
245.61437
245.61867
245.61871
245.61722
245.61736
245.61506
245.61281
245.61127
245.60904
245.60579
245.6032
245.60162
245.60058
245.59999
245.59983
245.59984
245.59978
245.60015
245.6005
245.6
245.6033
245.60531
245.60505
245.60702
245.60779
245.60639
245.60662
245.60412
245.60407
245.60458
245.6139
245.61156
245.60992
245.60781
245.60448
245.60148
245.5996
245.59842
245.59755
245.59712
245.59696
245.59664
245.59626
245.5974
245.59727
245.5977
245.59955
245.60012
245.5993
245.60038
245.59614
245.5978
245.5957
245.59333
245.5891
245.61282
245.61029
245.60843
245.60624
245.60283
245.59969
245.59786
245.59677
245.59593
245.59481
245.594
245.5943
245.59353
245.59206
245.59395
245.59467
245.59507
245.59618
245.59278
245.59248
245.58956
245.58772
245.59015
245.58076
245.57575
245.61197
245.60904
245.60676
245.60451
245.60139
245.5984
245.59671
245.59527
245.59433
245.59335
245.59116
245.59061
245.59108
245.58986
245.59006
245.59066
245.59086
245.59013
245.58926
245.58622
245.58459
245.58173
245.57848
245.5722
245.57185
245.56522
245.61153
245.60806
245.60514
245.60279
245.60026
245.59767
245.59606
245.59425
245.59203
245.59051
245.58938
245.58821
245.58808
245.58726
245.58679
245.58722
245.58457
245.58493
245.58516
245.58003
245.57927
245.57928
245.57092
245.56811
245.5663
245.55594
245.61087
245.60728
245.60419
245.60169
245.59949
245.59704
245.5944
245.59224
245.59034
245.58788
245.58668
245.58622
245.58468
245.58367
245.5839
245.58285
245.58229
245.57954
245.57742
245.57572
245.57575
245.57264
245.56791
245.5679
245.56244
245.55433
245.61038
245.60645
245.60344
245.60092
245.59843
245.59603
245.59333
245.59039
245.58813
245.58559
245.58361
245.58315
245.58165
245.58033
245.57968
245.57879
245.57774
245.57528
245.57394
245.57114
245.57023
245.5668
245.56557
245.56668
245.56013
245.55313
245.54969
245.60559
245.60231
245.59995
245.5972
245.59402
245.59172
245.58922
245.58603
245.58411
245.58232
245.58001
245.57749
245.5768
245.57592
245.57378
245.57317
245.57306
245.56937
245.56807
245.56725
245.56264
245.56097
245.56251
245.55575
245.55122
245.54747
245.6054
245.60148
245.59856
245.59567
245.59189
245.58895
245.58717
245.58451
245.58254
245.58117
245.57815
245.5757
245.57369
245.57154
245.56926
245.56961
245.56717
245.56419
245.56654
245.56361
245.5603
245.55895
245.55626
245.55135
245.54894
245.54511
245.54018
245.60527
245.60059
245.5966
245.59347
245.59025
245.58692
245.58463
245.58266
245.5807
245.57921
245.57585
245.57357
245.57161
245.5694
245.56816
245.56605
245.5626
245.56183
245.5608
245.55838
245.55659
245.55533
245.55264
245.54954
245.54724
245.54358
245.54009
245.60492
245.59938
245.5947
245.5911
245.588
245.58513
245.58261
245.58034
245.57829
245.57606
245.57329
245.5713
245.56985
245.56716
245.56533
245.56431
245.56134
245.55833
245.55694
245.55445
245.55244
245.55201
245.54958
245.5474
245.54541
245.5426
245.54019
245.60405
245.59838
245.5931
245.58908
245.58594
245.583
245.58031
245.57773
245.57588
245.57349
245.57118
245.56948
245.56719
245.56491
245.56389
245.5622
245.55899
245.55679
245.5551
245.55221
245.55072
245.54954
245.5473
245.54532
245.54305
245.54104
245.53891
245.60265
245.59727
245.59198
245.58743
245.58365
245.5806
245.57779
245.57514
245.5732
245.57069
245.569
245.56728
245.56475
245.56295
245.56159
245.55914
245.55741
245.55568
245.55332
245.55163
245.54968
245.548
245.54603
245.54372
245.54193
245.53989
245.53807
245.59629
245.5911
245.58615
245.58169
245.57808
245.57488
245.5726
245.57025
245.56748
245.56568
245.56405
245.56229
245.56054
245.55862
245.55714
245.55556
245.5538
245.55207
245.55032
245.54868
245.54718
245.54556
245.54393
245.54222
245.54033
245.53845
245.59546
245.59031
245.58545
245.58063
245.57623
245.57239
245.56944
245.56658
245.56425
245.5625
245.56117
245.56007
245.55785
245.55631
245.55456
245.553
245.55156
245.55034
245.54898
245.54761
245.54645
245.54512
245.54383
245.54225
245.54055
245.53881
245.59457
245.58978
245.58456
245.57957
245.5747
245.57039
245.56688
245.56378
245.56142
245.55968
245.55861
245.55693
245.5558
245.55432
245.55279
245.55173
245.5506
245.54956
245.54842
245.54734
245.54614
245.54489
245.54353
245.54215
245.54086
245.53964
245.58789
245.58317
245.5787
245.57401
245.56987
245.56606
245.56259
245.55976
245.55739
245.55553
245.55395
245.55317
245.55195
245.55111
245.5499
245.54885
245.5479
245.54698
245.54612
245.54512
245.54421
245.5432
245.54225
245.54133
245.54048
245.58559
245.58108
245.57632
245.57205
245.5685
245.56513
245.56173
245.55872
245.55633
245.55421
245.55234
245.55108
245.54994
245.54887
245.54826
245.54747
245.54683
245.54609
245.54534
245.54464
245.544
245.54337
245.54275
245.54212
245.54151
245.58295
245.57791
245.5732
245.56925
245.56556
245.56236
245.55937
245.55677
245.55448
245.5526
245.55116
245.54978
245.54872
245.54814
245.54758
245.54724
245.54695
245.54651
245.54614
245.54565
245.54518
245.54468
245.5442
245.54369
245.54315
245.5745
245.56992
245.56577
245.56218
245.55896
245.556
245.55343
245.55134
245.5497
245.54842
245.54731
245.54663
245.54614
245.54583
245.54589
245.54582
245.54587
245.54583
245.54583
245.54582
245.54575
245.54561
245.5454
245.54516
245.56992
245.56528
245.56114
245.55775
245.55464
245.55195
245.54989
245.54806
245.54649
245.54519
245.54423
245.5436
245.54317
245.543
245.54295
245.54295
245.54311
245.54324
245.54347
245.54367
245.54389
245.5441
245.54435
245.54459
245.56138
245.55745
245.55414
245.5511
245.54874
245.54686
245.54522
245.54398
245.54296
245.54214
245.54152
245.54109
245.54084
245.54074
245.54073
245.54074
245.54099
245.54132
245.54168
245.54201
245.54234
245.54268
245.543
245.5545
245.55115
245.54828
245.54612
245.54424
245.54287
245.54193
245.54108
245.54036
245.53983
245.53943
245.53918
245.53895
245.5388
245.53878
245.53891
245.539
245.53918
245.53954
245.53995
245.54034
245.54082
245.55341
245.55054
245.54815
245.54617
245.54437
245.54301
245.54201
245.5411
245.54041
245.53995
245.5396
245.53931
245.53905
245.53889
245.53885
245.53881
245.53875
245.53885
245.53915
245.53957
245.53997
245.54047
245.5509
245.54925
245.54752
245.54587
245.54474
245.54354
245.5423
245.5415
245.54083
245.54025
245.53984
245.53954
245.5394
245.53941
245.53935
245.5394
245.5397
245.54003
245.54033
245.54081
245.54141
245.54991
245.54858
245.54771
245.5471
245.54605
245.54526
245.54467
245.54396
245.54336
245.54295
245.54267
245.5426
245.54268
245.54287
245.54322
245.54373
245.54414
245.54472
245.54535
245.54597
245.54703
245.54664
245.54629
245.54603
245.54584
245.54563
245.5454
245.54519
245.54501
245.54492
245.54491
245.54497
245.54512
245.5454
245.54589
245.54635
245.54683
245.54754
245.54841
245.5451
245.54505
245.54517
245.54535
245.54556
245.54591
245.54641
245.54701
245.54765
245.5483
245.54895
245.54969
245.55056
245.55143
245.55237
245.55337
245.55445
245.55491
245.5552
245.55559
245.556
245.55646
245.55696
245.55759
245.55842
245.55942
245.56055
245.56176
245.56301
245.56427
245.56551
245.56664
245.56769
245.55997
245.55975
245.55966
245.55976
245.56032
245.56132
245.56261
245.56392
245.56519
245.56657
245.56791
245.56921
245.57043
245.57157
245.55632
245.55733
245.55775
245.55718
245.55573
245.55428
245.55338
245.55265
245.55226
245.55219
245.55205
245.55163
)
;

boundaryField
{
    Side
    {
        type            empty;
    }
    Inlet
    {
        type            totalTemperature;
        gamma           1.4;
        T0              uniform 250;
        value           nonuniform List<scalar> 
32
(
245.58236
245.58208
245.58201
245.58185
245.58157
245.5815
245.58151
245.58146
245.58147
245.5817
245.58211
245.58224
245.58228
245.5823
245.58226
245.58227
245.58232
245.58241
245.58252
245.58267
245.58381
245.58393
245.58397
245.5839
245.58383
245.58381
245.58374
245.58367
245.5836
245.58336
245.58307
245.58284
)
;
    }
    Airfoil
    {
        type            zeroGradient;
    }
    Outlet
    {
        type            inletOutlet;
        inletValue      nonuniform List<scalar> 0();
        value           nonuniform List<scalar> 0();
    }
    procBoundary2to1
    {
        type            processor;
        value           nonuniform List<scalar> 
75
(
245.59519
245.54499
245.59846
245.59846
245.58867
245.58867
245.57703
245.57703
245.56871
245.56871
245.56218
245.56218
245.55726
245.55726
245.55249
245.55249
245.5496
245.5496
245.54685
245.54685
245.5433
245.5433
245.53972
245.53972
245.53645
245.53681
245.53681
245.53517
245.53517
245.53415
245.53415
245.53149
245.53333
245.53333
245.53102
245.53102
245.53266
245.53266
245.53353
245.53512
245.53512
245.53575
245.53575
246.28198
246.18482
245.85089
245.75585
245.73175
245.73269
245.72352
245.72106
245.72106
245.72789
245.71858
245.70952
245.69869
245.69354
245.6806
245.66098
245.66098
245.64341
245.6265
245.61389
245.61389
245.59838
245.58672
245.57862
245.57862
245.5577
245.55161
245.55021
245.55021
245.54209
245.54047
245.54047
)
;
    }
    procBoundary2to3
    {
        type            processor;
        value           nonuniform List<scalar> 
65
(
245.82881
245.84293
245.79141
245.72307
245.6737
245.64518
245.63043
245.62361
245.62107
245.62071
245.61684
245.61684
245.61796
245.61905
245.61981
245.62006
245.61983
245.61934
245.61852
245.6174
245.61647
245.61591
245.61575
245.61537
245.61536
245.61031
245.61031
245.61032
245.61047
245.61049
245.60934
245.60811
245.60162
245.60162
245.6008
245.59936
245.59288
245.59288
245.59084
245.58831
245.57959
245.57959
245.57508
245.56618
245.56618
245.55811
245.55811
245.55662
245.55312
245.55312
245.55086
245.55086
245.54768
245.54768
245.54528
245.54516
245.54516
245.55451
245.55451
245.55967
245.55985
245.55985
245.55419
245.55516
245.55516
)
;
    }
    procBoundary2to9
    {
        type            processor;
        value           nonuniform List<scalar> 
23
(
245.78558
245.78769
245.78858
245.78913
245.79126
245.79802
245.80899
245.82263
245.83887
245.8565
245.87196
245.88571
245.89932
245.91582
245.93432
245.95374
245.97466
246.00623
246.04479
246.09184
246.1424
246.19686
246.24493
)
;
    }
    procBoundary2to10
    {
        type            processor;
        value           uniform 245.78264;
    }
}


// ************************************************************************* //
