/*--------------------------------*- C++ -*----------------------------------*\
| =========                 |                                                 |
| \\      /  F ield         | OpenFOAM: The Open Source CFD Toolbox           |
|  \\    /   O peration     | Version:  2506                                  |
|   \\  /    A nd           | Website:  www.openfoam.com                      |
|    \\/     M anipulation  |                                                 |
\*---------------------------------------------------------------------------*/
FoamFile
{
    version     2.0;
    format      ascii;
    arch        "LSB;label=32;scalar=64";
    class       volScalarField;
    location    "0.0185";
    object      Co;
}
// * * * * * * * * * * * * * * * * * * * * * * * * * * * * * * * * * * * * * //

dimensions      [0 0 0 0 0 0 0];

internalField   nonuniform List<scalar> 
13761
(
0.0031860407
0.0029854089
0.0027885143
0.0026021124
0.0024286378
0.0022657994
0.0021161601
0.0019703955
0.0018391992
0.0017085779
0.0015934588
0.0030979515
0.0029126123
0.0027292091
0.002554551
0.0023912184
0.0022370727
0.0020948348
0.0019553941
0.0018294938
0.0017033376
0.0015918898
0.00305094
0.0028735549
0.0026972104
0.0025287548
0.0023708333
0.0022213563
0.0020831208
0.001947122
0.0018241209
0.0017004262
0.0015910115
0.0031795667
0.0030150296
0.0028436226
0.002672604
0.0025088535
0.0023550628
0.0022091641
0.0020740105
0.0019406727
0.0018199216
0.0016981455
0.0015903205
0.0031430365
0.0029840422
0.0028177232
0.0026512545
0.0024915422
0.002341313
0.0021985107
0.0020660332
0.0019350139
0.0018162298
0.0016961366
0.0015897098
0.0031105346
0.0029564092
0.0027945731
0.0026321257
0.0024759964
0.0023289408
0.0021889061
0.0020588277
0.0019298933
0.001812883
0.0016943126
0.001589154
0.0032186152
0.0030810669
0.0029313058
0.0027734952
0.0026146715
0.0024617829
0.0023176076
0.0021800924
0.0020522043
0.001925179
0.0018097968
0.001692628
0.0015886394
0.0031874182
0.0030540248
0.0029082259
0.0027540778
0.00259856
0.0024486381
0.0023071089
0.0021719143
0.0020460485
0.0019207909
0.0018069199
0.0016910555
0.001588158
0.0031585003
0.0030289142
0.0028867584
0.0027359823
0.0025835181
0.0024363445
0.0022972745
0.0021642426
0.0020402654
0.0019166628
0.0018042093
0.0016895719
0.001587703
0.0032687468
0.0031314803
0.0030054133
0.002866636
0.0027189904
0.002569369
0.0024247622
0.0022879949
0.0021569932
0.002034793
0.0019127511
0.0018016375
0.0016881628
0.00158727
0.0032396451
0.0031060781
0.0029832864
0.0028476614
0.0027029402
0.0025559824
0.0024137874
0.0022791901
0.0021501053
0.0020295863
0.001909025
0.0017991848
0.0016868172
0.0015868558
0.0032121898
0.0030820815
0.0029623526
0.0028296857
0.0026877106
0.0025432607
0.0024033423
0.0022707988
0.0021435329
0.0020246117
0.0019054608
0.0017968356
0.001685527
0.0015864581
0.0031862591
0.0030593891
0.0029425307
0.0028126426
0.0026732479
0.0025311617
0.002393395
0.0022627969
0.0021372578
0.0020198565
0.0019020497
0.0017945846
0.0016842895
0.0015860759
0.0033172063
0.0031616682
0.0030378448
0.0029236863
0.0027964195
0.0026594606
0.0025196115
0.0023838865
0.002255139
0.0021312454
0.0020152947
0.0018987741
0.0017924208
0.0016830987
0.0015857076
0.0032906181
0.0031382472
0.003017303
0.0029056971
0.0027809147
0.0026462645
0.0025085418
0.002374762
0.0022477813
0.0021254625
0.0020109022
0.0018956167
0.0017903327
0.0016819485
0.0015853514
0.0032652531
0.0031158793
0.0029976643
0.0028884783
0.0027660572
0.0026336015
0.0024979058
0.0023659843
0.0022406954
0.0021198874
0.002006663
0.0018925665
0.0017883132
0.0016808351
0.001585006
0.0033855677
0.0032409957
0.0030944652
0.0029788441
0.0028719593
0.0027517888
0.0026214238
0.0024876641
0.0023575226
0.0022338574
0.0021145014
0.0020025631
0.0018896137
0.0017863564
0.0016797553
0.0015846707
0.0033596002
0.0032177467
0.0030739208
0.0029607719
0.0028560796
0.0027380579
0.0026096896
0.0024777842
0.0023493503
0.0022272461
0.0021092892
0.0019985914
0.0018867506
0.0017844571
0.0016787062
0.0015843444
0.0033347242
0.0031954457
0.0030541951
0.0029434034
0.002840802
0.0027248351
0.0025983749
0.0024682462
0.0023414525
0.0022208505
0.0021042422
0.0019947418
0.0018839731
0.0017826128
0.0016776868
0.0015840271
0.0034277915
0.0033109304
0.0031740865
0.0030352859
0.0029267405
0.0028261308
0.0027121247
0.0025874845
0.0024590553
0.0023338342
0.0022146749
0.0020993641
0.0019910176
0.0018812836
0.0017808253
0.0016766979
0.0015837188
0.0034024906
0.0032880746
0.0031535445
0.003017085
0.0029106883
0.0028119835
0.0026998573
0.0025769608
0.0024501644
0.0023264568
0.0022086893
0.0020946322
0.0019874014
0.0018786699
0.0017790866
0.0016757352
0.0015834183
0.0033781647
0.0032660773
0.00313375
0.0029995321
0.0028951959
0.002798317
0.0026879968
0.0025667742
0.0024415489
0.002319301
0.0022028782
0.0020900338
0.0019838842
0.0018761257
0.0017773927
0.0016747967
0.0034639633
0.0033547429
0.0032448752
0.0031146494
0.0029825816
0.0028802233
0.0027850977
0.0026765145
0.0025569004
0.0024331896
0.0023123515
0.0021972297
0.0020855605
0.0019804597
0.0018736466
0.0017757407
0.0016738806
0.0034392189
0.0033321622
0.0032244143
0.0030961951
0.0029661935
0.0028657375
0.0027722972
0.0026653871
0.0025473208
0.0024250712
0.0023055961
0.0021917339
0.0020812047
0.0019771223
0.0018712286
0.0017741282
0.0016729858
0.0035296593
0.0034153546
0.0033103681
0.0032046461
0.0030783462
0.0029503324
0.0028517079
0.0027598892
0.002654592
0.002538017
0.002417179
0.0022990228
0.002186382
0.0020769595
0.0019738669
0.0018688683
0.0017725528
0.001672111
0.0035046056
0.0033923165
0.0032893133
0.0031855315
0.003061068
0.0029349684
0.002838109
0.0027478524
0.0026441117
0.0025289745
0.0024095012
0.0022926227
0.002181167
0.0020728195
0.0019706898
0.0018665629
0.0017710129
0.0016712552
0.0034805141
0.003370145
0.0032690368
0.0031671055
0.0030443945
0.0029201328
0.0028249692
0.0027362139
0.0026339705
0.0025202149
0.0024020566
0.0022864115
0.0021761018
0.0020687955
0.0019675989
0.0018643185
0.0017695126
0.0035579315
0.0034572991
0.003348764
0.0032494688
0.0031493066
0.0030282716
0.0029057789
0.0028122489
0.0027249381
0.0026241378
0.0025117128
0.002394824
0.0022803722
0.002171173
0.0020648768
0.0019645869
0.0018621299
0.0017680484
0.0035337297
0.0034348661
0.0033280884
0.0032305363
0.0031320706
0.0030126422
0.0028918565
0.0027999037
0.0027139873
0.0026145812
0.0025034407
0.0023877811
0.0022744867
0.0021663662
0.0020610526
0.001961645
0.0018599907
0.0017666162
0.0035103414
0.0034131705
0.0033080765
0.0032121992
0.0031153626
0.0029974773
0.0028783404
0.0027879127
0.0027033443
0.0026052859
0.0024953868
0.0023809181
0.002268747
0.0021616748
0.0020573175
0.0019587696
0.0018578986
0.0017652145
0.003578683
0.0034877164
0.0033921653
0.0032886901
0.0031944264
0.0030991539
0.0029827516
0.0028652084
0.0027762563
0.0026929916
0.0025962371
0.0024875392
0.0023742253
0.0022631453
0.0021570931
0.0020536673
0.0019559575
0.0018558511
0.0017638418
0.0035552016
0.0034658148
0.0033718168
0.0032698956
0.0031771864
0.0030834176
0.0029684419
0.0028524411
0.0027649178
0.002682916
0.0025874237
0.002479888
0.0023676949
0.0022576754
0.0021526159
0.0020500981
0.0019532059
0.0018538465
0.003621254
0.0035324659
0.0034445948
0.0033520857
0.0032516598
0.0031604506
0.0030681288
0.0029545274
0.0028400191
0.0027538814
0.0026731034
0.002578833
0.0024724236
0.0023613186
0.0022523311
0.0021482387
0.0020466061
0.0019505119
0.0018518826
0.0035978177
0.0035104398
0.0034240249
0.0033329442
0.0032339585
0.0031441977
0.0030532677
0.002940991
0.0028279283
0.0027431343
0.0026635436
0.0025704569
0.0024651392
0.0023550913
0.0022471077
0.0021439574
0.0020431887
0.0019478736
0.0018499582
0.0036564073
0.0035752141
0.003489182
0.0034041608
0.0033144461
0.0032168401
0.0031284727
0.0030388769
0.0029278712
0.0028162031
0.0027327086
0.0026542652
0.0025623204
0.0024580567
0.0023490318
0.0022420215
0.0021397861
0.002039857
0.0019452997
0.0018480797
0.0036332879
0.0035533658
0.0034686239
0.0033849377
0.0032965303
0.0032002511
0.0031132285
0.0030249141
0.0029151311
0.0028048113
0.0027225756
0.0026452436
0.0025544028
0.0024511586
0.0023431256
0.0022370605
0.0021357145
0.002036603
0.0019427842
0.0018462427
0.0036108978
0.0035321923
0.0034486903
0.0033662902
0.0032791389
0.0031841378
0.0030984149
0.0030113335
0.0029027313
0.0027937174
0.0027127047
0.0026364525
0.0025466801
0.0024444246
0.0023373555
0.0022322107
0.002131732
0.0020334183
0.0019403207
0.0018444428
0.0036639062
0.0035892016
0.003511663
0.0034293531
0.0033481886
0.0032622442
0.003168476
0.0030840122
0.0029981184
0.0028906562
0.002782909
0.0027030841
0.0026278811
0.0025391447
0.0024378483
0.0023317166
0.0022274683
0.002127835
0.0020303003
0.0019379072
0.0036417501
0.0035681613
0.0034917427
0.0034105808
0.0033306075
0.0032458241
0.0031532449
0.0030700006
0.0029852508
0.0028788903
0.0027723721
0.0026937028
0.00261952
0.0025317875
0.0024314226
0.0023262029
0.002222828
0.0021240199
0.0020272461
0.0019355416
0.0036902671
0.0036202623
0.0035477464
0.0034724031
0.0033923467
0.0033135201
0.003229854
0.0031384243
0.0030563636
0.0029727164
0.0028674215
0.0027620958
0.0026845506
0.0026113609
0.002524602
0.0024251418
0.0023208097
0.0022182864
0.0021202837
0.0020242534
0.0019332223
0.0036684405
0.0035994116
0.0035279274
0.0034536165
0.0033746262
0.0032969067
0.0032143161
0.0031239957
0.0030430834
0.0029604991
0.0028562355
0.0027520682
0.0026756181
0.0026033959
0.002517581
0.0024189997
0.0023155321
0.0022138395
0.0021166233
0.0020213199
0.0019309475
0.0037114042
0.0036472601
0.0035791677
0.003508675
0.0034353572
0.0033573959
0.0032807428
0.0031991894
0.0031099418
0.0030301452
0.0029485863
0.0028453213
0.0027422798
0.0026668958
0.0025956157
0.0025107178
0.0024129913
0.0023103658
0.0022094837
0.0021130359
0.0020184435
0.0019287156
0.0037500483
0.0036900107
0.0036267371
0.0035595427
0.003490003
0.0034176376
0.0033406667
0.0032650415
0.0031844854
0.0030962724
0.0030175584
0.0029369869
0.0028346876
0.0027327388
0.0026583926
0.0025880296
0.0025040191
0.002407122
0.0023053159
0.0022052236
0.0021095254
0.0020156272
0.0019265291
0.0037286122
0.0036693685
0.0036069236
0.003540586
0.0034719571
0.0034005018
0.0033244817
0.0032498425
0.0031702422
0.0030830236
0.0030053568
0.0029257317
0.002824362
0.0027234705
0.0026501306
0.0025806569
0.0024975036
0.0024014087
0.0023003967
0.0022010712
0.0021061018
0.0020128793
0.0037625799
0.0037078304
0.0036493472
0.0035876973
0.0035221826
0.0034544295
0.003383849
0.003308747
0.0032350579
0.0031563787
0.0030701209
0.0029934724
0.0029147596
0.0028142901
0.0027144267
0.0026420671
0.0025734601
0.0024911385
0.0023958227
0.0022955837
0.0021970062
0.0021027486
0.0020101866
0.0037417306
0.0036876669
0.0036299137
0.0035690272
0.0035043036
0.0034373942
0.0033676549
0.0032934388
0.0032206678
0.0031428773
0.0030575481
0.0029818905
0.0029040572
0.0028044601
0.0027055962
0.0026341928
0.002566431
0.0024849155
0.0023903576
0.0022908722
0.0021930249
0.0020994626
0.0020075467
0.0037710689
0.0037214997
0.0036680935
0.0036110398
0.0035508857
0.0034869235
0.0034208269
0.003351898
0.0032785392
0.0032066536
0.0031297206
0.0030452894
0.002970597
0.0028936122
0.0027948609
0.002696971
0.0026264998
0.0025595625
0.00247883
0.0023850092
0.0022862583
0.0021891239
0.0020962413
0.0020049575
0.0037961369
0.0037508302
0.0037018606
0.0036490841
0.0035927029
0.0035332536
0.0034700237
0.0034047096
0.0033365612
0.0032640312
0.0031930019
0.0031168974
0.0030333339
0.002959582
0.0028834159
0.0027854851
0.0026885434
0.0026189817
0.0025528497
0.0024728773
0.0023797735
0.002281739
0.0021853008
0.0020930828
0.0020024177
0.0037759476
0.0037311796
0.0036827841
0.0036306116
0.0035748767
0.0035161044
0.0034535805
0.0033890219
0.0033216247
0.0032498972
0.0031796952
0.0031043913
0.0030216683
0.0029488337
0.0028734576
0.0027763228
0.0026803051
0.0026116317
0.0025462859
0.0024670515
0.002374646
0.0022773102
0.0021815524
0.0020899846
0.0037968673
0.0037563455
0.0037120947
0.0036642501
0.0036126574
0.0035575437
0.0034994224
0.0034375775
0.0033737468
0.0033070751
0.003236124
0.003166722
0.0030921925
0.0030102816
0.0029383419
0.0028637286
0.0027673673
0.0026722512
0.0026044445
0.0025398668
0.0024613492
0.0023696235
0.0022729696
0.0021778769
0.0020869451
0.0038137404
0.0037773693
0.0037373084
0.003693552
0.0036462349
0.0035951977
0.00354068
0.0034831857
0.0034219965
0.0033588692
0.0032928963
0.0032226971
0.0031540689
0.0030802887
0.0029991645
0.0029280982
0.0028542212
0.0027586105
0.0026643735
0.0025974143
0.0025335878
0.0024557664
0.0023647025
0.0022687143
0.0021742718
0.0020839625
0.0038266644
0.0037944538
0.0037584852
0.0037188634
0.0036755781
0.0036287639
0.0035782584
0.0035243135
0.0034674197
0.0034068599
0.0033444082
0.0032791073
0.003209635
0.003141754
0.0030686965
0.0029883314
0.0029181168
0.0028449486
0.0027500654
0.0026566847
0.0025905516
0.0025274581
0.0024503114
0.0023598907
0.0022645508
0.0021707428
0.0020810414
0.0038359048
0.0038077401
0.0037758706
0.0037402796
0.0037010714
0.0036582316
0.0036118942
0.003561893
0.0035084923
0.0034521715
0.0033922127
0.0033304087
0.0032657519
0.0031969783
0.0031298148
0.0030574516
0.0029778151
0.0029084274
0.0028359394
0.0027417579
0.0026492081
0.0025838777
0.0025214967
0.0024450013
0.0023552032
0.0022604923
0.002167301
0.0020781913
0.0038416246
0.0038172675
0.0037893929
0.0037578474
0.0037226172
0.0036838034
0.0036413881
0.0035955066
0.0035459888
0.0034931113
0.0034373416
0.0033779624
0.0033167818
0.0032527442
0.0031846476
0.0031181779
0.0030464859
0.0029675548
0.002898974
0.0028271412
0.0027336404
0.0026419014
0.0025773554
0.0025156709
0.002439807
0.0023506145
0.0022565171
0.0021639284
0.002075397
0.0038441099
0.003823307
0.0037991948
0.0037715952
0.0037403567
0.0037054699
0.003667033
0.003625024
0.0035795787
0.0035305243
0.0034781496
0.0034229089
0.0033640877
0.0033035093
0.0032400698
0.003172628
0.00310683
0.0030357881
0.0029575387
0.0028897456
0.0028185449
0.0027257057
0.002634758
0.0025709781
0.0025099747
0.0024347237
0.0023461207
0.0022526218
0.0021606221
0.003843649
0.0038261444
0.0038055453
0.0037816637
0.0037543238
0.0037233782
0.003688818
0.0036507405
0.00360912
0.0035640923
0.0035154824
0.0034635903
0.0034088588
0.0033505761
0.003290579
0.0032277157
0.0031609087
0.0030957609
0.0030253472
0.0029477577
0.0028807348
0.0028101438
0.002717947
0.0026277722
0.0025647412
0.0025044042
0.0024297477
0.0023417187
0.0022488041
0.0021573801
0.0038405313
0.003826067
0.0038087247
0.0037883158
0.0037646525
0.0037375594
0.0037068909
0.0036726421
0.0036349071
0.0035936573
0.0035490295
0.0035008453
0.0034494176
0.0033951768
0.0033374128
0.0032779763
0.0032156696
0.0031494782
0.0030849598
0.0030151543
0.0029382038
0.0028719331
0.0028019301
0.002710358
0.0026209388
0.0025586398
0.0024989547
0.0024248756
0.0023374056
0.0022450613
0.0021542006
0.0038350811
0.0038233601
0.0038090199
0.0037918282
0.0037715994
0.0037481418
0.0037212808
0.0036908753
0.0036569227
0.0036195149
0.0035786191
0.0035343744
0.0034865998
0.0034356185
0.0033818492
0.0033245859
0.0032656908
0.0032039213
0.003138326
0.0030744176
0.0030052016
0.0029288692
0.0028633341
0.0027938992
0.0027029336
0.0026142525
0.0025526699
0.0024936233
0.0024201043
0.0023331789
0.0022413915
0.0021510817
0.003834935
0.0038276546
0.0038183407
0.0038067114
0.0037924867
0.0037754369
0.0037553751
0.0037321096
0.0037054685
0.0036753132
0.0036416425
0.0036045465
0.0035639894
0.0035201108
0.0034727287
0.0034221777
0.0033688625
0.0033120816
0.0032537098
0.0031924587
0.0031274422
0.0030641254
0.0029954799
0.0029197465
0.0028549301
0.0027860435
0.0026956688
0.0026077095
0.0025468273
0.0024884059
0.0024154306
0.0023290357
0.0022377924
0.0021480216
0.0038240688
0.0038185953
0.0038113604
0.0038021108
0.0037905657
0.0037764472
0.0037595289
0.0037396244
0.003716541
0.0036901076
0.0036601892
0.0036267876
0.0035899885
0.0035497548
0.0035062271
0.0034592209
0.0034090825
0.0033562051
0.0032998909
0.0032420245
0.0031812741
0.0031168186
0.003054075
0.0029859825
0.0029108302
0.0028467161
0.0027783583
0.0026885577
0.0026013047
0.0025411084
0.0024832995
0.0024108519
0.0023249741
0.0022342622
0.0038147454
0.0038121537
0.0038082295
0.0038027789
0.0037955844
0.0037863925
0.0037749231
0.0037609019
0.0037441047
0.0037243465
0.003701433
0.0036751945
0.0036454996
0.0036123527
0.0035758367
0.0035359111
0.0034927183
0.003446073
0.0033963319
0.003343875
0.0032880101
0.0032306316
0.0031703642
0.0031064526
0.0030442652
0.0029767077
0.0029021182
0.0028386908
0.0027708432
0.0026816012
0.0025950391
0.0025355134
0.0024783042
0.0024063685
0.0023209941
0.0022308012
0.003801256
0.0038015735
0.0038010686
0.0037995945
0.0037969834
0.0037930557
0.0037876174
0.0037804508
0.0037713029
0.0037598963
0.0037459592
0.0037292704
0.003709644
0.0036868836
0.0036608244
0.0036313375
0.0035984277
0.0035621763
0.0035225402
0.0034796635
0.0034333599
0.003383996
0.0033319398
0.0032765043
0.0032195926
0.0031597878
0.0030963993
0.0030347464
0.0029677034
0.0028936554
0.0028308943
0.0027635356
0.0026748327
0.0025889427
0.0025300704
0.0024734455
0.002402003
0.0023171157
0.0022274264
0.0037842938
0.0037858525
0.0037868035
0.003787059
0.0037865034
0.003784992
0.0037823576
0.0037784203
0.0037729872
0.0037658424
0.0037567319
0.0037453798
0.0037315174
0.0037149252
0.0036954185
0.0036728007
0.0036469075
0.0036176144
0.0035849286
0.0035489271
0.0035095654
0.0034669899
0.0034210123
0.0033720098
0.0033203372
0.0032653143
0.0032088524
0.0031494924
0.0030866099
0.0030254747
0.0029589281
0.0028854037
0.0028232924
0.0027564038
0.0026682241
0.0025829903
0.0025247562
0.0024687026
0.0023977371
0.002313323
0.0022241244
0.0037596064
0.0037630225
0.0037659847
0.003768482
0.0037704892
0.0037719641
0.0037728428
0.0037730368
0.0037724298
0.0037708784
0.0037682173
0.0037642673
0.0037588357
0.0037517051
0.0037426251
0.0037313201
0.0037175238
0.0037010209
0.0036816253
0.0036591396
0.0036334025
0.0036042914
0.0035718165
0.0035360525
0.0034969521
0.0034546634
0.0034089977
0.0033603421
0.0033090385
0.0032544133
0.0031983853
0.0031394542
0.0030770616
0.0030164275
0.0029503614
0.0028773452
0.0028158676
0.0027494317
0.0026617607
0.0025771695
0.0025195597
0.0024640653
0.0023935621
0.0023096085
0.0022208888
0.0037233226
0.0037289743
0.0037341221
0.0037387835
0.0037429754
0.0037467119
0.0037500029
0.0037528499
0.0037552431
0.0037571577
0.00375855
0.0037593558
0.0037594871
0.0037588277
0.0037572344
0.0037545436
0.0037505769
0.0037451415
0.0037380222
0.003728967
0.0037177024
0.0037039657
0.0036875425
0.0036682478
0.0036458833
0.0036202914
0.003591353
0.0035590776
0.0035235378
0.003484686
0.0034426706
0.0033973033
0.0033489805
0.0032980314
0.0032437899
0.0031881803
0.0031296626
0.0030677452
0.0030075977
0.0029419966
0.002869473
0.0028086138
0.0027426149
0.0026554382
0.0025714753
0.0025144772
0.0024595306
0.0023894752
0.0023059698
0.0022177176
0.0036497905
0.003659139
0.0036680405
0.0036765027
0.0036845119
0.0036920443
0.0036990776
0.0037055954
0.0037115942
0.0037170822
0.0037220769
0.0037265939
0.0037306484
0.0037342556
0.0037374264
0.0037401624
0.0037424542
0.0037442782
0.0037455902
0.0037463251
0.0037463933
0.00374568
0.0037440437
0.0037413207
0.0037373342
0.0037318913
0.003724776
0.0037157388
0.0037045081
0.0036908239
0.0036744733
0.0036552705
0.0036330184
0.003607562
0.0035787839
0.0035466969
0.0035113706
0.0034727537
0.0034309992
0.0033859176
0.0033379142
0.0032873064
0.0032334345
0.003178229
0.0031201103
0.0030586537
0.0029989775
0.0029338264
0.0028617815
0.0028015258
0.0027359478
0.0026492521
0.0025659047
0.0025095053
0.0024550952
0.0023854737
0.0023024046
0.0022472464
0.0024877683
0.0027237738
0.0029564251
0.0031830744
0.0033958489
0.0035825608
0.0037298394
0.0038305272
0.0038862942
0.0039045513
0.0038941955
0.0038632403
0.0038183347
0.0037651462
0.0037086385
0.0036530753
0.0036018929
0.0035574851
0.0035210907
0.0035024291
0.0035118295
0.0035328186
0.0035496071
0.0035635127
0.0035753638
0.0035858186
0.0035955148
0.0036048474
0.003614025
0.0036231085
0.0036321097
0.00364098
0.003649655
0.003658078
0.0036661897
0.003673929
0.0036812388
0.0036880788
0.0036944212
0.0037002552
0.003705589
0.0037104374
0.0037148156
0.0037187392
0.0037222229
0.0037252788
0.0037279088
0.003730104
0.0037318405
0.0037330736
0.0037337373
0.0037337423
0.0037329737
0.003731291
0.0037285329
0.0037245228
0.0037190686
0.003711954
0.0037029296
0.0036917264
0.0036780866
0.0036618004
0.0036426821
0.0036205334
0.0035952019
0.0035665749
0.0035346653
0.0034995394
0.0034611471
0.0034196416
0.0033748329
0.0033271361
0.0032768553
0.0032233396
0.0031685243
0.0031107909
0.0030497802
0.0029905617
0.0029258463
0.0028542663
0.0027945989
0.0027294266
0.0026431993
0.0025604546
0.0025046417
0.0024507571
0.0023815558
0.0022989116
0.0015231862
0.0014764297
0.0014709451
0.0015032188
0.0015717252
0.0017776056
0.0021244019
0.0024794087
0.0027843722
0.0030253411
0.0032014979
0.0033219999
0.0033990211
0.0034434929
0.0034642465
0.0034684253
0.0034860843
0.0035206692
0.0035470078
0.0035623574
0.0035706201
0.0035747702
0.0035768745
0.0035782807
0.0035799287
0.0035823449
0.0035856065
0.0035897809
0.003594969
0.0036011275
0.0036081123
0.003615703
0.0036236985
0.003631892
0.0036401056
0.0036482025
0.003656068
0.0036636055
0.0036707386
0.0036774142
0.0036835996
0.0036892843
0.0036944738
0.0036991837
0.0037034298
0.0037072281
0.0037105946
0.003713541
0.0037160698
0.0037181721
0.0037198232
0.0037209791
0.0037215727
0.0037215143
0.0037206896
0.0037189595
0.0037161641
0.0037121276
0.0037066573
0.0036995383
0.0036905215
0.0036793395
0.0036657383
0.0036495094
0.003630466
0.0036084113
0.0035831961
0.0035547098
0.0035229673
0.0034880314
0.0034498511
0.0034085824
0.0033640353
0.0033166336
0.0032666674
0.0032134951
0.0031590568
0.0031016951
0.0030411176
0.0029823426
0.0029180485
0.0028469208
0.0027878271
0.0027230466
0.002637275
0.0025551206
0.0024998825
0.0024465126
0.0023777187
0.0022954881
0.0046664984
0.0045349779
0.0043638819
0.004181622
0.0039929192
0.0038087468
0.003650446
0.003541123
0.0034947753
0.0035083894
0.0035617451
0.003630228
0.0036957764
0.0037489749
0.0037862434
0.0038068524
0.003811557
0.0038022979
0.0037820809
0.0037546399
0.0037238431
0.0036931267
0.0036650007
0.0036409488
0.0036215978
0.003606996
0.0035968919
0.0035907985
0.0035879973
0.0035879542
0.0035902702
0.0035945181
0.0036002661
0.0036070725
0.0036145747
0.0036224551
0.0036304578
0.0036383962
0.0036461253
0.0036535319
0.0036605314
0.003667071
0.0036731199
0.0036786673
0.0036837222
0.0036883025
0.0036924245
0.0036961047
0.0036993597
0.0037022021
0.0037046347
0.0037066473
0.0037082158
0.0037092955
0.0037098188
0.0037096961
0.0037088144
0.003707036
0.0037042013
0.003700135
0.0036946453
0.0036875172
0.003678503
0.0036673369
0.0036537671
0.003637588
0.0036186128
0.0035966437
0.0035715353
0.0035431802
0.003511594
0.003476838
0.003438859
0.0033978159
0.0033535188
0.0033063989
0.0032567356
0.0032038952
0.0031498203
0.0030928168
0.0030326589
0.0029743149
0.0029104291
0.0028397413
0.0027812071
0.0027168035
0.0026314756
0.0025499001
0.0024952256
0.00244236
0.0023739607
0.0022921327
0.0048393559
0.0048312462
0.0048123068
0.0047792405
0.0047255391
0.0046418295
0.00452962
0.0044132178
0.0043210612
0.004272802
0.0042699335
0.0042958631
0.0043247104
0.0043353754
0.0043200185
0.0042812514
0.0042256451
0.0041593381
0.0040869349
0.0040120621
0.0039379052
0.0038673953
0.003803061
0.0037467819
0.0036995516
0.0036614774
0.0036320146
0.0036102627
0.0035952108
0.003585765
0.0035807744
0.0035793893
0.0035809443
0.0035848147
0.003590425
0.0035972243
0.0036047735
0.003612706
0.0036207402
0.0036286775
0.0036363693
0.0036437065
0.0036506114
0.0036570385
0.0036629658
0.0036683897
0.0036733209
0.0036777793
0.003681784
0.0036853526
0.003688502
0.0036912458
0.0036935868
0.003695514
0.0036970024
0.0036980079
0.0036984623
0.0036982756
0.0036973363
0.0036955079
0.0036926313
0.0036885324
0.0036830201
0.0036758783
0.0036668612
0.0036557052
0.0036421606
0.0036260236
0.0036071078
0.0035852167
0.0035602071
0.0035319743
0.003500535
0.0034659482
0.0034281605
0.0033873316
0.003343273
0.0032964245
0.0032470516
0.0031945303
0.0031408065
0.0030841493
0.0030243989
0.0029664733
0.0029029828
0.0028327233
0.0027747339
0.0027106943
0.0026257985
0.0025447902
0.0024906684
0.0024382965
0.0023702795
0.0022888438
0.0024613768
0.0024670851
0.0024666082
0.0024614261
0.0024547175
0.0024505594
0.0024553936
0.0024832631
0.0025504612
0.002670312
0.002846919
0.0030715285
0.0033235892
0.0035753227
0.0037983586
0.0039708379
0.0040835098
0.0041402318
0.0041519266
0.0041307857
0.0040873612
0.0040299019
0.0039648434
0.0038973394
0.0038316019
0.0037709401
0.0037176571
0.0036729765
0.0036371524
0.0036097367
0.0035898797
0.00357659
0.0035687468
0.0035652108
0.0035651403
0.0035678548
0.00357272
0.0035791573
0.0035866156
0.0035946612
0.0036029397
0.0036111898
0.0036192376
0.0036269571
0.0036342611
0.0036410918
0.0036474189
0.0036532325
0.0036585364
0.0036633475
0.0036676883
0.0036715785
0.003675038
0.0036780852
0.003680733
0.0036829832
0.0036848254
0.0036862338
0.0036871634
0.0036875462
0.0036872931
0.0036862926
0.0036844098
0.003681488
0.0036773525
0.0036718114
0.0036646505
0.0036556243
0.0036444709
0.003630945
0.0036148438
0.0035959789
0.0035741553
0.0035492339
0.0035211137
0.003489811
0.0034553813
0.0034177723
0.0033771468
0.0033333156
0.0032867257
0.0032376309
0.0031854168
0.0031320311
0.0030757071
0.0030163502
0.0029588291
0.0028957199
0.0028258767
0.0027684174
0.0027047276
0.0026202512
0.0025397981
0.0024862178
0.0024343285
0.0023666811
0.00071679842
0.00073014648
0.00074229002
0.00075325729
0.00076322824
0.00077272123
0.00078289631
0.00079667248
0.00082105468
0.00086793609
0.00095380386
0.0011035765
0.0013245816
0.0016049223
0.0019290013
0.0022749338
0.0026178875
0.0029347874
0.0032081923
0.0034282495
0.0035929468
0.0037072227
0.0037789949
0.0038161492
0.0038258759
0.0038147188
0.003788776
0.0037536983
0.0037145496
0.0036755443
0.0036398205
0.0036093341
0.0035849679
0.0035667985
0.0035544142
0.0035471676
0.003544177
0.0035445401
0.0035475996
0.0035527973
0.0035595972
0.0035675138
0.0035760674
0.0035848846
0.0035936735
0.00360223
0.0036104306
0.0036181924
0.0036254624
0.0036322108
0.0036384291
0.0036441201
0.0036492975
0.0036539822
0.0036581981
0.0036619684
0.003665314
0.0036682533
0.0036707989
0.0036729528
0.0036747042
0.003676026
0.0036768732
0.0036771777
0.0036768506
0.003675782
0.0036738384
0.0036708636
0.0036666829
0.0036611051
0.0036539159
0.003644871
0.0036337111
0.0036201931
0.0036041149
0.0035852893
0.0035635229
0.0035386786
0.0035106576
0.0034794779
0.0034451929
0.0034077497
0.0033673132
0.0033236946
0.0032773492
0.0032285174
0.0031765953
0.0031235326
0.0030675257
0.0030085469
0.0029514157
0.0028886718
0.0028192308
0.0027622846
0.0026989283
0.0026148568
0.0025349447
0.0024818928
0.002430473
0.0023631806
0.00076114733
0.0007618369
0.00076246793
0.00076312857
0.00076392346
0.00076492845
0.00076627466
0.00076807767
0.00077051238
0.00077390487
0.00077882268
0.0007866033
0.00079993001
0.00081948949
0.0008417605
0.00093819004
0.0011769353
0.0014936206
0.0018162197
0.0021268727
0.002413459
0.002669694
0.002892467
0.0030804171
0.0032344068
0.0033569765
0.0034505403
0.0035174391
0.0035605639
0.0035835008
0.0035904248
0.0035857849
0.003573951
0.0035588348
0.0035435755
0.00353035
0.0035203763
0.0035141057
0.0035115065
0.0035122432
0.0035156881
0.0035212115
0.0035283656
0.0035367561
0.0035459978
0.0035557363
0.003565601
0.0035753172
0.0035846841
0.0035935774
0.0036019404
0.0036097447
0.0036169808
0.0036236493
0.0036297613
0.0036353358
0.0036403939
0.003644959
0.0036490586
0.0036527163
0.003655954
0.0036587906
0.003661239
0.0036633008
0.0036649639
0.0036662012
0.0036669666
0.0036671934
0.0036667928
0.0036656553
0.0036636489
0.0036606179
0.0036563891
0.0036507708
0.0036435492
0.0036344809
0.0036233088
0.0036097924
0.0035937319
0.0035749388
0.0035532213
0.0035284452
0.0035005147
0.0034694489
0.0034352985
0.0033980105
0.0033577526
0.0033143368
0.0032682247
0.003219645
0.0031680037
0.0031152514
0.0030595504
0.0030009377
0.0029441839
0.0028817933
0.002812744
0.002756296
0.0026932606
0.0026095829
0.0025302008
0.0024776673
0.0024267063
0.002359757
0.00082860048
0.0008418307
0.00085395735
0.00086505958
0.00087521592
0.00088447517
0.00089296678
0.00090066148
0.0009075877
0.00091386745
0.00091949786
0.00092455552
0.00092906434
0.00093306595
0.00093653471
0.00093951723
0.00094199479
0.00094399593
0.00094574474
0.00094786346
0.00095259399
0.00096521084
0.0009885753
0.001020612
0.0010702304
0.0012322131
0.0014985932
0.0017662253
0.0020132545
0.0022398952
0.0024460376
0.0026319849
0.0027981798
0.0029449393
0.0030718173
0.0031780245
0.0032633803
0.0033287137
0.0033758873
0.0034076493
0.0034273173
0.0034384084
0.0034442605
0.0034476974
0.0034508089
0.0034548866
0.0034605345
0.0034679427
0.0034769549
0.0034871348
0.0034980803
0.0035095241
0.0035212333
0.0035329747
0.0035445386
0.0035556833
0.0035662491
0.0035761385
0.0035853147
0.0035937956
0.0036016125
0.0036087965
0.0036153767
0.0036213836
0.0036268463
0.0036317919
0.0036362464
0.0036402374
0.0036437911
0.0036469284
0.0036496681
0.0036520246
0.0036539987
0.0036555774
0.0036567329
0.0036574188
0.0036575679
0.0036570932
0.0036558865
0.0036538164
0.0036507287
0.0036464496
0.0036407878
0.0036335298
0.0036244337
0.0036132444
0.0035997244
0.0035836748
0.0035649071
0.0035432309
0.0035185148
0.0034906669
0.0034597061
0.003425681
0.0033885394
0.0033484505
0.0033052274
0.0032593386
0.0032110003
0.0031596298
0.0031071771
0.0030517701
0.0029935124
0.0029371249
0.0028750754
0.0028064081
0.0027504448
0.0026877182
0.0026044233
0.0025255609
0.0024735363
0.0024230238
0.0023564065
8.6328517e-06
2.7973341e-05
5.1490609e-05
7.9240901e-05
0.0001112509
0.00014749132
0.0001877381
0.00023121206
0.00027664801
0.0003225726
0.00036761694
0.00041112504
0.00045280509
0.00049243027
0.00052996231
0.00056542762
0.00059885997
0.00063040728
0.00066030646
0.0006884627
0.00071487255
0.00073982617
0.0007632961
0.00078531311
0.0008060878
0.00082552415
0.00084380005
0.00086091236