/*--------------------------------*- C++ -*----------------------------------*\
| =========                 |                                                 |
| \\      /  F ield         | OpenFOAM: The Open Source CFD Toolbox           |
|  \\    /   O peration     | Version:  2506                                  |
|   \\  /    A nd           | Website:  www.openfoam.com                      |
|    \\/     M anipulation  |                                                 |
\*---------------------------------------------------------------------------*/
FoamFile
{
    version     2.0;
    format      ascii;
    arch        "LSB;label=32;scalar=64";
    class       volScalarField;
    location    "0.00032";
    object      Co;
}
// * * * * * * * * * * * * * * * * * * * * * * * * * * * * * * * * * * * * * //

dimensions      [0 0 0 0 0 0 0];

internalField   nonuniform List<scalar> 
3469
(
5.0855746e-06
4.8311003e-06
4.5823471e-06
7.7837523e-06
7.5149003e-06
7.2435563e-06
6.9705718e-06
6.6968238e-06
6.423203e-06
6.1506003e-06
5.8798955e-06
5.611947e-06
5.3475788e-06
5.0875718e-06
4.8326632e-06
4.5835212e-06
8.5790707e-06
8.3214659e-06
8.0590861e-06
7.7926511e-06
7.5229355e-06
7.2507595e-06
6.9769781e-06
6.7024724e-06
6.4281342e-06
6.1548569e-06
5.8835237e-06
5.6149926e-06
5.3500883e-06
5.0895916e-06
4.8342389e-06
4.5846998e-06
9.0912303e-06
8.844101e-06
8.5909591e-06
8.332399e-06
8.0690826e-06
7.801735e-06
7.5311343e-06
7.2581053e-06
6.9835078e-06
6.7082246e-06
6.4331526e-06
6.1591865e-06
5.8872096e-06
5.6180825e-06
5.3526302e-06
5.0916337e-06
4.8358282e-06
4.5858839e-06
9.5816117e-06
9.3469864e-06
9.1053816e-06
8.8572476e-06
8.6031108e-06
8.3435698e-06
8.0792925e-06
7.8110077e-06
7.5394995e-06
7.265597e-06
6.9901635e-06
6.7140857e-06
6.4382613e-06
6.1635893e-06
5.8909549e-06
5.6212189e-06
5.3552069e-06
5.0936989e-06
4.8374305e-06
4.5870727e-06
1.3460955e-05
1.3376365e-05
1.3291504e-05
1.3205892e-05
1.3119057e-05
1.3030528e-05
1.2939844e-05
1.2846554e-05
1.2750206e-05
1.2650353e-05
1.0259876e-05
1.0047105e-05
9.8264565e-06
9.5981523e-06
9.362492e-06
9.1198518e-06
8.8706869e-06
8.6155286e-06
8.3549818e-06
8.0897186e-06
7.8204736e-06
7.5480359e-06
7.2732382e-06
6.9969476e-06
6.7200548e-06
6.4434619e-06
6.1680682e-06
5.8947602e-06
5.6244009e-06
5.3578167e-06
5.0957871e-06
4.8390464e-06
4.5882663e-06
1.4443302e-05
1.4331787e-05
1.42257e-05
1.4124354e-05
1.4027094e-05
1.3933299e-05
1.3842372e-05
1.3753742e-05
1.3666859e-05
1.3581189e-05
1.3496216e-05
1.3411433e-05
1.3326353e-05
1.324049e-05
1.3153369e-05
1.3064523e-05
1.2973492e-05
1.2879818e-05
1.278305e-05
1.2682744e-05
1.2578458e-05
1.2469762e-05
1.2356233e-05
1.0683353e-05
1.0485716e-05
1.0279954e-05
1.006615e-05
9.844453e-06
9.6150896e-06
9.3783647e-06
9.1346602e-06
8.8844363e-06
8.628229e-06
8.3666478e-06
8.1003728e-06
7.8301434e-06
7.5567514e-06
7.2810353e-06
7.0038673e-06
6.7261402e-06
6.4487585e-06
6.1726256e-06
5.8986295e-06
5.6276334e-06
5.3604636e-06
5.0979001e-06
4.8406769e-06
4.5894656e-06
1.5304717e-05
1.5144066e-05
1.4993915e-05
1.4853267e-05
1.4721192e-05
1.4596821e-05
1.4479338e-05
1.4367975e-05
1.4262006e-05
1.416074e-05
1.4063531e-05
1.3969753e-05
1.3878809e-05
1.379013e-05
1.3703166e-05
1.3617382e-05
1.3532263e-05
1.3447304e-05
1.336201e-05
1.3275903e-05
1.3188505e-05
1.3099347e-05
1.3007966e-05
1.2913905e-05
1.2816714e-05
1.2715948e-05
1.2611165e-05
1.2501931e-05
1.2387823e-05
1.2268426e-05
1.2143338e-05
1.2012175e-05
1.1874568e-05
1.1078876e-05
1.0896494e-05
1.0705998e-05
1.050734e-05
1.0300536e-05
1.0085668e-05
9.8628937e-06
9.6324424e-06
9.3946235e-06
9.1498245e-06
8.8985104e-06
8.6412254e-06
8.378585e-06
8.1112708e-06
7.840029e-06
7.5656583e-06
7.2890003e-06
7.0109313e-06
6.7323485e-06
6.4541593e-06
6.1772685e-06
5.9025667e-06
5.6309178e-06
5.3631489e-06
5.1000396e-06
4.8423224e-06
4.5906701e-06
1.6338216e-05
1.6108122e-05
1.5894631e-05
1.5696343e-05
1.5511915e-05
1.5340146e-05
1.5179884e-05
1.5030071e-05
1.4889718e-05
1.47579e-05
1.4633745e-05
1.4516443e-05
1.4405223e-05
1.4299361e-05
1.419817e-05
1.4100998e-05
1.4007224e-05
1.3916256e-05
1.3827519e-05
1.3740463e-05
1.3654554e-05
1.3569278e-05
1.348413e-05
1.3398615e-05
1.3312249e-05
1.3224557e-05
1.313507e-05
1.3043326e-05
1.2948866e-05
1.2851238e-05
1.2749994e-05
1.2644693e-05
1.2534904e-05
1.24202e-05
1.2300166e-05
1.2174399e-05
1.2042515e-05
1.1904147e-05
1.175895e-05
1.1606608e-05
1.1446836e-05
1.1279386e-05
1.1104053e-05
1.0920681e-05
1.0729165e-05
1.052946e-05
1.0321584e-05
1.0105625e-05
9.881745e-06
9.6501769e-06
9.4112352e-06
9.1653141e-06
8.912885e-06
8.6544946e-06
8.3907658e-06
8.1223883e-06
7.8501105e-06
7.5747371e-06
7.2971156e-06
7.0181252e-06
6.738667e-06
6.4596516e-06
6.1819864e-06
5.906564e-06
5.634249e-06
5.3658683e-06
5.1022018e-06
4.8439815e-06
4.5918797e-06
1.637226e-05
1.6142804e-05
1.5929888e-05
1.5732118e-05
1.5548158e-05
1.5376803e-05
1.5216907e-05
1.5067418e-05
1.4927348e-05
1.4795771e-05
1.4671818e-05
1.4554679e-05
1.4443587e-05
1.4337818e-05
1.4236687e-05
1.4139544e-05
1.4045765e-05
1.3954755e-05
1.3865945e-05
1.3778786e-05
1.3692742e-05
1.3607296e-05
1.3521943e-05
1.3436192e-05
1.3349554e-05
1.3261556e-05
1.3171729e-05
1.3079605e-05
1.2984727e-05
1.2886643e-05
1.2784905e-05
1.2679071e-05
1.2568707e-05
1.2453385e-05
1.2332692e-05
1.2206226e-05
1.2073599e-05
1.1934445e-05
1.178842e-05
1.163521e-05
1.1474531e-05
1.1306135e-05
1.112982e-05
1.0945432e-05
1.0752867e-05
1.0552085e-05
1.0343109e-05
1.012603e-05
9.9010127e-06
9.6682984e-06
9.4282058e-06
9.1811335e-06
8.9275599e-06
8.6680386e-06
8.403196e-06
8.1337271e-06
7.8603889e-06
7.58399e-06
7.3053818e-06
7.0254489e-06
6.7450963e-06
6.4652372e-06
6.1867812e-06
5.9106225e-06
5.637627e-06
5.3686227e-06
5.1043881e-06
4.8456543e-06
4.5930948e-06
1.6407667e-05
1.617882e-05
1.5966457e-05
1.5769184e-05
1.5585667e-05
1.541471e-05
1.5255166e-05
1.5105985e-05
1.4966179e-05
1.4834826e-05
1.4711063e-05
1.4594075e-05
1.4483098e-05
1.4377412e-05
1.4276326e-05
1.4179195e-05
1.4085396e-05
1.3994336e-05
1.3905443e-05
1.3818166e-05
1.3731973e-05
1.3646343e-05
1.3560774e-05
1.3474772e-05
1.3387848e-05
1.3299529e-05
1.3209341e-05
1.3116822e-05
1.3021513e-05
1.2922956e-05
1.2820706e-05
1.2714319e-05
1.2603359e-05
1.2487399e-05
1.2366026e-05
1.2238836e-05
1.2105443e-05
1.196548e-05
1.1818603e-05
1.16645e-05
1.1502886e-05
1.1333517e-05
1.1156191e-05
1.0970756e-05
1.0777115e-05
1.0575228e-05
1.0365122e-05
1.0146892e-05
9.9207077e-06
9.6868161e-06
9.4455426e-06
9.1972908e-06
8.9425439e-06
8.6818618e-06
8.4158775e-06
8.1452927e-06
7.8708691e-06
7.5934202e-06
7.3138035e-06
7.032907e-06
6.7516389e-06
6.470917e-06
6.1916533e-06
5.9147431e-06
5.6410534e-06
5.3714122e-06
5.1065983e-06
4.8473412e-06
4.594315e-06
1.6690656e-05
1.6444458e-05
1.6216198e-05
1.6004366e-05
1.580757e-05
1.562448e-05
1.5453899e-05
1.5294687e-05
1.5145794e-05
1.5006239e-05
1.4875097e-05
1.4751504e-05
1.4634653e-05
1.4523777e-05
1.4418156e-05
1.4317106e-05
1.4219975e-05
1.4126142e-05
1.4035019e-05
1.3946028e-05
1.385862e-05
1.3772262e-05
1.3686437e-05
1.3600637e-05
1.3514368e-05
1.3427147e-05
1.3338491e-05
1.3247931e-05
1.3155e-05
1.3059238e-05
1.2960192e-05
1.2857409e-05
1.2750449e-05
1.2638874e-05
1.2522256e-05
1.2400182e-05
1.2272246e-05
1.2138062e-05
1.1997267e-05
1.1849514e-05
1.1694488e-05
1.1531912e-05
1.1361542e-05
1.1183177e-05
1.0996667e-05
1.0801918e-05
1.0598894e-05
1.0387627e-05
1.0168217e-05
9.9408368e-06
9.7057394e-06
9.4632539e-06
9.2137907e-06
8.9578407e-06
8.6959698e-06
8.4288165e-06
8.1570888e-06
7.8815538e-06
7.6030303e-06
7.3223805e-06
7.0404982e-06
6.7582958e-06
6.4766925e-06
6.1966031e-06
5.9189254e-06
5.6445274e-06
5.3742368e-06
5.1088322e-06
4.8490421e-06
4.5955404e-06
1.6993367e-05
1.6728258e-05
1.6482681e-05
1.6254985e-05
1.6043658e-05
1.5847315e-05
1.566463e-05
1.5494408e-05
1.5335511e-05
1.5186893e-05
1.5047568e-05
1.4916621e-05
1.4793186e-05
1.4676456e-05
1.4565669e-05
1.4460101e-05
1.435907e-05
1.4261926e-05
1.4168051e-05
1.4076848e-05
1.3987745e-05
1.3900193e-05
1.3813659e-05
1.3727623e-05
1.364158e-05
1.3555031e-05
1.3467491e-05
1.3378483e-05
1.3287532e-05
1.3194172e-05
1.3097943e-05
1.2998388e-05
1.2895054e-05
1.27875e-05
1.267529e-05
1.2557993e-05
1.2435192e-05
1.2306486e-05
1.217149e-05
1.2029833e-05
1.1881175e-05
1.1725204e-05
1.1561637e-05
1.1390235e-05
1.12108e-05
1.1023186e-05
1.0827299e-05
1.0623108e-05
1.0410648e-05
1.0190024e-05
9.9614142e-06
9.7250769e-06
9.481348e-06
9.230645e-06
8.9734617e-06
8.7103714e-06
8.4420209e-06
8.1691217e-06
7.8924477e-06
7.6128251e-06
7.3311195e-06
7.0482291e-06
6.7650704e-06
6.4825664e-06
6.2016344e-06
5.9231732e-06
5.6480519e-06
5.3770985e-06
5.111091e-06
4.8507574e-06
4.5967715e-06
1.7031796e-05
1.6767347e-05
1.6522366e-05
1.6295206e-05
1.6084362e-05
1.5888452e-05
1.5706151e-05
1.553627e-05
1.5377669e-05
1.5229304e-05
1.5090196e-05
1.4959427e-05
1.4836134e-05
1.471951e-05
1.4608795e-05
1.4503267e-05
1.4402243e-05
1.4305072e-05
1.4211135e-05
1.4119839e-05
1.4030612e-05
1.3942905e-05
1.3856181e-05
1.3769918e-05
1.3683614e-05
1.3596771e-05
1.3508899e-05
1.3419522e-05
1.3328164e-05
1.3234359e-05
1.3137642e-05
1.3037558e-05
1.2933656e-05
1.2825489e-05
1.2712619e-05
1.2594619e-05
1.2471071e-05
1.2341572e-05
1.2205734e-05
1.2063191e-05
1.1913602e-05
1.1756655e-05
1.159207e-05
1.1419607e-05
1.1239074e-05
1.1050322e-05
1.0853264e-05
1.0647874e-05
1.0434189e-05
1.0212318e-05
9.9824477e-06
9.7448388e-06
9.4998352e-06
9.2478587e-06
8.9894115e-06
8.7250724e-06
8.455494e-06
8.1813961e-06
7.9035571e-06
7.6228083e-06
7.3400222e-06
7.056101e-06
6.771965e-06
6.4885399e-06
6.206747e-06
5.9274857e-06
5.651626e-06
5.3799969e-06
5.1133751e-06
4.8524873e-06
4.5980079e-06
1.7071786e-05
1.6807963e-05
1.6563551e-05
1.6336902e-05
1.6126517e-05
1.5931018e-05
1.5749079e-05
1.5579516e-05
1.5421192e-05
1.5273066e-05
1.5134156e-05
1.5003549e-05
1.4880384e-05
1.4763853e-05
1.4653196e-05
1.4547691e-05
1.4446657e-05
1.4349448e-05
1.4255439e-05
1.4164037e-05
1.4074671e-05
1.3986789e-05
1.3899858e-05
1.3813357e-05
1.3726778e-05
1.3639625e-05
1.3551407e-05
1.3461643e-05
1.3369861e-05
1.3275591e-05
1.317837e-05
1.3077737e-05
1.2973244e-05
1.2864443e-05
1.2750893e-05
1.2632167e-05
1.2507847e-05
1.2377527e-05
1.2240821e-05
1.2097366e-05
1.1946818e-05
1.1788865e-05
1.1623231e-05
1.1449678e-05
1.1268012e-05
1.1078091e-05
1.0879832e-05
1.0673209e-05
1.0458264e-05
1.0235113e-05
1.0003949e-05
9.7650354e-06
9.5187231e-06
9.2654407e-06
9.0056969e-06
8.7400779e-06
8.4692419e-06
8.1939147e-06
7.9148828e-06
7.6329828e-06
7.3490918e-06
7.0641159e-06
6.7789809e-06
6.494616e-06
6.2119427e-06
5.9318643e-06
5.6552516e-06
5.3829325e-06
5.1156844e-06
4.8542321e-06
4.5992498e-06
1.7397705e-05
1.7113376e-05
1.6850152e-05
1.6606279e-05
1.6380118e-05
1.6170167e-05
1.5975056e-05
1.5793463e-05
1.5624197e-05
1.546613e-05
1.5318223e-05
1.5179496e-05
1.5049033e-05
1.4925976e-05
1.4809521e-05
1.4698907e-05
1.4593414e-05
1.4492358e-05
1.4395091e-05
1.4300994e-05
1.4209472e-05
1.4119954e-05
1.4031889e-05
1.3944737e-05
1.385798e-05
1.3771109e-05
1.3683626e-05
1.3595044e-05
1.3504881e-05
1.3412657e-05
1.3317902e-05
1.3220156e-05
1.3118958e-05
1.3013851e-05
1.290439e-05
1.2790137e-05
1.2670661e-05
1.2545543e-05
1.2414379e-05
1.2276782e-05
1.2132384e-05
1.1980847e-05
1.182186e-05
1.1655146e-05
1.1480468e-05
1.1297637e-05
1.1106516e-05
1.0907019e-05
1.0699127e-05
1.048289e-05
1.0258426e-05
1.002593e-05
9.7856775e-06
9.5380231e-06
9.2834012e-06
9.0223286e-06
8.7553975e-06
8.483273e-06
8.2066874e-06
7.9264337e-06
7.6433545e-06
7.358332e-06
7.0722782e-06
6.786122e-06
6.5007957e-06
6.2172244e-06
5.9363117e-06
5.6589297e-06
5.3859072e-06
5.1180201e-06
4.8559924e-06
4.6004977e-06
1.7440084e-05
1.7156403e-05
1.6893763e-05
1.6650419e-05
1.6424734e-05
1.621521e-05
1.6020472e-05
1.5839208e-05
1.5670233e-05
1.5512416e-05
1.5364719e-05
1.5226163e-05
1.5095839e-05
1.4972883e-05
1.4856495e-05
1.4745915e-05
1.4640422e-05
1.4539332e-05
1.4442001e-05
1.4347805e-05
1.4256153e-05
1.416647e-05
1.4078203e-05
1.399082e-05
1.3903796e-05
1.3816623e-05
1.3728801e-05
1.3639837e-05
1.3549252e-05
1.3456568e-05
1.3361313e-05
1.3263023e-05
1.3161237e-05
1.30555e-05
1.2945362e-05
1.2830383e-05
1.2710131e-05
1.258419e-05
1.2452154e-05
1.2313634e-05
1.2168268e-05
1.2015712e-05
1.1855658e-05
1.1687832e-05
1.1511999e-05
1.1327971e-05
1.1135612e-05
1.0934845e-05
1.0725651e-05
1.0508084e-05
1.028227e-05
1.0048409e-05
9.8067821e-06
9.5577484e-06
9.3017526e-06
9.0393166e-06
8.7710396e-06
8.4975943e-06
8.2197205e-06
7.9382158e-06
7.6539288e-06
7.3677493e-06
7.0805928e-06
6.7933915e-06
6.5070824e-06
6.2225927e-06
5.9408281e-06
5.6626615e-06
5.3889212e-06
5.1203822e-06
4.8577677e-06
4.6017513e-06
1.7481596e-05
1.7198744e-05
1.6936859e-05
1.6694198e-05
1.6469129e-05
1.6260159e-05
1.606592e-05
1.5885099e-05
1.5716515e-05
1.5559038e-05
1.5411634e-05
1.5273329e-05
1.514321e-05
1.5020421e-05
1.4904156e-05
1.4793661e-05
1.4688216e-05
1.4587137e-05
1.4489778e-05
1.4395519e-05
1.4303766e-05
1.4213944e-05
1.4125502e-05
1.4037904e-05
1.3950627e-05
1.3863162e-05
1.3775006e-05
1.3685672e-05
1.3594674e-05
1.3501533e-05
1.3405778e-05
1.3306941e-05
1.3204559e-05
1.3098179e-05
1.298735e-05
1.2871632e-05
1.2750592e-05
1.262381e-05
1.2490881e-05
1.2351417e-05
1.2205055e-05
1.2051455e-05
1.1890308e-05
1.172134e-05
1.154432e-05
1.1359063e-05
1.1165433e-05
1.0963357e-05
1.0752826e-05
1.0533895e-05
1.0306693e-05
1.0071428e-05
9.8283881e-06
9.5779395e-06
9.3205331e-06
9.0566968e-06
8.787038e-06
8.5122368e-06
8.23304e-06
7.9502526e-06
7.6647286e-06
7.3773616e-06
7.0890745e-06
6.8008039e-06
6.5134886e-06
6.2280592e-06
5.945423e-06
5.6664533e-06
5.3919792e-06
5.1227747e-06
4.8595608e-06
4.6030113e-06
1.7828841e-05
1.7524101e-05
1.7242107e-05
1.6981e-05
1.6739043e-05
1.6514611e-05
1.6306215e-05
1.611249e-05
1.5932127e-05
1.5763944e-05
1.560682e-05
1.5459722e-05
1.5321674e-05
1.5191768e-05
1.506915e-05
1.4953018e-05
1.484261e-05
1.4737212e-05
1.4636146e-05
1.453876e-05
1.4444434e-05
1.4352575e-05
1.4262612e-05
1.4173991e-05
1.4086173e-05
1.3998636e-05
1.391087e-05
1.3822376e-05
1.3732657e-05
1.364123e-05
1.3547616e-05
1.3451344e-05
1.3351942e-05
1.324895e-05
1.3141909e-05
1.303037e-05
1.291389e-05
1.2792037e-05
1.2664388e-05
1.2530542e-05
1.239011e-05
1.2242726e-05
1.2088051e-05
1.1925779e-05
1.1755639e-05
1.1577399e-05
1.1390875e-05
1.1195941e-05
1.0992525e-05
1.0780619e-05
1.0560285e-05
1.0331659e-05
1.0094953e-05
9.8504636e-06
9.5985639e-06
9.3397095e-06
9.0744381e-06
8.8033651e-06
8.5271767e-06
8.2466253e-06
7.9625238e-06
7.6757336e-06
7.3871535e-06
7.0977104e-06
6.808346e-06
6.5200034e-06
6.2336146e-06
5.9500888e-06
5.6703001e-06
5.3950773e-06
5.125194e-06
4.8613697e-06
4.6042774e-06
1.7872198e-05
1.7568363e-05
1.728719e-05
1.7026831e-05
1.6785551e-05
1.6561728e-05
1.6353881e-05
1.6160644e-05
1.5980712e-05
1.5812914e-05
1.5656122e-05
1.5509306e-05
1.5371497e-05
1.5241786e-05
1.5119322e-05
1.5003301e-05
1.4892968e-05
1.4787606e-05
1.4686533e-05
1.4589103e-05
1.4494696e-05
1.4402718e-05
1.4312597e-05
1.4223778e-05
1.4135723e-05
1.4047911e-05
1.3959827e-05
1.3870971e-05
1.3780851e-05
1.3688979e-05
1.3594876e-05
1.3498065e-05
1.3398077e-05
1.3294453e-05
1.3186728e-05
1.3074454e-05
1.2957187e-05
1.2834494e-05
1.2705954e-05
1.2571161e-05
1.2429728e-05
1.228129e-05
1.212551e-05
1.196208e-05
1.179073e-05
1.1611234e-05
1.1423413e-05
1.1227137e-05
1.1022341e-05
1.0809023e-05
1.0587249e-05
1.0357161e-05
1.011898e-05
9.8730048e-06
9.6196168e-06
9.3592799e-06
9.0925397e-06
8.8200173e-06
8.5424073e-06
8.2604706e-06
7.9750254e-06
7.6869401e-06
7.3971204e-06
7.106497e-06
6.8160161e-06
6.5266244e-06
6.2392566e-06
5.9548228e-06
5.674199e-06
5.3982138e-06
5.1276392e-06
4.8631936e-06
4.6055493e-06
1.7917402e-05
1.7614433e-05
1.733405e-05
1.7074404e-05
1.6833771e-05
1.6610531e-05
1.6403203e-05
1.621043e-05
1.6030908e-05
1.5863466e-05
1.5706986e-05
1.5560436e-05
1.5422847e-05
1.5293316e-05
1.5170986e-05
1.505506e-05
1.4944783e-05
1.4839435e-05
1.4738341e-05
1.4640854e-05
1.4546351e-05
1.4454238e-05
1.436394e-05
1.4274907e-05
1.4186599e-05
1.4098492e-05
1.4010073e-05
1.3920841e-05
1.3830299e-05
1.3737962e-05
1.3643347e-05
1.3545978e-05
1.3445385e-05
1.3341101e-05
1.3232667e-05
1.3119635e-05
1.3001554e-05
1.2877993e-05
1.2748532e-05
1.2612763e-05
1.2470299e-05
1.2320776e-05
1.2163855e-05
1.1999235e-05
1.1826644e-05
1.1645857e-05
1.1456698e-05
1.1259044e-05
1.1052831e-05
1.0838063e-05
1.0614812e-05
1.0383225e-05
1.0143528e-05
9.8960261e-06
9.6411117e-06
9.3792562e-06
9.1110098e-06
8.8370026e-06
8.5579373e-06
8.2745823e-06
7.9877635e-06
7.6983543e-06
7.4072666e-06
7.1154377e-06
6.8238165e-06
6.5333534e-06
6.2449862e-06
5.9596275e-06
5.6781528e-06
5.4013902e-06
5.1301119e-06
4.8650334e-06
4.6068268e-06
1.7964503e-05
1.7662363e-05
1.7382731e-05
1.7123768e-05
1.688375e-05
1.6661062e-05
1.6454228e-05
1.6261894e-05
1.608276e-05
1.5915655e-05
1.5759463e-05
1.5613158e-05
1.5475769e-05
1.5346395e-05
1.5224184e-05
1.5108336e-05
1.4998096e-05
1.4892753e-05
1.4791621e-05
1.4694054e-05
1.4599435e-05
1.4507169e-05
1.4416682e-05
1.4327419e-05
1.423884e-05
1.4150422e-05
1.4061652e-05
1.3972023e-05
1.388104e-05
1.3788217e-05
1.3693067e-05
1.3595117e-05
1.3493894e-05
1.3388928e-05
1.3279764e-05
1.3165944e-05
1.3047024e-05
1.2922569e-05
1.2792156e-05
1.2655379e-05
1.2511851e-05
1.236121e-05
1.2203118e-05
1.2037268e-05
1.1863398e-05
1.1681283e-05
1.1490749e-05
1.1291679e-05
1.1084011e-05
1.0867753e-05
1.0642983e-05
1.0409855e-05
1.0168602e-05
9.9195385e-06
9.6630601e-06
9.3996462e-06
9.1298573e-06
8.8543302e-06
8.5737754e-06
8.288969e-06
8.0007442e-06
7.7099813e-06
7.4175975e-06
7.1245354e-06
6.8317494e-06
6.5401932e-06
6.2508071e-06
5.9645044e-06
5.6821618e-06
5.4046074e-06
5.1326117e-06
4.8668892e-06
4.6081104e-06
1.8339328e-05
1.801355e-05
1.7712202e-05
1.7433288e-05
1.7174973e-05
1.6935538e-05
1.6713374e-05
1.6507008e-05
1.6315087e-05
1.6136313e-05
1.5969524e-05
1.58136e-05
1.5667517e-05
1.5530309e-05
1.5401075e-05
1.5278962e-05
1.5163174e-05
1.5052957e-05
1.4947594e-05
1.4846406e-05
1.4748749e-05
1.4653998e-05
1.4561564e-05
1.4470868e-05
1.4381357e-05
1.4292489e-05
1.4203742e-05
1.4114597e-05
1.4024552e-05
1.3933109e-05
1.3839777e-05
1.3744075e-05
1.364552e-05
1.3543643e-05
1.3437975e-05
1.3328049e-05
1.3213414e-05
1.3093627e-05
1.2968247e-05
1.2836852e-05
1.2699037e-05
1.2554415e-05
1.2402621e-05
1.2243317e-05
1.2076206e-05
1.190102e-05
1.1717538e-05
1.1525592e-05
1.1325063e-05
1.1115899e-05
1.089811e-05
1.0671781e-05
1.0437074e-05
1.0194225e-05
9.9435558e-06
9.6854722e-06
9.4204604e-06
9.1490895e-06
8.8720059e-06
8.5899266e-06
8.3036344e-06
8.0139706e-06
7.7218228e-06
7.428115e-06
7.133794e-06
6.8398187e-06
6.5471467e-06
6.2567197e-06
5.969454e-06
5.6862266e-06
5.4078653e-06
5.1351396e-06
4.8687612e-06
4.609401e-06
1.838956e-05
1.8064609e-05
1.7764011e-05
1.7485778e-05
1.7228077e-05
1.6989195e-05
1.6767524e-05
1.6561595e-05
1.6370063e-05
1.6191629e-05
1.6025129e-05
1.5869449e-05
1.5723568e-05
1.5586521e-05
1.5457406e-05
1.5335374e-05
1.5219628e-05
1.5109414e-05
1.5004017e-05
1.4902757e-05
1.4804987e-05
1.4710089e-05
1.4617465e-05
1.4526542e-05
1.4436766e-05
1.4347591e-05
1.4258495e-05
1.4168959e-05
1.4078477e-05
1.3986552e-05
1.3892693e-05
1.3796413e-05
1.3697231e-05
1.3594674e-05
1.3488273e-05
1.3377564e-05
1.326209e-05
1.3141402e-05
1.3015067e-05
1.288266e-05
1.2743773e-05
1.259802e-05
1.2445036e-05
1.2284489e-05
1.2116076e-05
1.1939536e-05
1.1754648e-05
1.1561246e-05
1.1359219e-05
1.1148516e-05
1.0929154e-05
1.0701225e-05
1.0464893e-05
1.0220406e-05
9.9680918e-06
9.7083617e-06
9.441713e-06
9.1687217e-06
8.8900419e-06
8.6064001e-06
8.3185872e-06
8.0274519e-06
7.7338878e-06
7.4388248e-06
7.1432171e-06
6.8480269e-06
6.5542148e-06
6.2627266e-06
5.9744788e-06
5.6903493e-06
5.4111655e-06
5.1376957e-06
4.8706498e-06
4.6106979e-06
1.8792491e-05
1.8441905e-05
1.8117736e-05
1.7817852e-05
1.7540264e-05
1.7283142e-05
1.7044777e-05
1.6823571e-05
1.6618055e-05
1.6426882e-05
1.6248759e-05
1.6082524e-05
1.5927068e-05
1.5781368e-05
1.564446e-05
1.5515443e-05
1.5393472e-05
1.5277748e-05
1.5167516e-05
1.5062066e-05
1.4960716e-05
1.4862821e-05
1.4767756e-05
1.4674928e-05
1.4583759e-05
1.4493694e-05
1.4404193e-05
1.4314727e-05
1.4224779e-05
1.4133842e-05
1.4041414e-05
1.3947002e-05
1.3850122e-05
1.375029e-05
1.3647028e-05
1.3539868e-05
1.3428346e-05
1.3312e-05
1.3190386e-05
1.3063064e-05
1.2929611e-05
1.2789619e-05
1.2642699e-05
1.2488491e-05
1.2326661e-05
1.2156908e-05
1.197897e-05
1.1792635e-05
1.1597739e-05
1.139417e-05
1.1181886e-05
1.0960908e-05
1.0731332e-05
1.0493333e-05
1.0247162e-05
9.9931583e-06
9.7317408e-06
9.4634129e-06
9.1887607e-06
8.9084465e-06
8.6232044e-06
8.3338343e-06
8.0411921e-06
7.7461798e-06
7.4497327e-06
7.1528094e-06
6.8563774e-06
6.5614016e-06
6.2688298e-06
5.9795801e-06
5.6945309e-06
5.4145089e-06
5.1402809e-06
4.8725554e-06
4.6120012e-06
1.8846201e-05
1.8496429e-05
1.8173002e-05
1.7873786e-05
1.7596801e-05
1.7340225e-05
1.7102348e-05
1.6881574e-05
1.6676438e-05
1.6485596e-05
1.6307759e-05
1.6141767e-05
1.598651e-05
1.5840967e-05
1.5704178e-05
1.5575242e-05
1.5453311e-05
1.533759e-05
1.5227326e-05
1.5121803e-05
1.5020342e-05
1.4922296e-05
1.4827047e-05
1.4733993e-05
1.4642562e-05
1.4552197e-05
1.4462351e-05
1.4372495e-05
1.4282113e-05
1.4190695e-05
1.4097741e-05
1.4002754e-05
1.3905248e-05
1.380474e-05
1.3700748e-05
1.3592802e-05
1.3480436e-05
1.3363192e-05
1.3240617e-05
1.3112276e-05
1.2977742e-05
1.2836606e-05
1.2688485e-05
1.2533015e-05
1.236986e-05
1.2198727e-05
1.2019355e-05
1.1831529e-05
1.1635091e-05
1.1429937e-05
1.1216025e-05
1.0993386e-05
1.0762121e-05
1.0522409e-05
1.0274511e-05
1.0018773e-05
9.7556218e-06
9.4855724e-06
9.2092164e-06
8.9272263e-06
8.6403459e-06
8.3493822e-06
8.0551981e-06
7.7587036e-06
7.4608408e-06
7.1625731e-06
6.8648734e-06
6.5687092e-06
6.2750307e-06
5.9847589e-06
5.6987715e-06
5.4178955e-06
5.1428957e-06
4.8744778e-06
4.6133105e-06
1.8901984e-05
1.8552995e-05
1.8230281e-05
1.793171e-05
1.7655307e-05
1.7399254e-05
1.7161843e-05
1.694148e-05
1.6736706e-05
1.6546179e-05
1.6368611e-05
1.6202844e-05
1.6047769e-05
1.5902369e-05
1.5765683e-05
1.5636809e-05
1.5514903e-05
1.539917e-05
1.5288856e-05
1.5183246e-05
1.5081662e-05
1.4983454e-05
1.4888002e-05
1.479471e-05
1.4702998e-05
1.4612307e-05
1.4522096e-05
1.4431833e-05
1.4340998e-05
1.4249083e-05
1.4155581e-05
1.4059998e-05
1.3961842e-05
1.3860629e-05
1.375588e-05
1.3647121e-05
1.3533883e-05
1.3415707e-05
1.3292142e-05
1.3162746e-05
1.3027097e-05
1.2884786e-05
1.2735423e-05
1.2578649e-05
1.2414133e-05
1.2241575e-05
1.2060721e-05
1.1871363e-05
1.167334e-05
1.1466553e-05
1.1250971e-05
1.1026623e-05
1.0793619e-05
1.0552147e-05
1.0302475e-05
1.0044956e-05
9.7800278e-06
9.5082101e-06
9.2301079e-06
8.9464008e-06
8.6578402e-06
8.3652437e-06
8.0694815e-06
7.7714699e-06
7.472158e-06
7.1725157e-06
6.8735195e-06
6.5761416e-06
6.2813346e-06
5.9900191e-06
5.703075e-06
5.4213277e-06
5.1455411e-06
4.8764187e-06
4.6146269e-06
1.8956641e-05
1.8608674e-05
1.8286893e-05
1.7989169e-05
1.7713532e-05
1.7458166e-05
1.7221378e-05
1.7001572e-05
1.6797291e-05
1.6607198e-05
1.643001e-05
1.626457e-05
1.6109772e-05
1.5964596e-05
1.5828087e-05
1.5699349e-05
1.5577532e-05
1.5461843e-05
1.535153e-05
1.5245879e-05
1.514421e-05
1.5045876e-05
1.4950252e-05
1.4856744e-05
1.4764775e-05
1.4673783e-05
1.4583222e-05
1.4492561e-05
1.4401282e-05
1.4308869e-05
1.4214821e-05
1.4118637e-05
1.4019827e-05
1.3917904e-05
1.3812389e-05
1.3702803e-05
1.3588676e-05
1.3469548e-05
1.3344968e-05
1.3214496e-05
1.3077704e-05
1.2934184e-05
1.2783549e-05
1.2625438e-05
1.245952e-05
1.22855e-05
1.2103126e-05
1.1912188e-05
1.1712535e-05
1.1504072e-05
1.1286767e-05
1.1060662e-05
1.0825872e-05
1.0582592e-05
1.0331098e-05
1.0071749e-05
9.8049935e-06
9.5313629e-06
9.2514678e-06
8.9659977e-06
8.6757147e-06
8.381443e-06
8.084063e-06
7.7844976e-06
7.4837026e-06
7.1826531e-06
6.8823307e-06
6.5837108e-06
6.2877488e-06
5.9953675e-06
5.707446e-06
5.4248095e-06
5.1482201e-06
4.8783786e-06
4.6159504e-06
1.9012409e-05
1.8665518e-05
1.8344717e-05
1.8047882e-05
1.7773054e-05
1.751842e-05
1.7282287e-05
1.7063067e-05
1.6859308e-05
1.6669676e-05
1.6492887e-05
1.6327791e-05
1.6173284e-05
1.6028352e-05
1.5892035e-05
1.5763439e-05
1.5641721e-05
1.5526083e-05
1.5415776e-05
1.5310088e-05
1.5208336e-05
1.5109874e-05
1.5014081e-05
1.4920355e-05
1.4828121e-05
1.4736818e-05
1.4645898e-05
1.4554832e-05
1.4463096e-05
1.4370174e-05
1.4275564e-05
1.4178764e-05
1.4079282e-05
1.3976628e-05
1.3870319e-05
1.375988e-05
1.364484e-05
1.3524735e-05
1.3399112e-05
1.3267528e-05
1.3129557e-05
1.2984793e-05
1.2832848e-05
1.267336e-05
1.2506e-05
1.2330477e-05
1.2146537e-05
1.1953978e-05
1.175265e-05
1.1542462e-05
1.132339e-05
1.1095481e-05
1.0858856e-05
1.0613717e-05
1.036035e-05
1.0099124e-05
9.8304965e-06
9.5550039e-06
9.2732708e-06
8.9859961e-06
8.6939485e-06
8.3979626e-06
8.0989267e-06
7.7977718e-06
7.4954591e-06
7.192971e-06
6.8912946e-06
6.591407e-06
6.2942665e-06
6.0007978e-06
5.7118799e-06
5.428337e-06
5.1509298e-06
4.8803567e-06
4.6172807e-06
1.907048e-05
1.8724625e-05
1.8404768e-05
1.8108792e-05
1.7834738e-05
1.7580802e-05
1.7345293e-05
1.7126632e-05
1.6923369e-05
1.6734171e-05
1.6557763e-05
1.6392992e-05
1.6238755e-05
1.6094043e-05
1.59579e-05
1.5829429e-05
1.5707788e-05
1.5592185e-05
1.5481867e-05
1.5376119e-05
1.5274266e-05
1.5175659e-05
1.5079673e-05
1.4985714e-05
1.4893198e-05
1.4801563e-05
1.4710267e-05
1.4618772e-05
1.4526556e-05
1.4433103e-05
1.4337904e-05
1.4240463e-05
1.4140282e-05
1.4036868e-05
1.392974e-05
1.3818419e-05
1.370243e-05
1.3581312e-05
1.3454609e-05
1.3321879e-05
1.3182695e-05
1.3036647e-05
1.288335e-05
1.2722444e-05
1.2553598e-05
1.2376524e-05
1.2190973e-05
1.1996744e-05
1.1793691e-05
1.158173e-05
1.1360841e-05
1.1131076e-05
1.0892567e-05
1.0645521e-05
1.0390233e-05
1.0127082e-05
9.8565322e-06
9.579134e-06
9.295517e-06
9.0063916e-06
8.7125382e-06
8.4147988e-06
8.1140688e-06
7.8112877e-06
7.5074261e-06
7.2034694e-06
6.9004088e-06
6.5992278e-06
6.3008858e-06
6.0063082e-06
5.7163748e-06
5.4319094e-06
5.1536701e-06
4.882352e-06
4.6186178e-06
1.913093e-05
1.8786071e-05
1.8467119e-05
1.8171962e-05
1.7898648e-05
1.7645381e-05
1.7410473e-05
1.7192342e-05
1.6989548e-05
1.6800763e-05
1.6624709e-05
1.6460239e-05
1.6306254e-05
1.6161742e-05
1.602575e-05
1.5897383e-05
1.5775801e-05
1.5660211e-05
1.5549865e-05
1.5444045e-05
1.534207e-05
1.5243298e-05
1.5147103e-05
1.5052885e-05
1.4960064e-05
1.4868081e-05
1.4776383e-05
1.4684437e-05
1.4591717e-05
1.4497706e-05
1.4401898e-05
1.4303787e-05
1.4202878e-05
1.4098679e-05
1.3990701e-05
1.3878465e-05
1.3761497e-05
1.3639331e-05
1.3511512e-05
1.3377599e-05
1.3237161e-05
1.3089787e-05
1.2935095e-05
1.2772725e-05
1.260235e-05
1.2423681e-05
1.2236469e-05
1.2040519e-05
1.1835694e-05
1.1621909e-05
1.139915e-05
1.116748e-05
1.0927033e-05
1.0678028e-05
1.0420767e-05
1.015564e-05
9.8831181e-06
9.6037635e-06
9.3182174e-06
9.0271979e-06
8.7314943e-06
8.4319588e-06
8.1294969e-06
7.8250548e-06
7.5196082e-06
7.214151e-06
6.9096784e-06
6.6071765e-06
6.3076084e-06
6.0119007e-06
5.7209331e-06
5.4355278e-06
5.156441e-06
4.8843657e-06
4.6199622e-06
1.9193827e-05
1.8849922e-05
1.8531838e-05
1.8237467e-05
1.7964862e-05
1.7712231e-05
1.7477888e-05
1.7260262e-05
1.7057913e-05
1.6869513e-05
1.6693789e-05
1.6529597e-05
1.6375839e-05
1.6231507e-05
1.6095647e-05
1.5967367e-05
1.5845825e-05
1.5730229e-05
1.5619829e-05
1.5513913e-05
1.5411801e-05
1.5312844e-05
1.5216419e-05
1.5121924e-05
1.502878e-05
1.4936424e-05
1.4844303e-05
1.4751883e-05
1.4658639e-05
1.4564048e-05
1.4467601e-05
1.4368794e-05
1.4267127e-05
1.4162109e-05
1.4053248e-05
1.3940064e-05
1.3822082e-05
1.3698834e-05
1.3569862e-05
1.3434722e-05
1.3292988e-05
1.314425e-05
1.298812e-05
1.282424e-05
1.2652287e-05
1.247197e-05
1.2283051e-05
1.2085334e-05
1.187868e-05
1.1663018e-05
1.1438338e-05
1.1204707e-05
1.0962271e-05
1.0711254e-05
1.0451968e-05
1.0184811e-05
9.9102695e-06
9.6289101e-06
9.3413848e-06
9.0484235e-06
8.7508254e-06
8.4494526e-06
8.1452175e-06
7.8390754e-06
7.5320101e-06
7.2250193e-06
6.9191051e-06
6.6152563e-06
6.3144372e-06
6.0175772e-06
5.7255553e-06
5.4391925e-06
5.1592434e-06
4.8863976e-06
4.6213136e-06
1.8916279e-05
1.8599021e-05
1.8305398e-05
1.8033468e-05
1.7781438e-05
1.7547635e-05
1.7330486e-05
1.712855e-05
1.6940511e-05
1.6765094e-05
1.6601158e-05
1.6447605e-05
1.6303428e-05
1.6167678e-05
1.6039463e-05
1.5917942e-05
1.5802318e-05
1.5691848e-05
1.5585818e-05
1.5483546e-05
1.5384385e-05
1.5287707e-05
1.5192915e-05
1.5099425e-05
1.5006672e-05
1.4914107e-05
1.4821189e-05
1.4727389e-05
1.463219e-05
1.4535079e-05
1.4435547e-05
1.4333095e-05
1.4227227e-05
1.4117452e-05
1.4003286e-05
1.3884254e-05
1.3759884e-05
1.362972e-05
1.3493317e-05
1.3350244e-05
1.3200093e-05
1.3042479e-05
1.2877042e-05
1.270346e-05
1.252145e-05
1.2330768e-05
1.2131226e-05
1.1922693e-05
1.1705098e-05
1.1478442e-05
1.1242795e-05
1.0998312e-05
1.0745227e-05
1.0483862e-05
1.0214623e-05
9.9380037e-06
9.654587e-06
9.3650341e-06
9.0700838e-06
8.7705445e-06
8.4672894e-06
8.161241e-06
7.8533606e-06
7.5446391e-06
7.2360818e-06
6.9286944e-06
6.6234696e-06
6.3213755e-06
6.0233403e-06
5.7302436e-06
5.442906e-06
5.1620789e-06
4.8884486e-06
4.6226723e-06
1.8985217e-05
1.8668747e-05
1.8375834e-05
1.8104542e-05
1.7853083e-05
1.7619784e-05
1.7403083e-05
1.7201539e-05
1.7013831e-05
1.6838694e-05
1.6674988e-05
1.6521618e-05
1.6377577e-05
1.6241915e-05
1.6113742e-05
1.5992216e-05
1.587655e-05
1.5765991e-05
1.5659824e-05
1.5557371e-05
1.5457981e-05
1.5361031e-05
1.526592e-05
1.5172061e-05
1.5078889e-05
1.4985851e-05
1.4892408e-05
1.4798033e-05
1.47022e-05
1.4604394e-05
1.4504109e-05
1.4400838e-05
1.4294088e-05
1.4183365e-05
1.4068183e-05
1.3948061e-05
1.3822529e-05
1.3691132e-05
1.3553421e-05
1.3408965e-05
1.3257355e-05
1.3098207e-05
1.2931166e-05
1.2755906e-05
1.2572146e-05
1.2379649e-05
1.2178229e-05
1.196776e-05
1.1748176e-05
1.1519483e-05
1.1281764e-05
1.1035178e-05
1.0779968e-05
1.0516465e-05
1.0245087e-05
9.9663396e-06
9.680812e-06
9.3891777e-06
9.0921877e-06
8.7906614e-06
8.4854789e-06
8.1775729e-06
7.8679146e-06
7.5575008e-06