/*--------------------------------*- C++ -*----------------------------------*\
| =========                 |                                                 |
| \\      /  F ield         | OpenFOAM: The Open Source CFD Toolbox           |
|  \\    /   O peration     | Version:  2506                                  |
|   \\  /    A nd           | Website:  www.openfoam.com                      |
|    \\/     M anipulation  |                                                 |
\*---------------------------------------------------------------------------*/
FoamFile
{
    version     2.0;
    format      ascii;
    arch        "LSB;label=32;scalar=64";
    class       volVectorField;
    location    "8e-05";
    object      wallShearStress;
}
// * * * * * * * * * * * * * * * * * * * * * * * * * * * * * * * * * * * * * //

dimensions      [1 -1 -2 0 0 0 0];

internalField   uniform (0 0 0);

boundaryField
{
    Side
    {
        type            empty;
    }
    Inlet
    {
        type            calculated;
        value           uniform (0 0 0);
    }
    Airfoil
    {
        type            calculated;
        value           nonuniform List<vector> 
1047
(
(144.29135 -456.54163 -1.4529582e-23)
(133.1109 -422.36035 -8.5953372e-19)
(133.95831 -426.56271 6.9967803e-19)
(136.79096 -439.85058 1.7857413e-19)
(131.05323 -424.61112 7.5231638e-37)
(134.64728 -435.90785 -9.127254e-19)
(130.99253 -427.1419 9.0522042e-24)
(131.19447 -429.46714 -9.3920568e-19)
(132.59353 -433.4197 5.5295254e-35)
(133.38209 -435.28793 4.2214314e-19)
(133.20451 -434.18205 9.0531098e-24)
(134.20082 -435.76267 5.7377332e-19)
(134.54728 -435.59774 -9.1010084e-24)
(135.60716 -437.34547 5.4686669e-19)
(136.94885 -437.83195 -1.1159909e-18)
(137.43504 -436.13325 -9.0753534e-24)
(138.07611 -435.59909 3.7615819e-37)
(138.58109 -433.59737 -5.6531082e-19)
(139.22992 -432.77988 0)
(139.47526 -429.89942 5.2463103e-19)
(141.10482 -429.67185 1.8630593e-23)
(143.00346 -429.2664 4.7439574e-19)
(145.29402 -429.57129 -1.7146157e-18)
(147.16311 -428.84752 1.2657105e-18)
(149.3526 -428.9127 0)
(152.95096 -430.86397 -9.0746463e-19)
(152.21339 -421.88449 3.6330399e-19)
(155.89046 -427.2675 -1.0908588e-35)
(156.82988 -425.98238 1.3477181e-18)
(159.19755 -428.36235 -1.880791e-37)
(162.02013 -430.64034 -9.3582827e-35)
(165.93279 -436.12472 0)
(170.48133 -441.57462 1.5041948e-18)
(170.26981 -436.99404 1.4261353e-18)
(169.75193 -432.92352 -9.9552702e-19)
(173.67223 -437.28041 1.4814668e-18)
(177.35966 -440.54881 1.7887855e-23)
(182.8329 -447.70843 1.2171829e-18)
(187.16719 -453.34357 3.7615819e-37)
(186.79461 -449.53566 -4.4489027e-19)
(190.12616 -453.98108 -1.5652543e-18)
(193.58102 -457.45145 1.4261429e-23)
(194.68279 -457.77016 -1.6483544e-18)
(195.19509 -455.63114 -1.7554253e-18)
(199.53388 -457.43383 -1.373128e-23)
(208.67432 -465.37699 2.6967653e-19)
(219.21842 -479.56996 7.5231638e-37)
(214.52455 -463.73157 1.5718474e-23)
(245.75107 -415.146 2.0162205e-18)
(-1620.0243 540.69664 1.0185846e-17)
(-2019.7875 738.86435 3.3976072e-22)
(-2890.3624 -542.32801 7.7318245e-18)
(-3498.4522 229.46869 -1.3257191e-17)
(-2189.4401 183.75022 3.7615819e-37)
(-2378.5793 909.09111 -3.4792089e-22)
(-2101.4715 132.68457 -5.0017245e-18)
(-1434.9831 681.7752 -2.3720706e-23)
(2102.222 2670.5518 5.499385e-18)
(2321.1587 2814.3404 0)
(1029.5836 2168.9545 -5.380989e-18)
(-3332.4668 -257.36453 5.1075734e-18)
(2412.4453 3211.0354 -1.1656241e-17)
(1390.1942 382.4123 -1.9327231e-18)
(200.15129 -309.78152 -5.6594415e-18)
(-586.37031 -902.78699 -6.4463051e-23)
(-3527.6906 -1133.7144 -2.6882895e-22)
(241.79037 -209.88218 1.5771165e-22)
(121.85089 1749.9431 6.5986197e-18)
(-1637.5247 684.36929 -3.7615819e-37)
(-1191.4542 1809.3285 -3.3101921e-35)
(-87.493098 -415.57343 -1.4518462e-19)
(2726.0462 -4737.2796 -9.2778611e-18)
(291.41326 -1927.103 1.880791e-37)
(-917.89988 -953.91949 2.4664562e-23)
(-1595.2155 -1511.462 -2.2513878e-22)
(4391.322 5773.5693 5.0745033e-22)
(455.74987 -17.358085 -1.9849847e-22)
(2204.5813 -5528.0926 -1.5234407e-35)
(-1486.4821 1254.4859 -5.1289089e-18)
(-880.70665 -1107.5181 3.7615819e-37)
(-806.47352 -968.62314 -4.7355165e-18)
(25.742196 -892.84574 3.5846044e-23)
(437.9262 -296.759 -1.8770515e-23)
(470.40146 -256.29126 2.1299045e-24)
(136.96139 -525.79535 -8.1862328e-24)
(-398.75532 -1024.5006 -2.965122e-24)
(856.89259 -896.83217 -1.1242452e-17)
(2308.5012 -2140.1298 3.9840942e-18)
(-3557.7521 344.70502 8.0038706e-18)
(3720.3066 -2437.8755 -7.5231638e-37)
(-116.76631 -1219.7389 5.8989253e-18)
(-1880.108 697.94902 -3.9909176e-23)
(-11.423359 -1754.8526 -8.0938414e-18)
(-322.36472 -1632.5908 -4.4209028e-23)
(-480.14057 -1163.2541 2.6698652e-22)
(2089.5609 -1748.2383 5.9374528e-18)
(1328.9465 -468.47998 -5.0217119e-35)
(1039.8156 -219.02704 8.5024241e-35)
(121.71492 -1210.0987 -4.6173418e-35)
(-366.05214 -1116.781 1.9964741e-18)
(237.44969 -1249.247 -7.1599899e-18)
(962.7414 -1502.284 -1.723849e-22)
(-138.74509 -684.3701 -1.8338561e-23)
(181.17178 -638.03503 3.4897215e-23)
(461.15835 -427.64101 1.880791e-37)
(-2268.2614 -1827.6246 -2.935285e-18)
(1370.1988 -478.99758 -5.5267395e-23)
(378.97286 -243.82623 4.0849107e-19)
(349.40499 -178.88456 1.9385402e-23)
(221.32167 -230.24275 -8.9773568e-19)
(-237.98188 1766.3666 -1.4117814e-22)
(199.04582 -307.06797 -2.0554328e-19)
(182.66919 -282.24036 -1.2102888e-18)
(386.68928 -236.82957 3.0686172e-19)
(-1285.276 1021.5712 2.9592778e-18)
(421.43312 -383.80871 -8.9839839e-23)
(224.95424 -229.69547 -2.8484428e-19)
(2861.8921 -692.22333 6.3047639e-18)
(3269.913 -601.85985 3.9563773e-22)
(104.65223 -31.772124 1.3856333e-19)
(1026.8078 -127.50394 0)
(191.38459 -46.058105 5.2258267e-19)
(370.44271 -35.617834 1.2122096e-19)
(193.23074 13.71833 -5.0457996e-20)
(13.207485 -15.29165 -1.8903222e-39)
(187.47421 125.60634 6.4455323e-20)
(259.60319 -162.42509 -2.9387359e-39)
(3175.6911 1294.5121 -7.4036377e-19)
(-1220.0057 -3415.2179 3.1649387e-23)
(-1947.7077 3121.1068 -3.0925471e-18)
(850.8454 -945.68826 -2.4895852e-23)
(-1184.3901 -319.74647 -2.6053155e-18)
(-1585.5333 -904.82148 -1.5330942e-18)
(-756.80519 661.98161 1.5678261e-23)
(-1665.8601 239.75794 3.3388746e-23)
(3849.7482 1298.227 1.3371089e-17)
(-1653.5038 -87.121706 -2.2520706e-18)
(104.31756 -45.458591 -1.942055e-19)
(-829.34592 -336.78522 -1.4034992e-22)
(-538.20616 -25.241411 -2.2581812e-18)
(290.03152 280.73511 -9.5651115e-19)
(-18.132418 -2072.9184 2.2994657e-18)
(-1058.5336 46.344438 -2.9957738e-18)
(-777.62996 -917.5763 2.8242355e-22)
(-423.57249 -1013.3591 7.6484275e-36)
(-1385.3694 223.38004 1.4503946e-22)
(246.61126 201.90271 -1.8923431e-22)
(282.13964 178.39245 3.7615819e-37)
(480.41972 327.84395 -6.5473286e-19)
(1429.3712 983.41907 8.9707223e-18)
(343.12375 207.93208 1.8744922e-18)
(-1281.4475 -668.32575 5.5735625e-18)
(-54.691241 44.851313 0)
(1480.1416 1408.4855 1.2198651e-38)
(2528.1223 2208.9393 -3.9805172e-39)
(1531.8959 1471.4257 -6.3006497e-35)
(425.3459 -920.51421 4.0962264e-18)
(4693.0562 4624.7708 -1.880791e-37)
(3383.4493 3216.594 -2.0846741e-17)
(-174.43619 -686.10146 0)
(2556.7292 2770.9384 -2.2704535e-17)
(205.10594 105.00733 4.0678014e-23)
(273.56369 299.0852 -4.3436097e-23)
(-23.684643 46.228728 1.8534387e-34)
(621.9533 770.06524 0)
(-1282.3046 -372.99465 -5.976261e-18)
(475.73122 -160.13279 4.9092563e-19)
(1135.224 1398.1711 4.5399778e-22)
(-2825.0888 -3361.3081 -1.326548e-17)
(-550.85523 -878.9925 -1.1053192e-17)
(1732.3806 2320.6426 -2.4698e-22)
(505.17441 528.96975 2.2171806e-22)
(1239.6978 1696.6797 -8.0579219e-36)
(654.91134 -64.840894 0)
(905.59627 1696.0979 -8.2522882e-18)
(124.54331 182.43257 1.1246531e-22)
(1068.5972 1572.0678 1.0289907e-18)
(1157.7678 1760.377 1.2301153e-17)
(654.9535 1021.3508 0)
(959.76761 1526.774 1.0465284e-18)
(405.074 672.21381 -2.2045384e-18)
(290.8609 462.79612 -2.4017667e-18)
(300.2271 495.6725 4.3432829e-23)
(103.05011 187.4564 -4.1858008e-23)
(237.07651 394.1503 -1.9803628e-18)
(383.38811 656.41795 -2.5164646e-23)
(99.227615 182.09182 1.040739e-18)
(63.56011 158.39848 -1.0206327e-18)
(-1403.3929 -293.48169 -1.2014301e-17)
(335.1201 522.14297 1.4156375e-23)
(157.24102 293.94095 -3.0520023e-23)
(165.14358 123.60477 -1.1808018e-18)
(-926.24026 -1306.7114 1.1412686e-17)
(-951.28718 -1828.169 1.3120135e-17)
(-548.15764 -1455.5253 -5.8697272e-18)
(145.91495 513.20686 -2.0347865e-18)
(41.861773 124.86437 -1.0143386e-18)
(-5310.6384 1170.131 -1.1131676e-17)
(59.283365 346.10459 -4.3868922e-19)
(325.39707 104.36988 -2.7145416e-19)
(-5369.2624 655.40622 2.0148581e-22)
(27.380229 509.98713 -1.8999257e-22)
(298.06986 485.15969 -3.694046e-19)
(-421.87555 -634.18802 1.4903633e-22)
(127.81098 216.66222 -1.2755592e-22)
(159.04654 353.35947 -1.0821106e-18)
(79.081341 220.45325 -1.5860701e-22)
(-2537.6659 2.6685124 1.4655435e-22)
(-1001.6595 -711.75378 2.7550649e-40)
(-577.61464 -1308.3428 -3.0689713e-22)
(-1302.4453 -850.20208 -4.3480685e-18)
(-1041.7696 -1153.0207 1.4847598e-17)
(146.19316 286.28732 -3.919306e-24)
(198.11833 592.40671 -3.5399976e-23)
(652.38227 503.60561 -2.7264457e-18)
(316.93625 800.64735 1.556783e-19)
(248.8816 623.07612 -2.4193131e-18)
(199.53768 884.38286 -1.3203153e-34)
(378.1347 686.50097 2.8473196e-19)
(-4450.7556 987.23811 3.7615819e-37)
(-521.33157 312.67748 -1.8850586e-18)
(-1454.2577 180.34069 4.6642601e-18)
(82.218442 264.4988 1.491513e-19)
(-4569.4568 -10449.751 3.9730198e-17)
(-1309.6054 -1839.283 -9.4039548e-38)
(2970.5299 8554.2458 1.3610725e-17)
(53.369515 -19.471325 -1.7812821e-18)
(-655.73955 -248.60043 -8.5517566e-18)
(591.33662 1850.1171 -1.6447285e-23)
(840.73114 -1249.2541 -1.8483818e-22)
(-1329.3718 -388.33885 1.9439943e-22)
(950.30711 2938.8448 0)
(116.82214 216.17613 8.2458158e-19)
(219.36559 765.87612 -3.5995795e-23)
(-488.14193 -680.92823 4.2116049e-23)
(10.912846 20.611423 1.6678181e-18)
(-1154.2053 -1368.1252 1.5676418e-22)
(-952.0082 -1401.6357 -1.5471051e-17)
(-653.74761 -922.02376 1.1149446e-22)
(-798.07 -817.2065 3.9323754e-18)
(-45.01771 76.28293 7.0921063e-23)
(429.47207 1581.6411 8.6224634e-23)
(497.77476 1601.5691 -8.4435705e-23)
(629.83111 1868.8276 -1.1751203e-18)
(2116.3945 5803.148 1.4569397e-22)
(756.92906 -2039.9783 -4.6886016e-18)
(45.157705 165.50215 0)
(256.36694 85.313457 1.6795982e-18)
(1222.6667 460.25492 -1.5531997e-22)
(-640.40845 962.64637 5.3961478e-18)
(-585.14284 1062.6882 2.7882387e-23)
(-74.433717 -493.10737 1.4446376e-19)
(-37.005582 500.09534 -1.98732e-18)
(1472.973 602.82977 -1.5805319e-18)
(1071.6243 625.26494 1.4038432e-24)
(342.42588 479.07049 -5.041899e-18)
(662.95978 473.27737 -5.0540896e-18)
(185.96758 331.54132 6.7835651e-18)
(110.34184 325.13168 -3.7184552e-18)
(-343.64423 420.17351 2.5772973e-18)
(-24.861571 292.26263 8.5134084e-19)
(-21.419446 333.70387 -9.4791637e-19)
(-330.22525 411.20642 -2.3684383e-18)
(-307.68339 363.03503 -5.7801116e-24)
(-146.53615 424.62289 0)
(-47.253535 261.25467 4.8156315e-24)
(-291.59754 276.53782 2.6259926e-18)
(-16.260533 -114.4215 5.3198958e-19)
(-86.671097 181.13249 9.4603785e-35)
(-124.08651 182.72782 -8.2849355e-18)
(-349.98835 375.19921 5.4818012e-18)
(-355.50784 363.50401 -1.4603559e-18)
(-344.97614 382.62273 -9.2431703e-18)
(-328.09781 359.17902 -4.6855833e-24)
(-333.59542 350.42312 5.0939117e-18)
(-355.42535 353.81715 3.6734198e-40)
(-130.20821 157.47747 3.936231e-18)
(-99.9739 180.0835 2.3509887e-38)
(-65.453445 178.68601 2.3509887e-38)
(-138.26205 126.07582 3.1586364e-18)
(-139.16341 359.52044 4.7819361e-18)
(-22.732322 -168.73185 1.1590374e-34)
(56.988663 482.53986 -5.4818005e-18)
(-366.9477 287.23329 -3.2586048e-18)
(-306.33646 380.81193 3.1156195e-18)
(-213.69251 383.1395 8.4629667e-24)
(-177.77462 144.57878 6.4352301e-18)
(-9.2768065 -79.202621 1.5703017e-18)
(-197.61815 129.50109 -4.627491e-24)
(-298.73221 306.08378 3.9145208e-18)
(-321.91941 335.12925 4.147761e-18)
(41.759974 554.41803 2.0973427e-18)
(-524.87919 395.84011 7.1551422e-18)
(-26.481405 535.17337 -6.7295909e-24)
(-13.049914 -93.687235 6.5025803e-24)
(-197.95848 -15.925543 0)
(-79.713967 457.52413 2.3509887e-38)
(-170.69461 76.603917 2.5719849e-18)
(-276.09159 536.85856 -7.8519692e-24)
(-43.116416 243.96027 7.6276362e-24)
(-120.65079 113.0909 -5.6475947e-18)
(-139.1175 404.02634 4.2280981e-18)
(66.842343 737.5635 5.9740734e-18)
(-214.45675 865.01009 1.1659223e-23)
(-202.47657 902.2002 -1.8367099e-40)
(-33.196988 -246.93936 -1.6986998e-18)
(4.6333559 52.829595 4.1004935e-18)
(-139.34692 158.09714 -5.9296669e-18)
(-110.05986 94.4758 1.0059782e-23)
(-122.51414 192.07347 6.3022396e-18)
(-246.32616 448.44928 6.6417979e-24)
(-825.25192 323.20244 4.4651451e-24)
(-13.865408 -101.81207 -4.4128032e-24)
(-504.90689 497.9935 8.2267208e-18)
(-191.32659 333.80954 1.4105932e-37)
(-318.85685 442.10566 -7.7902823e-18)
(-5.2404736 -67.243415 -2.6294988e-18)
(-200.01849 232.67463 -4.9691947e-18)
(-188.75723 376.46062 6.4937815e-24)
(-305.13207 314.59842 -1.1397241e-17)
(-740.43883 663.06363 5.6424714e-18)
(-1.5852892 -75.857755 -5.9000651e-24)
(-360.60499 511.87938 7.7543757e-24)
(-1256.8953 621.793 1.3659697e-17)
(-280.68585 166.36888 -5.0113835e-18)
(-283.72987 239.81564 -5.9069657e-24)
(-339.78674 354.47838 5.8850786e-24)
(-443.19642 481.05013 7.7253191e-18)
(-289.83321 302.95754 -4.8380803e-18)
(-255.63384 190.60975 -4.7019774e-38)
(-297.84552 370.30428 6.795708e-18)
(-5.7644754 -91.733804 -3.6092404e-18)
(-10.838586 -96.36021 -2.6443921e-34)
(-9.2128676 -85.063908 2.3509887e-38)
(-316.41593 263.75448 -4.8975429e-18)
(-298.618 125.04739 1.0607758e-17)
(83.983397 -218.48019 -4.2723374e-24)
(-79.322999 390.97156 4.2424294e-24)
(-87.936981 509.52718 6.6363929e-24)
(-149.45793 287.27991 -6.2814234e-18)
(-860.82498 525.40249 -1.2252942e-17)
(-1162.3111 528.77659 2.1432738e-24)
(-11.764334 -103.91424 4.6825812e-24)
(-11.450628 -100.89506 -2.8502749e-18)
(-179.32441 236.9467 4.7638378e-18)
(-144.21528 192.87643 1.0116551e-17)
(-10.647551 -99.621255 3.8250346e-24)
(-78.577032 368.02761 5.7366431e-24)
(-150.86953 229.7842 -5.7180595e-24)
(-325.9785 308.69605 -8.5916411e-41)
(-1154.8082 499.84869 2.7671137e-35)
(-95.622739 577.64541 -1.3754774e-17)
(-137.97703 71.426104 4.9892263e-24)
(-321.65813 377.77083 -5.0078245e-24)
(415.78095 680.28838 -8.2283561e-24)
(-291.24976 524.47343 -7.798769e-18)
(-301.74092 269.77382 -1.3119169e-18)
(-414.86729 151.65518 4.5744739e-18)
(-3503.3899 887.10471 -4.987293e-18)
(-354.65774 548.99498 7.4448711e-24)
(-285.12786 477.68885 7.4747292e-35)
(-358.72801 525.41357 -7.3213652e-24)
(-1065.4092 633.63965 1.3107627e-23)
(-267.30726 85.101636 -5.6121395e-24)
(-317.09171 308.77585 -1.0881522e-17)
(-277.93555 255.37634 5.7767631e-18)
(-287.79097 305.50349 -6.1544736e-18)
(-299.80239 296.56443 4.6178902e-18)
(-314.63074 416.16857 4.7850016e-18)
(-316.92112 486.28512 -4.9183534e-18)
(-236.40382 524.42648 7.1053837e-24)
(-651.15252 642.28391 -4.4841551e-44)
(-293.36509 495.75577 -8.2075e-24)
(123.14014 790.00649 -1.4374751e-24)
(25.162431 867.14121 5.9278353e-18)
(1888.322 617.91795 1.0085953e-17)
(1930.9387 581.53884 -2.2802754e-36)
(-186.39523 503.46991 7.5925997e-18)
(-294.0586 366.65883 -1.1773945e-23)
(-238.6034 168.16983 4.5762823e-18)
(-345.54229 212.72418 4.762238e-18)
(1964.1934 488.30293 7.5656913e-24)
(-461.45349 452.69409 -7.4282966e-24)
(-1293.9173 847.13273 -5.3875522e-18)
(189.34791 620.5441 9.4039548e-38)
(-363.61234 472.9175 7.2768016e-18)
(-358.77006 639.06708 7.3875161e-24)
(-338.16142 478.41708 -7.3335566e-24)
(-339.56759 478.3647 6.5478692e-24)
(-334.48199 420.62217 -9.2152575e-25)
(-319.67791 228.91047 -3.4883608e-25)
(-330.39308 325.82407 4.815395e-18)
(-293.3494 297.34617 -1.1754944e-38)
(-14.193375 -155.78485 8.8655127e-19)
(-309.95855 146.0524 1.4870004e-35)
(-344.9478 567.18061 -5.1494188e-18)
(-324.52547 404.3686 6.8421117e-24)
(-287.29172 243.75558 5.8170419e-18)
(-332.02161 97.110474 -5.0217447e-18)
(54.996166 -296.63758 -1.1489332e-18)
(-5.7740361 -83.664782 0)
(-346.22762 376.11869 1.1754944e-38)
(-313.76465 566.24337 8.06155e-18)
(34.668509 780.07471 -5.6453232e-18)
(-219.7068 809.25833 -5.059225e-25)
(-155.34778 934.60311 -6.0699942e-18)
(-163.25472 911.31997 0)
(-327.45173 767.82744 -2.8356798e-18)
(-346.82716 421.5551 3.5667516e-18)
(-335.48796 249.0425 3.1039982e-18)
(-321.65014 566.82946 -2.6334826e-18)
(-312.25774 708.83229 4.6404134e-18)
(-369.57312 503.52752 -1.2893223e-18)
(-363.09011 412.17855 1.4923268e-40)
(-351.16707 437.0976 6.3238426e-24)
(-322.83523 366.7865 -1.2647671e-23)
(-300.93696 451.36462 -1.8233702e-24)
(1.2810882 844.02234 1.7480269e-23)
(-334.02176 634.26884 -7.0611639e-18)
(-343.11553 314.10608 2.3509887e-38)
(-353.55982 467.57101 5.8774718e-39)
(-338.27484 440.48994 3.6732614e-18)
(-317.43723 190.74311 2.4130016e-18)
(-293.78845 330.86266 -3.1665352e-18)
(-266.78312 275.06265 5.1980129e-18)
(-334.64933 330.97701 3.202065e-18)
(-329.69725 296.66353 -5.7072621e-24)
(-264.35234 137.84346 -2.2163233e-18)
(-220.06776 203.14657 2.8968695e-18)
(-301.00018 264.24261 2.2727029e-18)
(-246.52937 157.67887 4.7897246e-18)
(-279.70021 195.94318 -1.1754944e-38)
(-392.40788 680.36684 -7.8725118e-37)
(-405.90362 722.59868 1.7742569e-23)
(-370.57252 699.18691 -4.7105947e-18)
(-332.84107 378.37428 -5.8578902e-18)
(-246.02785 249.92542 5.7595802e-18)
(-55.99167 656.58446 6.5181162e-36)
(-190.5402 442.22995 2.7583051e-18)
(-152.15789 457.86855 3.533536e-35)
(52.328911 530.6335 -2.9516951e-40)
(-159.37528 494.6073 -1.6947819e-23)
(817.12987 738.3983 2.9810149e-18)
(-1235.7076 637.68173 1.798937e-23)
(-317.33085 419.37298 1.137271e-18)
(-207.13063 195.48667 -1.1760684e-23)
(-185.51334 341.71669 -2.6468032e-18)
(-290.4616 419.19763 -3.6368093e-18)
(-267.6909 459.56097 -3.8234529e-18)
(-372.00538 307.91025 -3.325832e-18)
(-345.34849 244.85597 -1.5990498e-25)
(-346.74393 328.1263 1.1717524e-23)
(-308.63682 648.34913 -1.102026e-39)
(9.903082 869.78357 2.5308403e-18)
(2.0290366 826.43763 -5.5125004e-18)
(-378.55867 360.98383 -3.0756866e-24)
(801.29813 392.94636 -2.002651e-18)
(-284.34892 310.80926 -1.3102923e-18)
(-363.20141 373.90653 -1.5666174e-25)
(-325.68284 298.32269 -1.2760742e-18)
(-169.02719 175.11674 2.1481523e-23)
(-287.25586 199.61535 1.0860878e-24)
(-344.19531 313.69086 -1.1546563e-23)
(-342.56586 387.25336 -2.2631531e-40)
(-292.96225 234.83555 1.2270279e-23)
(-310.13714 362.96598 -5.1984324e-19)
(-301.54342 383.52749 -1.8782016e-18)
(-265.02504 273.68569 1.2833214e-23)
(-338.3482 356.20239 1.8214284e-18)
(-250.46474 273.07778 -2.0571151e-38)
(-207.84719 268.36791 -1.7381702e-18)
(-312.04753 399.91609 -2.0033416e-18)
(3.3676713 -350.5575 -1.3224311e-38)
(-313.24119 427.7537 -1.6759457e-23)
(-748.8594 656.30354 -3.9512085e-18)
(-5.762965 -208.73794 3.1176144e-19)
(-195.96043 586.14779 -1.2084977e-18)
(-155.16455 330.58555 -2.9652999e-23)
(-696.85867 411.27903 -6.6619953e-19)
(-316.27591 581.97458 -1.9407617e-18)
(-567.00129 698.19954 3.6734198e-39)
(-309.34174 446.16232 3.409694e-19)
(42.132219 1038.194 -7.3468397e-40)
(-108.33978 811.62403 -8.428351e-19)
(1353.9013 863.00131 2.312812e-23)
(-259.67542 340.29293 -7.3375938e-19)
(-175.98723 394.44011 1.0773643e-18)
(-289.97909 404.29992 -3.6874052e-19)
(-223.00634 591.96316 1.0291703e-18)
(-426.58708 973.0323 2.3287851e-23)
(-107.53978 676.19396 6.8644476e-19)
(112.28137 789.63877 -1.4253787e-35)
(-328.60077 672.26617 -4.1454805e-19)
(-295.24685 489.20509 8.2651947e-40)
(-283.11508 791.74646 -2.1509155e-23)
(94.594008 621.98876 2.1374914e-23)
(116.95763 701.84182 7.2677686e-20)
(31.717583 1089.3058 2.6302602e-23)
(-238.73228 790.47071 -4.8750762e-20)
(-229.9839 463.10322 -3.1782177e-24)
(-226.93161 432.64444 -1.7073997e-23)
(-198.71426 421.0885 -4.3734906e-20)
(-206.62297 457.50676 3.1177561e-19)
(-169.45653 497.30489 1.7821273e-23)
(-158.29452 700.90915 -1.503132e-19)
(-203.09378 834.2232 -2.3618342e-23)
(-144.41477 420.88603 4.4475729e-19)
(-41.63213 390.63716 -3.3060779e-39)
(-66.990663 380.6245 -5.9270311e-19)
(-105.9588 480.27749 -1.7377037e-23)
(-44.606966 474.19093 -1.8196048e-23)
(-193.30437 457.35711 3.5985104e-23)
(-175.46687 409.19909 -4.4324038e-19)
(-136.93494 439.90402 3.8818062e-19)
(-63.370325 507.82907 9.1094216e-19)
(-62.448601 497.96869 -2.9387359e-39)
(-16.87767 450.41735 -8.9007548e-19)
(-27.360751 459.32673 -1.8519587e-23)
(-26.032898 493.48739 -1.351186e-18)
(-31.132996 454.72699 -9.067184e-19)
(-64.19661 450.39359 -1.8702257e-23)
(-34.561287 451.30656 1.8821757e-23)
(-61.826637 456.90543 -9.2377292e-19)
(-95.117369 479.40318 -2.9387359e-39)
(-180.93933 499.82064 -1.9917135e-23)
(-160.5243 471.08381 2.0001578e-23)
(-119.75543 473.20744 1.4044724e-18)
(-171.6765 486.76426 4.5505551e-25)
(-104.73272 514.6796 5.4607107e-25)
(-71.639249 540.20194 -2.1250631e-23)
(-57.618358 522.62475 2.0004641e-18)
(-14.637106 578.45057 -3.1559301e-18)
(-108.88053 577.49049 1.1342128e-18)
(-80.279789 578.89891 -2.2864681e-23)
(39.966973 568.94791 0)
(-86.65867 514.58495 -3.0882458e-18)
(-144.17197 585.32779 9.1835496e-41)
(-107.43041 482.04696 -2.0598052e-18)
(-102.45104 473.19764 -1.8367099e-40)
(-149.13334 486.05937 -3.0347736e-18)
(-142.9984 552.70359 -2.2376477e-23)
(-129.53638 469.30025 3.0624248e-18)
(-173.59477 467.26128 -2.3035186e-23)
(-210.45447 582.31392 3.316585e-18)
(-281.21183 534.63243 5.2314575e-18)
(-329.73107 521.44083 5.8774718e-39)
(-235.29783 416.21666 2.0997842e-18)
(-303.28786 463.31568 2.3673924e-23)
(-491.1309 529.64063 -2.3934546e-23)
(-509.257 452.98253 -5.8774718e-39)
(-521.57499 461.34625 3.378663e-18)
(-532.84923 696.98994 6.6144196e-18)
(-644.09811 934.88561 4.8347697e-18)
(-569.6709 673.33732 2.4467033e-18)
(-630.89281 910.97436 -2.1902434e-18)
(-591.33549 797.30596 1.8367099e-40)
(-613.3719 782.13818 -3.1982159e-35)
(-637.92637 956.92315 3.6631673e-23)
(-611.40302 799.02637 -7.3305098e-23)
(-602.07916 960.45739 -5.2629626e-18)
(-597.39471 965.06124 -1.1754944e-38)
(-651.03546 847.79217 -1.2201631e-35)
(-801.07185 744.0893 -7.2085062e-18)
(-1067.4614 294.05205 -2.1758372e-18)
(-1689.664 432.17812 2.6245896e-23)
(-614.14932 658.76182 4.4136716e-18)
(-608.6236 747.74937 -3.4467915e-23)
(-650.79303 839.13029 3.8719985e-23)
(-701.67026 842.32406 -7.998425e-25)
(-650.50057 776.82635 5.0066145e-18)
(-645.55895 801.1488 -3.9041932e-23)
(-666.98464 834.57071 7.9292874e-23)
(-659.3034 815.55934 5.2946835e-18)
(-595.11044 871.03069 3.017563e-18)
(-566.15552 932.18241 -4.2993492e-23)
(-468.6566 949.24013 3.1480743e-18)
(-218.21239 1018.3236 -4.5926071e-23)
(-210.45466 1017.5448 -3.2468408e-18)
(-215.10147 1008.543 4.6684229e-23)
(-860.99967 929.90513 4.8520458e-23)
(-4156.295 605.74916 -6.7463049e-18)
(-5004.1128 508.1685 -3.5723844e-18)
(-1709.4128 951.36511 3.4293378e-18)
(-553.86126 1204.2768 -7.5980024e-18)
(-740.77667 1193.3873 7.7877041e-18)
(-746.80474 1256.3313 -4.1458461e-18)
(-750.3681 1269.4209 -4.230659e-18)
(-753.4789 1267.4375 6.3218308e-23)
(-755.47383 1257.6101 -6.3910202e-23)
(-756.40385 1247.5077 2.3509887e-38)
(-755.2379 1226.5502 -4.4356806e-18)
(-752.76582 1195.8499 2.3509887e-38)
(-735.40573 1092.3196 5.8799462e-23)
(-712.72875 949.11601 -5.9052954e-23)
(-689.42196 792.56254 4.7928415e-23)
(-663.17753 575.84797 -6.8662113e-24)
(-747.85627 386.22581 -4.1777634e-23)
(35.715073 -243.46584 1.3571784e-18)
(49.048066 -278.34564 3.46613e-23)
(-814.44362 949.95269 -8.2822896e-18)
(76.558156 -416.73689 6.4765192e-23)
(-746.70884 986.50998 -1.0538739e-22)
(-811.38756 1224.242 5.1830349e-18)
(-779.46716 1136.5839 -5.1258554e-18)
(-735.40173 923.94722 1.3440895e-17)
(-733.6315 856.43073 -5.811312e-23)
(-684.96273 651.84796 1.2329909e-17)
(-513.37301 416.47297 4.742925e-18)
(-354.06154 319.02126 -1.4693679e-39)
(-637.12977 282.37505 5.8978912e-18)
(46.61626 -241.12596 -1.495772e-18)
(-287.37437 400.06092 4.8460279e-18)
(-471.61281 243.71512 -9.4039548e-38)
(58.16723 -288.20104 0)
(56.631564 -249.29131 -1.5700597e-18)
(89.498128 -272.72523 -9.0193273e-19)
(-911.88456 491.73298 -3.3977546e-23)
(-957.59828 627.66365 7.1746481e-43)
(-909.7212 767.34914 0)
(-598.69178 677.25181 -2.3024453e-35)
(-246.18873 382.76136 -2.9865073e-23)
(65.63093 -291.30515 -8.4451235e-24)
(-4.4662572 767.76568 3.9930219e-23)
(55.887061 -274.83816 1.1381195e-23)
(86.542295 -398.79772 5.5295134e-19)
(87.609997 -377.00396 -4.0630431e-19)
(92.296248 -371.4124 -5.1498712e-19)
(90.897333 -369.15613 5.8839266e-19)
(95.202986 -388.60692 -4.9072732e-19)
(99.80564 -402.21198 -8.5597023e-24)
(103.77833 -413.4954 1.9758981e-39)
(106.88463 -421.17769 4.0184005e-42)
(109.39855 -426.95211 -1.5704605e-34)
(111.94888 -433.54082 7.3582904e-19)
(113.88808 -438.77088 -6.7666403e-24)
(115.34151 -441.6943 -2.3288814e-19)
(116.23216 -442.23607 0)
(117.63259 -445.6219 6.3026319e-24)
(116.49443 -443.03649 -6.5137749e-24)
(118.08695 -449.63419 -1.52548e-35)
(115.96308 -443.99818 6.2885953e-24)
(117.99309 -456.33063 -6.4326001e-24)
(114.95805 -443.15815 -6.0537776e-19)
(114.5114 -442.1879 -7.908726e-35)
(114.80604 -445.622 -1.5858165e-18)
(114.78248 -446.68602 8.2647246e-24)
(114.56538 -446.68852 -8.400019e-24)
(109.72947 -432.53694 1.2782393e-19)
(1030.4383 4262.5648 -3.0354556e-18)
(435.90593 1764.5313 -7.6606797e-18)
(187.08273 493.99608 -1.7314461e-18)
(273.30821 834.4656 3.1594296e-19)
(-40.311374 31.507705 -9.4039548e-38)
(430.64651 1910.8777 4.3987176e-23)
(56.598819 506.29834 -4.1477234e-23)
(3206.8934 -1189.7744 -1.0042586e-18)
(-689.27819 -1899.0349 1.1391396e-17)
(87.981741 210.3196 7.362432e-19)
(63.282449 239.4009 7.6318842e-19)
(80.263281 308.0241 1.7640926e-23)
(69.294584 327.29151 -1.0361036e-19)
(39.193106 188.82911 -1.2252601e-18)
(-1589.5442 -299.86369 2.9647806e-18)
(-739.61401 -1190.8166 2.0337966e-22)
(2227.4597 -1987.2047 -1.0711342e-22)
(5408.9845 -2710.815 9.8005733e-18)
(5669.0865 -2734.564 -5.6423729e-37)
(5098.8318 -2502.8365 8.5365849e-23)
(1873.8516 -1439.0811 4.8989585e-18)
(-3722.6641 -440.59891 9.0003962e-23)
(-2697.5166 -568.5908 5.6743315e-18)
(-1153.8181 -1429.0544 -1.0808757e-22)
(625.73188 -1630.6594 -6.4552135e-18)
(3848.6036 -2243.7779 1.880791e-37)
(4248.4836 -2337.2262 3.0186129e-18)
(3960.5361 -1925.0128 -4.795769e-18)
(-7398.7912 559.19619 2.3046466e-18)
(-1100.4506 -1142.7649 -8.8684183e-23)
(-664.75778 -1210.9544 -5.5860435e-18)
(-649.98052 -1430.9169 9.3373989e-23)
(-618.74984 -1592.5566 -1.3558624e-17)
(-570.57659 -1382.0444 0)
(-621.81106 -1542.714 0)
(-611.77641 -1412.0983 -1.1779336e-17)
(-664.55841 -1315.2289 5.385984e-18)
(-677.3027 -1603.4397 6.0851044e-18)
(-737.98865 -1583.5525 1.2399854e-17)
(-89.835894 -1840.0102 1.7937842e-22)
(-933.39044 -756.1102 5.2682483e-18)
(-472.7587 -1264.1497 1.0652028e-17)
(100.84198 578.66878 2.8250747e-19)
(-289.27333 -1381.5954 1.049149e-17)
(-3112.7167 -928.30028 7.0062259e-23)
(-2030.4838 -575.72932 -1.1479093e-17)
(50.239686 335.20259 3.297871e-23)
(64.331271 374.55003 -5.9638025e-24)
(-15.801486 146.32481 5.1580313e-35)
(289.00368 418.79497 4.7019774e-38)
(48.072869 280.84177 1.8607422e-19)
(45.438953 275.00612 8.2393777e-19)
(50.502802 284.04887 0)
(434.42655 340.54438 1.1760857e-34)
(91.646645 578.01707 -2.6991667e-40)
(245.20292 1583.8598 0)
(279.86656 1544.2266 2.8128598e-19)
(339.80846 1580.3722 -2.6714172e-23)
(144.97188 992.29571 -3.0261137e-18)
(152.09625 1475.3645 7.3468397e-40)
(227.6912 1594.3415 -5.3167247e-18)
(225.54641 1601.574 7.3468397e-40)
(224.52407 1612.2407 -3.1698865e-19)
(221.70257 1614.591 -5.2383479e-18)
(214.91156 1589.0927 2.8433274e-19)
(218.98008 1641.33 3.401818e-19)
(212.00977 1614.1299 3.4402035e-23)
(206.13168 1594.485 4.947629e-18)
(202.78083 1591.8744 2.6992373e-19)
(204.30728 1630.3256 -4.9969333e-18)
(204.05719 1655.6892 0)
(203.73341 1678.1368 3.515815e-19)
(196.22733 1640.2164 -5.2103094e-18)
(191.0251 1621.799 -3.3393145e-23)
(253.51347 1668.3014 3.3089269e-23)
(189.60336 1670.7214 4.5415247e-18)
(166.53538 1488.8838 1.2941643e-24)
(201.17709 1584.362 4.5192373e-18)
(286.58853 1553.8238 -2.4163445e-19)
(314.57836 1573.45 -2.5850895e-19)
(218.9678 1527.6512 3.9956102e-18)
(174.34264 1628.222 4.4734937e-18)
(210.58563 1614.3804 -4.705072e-18)
(117.75832 1188.6015 1.2554432e-23)
(78.404799 808.01622 1.6473253e-18)
(59.382245 622.9016 -1.3611154e-18)
(55.547067 592.60297 -1.1754944e-38)
(55.055777 600.04419 -1.0112311e-18)
(55.806852 622.6055 1.3223329e-18)
(57.430138 651.5589 1.3955469e-34)
(90.194085 1044.1479 1.2951017e-23)
(87.750848 1038.2127 1.2505568e-19)
(78.547201 948.2039 -1.6231033e-19)
(62.023145 764.21524 1.3989083e-18)
(50.263232 633.0057 7.0529661e-38)
(44.943699 579.06888 0)
(41.858595 551.2843 -2.7246897e-19)
(40.760424 548.7854 -3.3452876e-25)
(39.441295 542.36606 2.1140216e-25)
(35.225652 522.78939 -1.1181896e-24)
(255.41242 648.07413 6.5162929e-25)
(96.053439 400.39878 -5.2806845e-19)
(102.71368 403.83256 -3.9844669e-19)
(44.242458 435.30014 0)
(21.058937 332.07079 2.3718838e-19)
(18.236399 295.48371 1.919163e-19)
(22.222912 370.34835 3.1573944e-19)
(20.056382 346.71036 -4.7773494e-24)
(11.731771 206.21964 2.1382242e-35)
(11.387717 206.33441 -4.9088891e-19)
(9.9976681 195.96232 9.3066611e-20)
(5.8262891 156.70817 -1.0412365e-23)
(-44.069624 89.37499 8.5338472e-19)
(-9755.3767 -613.34195 -2.4795602e-23)
(-3067.6251 -502.85812 3.6865991e-23)
(7201.519 -1932.2199 -3.9086347e-23)
(6292.4233 -1487.2535 -2.8579895e-18)
(-2628.8866 -1574.2511 -6.5366768e-18)
(-57.576217 378.61155 4.1228517e-20)
(14.498083 415.92651 2.0788641e-19)
(-479.22655 -268.13829 2.7776914e-23)
(-3983.416 -990.01992 -2.8968884e-23)
(-6862.7799 -838.90104 2.3321106e-18)
(-7090.1703 -1043.6629 2.6280368e-18)
(-7021.0893 -819.80929 1.2914321e-18)
(-6584.71 -1040.2778 1.3776694e-18)
(-5670.9986 -959.5338 2.3733583e-18)
(-4494.8804 -761.86083 -2.036205e-18)
(-4062.8928 -811.88077 3.2592553e-18)
(-4563.8302 -1305.7121 -3.7345112e-23)
(-4484.5791 -904.48375 -3.3609373e-18)
(-3398.6803 -1731.0129 -4.4621208e-23)
(-5088.5827 -1722.054 3.2176249e-18)
(-6496.2875 -1727.9607 2.406885e-23)
(-7586.8496 -1697.1915 1.102026e-39)
(-6901.2263 -822.80913 9.6377431e-19)
(-2342.6068 -569.84941 -1.5334613e-23)
(-228.8386 -1343.4569 6.5075724e-19)
(-6256.4261 -1595.5884 -1.8367099e-39)