/*--------------------------------*- C++ -*----------------------------------*\
| =========                 |                                                 |
| \\      /  F ield         | OpenFOAM: The Open Source CFD Toolbox           |
|  \\    /   O peration     | Version:  2506                                  |
|   \\  /    A nd           | Website:  www.openfoam.com                      |
|    \\/     M anipulation  |                                                 |
\*---------------------------------------------------------------------------*/
FoamFile
{
    version     2.0;
    format      ascii;
    arch        "LSB;label=32;scalar=64";
    class       volScalarField;
    location    "0.0005";
    object      Ma;
}
// * * * * * * * * * * * * * * * * * * * * * * * * * * * * * * * * * * * * * //

dimensions      [0 0 0 0 0 0 0];

internalField   nonuniform List<scalar> 
13761
(
0.29293937
0.29362514
0.29455559
0.29455437
0.29362549
0.29293936
0.29214921
0.29132057
0.2945572
0.29362872
0.2929428
0.29215308
0.29132505
0.29068028
0.29021651
0.2945602
0.29363141
0.29294571
0.29215641
0.29132842
0.29068338
0.29021975
0.28982914
0.2895302
0.29456196
0.2936336
0.29294815
0.2921591
0.29133159
0.29068713
0.29022406
0.28983387
0.28953535
0.28940598
0.28945325
0.29456453
0.29363623
0.29295102
0.29216234
0.29133514
0.29069094
0.29022825
0.28983852
0.28954054
0.28941175
0.2894596
0.28969772
0.29019577
0.2945669
0.29363887
0.29295395
0.29216562
0.29133883
0.29069507
0.29023288
0.28984365
0.28954618
0.28941794
0.28946642
0.28970528
0.29020408
0.29103672
0.29232718
0.29456961
0.29364174
0.29295711
0.29216918
0.29134278
0.2906994
0.29023771
0.28984901
0.2895521
0.28942448
0.28947366
0.28971331
0.29021292
0.29104634
0.2923373
0.29422294
0.2968245
0.30033734
0.29457236
0.29364473
0.29296044
0.29217291
0.29134694
0.29070403
0.29024288
0.28985475
0.28955843
0.28943146
0.28948137
0.28972185
0.29022234
0.29105653
0.29234802
0.29423395
0.29683549
0.30034751
0.3051797
0.31153826
0.29457533
0.29364792
0.29296397
0.2921769
0.29135137
0.29070892
0.29024834
0.28986082
0.28956513
0.28943886
0.28948957
0.28973095
0.29023238
0.29106739
0.29235948
0.29424564
0.29684726
0.30035841
0.30518749
0.31153972
0.31919225
0.32745899
0.29457842
0.29365127
0.2929677
0.2921811
0.29135605
0.29071411
0.29025415
0.28986729
0.28957226
0.28944674
0.28949829
0.28974063
0.29024307
0.29107897
0.29237169
0.29425811
0.29685981
0.30037001
0.3051957
0.31154119
0.31918452
0.32744224
0.33475385
0.34042286
0.29458171
0.29365482
0.29297167
0.29218558
0.29136103
0.29071962
0.29026031
0.28987415
0.28957983
0.28945511
0.28950758
0.28975093
0.29025446
0.2910913
0.29238472
0.29427143
0.29687322
0.30038243
0.30520452
0.31154283
0.3191764
0.32742447
0.33472996
0.3403995
0.34484562
0.34911633
0.29458517
0.29365856
0.29297587
0.29219032
0.2913663
0.29072546
0.29026685
0.28988145
0.28958788
0.28946402
0.28951746
0.28976191
0.2902666
0.29110446
0.29239862
0.29428566
0.29688754
0.3003957
0.30521395
0.31154461
0.31916775
0.32740547
0.33470461
0.34037411
0.34482123
0.34908828
0.35393513
0.3589214
0.36157282
0.29458883
0.29366251
0.29298031
0.29219536
0.29137188
0.29073165
0.2902738
0.28988921
0.28959644
0.28947349
0.28952798
0.28977359
0.29027953
0.29111849
0.29241346
0.29430085
0.29690284
0.30040988
0.30522405
0.31154657
0.31915859
0.32738521
0.33467751
0.34034692
0.34479505
0.34905825
0.3538928
0.35886399
0.36152047
0.36106635
0.35987744
0.29459268
0.29366668
0.29298501
0.29220069
0.29137781
0.29073822
0.29028117
0.28989745
0.28960553
0.28948356
0.28953918
0.28978604
0.29029332
0.29113345
0.29242929
0.29431708
0.29691918
0.30042502
0.30523485
0.31154871
0.31914885
0.32736357
0.33464856
0.34031775
0.34476703
0.34902602
0.35384782
0.35880232
0.36146423
0.36102597
0.35985187
0.35983672
0.3600401
0.35733981
0.29459676
0.29367108
0.29298999
0.29220636
0.29138409
0.29074518
0.290289
0.28990621
0.2896152
0.28949428
0.2895511
0.28979929
0.29030802
0.29114941
0.29244619
0.29433441
0.29693664
0.30044121
0.3052464
0.31155105
0.31913853
0.32734047
0.3346176
0.34028649
0.34473704
0.34899145
0.35379964
0.35873594
0.36140353
0.36098206
0.3598239
0.35981847
0.36004899
0.35749669
0.34950906
0.33027366
0.28524351
0.29460107
0.29367573
0.29299526
0.29221237
0.29139076
0.29075257
0.29029732
0.28991552
0.28962548
0.28950568
0.2895638
0.28981341
0.2903237
0.29116644
0.29246423
0.29435292
0.29695529
0.30045851
0.30525875
0.31155362
0.31912757
0.32731579
0.33458451
0.34025295
0.34470494
0.34895437
0.35374809
0.35866452
0.36133805
0.36093461
0.35979339
0.35979781
0.36005408
0.35764808
0.35018722
0.33199663
0.28876436
0.29460564
0.29368063
0.29300084
0.29221875
0.29139784
0.29076041
0.29030615
0.28992542
0.28963642
0.28951781
0.28957732
0.28982846
0.29034041
0.29118461
0.2924835
0.29437271
0.29697522
0.300477
0.30527196
0.31155642
0.31911596
0.32728943
0.3345491
0.34021698
0.34467058
0.3489146
0.35369292
0.3585877
0.36126734
0.36088326
0.35976009
0.35977445
0.36005485
0.35779207
0.35086493
0.33376015
0.292329
0.29461048
0.29368582
0.29300675
0.29222553
0.29140535
0.29076873
0.29031553
0.28993596
0.28964806
0.28953072
0.28959173
0.28984451
0.29035825
0.29120401
0.29250407
0.29439385
0.29699652
0.30049676
0.30528609
0.31155948
0.31910364
0.32726125
0.33451123
0.34017835
0.34463378
0.34887193
0.3536339
0.35850507
0.36119097
0.36082772
0.35972374
0.35974816
0.36005055
0.35792664
0.35153586
0.33555728
0.29593767
0.2946156
0.2936913
0.29301299
0.29223271
0.29141333
0.29077756
0.29032549
0.28994716
0.28966045
0.28954447
0.28960708
0.28986161
0.29037726
0.29122471
0.29252603
0.29441644
0.29701926
0.30051785
0.30530119
0.31156281
0.31909057
0.3272311
0.33447067
0.34013687
0.34459439
0.34882618
0.35357079
0.35841622
0.36110847
0.36076764
0.35968406
0.35971874
0.36004091
0.35804965
0.35219267
0.33737909
0.29959062
0.29462104
0.29369709
0.2930196
0.29224033
0.2914218
0.29078694
0.29033607
0.28995907
0.28967363
0.2895591
0.28962344
0.28987984
0.29039755
0.29124682
0.29254948
0.29444058
0.29704355
0.30054037
0.3053173
0.31156642
0.3190767
0.32719886
0.33442726
0.3400923
0.34455222
0.34877712
0.35350337
0.35832075
0.36101932
0.36070264
0.35964075
0.35968593
0.36002498
0.358159
0.35282726
0.33921492
0.30328855
0.29462681
0.29370324
0.2930266
0.29224843
0.2914308
0.2907969
0.29034731
0.28997174
0.28968767
0.28957468
0.28964087
0.28989929
0.2904192
0.29127042
0.29257453
0.29446637
0.29706948
0.30056441
0.30533451
0.31157033
0.319062
0.32716436
0.33438074
0.34004438
0.34450708
0.3487245
0.35343137
0.35821818
0.36092293
0.36063233
0.35959344
0.35964956
0.36000257
0.35825262
0.35343108
0.34105238
0.30703283
0.29463294
0.29370975
0.29303401
0.29225702
0.29144036
0.29080748
0.29035926
0.28998522
0.28970261
0.28959128
0.28965945
0.28992002
0.29044229
0.29129562
0.29260128
0.29449392
0.29709717
0.30059005
0.30535286
0.31157455
0.3190464
0.32712744
0.33433087
0.33999282
0.34445873
0.34866808
0.35335457
0.35810807
0.36081869
0.36055622
0.35954171
0.35960939
0.359973
0.35832861
0.35399477
0.34287552
0.31082229
0.29463946
0.29371665
0.29304188
0.29226613
0.29145051
0.29081871
0.29037196
0.28999956
0.28971852
0.28960896
0.28967925
0.28994214
0.29046694
0.29132252
0.29262986
0.29452337
0.29712673
0.30061739
0.30537242
0.31157908
0.31902984
0.32708795
0.33427738
0.33993732
0.34440686
0.34860778
0.35327258
0.35798998
0.36070593
0.36047384
0.3594851
0.35956518
0.35993583
0.35838521
0.35450851
0.34466426
0.31465237
0.29464639
0.29372399
0.29305022
0.29227582
0.29146131
0.29083066
0.29038546
0.29001482
0.28973546
0.28962779
0.28970036
0.28996574
0.29049324
0.29135126
0.29266038
0.29455482
0.29715827
0.30064653
0.30539324
0.31158393
0.31901223
0.3270457
0.33421999
0.33987754
0.34435116
0.34854336
0.35318512
0.35786346
0.36058392
0.36038463
0.35942304
0.35951645
0.35989096
0.35842076
0.35496251
0.34639424
0.31851518
0.29465376
0.29373178
0.29305907
0.29228611
0.29147278
0.29084336
0.29039982
0.29003106
0.2897535
0.28964786
0.28972286
0.28999091
0.2905213
0.29138194
0.29269298
0.29458842
0.29719193
0.30067758
0.30541541
0.3115891
0.31899348
0.32700052
0.33415838
0.33981313
0.34429134
0.34847456
0.35309185
0.35772811
0.3604519
0.360288
0.35935493
0.35946259
0.35983906
0.35843398
0.35534764
0.34803529
0.32239735
0.29466159
0.29374006
0.29306848
0.29229705
0.29148499
0.29085686
0.2904151
0.29004835
0.28977272
0.28966924
0.28974685
0.29001776
0.29055126
0.29141471
0.2927278
0.29462431
0.29722783
0.30071064
0.30543898
0.31159458
0.31897346
0.32695219
0.33409223
0.33974369
0.34422706
0.34840104
0.35299247
0.35758359
0.36030906
0.36018337
0.35928007
0.3594029
0.35977901
0.35842419
0.35565626
0.34955121
0.32627813
0.29466993
0.29374887
0.29307849
0.29230868
0.29149797
0.29087124
0.29043136
0.29006676
0.2897932
0.28969204
0.28977244
0.29004642
0.29058323
0.29144969
0.29276499
0.29466264
0.29726613
0.30074583
0.30546402
0.31160037
0.31895206
0.32690047
0.33402118
0.33966882
0.34415795
0.3483225
0.35288658
0.3574296
0.3601545
0.36007014
0.35919772
0.3593365
0.359711
0.35839212
0.35588262
0.35090274
0.33012766
0.29467879
0.29375824
0.29308913
0.29232107
0.2915118
0.29088654
0.29044867
0.29008638
0.28981503
0.28971634
0.28979973
0.290077
0.29061736
0.29148705
0.2928047
0.29470357
0.29730696
0.30078327
0.3054906
0.31160646
0.31892922
0.32684506
0.33394486
0.33958806
0.34408364
0.34823856
0.35277376
0.35726593
0.35998728
0.35994774
0.35910636
0.3592623
0.3596349
0.35833879
0.356025
0.35205058
0.33390288
0.29468822
0.29376821
0.29310046
0.29233425
0.29152652
0.29090283
0.29046711
0.29010728
0.2898383
0.28974226
0.28982884
0.29010964
0.29065379
0.29152694
0.2928471
0.29474726
0.2973505
0.3008231
0.30551881
0.31161284
0.31890476
0.32678575
0.33386288
0.33950096
0.3440037
0.34814888
0.35265351
0.35709245
0.35980643
0.35981556
0.35900581
0.3591788
0.35955076
0.35826717
0.3560869
0.35296187
0.33754396
0.29469826
0.29377883
0.29311252
0.29234829
0.29154221
0.2909202
0.29048677
0.29012957
0.28986312
0.28976992
0.28985991
0.29014448
0.29069268
0.29156954
0.29289239
0.29479392
0.29739691
0.30086547
0.30554873
0.31161949
0.31887831
0.32672167
0.3337748
0.33940702
0.34391768
0.34805304
0.35252523
0.35690903
0.35961133
0.35967206
0.35889522
0.35908426
0.35945818
0.35818209
0.35607622
0.35359341
0.34096878
0.29470893
0.29379012
0.29312536
0.29236326
0.29155893
0.29093871
0.29050773
0.29015334
0.2898896
0.28979943
0.28989308
0.29018169
0.29073422
0.29161504
0.29294075
0.29484372
0.29744639
0.30091055
0.30558047
0.31162639
0.31884959
0.32665252
0.33368018
0.33930572
0.34382508
0.34795067
0.35238831
0.35671549
0.35940128
0.35951597
0.35877427
0.35897681
0.35935612
0.35808939
0.35601099
0.35390244
0.34406822
0.29472028
0.29380215
0.29313903
0.2923792
0.29157676
0.29095844
0.29053008
0.29017871
0.28991787
0.28983094
0.28992849
0.29022144
0.29077858
0.29166363
0.2929924
0.29489689
0.29749914
0.30095851
0.30561415
0.31163355
0.31881827
0.3265779
0.33357852
0.3391965
0.34372532
0.34784135
0.35224205
0.3565115
0.35917565
0.35934617
0.35864248
0.35885469
0.35924369
0.35799159
0.35591339
0.3539922
0.34671431
0.29473235
0.29381494
0.29315359
0.29239618
0.29159576
0.29097949
0.29055393
0.29020578
0.28994804
0.28986459
0.28996632
0.2902639
0.29082597
0.29171553
0.29304755
0.29495365
0.29755537
0.30100957
0.30564992
0.31164112
0.31878399
0.32649707
0.33346933
0.33907879
0.34361775
0.34772473
0.35208567
0.35629662
0.35893395
0.35916123
0.35849971
0.35871626
0.35911846
0.35789381
0.35579127
0.35385247
0.34880367
0.29474519
0.29382855
0.29316909
0.29241428
0.29161602
0.29100194
0.29057938
0.29023468
0.28998026
0.28990053
0.29000673
0.29030926
0.2908766
0.29177097
0.29310645
0.29501424
0.29761532
0.30106398
0.30568798
0.31164927
0.31874646
0.32640963
0.33335204
0.33895207
0.34350159
0.34760047
0.35191833
0.35607025
0.35867571
0.35895957
0.35834482
0.35856043
0.35897468
0.35778768
0.35566135
0.35341943
0.34998851
0.29475884
0.29384304
0.29318561
0.29243358
0.29163762
0.29102588
0.29060654
0.29026553
0.29001467
0.28993893
0.29004991
0.29035775
0.2909307
0.2918302
0.29316935
0.29507891
0.29767924
0.30112183
0.30572858
0.31165784
0.3187055
0.32631509
0.33322554
0.33881573
0.34337591
0.34746828
0.35173909
0.35583148
0.35840031
0.35873967
0.35817483
0.35838766
0.35880819
0.35766576
0.35554504
0.35315959
0.35040899
0.29477337
0.29385847
0.2932032
0.29245415
0.29166066
0.29105143
0.29063553
0.29029849
0.29005143
0.28997997
0.29009605
0.29040957
0.29098851
0.29189348
0.29323653
0.29514797
0.29774742
0.30118363
0.30577201
0.31166667
0.31866097
0.32621314
0.33308949
0.33866915
0.34323962
0.34732782
0.35154718
0.35557848
0.35810698
0.35849947
0.35798893
0.35819831
0.35862148
0.35753314
0.35540812
0.3529163
0.35057697
0.29478882
0.29387488
0.29322194
0.29247607
0.29168524
0.29107869
0.29066647
0.29033367
0.2900907
0.29002381
0.29014537
0.29046496
0.29105029
0.29196109
0.29330828
0.2952217
0.29782018
0.30124953
0.30581803
0.31167567
0.31861282
0.32610348
0.33294383
0.33851182
0.34309146
0.34717799
0.35134365
0.35531274
0.35779559
0.35823687
0.35778564
0.35799574
0.35841764
0.35740017
0.35528554
0.35255249
0.35046265
0.29480525
0.29389236
0.2932419
0.29249945
0.29171145
0.29110777
0.2906995
0.29037126
0.29013265
0.29007067
0.29019809
0.29052416
0.29111631
0.2920333
0.29338489
0.29530043
0.29789784
0.30131973
0.30586667
0.31168493
0.31856096
0.3259855
0.33278756
0.33834332
0.34293012
0.34701782
0.35112927
0.35502867
0.35746698
0.35795007
0.35756244
0.35777714
0.35819289
0.35725416
0.35516787
0.35228664
0.35035899
0.29482274
0.29391096
0.29326317
0.29252437
0.29173941
0.29113879
0.29073476
0.29041139
0.29017747
0.29012075
0.29025443
0.29058743
0.29118684
0.29211043
0.2934667
0.29538452
0.29798076
0.30139452
0.30591827
0.31169459
0.31850537
0.32585879
0.33262022
0.33816329
0.34275422
0.34684621
0.35090474
0.35472869
0.35712239
0.3576376
0.35731673
0.35753892
0.3579382
0.35706419
0.355042
0.35202746
0.35015994
0.29484135
0.29393076
0.29328582
0.29255093
0.29176923
0.2911719
0.29077239
0.29045426
0.29022535
0.29017425
0.29031463
0.29065503
0.29126219
0.2921928
0.29355404
0.29547434
0.29806933
0.30147428
0.30597322
0.31170494
0.3184461
0.32572296
0.33244122
0.33797137
0.3425625
0.34666138
0.35067054
0.35441142
0.35676381
0.35729923
0.35704548
0.3572843
0.35766512
0.3568432
0.35489238
0.35189321
0.34989669
0.29486114
0.29395184
0.29330996
0.29257926
0.29180105
0.29120722
0.29081256
0.29050003
0.29027649
0.29023142
0.29037896
0.29072726
0.29134265
0.29228072
0.29364726
0.29557029
0.29816398
0.3015595
0.30603201
0.31171636
0.31838334
0.32557763
0.33224957
0.33776723
0.34235407
0.34646048
0.35042695
0.35407686
0.35639258
0.35693734
0.35674277
0.35700243
0.35736329
0.35657701
0.35470061
0.35183463
0.34957447
0.29488221
0.29397429
0.29333568
0.29260947
0.29183499
0.2912449
0.29085544
0.29054891
0.29033111
0.2902925
0.29044768
0.2908044
0.29142854
0.29237455
0.29374676
0.29567279
0.29826518
0.30165074
0.30609525
0.31172932
0.31831735
0.32542262
0.3320441
0.33754983
0.34212851
0.34623962
0.3501708
0.35372808
0.35600617
0.35655848
0.35641132
0.35669101
0.35702402
0.35623661
0.354399
0.3518351
0.34930963
0.29490464
0.29399821
0.29336309
0.2926417
0.2918712
0.29128511
0.29090121
0.29060111
0.29038945
0.29035774
0.29052108
0.29088677
0.29152021
0.29247464
0.2938529
0.29578226
0.29837337
0.30174852
0.30616345
0.31174423
0.31824853
0.32525801
0.33182416
0.33731688
0.34188628
0.34599488
0.3498953
0.35336926
0.35559769
0.35616501
0.35605411
0.356356
0.35667588
0.35589804
0.35405735
0.35164439
0.34926927
0.29492852
0.29402367
0.29339231
0.29267606
0.29190985
0.29132802
0.29095006
0.29065685
0.29045175
0.29042742
0.29059946
0.2909747
0.291618
0.29258137
0.2939661
0.29589913
0.29848899
0.30185327
0.30623695
0.31176128
0.3181773
0.32508411
0.33158909
0.33706694
0.34162814
0.3457232
0.34959325
0.35299501
0.35515778
0.35575047
0.35566818
0.35597857
0.3562766
0.35551845
0.35373686
0.35142615
0.34925577
0.29495395
0.29405081
0.29342345
0.29271273
0.29195109
0.2913738
0.2910022
0.29071636
0.29051827
0.29050184
0.29068315
0.29106854
0.29172228
0.29269512
0.29408677
0.29602379
0.29861236
0.30196522
0.30631582
0.31178035
0.31810412
0.32490159
0.33133843
0.33679718
0.34135371
0.34542368
0.349258
0.35260229
0.35469127
0.35530354
0.35526087
0.35557144
0.35583868
0.35506903
0.35332185
0.35115384
0.34910639
0.29498103
0.29407971
0.29345666
0.29275185
0.2919951
0.29142266
0.29105785
0.2907799
0.2905893
0.2905813
0.29077247
0.29116863
0.29183343
0.29281628
0.29421531
0.29615662
0.29874366
0.30208431
0.3063997
0.31180089
0.31802929
0.32471152
0.33107229
0.3365054
0.34105682
0.34510061
0.34888682
0.35218574
0.35421324
0.35481785
0.35483436
0.35513251
0.35535587
0.35458578
0.3529078
0.35091751
0.34891741
0.29500989
0.29411051
0.29349205
0.29279359
0.29204208
0.29147479
0.29111723
0.29084773
0.29066512
0.29066612
0.29086777
0.29127536
0.29195184
0.29294527
0.29435213
0.2962979
0.2988829
0.30221009
0.30648786
0.31182211
0.31795275
0.32451467
0.33079072
0.33618882
0.34073282
0.3447569
0.34848158
0.3517395
0.35373154
0.35430005
0.35439148
0.3546789
0.35484663
0.35407197
0.35245601
0.35064041
0.3486862
0.29504064
0.29414334
0.2935298
0.29283813
0.29209223
0.29153041
0.2911806
0.29092013
0.29074604
0.29075664
0.29096943
0.29138908
0.29207791
0.29308249
0.29449758
0.2964478
0.29902984
0.30234179
0.30657918
0.31184264
0.31787384
0.32431123
0.33049322
0.33584546
0.34037845
0.34438785
0.34804602
0.35125492
0.35324885
0.35378894
0.35391188
0.35418944
0.35426138
0.35347751
0.35193413
0.35026218
0.34843579
0.29507341
0.29417833
0.29357005
0.29288567
0.29214577
0.29158977
0.29124821
0.29099739
0.2908324
0.29085323
0.29107782
0.29151022
0.29221206
0.29322834
0.29465202
0.29660642
0.29918409
0.30247843
0.30667208
0.31186116
0.31779089
0.32410058
0.33017953
0.3354742
0.33998791
0.34398468
0.34758219
0.35072456
0.3527437
0.35327762
0.35339725
0.35367893
0.35364064
0.35287291
0.35146386
0.34989007
0.34810479
0.29510835
0.29421562
0.29361297
0.29293641
0.29220294
0.2916531
0.29132035
0.29107981
0.29092455
0.29095624
0.29119336
0.29163915
0.29235469
0.29338324
0.29481574
0.29677376
0.29934517
0.3026191
0.30676517
0.3118756
0.31770171
0.32388136
0.32984975
0.33507544
0.33955851
0.34354302
0.34708631
0.35014594
0.35219766
0.3527915
0.35290129
0.35318881
0.35304156
0.35218113
0.35086108
0.34945236
0.34772856
0.29514561
0.29425538
0.29365874
0.29299058
0.29226398
0.29172067
0.29139728
0.29116772
0.29102285
0.29106607
0.29131644
0.29177631
0.29250622
0.29354758
0.29498905
0.29694983
0.29951279
0.30276327
0.30685764
0.31188419
0.31760336
0.32365111
0.32950388
0.33465185
0.33909496
0.34306603
0.3465589
0.34953103
0.35158749
0.35228206
0.35237902
0.35261237
0.35246796
0.35157488
0.35027163
0.34892802
0.34729529
0.29518535
0.29429776
0.29370755
0.29304839
0.29232915
0.29179275
0.29147932
0.29126147
0.29112767
0.29118309
0.29144748
0.29192209
0.29266704
0.29372175
0.29517224
0.29713478
0.29968704
0.30291124
0.30694967
0.3118858
0.31749249
0.32340612
0.32914054
0.33420566
0.33860061
0.34255165
0.34600471
0.34890002
0.35094495
0.35178639
0.35194561
0.35207482
0.35181592
0.3509265
0.34967348
0.34839464
0.34678522
0.29522776
0.29434295
0.29375961
0.29311011
0.29239875
0.29186964
0.29156679
0.29136142
0.2912394
0.29130772
0.29158689
0.29207693
0.29283754
0.29390615
0.29536569
0.29732898
0.29986871
0.30306454
0.30704286
0.31188035
0.317366
0.32314189
0.32875632
0.33373717
0.33807649
0.34199323
0.3454059
0.34822334
0.35022428
0.35118017
0.35145476
0.3515415
0.35121822
0.35033904
0.34908581
0.34779267
0.34621911
0.29527302
0.29439112
0.29381512
0.29317599
0.29247307
0.29195165
0.29166002
0.29146794
0.29135845
0.29144037
0.29173509
0.29224125
0.29301811
0.29410117
0.29556979
0.29753306
0.30005919
0.30322568
0.3071399
0.31186941
0.3172229
0.32285561
0.32834811
0.33324633
0.33752166
0.34138492
0.34475264
0.34750206
0.3494554
0.35048607
0.35090932
0.3510022
0.35062266
0.3497129
0.348495
0.34722762
0.34561946
0.29532133
0.29444248
0.29387429
0.2932463
0.29255243
0.29203909
0.29175933
0.29158142
0.29148525
0.29158147
0.29189248
0.29241545
0.2932091
0.29430719
0.29578498
0.29774776
0.30025996
0.30339641
0.30724331
0.31185646
0.31706656
0.32254896
0.32791569
0.33273521
0.33694232
0.3407329
0.34404347
0.34675171
0.34866446
0.34971636
0.35025054
0.35038956
0.35004918
0.34916124
0.34790957
0.34664768
0.34506017
0.29537292
0.29449722
0.29393738
0.29332135
0.29263718
0.29213231
0.2918651
0.29170224
0.29162022
0.29173145
0.29205948
0.29259992
0.29341086
0.29452452
0.29601156
0.29797353
0.30047178
0.30357725
0.30735402
0.3118462
0.31690463
0.32222844
0.327461
0.33220166
0.33633977
0.3400368
0.34326235
0.34593267
0.34782808
0.34888871
0.34949132
0.34968558
0.34942326
0.34864184
0.34743016
0.34614096
0.34453873
0.29542803
0.29455557
0.2940046
0.29340144
0.29272766
0.29223165
0.29197765
0.2918308
0.29176377
0.29189073
0.29223654
0.29279503
0.2936237
0.29475336
0.29624954
0.29821021
0.30069405
0.30376709
0.30747185
0.31184151
0.31674611
0.32190462
0.32698913
0.33163991
0.33571036
0.33930339
0.34242363
0.34505523
0.34695178
0.34803008
0.34867484
0.34891718
0.34871552
0.3480624
0.34698745
0.34576161
0.34415925
0.29548691
0.29461775
0.29407622
0.29348689
0.29282425
0.29233749
0.29209738
0.29196752
0.29191635
0.29205969
0.29242406
0.29300111
0.29384784
0.29499371
0.29649857
0.2984569
0.30092481
0.30396271
0.30759294
0.31184126
0.31659678
0.32158829
0.32650801
0.3310428
0.33503855
0.33853041
0.34153833
0.34411811
0.34601812
0.34712724
0.34781013
0.34808791
0.34790765
0.34734672
0.34643307
0.34531856
0.34383144
0.29554981
0.29468398
0.29415248
0.29357804
0.29292736
0.29245021
0.29222461
0.29211279
0.29207841
0.29223869
0.29262242
0.29321845
0.29408345
0.2952454
0.29675803
0.2987125
0.30116254
0.30416181
0.30771519
0.31184503
0.3164555
0.32128308
0.32602638
0.33041338
0.33431455
0.33771434
0.3406233
0.34313578
0.34503119
0.3461679
0.34686554
0.34718866
0.34704705
0.34653403
0.3457331
0.34472629
0.34344211
0.29561704
0.29475453
0.29423367
0.29367523
0.29303741
0.2925702
0.29235972
0.29226704
0.29225041
0.29242808
0.29283189
0.29344731
0.29433062
0.29550818
0.2970274
0.29897654
0.30140705
0.30436537
0.30784079
0.31185236
0.31631745
0.32098187
0.32554805
0.32977043
0.33355381
0.3368657
0.33969246
0.34210667
0.34395819
0.34513989
0.34586161
0.34621052
0.34612536
0.34565695
0.34493859
0.3440092
0.34290266
0.29568889
0.29482966
0.29432003
0.29377883
0.29315482
0.29269786
0.29250307
0.29243066
0.29243278
0.29262822
0.29305271
0.29368787
0.29458936
0.29578177
0.29730639
0.29924952
0.30165978
0.30457576
0.30797279
0.31186515
0.31617995
0.32067707
0.32506006
0.32911285
0.33274778
0.33595617
0.3387249
0.3410571
0.34282252
0.34400444
0.34475472
0.34515959
0.34515432
0.34474985
0.34409207
0.34323478
0.3422524
0.2957657
0.29490964
0.29441183
0.29388919
0.29328004
0.29283363
0.29265501
0.29260408
0.29262589
0.29283947
0.29328505
0.29394022
0.2948596
0.29606588
0.29759479
0.29953156
0.30192032
0.30479151
0.30810999
0.31188366
0.31604368
0.32036997
0.3245733
0.3284553
0.33193412
0.33501391
0.33770916
0.33997243
0.34166312
0.34281989
0.34357575
0.34402529
0.34409746
0.34378106
0.34318416
0.3424021
0.34151257
0.2958478
0.29499477
0.29450935
0.2940067
0.29341356
0.2929779
0.29281579
0.29278776
0.29283009
0.29306213
0.29352907
0.29420435
0.29514109
0.29636
0.29789192
0.29982117
0.3021843
0.30500457
0.30824285
0.31190213
0.31591085
0.32005893
0.32407949
0.32777816
0.33110489
0.33404936
0.33664652
0.33884208
0.34049331
0.34162036
0.34235083
0.34279618
0.34289809
0.34269084
0.34219458
0.34152619
0.34075257
0.29593555
0.29508538
0.29461282
0.29413171
0.29355585
0.2931311
0.29298564
0.29298196
0.29304579
0.29329647
0.29378483
0.2944801
0.29543336
0.29666351
0.29819679
0.30011585
0.30244617
0.30520598
0.30835893
0.31190519
0.3157708
0.31974688
0.32357954
0.32710015
0.33025673
0.33308334
0.33557595
0.33766899
0.33927678
0.34038983
0.34111042
0.34154126
0.3416221
0.34147545
0.34106001
0.34047508
0.33987138
0.29602935
0.29518182
0.29472248
0.29426457
0.29370741
0.29329367
0.29316486
0.29318679
0.29327335
0.29354267
0.2940523
0.29476712
0.29573576
0.29697592
0.29850905
0.30041482
0.30270577
0.30539679
0.30845713
0.31188113
0.31559653
0.31940463
0.32306279
0.32641431
0.32941924
0.33210719
0.33451843
0.33649969
0.33802126
0.33910735
0.33983237
0.34026718
0.34037336
0.34025451
0.3398755
0.33932385
0.33876313
0.29612964
0.29528444
0.2948385
0.2944056
0.29386874
0.29346602
0.29335372
0.29340236
0.29351295
0.29380077
0.29433137
0.29506499
0.29604757
0.297297
0.298829
0.30071855
0.30296612
0.30558453
0.30854581
0.31183302
0.31537697
0.3190039
0.32250444
0.32572248
0.32858037
0.33113418
0.33341955
0.33533819
0.33678339
0.33779511
0.33849543
0.33893816
0.3391102
0.33903859
0.33871859
0.33823078
0.33770837
0.2962369
0.29539362
0.29496101
0.29455511
0.29404033
0.29364865
0.29355233
0.29362873
0.29376464
0.29407066
0.29462173
0.29537316
0.29636792
0.29762586
0.29915493
0.30102301
0.3032222
0.30576483
0.3086252
0.31177653
0.31514615
0.31857708
0.32190239
0.32499472
0.32774844
0.33017921
0.33233571
0.3341631
0.33556373
0.33649755
0.33715911
0.33760049
0.33780253
0.33778207
0.33754066
0.33710622
0.33665763
0.29635161
0.29550974
0.29509013
0.29471332
0.29422267
0.29384204
0.29376067
0.29386581
0.29402841
0.29435205
0.29492279
0.295691
0.29669587
0.29796081
0.29948356
0.30132333
0.30346979
0.30593613
0.30869939
0.31172696
0.31493631
0.31817438
0.32130093
0.32422287
0.32686546
0.32921608
0.33125042
0.33295974
0.33427454
0.33517553
0.33583762
0.33628909
0.33649933
0.33651353
0.33632735
0.33591764
0.33555102
0.29647428
0.29563318
0.29522593
0.29488037
0.29441621
0.29404666
0.29397866
0.29411335
0.29430413
0.29464453
0.29523374
0.29601772
0.29703054
0.29829995
0.29981224
0.30161929
0.3037136
0.30610536
0.30876891
0.3116641
0.31470207
0.31774339
0.32067587
0.32342308
0.32593746
0.32821544
0.33018488
0.33180791
0.33302342
0.33388607
0.33450304
0.33496793
0.33523194
0.33526294
0.33510801
0.33473255
0.33437712
0.29660544
0.29576438
0.29536845
0.29505628
0.29462139
0.2942631
0.2942062
0.29437082
0.29459134
0.29494758
0.29555356
0.29635228
0.2973703
0.29863924
0.30013376
0.30190014
0.3039336
0.30623337
0.30877591
0.31152678
0.31440364
0.31728385
0.32005867
0.32264011
0.32500128
0.32714995
0.32902123
0.33056511
0.33171678
0.33259174
0.33321447
0.3336957
0.3340014
0.33406419
0.3339233
0.33355813
0.3332395
0.29590384
0.29551774
0.29524085
0.29483852
0.29449197
0.29444318
0.29463737
0.29488935
0.29526066
0.29588136
0.29669355
0.29771306
0.29897574
0.30044782
0.30217321
0.30414964
0.306359
0.30878252
0.31138259
0.31407929
0.31678194
0.31939746
0.32182804
0.32405122
0.32606637
0.32784684
0.32931094
0.33040918
0.33126016
0.33190254
0.33241445
0.33276956
0.33290393
0.33283124
0.33248236
0.33217087
0.29605212
0.29567371
0.29543357
0.29506785
0.29473378
0.29468954
0.29491198
0.29519709
0.2955832
0.29621623
0.29704013
0.29805592
0.29930614
0.3007533
0.30243616
0.30435037
0.30646035
0.30876052
0.31121089
0.31373767
0.31627148
0.31872933
0.32101393
0.323094
0.32494785
0.32661339
0.32797621
0.32902935
0.32987248
0.33053677
0.33107428
0.33145439
0.3316493
0.3316572
0.33137342
0.33108399
0.29621
0.29583612
0.29563367
0.29530939
0.29498919
0.29494525
0.29519321
0.29551321
0.29591443
0.29655686
0.29739022
0.29839659
0.29962896
0.30105132
0.30268872
0.3045343
0.30654735
0.30873402
0.31104365
0.31340359
0.31575672
0.31803656
0.3201696
0.32212073
0.32383985
0.3253839
0.32667687
0.32769957
0.3285206
0.3291627
0.32970508
0.33009706
0.33031434
0.33038536
0.33017137
0.32990754
0.2963783
0.2960047
0.29584016
0.29556281
0.29525896
0.29521047
0.29547904
0.29583622
0.29625315
0.2969009
0.29774111
0.2987345
0.29994572
0.30134366
0.30292693
0.30468955
0.30659931
0.30867281
0.31085164
0.31305809
0.31524159
0.31733875
0.31930369
0.32108697
0.3226951
0.32413101
0.32533246
0.32631468
0.32713654
0.32778325
0.32830076
0.32870197
0.32893509
0.32902633
0.32888757
0.32867274
0.29655799
0.2961793
0.29605174
0.29582714
0.29554378
0.29548579
0.29576718
0.29616414
0.29659801
0.29724489
0.2980889
0.29906901
0.30025581
0.30162464
0.30314281
0.30481799
0.30662862
0.30858186
0.31061014
0.312649
0.31466425
0.3165978
0.31842936
0.32007784
0.32156834
0.32291409
0.32404956
0.32497964
0.3257621
0.32638794
0.32688133
0.32727247
0.32751865
0.32762812
0.32754914
0.32739118
0.29675019
0.29636004
0.29626643
0.29610046
0.29584429
0.29577234
0.29605595
0.2964936
0.29694753
0.29758565
0.29842943
0.29939822
0.30055517
0.3018834
0.30333066
0.30492593
0.30664737
0.30848327
0.31036434
0.31224243
0.31408406
0.3158545
0.31752909
0.31905768
0.32044247
0.32168477
0.32273918
0.32360026
0.32434467
0.32496302
0.3254305
0.32580628
0.32607983
0.32622814
0.32619395
0.32608588
0.2969561
0.29654737
0.29648167
0.29638012
0.2961607
0.29607219
0.29634393
0.29682017
0.29729919
0.29792141
0.29876035
0.2997188
0.30083326
0.30211005
0.30349182
0.30500878
0.3066349
0.30834651
0.31007945
0.31180842
0.31349951
0.31512943
0.31665891
0.31806393
0.31934809
0.3205047
0.32147983
0.3222606
0.32293807
0.32353387
0.32398617
0.32434829
0.32463846
0.32483792
0.32484823
0.32474654
0.29717685
0.29674245
0.29669477
0.29666212
0.29649197
0.29638833
0.29663032
0.297138
0.29764968
0.29825349
0.29907867
0.30002281
0.30108554
0.30231064
0.30363951
0.30507612
0.30660138
0.30819158
0.30978141
0.31135917
0.31290376
0.31439387
0.31579398
0.31707848
0.31824537
0.31930191
0.32020224
0.32091081
0.32152262
0.32209796
0.32256352
0.32292388
0.32321521
0.32344333
0.32350765
0.32338563
0.29741338
0.29694734
0.29690311
0.2969406
0.29683496
0.29672512
0.29691718
0.29743951
0.29799336
0.29858299
0.29938093
0.30030472
0.30131788
0.30249051
0.30376227
0.3051048
0.30652323
0.30798499
0.30944011
0.31088604
0.31230044
0.31365883
0.31493125
0.31609942
0.31715938
0.31812199
0.31896226
0.31962068
0.3201714
0.32071346
0.3211864
0.3215551
0.32182395
0.32204602
0.32215832
0.32202565
0.29766604
0.29716526
0.29710526
0.29720738
0.29718385
0.29708572
0.29721114
0.29771784
0.29832157
0.29890985