/*--------------------------------*- C++ -*----------------------------------*\
| =========                 |                                                 |
| \\      /  F ield         | OpenFOAM: The Open Source CFD Toolbox           |
|  \\    /   O peration     | Version:  2506                                  |
|   \\  /    A nd           | Website:  www.openfoam.com                      |
|    \\/     M anipulation  |                                                 |
\*---------------------------------------------------------------------------*/
FoamFile
{
    version     2.0;
    format      ascii;
    arch        "LSB;label=32;scalar=64";
    class       volScalarField;
    location    "2.95";
    object      Cp;
}
// * * * * * * * * * * * * * * * * * * * * * * * * * * * * * * * * * * * * * //

dimensions      [0 0 0 0 0 0 0];

internalField   nonuniform List<scalar> 
1375
(
0.022568313
0.022574691
0.022581445
0.022588606
0.022596498
0.022604666
0.022520635
0.022526891
0.02253302
0.022539034
0.022544822
0.022550766
0.022558139
0.02256591
0.022574058
0.022583398
0.022593189
0.022604771
0.022618472
0.022634701
0.02265359
0.02267358
0.02269421
0.022713373
0.022728558
0.022465738
0.022473753
0.02248143
0.022489465
0.022498099
0.022506232
0.022514365
0.022523208
0.022532964
0.022543534
0.022555293
0.022567901
0.022581855
0.022595569
0.02261037
0.022626796
0.022644867
0.022664221
0.02268593
0.022707136
0.022724815
0.022735712
0.022757722
0.022785664
0.02282108
0.022874247
0.022916243
0.02240514
0.022412746
0.022419669
0.022427877
0.022438803
0.022450625
0.022461497
0.02248325
0.022502089
0.022510173
0.022528419
0.022543583
0.022554694
0.022565723
0.022578531
0.022593596
0.022610801
0.022631606
0.02265454
0.0226797
0.022707304
0.022732011
0.022759029
0.022782712
0.022808952
0.022842095
0.022878808
0.022914325
0.022945823
0.022981785
0.023018284
0.023060489
0.023102381
0.023140094
0.02236014
0.022369726
0.02238045
0.022390868
0.022399989
0.022409719
0.022420866
0.022424616
0.022438115
0.022470694
0.022485446
0.022497359
0.022514913
0.022531483
0.022547976
0.022565834
0.022585865
0.022605475
0.022626364
0.022653226
0.022684105
0.022713637
0.022743333
0.022772995
0.022800543
0.022830038
0.022859413
0.022891688
0.022922749
0.02295398
0.022992683
0.023025273
0.023055783
0.023089719
0.023124337
0.023173316
0.023228881
0.023266415
0.022336445
0.022343702
0.022352467
0.022362509
0.022373177
0.022384006
0.02239466
0.022405691
0.022413116
0.02241421
0.022427245
0.022451622
0.022475377
0.022495696
0.02251116
0.022528397
0.022547544
0.022571058
0.022597668
0.022623063
0.022650005
0.022680287
0.022709838
0.022739881
0.022774853
0.022803923
0.022825654
0.022846952
0.022867362
0.022905582
0.022947223
0.022980129
0.023022662
0.02306707
0.023104091
0.023147554
0.02319571
0.023249348
0.023282888
0.023273886
0.023209211
0.022334769
0.022341441
0.022348088
0.022355218
0.02236302
0.022371638
0.022381514
0.022391059
0.022400027
0.022409772
0.022418827
0.022428163
0.022439113
0.022456037
0.022478294
0.022500674
0.022523005
0.022546355
0.022569355
0.022589668
0.022611173
0.022636814
0.022663813
0.022689011
0.02271112
0.022731332
0.022758063
0.022790355
0.022834705
0.022872642
0.022907219
0.022945856
0.022986373
0.023031424
0.023067973
0.023104173
0.02314915
0.023208014
0.023238722
0.023238458
0.023188474
0.023070572
0.022926485
0.022858203
0.022340542
0.022347545
0.022354711
0.022362655
0.02237133
0.022380588
0.022390596
0.022401048
0.022411409
0.02242102
0.022429754
0.02243878
0.022447789
0.022457257
0.02247003
0.022484957
0.022502067
0.022520599
0.022542165
0.022565421
0.022588683
0.022613447
0.022638001
0.022663476
0.02268516
0.022711398
0.022741572
0.022768868
0.022793313
0.022816732
0.022851443
0.022892369
0.022933056
0.022974797
0.02301235
0.023054444
0.023084924
0.023124696
0.023172038
0.023202014
0.023183597
0.023099053
0.022962581
0.022911222
0.022935166
0.022926698
0.022348659
0.022356568
0.022364187
0.022372375
0.022381387
0.022391209
0.022401665
0.022412279
0.022421707
0.022429348
0.02243578
0.022442042
0.022450499
0.022462434
0.022476719
0.022493155
0.022507823
0.022521501
0.02253744
0.022554215
0.022573064
0.022594021
0.022616081
0.022643322
0.022672548
0.022690153
0.022705868
0.022730204
0.022745726
0.022757971
0.022798746
0.02283216
0.022874356
0.022922483
0.022961144
0.02299375
0.023025791
0.023068375
0.023128081
0.023175667
0.02320001
0.023164729
0.023043027
0.022982875
0.022973676
0.022949549
0.022798635
0.022884013
0.022347768
0.022356191
0.022364196
0.022372005
0.022379552
0.022386862
0.022393923
0.022401077
0.022408906
0.022418067
0.022428252
0.022437239
0.022443839
0.022450321
0.022460104
0.022474297
0.02249661
0.022525456
0.022543841
0.022556981
0.022571332
0.022581378
0.022585116
0.022587097
0.022608527
0.02263407
0.022651087
0.022679902
0.02269335
0.022717846
0.02275754
0.022792638
0.022838854
0.022881615
0.022918588
0.022950851
0.022985748
0.023031196
0.023098607
0.023174987
0.023234499
0.023248309
0.023147883
0.023050632
0.023012453
0.022969636
0.02279283
0.022863027
0.022669218
0.022336664
0.022343604
0.022350047
0.022356562
0.022363163
0.022370024
0.022377756
0.022387011
0.022397782
0.022409102
0.022420628
0.022433332
0.02244778
0.022462419
0.02247467
0.022482193
0.022483638
0.022480825
0.02248198
0.02249612
0.022510804
0.022522953
0.022534616
0.022550143
0.022564303
0.022589143
0.022615594
0.022633325
0.022652752
0.022677924
0.022716534
0.022757497
0.022798166
0.022841974
0.022887018
0.022925466
0.022971837
0.023026106
0.023083321
0.023173595
0.023265764
0.023323754
0.023262323
0.02311708
0.023012713
0.022969065
0.022837593
0.022812056
0.022640102
0.022323508
0.02232908
0.02233415
0.022339374
0.022344892
0.022350583
0.02235636
0.022362528
0.022369846
0.022379086
0.022390089
0.022401814
0.022413127
0.022423099
0.022432397
0.022443016
0.022453354
0.022452827
0.022453903
0.022462084
0.022474685
0.022482784
0.022485655
0.022492166
0.022521257
0.022548949
0.022565833
0.022577875
0.022603795
0.022654956
0.022678947
0.02270577
0.022747373
0.022799127
0.022863981
0.02292087
0.022978797
0.023033811
0.023086373
0.023162662
0.023264534
0.023352886
0.023340463
0.023198576
0.023025989
0.022966729
0.022897948
0.022782348
0.022611947
0.022289479
0.022294586
0.022299692
0.022305328
0.022311653
0.022318671
0.022325929
0.022333162
0.022340285
0.022347165
0.022354877
0.022363978
0.022373455
0.022382058
0.022389829
0.022397114
0.022406068
0.022424014
0.022438093
0.02243949
0.022440474
0.022450248
0.022477128
0.022491383
0.022472088
0.02246437
0.022517899
0.022564297
0.022571661
0.022589546
0.022611219
0.022642422
0.022683728
0.022744699
0.022824069
0.022904522
0.022977456
0.023030409
0.023080614
0.023147149
0.023238556
0.023346262
0.023381738
0.023285944
0.023070195
0.022965072
0.022917856
0.022787288
0.022599464
0.022230481
0.022237972
0.022243392
0.022248091
0.022252969
0.022258499
0.022265128
0.022272683
0.022281726
0.022292226
0.022302371
0.022312429
0.022323449
0.022336129
0.022350165
0.022362214
0.022370122
0.022379851
0.022392057
0.022411457
0.022434005
0.022442804
0.022441498
0.022450445
0.022460882
0.022475963
0.022481699
0.022480638
0.022510434
0.022518476
0.022539617
0.022589911
0.022641954
0.022699693
0.022778943
0.022887458
0.022967185
0.023031993
0.023079615
0.023129678
0.023210948
0.023313869
0.023380447
0.023353155
0.023165101
0.022979806
0.022903856
0.022838351
0.022588669
0.022138902
0.022146998
0.022155981
0.022166206
0.022176934
0.022187313
0.022197358
0.022207505
0.022217872
0.022231027
0.022247212
0.022262214
0.022274883
0.022286634
0.022297414
0.022310004
0.022327322
0.022346006
0.022365007
0.022377891
0.022389289
0.022411749
0.022432822
0.022450146
0.022467681
0.022460776
0.022436156
0.022433335
0.022453847
0.022475107
0.022517577
0.022567225
0.022620789
0.022679041
0.022737342
0.022838994
0.022947397
0.023038764
0.023097418
0.023144588
0.023183163
0.023263739
0.023352348
0.023382181
0.023280509
0.023049777
0.022875366
0.022881442
0.022575103
0.022057654
0.022063518
0.022069748
0.022077405
0.022086675
0.02209815
0.022112201
0.02212887
0.022146524
0.022162451
0.022178839
0.022197856
0.022217958
0.022236135
0.022252429
0.022269923
0.022288629
0.022309424
0.022333504
0.022354216
0.022370663
0.022387534
0.022403352
0.022412713
0.022421612
0.022429886
0.022436275
0.022436851
0.022444701
0.022471847
0.022499674
0.022538303
0.022595807
0.022661904
0.022733974
0.022808538
0.022910466
0.023029168
0.023115527
0.023154322
0.023175268
0.023227906
0.023288826
0.023359505
0.023342679
0.023161151
0.022889281
0.022886662
0.022575482
0.021986817
0.021993567
0.022000432
0.022007455
0.022014505
0.0220215
0.022028507
0.022036735
0.022049159
0.022066682
0.022087204
0.022111517
0.022140184
0.022166686
0.022191112
0.022214195
0.022235135
0.02225451
0.022274757
0.022296704
0.022317325
0.022336762
0.022355385
0.022373167
0.02238632
0.022398349
0.022413365
0.02242923
0.02244535
0.022473578
0.022511701
0.02255668
0.022594486
0.022635839
0.022708598
0.022791629
0.022882649
0.022990106
0.02309418
0.023157303
0.023171413
0.023182885
0.02321175
0.023291027
0.023337803
0.0232415
0.022951153
0.022888761
0.02259853
0.021907657
0.021915699
0.021923814
0.021932599
0.021942207
0.021952238
0.021962261
0.021971797
0.021980661
0.02198947
0.021998602
0.022009958
0.022025807
0.02205013
0.02208087
0.02211169
0.022143203
0.022170573
0.02219435
0.022218307
0.022242073
0.02226641
0.022291174
0.022317583
0.02234399
0.022370367
0.02239177
0.022415199
0.022444411
0.02247781
0.022510944
0.022549709
0.022598149
0.022646462
0.022694308
0.022765631
0.022857161
0.022948634
0.023051412
0.023132492
0.023151863
0.023146234
0.023142978
0.023192355
0.023270753
0.023249039
0.022996299
0.022928676
0.022639232
0.021827926
0.021834312
0.021840258
0.021847286
0.021855674
0.021865748
0.021877346
0.021889987
0.021903012
0.021916353
0.02193029
0.021944317
0.021957249
0.021970334
0.021984642
0.022000891
0.022023498
0.022052832
0.022082781
0.022113545
0.022149816
0.022187817
0.022222101
0.022254665
0.022289414
0.022329051
0.022367227
0.022402536
0.022437863
0.022477474
0.022515162
0.022549968
0.022589503
0.02264313
0.022685311
0.022729768
0.022815377
0.022916307
0.023007833
0.023079391
0.023112883
0.023106165
0.023080929
0.023107532
0.023162489
0.023190715
0.023006908
0.02298471
0.022692688
0.021762621
0.021765993
0.021767959
0.021770206
0.021773244
0.021778064
0.021785714
0.021796608
0.021810551
0.021827416
0.021846716
0.021867127
0.021888308
0.021908386
0.021925683
0.021942751
0.021961146
0.021983928
0.022011914
0.022041688
0.022072327
0.022104994
0.02213992
0.022180153
0.022223263
0.022270802
0.022324071
0.022376382
0.02242048
0.022459353
0.022499399
0.022540814
0.022579004
0.022623887
0.022671891
0.022714649
0.022773002
0.022863605
0.022959731
0.023019222
0.023051604
0.023055953
0.023035601
0.023046321
0.023056465
0.023066925
0.022997681
0.023012594
0.022748721
0.021712207
0.021714199
0.021715646
0.021717978
0.021721788
0.021726898
0.021733151
0.021740174
0.021747211
0.021754211
0.021762506
0.021773568
0.021790393
0.02181474
0.021845168
0.021876836
0.021903681
0.021927324
0.021954658
0.021987182
0.022021078
0.022053731
0.022088187
0.022126047
0.022167343
0.022214803
0.022263238
0.022317101
0.022372699
0.022422173
0.02246811
0.022512266
0.022560592
0.022606558
0.022655025
0.022701358
0.022743962
0.022806262
0.022884708
0.022945734
0.022984496
0.023006941
0.02300964
0.022992117
0.02297179
0.02293431
0.022944986
0.023007413
0.022791333
0.021675856
0.021676908
0.021677012
0.021677992
0.02168058
0.021684444
0.021689431
0.021695537
0.021702792
0.021711146
0.02172043
0.021730125
0.021739919
0.021750473
0.021765093
0.021787109
0.021815232
0.021844311
0.021872977
0.021906538
0.021946183
0.021995981
0.022047089
0.02209046
0.022131845
0.02217491
0.022219607
0.022268091
0.022319867
0.022373917
0.022429946
0.022476588
0.022518839
0.022566353
0.022626374
0.022673409
0.022708588
0.022759825
0.022817576
0.022878723
0.022924639
0.022958159
0.022984097
0.022951974
0.022897009
0.022857274
0.022856805
0.022938585
0.022827242
0.0216416
0.021642061
0.02163987
0.021638994
0.021639849
0.021642359
0.02164657
0.021652241
0.021659243
0.021667559
0.021677228
0.021688469
0.021701088
0.021714366
0.021728075
0.021743644
0.021764074
0.021790232
0.021819735
0.021850049
0.021878941
0.021914532
0.021964806
0.022025191
0.022081561
0.022130141
0.022174173
0.02222024
0.022266305
0.022311113
0.02236772
0.022427479
0.022477908
0.022532602
0.022584279
0.022632749
0.022671354
0.022714158
0.022762389
0.022818551
0.022862629
0.022901078
0.022940424
0.022932777
0.022874739
0.022818838
0.022763714
0.022847283
0.022851596
0.021614421
0.021613886
0.021609398
0.021605813
0.021603519
0.021603189
0.021605003
0.021608825
0.021614555
0.021622076
0.02163124
0.021642145
0.021655032
0.021670352
0.021687794
0.021706443
0.021727103
0.021751164
0.021779339
0.02181194
0.021848055
0.021882711
0.021913907
0.021949375
0.021994305
0.022044993
0.02209982
0.022159101
0.022216173
0.022264763
0.022306813
0.022362037
0.022428597
0.022493476
0.022536781
0.022586466
0.022628061
0.022666396
0.022712342
0.022759125
0.022801414
0.022840309
0.02288717
0.022913697
0.022878833
0.022810252
0.022703386
0.022774881
0.022827657
0.02159832
0.021596004
0.021591307
0.021587452
0.021584292
0.021582219
0.021581567
0.0215828
0.02158605
0.021591359
0.021598737
0.021608007
0.021618645
0.021630875
0.021645447
0.021662213
0.021680959
0.021703651
0.021730914
0.021761402
0.021796592
0.021836047
0.021876385
0.021914183
0.021952323
0.021994987
0.022039385
0.022086077
0.022149678
0.022219873
0.022268647
0.022306791
0.022349888
0.022412577
0.022476286
0.022529102
0.022573581
0.022618532
0.022666932
0.022711797
0.022753691
0.022783989
0.022832181
0.022878541
0.022868125
0.022800475
0.02270886
0.022715807
0.022754809
0.02156595
0.021565234
0.021565125
0.021565856
0.021567924
0.021571847
0.021577899
0.021586052
0.021595719
0.021606528
0.021618903
0.021632952
0.021648237
0.021666099
0.021687851
0.021713121
0.021740511
0.021772267
0.021815142
0.021867864
0.021920266
0.021970056
0.022015983
0.02205122
0.022084838
0.022126967
0.022195839
0.022256853
0.022290601
0.022326196
0.022382739
0.022448178
0.022514393
0.022571708
0.022622052
0.022667027
0.022709591
0.022733403
0.022761734
0.022807758
0.022829197
0.022795311
0.022741575
0.022668407
0.022657512
0.02154665
0.021553719
0.021562309
0.021572192
0.021583141
0.021595497
0.02160886
0.021623965
0.021639384
0.021657563
0.021682091
0.021709993
0.021738093
0.021768358
0.021807713
0.021855317
0.02190697
0.021963562
0.022019074
0.022061216
0.022095863
0.022123226
0.02215281
0.022214936
0.022270781
0.022314301
0.022369083
0.022445644
0.022512584
0.02255991
0.022600759
0.022647361
0.022673708
0.022675669
0.022712424
0.022759709
0.02276258
0.022737479
0.022652924
0.022584616
0.021573394
0.021591999
0.021609241
0.021627034
0.02164847
0.021675816
0.021707822
0.021741773
0.021776603
0.021815697
0.021859338
0.02190475
0.021951437
0.021998672
0.022047081
0.022078945
0.022110032
0.022146006
0.022210326
0.022266235
0.022306678
0.022351972
0.022412497
0.022471875
0.022519175
0.022570815
0.022598302
0.022594203
0.022613574
0.022667581
0.022696602
0.022697554
0.022636604
0.022550993
0.021599951
0.021627705
0.021660404
0.021696966
0.021733109
0.021770025
0.021808338
0.021846705
0.021886812
0.021927084
0.021971709
0.022024008
0.022075353
0.02210411
0.022120255
0.022177561
0.022241366
0.02227088
0.022311466
0.022377
0.022437643
0.022482971
0.022519158
0.02253428
0.022544968
0.022585487
0.022607815
0.022633734
0.022641006
0.022553789
0.021652726
0.021693358
0.021732983
0.021772557
0.021813533
0.021854007
0.021892852
0.021940867
0.021998817
0.022046574
0.022065987
0.022096873
0.022155729
0.022206517
0.022237775
0.022287603
0.022351589
0.022401096
0.022457793
0.022495839
0.022507153
0.022525764
0.022548976
0.022583199
0.022661534
0.022564912
0.021724737
0.02177131
0.021816835
0.021863827
0.021916204
0.021973873
0.022022437
0.022038507
0.022065665
0.022119827
0.022164707
0.022211757
0.022270562
0.022327947
0.02240407
0.022466963
0.022497135
0.022489451
0.022515792
0.022562626
0.022628728
0.022552718
0.021770951
0.021819562
0.02187889
0.021938258
0.021980273
0.022002941
0.022039001
0.022086665
0.022133737
0.022195404
0.022267947
0.022362066
0.022446387
0.022485217
0.022476074
0.022492614
0.022511543
0.022572732
0.022561494
0.021843362
0.021901181
0.021945069
0.021983366
0.022025292
0.022075468
0.022130183
0.022232325
0.022330128
0.022411209
0.022463849
0.022478854
0.02250049
0.022487016
0.022573279
0.02258394
0.02188677
0.021933753
0.021976423
0.022025799
0.022089984
0.022170311
0.022273841
0.022378639
0.02244457
0.022482338
0.022527032
0.022468599
0.022584321
0.022593705
0.021980736
0.022039174
0.022117849
0.022215407
0.022316548
0.022424866
0.022480056
0.022520095
0.022469174
0.022524254
0.02257158
0.02207159
0.022149923
0.022247632
0.02236129
0.02245329
0.022466863
0.022455343
0.022455623
0.022528092
0.022161789
0.022285943
0.022395672
0.022404089
0.02241474
0.02244942
0.022493122
0.022179027
0.022287057
0.022371841
0.022397751
0.022438385
0.022445709
0.022359119
0.022327461
0.022422795
0.022399965
0.022311581
0.022435071
0.022367684
0.022413077
0.022378043
)
;

boundaryField
{
    Side
    {
        type            empty;
    }
    Inlet
    {
        type            calculated;
        value           nonuniform List<scalar> 
32
(
0.022546134
0.022559909
0.022573624
0.022587174
0.022604211
0.02261685
0.022619968
0.022619632
0.022617816
0.022612668
0.022602987
0.022592557
0.022586828
0.022585002
0.022586054
0.022589764
0.022592955
0.022594199
0.022592394
0.022587149
0.022578149
0.022574195
0.022575706
0.022570588
0.022564505
0.022570848
0.022577609
0.022572095
0.022561623
0.02255026
0.022540462
0.022531464
)
;
    }
    Airfoil
    {
        type            calculated;
        value           nonuniform List<scalar> 0();
    }
    Outlet
    {
        type            calculated;
        value           nonuniform List<scalar> 0();
    }
    procBoundary4to3
    {
        type            processor;
        value           nonuniform List<scalar> 
57
(
0.022606471
0.022614737
0.022623886
0.022633563
0.022643397
0.022653358
0.022612769
0.022612769
0.022620943
0.022630274
0.022641549
0.02265474
0.022669822
0.022686857
0.022705444
0.022724544
0.022743209
0.022761416
0.022781844
0.022742239
0.022742239
0.022759718
0.022788972
0.02281162
0.022838922
0.02287144
0.022893296
0.02290714
0.022933978
0.022933978
0.022952237
0.023002062
0.023043067
0.023058462
0.023108708
0.023193583
0.023182636
0.023182636
0.023212214
0.023263731
0.023308327
0.023301783
0.023301783
0.023278423
0.023190423
0.023060597
0.023060597
0.022926651
0.022838176
0.022898009
0.022898009
0.022919511
0.022820421
0.022820421
0.022866845
0.022688065
0.022688065
)
;
    }
    procBoundary4to5
    {
        type            processor;
        value           nonuniform List<scalar> 
64
(
0.021577401
0.0215711
0.021567533
0.021567533
0.021537186
0.021534016
0.021533986
0.021536531
0.021540918
0.021540918
0.021497091
0.021503652
0.021513529
0.021526251
0.02154068
0.021556113
0.021556113
0.02150962
0.021529589
0.021551567
0.021575042
0.021575042
0.021520665
0.021545164
0.021574505
0.021611608
0.021611608
0.021560081
0.021595068
0.021635119
0.02167893
0.02167893
0.02163572
0.021677445
0.021723364
0.021723364
0.021701978
0.021745979
0.021790723
0.021790723
0.02178827
0.021834936
0.021834936
0.021845379
0.021891528
0.021935249
0.021935249
0.021955664
0.022013545
0.022013545
0.022047035
0.022095456
0.022095456
0.022097758
0.022097758
0.022102492
0.022235135
0.022235135
0.022317222
0.022317222
0.022307153
0.022307153
0.02246137
0.022427867
)
;
    }
    procBoundary4to11
    {
        type            processor;
        value           nonuniform List<scalar> 
26
(
0.022517881
0.022462507
0.02240179
0.022355458
0.022331541
0.022328232
0.022334018
0.022341661
0.022341345
0.022331787
0.022321783
0.022291218
0.022233473
0.022146175
0.022063479
0.021991644
0.021913422
0.021834642
0.021768949
0.021718767
0.021683822
0.021649592
0.021622854
0.021611081
0.022562489
0.022562489
)
;
    }
    procBoundary4to12
    {
        type            processor;
        value           uniform 0.021583144;
    }
}


// ************************************************************************* //
