/*--------------------------------*- C++ -*----------------------------------*\
| =========                 |                                                 |
| \\      /  F ield         | OpenFOAM: The Open Source CFD Toolbox           |
|  \\    /   O peration     | Version:  2506                                  |
|   \\  /    A nd           | Website:  www.openfoam.com                      |
|    \\/     M anipulation  |                                                 |
\*---------------------------------------------------------------------------*/
FoamFile
{
    version     2.0;
    format      ascii;
    arch        "LSB;label=32;scalar=64";
    class       volScalarField;
    location    "3";
    object      rho;
}
// * * * * * * * * * * * * * * * * * * * * * * * * * * * * * * * * * * * * * //

dimensions      [1 -3 0 0 0 0 0];

internalField   nonuniform List<scalar> 
1376
(
0.6655217
0.66548802
0.6654984
0.66552802
0.66558801
0.6655138
0.66548088
0.66549209
0.66552182
0.66554711
0.66556393
0.66557441
0.6655814
0.66558675
0.66559122
0.66557931
0.6655054
0.66547322
0.66548529
0.66551509
0.6655402
0.66555679
0.66556712
0.66557406
0.6655794
0.66558389
0.66558782
0.66559134
0.66559462
0.66559776
0.66560085
0.66557003
0.66549642
0.66546496
0.66547791
0.66550777
0.66553273
0.66554911
0.66555932
0.66556623
0.66557158
0.6655761
0.66558007
0.66558365
0.66558701
0.66559024
0.66559343
0.66559661
0.66559981
0.66560304
0.66560632
0.66556013
0.66548683
0.66545606
0.6654699
0.66549983
0.66552466
0.66554086
0.66555098
0.66555788
0.66556327
0.66556783
0.66557185
0.66557551
0.66557895
0.66558229
0.6655856
0.66558889
0.66559221
0.66559556
0.66559895
0.66560241
0.66560597
0.66560963
0.66561344
0.66561742
0.66554962
0.66547663
0.66544651
0.66546127
0.66549128
0.66551599
0.66553204
0.6655421
0.66554902
0.66555445
0.66555907
0.66556315
0.6655669
0.66557044
0.6655739
0.66557733
0.66558076
0.66558422
0.6655877
0.66559123
0.66559483
0.66559851
0.66560231
0.66560626
0.66561037
0.66561467
0.66561918
0.6656239
0.66562879
0.66553856
0.66546587
0.66543636
0.66545206
0.66548217
0.66550677
0.66552269
0.6655327
0.66553965
0.66554515
0.66554984
0.665554
0.66555784
0.6655615
0.66556508
0.66556864
0.66557222
0.66557582
0.66557946
0.66558315
0.6655869
0.66559075
0.6655947
0.6655988
0.66560306
0.66560752
0.66561219
0.66561707
0.66562216
0.66562743
0.66563286
0.66563841
0.66564406
0.66552701
0.66545462
0.66542565
0.66544239
0.66547259
0.66549708
0.66551286
0.66552283
0.66552982
0.66553539
0.66554017
0.66554442
0.66554836
0.66555213
0.66555584
0.66555955
0.66556327
0.66556703
0.66557083
0.66557469
0.66557862
0.66558264
0.66558677
0.66559104
0.66559548
0.66560011
0.66560495
0.66561
0.66561527
0.66562073
0.66562638
0.66563218
0.66563811
0.66564414
0.66565028
0.6656565
0.66551507
0.66544299
0.66541465
0.66543239
0.66546268
0.66548701
0.66550264
0.66551256
0.66551958
0.66552523
0.66553009
0.66553444
0.66553849
0.66554238
0.66554622
0.66555005
0.66555392
0.66555783
0.6655618
0.66556583
0.66556994
0.66557415
0.66557847
0.66558294
0.66558757
0.66559239
0.6655974
0.66560263
0.66560807
0.66561372
0.66561957
0.66562559
0.66563177
0.6656381
0.66564457
0.66565116
0.66565784
0.66566458
0.66567129
0.66550282
0.66543108
0.66540348
0.66542217
0.66545252
0.66547667
0.6654921
0.66550196
0.66550899
0.66551469
0.66551963
0.66552407
0.66552822
0.66553222
0.66553618
0.66554015
0.66554416
0.66554821
0.66555234
0.66555654
0.66556083
0.66556522
0.66556974
0.66557441
0.66557924
0.66558426
0.66558947
0.66559488
0.6656005
0.66560633
0.66561236
0.66561859
0.66562501
0.6656316
0.66563838
0.66564531
0.66565238
0.66565953
0.66566667
0.66567369
0.66568045
0.66568693
0.66549034
0.66541899
0.66539229
0.66541182
0.6654422
0.6654661
0.66548131
0.66549105
0.66549807
0.6655038
0.66550878
0.66551329
0.66551753
0.66552163
0.6655257
0.66552979
0.66553391
0.6655381
0.66554237
0.66554673
0.66555119
0.66555577
0.66556049
0.66556536
0.6655704
0.66557562
0.66558103
0.66558664
0.66559245
0.66559846
0.66560467
0.6656111
0.66561774
0.66562459
0.66563165
0.66563891
0.66564633
0.66565386
0.66566141
0.66566888
0.66567613
0.66568315
0.66569008
0.6656968
0.66570431
0.66547765
0.66540675
0.66538101
0.66540135
0.66543171
0.66545532
0.66547025
0.66547985
0.6654868
0.66549252
0.66549751
0.66550206
0.66550635
0.66551052
0.66551468
0.66551886
0.66552309
0.6655274
0.66553179
0.66553629
0.66554091
0.66554567
0.66555058
0.66555566
0.66556092
0.66556636
0.66557199
0.6655778
0.66558381
0.66559002
0.66559642
0.66560305
0.6656099
0.66561699
0.66562432
0.66563188
0.66563963
0.66564751
0.66565545
0.66566334
0.66567107
0.66567864
0.66568623
0.66569363
0.66570181
0.66571572
0.66570904
0.66546471
0.6653943
0.66536955
0.66539067
0.66542098
0.66544425
0.66545887
0.66546828
0.66547513
0.66548079
0.66548575
0.66549029
0.6654946
0.66549881
0.66550302
0.66550727
0.66551158
0.66551598
0.66552048
0.66552511
0.66552988
0.66553481
0.66553991
0.6655452
0.66555068
0.66555636
0.66556222
0.66556827
0.66557451
0.66558093
0.66558755
0.66559439
0.66560146
0.66560879
0.66561637
0.66562421
0.66563226
0.66564047
0.66564876
0.66565705
0.66566524
0.66567337
0.66568165
0.66568978
0.66569868
0.66571399
0.66570507
0.66575573
0.66569018
0.66545142
0.66538152
0.66535776
0.66537962
0.66540984
0.66543277
0.66544705
0.66545624
0.66546296
0.66546852
0.66547341
0.6654779
0.66548219
0.66548641
0.66549064
0.66549492
0.66549928
0.66550375
0.66550834
0.66551307
0.66551798
0.66552307
0.66552837
0.66553387
0.66553959
0.66554552
0.66555164
0.66555796
0.66556446
0.66557114
0.66557801
0.66558509
0.6655924
0.66559997
0.6656078
0.6656159
0.66562422
0.66563273
0.66564135
0.66565001
0.66565866
0.66566736
0.66567635
0.66568525
0.6656949
0.66571188
0.66570037
0.66575576
0.66568368
0.66543762
0.66536822
0.66534545
0.66536798
0.6653981
0.66542068
0.66543463
0.6654436
0.66545016
0.66545561
0.6654604
0.66546483
0.66546907
0.66547326
0.66547748
0.66548177
0.66548616
0.66549067
0.66549532
0.66550015
0.66550518
0.66551042
0.6655159
0.66552163
0.66552759
0.66553379
0.6655402
0.66554681
0.66555361
0.66556059
0.66556776
0.66557512
0.66558271
0.66559055
0.66559864
0.66560699
0.66561557
0.66562435
0.66563327
0.66564228
0.66565135
0.6656606
0.66567031
0.66567996
0.66569033
0.66570925
0.66569485
0.66575582
0.66567629
0.66542313
0.66535425
0.6653324
0.66535553
0.66538554
0.6654078
0.66542144
0.66543019
0.66543661
0.66544194
0.66544665
0.665451
0.66545519
0.66545935
0.66546355
0.66546783
0.66547223
0.66547677
0.66548147
0.66548638
0.66549151
0.6654969
0.66550256
0.66550849
0.66551469
0.66552116
0.66552786
0.66553479
0.66554191
0.66554923
0.66555673
0.66556443
0.66557234
0.66558049
0.66558888
0.66559751
0.66560636
0.6656154
0.6656246
0.66563394
0.6656434
0.66565314
0.66566351
0.66567386
0.66568485
0.66570595
0.66568839
0.66575613
0.66566795
0.66540783
0.66533942
0.66531842
0.66534206
0.66537197
0.66539395
0.66540731
0.66541588
0.66542219
0.66542742
0.66543206
0.66543636
0.66544052
0.66544466
0.66544885
0.66545314
0.66545755
0.66546212
0.66546687
0.66547185
0.66547708
0.6654826
0.66548841
0.66549453
0.66550095
0.66550767
0.66551465
0.66552187
0.66552932
0.66553698
0.66554484
0.66555291
0.66556119
0.6655697
0.66557844
0.66558741
0.66559658
0.66560593
0.66561543
0.66562509
0.6656349
0.66564508
0.66565603
0.66566694
0.66567835
0.66570188
0.66568081
0.66575659
0.66565852
0.66539164
0.66532363
0.66530338
0.66532749
0.66535732
0.66537904
0.66539215
0.66540059
0.6654068
0.66541198
0.66541658
0.66542087
0.66542503
0.66542919
0.6654334
0.66543772
0.66544217
0.66544678
0.6654516
0.66545665
0.66546197
0.6654676
0.66547355
0.66547983
0.66548643
0.66549335
0.66550057
0.66550805
0.66551579
0.66552377
0.66553198
0.66554042
0.6655491
0.66555802
0.66556718
0.66557656
0.66558613
0.66559587
0.66560576
0.66561578
0.66562596
0.66563654
0.66564801
0.66565936
0.66567093
0.66569716
0.66567203
0.66575705
0.66564775
0.66537459
0.66530688
0.66528731
0.66531184
0.66534159
0.66536307
0.66537597
0.66538428
0.66539044
0.6653956
0.66540019
0.6654045
0.6654087
0.6654129
0.66541718
0.66542155
0.66542607
0.66543075
0.66543564
0.66544078
0.6654462
0.66545193
0.665458
0.6654644
0.66547115
0.66547822
0.66548561
0.66549329
0.66550126
0.6655095
0.66551802
0.66552681
0.66553588
0.66554524
0.66555486
0.66556473
0.66557482
0.66558506
0.66559544
0.66560595
0.66561659
0.66562763
0.66563964
0.66565137
0.66566284
0.66569213
0.66566208
0.66575755
0.6656354
0.66535673
0.66528925
0.6652703
0.66529525
0.66532491
0.66534615
0.66535884
0.66536704
0.66537315
0.66537829
0.6653829
0.66538724
0.6653915
0.66539577
0.66540012
0.66540458
0.66540917
0.66541394
0.66541892
0.66542415
0.66542967
0.6654355
0.66544167
0.66544818
0.66545503
0.66546221
0.66546972
0.66547754
0.66548567
0.66549411
0.66550287
0.66551196
0.6655214
0.66553117
0.66554128
0.66555169
0.66556236
0.66557322
0.66558424
0.66559539
0.66560665
0.6656183
0.66563099
0.66564322
0.66565442
0.66568717
0.66565103
0.66575838
0.66562125
0.66533822
0.66527091
0.66525255
0.66527791
0.66530746
0.66532844
0.6653409
0.66534898
0.66535503
0.66536014
0.66536475
0.66536912
0.66537342
0.66537775
0.66538216
0.66538669
0.66539137
0.66539622
0.66540128
0.6654066
0.66541221
0.66541813
0.66542438
0.66543097
0.66543791
0.66544517
0.66545277
0.66546069
0.66546894
0.66547753
0.66548649
0.66549583
0.66550557
0.66551573
0.6655263
0.66553724
0.66554851
0.66556004
0.66557179
0.66558372
0.66559579
0.66560826
0.66562189
0.66563484
0.66564573
0.66568248
0.66563898
0.66576002
0.66560517
0.66531903
0.66525195
0.6652342
0.66525998
0.6652894
0.66531007
0.66532228
0.66533022
0.66533618
0.66534123
0.6653458
0.66535015
0.66535445
0.6653588
0.66536324
0.6653678
0.66537251
0.66537741
0.66538253
0.66538791
0.66539358
0.66539958
0.6654059
0.66541257
0.66541958
0.66542692
0.66543459
0.66544259
0.66545095
0.66545968
0.6654688
0.66547836
0.66548837
0.66549886
0.66550983
0.66552125
0.66553307
0.66554525
0.66555775
0.66557053
0.66558352
0.665597
0.66561183
0.6656258
0.66563638
0.66567797
0.66562577
0.66576276
0.66558716
0.66529933
0.66523244
0.66521531
0.66524154
0.66527079
0.66529114
0.66530307
0.66531083
0.66531665
0.6653216
0.66532608
0.66533036
0.6653346
0.6653389
0.66534329
0.66534782
0.6653525
0.66535739
0.66536251
0.6653679
0.6653736
0.66537964
0.66538602
0.66539274
0.66539981
0.66540722
0.66541498
0.66542308
0.66543155
0.66544041
0.6654497
0.66545946
0.66546972
0.66548049
0.66549179
0.6655036
0.66551589
0.66552862
0.66554179
0.66555537
0.66556929
0.66558385
0.66560008
0.66561533
0.66562551
0.66567313
0.6656108
0.66576659
0.66556682
0.66527878
0.66521233
0.66519588
0.66522255
0.66525162
0.66527162
0.66528325
0.6652908
0.66529645
0.66530124
0.66530558
0.66530972
0.66531384
0.66531801
0.66532228
0.66532668
0.66533126
0.66533605
0.66534109
0.66534643
0.6653521
0.66535813
0.66536452
0.66537127
0.66537838
0.66538586
0.66539369
0.66540188
0.66541047
0.66541947
0.66542893
0.66543887
0.66544934
0.66546036
0.66547192
0.66548404
0.66549669
0.66550985
0.66552356
0.66553783
0.66555259
0.66556817
0.66558585
0.66560253
0.665612
0.66566709
0.66559293
0.66577073
0.66554384
0.66525785
0.66519161
0.66517584
0.66520295
0.66523183
0.66525146
0.66526276
0.66527008
0.66527554
0.66528014
0.66528429
0.66528825
0.66529216
0.66529613
0.6653002
0.6653044
0.66530878
0.66531339
0.66531827
0.66532347
0.66532902
0.66533496
0.66534129
0.66534801
0.66535511
0.6653626
0.66537047
0.66537873
0.6653874
0.66539651
0.6654061
0.6654162
0.66542685
0.66543805
0.66544983
0.66546218
0.66547511
0.66548861
0.66550275
0.6655176
0.66553309
0.66554958
0.66556868
0.66558688
0.66559511
0.6656593
0.66557115
0.66577521
0.66551627
0.66523566
0.66517017
0.66515512
0.66518263
0.66521129
0.66523053
0.6652415
0.66524857
0.66525381
0.6652582
0.66526213
0.66526585
0.66526953
0.66527323
0.66527702
0.66528094
0.66528504
0.66528936
0.66529397
0.66529893
0.66530426
0.66530999
0.66531615
0.66532272
0.66532971
0.66533711
0.66534492
0.66535315
0.66536182
0.66537096
0.6653806
0.66539078
0.66540152
0.66541284
0.66542477
0.6654373
0.66545045
0.66546425
0.66547879
0.6654942
0.66551036
0.66552768
0.66554817
0.66556799
0.6655742
0.66564928
0.66554434
0.66577913
0.66548425
0.6652137
0.66514818
0.66513382
0.66516167
0.66519008
0.66520891
0.66521952
0.66522632
0.66523133
0.66523549
0.66523918
0.66524265
0.66524605
0.66524945
0.66525292
0.66525649
0.66526022
0.66526418
0.66526843
0.66527302
0.665278
0.6652834
0.66528924
0.66529552
0.66530225
0.66530941
0.66531702
0.66532508
0.66533362
0.66534266
0.66535225
0.6653624
0.66537315
0.66538453
0.66539655
0.66540923
0.6654226
0.66543671
0.6654517
0.66546772
0.66548463
0.66550283
0.66552487
0.66554665
0.66554987
0.66563829
0.66551267
0.66578562
0.66544273
0.66518984
0.66512547
0.66511178
0.66513989
0.66516798
0.66518634
0.66519656
0.66520306
0.66520779
0.66521168
0.6652151
0.66521828
0.66522136
0.66522442
0.6652275
0.66523067
0.66523396
0.66523746
0.66524122
0.66524532
0.6652498
0.6652547
0.66526005
0.66526585
0.66527211
0.66527883
0.66528602
0.6652937
0.6653019
0.66531065
0.66531998
0.66532993
0.66534053
0.66535181
0.6653638
0.66537654
0.66539006
0.66540445
0.66541988
0.66543654
0.66545423
0.6654733
0.66549688
0.66552086
0.66551972
0.66562461
0.66547295
0.66579147
0.66539658
0.66516792
0.66510283
0.6650898
0.6651181
0.66514581
0.66516365
0.66517342
0.66517957
0.66518399
0.66518758
0.6651907
0.66519357
0.66519632
0.66519901
0.6652017
0.66520443
0.66520727
0.66521027
0.66521352
0.66521707
0.66522098
0.6652253
0.66523006
0.66523526
0.66524094
0.6652471
0.66525375
0.66526094
0.66526868
0.66527702
0.66528599
0.66529564
0.66530598
0.66531705
0.6653289
0.66534158
0.66535516
0.66536975
0.66538556
0.66540285
0.66542133
0.66544132
0.66546693
0.66549448
0.66548712
0.66561318
0.66542787
0.66580622
0.66533105
0.6651422
0.66507879
0.6650662
0.66509457
0.66512183
0.66513908
0.66514832
0.66515402
0.66515803
0.66516122
0.66516392
0.66516637
0.66516868
0.66517091
0.6651731
0.6651753
0.66517757
0.66517997
0.66518258
0.66518545
0.66518864
0.66519221
0.66519617
0.66520056
0.66520539
0.66521069
0.66521648
0.6652228
0.66522967
0.66523715
0.66524526
0.66525404
0.66526354
0.6652738
0.6652849
0.6652969
0.6653099
0.66532402
0.66533955
0.66535683
0.66537552
0.66539571
0.66542215
0.66545182
0.66543455
0.66558911
0.66535925
0.66581126
0.66526033
0.66512146
0.66505703
0.66504531
0.66507377
0.66510051
0.66511712
0.66512582
0.66513109
0.6651347
0.66513752
0.66513986
0.66514195
0.66514389
0.66514575
0.66514757
0.66514938
0.66515124
0.66515322
0.66515538
0.66515778
0.66516047
0.66516349
0.66516687
0.66517064
0.66517482
0.66517943
0.66518452
0.66519012
0.66519626
0.665203
0.66521036
0.66521839
0.66522712
0.66523659
0.66524684
0.66525798
0.66527021
0.66528368
0.66529877
0.66531597
0.66533478
0.66535487
0.66538373
0.66542465
0.66539919
0.66558459
0.66529666
0.66585748
0.66515038
0.66509309
0.66502905
0.66501685
0.66504511
0.66507136
0.66508732
0.6650954
0.6651001
0.66510314
0.66510537
0.6651071
0.66510857
0.66510987
0.66511106
0.66511218
0.66511327
0.66511437
0.66511554
0.66511684
0.6651183
0.66511997
0.66512186
0.665124
0.6651264
0.66512908
0.66513204
0.6651353
0.66513891
0.66514287
0.66514722
0.66515199
0.66515722
0.66516295
0.66516922
0.66517635
0.66518433
0.66519328
0.6652034
0.66521515
0.66522917
0.66524489
0.66526158
0.66528809
0.66532765
0.66527356
0.66549208
0.66515707
0.66577743
0.66504267
0.66507673
0.6650123
0.66500293
0.66503144
0.6650569
0.66507209
0.6650796
0.6650839
0.66508667
0.66508871
0.66509031
0.66509168
0.66509292
0.66509407
0.66509516
0.66509624
0.66509734
0.66509851
0.66509977
0.66510116
0.6651027
0.66510439
0.66510624
0.66510826
0.66511046
0.66511287
0.66511551
0.66511842
0.66512166
0.66512528
0.66512934
0.66513392
0.66513915
0.66514515
0.66515205
0.66516017
0.66516972
0.66518101
0.66519471
0.66521206
0.66523229
0.66525242
0.66528642
0.66534953
0.66527141
0.66561798
0.66512341
0.66611067
0.6648525
)
;

boundaryField
{
    Side
    {
        type            empty;
    }
    Inlet
    {
        type            calculated;
        value           nonuniform List<scalar> 
21
(
0.66572246
0.6657207
0.6657187
0.66571647
0.66571397
0.66571117
0.66570801
0.66570445
0.66570043
0.66569588
0.66569075
0.66568477
0.66567794
0.66566929
0.66565977
0.66564607
0.66563223
0.66560884
0.66558703
0.66554324
0.66556001
)
;
    }
    Airfoil
    {
        type            calculated;
        value           nonuniform List<scalar> 0();
    }
    Outlet
    {
        type            calculated;
        value           nonuniform List<scalar> 
49
(
0.66505091
0.66498631
0.66497756
0.66500554
0.66503111
0.66504586
0.66505311
0.66505702
0.66505944
0.6650611
0.66506233
0.66506331
0.66506412
0.66506481
0.66506538
0.66506584
0.66506622
0.66506654
0.66506681
0.66506705
0.66506726
0.66506745
0.66506761
0.66506775
0.66506786
0.66506797
0.66506808
0.66506821
0.66506837
0.66506857
0.66506879
0.66506902
0.66506924
0.66506946
0.66506963
0.66506986
0.66507014
0.66507054
0.66507124
0.66507241
0.66507384
0.66507564
0.66507986
0.66508357
0.66506756
0.66512436
0.66501077
0.66520704
0.66491847
)
;
    }
    procBoundary13to6
    {
        type            processor;
        value           nonuniform List<scalar> 
34
(
0.66559621
0.66559621
0.66558092
0.66557222
0.66556293
0.66555302
0.66554251
0.66553146
0.66551996
0.66550808
0.66549592
0.66548353
0.66547093
0.66545808
0.66544484
0.66543107
0.66541661
0.66540132
0.66538513
0.66536804
0.66535013
0.66533152
0.66531227
0.66529244
0.66527185
0.66525071
0.66522859
0.66520635
0.66518282
0.66516043
0.66513541
0.66511396
0.66508629
0.66506977
)
;
    }
    procBoundary13to12
    {
        type            processor;
        value           nonuniform List<scalar> 
60
(
0.66552917
0.66549472
0.66550429
0.66553377
0.66555351
0.66555351
0.66557058
0.66558123
0.6655883
0.66559365
0.66559811
0.66559512
0.66559512
0.6655986
0.6656018
0.66560486
0.66560786
0.66560394
0.66560394
0.66560703
0.66561016
0.66561333
0.66560968
0.66560968
0.66561311
0.66561667
0.66562035
0.66562419
0.66562159
0.66562159
0.66562593
0.66563046
0.66563514
0.66563386
0.66563386
0.66563904
0.66564431
0.66564964
0.66564977
0.66564977
0.66565555
0.66566137
0.66566277
0.66566277
0.66566908
0.66567532
0.66567782
0.66567782
0.66568407
0.66568999
0.66569321
0.66569321
0.66569929
0.6657062
0.66571702
0.66571702
0.6657124
0.6657554
0.6657554
0.66569592
)
;
    }
}


// ************************************************************************* //
