/*--------------------------------*- C++ -*----------------------------------*\
| =========                 |                                                 |
| \\      /  F ield         | OpenFOAM: The Open Source CFD Toolbox           |
|  \\    /   O peration     | Version:  2506                                  |
|   \\  /    A nd           | Website:  www.openfoam.com                      |
|    \\/     M anipulation  |                                                 |
\*---------------------------------------------------------------------------*/
FoamFile
{
    version     2.0;
    format      ascii;
    arch        "LSB;label=32;scalar=64";
    class       volScalarField;
    location    "0.001";
    object      omega;
}
// * * * * * * * * * * * * * * * * * * * * * * * * * * * * * * * * * * * * * //

dimensions      [0 0 -1 0 0 0 0];

internalField   nonuniform List<scalar> 
13761
(
2.7510815e+08
45833534
14327049
6034754.2
2930212.3
1540699
898251.72
594816.76
439657.14
350365.66
292715.94
251777.83
220446.91
194969.29
173234.13
154064.22
136850.98
121460.35
108152.76
97311.606
88977.602
82689.847
77769.86
73639.561
69880.956
66217.847
62494.936
58647.718
54677.661
50639.493
46632.302
42790.677
39268.297
36207.059
33706.349
31799.465
30424.766
29394.665
28546.693
27792.906
27088.386
26480.369
26064.613
25781.203
25610.71
25527.285
25481.081
25443.024
25399.509
25337.653
25242.16
25120.277
24994.472
24870.883
24752.677
24646.049
24551.84
24463.288
24404.226
24406.435
24489.666
24591.912
24700.584
25017.806
25226.845
25155.195
25135.669
25308.919
25333.33
24916.287
23820.472
23324.208
23404.513
23819.82
24451.977
24987.694
25262.533
25278.051
25206.825
25170.888
25158.794
25070.347
24986.247
25007.96
25099.581
25241.608
25272.416
25038.103
24640.595
24441.07
24442.11
24560.138
24790.979
24967.696
25003.801
25008.116
25009.521
24984.342
24957.773
24957.586
24971.069
24993.869
25017.06
25035.374
25047.711
25055.079
25058.752
25060.196
25060.815
25060.994
25061.024
25061.028
25061.028
25061.028
25061.028
25061.027
25061.027
25061.027
25061.027
25061.027
25061.027
25061.027
25061.027
25061.027
25061.027
25061.027
25061.027
25061.027
25061.027
25061.027
25061.027
25061.027
25061.027
25061.027
25061.081
25063.289
25064.099
25064.162
2.7604871e+08
46170127
14676820
6451415.4
3409485.6
2025340.9
1306672.5
899014.54
652971.29
497227.34
394267.63
323199.11
272109.92
234125.23
205246.38
182880.42
165274.82
151184.23
139695.92
130121.71
121934.69
114732.72
108200.39
102083.06
96172.562
90299.359
84327.275
78158.526
71747.598
65126.447
58428.774
51889.828
45812.457
40501.654
36178.035
32906.385
30597.188
29066.438
27991.181
27122.931
26340.201
25762.556
25488.869
25351.313
25298.062
25282.565
25274.635
25262.895
25235.362
25176.039
25084.315
24977.279
24864.978
24748.967
24645.329
24559.793
24477.725
24400.921
24371.745
24403.043
24518.222
24613.974
24748.552
25110.832
25243.808
25128.687
25135.019
25336.134
25322.247
24766.833
23649.674
23300.478
23433.236
23898.504
24531.056
25032.706
25269.359
25267.889
25196.345
25170.129
25147.629
25052.71
24982.834
25012.57
25110.129
25248.689
25264.788
25012.872
24613.929
24427.965
24439.036
24563.428
24795.031
24969.858
25004.159
25007.21
25008.529
24983.161
24956.418
24955.348
24969.283
24992.454
25016.005
25034.665
25047.305
25054.869
25058.668
25060.164
25060.804
25060.992
25061.024
25061.028
25061.028
25061.028
25061.028
25061.028
25061.027
25061.027
25061.027
25061.027
25061.027
25061.027
25061.027
25061.027
25061.027
25061.027
25061.027
25061.027
25061.027
25061.027
25061.027
25061.027
25061.027
25061.027
25061.349
25063.727
25064.14
25064.325
2.7620577e+08
46183954
14672695
6437660.7
3388292
1998612.8
1276967.1
869537.34
627028.13
477320.3
381446.33
317158.26
271799.58
238304.96
212581.33
192198.9
175624.25
161839.08
150140.3
140018.13
131085.9
123042.28
115640.06
108663.46
101920.18
95262.306
88561.566
81717.695
74681.044
67482.797
60261.255
53263.549
46806.19
41197.637
36675.303
33305.243
30953.176
29356.196
28178.347
27187.589
26276.488
25669.02
25400.127
25272.991
25235.018
25227.575
25223.319
25211.196
25177.14
25110.124
25018.475
24908.722
24791.772
24684.606
24592.53
24509.427
24425.689
24363.179
24352.368
24404.24
24531.914
24619.726
24773.431
25160.051
25235.107
25100.673
25128.893
25355.153
25311.333
24666.98
23559.608
23293.504
23451.459
23938.762
24565.019
25047.04
25258.955
25257.432
25190.788
25167.383
25134.256
25041.129
24982.355
25017.47
25116.918
25251.797
25257.943
24993.047
24595.841
24417.253
24432.485
24561.76
24794.772
24968.507
25002.12
25006.272
25007.845
24982.119
24955.353
24954.095
24968.345
24991.836
25015.523
25034.365
25047.147
25054.791
25058.64
25060.153
25060.8
25060.992
25061.024
25061.027
25061.028
25061.028
25061.028
25061.028
25061.027
25061.027
25061.027
25061.027
25061.027
25061.027
25061.027
25061.027
25061.027
25061.027
25061.027
25061.027
25061.027
25061.027
25061.027
25061.027
25061.027
25061.03
25061.912
25063.989
25064.151
25064.62
2.7648165e+08
46233373
14692101
6451415.4
3402227.6
2014808
1296185.5
891720.41
651456.04
502877.54
406907.5
341384.14
293869.27
257609.5
228943.27
205753.97
186685.61
170788.08
157355.81
145838.96
135796.96
126875.34
118782.63
111274.55
104139.55
97196.106
90291.624
83283.527
76091.043
68720.159
61291.393
54045.588
47309.045
41413.775
36603.253
33007.721
30567.136
28967.655
27817.656
26857.69
26028.461
25535.994
25319.094
25217.159
25190.962
25186.313
25181.798
25165.876
25124.211
25049.511
24947.174
24830.749
24723.118
24622.571
24531.942
24454.877
24380.392
24333.284
24334.084
24409.575
24550.135
24629.646
24813.672
25212.989
25233.246
25076.32
25136.954
25379.657
25293.706
24543.356
23469.518
23289.347
23478.276
23987.704
24604.014
25061.645
25249.975
25247.794
25186.468
25157.686
25118.44
25033.08
24984.561
25025.418
25124.006
25253.835
25248.075
24966.349
24574.598
24405.999
24427.154
24561.521
24795.337
24968.172
25000.949
25005.166
25006.628
24980.835
24954.289
24953.026
24967.874
24991.565
25015.366
25034.275
25047.109
25054.766
25058.639
25060.151
25060.798
25060.992
25061.024
25061.027
25061.028
25061.028
25061.028
25061.028
25061.027
25061.027
25061.027
25061.027
25061.027
25061.027
25061.027
25061.027
25061.027
25061.027
25061.027
25061.027
25061.027
25061.027
25061.027
25061.027
25061.027
25061.092
25062.632
25064.11
25064.168
2.7666386e+08
46262393
14700931
6455183.6
3404880.5
2018102.9
1301093.5
898560.99
659828.92
511765.29
415164.98
348271.99
299233.84
261682.75
232066.05
208217.14
188685.36
172437.97
158713.62
146929.32
136625.55
127435.22
119057.22
111250.35
103814.67
96555.034
89310.284
81965.895
74470.382
66868.406
59321.538
52101.53
45541.219
39949.22
35527.123
32314.691
30156.781
28714.419
27628.438
26681.766
25883.074
25454.782
25262.816
25180.129
25164.072
25160.915
25154.721
25132.206
25080.032
24995.069
24887.809
24777.407
24674.428
24574.576
24492.001
24417.894
24346.132
24315.682
24329.413
24438.222
24572.225
24644.06
24865.833
25260.592
25234.065
25054.036
25158.67
25406.289
25271.774
24418.971
23397.912
23287.912
23508.08
24034.885
24638.619
25071.953
25239.766
25239.439
25182.527
25142.042
25103.535
25030.091
24994.501
25035.083
25130.238
25254.503
25234.734
24936.273
24553.557
24395.071
24421.659
24561.067
24795.798
24967.576
24999.454
25003.944
25005.319
24979.24
24952.779
24951.672
24967.108
24991.112
25015.066
25034.102
25047.026
25054.724
25058.632
25060.143
25060.796
25060.992
25061.024
25061.027
25061.028
25061.028
25061.028
25061.027
25061.027
25061.027
25061.027
25061.027
25061.027
25061.027
25061.027
25061.027
25061.027
25061.027
25061.027
25061.027
25061.027
25061.027
25061.027
25061.027
25061.027
25061.385
25063.277
25064.151
25064.328
2.7699802e+08
46319710
14719868
6464875.5
3412289.4
2025916.3
1310616.3
910231.12
673284.64
526061.39
429177.02
361162.12
310601.31
271447.54
240305.93
215067.97
194297.29
176959.77
162288.25
149692.38
138705.06
128953.33
120125.3
111943.9
104179.74
96630.432
89125.291
81569.67
73921.54
66222.763
58632.903
51420.495
44911.815
39403.347
35078.974
31957.436
29863.228
28449.46
27378.956
26460.318
25742.873
25386.872
25222.395
25156.363
25144.244
25140.8
25132.201
25104.111
25044.735
24953.745
24844.477
24733.957
24631.353
24535.573
24456.379
24385.038
24322.839
24303.329
24325.567
24464.284
24590.536
24661.428
24927.768
25305.925
25232.267
25040.199
25193.454
25432.538
25244.811
24293.968
23341.286
23287.048
23540.646
24081.91
24671.027
25079.669
25232.071
25232.632
25174.143
25118.993
25092.207
25031.622
25008.886
25045.727
25135.991
25253.708
25216.509
24902.645
24532.171
24384.737
24416.559
24560.715
24796.481
24966.956
24997.816
25002.781
25004.005
24977.771
24951.199
24950.402
24966.427
24990.694
25014.803
25033.952
25046.95
25054.689
25058.629
25060.135
25060.795
25060.993
25061.024
25061.027
25061.028
25061.028
25061.028
25061.027
25061.027
25061.027
25061.027
25061.027
25061.027
25061.027
25061.027
25061.027
25061.027
25061.027
25061.027
25061.027
25061.027
25061.027
25061.027
25061.027
25061.032
25061.984
25063.736
25064.162
25064.628
2.7727291e+08
46366892
14735661
6473519
3419830.5
2034676.3
1321514
923189.22
687384.22
539891.25
441512.82
371389.39
318684.57
277658.71
244996.97
218562.43
196859.46
178795.49
163554.52
150507.65
139158.25
129111.94
120046.61
111682.52
103762.76
96074.759
88451.407
80776.552
73016.381
65232.778
57609.595
50432.37
44026.353
38669.573
34517.08
31555.611
29580.142
28231.8
27193.993
26287.831
25619.366
25315.079
25172.337
25127.942
25122.946
25120.59
25109.446
25074.633
25007.04
24910.467
24800.308
24693.366
24596.025
24504.796
24429.987
24361
24305.382
24297.429
24338.346
24500.127
24610.369
24681.386
24995.251
25342.957
25218.921
25029.784
25232.876
25451.486
25205.965
24164.976
23295.663
23287.303
23575.72
24127.953
24701.629
25086.426
25226.643
25226.444
25157.855
25093.764
25086.245
25048.267
25022.749
25055.306
25141.601
25248.915
25193.018
24867.617
24511.202
24374.993
24412.042
24560.425
24797.407
24966.342
24996
25001.455
25002.523
24976.079
24949.543
24949.054
24965.732
24990.262
25014.525
25033.798
25046.869
25054.658
25058.626
25060.125
25060.793
25060.993
25061.024
25061.027
25061.028
25061.028
25061.028
25061.027
25061.027
25061.027
25061.027
25061.027
25061.027
25061.027
25061.027
25061.027
25061.027
25061.027
25061.027
25061.027
25061.027
25061.027
25061.027
25061.027
25061.107
25062.706
25064
25064.183
2.7765348e+08
46431378
14756785
6484103.1
3427687.7
2042584.4
1330608.7
933627.37
698563.35
550895.3
451578.04
380163.54
326161.92
283992.76
250369.82
223133.14
200755.06
182115.2
166375.72
152890.2
141147.07
130738.53
121329.36
112635.1
104412.18
96451.313
88581.629
80686.621
72737.018
64808.266
57095.169
49888.411
43508.064
38216.654
34147.729
31266.34
29351.127
28043.267
27040.462
26171.242
25555.662
25284.676
25157.053
25117.803
25112.687
25109.263
25094.797
25054.209
24980.906
24880.876
24770.578
24665.41
24568.822
24477.756
24404.859
24339.631
24294.231
24292.923
24347.931
24525.184
24619.048
24693.792
25054.504
25365.055
25193.707
25020.211
25269.196
25460.807
25154.979
24037.161
23259.185
23283.217
23608.368
24169.063
24729.994
25094.818
25222.081
25219.509
25135.511
25074.589
25084.592
25066.261
25033.775
25062.813
25146.902
25240.694
25163.617
24832.056
24491.407
24365.77
24407.949
24560.302
24798.507
24965.468
24993.995
25000.06
25001.076
24974.3
24947.72
24947.742
24965.026
24989.815
25014.242
25033.65
25046.788
25054.631
25058.622
25060.116
25060.792
25060.993
25061.024
25061.027
25061.028
25061.028
25061.028
25061.027
25061.027
25061.027
25061.027
25061.027
25061.027
25061.027
25061.027
25061.027
25061.027
25061.027
25061.027
25061.027
25061.027
25061.027
25061.027
25061.027
25061.43
25063.336
25064.118
25064.352
2.7793524e+08
46479332
14772937
6493274.6
3435955.1
2052228.5
1342391.6
947248.71
712941.29
564660.64
463723.34
390292.67
334339.74
290485.02
255475.93
227120.45
203843.58
184480.66
168156.95
154195.93
142061.61
131326.61
121640.19
112707.06
104281.41
96143.753
88110.056
80071.033
72005.428
64006.781
56281.648
49124.531
42847.106
37691.522
33765.542
31008.984
29178.879
27909.907
26908.991
26033.558
25469.651
25238.161
25126.929
25101.581
25099.535
25095.669
25077.262
25030.322
24951.192
24848.196
24738.582
24636.223
24542.048
24454.396
24386.821
24323.407
24283.001
24286.766
24358.822
24545.796
24623.873
24702.18
25109.221
25375.387
25154.563
25003.752
25298.554
25463.165
25087.639
23904.286
23223.116
23279.796
23637.419
24205.735
24757.089
25105.12
25217.05
25210.956
25111.952
25066.301
25090.972
25077.65
25039.83
25068.162
25151.279
25227.179
25128.619
24796.859
24473.14
24357.232
24404.237
24560.365
24799.967
24964.255
24991.77
24998.578
24999.48
24972.435
24945.816
24946.448
24964.328
24989.365
25013.958
25033.507
25046.71
25054.607
25058.616
25060.108
25060.791
25060.994
25061.024
25061.027
25061.028
25061.028
25061.028
25061.027
25061.027
25061.027
25061.027
25061.027
25061.027
25061.027
25061.027
25061.027
25061.027
25061.027
25061.027
25061.027
25061.027
25061.027
25061.027
25061.034
25062.052
25063.774
25064.155
25064.654
2.782833e+08
46538342
14792214
6503144.1
3443552.7
2059999.8
1351154.2
956886.04
722758.13
573840.1
471721.47
396974.86
339843.73
295029.12
259260.22
230301.69
206538.68
186776.27
170117.74
155870.27
143485.26
132524.98
122629.5
113494.04
104861.26
96518.583
88299.026
80095.167
71883.252
63765.587
55964.488
48781.175
42522.614
37417.215
33554.581
30855.804
29062.49
27806.789
26811.659
25963.859
25441.218
25225.351
25119.064
25094.41
25091.805
25086.708
25064.913
25013.14
24929.717
24824.445
24714.957
24613.675
24519.803
24432.522
24364.406
24301.866
24268.139
24277.031
24362.543
24554.649
24622.128
24702.581
25148.478
25376.001
25105.612
24978.742
25318.725
25451.877
25008.074
23778.7
23188.528
23274.133
23660.438
24234.597
24778.937
25111.607
25212.313
25201.73
25093.686
25065.224
25108.711
25083.143
25041.339
25072.008
25154.48
25206.68
25088.931
24763.067
24456.417
24349.459
24400.933
24561.069
24801.724
24962.749
24989.534
24997.112
24997.805
24970.3
24943.831
24945.188
24963.614
24988.903
25013.671
25033.366
25046.634
25054.585
25058.608
25060.101
25060.791
25060.994
25061.024
25061.027
25061.028
25061.028
25061.028
25061.028
25061.027
25061.027
25061.027
25061.027
25061.027
25061.027
25061.027
25061.027
25061.027
25061.027
25061.027
25061.027
25061.027
25061.027
25061.027
25061.121
25062.771
25064.023
25064.165
2.7856376e+08
46585613
14808320
6512337.4
3451948.5
2069779.3
1362920.5
970125.04
736242.37
586294.27
482393.14
405747.31
346929.95
300732.63
263861.13
234026.47
209562.16
189231.72
172106.39
157468.73
144750.99
133500.63
123346.23
113974.05
105119.65
96563.205
88138.919
79739.11
71374.978
63161.012
55323.127
48161.433
41971.916
36963.619
33203.774
30592.997
28859.12
27638.5
26674.282
25860.117
25381.52
25185.969
25093.676
25078.106
25076.511
25069.856
25043.786
24986.587
24898.677
24791.227
24682.166
24582.328
24489.035
24403.381
24338.826
24279.201
24250.23
24264.107
24364.489
24559.927
24611.77
24701.329
25185.767
25363.174
25048.972
24951.019
25334.806
25427.586
24916.533
23658.505
23155.971
23270.155
23682.441
24259.416
24796.592
25114.256
25208.918
25192.493
25084.565
25078.633
25127.544
25083.663
25040.564
25075.627
25156.061
25178.204
25045.576
24731.868
24441.629
24342.685
24398.108
24562.279
24803.501
24960.688
24987.119
24995.554
24996.061
24967.975
24941.811
24944.015
24962.915
24988.445
25013.389
25033.226
25046.563
25054.565
25058.595
25060.096
25060.79
25060.994
25061.024
25061.027
25061.028
25061.028
25061.028
25061.028
25061.027
25061.027
25061.027
25061.027
25061.027
25061.027
25061.027
25061.027
25061.027
25061.027
25061.027
25061.027
25061.027
25061.027
25061.039
25061.473
25063.384
25064.131
25064.181
2.788991e+08
46642937
14827203
6521920.8
3459118.5
2076878.1
1370657.4
978328.41
744274.2
593529.61
488578.12
410897.33
351212.74
304333.14
266929.34
236672.54
211864.85
191247.23
173874.63
159017.36
146098.19
134657.04
124316.51
114758.41
105715.71
96968.658
88355.104
79791.588
71282.928
62958.62
55060.706
47891.077
41735.319
36785.184
33090.34
30536.84
28840.572
27640.837
26687.342
25865.147
25370.545
25169.993
25078.025
25062.126
25060.175
25052.192
25022.819
24961.401
24870.025
24761.11
24652.451
24553.229
24459.836
24374.887
24311.059
24252.33
24228.043
24245.908
24361.381
24554.904
24592.78
24694.092
25209.7
25339.824
24993.739
24926.622
25347.065
25407.507
24830.476
23559.414
23131.102
23268.28
23703.709
24281.608
24811.197
25115.018
25204.839
25181.726
25082.533
25104.188
25142.694
25072.062
25036.912
25080.041
25154.797
25142.171
25000.062
24703.872
24428.794
24337.029
24396.199
24564.057
24805.127
24958.34
24984.715
24993.976
24994.196
24965.363
24939.763
24942.862
24962.194
24987.977
25013.111
25033.083
25046.499
25054.548
25058.58
25060.092
25060.79
25060.994
25061.024
25061.027
25061.027
25061.028
25061.028
25061.028
25061.027
25061.027
25061.027
25061.027
25061.027
25061.027
25061.027
25061.027
25061.027
25061.027
25061.027
25061.027
25061.027
25061.027
25061.157
25062.117
25063.806
25064.165
25064.342
2.7925088e+08
46703005
14847200
6532837.5
3468335.7
2086965.7
1382283.1
990984.59
756858.78
605045.39
498495.13
419190.86
358096.37
310064.14
271731.1
240720.24
215291.68
194153.8
176336.97
161092.58
147828.85
136074.66
125444.47
115614.58
106315.31
97327.429
88491.763
79729.785
71060.543
62626.342
54673.849
47501.703
41382.035
36486.85
32846.243
30332.425
28659.321
27472.877
26532.154
25745.952
25306.785
25126.147
25046.552
25036.695
25035.421
25026.222
24993.523
24928.09
24833.913
24724.48
24617.194
24519.386
24426.522
24343.49
24283.122
24227.895
24208.954
24233.254
24362.136
24550.832
24579.945
24692.91
25238.673
25325.888
24945.004
24910.612
25367.741
25393.93
24747.032
23474.647
23115.865
23275.58
23730.257
24305.477
24824.106
25114.368
25197.193
25171.896
25087.055
25123.11
25148.373
25060.503
25035.628
25085.28
25134.505
25098.802
24955.748
24679.651
24418.079
24332.374
24395.302
24566.341
24806.143
24955.569
24982.297
24992.365
24992.301
24962.546
24937.736
24941.772
24961.486
24987.513
25012.845
25032.943
25046.444
25054.532
25058.563
25060.089
25060.79
25060.994
25061.024
25061.027
25061.027
25061.028
25061.028
25061.027
25061.027
25061.027
25061.027
25061.027
25061.027
25061.027
25061.027
25061.027
25061.027
25061.027
25061.027
25061.027
25061.027
25061.027
25061.556
25062.839
25064.041
25064.173
25064.645
2.7965536e+08
46771366
14869506
6543910.3
3476244.9
2094381
1390060.9
999054.36
764704.8
612130.79
504587.71
424335.24
362445.56
313773.08
274922.18
243483.2
217691.47
196237.31
178138.45
162637.18
149135.07
137156.46
126312.8
116278.74
106784.36
97611.922
88605.57
79690.128
70906.041
62403.052
54428.46
47274.378
41199.304
36359.064
32770.476
30298.938
28659.869
27502.46
26581.021
25776.631
25302.516
25109.749
25030.247
25020.893
25019.751
25009.858
24975.053
24907.001
24810.861
24701.003
24594.59
24497.554
24405.014
24323.586
24265.39
24212.437
24197.518
24227.057
24361.904
24549.025
24572.581
24692.725
25260.309
25317.978
24911.067
24902.394
25389.344
25387.392
24678.563
23413.145
23108.706
23287.308
23755.252
24326.1
24832.887
25108.705
25189
25165.015
25090.011
25130.129
25148.162
25057.525
25038.275
25088.224
25099.067
25046.887
24916.498
24659.61
24409.737
24328.967
24395.206
24569.237
24806.53
24952.402
24979.857
24990.731
24990.216
24959.501
24935.732
24940.695
24960.769
24987.043
25012.587
25032.807
25046.396
25054.516
25058.547
25060.085
25060.789
25060.994
25061.024
25061.028
25061.027
25061.028
25061.028
25061.027
25061.027
25061.027
25061.027
25061.027
25061.027
25061.027
25061.027
25061.027
25061.027
25061.027
25061.027
25061.027
25061.027
25061.04
25062.217
25063.438
25064.142
25064.188
2.8002665e+08
46834696
14890819
6555547.1
3485965.7
2104759.8
1401654.3
1011268.5
776462.34
622586.75
513444
431697.86
368570.07
318908.04
279263
247174.16
220837.89
198917.22
180411.06
164548.69
150722.62
138450.88
127340.33
117062.27
107344.71
97969.998
88786.516
79730.896
70833.401
62253.574
54244.506
47092.42
41042.758
36236.778
32679.572
30228.599
28594.494
27428.665
26488.13
25686.94
25250.806
25078.978
25014.672
25009.889
25009.118
24997.981
24960.364
24889.355
24791.413
24681.653
24576.608
24480.633
24388.668
24309.249
24253.795
24203.637
24192.335
24226.569
24375.137
24554.261
24571.331
24710.251
25297.032
25317.289
24882.791
24899.7
25418.558
25383.657
24606.647
23354.005
23104.022
23300.441
23777.746
24345.161
24841.104
25105.997
25186.601
25161.562
25089.265
25128.805
25142.417
25061.52
25044.792
25086.15
25048.842
24992.392
24883.662
24644.148
24403.602
24326.987
24396.045
24572.509
24806.121
24948.902
24977.513
24989.124
24987.913
24956.324
24933.839
24939.644
24960.053
24986.576
25012.338
25032.68
25046.352
25054.496
25058.532
25060.083
25060.788
25060.994
25061.025
25061.028
25061.027
25061.028
25061.028
25061.027
25061.027
25061.027
25061.027
25061.027
25061.027
25061.027
25061.027
25061.027
25061.027
25061.027
25061.027
25061.027
25061.027
25061.165
25062.919
25063.838
25064.173
25064.35
2.8041547e+08
46901287
14912722
6566675.7
3494165.5
2112559.6
1409749.6
1019468.8
784215.75
629457.55
519315.32
436655.62
372765.01
322473.68
282307.37
249779.2
223065.23
200814.29
182015.87
165892.81
151832.99
139350.84
128050.07
117598.95
107723.22
98204.262
88890.798
79718.845
70736.398
62109.078
54090.497
46958.125
40944.015
36177.13
32653.921
30225.905
28603.075
27443.42
26505.679
25699.221
25259.987
25082.926
25013.265
25007.497
25006.524
24994.455
24954.933
24882.007
24782.876
24673.015
24568.379
24472.53
24380.473
24302.107
24247.812
24199.076
24189.966
24228.22
24384.793
24557.562
24570.451
24722.176
25320.304
25317.632
24858.117
24899.156
25437.364
25373.679
24542.32
23304.442
23097.16
23308.635
23793.279
24360.938
24850.369
25107.584
25187.233
25159.526
25080.287
25111.811
25140.206
25075.583
25047.512
25048.097
24986.979
24944.309
24857.64
24633.29
24399.308
24326.291
24397.613
24575.891
24804.928
24944.986
24975.229
24987.461
24985.218
24953.043
24932.057
24938.585
24959.332
24986.113
25012.094
25032.563
25046.311
25054.474
25058.519
25060.081
25060.787
25060.993
25061.025
25061.028
25061.027
25061.028
25061.028
25061.027
25061.027
25061.027
25061.027
25061.027
25061.027
25061.027
25061.027
25061.027
25061.027
25061.027
25061.027
25061.027
25061.027
25061.576
25063.49
25064.053
25064.181
25064.654
2.8074853e+08
46959195
14932296
6577715.2
3503655.7
2122669.1
1420820.5
1030827.3
794862.88
638693.2
526964.15
442900.6
377886.7
326724.93
285869.28
252783.67
225609.87
202973.4
183847.83
167444.39
153141.66
140446.2
128954.7
118329.27
108291.28
98620.681
89169.488
79884.083
70817.803
62132.924
54080.094
46936.105
40927.547
36172.599
32657.35
30230.454
28601.66
27425.894
26460.75
25642.75
25221.517
25061.651
25006.215
25003.416
25002.267
24988.464
24946.026
24870.381
24769.652
24659.661
24555.795
24460.243
24368.157
24290.927
24238.255
24191.623
24185.256
24228.734
24390.928
24558.784
24566.862
24731.413
25339.922
25309.465
24824.942
24895.564
25452.018
25355.084
24471.506
23255.463
23090.225
23318.488
23811.749
24380.196
24864.824
25116.248
25191.822
25158.903
25071.937
25101.066
25140.265
25081.355
25038.224
24974.655
24923.224
24906.787
24838.296
24626.529
24396.83
24326.57
24399.994
24578.978
24803.099
24940.87
24973.076
24985.78
24982.109
24949.762
24930.426
24937.536
24958.614
24985.662
25011.855
25032.458
25046.272
25054.448
25058.509
25060.079
25060.787
25060.993
25061.025
25061.028
25061.027
25061.028
25061.028
25061.027
25061.027
25061.027
25061.027
25061.027
25061.027
25061.027
25061.027
25061.027
25061.027
25061.027
25061.027
25061.027
25061.041
25062.241
25063.872
25064.143
25064.195
2.8109978e+08
47020246
14952448
6588191.5
3511670.2
2130510
1429020.8
1039046
802480.42
645277.71
532426.33
447368.99
381549.78
329753.04
288403.2
254927.03
227439.04
204545.37
185205.8
168621.1
154160.91
141324.06
129700.28
118946.03
108779.34
98980.126
89404.18
80003.353
70839.666
62085.402
53999.391
46852.388
40858.207
36123.773
32627.804
30212.804
28583.64
27397.304
26419.217
25611.049
25217.616
25061.058
24999.157
24995.248
24993.661
24978.344
24933.731
24856.338
24754.704
24644.878
24541.506
24446.048
24353.821
24277.509
24225.545
24179.831
24174.946
24223.339
24391.243
24552.445
24555.804
24733.485
25349.555
25294.764
24794.592
24891.288
25461.246
25337.565
24415.443
23221.158
23088.31
23330.829
23832.881
24400.141
24879.722
25123.49
25196.859
25161.716
25071.08
25099.895
25140.354
25073.51
24970.851
24894.037
24873.785
24879.378
24824.739
24623.033
24396.133
24327.685
24403.271
24581.518
24800.43
24936.595
24971.026
24983.99
24978.539
24946.514
24928.905
24936.478
24957.897
24985.224
25011.624
25032.365
25046.235
25054.421
25058.499
25060.076
25060.787
25060.992
25061.025
25061.028
25061.027
25061.028
25061.028
25061.028
25061.027
25061.027
25061.027
25061.027
25061.027
25061.027
25061.027
25061.027
25061.027
25061.027
25061.027
25061.027
25061.17
25062.94
25064.081
25064.168
25064.357
2.8139653e+08
47072058
14969890
6598024.6
3520112.1
2139432.8
1438626.1
1048691.9
811313.36
652787.1
538572.88
452367.03
385658.61
333191.81
291330.26
257453.04
229644.58
206490.52
186935.39
170167.26
155544.67
142556.43
130783.76
119876.86
109550.98
99587.821
89849.897
80300.077
71014.809
62178.476
54041.471
46866.126
40858.522
36119.175
32620.266
30197.312
28552.642
27350.287
26367.976
25572.293
25192.835
25043.689
24986.654
24984.058
24982.346
24965.827
24919.384
24840.494
24738.246
24628.899
24526.438
24431.422
24339.388
24264.421
24214.128
24170.338
24167.422
24220.348
24392.698
24549.454
24550.168
24740.562
25363.445
25285.032
24771.24
24891.428
25476.101
25326.779
24367.569
23196.868
23088.447
23346.86
23858.733
24422.773
24898.002
25130.421
25202.799
25170.204
25076.197
25101.134
25116.655
24999.751
24871.344
24828.735
24839.395
24860.239
24816.11
24621.933
24396.616
24329.334
24407.241
24583.304
24796.888
24932.39
24969.172
24982.064
24974.611
24943.379
24927.492
24935.422
24957.192
24984.803
25011.409
25032.28
25046.198
25054.393
25058.492
25060.074
25060.786
25060.992
25061.025
25061.027
25061.027
25061.027
25061.027
25061.028
25061.027
25061.027
25061.027
25061.027
25061.027
25061.027
25061.027
25061.027
25061.027
25061.027
25061.027
25061.046
25061.592
25063.507
25064.168
25064.173
25064.662
2.8174251e+08
47131003
14989318
6608044.1
3527680.9
2146766.1
1446249.3
1056321.7
818430.19
659057.69
543924.68
456896.53
389506.25
336482.49
294170.08
259932.9
231838
208454.52
188711.34
171781.96
157011.54
143877.37
131951.73
120879.54
110375.55
100226.27
90303.889
80583.516
71152.009
62202.395
53996.811
46790.49
40777.55
36045.325
32555.262
30136.693
28491.743
27294.579
26330.89
25555.734
25190.304
25044.433
24984.168
24981.09
24979.298
24962.053
24914.336
24834.403
24731.784
24622.89
24520.992
24426.112
24334.102
24260.276
24211.169
24168.36
24166.169
24221.01
24397.883
24549.717
24549.263
24752.22
25380.331
25281.437
24757.459
24903.097
25494.186
25321.862
24331.588
23183.672
23093.369
23365.016
23885.639
24446.816
24918.703
25140.603
25206.303
25173.421
25077.19
25087.462
25036.495
24886.813
24791.338
24785.94
24814.054
24847.291
24812.592
24622.533
24397.976
24331.831
24411.524
24584.19
24792.397
24928.292
24967.506
24979.801
24970.362
24940.388
24926.146
24934.368
24956.499
24984.402
25011.214
25032.202
25046.16
25054.367
25058.485
25060.072
25060.784
25060.992
25061.025
25061.028
25061.027
25061.027
25061.027
25061.027
25061.027
25061.027
25061.027
25061.027
25061.027
25061.027
25061.027
25061.027
25061.027
25061.027
25061.028
25061.197
25062.271
25063.885
25064.193
25064.183
2.82056e+08
47184061
15007277
6617909.5
3535764.4
2154997.4
1454898
1064864.4
826183.87
665666.12
549430.65
461500.26
393412.75
339862.11
297151.89
262611.91
234281.95
210708.97
190802.78
173720.31
158793
145487.7
133370.5
122085.32
111351.56
100965.71
90814.062
80888.474
71294.286
62238.662
53967.296
46729.064
40708.595
35981.246
32498.991
30086.268
28447.191
27265.479
26325.53
25559.071
25192.284
25045.579
24983.893
24980.989
24979.206
24961.555
24913.124
24832.527
24729.587
24620.852
24519.253
24424.445
24332.492
24259.32
24211.009
24169.661
24169.011
24230.337
24411.455
24557.088
24552.678
24770.379
25404.737
25281.135
24749.496
24919.905
25515.737
25319.474
24299.253
23174.731
23101.98
23387.006
23911.446
24466.587
24930.563
25146.194
25203.042
25152.933
25037.836
25003.133
24936.29
24804.962
24740.581
24756.583
24795.106
24840.378
24812.41
24624.88
24398.891
24335.252
24415.797
24584.144
24787.236
24924.504
24966.03
24977.099
24965.927
24937.611
24924.836
24933.325
24955.821
24984.017
25011.041
25032.13
25046.119
25054.344
25058.48
25060.07
25060.783
25060.992
25061.025
25061.028
25061.028
25061.027
25061.027
25061.027
25061.027
25061.027
25061.027
25061.027
25061.027
25061.027
25061.027
25061.027
25061.027
25061.027
25061.05
25061.648
25062.977
25064.09
25064.198
25064.338
2.8239293e+08
47241835
15026501
6627924.8
3543398.3
2162387.6
1462504.2
1072351
833039.53
671616.84
554494.51
465849.77
397226.24
343273.29
300259.73
265484.32
236960.98
213215.06
193138.68
175874.67
160744.51
147209.95
134837.41
123276.85
112259.47
101598.02
91196.514
81072.826
71341.167
62194.41
53875.49
46624.397
40612.21
35902.585
32438.566
30040.833
28415.307
27249.15
26328.265
25569.611
25198.325
25051.426
24989.062
24986.378
24984.543
24965.921
24916.127
24834.567
24731.233
24622.687
24521.361
24426.442
24334.508
24262.767
24216.522
24177.432
24177.775
24242.476
24425.926
24567.323
24561.626
24790.619
25430.059
25284.8
24747.21
24937.749
25535.326
25319.145
24271.567
23167.489
23106.78
23398.517
23922.459
24472.58
24929.403
25127.729
25151.345
25065.365
24925.295
24898.804
24861.482
24759.566
24708.869
24734.824
24781.843
24839.157
24817.382
24626.808
24399.352
24339.36
24419.675
24582.753
24781.49
24921.112
24964.642