/*--------------------------------*- C++ -*----------------------------------*\
| =========                 |                                                 |
| \\      /  F ield         | OpenFOAM: The Open Source CFD Toolbox           |
|  \\    /   O peration     | Version:  2506                                  |
|   \\  /    A nd           | Website:  www.openfoam.com                      |
|    \\/     M anipulation  |                                                 |
\*---------------------------------------------------------------------------*/
FoamFile
{
    version     2.0;
    format      ascii;
    arch        "LSB;label=32;scalar=64";
    class       volScalarField;
    location    "0.001";
    object      p;
}
// * * * * * * * * * * * * * * * * * * * * * * * * * * * * * * * * * * * * * //

dimensions      [1 -1 -2 0 0 0 0];

internalField   nonuniform List<scalar> 
13761
(
44840.003
44839.845
44839.616
44839.334
44838.977
44838.503
44837.873
44837.072
44836.12
44835.067
44833.965
44832.857
44831.773
44830.739
44829.775
44828.902
44828.146
44827.538
44827.121
44826.954
44827.105
44827.656
44828.716
44830.414
44832.871
44836.149
44840.236
44845.087
44850.658
44856.895
44863.716
44871.021
44878.702
44886.649
44894.761
44902.96
44911.194
44919.418
44927.581
44935.628
44943.521
44951.261
44958.807
44965.84
44971.991
44976.982
44980.887
44983.464
44984.613
44984.377
44982.789
44979.945
44975.969
44971.012
44965.245
44958.815
44951.865
44944.428
44936.534
44928.234
44919.473
44910.194
44900.57
44890.474
44880.188
44869.517
44858.66
44847.7
44836.367
44824.952
44812.978
44800.959
44788.41
44775.93
44762.627
44749.262
44734.981
44720.256
44703.894
44686.033
44665.466
44644.245
44619.59
44594.717
44567.218
44528.196
44494.778
44414.036
44378.325
44320.687
44098.841
44114.664
44215.042
43933.29
44033.538
44299.15
43860.109
43889.207
44408.503
43543.524
41904.514
41161.591
41578.138
42791.258
44238.961
45464.182
46276.028
46710.366
46896.119
46953.867
46967.174
46969.593
46969.951
46969.995
46970
46970
46970
46970
46970
46970
46970
46970
46970
46970
46970
46970
46970
46970
46970
46970
46970
46970
46970
46970
46970
46970
46970
46970
44981.152
44981.177
44981.201
44981.225
44981.253
44981.286
44981.325
44981.372
44981.426
44981.486
44981.552
44981.624
44981.702
44981.787
44981.88
44981.982
44982.095
44982.218
44982.353
44982.5
44982.66
44982.832
44983.016
44983.21
44983.413
44983.619
44983.825
44984.022
44984.203
44984.356
44984.467
44984.517
44984.478
44984.315
44983.986
44983.46
44982.723
44981.78
44980.635
44979.29
44977.748
44976.037
44974.197
44972.205
44970.029
44967.659
44965.089
44962.331
44959.378
44956.225
44952.85
44949.219
44945.288
44940.997
44936.294
44931.116
44925.456
44919.247
44912.563
44905.351
44897.647
44889.433
44880.853
44871.722
44862.393
44852.456
44842.252
44831.698
44820.541
44809.294
44797.41
44785.429
44772.898
44760.404
44747.059
44733.81
44719.436
44704.633
44687.995
44669.883
44649.508
44627.766
44603.048
44578.452
44549.974
44512.228
44473.842
44396.523
44360.539
44297.108
44081.94
44096.941
44188.658
43917.034
44020.259
44278.219
43848.1
43887
44396.768
43506.407
41863.982
41125.214
41550.405
42777.69
44232.465
45459.694
46272.709
46708.483
46895.407
46953.682
46967.135
46969.586
46969.95
46969.995
46970
46970
46970
46970
46970
46970
46970
46970
46970
46970
46970
46970
46970
46970
46970
46970
46970
46970
46970
46970
46970
46970
46970
46970
44897.334
44897.291
44897.252
44897.211
44897.168
44897.121
44897.07
44897.016
44896.956
44896.892
44896.82
44896.743
44896.659
44896.57
44896.477
44896.382
44896.287
44896.194
44896.106
44896.023
44895.951
44895.891
44895.848
44895.826
44895.832
44895.87
44895.95
44896.077
44896.263
44896.515
44896.846
44897.265
44897.782
44898.402
44899.125
44899.948
44900.865
44901.876
44902.981
44904.173
44905.431
44906.768
44908.183
44909.628
44910.966
44912.114
44912.995
44913.549
44913.712
44913.429
44912.648
44911.327
44909.436
44906.955
44903.884
44900.209
44895.949
44891.037
44885.609
44879.568
44872.986
44865.83
44858.232
44849.995
44841.516
44832.238
44822.665
44812.57
44801.755
44790.834
44779.18
44767.343
44754.896
44742.437
44729.071
44715.911
44701.393
44686.535
44669.639
44651.365
44631.111
44608.809
44584.141
44559.69
44530.328
44493.027
44450.397
44376.515
44339.564
44270.717
44062.624
44075.683
44159.075
43898.873
44004.593
44254.589
43834.973
43884.443
44382.792
43463.039
41817.917
41083.452
41520.506
42763.248
44225.399
45454.84
46269.229
46706.552
46894.682
46953.5
46967.097
46969.58
46969.949
46969.995
46970
46970
46970
46970
46970
46970
46970
46970
46970
46970
46970
46970
46970
46970
46970
46970
46970
46970
46970
46970
46970
46970
46970
46970
44895.939
44895.925
44895.913
44895.9
44895.885
44895.869
44895.851
44895.832
44895.811
44895.789
44895.765
44895.739
44895.712
44895.684
44895.654
44895.623
44895.589
44895.553
44895.513
44895.471
44895.426
44895.376
44895.323
44895.265
44895.202
44895.134
44895.061
44894.982
44894.898
44894.809
44894.714
44894.611
44894.496
44894.356
44894.173
44893.924
44893.599
44893.197
44892.724
44892.184
44891.581
44890.927
44890.261
44889.603
44888.905
44888.129
44887.249
44886.244
44885.088
44883.755
44882.213
44880.424
44878.346
44875.934
44873.137
44869.903
44866.217
44861.99
44857.325
44852.081
44846.323
44840.017
44833.249
44825.827
44818.138
44809.524
44800.593
44790.985
44780.589
44770.006
44758.633
44746.988
44734.69
44722.339
44709.039
44696.023
44681.435
44666.579
44649.471
44631.085
44610.884
44588.095
44563.6
44539.058
44508.834
44471.463
44425.774
44354.646
44316.15
44242.621
44041.677
44051.712
44127.467
43879.652
43986.961
44229.312
43821.583
43881.537
44366.983
43414.628
41767.828
41037.83
41489.967
42748.96
44218.342
45449.895
46265.707
46704.619
46893.958
46953.324
46967.062
46969.574
46969.949
46969.995
46970
46970
46970
46970
46970
46970
46970
46970
46970
46970
46970
46970
46970
46970
46970
46970
46970
46970
46970
46970
46970
46970
46970
44860.087
44860.061
44860.041
44860.019
44859.994
44859.967
44859.939
44859.908
44859.874
44859.838
44859.8
44859.758
44859.713
44859.666
44859.615
44859.562
44859.505
44859.444
44859.38
44859.313
44859.241
44859.166
44859.086
44859.003
44858.916
44858.825
44858.732
44858.636
44858.539
44858.441
44858.346
44858.253
44858.162
44858.069
44857.962
44857.832
44857.669
44857.477
44857.257
44857.008
44856.725
44856.409
44856.07
44855.704
44855.278
44854.76
44854.126
44853.356
44852.426
44851.313
44849.99
44848.43
44846.601
44844.47
44841.999
44839.15
44835.897
44832.161
44828.033
44823.385
44818.252
44812.615
44806.501
44799.759
44792.716
44784.702
44776.345
44767.194
44757.291
44747.046
44736.014
44724.614
44712.534
44700.35
44687.188
44674.348
44659.765
44644.953
44627.709
44609.235
44589.032
44565.845
44541.588
44516.709
44485.702
44447.914
44400.304
44330.951
44290.58
44213.209
44019.329
44025.367
44094.169
43859.664
43967.586
44202.635
43808.263
43878.247
44349.217
43361.768
41714.2
40989.043
41459.328
42734.917
44211.238
45444.827
46262.145
46702.685
46893.241
46953.154
46967.03
46969.569
46969.948
46969.995
46970
46970
46970
46970
46970
46970
46970
46970
46970
46970
46970
46970
46970
46970
46970
46970
46970
46970
46970
46970
46970
46970
46970
44833.606
44833.584
44833.567
44833.548
44833.526
44833.503
44833.478
44833.451
44833.422
44833.39
44833.356
44833.319
44833.28
44833.239
44833.194
44833.147
44833.095
44833.04
44832.98
44832.915
44832.844
44832.766
44832.682
44832.591
44832.491
44832.383
44832.265
44832.138
44832.001
44831.854
44831.697
44831.529
44831.348
44831.144
44830.904
44830.614
44830.263
44829.853
44829.385
44828.859
44828.273
44827.633
44826.957
44826.249
44825.489
44824.655
44823.731
44822.702
44821.553
44820.264
44818.814
44817.179
44815.327
44813.231
44810.851
44808.162
44805.124
44801.682
44797.891
44793.651
44788.958
44783.823
44778.199
44772.016
44765.473
44757.995
44750.129
44741.394
44732.021
44722.094
44711.435
44700.317
44688.511
44676.545
44663.598
44650.976
44636.49
44621.762
44604.461
44585.899
44565.666
44542.151
44518.144
44492.76
44461.12
44422.718
44373.884
44305.393
44263.056
44182.672
43995.597
43996.737
44059.481
43839.017
43946.679
44174.692
43795.145
43874.628
44329.131
43304.774
41657.002
40937.695
41428.968
42721.19
44204.075
45439.641
46258.56
46700.76
46892.537
46952.99
46967
46969.565
46969.947
46969.995
46970
46970
46970
46970
46970
46970
46970
46970
46970
46970
46970
46970
46970
46970
46970
46970
46970
46970
46970
46970
46970
46970
46970
44801.556
44801.533
44801.515
44801.494
44801.471
44801.446
44801.42
44801.391
44801.36
44801.326
44801.29
44801.251
44801.209
44801.165
44801.117
44801.066
44801.011
44800.952
44800.887
44800.817
44800.741
44800.659
44800.57
44800.472
44800.367
44800.253
44800.129
44799.995
44799.852
44799.698
44799.534
44799.359
44799.17
44798.961
44798.717
44798.426
44798.08
44797.68
44797.227
44796.719
44796.153
44795.533
44794.869
44794.165
44793.4
44792.557
44791.622
44790.582
44789.425
44788.134
44786.692
44785.078
44783.268
44781.24
44778.957
44776.404
44773.53
44770.317
44766.767
44762.832
44758.466
44753.716
44748.466
44742.743
44736.558
44729.557
44722.104
44713.763
44704.88
44695.277
44685.008
44674.198
44662.715
44651.013
44638.349
44625.982
44611.685
44597.072
44579.814
44561.139
44540.857
44517.09
44493.253
44467.288
44435.16
44396.052
44346.332
44278.006
44233.868
44151.12
43970.371
43965.906
44023.723
43817.701
43924.532
44145.688
43782.15
43870.845
44306.19
43243.898
41596.014
40884.444
41399.181
42707.82
44196.849
45434.353
46254.973
46698.853
46891.849
46952.833
46966.972
46969.561
46969.947
46969.995
46970
46970
46970
46970
46970
46970
46970
46970
46970
46970
46970
46970
46970
46970
46970
46970
46970
46970
46970
46970
46970
46970
44768.954
44768.931
44768.913
44768.892
44768.869
44768.845
44768.818
44768.789
44768.758
44768.725
44768.689
44768.65
44768.609
44768.565
44768.517
44768.466
44768.411
44768.351
44768.287
44768.217
44768.14
44768.057
44767.966
44767.868
44767.76
44767.644
44767.517
44767.38
44767.231
44767.072
44766.901
44766.718
44766.519
44766.297
44766.039
44765.731
44765.366
44764.945
44764.469
44763.937
44763.344
44762.697
44762.006
44761.275
44760.483
44759.615
44758.659
44757.603
44756.435
44755.143
44753.709
44752.116
44750.342
44748.369
44746.163
44743.715
44740.966
44737.934
44734.568
44730.868
44726.755
44722.303
44717.346
44711.993
44706.086
44699.495
44692.4
44684.427
44675.986
44666.711
44656.839
44646.359
44635.241
44623.84
44611.518
44599.432
44585.393
44570.906
44553.821
44535.014
44514.654
44490.665
44466.941
44440.369
44407.8
44367.939
44317.495
44248.903
44203.358
44118.601
43943.453
43933.026
43987.195
43795.614
43901.582
44115.781
43769.105
43867.129
44279.773
43179.333
41530.964
40829.981
41370.196
42694.832
44189.566
45428.992
46251.408
46696.976
46891.181
46952.684
46966.947
46969.558
46969.947
46969.995
46970
46970
46970
46970
46970
46970
46970
46970
46970
46970
46970
46970
46970
46970
46970
46970
46970
46970
46970
46970
46970
46970
44734.662
44734.638
44734.62
44734.599
44734.576
44734.552
44734.525
44734.496
44734.464
44734.43
44734.394
44734.355
44734.314
44734.269
44734.221
44734.17
44734.114
44734.053
44733.988
44733.917
44733.84
44733.756
44733.664
44733.565
44733.457
44733.339
44733.212
44733.073
44732.924
44732.764
44732.592
44732.408
44732.208
44731.985
44731.726
44731.419
44731.056
44730.64
44730.171
44729.647
44729.064
44728.43
44727.753
44727.035
44726.256
44725.401
44724.46
44723.422
44722.276
44721.01
44719.608
44718.056
44716.333
44714.423
44712.294
44709.943
44707.304
44704.419
44701.204
44697.694
44693.786
44689.576
44684.862
44679.81
44674.151
44667.911
44661.135
44653.497
44645.459
44636.514
44627.042
44616.908
44606.194
44595.126
44583.197
44571.401
44557.658
44543.265
44526.464
44507.525
44487.128
44462.927
44439.247
44412.033
44378.992
44338.353
44287.221
44218.243
44171.828
44085.178
43914.553
43898.329
43950.122
43772.62
43878.219
44085.104
43755.911
43863.678
44249.293
43111.215
41461.651
40774.992
41342.162
42682.213
44182.221
45423.577
46247.882
46695.137
46890.535
46952.543
46966.924
46969.555
46969.946
46969.995
46970
46970
46970
46970
46970
46970
46970
46970
46970
46970
46970
46970
46970
46970
46970
46970
46970
46970
46970
46970
46970
46970
44699.199
44699.175
44699.158
44699.136
44699.113
44699.089
44699.062
44699.033
44699.001
44698.967
44698.931
44698.892
44698.85
44698.805
44698.757
44698.705
44698.649
44698.588
44698.522
44698.451
44698.373
44698.289
44698.197
44698.097
44697.988
44697.87
44697.741
44697.603
44697.453
44697.292
44697.119
44696.934
44696.733
44696.508
44696.248
44695.941
44695.58
44695.167
44694.704
44694.187
44693.612
44692.989
44692.326
44691.623
44690.86
44690.023
44689.102
44688.088
44686.971
44685.737
44684.373
44682.865
44681.194
44679.346
44677.291
44675.027
44672.488
44669.728
44666.647
44663.298
44659.567
44655.561
44651.057
44646.261
44640.829
44634.898
44628.415
44621.085
44613.42
44604.807
44595.739
44585.966
44575.685
44564.973
44553.473
44541.961
44528.529
44514.191
44497.691
44478.614
44458.251
44433.908
44410.18
44382.304
44348.79
44307.295
44255.373
44186.221
44139.432
44050.797
43883.4
43862.095
43912.601
43748.63
43854.669
44053.842
43742.564
43860.598
44214.265
43039.554
41388.05
40720.107
41315.166
42669.92
44174.797
45418.121
46244.404
46693.342
46889.912
46952.41
46966.903
46969.552
46969.946
46969.995
46970
46970
46970
46970
46970
46970
46970
46970
46970
46970
46970
46970
46970
46970
46970
46970
46970
46970
46970
46970
46970
44662.528
44662.504
44662.487
44662.465
44662.443
44662.418
44662.391
44662.362
44662.33
44662.297
44662.26
44662.221
44662.179
44662.134
44662.086
44662.034
44661.978
44661.917
44661.85
44661.779
44661.701
44661.616
44661.524
44661.424
44661.315
44661.197
44661.069
44660.931
44660.782
44660.622
44660.45
44660.265
44660.065
44659.842
44659.583
44659.279
44658.924
44658.519
44658.066
44657.561
44657
44656.394
44655.749
44655.065
44654.322
44653.506
44652.609
44651.621
44650.533
44649.333
44648.009
44646.545
44644.926
44643.137
44641.151
44638.966
44636.522
44633.875
44630.917
44627.714
44624.142
44620.317
44616.005
44611.435
44606.215
44600.559
44594.346
44587.312
44579.994
44571.715
44563.049
44553.651
44543.827
44533.476
44522.426
44511.173
44498.048
44483.727
44467.483
44448.256
44427.973
44403.572
44379.738
44351.264
44317.291
44274.715
44221.928
44153.061
44106.161
44015.243
43849.763
43824.603
43874.686
43723.625
43831.026
44022.201
43729.11
43857.883
44174.329
42964.164
41310.374
40665.882
41289.26
42657.906
44167.286
45412.642
46240.979
46691.595
46889.312
46952.285
46966.884
46969.55
46969.946
46969.995
46970
46970
46970
46970
46970
46970
46970
46970
46970
46970
46970
46970
46970
46970
46970
46970
46970
46970
46970
46970
46970
44625.009
44624.985
44624.967
44624.946
44624.923
44624.898
44624.871
44624.842
44624.811
44624.777
44624.74
44624.701
44624.658
44624.613
44624.564
44624.511
44624.454
44624.392
44624.324
44624.251
44624.172
44624.085
44623.991
44623.889
44623.778
44623.658
44623.527
44623.386
44623.233
44623.069
44622.892
44622.703
44622.497
44622.268
44622.004
44621.695
44621.337
44620.93
44620.475
44619.969
44619.41
44618.806
44618.166
44617.488
44616.752
44615.946
44615.063
44614.093
44613.027
44611.855
44610.564
44609.141
44607.571
44605.839
44603.922
44601.817
44599.465
44596.925
44594.088
44591.021
44587.6
44583.943
44579.809
44575.443
44570.424
44565.017
44559.057
44552.303
44545.309
44537.364
44529.097
44520.079
44510.717
44500.717
44490.121
44479.07
44466.238
44451.885
44435.832
44416.455
44396.296
44371.949
44348.021
44319
44284.403
44240.529
44187.069
44118.974
44071.898
43978.277
43813.509
43786.015
43836.487
43697.635
43807.273
43990.362
43715.634
43855.391
44129.234
42884.617
41229.125
40612.786
41264.473
42646.135
44159.698
45407.165
46237.618
46689.904
46888.737
46952.166
46966.866
46969.548
46969.946
46969.995
46970
46970
46970
46970
46970
46970
46970
46970
46970
46970
46970
46970
46970
46970
46970
46970
46970
46970
46970
46970
46970
44586.238
44586.214
44586.196
44586.175
44586.152
44586.127
44586.1
44586.071
44586.039
44586.005
44585.968
44585.929
44585.886
44585.84
44585.791
44585.738
44585.68
44585.617
44585.55
44585.476
44585.396
44585.309
44585.215
44585.112
44585.001
44584.88
44584.749
44584.607
44584.454
44584.29
44584.114
44583.925
44583.719
44583.491
44583.228
44582.922
44582.568
44582.168
44581.721
44581.226
44580.679
44580.09
44579.468
44578.809
44578.094
44577.312
44576.455
44575.515
44574.483
44573.349
44572.102
44570.729
44569.216
44567.548
44565.706
44563.684
44561.429
44558.994
44556.277
44553.338
44550.06
44546.555
44542.583
44538.399
44533.565
44528.382
44522.661
44516.174
44509.489
44501.88
44494.003
44485.361
44476.446
44466.767
44456.609
44445.672
44433.104
44418.663
44402.725
44383.207
44363.213
44339.04
44315.081
44285.511
44249.993
44204.81
44151.068
44084.041
44036.477
43939.736
43774.684
43746.363
43798.216
43670.814
43783.192
43958.474
43702.274
43852.825
44078.799
42800.241
41145.071
40561.194
41240.824
42634.591
44152.066
45401.727
46234.334
46688.274
46888.187
46952.055
46966.85
46969.546
46969.946
46969.995
46970
46970
46970
46970
46970
46970
46970
46970
46970
46970
46970
46970
46970
46970
46970
46970
46970
46970
46970
46970
46970
44546.586
44546.562
44546.544
44546.523
44546.5
44546.475
44546.449
44546.419
44546.388
44546.354
44546.317
44546.278
44546.236
44546.19
44546.141
44546.088
44546.03
44545.968
44545.901
44545.828
44545.748
44545.662
44545.568
44545.467
44545.357
44545.237
44545.108
44544.968
44544.818
44544.656
44544.482
44544.296
44544.094
44543.869
44543.612
44543.312
44542.966
44542.575
44542.14
44541.659
44541.127
44540.556
44539.955
44539.319
44538.628
44537.873
44537.045
44536.137
44535.141
44534.047
44532.844
44531.52
44530.062
44528.456
44526.683
44524.736
44522.569
44520.225
44517.612
44514.784
44511.628
44508.251
44504.419
44500.391
44495.723
44490.745
44485.245
44479.017
44472.626
44465.357
44457.859
44449.586
44441.083
44431.69
44421.924
44411
44398.649
44384.073
44368.178
44348.537
44328.723
44304.8
44280.835
44250.704
44214.084
44167.775
44114.105
44048.175
43999.688
43899.513
43733.503
43705.684
43760.181
43643.467
43758.337
43926.672
43689.254
43849.702
44022.867
42710.267
41059.207
40511.397
41218.307
42623.264
44144.431
45396.369
46231.144
46686.712
46887.664
46951.951
46966.835
46969.545
46969.945
46969.995
46970
46970
46970
46970
46970
46970
46970
46970
46970
46970
46970
46970
46970
46970
46970
46970
46970
46970
46970
46970
44506.365
44506.342
44506.324
44506.303
44506.28
44506.256
44506.229
44506.2
44506.169
44506.135
44506.099
44506.06
44506.018
44505.973
44505.924
44505.872
44505.815
44505.754
44505.687
44505.615
44505.537
44505.452
44505.359
44505.259
44505.151
44505.033
44504.906
44504.769
44504.621
44504.462
44504.292
44504.11
44503.911
44503.691
44503.438
44503.145
44502.807
44502.427
44502.004
44501.535
44501.019
44500.466
44499.884
44499.268
44498.599
44497.867
44497.065
44496.185
44495.219
44494.158
44492.991
44491.706
44490.292
44488.732
44487.013
44485.119
44483.017
44480.736
44478.199
44475.445
44472.378
44469.09
44465.364
44461.455
44456.926
44452.13
44446.833
44440.862
44434.755
44427.839
44420.714
44412.808
44404.685
44395.547
44386.086
44375.12
44362.881
44348.121
44332.215
44312.499
44292.875
44269.242
44245.22
44214.505
44176.779
44129.588
44076.194
44011.178
43961.271
43857.546
43690.305
43664.105
43722.692
43615.946
43732.195
43895.069
43676.899
43845.365
43961.221
42614.027
40972.637
40463.597
41196.876
42612.132
44136.823
45391.114
46228.058
46685.219
46887.167
46951.854
46966.822
46969.543
46969.945
46969.995
46970
46970
46970
46970
46970
46970
46970
46970
46970
46970
46970
46970
46970
46970
46970
46970
46970
46970
46970
46970
44465.79
44465.767
44465.749
44465.728
44465.706
44465.682
44465.655
44465.627
44465.596
44465.563
44465.527
44465.489
44465.448
44465.403
44465.355
44465.304
44465.248
44465.187
44465.121
44465.05
44464.973
44464.89
44464.799
44464.701
44464.594
44464.479
44464.354
44464.219
44464.074
44463.918
44463.751
44463.572
44463.378
44463.161
44462.913
44462.626
44462.295
44461.924
44461.511
44461.054
44460.55
44460.01
44459.443
44458.843
44458.19
44457.474
44456.69
44455.828
44454.881
44453.839
44452.692
44451.427
44450.035
44448.495
44446.799
44444.925
44442.853
44440.59
44438.083
44435.354
44432.325
44429.073
44425.405
44421.569
44417.143
44412.5
44407.38
44401.679
44395.846
44389.3
44382.552
44375.021
44367.261
44358.367
44349.139
44338.095
44325.848
44310.847
44294.875
44275.147
44255.742
44232.441
44208.276
44176.93
44138.163
44090.281
44037.192
43972.788
43920.953
43813.845
43645.484
43621.819
43685.981
43588.527
43704.429
43863.722
43665.6
43839.05
43893.458
42511.152
40886.443
40417.924
41176.464
42601.175
44129.266
45385.98
46225.081
46683.794
46886.695
46951.762
46966.81
46969.542
46969.945
46969.994
46970
46970
46970
46970
46970
46970
46970
46970
46970
46970
46970
46970
46970
46970
46970
46970
46970
46970
46970
46970
44425.022
44424.999
44424.982
44424.962
44424.94
44424.916
44424.89
44424.862
44424.832
44424.799
44424.764
44424.726
44424.685
44424.642
44424.595
44424.544
44424.488
44424.429
44424.364
44424.294
44424.218
44424.136
44424.046
44423.95
44423.845
44423.731
44423.608
44423.475
44423.332
44423.178
44423.013
44422.836
44422.644
44422.429
44422.184
44421.9
44421.575
44421.208
44420.802
44420.351
44419.854
44419.322
44418.762
44418.168
44417.52
44416.809
44416.028
44415.168
44414.221
44413.176
44412.025
44410.752
44409.348
44407.792
44406.078
44404.176
44402.083
44399.785
44397.248
44394.483
44391.429
44388.151
44384.485
44380.668
44376.307
44371.782
44366.812
44361.398
44355.829
44349.662
44343.299
44336.159
44328.764
44320.128
44311.099
44299.966
44287.616
44272.322
44256.222
44236.533
44217.37
44194.45
44170.072
44138.076
44098.34
44049.795
43996.855
43932.727
43878.488
43768.522
43599.436
43579.018
43650.181
43561.375
43674.953
43832.627
43655.733
43829.987
43818.893
42401.772
40801.603
40374.431
41156.993
42590.384
44121.791
45380.982
46222.217
46682.434
46886.246
46951.676
46966.798
46969.541
46969.945
46969.994
46970
46970
46970
46970
46970
46970
46970
46970
46970
46970
46970
46970
46970
46970
46970
46970
46970
46970
46970
44384.139
44384.117
44384.1
44384.079
44384.058
44384.034
44384.009
44383.981
44383.951
44383.919
44383.884
44383.847
44383.807
44383.764
44383.717
44383.666
44383.612
44383.553
44383.488
44383.419
44383.344
44383.262
44383.173
44383.077
44382.972
44382.859
44382.736
44382.604
44382.461
44382.307
44382.142
44381.965
44381.771
44381.556
44381.309
44381.025
44380.699
44380.332
44379.925
44379.473
44378.975
44378.438
44377.873
44377.271
44376.612
44375.887
44375.088
44374.207
44373.233
44372.157
44370.968
44369.651
44368.195
44366.579
44364.797
44362.819
44360.646
44358.255
44355.628
44352.764
44349.626
44346.263
44342.547
44338.697
44334.363
44329.917
44325.078
44319.93
44314.62
44308.827
44302.855
44296.125
44289.115
44280.778
44271.952
44260.754
44248.249
44232.638
44216.348
44196.714
44177.766
44155.244
44130.616
44098.022
44057.383
44008.029
43954.952
43890.765
43833.66
43721.787
43552.562
43535.859
43615.343
43534.56
43643.802
43801.789
43647.6
43817.431
43736.494
42286.638
40718.956
40333.085
41138.386
42579.764
44114.43
45376.132
46219.47
46681.137
46885.818
46951.594
46966.788
46969.54
46969.945
46969.994
46970
46970
46970
46970
46970
46970
46970
46970
46970
46970
46970
46970
46970
46970
46970
46970
46970
46970
46970
44343.094
44343.071
44343.054
44343.034
44343.012
44342.989
44342.963
44342.936
44342.906
44342.874
44342.839
44342.801
44342.761
44342.717
44342.67
44342.619
44342.563
44342.503
44342.438
44342.367
44342.29
44342.207
44342.116
44342.017
44341.91
44341.793
44341.666
44341.529
44341.381
44341.222
44341.05
44340.864
44340.661
44340.436
44340.178
44339.882
44339.543
44339.163
44338.74
44338.271
44337.752
44337.193
44336.602
44335.971
44335.279
44334.518
44333.678
44332.751
44331.726
44330.593
44329.338
44327.948
44326.41
44324.702
44322.818
44320.726
44318.435
44315.911
44313.151
44310.148
44306.883
44303.391
44299.584
44295.658
44291.314
44286.904
44282.168
44277.237
44272.168
44266.726
44261.14
44254.835
44248.24
44240.258
44231.668
44220.465
44207.806
44191.893
44175.374
44155.79
44136.955
44114.764
44089.813
44056.679
44015.218
43964.886
43911.379
43846.698
43786.312
43673.929
43505.299
43492.501
43581.474
43508.004
43610.913
43771.405
43641.394
43800.614
43644.931
42167.055
40639.173
40293.791
41120.581
42569.343
44107.228
45371.447
46216.846
46679.903
46885.412
46951.517
46966.778
46969.539
46969.945
46969.995
46970
46970
46970
46970
46970
46970
46970
46970
46970
46970
46970
46970
46970
46970
46970
46970
46970
46970
46970
44301.004
44300.981
44300.964
44300.944
44300.922
44300.898
44300.872
44300.845
44300.815
44300.782
44300.747
44300.709
44300.668
44300.624
44300.576
44300.525
44300.469
44300.408
44300.342
44300.27
44300.193
44300.108
44300.016
44299.916
44299.808
44299.69
44299.562
44299.423
44299.274
44299.112
44298.937
44298.749
44298.543
44298.313
44298.051
44297.75
44297.406
44297.02
44296.591
44296.114
44295.587
44295.016
44294.411
44293.763
44293.05
44292.263
44291.392
44290.428
44289.359
44288.173
44286.858
44285.397
44283.778
44281.978
44279.991
44277.783
44275.368
44272.707
44269.806
44266.652
44263.245
44259.606
44255.687
44251.65
44247.261
44242.84
44238.16
44233.385
44228.51
44223.37
44218.139
44212.255
44206.091
44198.515
44190.207
44179.079
44166.314
44150.157
44133.401
44113.864
44094.99
44072.976
44047.527
44013.842
43971.661
43920.268
43866.077
43800.303
43736.45
43625.311
43458.073
43449.119
43548.646
43481.407
43575.965
43742.031
43637.186
43778.606
43542.828
42044.643
40562.699
40256.482
41103.55
42559.175
44100.241
45366.955
46214.352
46678.733
46885.025
46951.444
46966.768
46969.538
46969.945
46969.995
46970
46970
46970
46970
46970
46970
46970
46970
46970
46970
46970
46970
46970
46970
46970
46970
46970
46970
44257.985
44257.962
44257.944
44257.924
44257.902
44257.878
44257.852
44257.824
44257.794
44257.761
44257.725
44257.687
44257.646
44257.601
44257.553
44257.501
44257.444
44257.383
44257.316
44257.244
44257.166
44257.08
44256.987
44256.886
44256.777
44256.657
44256.528
44256.387
44256.235
44256.071
44255.894
44255.702
44255.492
44255.257
44254.991
44254.684
44254.334
44253.941
44253.504
44253.018
44252.479
44251.895
44251.275
44250.608
44249.874
44249.061
44248.16
44247.16
44246.05
44244.817
44243.447
44241.923
44240.232
44238.351
44236.273
44233.964
44231.441
44228.659
44225.634
44222.347
44218.812
44215.04
44211.011
44206.854
44202.402
44197.933
44193.258
44188.563
44183.809
44178.89
44173.946
44168.432
44162.674
44155.516
44147.522
44136.55
44123.751
44107.431
44090.465
44070.977
44051.906
44029.859
44003.678
43969.357
43926.547
43874.006
43818.865
43751.383
43684.331
43576.36
43411.215
43405.842
43517.078
43454.297
43538.472
43714.522
43634.89
43750.137
43429.203
41921.104
40489.682
40221.247
41087.282
42549.312
44093.516
45362.675
46211.992
46677.625
46884.658
46951.374
46966.759
46969.537
46969.945
46969.995
46970
46970
46970
46970
46970
46970
46970
46970
46970
46970
46970
46970
46970
46970
46970
46970
46970
46970
44213.783
44213.76
44213.742
44213.722
44213.699
44213.675
44213.649
44213.621
44213.59
44213.557
44213.521
44213.482
44213.44
44213.395
44213.346
44213.293
44213.236
44213.174
44213.107
44213.033
44212.954
44212.867
44212.774
44212.671
44212.56
44212.44
44212.309
44212.166
44212.012
44211.846
44211.666
44211.471
44211.258
44211.02
44210.749
44210.438
44210.084
44209.686
44209.244
44208.752
44208.206
44207.614
44206.984
44206.306
44205.557
44204.728
44203.807
44202.785
44201.649
44200.385
44198.98
44197.416
44195.68
44193.747
44191.612
44189.24
44186.648
44183.791
44180.687
44177.314
44173.694
44169.828
44165.721
44161.467
44156.953
44152.423
44147.717
44143.042
44138.334
44133.54
44128.777
44123.531
44118.088
44111.287
44103.574
44092.791
44080.014
44063.613
44046.49
44027.058
44007.688
43985.394
43958.252
43923.168
43879.73
43825.818
43769.408
43699.882
43630.459
43527.519
43364.923
43362.723
43487.097
43426.151
43498.236
43689.665
43634.209
43713.413
43303.869
41798.007
40420.023
40188.321
41071.765
42539.79
44087.075
45358.612
46209.762
46676.577
46884.309
46951.308
46966.751
46969.537
46969.945
46969.995
46970
46970
46970
46970
46970
46970
46970
46970
46970
46970
46970
46970
46970
46970
46970
46970
46970
46970
44168.344
44168.321
44168.303
44168.282
44168.26
44168.235
44168.208
44168.18
44168.148
44168.115
44168.078
44168.039
44167.997
44167.951
44167.902
44167.849
44167.791
44167.728
44167.66
44167.586
44167.506
44167.419
44167.324
44167.221
44167.109
44166.987
44166.855
44166.712
44166.556
44166.388
44166.207
44166.01
44165.795
44165.554
44165.281
44164.968
44164.612
44164.212
44163.768
44163.275
44162.727
44162.132
44161.499
44160.816
44160.062
44159.227
44158.3
44157.27
44156.125
44154.852
44153.436
44151.859
44150.109
44148.162
44146.01
44143.62
44141.008
44138.127
44135
44131.599
44127.951
44124.048
44119.911
44115.605
44111.058
44106.48
44101.737
44097.045
44092.328
44087.57
44082.874
44077.76
44072.486
44065.908
44058.365
44047.716
44034.947
44018.505
44001.266
43981.898
43962.187
43939.515
43911.266
43875.263
43831.036
43775.387
43717.39
43645.971
43575.519
43479.22
43319.283
43319.804
43458.972
43396.478
43455.603
43667.978
43634.588
43666.027
43167.655
41676.601
40354.369
40157.222
41056.991
42530.644
44080.934
45354.764
46207.655
46675.582
46883.975
46951.244
46966.743
46969.536
46969.945
46969.995
46970
46970
46970
46970
46970
46970
46970
46970
46970
46970
46970
46970
46970
46970
46970
46970
46970
44121.737
44121.713
44121.695
44121.674
44121.651
44121.627
44121.6
44121.571
44121.539
44121.505
44121.469
44121.429
44121.387
44121.341
44121.291
44121.237
44121.179
44121.116
44121.048
44120.973
44120.893
44120.805
44120.71
44120.606
44120.494
44120.372
44120.239
44120.095
44119.939