/*--------------------------------*- C++ -*----------------------------------*\
| =========                 |                                                 |
| \\      /  F ield         | OpenFOAM: The Open Source CFD Toolbox           |
|  \\    /   O peration     | Version:  2506                                  |
|   \\  /    A nd           | Website:  www.openfoam.com                      |
|    \\/     M anipulation  |                                                 |
\*---------------------------------------------------------------------------*/
FoamFile
{
    version     2.0;
    format      ascii;
    arch        "LSB;label=32;scalar=64";
    class       volScalarField;
    location    "0.0035";
    object      nut;
}
// * * * * * * * * * * * * * * * * * * * * * * * * * * * * * * * * * * * * * //

dimensions      [0 2 -1 0 0 0 0];

internalField   nonuniform List<scalar> 
13761
(
3.7764394e-06
3.7764385e-06
3.7764385e-06
3.7764385e-06
3.7764385e-06
3.7764385e-06
3.7764386e-06
3.7764407e-06
3.7764424e-06
3.7766543e-06
3.802695e-06
3.7764391e-06
3.7764385e-06
3.7764385e-06
3.7764385e-06
3.7764385e-06
3.7764385e-06
3.7764386e-06
3.7764409e-06
3.7764441e-06
3.7766621e-06
3.8026584e-06
3.7764388e-06
3.7764385e-06
3.7764385e-06
3.7764385e-06
3.7764385e-06
3.7764385e-06
3.7764386e-06
3.7764411e-06
3.7764466e-06
3.776673e-06
3.8026725e-06
3.7764398e-06
3.7764385e-06
3.7764385e-06
3.7764385e-06
3.7764385e-06
3.7764385e-06
3.7764386e-06
3.7764386e-06
3.7764415e-06
3.7764506e-06
3.7766875e-06
3.8026845e-06
3.7764394e-06
3.7764385e-06
3.7764385e-06
3.7764385e-06
3.7764385e-06
3.7764385e-06
3.7764386e-06
3.7764386e-06
3.7764422e-06
3.7764564e-06
3.7767057e-06
3.8027028e-06
3.776439e-06
3.7764385e-06
3.7764385e-06
3.7764385e-06
3.7764385e-06
3.7764385e-06
3.7764386e-06
3.7764387e-06
3.7764433e-06
3.7764646e-06
3.7767274e-06
3.8027204e-06
3.7764401e-06
3.7764386e-06
3.7764385e-06
3.7764385e-06
3.7764385e-06
3.7764385e-06
3.7764385e-06
3.7764386e-06
3.7764389e-06
3.776445e-06
3.7764758e-06
3.7767521e-06
3.8027292e-06
3.7764396e-06
3.7764386e-06
3.7764385e-06
3.7764385e-06
3.7764385e-06
3.7764385e-06
3.7764385e-06
3.7764386e-06
3.7764391e-06
3.7764478e-06
3.7764903e-06
3.7767783e-06
3.8027385e-06
3.7764391e-06
3.7764386e-06
3.7764385e-06
3.7764385e-06
3.7764385e-06
3.7764385e-06
3.7764385e-06
3.7764387e-06
3.7764395e-06
3.7764519e-06
3.7765085e-06
3.7768044e-06
3.8027369e-06
3.7764411e-06
3.7764386e-06
3.7764386e-06
3.7764385e-06
3.7764385e-06
3.7764385e-06
3.7764385e-06
3.7764385e-06
3.7764387e-06
3.7764403e-06
3.7764579e-06
3.77653e-06
3.7768284e-06
3.8027351e-06
3.7764406e-06
3.7764386e-06
3.7764386e-06
3.7764385e-06
3.7764385e-06
3.7764385e-06
3.7764385e-06
3.7764385e-06
3.7764389e-06
3.7764414e-06
3.7764663e-06
3.7765541e-06
3.7768486e-06
3.8027228e-06
3.7764399e-06
3.7764386e-06
3.7764386e-06
3.7764385e-06
3.7764385e-06
3.7764385e-06
3.7764385e-06
3.7764386e-06
3.7764392e-06
3.7764433e-06
3.7764775e-06
3.7765797e-06
3.7768637e-06
3.8027103e-06
3.7764392e-06
3.7764386e-06
3.7764386e-06
3.7764385e-06
3.7764385e-06
3.7764385e-06
3.7764385e-06
3.7764386e-06
3.7764396e-06
3.7764461e-06
3.7764921e-06
3.776605e-06
3.7768733e-06
3.8026923e-06
3.776441e-06
3.7764386e-06
3.7764386e-06
3.7764386e-06
3.7764385e-06
3.7764385e-06
3.7764385e-06
3.7764385e-06
3.7764386e-06
3.7764404e-06
3.7764503e-06
3.77651e-06
3.7766285e-06
3.7768775e-06
3.8026622e-06
3.7764402e-06
3.7764386e-06
3.7764386e-06
3.7764386e-06
3.7764385e-06
3.7764385e-06
3.7764385e-06
3.7764386e-06
3.7764387e-06
3.7764416e-06
3.7764564e-06
3.7765311e-06
3.7766483e-06
3.7768768e-06
3.8026324e-06
3.7764394e-06
3.7764386e-06
3.7764386e-06
3.7764386e-06
3.7764385e-06
3.7764385e-06
3.7764385e-06
3.7764386e-06
3.7764389e-06
3.7764435e-06
3.7764647e-06
3.7765548e-06
3.7766634e-06
3.7768715e-06
3.802598e-06
3.7764415e-06
3.7764386e-06
3.7764386e-06
3.7764386e-06
3.7764386e-06
3.7764385e-06
3.7764385e-06
3.7764385e-06
3.7764386e-06
3.7764392e-06
3.7764464e-06
3.7764759e-06
3.7765798e-06
3.7766732e-06
3.7768609e-06
3.8025795e-06
3.7764405e-06
3.7764386e-06
3.7764386e-06
3.7764386e-06
3.7764386e-06
3.7764385e-06
3.7764385e-06
3.7764385e-06
3.7764387e-06
3.7764396e-06
3.7764507e-06
3.7764902e-06
3.7766048e-06
3.7766781e-06
3.7768442e-06
3.8025802e-06
3.7764395e-06
3.7764386e-06
3.7764386e-06
3.7764386e-06
3.7764386e-06
3.7764385e-06
3.7764385e-06
3.7764385e-06
3.7764387e-06
3.7764404e-06
3.7764567e-06
3.7765078e-06
3.776628e-06
3.7766784e-06
3.7768213e-06
3.8025917e-06
3.776442e-06
3.7764386e-06
3.7764386e-06
3.7764386e-06
3.7764386e-06
3.7764386e-06
3.7764385e-06
3.7764385e-06
3.7764386e-06
3.7764389e-06
3.7764416e-06
3.776465e-06
3.7765284e-06
3.7766478e-06
3.7766747e-06
3.7767948e-06
3.8026073e-06
3.7764408e-06
3.7764386e-06
3.7764386e-06
3.7764386e-06
3.7764386e-06
3.7764386e-06
3.7764385e-06
3.7764385e-06
3.7764386e-06
3.7764392e-06
3.7764435e-06
3.7764759e-06
3.7765516e-06
3.7766633e-06
3.7766669e-06
3.7767716e-06
3.8026046e-06
3.7764397e-06
3.7764386e-06
3.7764386e-06
3.7764386e-06
3.7764386e-06
3.7764386e-06
3.7764385e-06
3.7764385e-06
3.7764386e-06
3.7764397e-06
3.7764463e-06
3.7764899e-06
3.7765762e-06
3.7766737e-06
3.776654e-06
3.7767613e-06
3.7764412e-06
3.7764386e-06
3.7764386e-06
3.7764386e-06
3.7764386e-06
3.7764386e-06
3.7764386e-06
3.7764385e-06
3.7764386e-06
3.7764387e-06
3.7764404e-06
3.7764504e-06
3.7765071e-06
3.7766008e-06
3.7766794e-06
3.776635e-06
3.7767698e-06
3.7764399e-06
3.7764386e-06
3.7764386e-06
3.7764386e-06
3.7764386e-06
3.7764386e-06
3.7764386e-06
3.7764385e-06
3.7764386e-06
3.7764387e-06
3.7764416e-06
3.7764563e-06
3.7765272e-06
3.7766239e-06
3.7766808e-06
3.7766105e-06
3.7767912e-06
3.7764432e-06
3.7764386e-06
3.7764386e-06
3.7764386e-06
3.7764386e-06
3.7764386e-06
3.7764386e-06
3.7764386e-06
3.7764385e-06
3.7764386e-06
3.7764389e-06
3.7764434e-06
3.7764642e-06
3.7765497e-06
3.776644e-06
3.7766786e-06
3.7765842e-06
3.7768081e-06
3.7764416e-06
3.7764386e-06
3.7764386e-06
3.7764386e-06
3.7764386e-06
3.7764386e-06
3.7764386e-06
3.7764386e-06
3.7764385e-06
3.7764386e-06
3.7764392e-06
3.7764462e-06
3.7764748e-06
3.7765738e-06
3.77666e-06
3.7766729e-06
3.7765638e-06
3.7768138e-06
3.7764401e-06
3.7764386e-06
3.7764386e-06
3.7764386e-06
3.7764386e-06
3.7764386e-06
3.7764386e-06
3.7764386e-06
3.7764386e-06
3.7764387e-06
3.7764396e-06
3.7764501e-06
3.7764882e-06
3.776598e-06
3.7766712e-06
3.7766632e-06
3.7765582e-06
3.7764439e-06
3.7764387e-06
3.7764386e-06
3.7764386e-06
3.7764386e-06
3.7764386e-06
3.7764386e-06
3.7764386e-06
3.7764386e-06
3.7764386e-06
3.7764387e-06
3.7764403e-06
3.7764557e-06
3.7765047e-06
3.7766211e-06
3.7766778e-06
3.7766483e-06
3.7765708e-06
3.7764421e-06
3.7764386e-06
3.7764386e-06
3.7764386e-06
3.7764386e-06
3.7764386e-06
3.7764386e-06
3.7764386e-06
3.7764386e-06
3.7764386e-06
3.7764389e-06
3.7764414e-06
3.7764633e-06
3.7765241e-06
3.7766414e-06
3.7766802e-06
3.7766275e-06
3.7765934e-06
3.7764404e-06
3.7764386e-06
3.7764386e-06
3.7764386e-06
3.7764386e-06
3.7764386e-06
3.7764386e-06
3.7764386e-06
3.7764386e-06
3.7764386e-06
3.7764391e-06
3.7764431e-06
3.7764734e-06
3.776546e-06
3.776658e-06
3.7766791e-06
3.776602e-06
3.7766083e-06
3.7764425e-06
3.7764387e-06
3.7764386e-06
3.7764386e-06
3.7764386e-06
3.7764386e-06
3.7764386e-06
3.7764386e-06
3.7764386e-06
3.7764386e-06
3.7764386e-06
3.7764395e-06
3.7764456e-06
3.7764862e-06
3.7765696e-06
3.77667e-06
3.776675e-06
3.7765767e-06
3.7766126e-06
3.7764406e-06
3.7764386e-06
3.7764386e-06
3.7764386e-06
3.7764386e-06
3.7764386e-06
3.7764386e-06
3.7764386e-06
3.7764386e-06
3.7764386e-06
3.7764386e-06
3.7764402e-06
3.7764493e-06
3.776502e-06
3.7765936e-06
3.7766776e-06
3.7766678e-06
3.7765595e-06
3.7764429e-06
3.7764387e-06
3.7764386e-06
3.7764386e-06
3.7764386e-06
3.7764386e-06
3.7764386e-06
3.7764386e-06
3.7764386e-06
3.7764386e-06
3.7764386e-06
3.7764387e-06
3.7764412e-06
3.7764544e-06
3.7765206e-06
3.7766167e-06
3.776681e-06
3.7766565e-06
3.7765583e-06
3.7764407e-06
3.7764386e-06
3.7764386e-06
3.7764386e-06
3.7764386e-06
3.7764386e-06
3.7764386e-06
3.7764386e-06
3.7764386e-06
3.7764386e-06
3.7764386e-06
3.7764388e-06
3.7764427e-06
3.7764615e-06
3.7765417e-06
3.7766376e-06
3.7766811e-06
3.7766398e-06
3.7765744e-06
3.7764445e-06
3.7764385e-06
3.7764386e-06
3.7764386e-06
3.7764386e-06
3.7764386e-06
3.7764386e-06
3.7764386e-06
3.7764386e-06
3.7764386e-06
3.7764386e-06
3.7764386e-06
3.7764391e-06
3.7764451e-06
3.7764709e-06
3.7765646e-06
3.7766551e-06
3.7766784e-06
3.7766174e-06
3.7765974e-06
3.7764419e-06
3.7764384e-06
3.7764386e-06
3.7764386e-06
3.7764386e-06
3.7764386e-06
3.7764386e-06
3.7764386e-06
3.7764386e-06
3.7764386e-06
3.7764386e-06
3.7764386e-06
3.7764394e-06
3.7764484e-06
3.7764829e-06
3.7765883e-06
3.7766683e-06
3.7766732e-06
3.7765914e-06
3.7766104e-06
3.7764394e-06
3.7764384e-06
3.7764386e-06
3.7764386e-06
3.7764386e-06
3.7764386e-06
3.7764386e-06
3.7764386e-06
3.7764386e-06
3.7764386e-06
3.7764386e-06
3.7764387e-06
3.77644e-06
3.7764532e-06
3.7764977e-06
3.7766114e-06
3.776677e-06
3.7766648e-06
3.7765675e-06
3.7766135e-06
3.7764345e-06
3.7764369e-06
3.7764384e-06
3.7764386e-06
3.7764386e-06
3.7764386e-06
3.7764386e-06
3.7764386e-06
3.7764386e-06
3.7764386e-06
3.7764386e-06
3.7764386e-06
3.7764388e-06
3.7764409e-06
3.7764597e-06
3.7765154e-06
3.7766327e-06
3.7766816e-06
3.776652e-06
3.7765536e-06
3.7764316e-06
3.7764369e-06
3.7764384e-06
3.7764386e-06
3.7764386e-06
3.7764386e-06
3.7764386e-06
3.7764386e-06
3.7764386e-06
3.7764386e-06
3.7764386e-06
3.7764386e-06
3.776439e-06
3.7764422e-06
3.7764683e-06
3.7765357e-06
3.7766509e-06
3.7766827e-06
3.7766338e-06
3.7765565e-06
3.7764005e-06
3.7764288e-06
3.7764369e-06
3.7764384e-06
3.7764386e-06
3.7764386e-06
3.7764386e-06
3.7764386e-06
3.7764386e-06
3.7764386e-06
3.7764386e-06
3.7764386e-06
3.7764386e-06
3.7764393e-06
3.7764443e-06
3.7764795e-06
3.776558e-06
3.7766652e-06
3.7766811e-06
3.7766102e-06
3.7765753e-06
3.7763973e-06
3.7764287e-06
3.7764369e-06
3.7764384e-06
3.7764386e-06
3.7764386e-06
3.7764386e-06
3.7764386e-06
3.7764386e-06
3.7764386e-06
3.7764386e-06
3.7764386e-06
3.7764387e-06
3.7764398e-06
3.7764472e-06
3.7764933e-06
3.7765813e-06
3.7766753e-06
3.7766772e-06
3.7765842e-06
3.7765982e-06
3.7762918e-06
3.7763941e-06
3.7764287e-06
3.7764369e-06
3.7764384e-06
3.7764386e-06
3.7764386e-06
3.7764386e-06
3.7764386e-06
3.7764386e-06
3.7764386e-06
3.7764386e-06
3.7764386e-06
3.7764388e-06
3.7764406e-06
3.7764514e-06
3.77651e-06
3.7766046e-06
3.7766812e-06
3.7766709e-06
3.7765621e-06
3.7766093e-06
3.7760567e-06
3.7762881e-06
3.776394e-06
3.7764287e-06
3.7764369e-06
3.7764384e-06
3.7764386e-06
3.7764386e-06
3.7764386e-06
3.7764386e-06
3.7764386e-06
3.7764386e-06
3.7764386e-06
3.7764386e-06
3.7764389e-06
3.7764418e-06
3.7764572e-06
3.7765293e-06
3.7766264e-06
3.7766836e-06
3.7766613e-06
3.7765518e-06
3.7766115e-06
3.7760525e-06
3.7762878e-06
3.7763938e-06
3.7764286e-06
3.7764368e-06
3.7764384e-06
3.7764386e-06
3.7764386e-06
3.7764386e-06
3.7764386e-06
3.7764386e-06
3.7764386e-06
3.7764386e-06
3.7764387e-06
3.7764392e-06
3.7764435e-06
3.776465e-06
3.7765507e-06
3.7766457e-06
3.7766832e-06
3.7766471e-06
3.7765585e-06
3.7756236e-06
3.7760483e-06
3.7762875e-06
3.7763937e-06
3.7764286e-06
3.7764368e-06
3.7764384e-06
3.7764386e-06
3.7764386e-06
3.7764386e-06
3.7764386e-06
3.7764386e-06
3.7764386e-06
3.7764386e-06
3.7764387e-06
3.7764396e-06
3.7764461e-06
3.7764752e-06
3.7765734e-06
3.7766615e-06
3.7766806e-06
3.7766274e-06
3.7765793e-06
3.7756191e-06
3.7760478e-06
3.7762873e-06
3.7763936e-06
3.7764286e-06
3.7764368e-06
3.7764384e-06
3.7764386e-06
3.7764386e-06
3.7764386e-06
3.7764386e-06
3.7764386e-06
3.7764386e-06
3.7764386e-06
3.7764389e-06
3.7764403e-06
3.7764499e-06
3.7764879e-06
3.7765965e-06
3.7766731e-06
3.7766761e-06
3.7766028e-06
3.7766017e-06
3.7750026e-06
3.7756145e-06
3.7760474e-06
3.776287e-06
3.7763936e-06
3.7764286e-06
3.7764368e-06
3.7764384e-06
3.7764386e-06
3.7764386e-06
3.7764386e-06
3.7764386e-06
3.7764386e-06
3.7764386e-06
3.7764386e-06
3.7764391e-06
3.7764413e-06
3.776455e-06
3.7765034e-06
3.7766187e-06
3.7766806e-06
3.7766691e-06
3.7765772e-06
3.7766108e-06
3.7743689e-06
3.7749986e-06
3.7756141e-06
3.776047e-06
3.7762868e-06
3.7763935e-06
3.7764285e-06
3.7764368e-06
3.7764384e-06
3.7764386e-06
3.7764386e-06
3.7764386e-06
3.7764386e-06
3.7764386e-06
3.7764386e-06
3.7764387e-06
3.7764394e-06
3.7764428e-06
3.776462e-06
3.7765215e-06
3.7766388e-06
3.7766843e-06
3.7766586e-06
3.7765571e-06
3.7766122e-06
3.7743642e-06
3.7749982e-06
3.7756137e-06
3.7760467e-06
3.7762866e-06
3.7763934e-06
3.7764285e-06
3.7764368e-06
3.7764384e-06
3.7764386e-06
3.7764386e-06
3.7764386e-06
3.7764386e-06
3.7764386e-06
3.7764386e-06
3.7764387e-06
3.77644e-06
3.7764451e-06
3.7764712e-06
3.776542e-06
3.7766558e-06
3.7766849e-06
3.7766431e-06
3.7765501e-06
3.7740579e-06
3.7743595e-06
3.7749981e-06
3.7756134e-06
3.7760463e-06
3.7762864e-06
3.7763933e-06
3.7764285e-06
3.7764368e-06
3.7764384e-06
3.7764386e-06
3.7764386e-06
3.7764386e-06
3.7764386e-06
3.7764386e-06
3.7764386e-06
3.7764388e-06
3.7764409e-06
3.7764483e-06
3.7764828e-06
3.7765642e-06
3.776669e-06
3.7766832e-06
3.776622e-06
3.7765599e-06
3.7745664e-06
3.7740532e-06
3.7743597e-06
3.7749981e-06
3.7756131e-06
3.776046e-06
3.7762862e-06
3.7763932e-06
3.7764285e-06
3.7764368e-06
3.7764384e-06
3.7764386e-06
3.7764386e-06
3.7764386e-06
3.7764386e-06
3.7764386e-06
3.7764386e-06
3.776439e-06
3.7764422e-06
3.7764529e-06
3.776497e-06
3.7765872e-06
3.7766782e-06
3.7766798e-06
3.7765969e-06
3.7765822e-06
3.7759887e-06
3.7745557e-06
3.7740524e-06
3.7743601e-06
3.7749981e-06
3.7756128e-06
3.7760457e-06
3.776286e-06
3.7763931e-06
3.7764285e-06
3.7764368e-06
3.7764384e-06
3.7764386e-06
3.7764386e-06
3.7764386e-06
3.7764386e-06
3.7764386e-06
3.7764387e-06
3.7764393e-06
3.7764441e-06
3.776459e-06
3.776514e-06
3.7766098e-06
3.7766835e-06
3.7766745e-06
3.776572e-06
3.7766038e-06
3.7767882e-06
3.7759629e-06
3.7745498e-06
3.7740523e-06
3.7743606e-06
3.7749982e-06
3.7756125e-06
3.7760455e-06
3.7762859e-06
3.7763931e-06
3.7764285e-06
3.7764368e-06
3.7764384e-06
3.7764386e-06
3.7764386e-06
3.7764386e-06
3.7764386e-06
3.7764386e-06
3.7764388e-06
3.7764397e-06
3.7764469e-06
3.7764672e-06
3.7765334e-06
3.7766309e-06
3.7766857e-06
3.7766667e-06
3.7765542e-06
3.7766112e-06
3.7728458e-06
3.7767509e-06
3.7759431e-06
3.7745449e-06
3.7740525e-06
3.7743613e-06
3.7749983e-06
3.7756123e-06
3.7760452e-06
3.7762857e-06
3.776393e-06
3.7764284e-06
3.7764368e-06
3.7764384e-06
3.7764386e-06
3.7764386e-06
3.7764386e-06
3.7764386e-06
3.7764386e-06
3.7764389e-06
3.7764404e-06
3.7764509e-06
3.7764777e-06
3.7765547e-06
3.7766494e-06
3.7766853e-06
3.776655e-06
3.7765504e-06
3.7766121e-06
3.7595646e-06
3.772828e-06
3.7767201e-06
3.7759243e-06
3.7745406e-06
3.774053e-06
3.7743621e-06
3.7749986e-06
3.7756122e-06
3.776045e-06
3.7762856e-06
3.7763929e-06
3.7764284e-06
3.7764368e-06
3.7764384e-06
3.7764386e-06
3.7764386e-06
3.7764386e-06
3.7764386e-06
3.7764387e-06
3.7764391e-06
3.7764415e-06
3.7764563e-06
3.7764908e-06
3.7765773e-06
3.7766644e-06
3.7766831e-06
3.7766382e-06
3.7765631e-06
3.7350139e-06
3.7596024e-06
3.7728135e-06
3.7766891e-06
3.7759063e-06
3.7745369e-06
3.7740538e-06
3.7743631e-06
3.7749988e-06
3.775612e-06
3.7760448e-06
3.7762854e-06
3.7763929e-06
3.7764284e-06
3.7764368e-06
3.7764384e-06
3.7764386e-06
3.7764386e-06
3.7764386e-06
3.7764386e-06
3.7764387e-06
3.7764395e-06
3.7764431e-06
3.7764635e-06
3.7765065e-06
3.7766e-06
3.7766755e-06
3.7766794e-06
3.776616e-06
3.7765864e-06
3.6959806e-06
3.7350117e-06
3.7596467e-06
3.7727951e-06
3.7766577e-06
3.7758892e-06
3.7745338e-06
3.7740549e-06
3.7743642e-06
3.7749992e-06
3.775612e-06
3.7760447e-06
3.7762853e-06
3.7763928e-06
3.7764284e-06
3.7764368e-06
3.7764384e-06
3.7764386e-06
3.7764386e-06
3.7764386e-06
3.7764386e-06
3.7764388e-06
3.7764401e-06
3.7764455e-06
3.7764728e-06
3.7765248e-06
3.7766218e-06
3.7766827e-06
3.7766738e-06
3.7765905e-06
3.7766069e-06
3.6426474e-06
3.6959237e-06
3.735016e-06
3.7596899e-06
3.7727733e-06
3.7766259e-06
3.775873e-06
3.7745314e-06
3.7740563e-06
3.7743655e-06
3.7749996e-06
3.7756119e-06
3.7760445e-06
3.7762852e-06
3.7763928e-06
3.7764284e-06
3.7764368e-06
3.7764384e-06
3.7764386e-06
3.7764386e-06
3.7764386e-06
3.7764387e-06
3.776439e-06
3.776441e-06
3.7764488e-06
3.7764846e-06
3.7765453e-06
3.7766415e-06
3.7766863e-06
3.7766654e-06
3.7765665e-06
3.7766125e-06
3.5393591e-06
3.5850073e-06
3.642615e-06
3.695872e-06
3.735022e-06
3.7597308e-06
3.7727483e-06
3.7765936e-06
3.7758578e-06
3.7745296e-06
3.774058e-06
3.7743669e-06
3.7750001e-06
3.7756119e-06
3.7760444e-06
3.7762851e-06
3.7763927e-06
3.7764284e-06
3.7764368e-06
3.7764384e-06
3.7764386e-06
3.7764386e-06
3.7764386e-06
3.7764387e-06
3.7764393e-06
3.7764423e-06
3.7764534e-06
3.7764989e-06
3.7765673e-06
3.7766582e-06
3.776687e-06
3.7766528e-06
3.7765509e-06
3.7766129e-06
3.525682e-06
3.5394778e-06
3.5850512e-06
3.6425877e-06
3.695822e-06
3.7350301e-06
3.7597683e-06
3.7727205e-06
3.776561e-06
3.7758435e-06
3.7745284e-06
3.7740601e-06
3.7743684e-06
3.7750006e-06
3.775612e-06
3.7760443e-06
3.776285e-06
3.7763927e-06
3.7764284e-06
3.7764368e-06
3.7764384e-06
3.7764386e-06
3.7764386e-06
3.7764386e-06
3.7764388e-06
3.7764398e-06
3.7764442e-06
3.7764596e-06
3.7765158e-06
3.7765901e-06
3.7766712e-06
3.7766857e-06
3.7766349e-06
3.7765499e-06
3.5828546e-06
3.552782e-06
3.5258513e-06
3.5396055e-06
3.5851011e-06
3.6425645e-06
3.6957747e-06
3.7350404e-06
3.7598016e-06
3.77269e-06
3.776528e-06
3.7758301e-06
3.7745279e-06
3.7740624e-06
3.7743701e-06
3.7750013e-06
3.775612e-06
3.7760442e-06
3.7762849e-06
3.7763926e-06
3.7764283e-06
3.7764368e-06
3.7764384e-06
3.7764386e-06
3.7764386e-06
3.7764387e-06
3.7764389e-06
3.7764405e-06
3.776447e-06
3.7764678e-06
3.776535e-06
3.7766124e-06
3.7766803e-06
3.7766827e-06
3.7766118e-06
3.7765648e-06
3.5722172e-06
3.5517751e-06
3.5708806e-06
3.5822793e-06
3.552854e-06
3.5260403e-06
3.5397449e-06
3.5851579e-06
3.6425446e-06
3.6957309e-06
3.7350531e-06
3.7598297e-06
3.772657e-06
3.7764947e-06
3.7758176e-06
3.774528e-06
3.7740652e-06
3.7743719e-06
3.775002e-06
3.7756122e-06
3.7760442e-06
3.7762848e-06
3.7763926e-06
3.7764283e-06
3.7764368e-06
3.7764384e-06
3.7764386e-06
3.7764386e-06
3.7764387e-06
3.7764392e-06
3.7764416e-06
3.776451e-06
3.7764783e-06
3.7765561e-06
3.7766332e-06
3.7766857e-06
3.7766784e-06
3.7765862e-06
3.7765888e-06
3.6272605e-06
3.6069428e-06
3.5663075e-06
3.5482132e-06
3.5692042e-06
3.5818417e-06
3.5529816e-06
3.5262484e-06
3.5398948e-06
3.5852215e-06
3.6425286e-06
3.6956917e-06
3.7350686e-06
3.7598523e-06
3.7726216e-06
3.7764612e-06
3.7758061e-06
3.7745288e-06
3.7740682e-06
3.7743739e-06
3.7750028e-06
3.7756124e-06
3.7760441e-06
3.7762848e-06
3.7763926e-06
3.7764283e-06
3.7764368e-06
3.7764384e-06
3.7764386e-06
3.7764386e-06
3.7764388e-06
3.7764395e-06
3.7764431e-06
3.7764563e-06
3.7764913e-06
3.7765783e-06
3.7766515e-06
3.7766879e-06
3.7766722e-06
3.7765634e-06
3.7766082e-06
3.7097843e-06
3.6710372e-06
3.653478e-06
3.6387219e-06
3.6224159e-06
3.5995456e-06
3.5607718e-06
3.5450639e-06
3.5677873e-06
3.5815259e-06
3.5531563e-06
3.5264728e-06
3.5400541e-06
3.5852916e-06
3.6425165e-06
3.6956576e-06
3.7350872e-06
3.7598689e-06
3.7725838e-06
3.7764276e-06
3.7757955e-06
3.7745303e-06
3.7740716e-06
3.774376e-06
3.7750037e-06
3.7756126e-06
3.7760441e-06
3.7762847e-06
3.7763925e-06
3.7764283e-06
3.7764368e-06
3.7764384e-06
3.7764386e-06
3.7764387e-06
3.7764389e-06
3.7764401e-06
3.7764455e-06
3.7764634e-06
3.7765068e-06
3.7766006e-06
3.7766664e-06
3.7766877e-06
3.7766629e-06
3.7765501e-06
3.7766125e-06
4.0148854e-06
3.9249968e-06
3.8577763e-06
3.7989387e-06
3.7520026e-06
3.7075692e-06
3.6696227e-06
3.6540554e-06
3.6378504e-06
3.6163412e-06
3.592077e-06
3.5556939e-06
3.5423239e-06
3.5666095e-06
3.5813188e-06
3.5533717e-06
3.5267114e-06
3.5402217e-06
3.5853674e-06
3.6425082e-06
3.6956288e-06
3.7351086e-06
3.7598792e-06
3.7725434e-06
3.7763941e-06
3.7757857e-06
3.7745325e-06
3.7740753e-06
3.7743783e-06
3.7750046e-06
3.7756129e-06
3.7760442e-06
3.7762847e-06
3.7763925e-06
3.7764283e-06
3.7764368e-06
3.7764384e-06
3.7764386e-06
3.7764387e-06
3.776439e-06
3.7764409e-06
3.7764487e-06
3.7764726e-06
3.7765248e-06
3.7766221e-06
3.7766774e-06
3.7766858e-06
3.7766492e-06
3.7765519e-06
3.7766128e-06
4.2066263e-06
4.3879644e-06
4.5179681e-06
4.4354784e-06
4.2993923e-06
4.2672401e-06
4.2365165e-06
4.1320087e-06
4.0118406e-06
3.9221694e-06
3.855361e-06
3.7969309e-06
3.750102e-06
3.7054593e-06
3.6687138e-06
3.6547683e-06
3.6356309e-06
3.6092055e-06
3.5847521e-06
3.5511347e-06
3.5399797e-06
3.5656498e-06
3.5812063e-06
3.5536217e-06
3.5269625e-06
3.5403968e-06
3.5854482e-06
3.6425037e-06
3.695606e-06
3.7351329e-06
3.7598833e-06
3.7725004e-06
3.7763607e-06
3.7757768e-06
3.7745353e-06
3.7740794e-06
3.7743808e-06
3.7750057e-06
3.7756132e-06
3.7760442e-06
3.7762847e-06
3.7763925e-06
3.7764283e-06
3.7764368e-06
3.7764384e-06
3.7764386e-06
3.7764387e-06
3.7764393e-06
3.7764422e-06
3.7764532e-06
3.7764842e-06
3.776545e-06
3.7766416e-06
3.7766846e-06
3.7766825e-06
3.7766301e-06
3.7765687e-06
4.1650812e-06
4.1955215e-06
4.2226818e-06
4.2382766e-06
4.2329989e-06
4.2110443e-06
4.17152e-06
4.0863525e-06
4.0105165e-06
4.0381265e-06
4.0776241e-06
4.0148757e-06
3.9719208e-06
4.0986875e-06
4.3426085e-06
4.5225748e-06
4.5510861e-06
4.4700584e-06
4.3578443e-06
4.2091797e-06
4.0384936e-06
3.9155874e-06
3.8721247e-06
3.8860081e-06
3.9302155e-06
4.0224934e-06
4.0560475e-06
3.9544295e-06
3.8814706e-06
3.9540699e-06
4.0648785e-06
4.1235542e-06
4.2037891e-06
4.385096e-06
4.5151521e-06
4.4320653e-06
4.2956732e-06
4.2639178e-06
4.2334248e-06
4.1289243e-06
4.0088828e-06
3.919436e-06
3.8530879e-06
3.7950145e-06
3.7481354e-06
3.7035857e-06
3.6683239e-06
3.6552949e-06
3.6317322e-06
3.6013021e-06
3.5777757e-06
3.5471259e-06
3.5380115e-06
3.564886e-06
3.581175e-06
3.5539002e-06
3.5272243e-06
3.5405787e-06
3.585533e-06
3.6425028e-06
3.6955894e-06
3.7351597e-06
3.7598813e-06
3.7724545e-06
3.7763276e-06
3.7757688e-06
3.7745388e-06
3.7740838e-06
3.7743834e-06
3.7750069e-06
3.7756136e-06
3.7760443e-06
3.7762846e-06
3.7763925e-06
3.7764283e-06
3.7764368e-06
3.7764384e-06
3.7764386e-06
3.7764388e-06
3.7764397e-06
3.776444e-06
3.7764593e-06
3.7764983e-06
3.7765667e-06
3.7766583e-06
3.7766883e-06
3.7766778e-06
3.7766064e-06
3.776593e-06
4.1345962e-06
4.1625928e-06
4.1930082e-06
4.2201427e-06
4.2357109e-06
4.2303635e-06
4.2083616e-06
4.168904e-06
4.0837271e-06
4.0077693e-06
4.0356125e-06
4.0754199e-06
4.0124331e-06
3.969201e-06
4.0961358e-06
4.3402615e-06
4.5200553e-06
4.548193e-06
4.4668178e-06
4.354617e-06
4.2061422e-06
4.0355568e-06
3.9128325e-06
3.8697176e-06
3.883752e-06
3.92789e-06
4.0202259e-06
4.0538688e-06
3.9519388e-06
3.8787293e-06
3.951651e-06
4.0625545e-06
4.1209243e-06
4.2008241e-06
4.3820707e-06
4.5121969e-06
4.4285914e-06
4.2919221e-06
4.2605873e-06
4.2303668e-06
4.125918e-06
4.0060288e-06
3.9168185e-06
3.8509575e-06
3.7931409e-06
3.746139e-06
3.7020847e-06
3.6683648e-06
3.6551391e-06
3.6260621e-06
3.5929915e-06
3.5713208e-06
3.5436689e-06
3.5363969e-06
3.5642955e-06
3.5812128e-06
3.5542018e-06
3.5274956e-06
3.540767e-06
3.5856214e-06
3.6425054e-06
3.6955796e-06
3.7351886e-06
3.7598731e-06
3.7724058e-06
3.7762946e-06
3.7757616e-06
3.774543e-06
3.7740886e-06
3.7743862e-06
3.7750081e-06
3.7756141e-06
3.7760444e-06
3.7762846e-06
3.7763925e-06
3.7764283e-06
3.7764368e-06
3.7764384e-06
3.7764387e-06
3.7764389e-06
3.7764404e-06
3.7764467e-06
3.7764673e-06
3.7765149e-06
3.7765891e-06
3.7766715e-06
3.7766891e-06
3.7766711e-06
3.7765809e-06
3.7766112e-06
4.3494362e-06
4.124543e-06
4.131932e-06
4.1599709e-06
4.1903443e-06
4.2174531e-06
4.2329958e-06
4.2275824e-06
4.2055368e-06
4.1661525e-06
4.0809796e-06
4.0048968e-06
4.0329479e-06
4.0730607e-06
4.009859e-06
3.9663442e-06
4.0934054e-06
4.3377021e-06
4.5173259e-06
4.545122e-06
4.4634207e-06
4.3512485e-06
4.2029742e-06
4.0324993e-06
3.9099503e-06
3.8671671e-06
3.8813422e-06
3.9253991e-06
4.0177859e-06
4.0515315e-06
3.9493243e-06
3.8758694e-06
3.9490947e-06
4.0601023e-06
4.1181717e-06
4.1977517e-06
4.3789343e-06
4.5091526e-06
4.4251134e-06
4.2881962e-06
4.2572951e-06
4.2273869e-06
4.1230182e-06
4.0032952e-06
3.9143291e-06
3.8489546e-06
3.7912762e-06
3.7442086e-06
3.701052e-06
3.6686077e-06
3.6536768e-06
3.6188291e-06
3.5846417e-06
3.5655154e-06
3.5407512e-06
3.5351019e-06
3.5638555e-06
3.5813088e-06
3.5545215e-06
3.5277751e-06
3.5409612e-06
3.5857125e-06
3.6425114e-06
3.6955769e-06
3.7352193e-06
3.7598589e-06
3.7723541e-06
3.776262e-06
3.7757552e-06
3.7745478e-06
3.7740937e-06
3.7743892e-06
3.7750095e-06
3.7756146e-06
3.7760445e-06
3.7762847e-06
3.7763924e-06
3.7764283e-06
3.7764368e-06
3.7764384e-06
3.7764387e-06
3.7764391e-06
3.7764414e-06
3.7764504e-06
3.7764774e-06
3.7765338e-06
3.7766112e-06
3.776681e-06
3.7766879e-06
3.7766611e-06
3.7765592e-06
3.7766139e-06
3.8047751e-05
6.9694165e-06
4.3373401e-06
4.1209824e-06
4.1291223e-06
4.1571772e-06
4.1875053e-06
4.21459e-06
4.2301111e-06
4.2246391e-06
4.2025556e-06
4.1632526e-06
4.0781038e-06
4.0018949e-06
4.0301161e-06
4.0705269e-06
4.0071462e-06
3.9633478e-06
4.0904786e-06
4.3349024e-06
4.5143642e-06
4.5418639e-06
4.4598701e-06
4.3477448e-06
4.1996856e-06
4.0293329e-06
3.9069537e-06
3.8644838e-06
3.8787905e-06
3.9227576e-06
4.0151907e-06
4.0490576e-06
3.9466177e-06
3.8729274e-06
3.9464344e-06
4.0575596e-06
4.1153412e-06
4.1946178e-06
4.375744e-06
4.5060787e-06
4.4216878e-06
4.2845485e-06
4.2540792e-06
4.2245164e-06
4.1202403e-06
4.000688e-06
3.9119693e-06
3.8470551e-06
3.7894215e-06
3.7424802e-06
3.7004939e-06
3.6686557e-06
3.650331e-06
3.6104582e-06
3.5765927e-06
3.5604346e-06
3.5383428e-06
3.5340896e-06
3.563544e-06
3.5814535e-06
3.5548553e-06
3.5280618e-06
3.5411611e-06
3.5858059e-06
3.6425207e-06
3.6955818e-06
3.7352515e-06
3.7598385e-06
3.7722994e-06
3.7762295e-06
3.7757496e-06
3.7745533e-06
3.7740991e-06
3.7743924e-06
3.7750109e-06
3.7756151e-06
3.7760447e-06
3.7762847e-06
3.7763924e-06
3.7764283e-06
3.7764368e-06
3.7764384e-06
3.7764388e-06
3.7764394e-06
3.7764428e-06
3.7764555e-06
3.7764899e-06
3.7765546e-06
3.776632e-06
3.7766869e-06
3.7766852e-06
3.7766464e-06
3.776548e-06
3.7766138e-06
0.00065143353
0.00045187708
0.00020611838
3.7234671e-05
6.8813005e-06
4.3264421e-06
4.1173971e-06
4.126152e-06
4.1542085e-06
4.1844891e-06
4.2115525e-06
4.2270596e-06
4.2215416e-06
4.1994298e-06
4.1602184e-06
4.0751228e-06
3.9987879e-06
4.0271248e-06
4.0678229e-06
4.0043156e-06
3.9602355e-06
4.0873617e-06
4.3318579e-06
4.5111747e-06
4.5384386e-06
4.4561987e-06
4.3441391e-06
4.1963126e-06
4.0260955e-06
3.9038801e-06
3.8617038e-06
3.8761327e-06
3.9200051e-06
4.0124802e-06
4.046492e-06
3.9438692e-06
3.8699567e-06
3.9437186e-06
4.0549733e-06
4.1124859e-06
4.1914707e-06
4.3725538e-06
4.5030288e-06
4.4183596e-06
4.2810183e-06
4.2509648e-06
4.2217703e-06
4.1175884e-06
3.9982071e-06
3.9097356e-06
3.8452419e-06
3.7876246e-06
3.7410869e-06
3.7002749e-06
3.6679397e-06
3.6448095e-06
3.6014629e-06
3.5691275e-06
3.5561023e-06
3.5364033e-06
3.5333228e-06
3.5633408e-06
3.5816378e-06
3.5551999e-06
3.528355e-06
3.5413666e-06
3.5859008e-06
3.6425333e-06
3.6955946e-06
3.7352847e-06
3.7598118e-06
3.7722419e-06
3.7761973e-06
3.7757449e-06
3.7745594e-06
3.7741049e-06
3.7743957e-06
3.7750125e-06
3.7756157e-06
3.7760449e-06
3.7762847e-06
3.7763924e-06
3.7764283e-06
3.7764368e-06
3.7764385e-06
3.776439e-06
3.77644e-06
3.776445e-06
3.7764623e-06
3.776505e-06
3.7765766e-06
3.7766505e-06
3.7766897e-06
3.7766813e-06
3.7766264e-06
3.7765519e-06
0.0010916874
0.0010352803
0.00094297835
0.0008153672
0.000652436
0.00045092112
0.00020408269
3.6482952e-05
6.8121546e-06
4.3172078e-06
4.113804e-06
4.1230451e-06
4.1510929e-06
4.181325e-06
4.2083706e-06
4.2238721e-06
4.2183213e-06
4.1961916e-06
4.157082e-06
4.0720668e-06
3.9956069e-06
4.0240119e-06
4.0649887e-06
4.0014011e-06
3.9570435e-06
4.0841044e-06
4.3286277e-06
4.5078164e-06
4.5348971e-06
4.4524532e-06
4.3404751e-06
4.192898e-06
4.0228283e-06
3.9007737e-06
3.8588767e-06
3.8734216e-06
3.9172001e-06
4.0097121e-06
4.0438932e-06
3.9411299e-06
3.8670106e-06
3.9410019e-06
4.0523938e-06
4.1096581e-06
4.1883557e-06
4.3694119e-06
4.5000473e-06
4.4151558e-06
4.2776267e-06
4.247964e-06
4.2191488e-06
4.1150606e-06
3.9958515e-06
3.9076279e-06
3.8435182e-06
3.78597e-06
3.7400931e-06
3.7000688e-06
3.6657724e-06
3.637234e-06
3.592373e-06
3.5624489e-06
3.5524987e-06
3.5348855e-06
3.5327669e-06
3.563228e-06
3.5818543e-06
3.5555527e-06
3.5286544e-06
3.5415775e-06
3.5859969e-06
3.6425494e-06
3.6956157e-06
3.7353184e-06
3.7597788e-06
3.7721817e-06
3.7761651e-06
3.775741e-06
3.7745662e-06
3.774111e-06
3.7743992e-06
3.7750141e-06
3.7756164e-06
3.7760451e-06
3.7762847e-06
3.7763924e-06
3.7764283e-06
3.7764368e-06
3.7764385e-06
3.7764392e-06
3.7764407e-06
3.776448e-06
3.7764711e-06
3.7765225e-06
3.7765989e-06
3.7766658e-06
3.77669e-06
3.7766762e-06
3.776602e-06
3.7765703e-06
0.0010230279
0.0010774226
0.0011125338
0.0011216794
0.0010991981
0.0010414708
0.00094741056
0.00081775683
0.00065275647
0.0004495029
0.00020181916
3.5690299e-05
6.7391183e-06
4.3077247e-06
4.1101415e-06
4.1198666e-06
4.1479067e-06
4.1780908e-06
4.2051191e-06
4.2206144e-06
4.2150288e-06
4.1928813e-06
4.1538745e-06
4.0689374e-06
3.992358e-06
4.0208482e-06
4.0621053e-06
3.9984275e-06
3.9538026e-06
4.0808157e-06
4.3253715e-06
4.5044239e-06
4.5313158e-06
4.4486727e-06
4.3367828e-06
4.1894644e-06
4.0195483e-06
3.8976635e-06
3.8560507e-06
3.8707167e-06
3.9144091e-06
4.0069565e-06
4.0413229e-06
3.9384355e-06
3.8641266e-06
3.9383391e-06
4.0498731e-06
4.1069046e-06
4.1853131e-06
4.3663639e-06
4.4971713e-06
4.4120842e-06
4.2743749e-06
4.2450796e-06
4.2166468e-06
4.1126545e-06
3.9936258e-06
3.9056564e-06
3.8419126e-06
3.7845427e-06
3.7394176e-06
3.699317e-06
3.6615189e-06
3.6281256e-06
3.5836678e-06
3.556671e-06
3.5495742e-06
3.5337388e-06
3.53239e-06
3.5631899e-06
3.5820963e-06
3.5559112e-06
3.5289597e-06
3.5417935e-06
3.5860941e-06
3.6425695e-06
3.6956458e-06
3.7353526e-06
3.7597397e-06
3.7721189e-06
3.776133e-06
3.7757378e-06
3.7745737e-06
3.7741175e-06
3.7744029e-06
3.7750159e-06