/*--------------------------------*- C++ -*----------------------------------*\
| =========                 |                                                 |
| \\      /  F ield         | OpenFOAM: The Open Source CFD Toolbox           |
|  \\    /   O peration     | Version:  2506                                  |
|   \\  /    A nd           | Website:  www.openfoam.com                      |
|    \\/     M anipulation  |                                                 |
\*---------------------------------------------------------------------------*/
FoamFile
{
    version     2.0;
    format      ascii;
    arch        "LSB;label=32;scalar=64";
    class       volScalarField;
    location    "1.55";
    object      omega;
}
// * * * * * * * * * * * * * * * * * * * * * * * * * * * * * * * * * * * * * //

dimensions      [0 0 -1 0 0 0 0];

internalField   nonuniform List<scalar> 
1376
(
35.513601
35.482031
35.453949
35.432294
35.415531
35.405108
35.401749
35.407062
35.423797
35.452766
35.498213
35.56464
35.657405
35.783484
35.953087
36.180233
36.484158
36.895197
37.462452
38.277814
39.533728
42.063609
35.538255
35.51712
35.500707
35.490998
35.487806
35.493486
35.510919
35.540673
35.586967
35.654224
35.747968
35.875277
36.046346
36.275246
36.581321
36.995139
37.566069
38.38665
39.650549
42.204811
35.598332
35.58248
35.573669
35.57075
35.576962
35.595042
35.625675
35.672986
35.74125
35.836133
35.964866
36.137621
36.368524
36.67702
37.093904
37.668788
38.494836
39.766415
42.314099
35.662009
35.654344
35.65201
35.659098
35.677951
35.709679
35.758314
35.827921
35.924282
36.054805
36.229657
36.463042
36.774493
37.195051
37.774613
38.607051
39.887743
42.441642
35.732066
35.740327
35.760087
35.793082
35.843275
35.914503
36.012637
36.145253
36.322533
36.558793
36.873646
37.298375
37.883188
38.722719
40.013438
42.570618
35.821023
35.841882
35.876346
35.928302
36.001431
36.10165
36.236669
36.41671
36.656238
36.974964
37.40438
37.995057
38.842416
40.144212
42.706898
35.923672
35.959829
36.01372
36.089019
36.191639
36.329374
36.512505
36.755684
37.078751
37.513382
38.110523
38.966441
40.280348
42.849339
36.043796
36.099795
36.17753
36.282872
36.423645
36.610202
36.857419
37.185295
37.625686
38.229909
39.095147
40.422231
42.998996
36.128193
36.186511
36.266951
36.375351
36.519511
36.709864
36.961529
37.294705
37.741442
38.353417
39.228779
40.570187
43.156401
36.274092
36.357498
36.469291
36.617192
36.811731
37.068258
37.407215
37.860897
38.48132
39.367611
40.724491
43.321299
36.449633
36.565141
36.717138
36.916272
37.178082
37.523306
37.984536
38.614135
39.512196
40.885761
43.495626
36.663062
36.819521
37.023684
37.291223
37.643215
38.112598
38.752133
39.66286
41.054334
43.679197
36.92432
37.133989
37.407748
37.767057
38.245243
38.895539
39.819923
41.23062
43.872699
37.247416
37.527917
37.895112
38.382774
39.044676
39.983753
41.41501
44.075844
37.652219
38.02789
38.525726
39.200112
40.154989
41.60825
44.29031
38.165616
38.674363
39.362159
40.334022
41.810813
44.516019
38.828956
39.531148
40.521297
42.023273
44.753625
39.707537
40.717353
42.246296
45.003843
40.922805
42.480657
45.268147
42.726997
45.547473
1089.1609
1001.4092
925.90693
858.02634
795.33381
738.42037
688.07538
643.06535
601.40495
562.58466
527.1869
495.1312
465.43356
437.42874
411.09761
386.63447
364.11021
343.31607
323.86359
305.39906
287.75633
271.02334
255.43984
916.65954
861.90453
810.88691
769.52212
734.65416
698.52401
658.59139
618.53053
583.27648
551.93742
521.19511
490.12006
460.76361
435.00418
412.02182
389.73556
367.12909
344.91673
324.25113
305.40357
287.82707
271.02339
255.04089
464.55462
451.25639
440.23944
437.0712
435.86128
431.21888
419.77038
404.32746
392.25561
382.87175
371.89611
357.80404
343.47786
332.25102
323.14488
313.28159
300.96347
287.04334
273.61699
261.5463
250.08929
238.45103
226.6988
228.05524
225.59943
225.61046
227.62067
230.67661
230.57933
228.1239
223.81466
221.46895
220.23902
218.27977
215.00076
211.84175
210.18833
209.02933
207.08983
203.41421
198.41144
193.53307
189.30088
185.01441
180.00968
174.35772
145.64101
145.38695
146.09503
148.25391
149.75725
149.45016
147.61395
144.78299
143.20735
142.49909
141.72582
140.96482
140.86324
141.07729
141.08739
140.61071
139.06709
136.80296
134.88908
133.51376
132.08887
130.11634
127.5538
109.44476
109.56508
110.61849
112.5844
113.30083
112.87087
111.15497
108.67697
106.915
105.88955
105.29661
105.23786
105.4832
106.12969
106.27951
105.95048
104.76665
103.06108
101.81237
101.0811
100.34585
99.202632
97.548958
88.014128
88.289394
89.496547
91.26275
91.747283
91.385889
90.048736
88.103665
86.506574
85.406935
84.87439
84.870595
85.143259
85.789326
85.95518
85.682724
84.662311
83.179825
82.151707
81.617604
81.107026
80.277897
79.002997
73.424254
73.669469
74.611622
75.958929
76.404698
76.227543
75.490618
74.322491
73.239606
72.346728
71.710234
71.603003
71.749555
72.186696
72.307272
72.080677
71.222079
69.954698
69.078706
68.649769
68.266194
67.649102
66.670248
63.335008
63.126127
63.233072
63.687218
64.446047
64.908027
64.916315
64.761803
64.389763
63.920284
63.366743
62.686623
62.208896
62.185117
62.311305
62.330781
62.128261
61.427392
60.405312
59.683663
59.331066
59.036516
58.586165
57.865724
55.96173
55.65538
55.629412
55.734729
56.015216
56.350775
56.652608
56.94938
57.058117
57.01605
56.78407
56.199888
55.412398
54.975445
54.880778
54.80613
54.579085
54.020318
53.25261
52.688636
52.394371
52.1597
51.831102
51.314686
50.594622
50.329773
50.106053
50.085887
50.14725
50.325661
50.633415
51.097964
51.541905
51.619425
51.507698
51.051745
50.245872
49.552907
49.238573
49.068081
48.830979
48.40697
47.86786
47.445539
47.193364
46.992226
46.740369
46.366639
46.661492
46.4416
46.202233
46.074828
46.075128
46.127843
46.287009
46.609428
46.991446
47.093296
47.023805
46.700472
46.068928
45.416033
45.016484
44.781391
44.543994
44.222253
43.851363
43.538764
43.316456
43.128461
42.915401
43.747812
43.5867
43.418773
43.261342
43.131277
43.090152
43.10683
43.193618
43.338862
43.374434
43.323969
43.113446
42.711424
42.258348
41.910175
41.658272
41.422463
41.160699
40.889652
40.648225
40.446535
40.259705
40.05855
41.535013
41.412924
41.287741
41.153747
41.005684
40.849294
40.735066
40.695937
40.681427
40.653718
40.577527
40.418882
40.180478
39.909522
39.65247
39.41506
39.181048
38.946627
38.72345
38.518585
38.327336
38.135883
37.93253
40.04409
39.919695
39.801195
39.674235
39.536547
39.386799
39.234157
39.099616
38.991418
38.900068
38.808136
38.697434
38.560673
38.399255
38.215742
38.012439
37.79317
37.566315
37.346322
37.1425
36.950385
36.760121
36.562292
36.353241
38.795105
38.690755
38.573617
38.442104
38.304899
38.171259
38.048831
37.934859
37.820074
37.698782
37.569191
37.432568
37.293233
37.147947
36.986447
36.801684
36.596592
36.383135
36.175748
35.979834
35.789534
35.596779
35.395222
35.183076
37.853475
37.75885
37.649182
37.531464
37.413244
37.29871
37.189143
37.077129
36.955471
36.821123
36.675282
36.524903
36.377446
36.229267
36.070068
35.893287
35.701002
35.501797
35.304795
35.112621
34.921923
34.728418
34.527381
34.315552
37.143162
37.050254
36.954124
36.855715
36.749885
36.639012
36.526034
36.408082
36.281538
36.14254
35.99169
35.837143
35.686513
35.536626
35.379205
35.209237
35.027861
34.840038
34.650529
34.460648
34.269776
34.076533
33.87686
33.666043
36.694159
36.602818
36.512696
36.422025
36.325906
36.21959
36.10724
35.990919
35.870605
35.744537
35.608625
35.463547
35.315084
35.166973
35.016556
34.859423
34.693288
34.519276
34.339712
34.156112
33.968753
33.778256
33.584595
33.384468
33.1735
36.270809
36.184122
36.097678
36.006344
35.904764
35.795017
35.681857
35.566281
35.449245
35.327977
35.199186
35.063391
34.922469
34.777698
34.627957
34.470864
34.305941
34.135194
33.960194
33.780822
33.596277
33.406825
33.212552
33.011102
32.799653
35.959276
35.875624
35.787609
35.693193
35.59139
35.485532
35.376501
35.262927
35.144441
35.021449
34.895258
34.765291
34.630193
34.488786
34.340024
34.183229
34.019222
33.8501
33.677015
33.499513
33.316713
33.12831
32.933931
32.731928
32.520949
35.815148
35.738504
35.651912
35.559691
35.46423
35.36644
35.266601
35.161859
35.049497
34.930046
34.806026
34.679289
34.549123
34.414273
34.273784
34.126589
33.972254
33.811209
33.644282
33.472283
33.295322
33.113039
32.924989
32.730599
32.528908
32.319428
35.65254
35.571536
35.483238
35.391898
35.29897
35.203215
35.104161
34.99976
34.888339
34.770247
34.647764
34.521778
34.391803
34.25677
34.116435
33.970319
33.818396
33.660547
33.496645
33.326648
33.150516
32.968121
32.779655
32.585297
32.38483
32.177707
35.53131
35.448862
35.36321
35.274917
35.183721
35.087246
34.985104
34.878248
34.766938
34.651277
34.531622
34.406937
34.277041
34.14187
34.001458
33.85634
33.706176
33.550679
33.389194
33.221292
33.046589
32.864979
32.676916
32.483047
32.283759
32.078508
35.519678
35.440194
35.358919
35.274826
35.186618
35.093784
34.995801
34.893164
34.786804
34.676882
34.56276
34.443926
34.319933
34.190684
34.056315
33.916842
33.772663
33.623481
33.468979
33.308845
33.142511
32.969489
32.789606
32.60305
32.41037
32.21212
32.008007
35.452508
35.373915
35.293264
35.209063
35.11961
35.025221
34.926674
34.824169
34.718256
34.608915
34.49521
34.377207
34.254279
34.126125
33.992475
33.853528
33.709703
33.561178
33.407451
33.248268
33.083054
32.911455
32.733208
32.548318
32.357232
32.160251
35.474897
35.398307
35.319228
35.23775
35.153028
35.063487
34.96958
34.872003
34.770643
34.665623
34.55663
34.443335
34.325702
34.203595
34.076712
33.944378
33.806568
33.663262
33.514803
33.361212
33.202372
33.037924
32.867318
32.690206
32.506766
32.317423
32.122162
35.431441
35.354691
35.2754
35.193358
35.107743
35.017849
34.924102
34.826976
34.726149
34.621413
34.512737
34.399607
34.282024
34.16021
34.033468
33.901798
33.765035
33.622994
33.475681
33.3232
33.165366
33.001959
32.832459
32.656576
32.474598
32.286865
32.093299
35.399819
35.322284
35.241947
35.158829
35.072473
34.9825
34.88888
34.791691
34.690362
34.58496
34.475874
34.362943
34.245974
34.124519
33.997949
33.866555
33.730358
33.589323
33.443333
33.292215
33.135604
32.97318
32.804629
32.630059
32.449567
32.263292
32.071123
35.37161
35.293856
35.213258
35.129779
35.043154
34.952963
34.85917
34.761733
34.660378
34.555301
34.446483
34.333692
34.216743
34.095466
33.969743
33.83913
33.703664
33.563216
33.41774
33.267306
33.111709
32.950482
32.783286
32.610107
32.431021
32.246158
32.055374
35.34963
35.27139
35.190345
35.106507
35.019471
34.928994
34.834938
34.737305
34.636124
34.531383
34.422924
34.310497
34.193863
34.072895
33.94745
33.817248
33.682245
33.542439
33.397832
33.248275
33.093496
32.933183
32.767168
32.595379
32.41783
32.23442
32.04503
35.332822
35.25429
35.17295
35.08866
35.001234
34.910478
34.8163
34.718725
34.617663
34.513082
34.404802
34.292491
34.175993
34.055191
33.930005
33.8003
33.665967
33.527006
33.383331
33.234794
33.08111
32.92197
32.757181
32.586656
32.41042
32.228393
35.322126
35.243213
35.161622
35.077097
34.989465
34.89848
34.804091
34.70626
34.604998
34.50028
34.391946
34.279802
34.163668
34.043357
33.918661
33.789453
33.655645
33.517259
33.374313
33.226614
33.073903
32.9159
32.752412
32.583361
32.408718
32.228361
35.318664
35.239332
35.15725
35.072275
34.98427
34.893115
34.798694
34.700911
34.599667
34.494858
34.386392
34.274152
34.158019
34.037892
33.913603
33.785024
33.652012
33.514474
33.37234
33.225432
33.073617
32.916759
32.754656
32.587145
32.414068
32.235289
35.323846
35.24411
35.161588
35.076101
34.987509
34.895747
34.800805
34.702694
34.601374
34.496727
34.38857
34.27665
34.160764
34.040784
33.916632
33.788252
33.655658
33.518821
33.377622
33.231871
33.081249
32.925536
32.76457
32.598307
32.426612
35.339971
35.259309
35.1759
35.089645
35.000469
34.908327
34.813166
34.714914
34.613465
34.508678
34.400384
34.288417
34.172623
34.052862
33.929077
33.801246
33.669369
33.533339
33.392985
33.248067
33.098333
32.943594
32.78374
32.618667
32.448313
35.368294
35.286746
35.202584
35.115725
35.026089
34.93359
34.838133
34.739606
34.637875
34.532791
34.424207
34.312011
34.196122
34.07651
33.953171
33.826038
33.694953
33.559668
33.419959
33.275642
33.126663
32.972913
32.814294
32.650637
32.481808
35.413112
35.33067
35.245703
35.158122
35.067831
34.974719
34.878665
34.779557
34.677284
34.571749
34.462886
34.350647
34.234976
34.115794
33.992978
33.866358
33.735743
33.600935
33.461744
33.318056
33.16979
33.016825
32.859123
32.696692
35.478896
35.39548
35.309579
35.221083
35.129892
35.035912
34.939055
34.839244
34.736421
34.630528
34.521493
34.409219
34.29359
34.174467
34.051691
33.925111
33.794572
33.659932
33.521081
33.377941
33.230435
33.078529
32.922254
32.761514
35.570813
35.486153
35.399049
35.309402
35.217133
35.122174
35.024462
34.923931
34.820504
34.714096
34.604603
34.491909
34.37589
34.256422
34.133378
34.006644
33.876119
33.741725
33.603387
33.461032
33.314604
33.164036
33.009226
35.695818
35.609697
35.521218
35.430296
35.336859
35.240828
35.142127
35.040672
34.936376
34.829148
34.718889
34.605501
34.488881
34.368926
34.245562
34.11871
33.988262
33.854173
33.716366
33.574739
33.429211
33.279603
35.864122
35.776271
35.686141
35.593645
35.498714
35.40127
35.301232
35.198514
35.093028
34.984691
34.873409
34.75909
34.641669
34.521071
34.397223
34.270093
34.139569
34.005559
33.868001
33.726779
33.581764
33.432813
36.089675
35.999746
35.907613
35.81318
35.71637
35.617112
35.515331
35.41095
35.30389
35.19408
35.081449
34.965934
34.847478
34.726026
34.601496
34.473779
34.342828
34.208537
34.070794
33.929518
33.784632
36.391586
36.299068
36.204391
36.107474
36.008245
35.90664
35.802597
35.696052
35.586944
35.475216
35.360816
35.243692
35.123785
35.001023
34.875318
34.746582
34.614745
34.479733
34.341486
34.199945
36.799991
36.704194
36.606293
36.506225
36.403933
36.299366
36.192475
36.083209
35.97152
35.857349
35.74064
35.62133
35.499351
35.374641
35.247143
35.116794
34.983544
34.84733
34.708095
37.363734
37.263648
37.161506
37.057267
36.950892
36.84234
36.731569
36.618534
36.503187
36.385478
36.265352
36.142756
36.017636
35.889944
35.759634
35.62666
35.49097
38.174144
38.068173
37.960194
37.850201
37.738164
37.624047
37.507812
37.38942
37.268828
37.145995
37.020883
36.893454
36.763662
36.631468
36.496832
36.359711
39.42292
39.308495
39.192054
39.073656
38.953298
38.830958
38.706605
38.580216
38.451756
38.3212
38.188515
38.053669
37.91662
37.777336
41.956967
41.840114
41.720123
41.598129
41.474425
41.349081
41.222246
41.093738
40.963688
40.831887
40.698246
40.562729
)
;

boundaryField
{
    Side
    {
        type            empty;
    }
    Inlet
    {
        type            fixedValue;
        value           uniform 60.24606;
    }
    Airfoil
    {
        type            omegaWallFunction;
        blending        binomial;
        n               2;
        value           nonuniform List<scalar> 0();
    }
    Outlet
    {
        type            inletOutlet;
        inletValue      nonuniform List<scalar> 0();
        value           nonuniform List<scalar> 0();
    }
    procBoundary9to2
    {
        type            processor;
        value           nonuniform List<scalar> 
23
(
255.54422
271.24214
288.24622
306.04248
324.34053
343.43899
364.01806
386.53134
410.86484
436.83616
464.70999
494.87683
527.56451
563.14523
602.47363
646.20099
693.40785
742.38887
793.69504
851.64492
920.88773
1002.8662
1096.8175
)
;
    }
    procBoundary9to8
    {
        type            processor;
        value           nonuniform List<scalar> 
75
(
35.556484
35.556484
35.597625
35.566011
35.566011
35.619197
35.619197
35.676912
35.676912
35.739964
35.733474
35.733474
35.811318
35.811318
35.901479
35.901479
36.005704
36.005704
36.087916
36.213213
36.213213
36.363009
36.363009
36.543521
36.543521
36.763004
36.763004
37.031753
37.031753
37.364427
37.364427
37.78083
37.78083
38.30851
38.30851
38.989942
38.989942
39.891888
39.891888
41.138136
41.138136
42.98606
45.843134
1194.8615
973.65298
477.24627
233.16938
148.45753
110.8459
88.533234
73.636977
73.636977
63.756438
56.213791
50.754462
46.818686
43.898102
41.658812
41.658812
40.173717
38.90944
37.938205
37.234492
37.234492
36.781956
36.354777
36.037037
36.037037
35.884659
35.726565
35.610688
35.610688
35.596605
35.529029
35.529029
)
;
    }
    procBoundary9to10
    {
        type            processor;
        value           nonuniform List<scalar> 
66
(
241.12141
240.18253
215.32978
168.54264
124.78564
95.721
77.556081
65.522568
56.991424
50.67716
45.905877
42.62815
42.62815
39.815442
37.705968
36.13055
34.959802
34.090971
33.440936
32.948955
32.576776
32.300645
32.102081
31.963202
31.866097
31.79699
31.957153
31.957153
31.920512
31.893381
31.872677
31.858432
31.84959
32.040484
32.040484
32.042139
32.050648
32.249333
32.249333
32.272617
32.307778
32.529502
32.529502
32.596164
32.849985
32.849985
33.125807
33.125807
33.279811
33.636091
33.636091
34.055059
34.055059
34.565776
35.352508
34.565776
35.211221
35.352508
36.220053
37.635776
36.220053
37.491897
40.425212
37.635776
40.285557
40.425212
)
;
    }
}


// ************************************************************************* //
