/*--------------------------------*- C++ -*----------------------------------*\
| =========                 |                                                 |
| \\      /  F ield         | OpenFOAM: The Open Source CFD Toolbox           |
|  \\    /   O peration     | Version:  2506                                  |
|   \\  /    A nd           | Website:  www.openfoam.com                      |
|    \\/     M anipulation  |                                                 |
\*---------------------------------------------------------------------------*/
FoamFile
{
    version     2.0;
    format      ascii;
    arch        "LSB;label=32;scalar=64";
    class       volVectorField;
    location    "0.35";
    object      U;
}
// * * * * * * * * * * * * * * * * * * * * * * * * * * * * * * * * * * * * * //

dimensions      [0 1 -1 0 0 0 0];

internalField   nonuniform List<vector> 
1375
(
(94.254623 -0.076525435 -5.664386e-17)
(94.704293 0.0064267042 6.1369707e-21)
(94.247971 0.041042785 0)
(94.252437 -0.084523185 -4.9265565e-23)
(94.710391 0.12650003 -5.2323388e-17)
(94.198837 -0.086401561 -8.1782752e-17)
(94.254167 0.037540163 0)
(94.255918 -0.090513368 6.1451557e-17)
(94.714041 0.15642843 -8.1253024e-21)
(94.109724 0.025596795 0)
(94.201039 -0.095981782 8.3513566e-17)
(94.257334 0.042876357 3.6231228e-20)
(94.261836 -0.095414357 6.4384254e-17)
(94.721652 0.051233893 -5.6586421e-17)
(94.043761 -0.048394031 4.9434689e-24)
(94.107278 0.035056378 9.8826365e-17)
(94.206522 -0.10114814 -8.730671e-17)
(94.259889 0.041701801 0)
(94.268133 -0.10407 -1.3400916e-16)
(94.723835 0.045078692 1.1811807e-16)
(94.027169 0.011757347 1.3251401e-16)
(94.043671 -0.034496299 -1.139961e-19)
(94.103375 0.038762609 1.0013239e-19)
(94.208736 -0.094352218 0)
(94.264447 0.039035304 0)
(94.275235 -0.11187321 6.9794972e-17)
(94.725669 0.061893457 1.4852381e-20)
(94.024426 -0.0086911985 -7.6372631e-17)
(94.025054 0.012407884 -6.7597687e-17)
(94.043224 -0.024986721 -1.1553608e-19)
(94.100726 0.026972651 -1.067008e-16)
(94.207507 -0.097165649 9.247767e-17)
(94.266004 0.035553902 -7.9972816e-20)
(94.27959 -0.11575364 0)
(94.730162 0.034679947 0)
(94.04194 0.007300901 0)
(94.020763 -0.004514662 7.8387917e-17)
(94.021172 0.034409094 1.3524554e-19)
(94.041436 -0.015048685 0)
(94.099319 0.020768225 0)
(94.205972 -0.086395316 -1.9291205e-16)
(94.265409 0.035724764 -8.3770993e-17)
(94.276761 -0.1151729 -1.8057358e-20)
(94.736099 0.027158919 1.3069977e-16)
(94.067132 0.015161871 7.8776124e-19)
(94.037117 0.010780037 -7.044427e-19)
(94.017929 0.0035568194 3.1491107e-19)
(94.01607 0.026894266 0)
(94.038459 -0.023571933 1.2631693e-16)
(94.096537 0.023126249 1.118057e-16)
(94.204295 -0.072503181 9.9464151e-17)
(94.263433 0.037387516 8.726073e-17)
(94.269363 -0.11479001 1.556415e-16)
(94.731571 0.022189912 -1.3577523e-16)
(94.091669 0.024762618 4.4765126e-19)
(94.061162 0.02425613 -4.0123487e-19)
(94.033068 0.015371601 9.1946048e-17)
(94.016046 0.0088137459 0)
(94.013319 0.031160958 1.4790688e-16)
(94.035363 -0.01764304 -1.3033048e-16)
(94.091355 0.040313566 -1.7720335e-23)
(94.201756 -0.061002755 0)
(94.259137 0.042098561 -4.4274574e-20)
(94.264782 -0.11112647 -1.6038445e-16)
(94.724545 0.10772705 -1.411198e-16)
(94.113059 0.050242805 6.4571832e-17)
(94.084982 0.030185177 -1.1668688e-16)
(94.055464 0.030268518 1.0482499e-16)
(94.028912 0.018172038 -9.3462291e-17)
(94.014118 0.012325017 0)
(94.012083 0.032853371 -1.4974368e-16)
(94.031985 -0.0075741248 -5.2338634e-19)
(94.084885 0.048546645 2.332332e-19)
(94.198036 -0.054752761 -1.0343007e-19)
(94.252129 0.049208081 -9.4035438e-17)
(94.266445 -0.10582086 -1.6689955e-16)
(94.734444 0.068440755 1.4689381e-16)
(94.131418 0.072156283 -7.1381364e-17)
(94.105563 0.053193122 -5.0802732e-19)
(94.078597 0.034701692 1.1791547e-16)
(94.049881 0.034768598 -1.0570681e-16)
(94.023999 0.022267301 -9.4482625e-17)
(94.01207 0.010479162 8.5014645e-17)
(94.009453 0.049492433 2.9633767e-19)
(94.028928 0.0026650842 -5.3776955e-19)
(94.079077 0.062702405 -1.2269433e-16)
(94.193126 -0.047386921 1.0910389e-16)
(94.24344 0.058220476 9.7653084e-17)
(94.266963 -0.10104354 1.7296668e-16)
(94.746857 0.03836944 0)
(94.123835 0.072383493 -5.6335592e-19)
(94.098141 0.05741902 -1.3023977e-16)
(94.072909 0.038385198 0)
(94.044497 0.038205743 1.0693899e-16)
(94.018625 0.026299411 9.6382801e-17)
(94.010043 0.018781809 -8.7061413e-17)
(94.004864 0.053246039 1.560878e-16)
(94.026709 0.0060449399 1.4118368e-16)
(94.073814 0.083555108 1.2571383e-16)
(94.1868 -0.038107858 -1.124766e-16)
(94.234412 0.068519374 2.0192456e-16)
(94.263443 -0.09723815 -8.6604309e-20)
(94.740926 0.13829666 0)
(94.140877 0.10589208 -1.2437983e-18)
(94.116024 0.071443212 1.1297639e-18)
(94.091 0.06188996 1.315806e-16)
(94.067605 0.042199339 0)
(94.03973 0.040458042 -1.0781547e-16)
(94.013831 0.030867129 9.7573149e-17)
(94.007735 0.027189279 0)
(94.0018 0.05536936 3.0746619e-19)
(94.024233 0.018902685 -2.9158569e-16)
(94.067915 0.098238073 -1.291093e-16)
(94.179018 -0.027874294 1.1319092e-19)
(94.225363 0.081919595 -2.0864003e-16)
(94.25728 -0.091117699 0)
(94.73644 0.13732191 0)
(94.150537 0.14076207 1.3635362e-18)
(94.129219 0.10830419 1.5887587e-16)
(94.107751 0.07231811 0)
(94.084514 0.065523116 0)
(94.062077 0.045192603 0)
(94.035689 0.04285409 0)
(94.00987 0.03955267 -9.9078326e-17)
(94.004852 0.034972112 3.4928367e-19)
(94.002057 0.060642352 -1.5736819e-16)
(94.024104 0.026432193 -2.8391563e-22)
(94.061704 0.10968565 -2.5909234e-19)
(94.17044 -0.016312355 2.3312155e-19)
(94.216569 0.091552102 0)
(94.249723 -0.08432255 -4.7148186e-20)
(94.743858 0.077114683 1.7244702e-16)
(94.174317 0.15550586 0)
(94.140664 0.14469657 0)
(94.118181 0.10860217 -7.7789082e-17)
(94.099032 0.076646742 -1.1264755e-18)
(94.078706 0.067340562 0)
(94.056384 0.047719638 0)
(94.032026 0.045993518 0)
(94.006346 0.046796167 -3.9040811e-19)
(94.001978 0.039573854 1.8191538e-16)
(94.001261 0.06381711 -3.1451386e-19)
(94.024796 0.021901029 2.9653331e-16)
(94.056849 0.11247096 2.6632436e-19)
(94.16196 -0.0067507691 0)
(94.208751 0.10132326 0)
(94.241256 -0.077408061 0)
(94.747036 0.075375688 -1.1947219e-21)
(94.209367 0.24668183 5.6772626e-17)
(94.182577 0.20401688 -3.1593747e-18)
(94.163189 0.15830487 1.4473297e-18)
(94.132353 0.14171894 -8.5349967e-17)
(94.107953 0.10746023 0)
(94.090434 0.080540174 -7.1628537e-17)
(94.073184 0.067215666 -1.0242723e-18)
(94.051115 0.050184931 1.2107231e-16)
(94.028383 0.049555092 0)
(94.003524 0.049276911 1.0072747e-16)
(93.999532 0.045346788 -1.8307077e-16)
(93.999495 0.066490702 0)
(94.024995 0.037408802 -1.5064812e-16)
(94.054154 0.12076249 -1.3910413e-16)
(94.154232 0.0027274102 1.2558924e-16)
(94.202137 0.10692347 -2.2869985e-16)
(94.233342 -0.068489279 2.0694075e-16)
(94.75017 0.070405413 4.5035895e-20)
(94.213901 0.30236322 1.1830063e-16)
(94.189933 0.24992501 -1.6746999e-18)
(94.165325 0.2028204 -1.5432306e-18)
(94.150721 0.16079999 -8.9304901e-17)
(94.124666 0.13484094 -1.4908704e-21)
(94.098273 0.10935672 -7.8135821e-17)
(94.082539 0.082305792 1.4259201e-16)
(94.067718 0.066579057 0)
(94.046542 0.055458478 -1.1939832e-16)
(94.024642 0.053893766 -1.0924293e-16)
(94.001745 0.054771829 -2.0097323e-16)
(93.997067 0.047863515 -1.8406531e-16)
(93.998136 0.066640886 0)
(94.024502 0.040170459 -2.9402266e-19)
(94.052434 0.12422457 2.8278432e-16)
(94.147355 0.0077815727 -1.2836256e-16)
(94.196372 0.11258037 2.3463168e-16)
(94.224591 -0.060903792 -2.1339821e-16)
(94.760699 0.0239482 -3.8689107e-16)
(94.213683 0.35716803 6.090899e-17)
(94.19195 0.30534069 2.2176019e-21)
(94.170627 0.25286045 -5.5158529e-17)
(94.148092 0.20822155 9.8871643e-17)
(94.137226 0.16356179 1.766124e-16)
(94.116682 0.12972972 8.1461912e-17)
(94.08886 0.11168155 7.5270082e-17)
(94.075134 0.081406963 -1.3874081e-16)
(94.062329 0.066973221 0)
(94.042511 0.059097199 0)
(94.020845 0.058197697 1.0768682e-16)
(94.00048 0.059659901 7.8465943e-19)
(93.994185 0.051136562 1.8353188e-16)
(93.997802 0.06806604 0)
(94.023518 0.047419046 0)
(94.050799 0.12546269 -1.4232428e-16)
(94.140943 0.015862992 0)
(94.191273 0.11379735 0)
(94.214684 -0.053419444 5.3736917e-20)
(94.769005 0.022542523 3.9805099e-16)
(94.209533 0.50076919 3.3407674e-17)
(94.198515 0.41829699 -6.1785725e-17)
(94.184977 0.35063656 -3.5733682e-18)
(94.169868 0.30107791 -1.026382e-16)
(94.151038 0.25131184 -5.2068957e-17)
(94.131387 0.20045239 -1.7888364e-16)
(94.122751 0.16411599 -8.3931392e-17)
(94.108171 0.12679394 0)
(94.080068 0.1141898 -7.1980262e-17)
(94.067751 0.080604513 1.3311228e-16)
(94.057266 0.069366111 9.6316261e-19)
(94.039408 0.063623306 1.133565e-16)
(94.017726 0.062597807 -8.2573538e-19)
(93.999723 0.064423436 9.8575871e-17)
(93.991658 0.053163931 -1.8054882e-16)
(93.997495 0.073831713 -1.6596996e-16)
(94.023051 0.052914957 -5.9736253e-19)
(94.048411 0.12561202 5.5566988e-19)
(94.134137 0.020205794 -1.3213799e-16)
(94.186599 0.11737017 -2.4497929e-16)
(94.203956 -0.047909151 2.2630475e-16)
(94.766451 0.037043119 -1.1827983e-21)
(89.185236 0.016436152 -1.2709334e-18)
(88.959655 0.013565131 1.3339332e-18)
(88.720795 0.010294512 0)
(88.489339 0.0083551792 0)
(88.2625 0.010110165 -1.5450866e-18)
(88.024886 0.013303168 1.6226804e-18)
(87.765267 0.018184682 0)
(87.478223 0.031712812 0)
(87.18195 0.052576903 -1.8771008e-18)
(86.907144 0.069903932 1.9723791e-18)
(86.646195 0.073650226 -2.0736099e-18)
(86.352866 0.087414588 2.1777959e-18)
(85.982145 0.099363355 2.284427e-18)
(85.550742 0.090719558 -2.395508e-18)
(85.147716 0.094652642 2.5173541e-18)
(84.800788 0.12108448 -2.6496766e-18)
(84.420604 0.13208066 2.7863393e-18)
(83.869309 0.16272409 -2.9202607e-18)
(83.119775 0.10278446 3.0579977e-18)
(82.383037 0.019636013 -3.2072503e-18)
(81.829122 0.19729039 0)
(81.369597 0.37945628 0)
(80.820238 0.32571776 0)
(90.272572 0.027484172 0)
(90.150536 0.026663858 0)
(90.029998 0.021580898 0)
(89.937587 0.01854865 -1.362516e-18)
(89.865647 0.02038691 1.4318779e-18)
(89.793836 0.0228612 3.0064103e-18)
(89.718331 0.02735466 1.5997118e-22)
(89.649963 0.037398265 -6.5946772e-18)
(89.607043 0.053750665 6.8841841e-18)
(89.595539 0.062163954 -3.6293506e-18)
(89.60245 0.065094378 0)
(89.609529 0.072202079 0)
(89.583536 0.087156425 0)
(89.530815 0.07524701 0)
(89.520917 0.060699076 0)
(89.58067 0.061496262 0)
(89.622106 0.072908223 0)
(89.5547 0.12613962 0)
(89.275908 0.11545949 -5.5858222e-18)
(89.143066 -0.041851708 5.9518166e-18)
(89.14721 0.036823816 0)
(89.293161 0.22973805 6.455918e-18)
(89.373042 0.23616337 -1.3777268e-17)
(91.735317 0.031720357 2.1810661e-18)
(91.734885 0.031777356 -2.2899519e-18)
(91.730863 0.028467623 0)
(91.743074 0.021496938 0)
(91.78852 0.02106869 0)
(91.830957 0.025835915 0)
(91.864757 0.029591069 0)
(91.896145 0.037026639 0)
(91.942783 0.051598168 -3.2320205e-18)
(92.026138 0.063720712 3.3796346e-18)
(92.11529 0.063715284 0)
(92.167727 0.082388576 0)
(92.189432 0.099264395 0)
(92.206622 0.09210707 0)
(92.253363 0.066843462 0)
(92.301673 0.082161516 4.4552985e-18)
(92.310391 0.10790472 -4.7219485e-18)
(92.197462 0.22839668 -5.0053512e-18)
(91.992849 0.20836525 5.22568e-18)
(91.842879 0.022156981 0)
(91.735423 0.11860097 -5.7018161e-18)
(91.679521 0.25882372 6.0723074e-18)
(91.669159 0.27902697 0)
(92.854883 0.026459776 0)
(92.892148 0.027983167 -2.1222266e-18)
(92.919551 0.021901999 -8.8794266e-23)
(92.949908 0.013055854 2.3423068e-18)
(92.991128 0.011709482 0)
(93.031381 0.015473999 0)
(93.057525 0.021522874 0)
(93.06964 0.025591127 0)
(93.080747 0.037446048 0)
(93.114043 0.042607092 0)
(93.143945 0.044391977 0)
(93.147926 0.061247366 0)
(93.126109 0.087163117 0)
(93.117436 0.075563239 0)
(93.120835 0.057666513 0)
(93.091052 0.060224713 0)
(92.970611 0.09776184 0)
(92.839284 0.18648153 -4.6293314e-18)
(92.68265 0.21503031 4.8565738e-18)
(92.502942 0.038124645 0)
(92.311114 0.1073546 0)
(92.14454 0.37413607 0)
(92.072553 0.48693861 0)
(93.43434 0.020749437 0)
(93.458457 0.02338044 0)
(93.469877 0.019562463 0)
(93.476159 0.011996133 0)
(93.484656 0.0084841958 0)
(93.495156 0.014948331 -2.3653884e-18)
(93.498642 0.01944321 2.4916654e-18)
(93.47849 0.030365507 0)
(93.45442 0.040024964 0)
(93.448957 0.045562628 -2.9152609e-18)
(93.444587 0.049693689 6.1236808e-18)
(93.401184 0.077925214 -6.3551156e-18)
(93.366393 0.096145797 3.3348832e-18)
(93.356168 0.092476296 -3.5455207e-18)
(93.346778 0.088399423 3.7332434e-18)
(93.244313 0.091264118 0)
(93.092414 0.12843707 0)
(92.98057 0.23001918 4.2873721e-18)
(92.854548 0.24589362 -4.5044692e-18)
(92.659325 0.089747252 0)
(92.410549 0.17996796 0)
(92.201965 0.39755998 0)
(92.118244 0.49398589 5.2911229e-18)
(93.679525 0.017581512 -7.7779701e-23)
(93.688341 0.021749943 3.6068548e-18)
(93.688855 0.019393719 -1.9003776e-18)
(93.675635 0.0093536409 -2.0024895e-18)
(93.664843 0.0072977707 2.1076995e-18)
(93.659173 0.012097283 0)
(93.646267 0.023234535 0)
(93.608812 0.03026011 0)
(93.570796 0.039814997 0)
(93.546604 0.047081111 0)
(93.515706 0.051042329 0)
(93.462307 0.077141851 0)
(93.431568 0.096388241 0)
(93.425833 0.091038435 0)
(93.4175 0.098501051 0)
(93.284934 0.11813463 7.1673692e-18)
(93.118812 0.15592294 -1.5018181e-17)
(93.026809 0.24395642 -1.3692446e-21)
(92.938965 0.2938813 -1.7900056e-21)
(92.765952 0.15748035 8.7352113e-18)
(92.499189 0.261488 -9.1024374e-18)
(92.250052 0.50235571 -2.4057096e-21)
(92.135239 0.60535805 -4.184842e-22)
(93.776057 0.016627517 -1.5987031e-18)
(93.778529 0.02012578 0)
(93.774304 0.019399009 0)
(93.751844 0.012923673 0)
(93.731269 0.0086928185 3.9056785e-18)
(93.714415 0.015012546 -4.109217e-18)
(93.690247 0.026730317 0)
(93.648901 0.036812011 0)
(93.607118 0.045807559 0)
(93.57487 0.053244055 0)
(93.535051 0.059833166 0)
(93.480754 0.084304479 0)
(93.451504 0.10016701 0)
(93.446359 0.094808737 0)
(93.436676 0.11184519 6.3939121e-18)
(93.297728 0.15235563 -6.6281842e-18)
(93.138309 0.18249347 0)
(93.061613 0.24925544 7.3460528e-18)
(92.998208 0.30373611 -7.7462696e-18)
(92.849079 0.20067882 0)
(92.586048 0.30764229 0)
(92.314472 0.52216649 8.7712796e-18)
(92.145683 0.63915801 -9.0980885e-18)
(93.810645 0.013468583 1.3447026e-22)
(93.810017 0.020315328 -6.3040751e-18)
(93.80363 0.022812858 6.5914387e-18)
(93.78036 0.015007239 -3.4472051e-18)
(93.754271 0.011114603 3.6188854e-18)
(93.730325 0.018044215 -3.8036672e-18)
(93.701551 0.031784753 0)
(93.660563 0.042528985 0)
(93.617271 0.050742255 0)
(93.580902 0.059872806 0)
(93.540241 0.068481359 0)
(93.489403 0.090922147 0)
(93.458545 0.1044215 0)
(93.449955 0.096909445 5.647887e-18)
(93.432214 0.12845314 5.5842319e-22)
(93.296339 0.19219628 -6.1355815e-18)
(93.156646 0.21433329 0)
(93.089154 0.26429017 0)
(93.035523 0.33493394 -7.1770909e-18)
(92.909087 0.27008271 7.5025258e-18)
(92.662049 0.40935218 0)
(92.384727 0.61779997 0)
(92.205867 0.76142537 8.4038564e-18)
(93.8174 0.014248045 0)
(93.814731 0.019260483 2.9153195e-18)
(93.809576 0.02326291 -6.1158939e-18)
(93.788395 0.018909656 6.3961738e-18)
(93.758973 0.014774887 1.2850828e-22)
(93.731185 0.021877958 -3.5234424e-18)
(93.702152 0.037713648 0)
(93.663368 0.049318929 -3.8779355e-18)
(93.618064 0.057058278 -1.8884747e-22)
(93.57855 0.066788116 4.2723616e-18)
(93.541928 0.07623078 0)
(93.49931 0.095947034 0)
(93.463394 0.11025782 -4.9347914e-18)
(93.442447 0.099073447 5.2182118e-18)
(93.406984 0.1403574 -5.465089e-18)
(93.286689 0.22367971 5.6848879e-18)
(93.168169 0.24159515 -5.9578296e-18)
(93.1042 0.26455835 1.2589895e-17)
(93.052923 0.34901406 1.0026755e-21)
(92.94912 0.31738821 -6.9540457e-18)
(92.724099 0.45885929 -7.2390193e-18)
(92.454357 0.64051398 7.4786034e-18)
(92.306996 0.73153765 0)
(92.30692 1.0915232 -8.3760623e-18)
(93.811887 0.013696623 0)
(93.808262 0.018898932 0)
(93.804541 0.024869013 2.8382803e-18)
(93.78632 0.02238564 -5.9347853e-18)
(93.75484 0.019101603 3.1080452e-18)
(93.725041 0.026530164 0)
(93.698121 0.043140177 3.4315096e-18)
(93.663282 0.056811603 -3.597294e-18)
(93.615894 0.064762777 -3.767001e-18)
(93.572552 0.074671383 3.9540049e-18)
(93.540238 0.084371212 0)
(93.508081 0.10317965 0)
(93.468224 0.12326564 0)
(93.429719 0.11242031 -4.8201281e-18)
(93.377635 0.15666581 -4.2064559e-22)
(93.279956 0.24941097 1.0547373e-17)
(93.183411 0.27192296 -5.5285886e-18)
(93.118414 0.28159639 0)
(93.06087 0.37328033 -6.1449704e-18)
(92.974173 0.38423019 -1.1048553e-21)
(92.783947 0.54636846 6.6988353e-18)
(92.540135 0.71669234 0)
(92.425625 0.79466435 7.182509e-18)
(92.432631 1.1240168 -7.7502933e-18)
(93.801753 0.013594885 0)
(93.797279 0.018383365 0)
(93.794275 0.025786345 0)
(93.778956 0.026557464 0)
(93.746329 0.023939464 0)
(93.715043 0.031265044 0)
(93.690767 0.048098956 0)
(93.661772 0.064190347 0)
(93.614433 0.073760438 -6.9833918e-18)
(93.566384 0.082729088 7.3174645e-18)
(93.53596 0.091133894 0)
(93.513417 0.10786442 -8.1103279e-18)
(93.474572 0.13557959 -6.6552258e-22)
(93.42011 0.12764311 1.7817879e-17)
(93.358814 0.17186475 7.2355952e-22)
(93.283294 0.26783046 9.1594759e-22)
(93.206801 0.28852549 1.0577082e-21)
(93.136674 0.2828546 -1.0780903e-17)
(93.064514 0.39041717 0)
(92.990728 0.42831142 0)
(92.848554 0.58073922 0)
(92.634855 0.74173783 -1.28008e-17)
(92.547321 0.80129998 1.3296636e-17)
(92.556931 1.0461292 0)
(93.785057 0.018042685 0)
(93.781741 0.026242119 0)
(93.76908 0.030832959 -5.1125711e-18)
(93.736746 0.029491541 5.3442793e-18)
(93.703792 0.036159567 0)
(93.681246 0.052488499 -5.9028015e-18)
(93.658857 0.071191334 1.2398345e-17)
(93.615894 0.084131391 -1.2956839e-17)
(93.56377 0.09166182 6.7750948e-18)
(93.532248 0.098029819 0)
(93.515359 0.11245861 0)
(93.48197 0.14887483 0)
(93.418958 0.14939557 0)
(93.356116 0.18815419 0)
(93.296779 0.2877771 0)
(93.231824 0.31863555 0)
(93.152994 0.30206167 0)
(93.065224 0.42417987 0)
(93.00532 0.48435942 0)
(92.928565 0.63308392 -1.1532638e-17)
(92.750323 0.81380518 1.1879349e-17)
(92.665429 0.80961606 0)
(92.656425 1.0777923 0)
(93.773143 0.017857818 -4.2989648e-18)
(93.768577 0.026292898 0)
(93.758424 0.034720708 -4.7468694e-18)
(93.729203 0.035840599 -1.8614579e-22)
(93.694872 0.041445348 1.0393428e-17)
(93.671999 0.056294927 -1.0941875e-17)
(93.65406 0.076193529 5.7539508e-18)
(93.619084 0.095410353 0)
(93.566489 0.10088452 0)
(93.532249 0.10587152 6.6141307e-18)
(93.516412 0.11704099 -6.9836812e-18)
(93.487926 0.16062085 7.3075018e-18)
(93.423207 0.17245163 -7.629589e-18)
(93.363764 0.20056638 0)
(93.316768 0.29383827 0)
(93.260491 0.34646002 0)
(93.175443 0.31944527 0)
(93.070696 0.43903739 9.6025358e-18)
(93.015628 0.49646058 5.8309847e-22)
(92.998696 0.59501927 -1.0777993e-17)
(92.869725 0.83881059 0)
(92.745058 0.84188277 0)
(92.718464 1.0314522 0)
(93.763103 0.01821754 0)
(93.756683 0.026503457 4.1984067e-18)
(93.748465 0.037666855 -4.4072959e-18)
(93.725555 0.042175156 0)
(93.691942 0.047397834 0)
(93.666327 0.061165085 0)
(93.648279 0.080431015 0)
(93.621011 0.10422545 0)
(93.573985 0.11204534 0)
(93.53723 0.11227242 0)
(93.518439 0.12352747 0)
(93.490927 0.16724426 0)
(93.430307 0.19653217 0)
(93.37751 0.21643062 0)
(93.33842 0.30453287 0)
(93.291476 0.38115756 0)
(93.21916 0.34814183 0)
(93.110226 0.47199794 0)
(93.034789 0.5575851 0)
(93.017355 0.59301381 0)
(92.981228 0.89139594 0)
(92.86482 0.94264992 0)
(92.823508 1.0411229 0)
(93.757595 0.019276764 0)
(93.748963 0.027067109 0)
(93.741297 0.039429219 0)
(93.725335 0.048277909 0)
(93.695541 0.053280489 0)
(93.665495 0.065367394 4.6986573e-18)
(93.64293 0.085311221 -4.9409362e-18)
(93.620127 0.11292205 -1.0367006e-17)
(93.584252 0.12264013 2.1679592e-17)
(93.547759 0.12400762 -2.2757603e-17)
(93.52272 0.13564373 1.1978914e-17)
(93.490103 0.17498668 0)
(93.435897 0.21889838 0)
(93.394589 0.23420451 0)
(93.361575 0.30804048 1.4473872e-17)
(93.314779 0.38691304 -1.5183715e-17)
(93.264637 0.37551057 -1.5935937e-17)
(93.187457 0.48569006 1.6568484e-17)
(93.094065 0.58849117 0)
(93.063112 0.63463751 0)
(93.072345 0.73212944 0)
(93.01366 0.92841442 2.0036419e-17)
(92.943928 1.0611902 -2.0905664e-17)
(93.758478 0.020665447 -3.4319561e-18)
(93.747045 0.027757303 -7.2114751e-18)
(93.738153 0.039891569 -2.6643443e-22)
(93.72672 0.053108605 1.5920539e-17)
(93.70309 0.061742446 3.1492623e-22)
(93.669607 0.073075556 -8.7145395e-18)
(93.641189 0.089879385 0)
(93.62023 0.11973438 0)
(93.594811 0.12842811 0)
(93.561483 0.12880903 0)
(93.531823 0.14751437 0)
(93.495929 0.17991337 0)
(93.447298 0.23184901 0)
(93.418166 0.23937698 1.2789301e-17)
(93.401628 0.30608371 -1.3455329e-17)
(93.354703 0.44837171 -1.4008804e-17)
(93.30588 0.4030121 -5.6220867e-22)
(93.27139 0.46571783 1.5471101e-17)
(93.193583 0.61740735 -1.6026871e-17)
(93.134542 0.63047314 -4.2195614e-22)
(93.117148 0.73465092 3.5681954e-17)
(93.100288 1.0000883 -3.7374006e-17)
(93.065903 1.0350348 3.8941947e-17)
(93.038696 1.1996865 -2.0390918e-17)
(93.765892 0.023076538 -6.3780721e-18)
(93.750926 0.029476817 -2.5234751e-22)
(93.739213 0.040333195 7.0293344e-18)
(93.72938 0.055826249 0)
(93.712898 0.068226619 0)
(93.681491 0.081245177 -8.0889638e-18)
(93.650251 0.095990601 1.6965986e-17)
(93.629894 0.12666304 -1.7851602e-17)
(93.608444 0.14145346 1.8713012e-17)
(93.572977 0.14185559 3.2324433e-22)
(93.539911 0.16544853 -1.0275127e-17)
(93.511464 0.1960548 0)
(93.473252 0.25156297 0)
(93.449913 0.26408102 1.1838099e-17)
(93.445944 0.30085308 6.7572957e-22)
(93.413137 0.39455091 -1.2978908e-17)
(93.349222 0.45200668 1.3569531e-17)
(93.327867 0.47023496 -1.4379845e-17)
(93.299384 0.61249853 1.4999557e-17)
(93.231462 0.67752694 -1.5469993e-17)
(93.194292 0.71103653 -1.6367658e-17)
(93.188245 0.92144943 3.4500229e-17)
(93.173599 1.0813518 -1.4336786e-22)
(93.167166 1.1830669 -1.8318301e-17)
(93.778596 0.02597791 -5.9287419e-18)
(93.760745 0.032983089 1.2418333e-17)
(93.745516 0.042213787 2.1790071e-22)
(93.734901 0.057738302 -6.853784e-18)
(93.723506 0.073693552 0)
(93.700396 0.089371534 0)
(93.670701 0.10215756 0)
(93.650366 0.12883734 0)
(93.632409 0.14478758 0)
(93.596928 0.15443672 0)
(93.561175 0.18464175 0)
(93.542854 0.1939771 1.0011607e-17)
(93.518277 0.24481236 -1.0447473e-17)
(93.483993 0.26644307 0)
(93.467333 0.29085567 0)
(93.45773 0.44925214 -1.2123607e-17)
(93.418315 0.49814959 1.254655e-17)
(93.385162 0.48171988 1.3216639e-17)
(93.373269 0.54800165 -1.3970563e-17)
(93.345124 0.70396773 0)
(93.305358 0.75128656 0)
(93.294824 0.83925721 -1.5810651e-17)
(93.299881 1.0454815 1.6556323e-17)
(93.314553 1.1462751 0)
(93.793487 0.029297134 5.5117326e-18)
(93.774681 0.036814441 0)
(93.756371 0.044674969 0)
(93.74379 0.059315786 0)
(93.734904 0.075977772 0)
(93.723316 0.095396104 0)
(93.700179 0.10800792 -7.314006e-18)
(93.673756 0.14008384 7.6720971e-18)
(93.653135 0.15672678 -8.0564224e-18)
(93.624566 0.15816965 1.6811395e-17)
(93.591 0.18900843 -8.7862599e-18)
(93.57693 0.20111827 9.2950523e-18)
(93.567281 0.25679852 -9.7444762e-18)
(93.52339 0.28996505 0)
(93.494566 0.30508427 -1.0519287e-17)
(93.496745 0.37888812 1.1015932e-17)
(93.497394 0.45437502 1.1516757e-17)
(93.461901 0.56980436 -1.2125013e-17)
(93.445611 0.56169701 1.282717e-17)
(93.440283 0.63891098 1.3694408e-22)
(93.425518 0.75914347 4.3556858e-23)
(93.407303 0.80754671 -9.2942666e-22)
(93.429129 1.0715262 -1.5225369e-17)
(93.453294 1.0898142 0)
(93.437384 1.1405377 0)
(93.806424 0.032963072 0)
(93.788223 0.041538053 0)
(93.76919 0.048846418 0)
(93.755332 0.061269261 1.1772444e-17)
(93.745698 0.078222034 -1.2372552e-17)
(93.737984 0.098651338 0)
(93.725616 0.1108179 0)
(93.698541 0.14573778 1.4209075e-17)
(93.676513 0.16450876 4.456984e-22)
(93.660597 0.1734097 -1.5670054e-17)
(93.631477 0.20626185 0)
(93.605757 0.21422459 -1.7158478e-17)
(93.59631 0.23187398 -5.7317998e-22)
(93.574954 0.30555445 -7.516524e-22)
(93.544204 0.33583791 -3.79083e-22)
(93.538499 0.38611764 -5.6488378e-22)
(93.539342 0.46544529 2.123967e-17)
(93.539137 0.50612891 2.2337252e-17)
(93.532418 0.56396289 9.9838648e-23)
(93.528313 0.65977496 -2.5155982e-17)
(93.521094 0.71830511 2.5847248e-17)
(93.507624 0.77219123 -1.4784713e-21)
(93.551247 0.95564352 -9.3320483e-22)
(93.568268 0.99037559 -6.046338e-17)
(93.579211 1.1494045 3.1559936e-17)
(93.816941 0.036660887 0)
(93.800571 0.04524409 -9.9683109e-18)
(93.782854 0.052598546 2.0884712e-17)
(93.768586 0.062308528 -1.0949521e-17)
(93.755808 0.077540879 1.1462978e-17)
(93.743915 0.1002017 3.0416341e-22)
(93.736413 0.11033138 -1.2661479e-17)
(93.72507 0.15132976 0)
(93.702349 0.1757166 -1.3815161e-17)
(93.6895 0.16826989 2.9128541e-17)
(93.677017 0.20153123 4.2195769e-22)
(93.643304 0.24913211 2.6763087e-22)
(93.619589 0.25440131 -1.660396e-17)
(93.609266 0.2740934 0)
(93.601169 0.32161648 1.8196343e-17)
(93.596706 0.36354591 -1.9197603e-17)
(93.593858 0.45928219 0)
(93.588795 0.50565708 0)
(93.59503 0.56324571 2.1829171e-17)
(93.606098 0.62212251 -2.2451685e-17)
(93.59578 0.65644052 0)
(93.600243 0.85186944 0)
(93.63369 0.83068901 0)
(93.644277 0.91751877 0)
(93.732275 1.1219441 0)
(93.826184 0.039699311 8.8486341e-18)
(93.811807 0.048605624 -1.8537242e-17)
(93.79511 0.058807269 9.7070682e-18)
(93.780727 0.068572028 -1.0183679e-17)
(93.76728 0.08190521 1.064903e-17)
(93.751052 0.10714111 0)
(93.74326 0.11855581 1.1539211e-17)
(93.743566 0.13574551 -1.2181786e-17)
(93.726846 0.18364572 0)
(93.708005 0.19088205 -1.3446536e-17)
(93.704813 0.18489076 1.422749e-17)
(93.693226 0.23978449 0)
(93.666094 0.27504197 0)
(93.650222 0.29202545 0)
(93.639054 0.31985669 0)
(93.634 0.35801974 0)
(93.636885 0.42538659 0)
(93.636071 0.49649327 0)
(93.652503 0.55817108 2.0032457e-17)
(93.659164 0.5704222 -2.0784837e-17)
(93.655668 0.6984265 0)
(93.696469 0.74485021 0)
(93.713298 0.77520027 0)
(93.725725 0.86581591 0)
(93.824173 0.98500996 -2.6162924e-17)
(93.860442 0.96308384 5.6046469e-17)
(93.835242 0.043177165 0)
(93.822342 0.049598765 8.6203413e-18)
(93.805943 0.061777508 -9.014892e-18)
(93.791466 0.072075147 0)
(93.781773 0.080208043 -9.9258336e-18)
(93.769015 0.10283448 -3.333011e-22)
(93.754284 0.11880236 1.0813455e-17)
(93.748706 0.12834036 0)
(93.745826 0.17796655 -1.1985141e-17)
(93.731985 0.20342551 2.4921069e-17)
(93.721467 0.19458663 -2.6152415e-17)
(93.714632 0.2368635 2.7437565e-17)
(93.706315 0.27426512 2.7125007e-23)
(93.698514 0.28204294 -1.5046355e-17)
(93.686879 0.33717767 0)
(93.677324 0.34948256 -1.6436542e-17)
(93.678774 0.38510933 -2.1499819e-22)
(93.692836 0.51192939 1.780366e-17)
(93.704154 0.51609465 0)
(93.701439 0.53089227 0)
(93.720048 0.66995344 0)
(93.760563 0.71359904 0)
(93.766891 0.68792841 0)
(93.80115 0.81119822 0)
(93.882108 0.84488109 2.4570072e-17)
(93.901791 0.83797952 -2.6270077e-17)
(93.8459 0.045649663 7.6561497e-18)
(93.833418 0.054763494 -8.0214571e-18)
(93.816751 0.066703763 0)
(93.799675 0.078766211 0)
(93.789737 0.086154304 0)
(93.784151 0.10255149 9.6712481e-18)
(93.775215 0.130923 -1.0094404e-17)
(93.764068 0.14402577 2.1145493e-17)
(93.757366 0.15766998 -2.2201949e-17)
(93.74864 0.19820083 2.307725e-17)
(93.738472 0.1999881 -2.3921772e-17)
(93.736877 0.2230204 -2.4974172e-17)
(93.740993 0.27827698 2.6121119e-17)
(93.740957 0.28362596 2.7646842e-17)
(93.73439 0.31554459 -5.8271341e-17)
(93.724604 0.35500159 3.0076191e-17)
(93.719918 0.3676523 0)
(93.726329 0.45146098 3.3542652e-17)
(93.745669 0.50446531 -3.5058337e-17)
(93.758224 0.50595502 0)
(93.7874 0.62913715 -3.7798654e-17)
(93.807494 0.6177046 4.0130642e-17)
(93.811107 0.63014665 0)
(93.874927 0.76526296 0)
(93.935299 0.74199505 0)
(93.957505 0.73798209 -4.8457763e-17)
(93.854989 0.04937027 -7.1197934e-18)
(93.841808 0.055628779 1.4919029e-17)
(93.82796 0.067718056 -3.122036e-17)
(93.812537 0.084014464 -4.4019265e-22)
(93.800923 0.086622104 3.4070751e-17)
(93.795961 0.097395258 -1.7930823e-17)
(93.793821 0.11271354 0)
(93.788986 0.14257859 0)
(93.780516 0.17960127 0)
(93.7711 0.19503365 0)
(93.763219 0.19726852 0)
(93.76183 0.21917269 0)
(93.765901 0.25948771 0)
(93.764042 0.27899343 -2.5702435e-17)
(93.759899 0.3106528 5.2943201e-17)
(93.76171 0.34739999 -2.7668148e-17)
(93.757278 0.35652189 -2.9338283e-17)
(93.773801 0.45132558 3.0844636e-17)
(93.800796 0.4585319 3.2343743e-17)
(93.808453 0.44270616 -3.4130018e-17)
(93.829104 0.58265811 3.5435589e-17)
(93.85477 0.58334305 -3.7228002e-17)
(93.877991 0.50192241 0)
(93.933042 0.70569238 0)
(93.975363 0.67014371 0)
(94.001796 0.66382747 -4.4601698e-17)
(94.065455 0.83405961 4.6157196e-17)
(93.851913 0.059747785 -3.7450316e-22)
(93.840434 0.073008425 1.4523672e-17)
(93.829725 0.084542046 0)
(93.820167 0.091611664 0)
(93.812472 0.10021618 -1.6624481e-17)
(93.805502 0.11998519 1.7314958e-17)
(93.802442 0.12478967 0)
(93.801764 0.16646986 0)
(93.79488 0.20429745 0)
(93.78803 0.19655204 0)
(93.78653 0.21479146 0)
(93.785911 0.24611052 0)
(93.785237 0.26562833 -2.3676041e-17)
(93.794569 0.32564159 4.9501436e-17)
(93.800436 0.31803682 -2.5644623e-17)
(93.79698 0.33971617 0)
(93.821924 0.39607047 0)
(93.83853 0.40598354 0)
(93.837455 0.43066524 0)
(93.871327 0.52048179 0)
(93.903315 0.48755049 0)
(93.923275 0.50722491 3.597658e-17)
(93.970141 0.6276715 -3.732892e-17)
(94.01147 0.57816266 -3.9210623e-17)
(94.048338 0.62132145 8.1937275e-17)
(94.111491 0.68840966 -3.1942895e-21)
(93.864404 0.058069313 -2.5849511e-17)
(93.855566 0.076649213 1.3531318e-17)
(93.845527 0.084744589 0)
(93.835683 0.088239123 0)
(93.8288 0.096811764 0)
(93.821537 0.1209825 1.61292e-17)
(93.815135 0.1349094 -3.3493153e-17)
(93.814311 0.14676731 1.76285e-17)
(93.815188 0.19805016 -1.8435487e-17)
(93.816185 0.20055682 1.9407079e-17)
(93.815926 0.2087824 0)
(93.813526 0.23484529 0)
(93.813427 0.25124824 -2.1913447e-17)
(93.826957 0.29468716 2.3093811e-17)
(93.832133 0.2895698 -2.4454476e-17)
(93.835568 0.35939665 2.5484338e-17)
(93.85937 0.36825128 0)
(93.867074 0.35910583 -2.7936697e-17)
(93.871127 0.39818772 2.9253858e-17)
(93.913059 0.44531546 0)
(93.940222 0.43462552 -3.1755861e-17)
(93.962928 0.45172528 1.9022567e-21)
(94.002422 0.56015725 3.4535022e-17)
(94.037794 0.50277469 -3.6203692e-17)
(94.074225 0.54021544 2.1870076e-21)
(94.125273 0.6005431 3.9255436e-17)
(94.170021 0.55511176 0)
(93.874263 0.059279973 0)
(93.867933 0.07242388 1.2616026e-17)