/*--------------------------------*- C++ -*----------------------------------*\
| =========                 |                                                 |
| \\      /  F ield         | OpenFOAM: The Open Source CFD Toolbox           |
|  \\    /   O peration     | Version:  2506                                  |
|   \\  /    A nd           | Website:  www.openfoam.com                      |
|    \\/     M anipulation  |                                                 |
\*---------------------------------------------------------------------------*/
FoamFile
{
    version     2.0;
    format      ascii;
    arch        "LSB;label=32;scalar=64";
    class       volScalarField;
    location    "0.0003";
    object      rho;
}
// * * * * * * * * * * * * * * * * * * * * * * * * * * * * * * * * * * * * * //

dimensions      [1 -3 0 0 0 0 0];

internalField   nonuniform List<scalar> 
3420
(
0.65213439
0.67716928
0.7187909
0.71658743
0.67396938
0.64942865
0.65445463
0.66525021
0.65218611
0.67714584
0.71861287
0.71638056
0.67391656
0.6494841
0.65450024
0.66884735
0.68449713
0.68262542
0.66524071
0.65223812
0.67712441
0.71843668
0.71617843
0.67386857
0.64953849
0.65453968
0.66883042
0.67053563
0.6857592
0.68567072
0.68661739
0.68834393
0.68443809
0.6825675
0.66522843
0.65228823
0.67710655
0.71826882
0.71597924
0.67382165
0.64959389
0.65457744
0.6688123
0.67051563
0.68387306
0.68340116
0.68570328
0.6856131
0.68655958
0.68827447
0.6843816
0.68251155
0.66521326
0.65233577
0.67709454
0.71811434
0.71577885
0.6737696
0.64965008
0.65461703
0.66879101
0.67049596
0.68934902
0.68704984
0.68381882
0.68335667
0.68564897
0.68555657
0.68650255
0.68820653
0.68432548
0.68245615
0.66519805
0.65238154
0.67708643
0.71797364
0.71558022
0.67371192
0.64970677
0.65465928
0.6687675
0.67047446
0.66782664
0.66593782
0.66523342
0.66508469
0.66507105
0.68815971
0.68882839
0.68928341
0.6869839
0.68376509
0.68331188
0.68559464
0.68549978
0.68644554
0.68813952
0.6842695
0.68240078
0.6651797
0.65242421
0.67707947
0.71784248
0.71539086
0.67365202
0.64975757
0.65470414
0.66874525
0.6704534
0.6678198
0.66593628
0.66523318
0.66508445
0.665071
0.66507057
0.66507056
0.6892949
0.68808908
0.68876254
0.68921551
0.68691511
0.6837063
0.68326258
0.68553766
0.68544084
0.68638616
0.68806945
0.68421105
0.6823418
0.66515801
0.65246492
0.677067
0.71770589
0.71520735
0.67359475
0.64980165
0.65474579
0.66872779
0.67043333
0.66781254
0.66593544
0.66523293
0.66508423
0.66507095
0.66507057
0.66507056
0.66507056
0.68928113
0.68921208
0.68801325
0.68868735
0.68913689
0.68683697
0.68364113
0.68320529
0.68547229
0.68537647
0.6863176
0.68798821
0.68414728
0.68227406
0.66515006
0.65251331
0.67703085
0.71751902
0.71501707
0.67355298
0.64985092
0.65477751
0.66871194
0.67041262
0.66780323
0.66593422
0.66523269
0.66508406
0.66507095
0.66507057
0.66507056
0.66507056
0.68930048
0.68919962
0.68913135
0.68793903
0.68861328
0.68905875
0.68676027
0.68357824
0.68315009
0.68540706
0.68531135
0.68624952
0.6879081
0.68408406
0.68220907
0.66514159
0.65256669
0.67700076
0.71732689
0.71481162
0.67350912
0.64990806
0.65481251
0.66869288
0.6703925
0.6677928
0.66593073
0.66523262
0.66508413
0.66507095
0.66507057
0.66507056
0.66507056
0.66507055
0.68966658
0.68922131
0.6891208
0.68905172
0.68786601
0.68854226
0.68898212
0.68668464
0.68351711
0.68309803
0.68534445
0.68524796
0.686185
0.68783193
0.68402229
0.6821471
0.66512898
0.65261826
0.67698116
0.71715258
0.71459856
0.67345727
0.64997024
0.65485402
0.66866881
0.67037068
0.66778415
0.66592706
0.66523205
0.66508448
0.66507102
0.66507057
0.66507056
0.66507056
0.66507055
0.68813656
0.68958958
0.68914594
0.68904494
0.68897389
0.68779458
0.68847448
0.68890867
0.68661148
0.68345756
0.68304785
0.68528355
0.68518532
0.68612081
0.68775679
0.68396077
0.68208613
0.66511648
0.65266848
0.67696555
0.71699259
0.71438834
0.67339887
0.65003119
0.65490052
0.66864193
0.67034753
0.66777678
0.66592501
0.6652316
0.66508453
0.66507107
0.66507057
0.66507056
0.66507056
0.66507055
0.66507055
0.68581775
0.68806626
0.68951299
0.68907133
0.68897113
0.68889917
0.68772545
0.68840869
0.68883668
0.68653963
0.68339952
0.68299909
0.68522444
0.68512438
0.68605869
0.68768364
0.68390115
0.6820263
0.66510312
0.65271828
0.67694971
0.71683352
0.71418867
0.67334261
0.65008371
0.65494614
0.66862063
0.67032547
0.6677694
0.66592402
0.66523126
0.66508423
0.66507101
0.66507057
0.66507056
0.66507056
0.66507055
0.66507055
0.68658024
0.68576075
0.68799837
0.68943767
0.68899894
0.68889999
0.68882588
0.68765756
0.68834425
0.68876636
0.68647016
0.68334391
0.6829524
0.68516731
0.68506569
0.68599915
0.6876123
0.68384309
0.6819677
0.6650885
0.65276803
0.67693536
0.71667407
0.71399452
0.67329209
0.65013314
0.65498534
0.66860597
0.67030551
0.66775961
0.66592235
0.6652311
0.66508403
0.66507099
0.66507057
0.66507056
0.66507056
0.66507055
0.66507055
0.69002898
0.68652242
0.68570442
0.68793154
0.68936532
0.6889311
0.68883127
0.68875309
0.68759153
0.68828304
0.6886984
0.68640292
0.68329019
0.68290747
0.68511181
0.68500846
0.68594129
0.68754284
0.68378649
0.68191175
0.6650734
0.65281658
0.6769254
0.71652471
0.71379796
0.67323993
0.65018685
0.65502355
0.66858896
0.67028624
0.66774946
0.66591887
0.66523098
0.66508419
0.66507098
0.66507057
0.66507056
0.66507056
0.66507055
0.69271245
0.68997035
0.68645405
0.68563674
0.68786329
0.68929232
0.68886005
0.68876503
0.68868706
0.68752954
0.68822476
0.68863053
0.68633526
0.68323759
0.68286475
0.68505764
0.68495152
0.68588424
0.68747591
0.6837313
0.68185745
0.66505811
0.65286283
0.67691831
0.71638878
0.71360326
0.67318132
0.65024034
0.65506675
0.66856657
0.67026601
0.66774209
0.66591604
0.66523036
0.66508448
0.66507104
0.66507057
0.66507056
0.66507056
0.66507055
0.69229296
0.69266873
0.68991411
0.6863869
0.68557011
0.68779655
0.68922072
0.68878963
0.6887002
0.68862409
0.68747018
0.68816783
0.68856375
0.68626823
0.68318609
0.68282315
0.68500457
0.6848958
0.68582883
0.68741057
0.68367772
0.68180346
0.66504238
0.65290817
0.67691056
0.71625447
0.71341845
0.67312425
0.65028644
0.65511
0.66854844
0.67024645
0.66773496
0.66591473
0.6652298
0.6650843
0.66507104
0.66507057
0.66507056
0.66507056
0.66507055
0.6896427
0.69225201
0.69263491
0.68985951
0.68631353
0.68550185
0.68773448
0.68914917
0.68871688
0.68863622
0.68856379
0.68741242
0.68811149
0.6884975
0.68620209
0.68313543
0.682783
0.68495266
0.68484131
0.68577552
0.68734685
0.6836255
0.6817503
0.66502468
0.65295318
0.67690467
0.71611856
0.71323832
0.67307219
0.65032973
0.6551478
0.66853666
0.67022897
0.66772517
0.66591289
0.66522964
0.6650841
0.66507101
0.66507057
0.66507056
0.66507056
0.66507055
0.68641432
0.68958756
0.69221546
0.69259835
0.68979734
0.68623257
0.68543199
0.68767511
0.68907741
0.68864144
0.68857141
0.68850313
0.68735243
0.68805408
0.6884311
0.68613492
0.68308322
0.68274216
0.68490029
0.6847852
0.68572198
0.687283
0.68357115
0.68169676
0.6649982
0.65299378
0.67690737
0.71600536
0.71305257
0.6730112
0.65037658
0.65518634
0.66852191
0.67021108
0.66771567
0.66590955
0.66522944
0.66508426
0.66507101
0.66507057
0.66507056
0.66507056
0.66507055
0.68379851
0.68635085
0.68951787
0.69213761
0.6925149
0.68971515
0.68616058
0.68537029
0.68760825
0.68899705
0.68855951
0.68849689
0.68843149
0.68728214
0.68798463
0.68835809
0.68606082
0.68302178
0.68269087
0.68484
0.68472409
0.68565897
0.68720845
0.68351042
0.68163342
0.66498319
0.65303622
0.67688733
0.71585592
0.71286358
0.67295716
0.65042845
0.65522466
0.66849856
0.67019056
0.66770932
0.66590718
0.66522896
0.66508438
0.66507104
0.66507057
0.66507056
0.66507056
0.66507055
0.68245728
0.68375001
0.68628571
0.68943694
0.69204575
0.69242076
0.68963037
0.6860943
0.68531331
0.68754069
0.68891587
0.68847842
0.68842001
0.68835616
0.68721026
0.68791251
0.68828257
0.68598556
0.68296032
0.68263823
0.68477762
0.68466147
0.68559365
0.68713163
0.68344842
0.68156849
0.66497294
0.6530854
0.67686154
0.71568455
0.71266959
0.67290611
0.65047854
0.65526472
0.66847851
0.67016934
0.66770212
0.66590621
0.66522844
0.66508417
0.66507104
0.66507057
0.66507056
0.66507056
0.66507055
0.68287675
0.68241584
0.68368666
0.68621124
0.68936267
0.69197251
0.69234616
0.68955116
0.68602033
0.6852512
0.68747637
0.68883609
0.68839624
0.68834459
0.68828436
0.68714253
0.68784415
0.68820701
0.68591121
0.6829019
0.68258962
0.68471717
0.68459978
0.68553075
0.68705723
0.68338805
0.68150685
0.66496007
0.65313758
0.67684354
0.71551654
0.71247042
0.67285468
0.65052919
0.65530398
0.6684634
0.67014902
0.66769206
0.66590451
0.66522826
0.66508396
0.66507101
0.66507057
0.66507056
0.66507056
0.66507055
0.68284727
0.68237367
0.68362254
0.68613752
0.68929047
0.6919027
0.69227635
0.68947704
0.68594996
0.68518997
0.68741122
0.68875778
0.68831728
0.68827196
0.68821438
0.68707802
0.68777965
0.68813149
0.68583689
0.68284598
0.6825442
0.68465856
0.68453928
0.68547023
0.68698544
0.6833292
0.68144786
0.66494505
0.65318873
0.67683235
0.71536121
0.7122682
0.67280014
0.65058355
0.6553447
0.66844641
0.67012916
0.66768153
0.66590089
0.66522817
0.66508413
0.66507101
0.66507057
0.66507056
0.66507056
0.66507055
0.68281532
0.68232762
0.68355735
0.68606606
0.68922272
0.69183838
0.69221129
0.68940497
0.68587958
0.68512973
0.68734953
0.68868231
0.68824022
0.6882014
0.68814726
0.6870154
0.68771651
0.68805852
0.68576467
0.68279138
0.6824998
0.68460143
0.68448016
0.68541125
0.68691572
0.68327186
0.68139059
0.66492987
0.65323788
0.67682356
0.71521522
0.71206859
0.67274309
0.65063857
0.65538938
0.66842521
0.67010793
0.66767319
0.66589786
0.66522767
0.66508435
0.66507104
0.66507057
0.66507056
0.66507056
0.66507055
0.66507055
0.68278003
0.68228058
0.68349468
0.68600081
0.68916074
0.69177546
0.69214463
0.68933231
0.68581032
0.68507054
0.68728902
0.68860901
0.6881658
0.68813339
0.68808243
0.68695521
0.68765579
0.68798781
0.68569524
0.68273966
0.68245742
0.68454595
0.68442239
0.68535409
0.68684746
0.68321568
0.68133437
0.66491329
0.65328598
0.67681621
0.71507404
0.71187631
0.67268664
0.65068786
0.65543269
0.66840666
0.67008764
0.66766529
0.66589614
0.66522724
0.66508428
0.66507105
0.66507057
0.66507056
0.66507056
0.66507055
0.66507055
0.68274761
0.68223861
0.68343632
0.68593364
0.68909489
0.69171304
0.6920816
0.68926245
0.6857421
0.68501374
0.68723301
0.68853831
0.68809301
0.68806764
0.6880194
0.68689601
0.68759666
0.68791982
0.68562838
0.68268953
0.68241653
0.68449223
0.68436592
0.68529889
0.68678121
0.68316126
0.68128055
0.66489615
0.6533328
0.67681108
0.71493726
0.71168662
0.67263127
0.65073477
0.65547189
0.6683926
0.67006971
0.66765585
0.66589429
0.66522702
0.66508407
0.66507102
0.66507057
0.66507056
0.66507056
0.66507055
0.66507055
0.68272235
0.68219959
0.68337971
0.68587171
0.689034
0.69165212
0.69201903
0.68919494
0.68567806
0.68495979
0.68717764
0.68846716
0.68802211
0.68800456
0.68795815
0.68683889
0.68753973
0.68785272
0.68556184
0.68264048
0.68237709
0.68444014
0.6843106
0.68524572
0.68671781
0.68310878
0.68122831
0.66487838
0.6533773
0.67680884
0.71481285
0.71149856
0.67257293
0.65078329
0.65551202
0.6683767
0.67005161
0.66764658
0.66589118
0.6652267
0.66508413
0.66507101
0.66507057
0.66507056
0.66507056
0.66507055
0.66507055
0.6821694
0.68333859
0.68582099
0.68897691
0.69158999
0.69195377
0.68912837
0.68561723
0.68490647
0.68711927
0.68839639
0.68795176
0.68794212
0.68790136
0.68678795
0.68748654
0.68778496
0.68549321
0.68259264
0.68234065
0.68438969
0.68425706
0.68519382
0.68665593
0.68305753
0.68117627
0.66485971
0.65342105
0.67680824
0.71469499
0.71131669
0.67251279
0.6508289
0.65555527
0.66835839
0.67003246
0.66763944
0.66588865
0.66522623
0.66508423
0.66507104
0.66507057
0.66507056
0.66507056
0.66507055
0.68213016
0.68328766
0.68577102
0.68892927
0.69153821
0.69189514
0.68906117
0.68555109
0.68485079
0.68706286
0.68832309
0.68787872
0.68788122
0.68784642
0.68673726
0.68743484
0.68771914
0.68542462
0.68254512
0.68230547
0.684341
0.68420497
0.68514236
0.68659453
0.6830068
0.68112469
0.66484088
0.65346505
0.67680805
0.71457461
0.71114107
0.67245558
0.65087041
0.65559657
0.6683434
0.67001439
0.66763227
0.66588726
0.66522582
0.66508403
0.66507101
0.66507057
0.66507056
0.66507056
0.66507055
0.68324662
0.68571463
0.68886848
0.69148134
0.69183753
0.68899669
0.68548729
0.68479688
0.68700793
0.68825225
0.68780632
0.68781855
0.68778962
0.6866849
0.68738252
0.68765558
0.68535696
0.68249475
0.68226828
0.68429261
0.68415242
0.68509056
0.68653357
0.68295553
0.68107377
0.66481384
0.65350494
0.67681471
0.71447194
0.7109657
0.67239338
0.65090933
0.65563513
0.66833397
0.66999762
0.66762327
0.66588572
0.6652254
0.66508381
0.66507099
0.66507057
0.66507056
0.66507056
0.66507055
0.68320223
0.68566256
0.68879818
0.69139014
0.6917403
0.68891433
0.68543031
0.68474805
0.68694585
0.68817755
0.68773268
0.68774555
0.68771669
0.68661859
0.68731839
0.68758858
0.68528733
0.68243604
0.6822199
0.68423683
0.68409656
0.68503252
0.6864636
0.68289851
0.68101353
0.66479345
0.65354658
0.67680238
0.71433604
0.71078616
0.67234065
0.65095375
0.65566902
0.66832073
0.66998029
0.66761348
0.66588302
0.6652253
0.66508378
0.66507101
0.66507057
0.66507056
0.66507056
0.66507055
0.68315818
0.68560208
0.68872041
0.69130018
0.69164795
0.68883303
0.685369
0.6846937
0.68688005
0.68809959
0.68765562
0.68767068
0.68764237
0.68654914
0.68724988
0.68751682
0.68521482
0.68237619
0.68216991
0.68417806
0.68403785
0.68497094
0.6863902
0.68283881
0.68095072
0.66477977
0.65359363
0.67678345
0.71417851
0.71059596
0.67228982
0.65100345
0.65570543
0.66830265
0.66996184
0.66760487
0.6658795
0.66522508
0.665084
0.66507099
0.66507057
0.66507056
0.66507056
0.66507055
0.68311347
0.68554557
0.68864773
0.69121292
0.69155678
0.68875254
0.6853083
0.68464074
0.686816
0.68802327
0.68758084
0.68759835
0.6875696
0.68648185
0.68718422
0.68744598
0.6851431
0.68231843
0.68212248
0.68412082
0.683979
0.68491
0.68631833
0.68277982
0.68089043
0.66476548
0.65364375
0.67677154
0.71402661
0.71039949
0.67223345
0.65105457
0.65574802
0.66828347
0.66994118
0.66759682
0.66587689
0.66522435
0.66508421
0.66507104
0.66507057
0.66507056
0.66507056
0.66507055
0.68548745
0.68857825
0.69113438
0.69147542
0.68867617
0.68524625
0.6845882
0.68675578
0.68794875
0.68750684
0.68752905
0.68749991
0.68641673
0.68712158
0.68737777
0.68507344
0.68226266
0.68207721
0.68406537
0.68392151
0.68485111
0.68624873
0.68272259
0.6808326
0.66474961
0.65369344
0.67676344
0.71388089
0.71020575
0.67217752
0.65110383
0.65579045
0.6682668
0.66992111
0.66758805
0.66587536
0.66522398
0.66508403
0.66507107
0.66507057
0.66507056
0.66507056
0.66507055
0.68543374
0.6885117
0.69105719
0.69139485
0.68860139
0.6851862
0.68453785
0.6866979
0.68787687
0.68743569
0.68746226
0.68743257
0.68635409
0.687061
0.68731157
0.6850058
0.68220854
0.68203371
0.68401206
0.68386576
0.68479438
0.68618141
0.6826675
0.68077744
0.66473261
0.65374201
0.6767586
0.71374162
0.71001423
0.67212207
0.65115255
0.65583081
0.66825157
0.66990306
0.66757861
0.66587292
0.6652238
0.66508379
0.66507101
0.66507057
0.66507056
0.66507056
0.66507055
0.68537873
0.68844613
0.69098273
0.69131797
0.68852996
0.68512856
0.68448808
0.68664052
0.68780723
0.68736752
0.6873975
0.68736669
0.68629315
0.6870025
0.68724744
0.68493993
0.68215566
0.68199154
0.68396018
0.68381144
0.68473948
0.68611635
0.68261396
0.68072387
0.66471493
0.65378845
0.67675606
0.71361136
0.70982488
0.67206451
0.65120258
0.65587289
0.66823392
0.66988423
0.66757022
0.66586958
0.66522316
0.66508405
0.66507104
0.66507057
0.66507056
0.66507056
0.66507055
0.68532358
0.68838012
0.69091049
0.69124547
0.68846232
0.68507334
0.6844399
0.68658455
0.6877399
0.68730111
0.68733439
0.68730307
0.68623418
0.68694553
0.68718515
0.68487567
0.68210403
0.68195071
0.68391001
0.683759
0.6846864
0.68605299
0.68256173
0.68067097
0.6646968
0.65383351
0.67675452
0.71348695
0.70964266
0.67200651
0.65124815
0.65591611
0.66821655
0.66986538
0.66756249
0.66586725
0.66522255
0.66508418
0.66507108
0.66507057
0.66507056
0.66507056
0.66507055
0.6852716
0.68831757
0.69083982
0.69117324
0.68839596
0.68502043
0.68439365
0.68653004
0.68767476
0.68723732
0.68727349
0.68724154
0.68617743
0.6868911
0.68712558
0.68481368
0.68205404
0.68191172
0.68386184
0.68370825
0.68463477
0.6859908
0.68251043
0.6806189
0.66467804
0.65387881
0.67675483
0.7133655
0.70946609
0.67195015
0.6512884
0.65595591
0.66820432
0.66984823
0.66755384
0.66586575
0.66522227
0.66508399
0.66507105
0.66507057
0.66507056
0.66507056
0.66507055
0.68522066
0.68825949
0.69077608
0.69110689
0.68833058
0.68496505
0.68434677
0.68647797
0.68761108
0.68717377
0.68721452
0.68718336
0.68612305
0.68683832
0.68706802
0.68475319
0.68200547
0.68187443
0.68381537
0.68365901
0.68458504
0.68593067
0.68246091
0.68056895
0.66465856
0.65392357
0.67675846
0.71324845
0.70928989
0.67189439
0.65133005
0.65599335
0.66819346
0.66983237
0.66754455
0.6658633
0.66522207
0.66508379
0.66507101
0.66507057
0.66507056
0.66507056
0.66507055
0.68516419
0.6882051
0.69072414
0.69105155
0.68826617
0.68490358
0.6842977
0.68642903
0.68754771
0.68710862
0.68715755
0.68712814
0.68606894
0.68678468
0.68701028
0.68469255
0.68195687
0.6818374
0.68376915
0.68360998
0.68453625
0.68587253
0.68241271
0.68051985
0.66463825
0.65396605
0.67676425
0.71314017
0.70911547
0.67183601
0.65137331
0.65603317
0.66817933
0.66981593
0.66753658
0.66585987
0.66522148
0.66508393
0.66507104
0.66507057
0.66507056
0.66507056
0.66507055
0.6881482
0.69066351
0.69098908
0.68820246
0.68484636
0.6842486
0.68637581
0.68748332
0.68704498
0.68709903
0.68706981
0.68601345
0.68673116
0.68695246
0.6846308
0.68190644
0.68179927
0.68372238
0.68356
0.68448751
0.68581444
0.68236244
0.68046872
0.6646086
0.65400414
0.67677585
0.71305104
0.7089431
0.67176955
0.65141377
0.65607656
0.66816396
0.66979818
0.66752927
0.66585753
0.66522092
0.66508406
0.66507108
0.66507057
0.66507056
0.66507056
0.66507055
0.6880831
0.69058258
0.69090349
0.68812837
0.68478995
0.68419526
0.68630998
0.68740919
0.68697447
0.68702999
0.68699966
0.68594972
0.6866697
0.68688552
0.68456166
0.68184941
0.68175382
0.68366893
0.6835057
0.68443153
0.68574657
0.68230606
0.68040821
0.66458731
0.65404544
0.67676625
0.7129217
0.70876971
0.67171499
0.65145436
0.65611264
0.66814955
0.6697805
0.66752174
0.66585638
0.66522081
0.6650838
0.66507102
0.66507057
0.66507056
0.66507056
0.66507055
0.68800654
0.69049484
0.69081462
0.68805006
0.68473011
0.68414176
0.68624484
0.68733262
0.68690072
0.6869596
0.68692907
0.68588509
0.68660536
0.68681472
0.6844899
0.6817919
0.68170747
0.68361288
0.68344867
0.68437226
0.68567574
0.68224786
0.68034628
0.66457131
0.65409337
0.67675208
0.71277212
0.70858672
0.67166394
0.65149795
0.6561465
0.66813672
0.66976296
0.66751249
0.66585483
0.66522066
0.66508357
0.66507101
0.66507057
0.66507056
0.66507056
0.66507055
0.66507055
0.6879435
0.69042605
0.69074032
0.68797384
0.6846622
0.6840835
0.68618355
0.68725929
0.68682724
0.68689218
0.68686285
0.68582191
0.6865423
0.68674624
0.68442011
0.68173567
0.68166291
0.68355811
0.68339203
0.68431415
0.68560688
0.68219117
0.68028806
0.66455455
0.65414311
0.67674407
0.71262509
0.70839719
0.67161134
0.65154609
0.65618535
0.668122
0.66974506
0.66750281
0.66585128
0.66522027
0.66508361
0.66507101
0.66507057
0.66507056
0.66507056
0.66507055
0.66507055
0.68788469
0.69036356
0.69067261
0.68790147
0.68459463
0.68402616
0.68612465
0.68718724
0.68675444
0.68682701
0.68679922
0.68576064
0.68648151
0.68668006
0.68435224
0.68168119
0.68162029
0.68350544
0.68333693
0.68425822
0.68554053
0.68213594
0.68023259
0.66453635
0.65419117
0.67674171
0.71248896
0.70820639
0.67155486
0.65159581
0.65622738
0.6681059
0.66972634
0.66749397
0.66584789
0.66521958
0.66508389
0.66507105
0.66507057
0.66507056
0.66507056
0.66507055
0.66507055
0.69030576
0.69061032
0.68783105
0.68452611
0.68396867
0.68606814
0.68711767
0.68668296
0.68676349
0.68673739
0.68570082
0.68642327
0.68661643
0.68428598
0.68162765
0.68157921
0.68345473
0.68328337
0.68420347
0.68547564
0.68208162
0.68017794
0.66451712
0.65423787
0.67674252
0.71236279
0.7080192
0.6714952
0.65164417
0.65627079
0.66808842
0.66970648
0.66748598
0.66584573
0.66521908
0.66508383
0.66507107
0.66507057
0.66507056
0.66507056
0.66507055
0.66507055
0.69024887
0.69054906
0.68776267
0.68446054
0.68391372
0.68601273
0.68704858
0.6866134
0.68670254
0.68667733
0.6856426
0.68636678
0.68655391
0.68422096
0.68157564
0.68153956
0.68340529
0.68323121
0.68415037
0.68541238
0.6820287
0.68012405
0.66449696
0.65428374
0.6767437
0.71223867
0.70783899
0.67143748
0.65168843
0.65631399
0.6680724
0.66968768
0.66747811
0.66584361
0.66521876
0.66508364
0.66507101
0.66507057
0.66507056
0.66507056
0.66507055
0.66507055
0.66507055
0.69049593
0.68769577
0.68439069
0.68385744
0.68596202
0.68698339
0.68654493
0.68664392
0.68662015
0.68558627
0.68631279
0.68649423
0.68415764
0.68152476
0.68150115
0.68335742
0.68318058
0.68409868
0.68535069
0.68197736
0.68007179
0.66447642
0.65432894
0.6767461
0.71211714
0.70766363
0.67138117
0.65172881
0.6563547
0.66805997
0.66967083
0.66746961
0.6658414
0.66521829
0.66508371
0.66507101
0.66507057
0.66507056
0.66507056
0.66507055
0.66507055
0.66507055
0.69044005
0.68763159
0.68432739
0.68380302
0.68590789
0.68691755
0.68647889
0.68658694
0.68656458
0.68553315
0.6862615
0.68643551
0.68409486
0.68147549
0.68146501
0.68331162
0.68313154
0.68404847
0.68529049
0.68192731
0.68002104
0.66445564
0.65437314
0.67675056
0.71200112
0.70749096
0.67132476
0.65176867
0.65639334
0.66804933
0.66965432
0.66746044
0.66583958
0.66521791
0.6650837
0.66507104
0.66507057
0.66507056
0.66507056
0.66507055
0.66507055
0.66507055
0.66507055
0.68756844
0.68427122
0.6837548
0.6858567
0.68685557
0.68641656
0.68652932
0.68650619
0.68547811
0.68620952
0.68637887
0.68403532
0.68142709
0.68142872
0.6832664
0.68308388
0.68400028
0.68523239
0.68187853
0.67997092
0.66443443
0.65441646
0.67675675
0.7118895
0.70732113
0.67126856
0.65180827
0.65643058
0.66803924
0.66963878
0.66745103
0.66583757
0.66521771
0.6650834
0.66507101
0.66507057
0.66507056
0.66507056
0.66507055
0.66507055
0.66507055
0.66507055
0.66507055
0.6875018
0.68421823
0.68371299
0.68581049
0.68679696
0.6863569
0.68647173
0.68644555
0.68542009
0.68615538
0.68632443
0.68397803
0.68137794
0.68139028
0.68322003
0.68303531
0.6839521
0.68517505
0.68182974
0.67992084
0.66440971
0.65445818
0.67676715
0.71178627
0.7071525
0.67120963
0.65184663
0.65646869
0.66802876
0.66962398
0.66744227
0.66583498
0.66521744
0.66508323
0.66507098
0.66507057
0.66507056
0.66507056
0.66507055
0.66507055
0.66507055
0.66507055
0.66507055
0.66507055
0.68416397
0.68366429
0.68575512
0.68673412
0.68629568
0.68641071
0.68638018
0.68535919
0.68609995
0.68626535
0.68391659
0.68132573
0.6813488
0.68317049
0.6829836
0.6839018
0.68511518
0.68177785
0.67986761
0.66437894
0.65449593
0.67677673
0.71168699
0.70698107
0.67114706
0.6518866
0.65650761
0.66801686
0.66960847
0.66743379
0.66583193
0.66521704
0.66508332
0.66507097
0.66507057
0.66507056
0.66507056
0.66507055
0.66507055
0.66507055
0.66507055
0.66507055
0.66507055
0.68410086
0.68360231
0.68568564
0.68665903
0.68622376
0.68633987
0.6863072
0.6852923
0.68603737
0.68619471
0.68384481
0.68126696
0.68130181
0.68311471
0.68292762
0.68384447
0.68504596
0.68171994
0.67980471
0.66435977
0.65453829
0.67676321
0.7115459
0.70680467
0.67109579
0.65193099
0.65654207
0.6680015
0.66959145
0.66742589
0.66582869
0.66521662
0.66508346
0.66507097
0.66507057
0.66507056
0.66507056
0.66507055
0.66507055
0.66507055
0.66507055
0.66507055
0.66507055
0.66507055
0.68354478
0.68562397
0.6865884
0.68615333
0.6862701
0.68623431
0.68522405
0.68597394
0.68612618
0.68377536
0.68120902
0.68125486
0.68305842
0.68287
0.68378555
0.68497634
0.68166178
0.67974376
0.66434426
0.65458719
0.67675237
0.71139546
0.70661847
0.67104338
0.65197759
0.65658007
0.66798532
0.66957334
0.66741766
0.66582565
0.66521581
0.6650837
0.66507104
0.66507057
0.66507056
0.66507056
0.66507055
0.66507055
0.66507055
0.66507055
0.66507055
0.66507055
0.66507055
0.66507055
0.68349206
0.68556599
0.68651988
0.68608483
0.68620316
0.6861631
0.68515657
0.68591172
0.68606169
0.68370925
0.68115301
0.68120971
0.68300415
0.68281397
0.68372875
0.68490917
0.68160522
0.67968604
0.66432641
0.65463681
0.67674997
0.71125578
0.70642897
0.67098632
0.65202584
0.65662257
0.66796928
0.66955388
0.6674088
0.66582317
0.6652152
0.66508374
0.66507105
0.66507057
0.66507056
0.66507056
0.66507055
0.66507055
0.66507055
0.66507055
0.66507055
0.66507055
0.66507055
0.66507055
0.68344325
0.68551137
0.68645508
0.68602023
0.68613867
0.68609363
0.68509054
0.68585183
0.68600129
0.68364676
0.68109845
0.68116586
0.68295206
0.68276028
0.68367406
0.68484449
0.68155072
0.67963041
0.66430634
0.65468482
0.67675191
0.71112578
0.70624367
0.67092771
0.65207264
0.65666734
0.66795266
0.6695342
0.66740046
0.6658211
0.66521497
0.66508344
0.66507102
0.66507057
0.66507056
0.66507056
0.66507055
0.66507055
0.66507055
0.66507055
0.66507055
0.66507055
0.66507055
0.66507055
0.68546287
0.68639325
0.6859535
0.68607875
0.68603135
0.6850281
0.68579449
0.68594224
0.68358575
0.68104663
0.68112476
0.68290197
0.68270818
0.68362162
0.68478203
0.68149799
0.67957656
0.66428532
0.65473143
0.67675558
0.71100022
0.70606456
0.67087142
0.65211577
0.65670958
0.66793834
0.66951629
0.66739245
0.66581916
0.66521443
0.66508334
0.66507101
0.66507057
0.66507056
0.66507056
0.66507055
0.66507055
0.66507055
0.66507055
0.66507055
0.66507055
0.66507055
0.68541409
0.68633296
0.68589157
0.6860205
0.68596935
0.68496759
0.68573896
0.6858852
0.68352678
0.68099675
0.68108572
0.68285424
0.68265828
0.68357193
0.68472225
0.68144713
0.67952434
0.6642633
0.65477617
0.67676113
0.71088036
0.70588987
0.67081668
0.65215678
0.65674743
0.667928
0.66950039
0.66738336
0.66581709
0.66521394
0.66508321
0.66507102
0.66507057
0.66507056
0.66507056
0.66507055
0.66507055
0.66507055
0.66507055
0.66507055
0.66507055
0.68536514
0.68627144
0.68583261
0.68596426
0.68590889
0.68490991
0.68568419
0.68583009
0.68346975
0.68094869
0.68104801
0.68280833
0.68261007
0.68352445
0.68466506
0.68139826
0.6794742
0.66424131
0.65481952
0.6767695
0.71076949
0.7057173
0.67075943
0.65219833
0.65678557
0.66791721
0.66948546
0.66737404
0.66581398
0.66521365
0.66508311
0.66507101
0.66507057
0.66507056
0.66507056
0.66507055
0.66507055
0.66507055
0.66507055
0.66507055
0.66507055
0.68531901
0.68621209
0.68577683
0.68590887
0.68584894
0.68485422
0.68563197
0.68577841
0.68341528
0.68090208
0.68101134
0.68276419
0.68256369
0.68347841
0.68460956
0.68135076
0.67942511
0.66421864
0.65486201
0.67678056
0.71066691
0.70554996
0.67070044
0.65223763
0.65682644
0.66790449
0.66946991
0.6673662
0.66581051
0.66521296
0.66508332
0.66507102
0.66507057
0.66507056
0.66507056
0.66507055
0.66507055
0.66507055
0.66507055
0.66507055
0.66507055
0.68527443
0.68615372
0.68572127
0.68585459
0.68579072
0.68479926
0.68557797
0.68572579
0.6833604
0.68085608
0.6809752
0.68272026
0.68251776
0.68343371
0.6845559
0.68130418
0.67937563
0.66419352
0.65490329
0.67679378
0.71056687
0.70538837
0.67064401
0.65227317
0.65686526
0.66789418
0.66945436
0.66735829
0.66580805
0.66521209
0.66508341
0.66507107
0.66507057
0.66507056
0.66507056
0.66507055
0.66507055
0.66507055
0.66507055
0.66507055
0.68522868
0.68609441
0.68566602
0.68579834
0.68572907
0.68474151
0.68552297
0.68567346
0.68330431
0.68080667
0.68093623
0.68267437
0.68246947
0.68338863
0.68450315
0.68125655
0.67932628
0.66415669
0.65493711
0.67681527
0.7104904
0.70522377
0.67057642
0.6523071
0.65690492
0.66788693
0.6694395
0.66734919
0.66580643
0.66521188
0.6650832
0.66507105
0.66507059
0.66507056
0.66507056
0.66507055
0.66507055
0.66507055
0.66507055
0.66507055
0.68516533
0.68602354
0.68560412
0.68572877
0.68565045
0.68467359
0.68546436
0.68561354
0.68323859
0.68074701
0.68088895
0.68262205
0.68241671
0.68333394
0.68443743
0.68120079
0.67926626
0.66413165
0.65497624
0.67681023
0.71036833
0.7050532
0.6705205
0.65234865
0.65694019
0.6678739
0.66942305
0.66734099
0.66580427
0.66521179
0.66508302
0.66507102
0.66507059
0.66507056
0.66507056
0.66507055
0.66507055
0.66507055
0.66507055
0.66507055
0.68510362
0.6859494
0.68553524
0.68566019
0.68557638
0.68460489
0.6854019
0.68554984
0.68317034
0.68068673
0.68084267
0.68256817
0.68236104
0.68327601
0.68436906
0.6811431
0.67920565
0.66411599
0.6550227
0.67679777
0.71022247
0.70487307
0.67046976
0.65239462
0.65697627
0.66785813
0.66940551
0.66733287
0.66580084
0.66521112
0.66508327
0.66507107
0.66507059
0.66507056
0.66507056
0.66507055
0.66507055
0.66507055
0.66507055
0.6850457
0.68587979
0.68547064
0.68558925
0.68550303
0.68454118
0.68533797
0.68548524
0.68310501
0.68063182
0.6807966
0.68251329
0.68230569
0.68321893
0.68430062
0.68108478
0.67914151
0.66409667
0.6550801
0.67680019
0.71008599
0.70468604
0.6704092
0.65243915
0.65701884
0.66784192
0.66938683
0.66732458
0.66579835
0.66521069
0.66508327
0.66507105
0.66507057
0.66507056
0.66507056
0.66507055
0.66507055
0.66507055
0.66507055
0.68579747
0.68539856
0.68554844
0.68544954
0.68447288
0.68527891
0.68542557
0.68303849
0.68057358
0.68075838
0.6824634
0.6822485
0.68316393
0.68424016
0.6810347
0.67909791
0.66408158
0.65510948
0.67678349
0.70994827
0.70452133
0.67037145
0.65248776
0.65705791
0.66782713
0.66936795
0.66731634
0.66579689
0.66521035
0.66508312
0.66507104
0.66507057
0.66507056
0.66507056
0.66507055
0.66507055
0.66507055
0.66507055
0.68574
0.68534394
0.68548591
0.68538444
0.68441519
0.68521899
0.68536576
0.68298165
0.68052701
0.68071857
0.68241497
0.68219917
0.68311392
0.68417944
0.68098359
0.67904638
0.66406514
0.65515502
0.67678316
0.70982359
0.70435292
0.67032198
0.65253077
0.65709264
0.66781556
0.6693522
0.66730758
0.66579444
0.66521003
0.66508304
0.66507102
0.66507059
0.66507056
0.66507055
0.66507055
0.66507055
0.66507055
0.66507055
0.68566592
0.68528008
0.68543827
0.68532783
0.68435572
0.68516339
0.68530969
0.68292137
0.68047596
0.68068389
0.6823694
0.68214831
0.68306496
0.68412272
0.68093481
0.67900189
0.66404717
0.65519111
0.67678111
0.70970465
0.70418785
0.6702742
0.65257356
0.65712919
0.66780284
0.66933677
0.66729906
0.66579099
0.66520946
0.66508312
0.66507102
0.66507057
0.66507056
0.66507055
0.66507055
0.66507055
0.66507055