/*--------------------------------*- C++ -*----------------------------------*\
| =========                 |                                                 |
| \\      /  F ield         | OpenFOAM: The Open Source CFD Toolbox           |
|  \\    /   O peration     | Version:  2506                                  |
|   \\  /    A nd           | Website:  www.openfoam.com                      |
|    \\/     M anipulation  |                                                 |
\*---------------------------------------------------------------------------*/
FoamFile
{
    version     2.0;
    format      ascii;
    arch        "LSB;label=32;scalar=64";
    class       volScalarField;
    location    "0.011";
    object      rho;
}
// * * * * * * * * * * * * * * * * * * * * * * * * * * * * * * * * * * * * * //

dimensions      [1 -3 0 0 0 0 0];

internalField   nonuniform List<scalar> 
192657
(
0.66498821
0.66654955
0.66528175
0.6657467
0.6652361
0.66523143
0.66512087
0.6650965
0.66507915
0.66507356
0.66507171
0.66507318
0.66508
0.6650786
0.66496793
0.66442017
0.66290313
0.65996274
0.6559582
0.65241447
0.65062695
0.64993084
0.64906187
0.64892722
0.65180339
0.65801079
0.66431401
0.6640083
0.65961137
0.66062775
0.66207946
0.65955968
0.65879366
0.65841052
0.65759017
0.6570481
0.65658395
0.6559893
0.65559289
0.65493749
0.65403899
0.65305699
0.6517937
0.65034078
0.64894509
0.64761647
0.64628177
0.64482513
0.64338706
0.64194674
0.64032385
0.63863447
0.63696662
0.63524664
0.6335304
0.63177248
0.62999542
0.62816809
0.62630643
0.62440566
0.6225413
0.62069774
0.61891224
0.61719262
0.61556859
0.61402681
0.61256083
0.61116723
0.60985973
0.60860687
0.60744103
0.60631388
0.60524179
0.6042742
0.60336683
0.60250562
0.60167924
0.60091323
0.60024449
0.59962665
0.59904292
0.59849431
0.59796801
0.59748099
0.59703682
0.59661103
0.59620634
0.59582524
0.59546192
0.59511977
0.59480784
0.59451455
0.59422596
0.59393929
0.59366145
0.59340111
0.59314988
0.592906
0.59268044
0.5924652
0.59225243
0.59204967
0.59185596
0.59057272
0.5847546
0.58011884
0.57774018
0.57636802
0.57560086
0.57518531
0.57498543
0.57492012
0.57494591
0.57503245
0.57516042
0.57530917
0.57546837
0.57563246
0.57579711
0.5759591
0.57611591
0.57626573
0.57640738
0.57654012
0.57666354
0.57677747
0.57688186
0.57697674
0.57706209
0.57713786
0.57720385
0.57726099
0.57730986
0.57735042
0.57738256
0.57740573
0.57741724
0.57741322
0.57739217
0.57735772
0.57731343
0.57726052
0.57720207
0.57714487
0.57709837
0.57706911
0.57705549
0.57705133
0.57705123
0.66498681
0.66655009
0.66528372
0.6657471
0.66523671
0.66523164
0.66512109
0.66509655
0.66507917
0.66507357
0.6650717
0.66507318
0.66508018
0.66507996
0.66497362
0.66443647
0.66293532
0.66001245
0.65601573
0.65246432
0.65066337
0.64996124
0.64907989
0.64890075
0.65169069
0.65783919
0.66420547
0.6641087
0.65963894
0.66056994
0.66210235
0.65960154
0.65880508
0.65842949
0.65757466
0.65700895
0.65655584
0.65593384
0.65550903
0.65493271
0.65407198
0.65311418
0.65185556
0.65039279
0.6489901
0.6476626
0.64632685
0.64486959
0.6434373
0.64199837
0.64037667
0.63869103
0.63703071
0.63530848
0.63358296
0.63180837
0.63001089
0.62815932
0.62627546
0.624364
0.62248258
0.62062583
0.61883442
0.61710703
0.6154712
0.61391421
0.61243181
0.61102299
0.60969874
0.60842884
0.60724363
0.60609602
0.605011
0.60403152
0.60310585
0.60222526
0.60138533
0.60061451
0.59994254
0.59931888
0.59872671
0.59816849
0.59763559
0.59714485
0.59669428
0.59626526
0.59586042
0.59548244
0.59512582
0.59478947
0.59447883
0.59418295
0.59389262
0.59361701
0.59336699
0.59313478
0.59291402
0.59270434
0.59250043
0.59230383
0.59212024
0.59193723
0.59162453
0.58976905
0.58361124
0.57930818
0.57711144
0.57574246
0.57481856
0.57417156
0.57371156
0.57338262
0.57314913
0.57298743
0.57288042
0.57281562
0.57278356
0.57277633
0.5727878
0.57281145
0.57284212
0.57287691
0.57291415
0.57295257
0.57299113
0.57302902
0.5730656
0.57310039
0.57313305
0.57316333
0.57319106
0.57321616
0.57323858
0.57325834
0.57327555
0.57329038
0.57330304
0.57331383
0.57332306
0.573331
0.57333791
0.57334395
0.57334998
0.5733563
0.57336243
0.57336737
0.5733704
0.5733718
0.57337224
0.66498534
0.66655071
0.66528661
0.66574754
0.66523739
0.66523184
0.6651213
0.6650966
0.6650792
0.66507357
0.6650717
0.66507318
0.66508037
0.66508133
0.66497936
0.66445291
0.66296782
0.66006267
0.65607393
0.65251469
0.65069997
0.64999187
0.64909825
0.64887459
0.65157689
0.65766459
0.66409124
0.66420901
0.65967227
0.66050941
0.66212437
0.65964742
0.65881667
0.65845322
0.65755948
0.65697006
0.65652858
0.65588382
0.6554202
0.65490853
0.65410206
0.6531677
0.65191826
0.65044889
0.64903724
0.64770925
0.64637502
0.64491845
0.64349008
0.6420536
0.64043145
0.63875025
0.63709517
0.63536831
0.6336325
0.63183952
0.63002145
0.62814395
0.62624573
0.62431834
0.62242276
0.620556
0.61875704
0.61702164
0.61537345
0.61380107
0.61230241
0.6108779
0.60953627
0.60824729
0.60704134
0.60587466
0.604776
0.60377915
0.6028323
0.6019334
0.60108208
0.600305
0.59962716
0.59899336
0.59838967
0.59781968
0.59727938
0.59678498
0.59633563
0.59591
0.59550825
0.59513326
0.59478349
0.5944608
0.59416885
0.59389342
0.59362408
0.59336598
0.59312805
0.59291161
0.59270912
0.59252369
0.59235878
0.59220289
0.59205075
0.59190309
0.591686
0.59017425
0.58406277
0.57959176
0.57743191
0.57617163
0.57538256
0.57488513
0.57457585
0.5743899
0.574288
0.57424551
0.57424295
0.57426627
0.57430646
0.57435675
0.57441337
0.57447478
0.57454021
0.574608
0.57467631
0.57474369
0.5748091
0.57487182
0.57493131
0.57498724
0.57503936
0.57508751
0.57513159
0.57517156
0.57520735
0.57523893
0.57526626
0.57528929
0.57530799
0.5753223
0.57533223
0.57533787
0.57533955
0.57533796
0.57533345
0.57532723
0.57532118
0.57531694
0.57531484
0.57531424
0.57531432
0.66498438
0.66655149
0.66528905
0.66574795
0.66523813
0.66523202
0.66512152
0.66509664
0.66507922
0.66507357
0.66507169
0.66507319
0.66508055
0.66508269
0.66498512
0.66446933
0.66300039
0.66011293
0.65613233
0.65256539
0.65073698
0.6500231
0.64911741
0.64885004
0.65146421
0.6574893
0.66397275
0.66430693
0.65971234
0.66044704
0.66214448
0.65969672
0.65882816
0.65848131
0.65754487
0.65693227
0.65650218
0.65584072
0.65533158
0.65486772
0.65412914
0.65321639
0.6519812
0.65050861
0.64908628
0.64775855
0.64642413
0.64496912
0.64354814
0.64211209
0.64048956
0.63881332
0.63716205
0.63542846
0.63368123
0.63186981
0.63002503
0.62812961
0.62621448
0.62427449
0.62236563
0.62048807
0.61868348
0.6169401
0.61527956
0.61369071
0.61217561
0.61073453
0.60937389
0.60806639
0.60684045
0.60565475
0.60454229
0.60353008
0.602565
0.60164916
0.60078647
0.60000497
0.59932208
0.59868103
0.59806777
0.59748895
0.59694358
0.5964458
0.59599136
0.59556434
0.59516428
0.59479674
0.59445802
0.59414288
0.5938537
0.5935831
0.59332471
0.59308577
0.59287698
0.59269056
0.59251381
0.5923465
0.59219274
0.59205564
0.59193493
0.59181675
0.59159481
0.59015105
0.58434548
0.57953961
0.57729184
0.57595125
0.57509039
0.57452424
0.57415005
0.5739024
0.5737418
0.57364397
0.57359316
0.57357728
0.57358819
0.57362063
0.57366876
0.57372697
0.57379052
0.57385612
0.57392184
0.57398654
0.57404946
0.57411
0.5741677
0.57422223
0.5742734
0.57432112
0.57436535
0.57440615
0.57444358
0.57447777
0.57450885
0.57453703
0.57456251
0.57458551
0.57460625
0.57462492
0.57464167
0.57465645
0.574669
0.57467883
0.57468559
0.57468948
0.57469138
0.5746922
0.5746925
0.66498412
0.66655289
0.66529054
0.66574829
0.66523923
0.66523219
0.66512177
0.66509668
0.66507924
0.66507358
0.66507169
0.66507319
0.66508074
0.66508407
0.66499103
0.66448615
0.66303402
0.66016498
0.65619301
0.65261798
0.65077506
0.65005526
0.64913759
0.64882612
0.65134893
0.65730777
0.66384563
0.66440436
0.65975905
0.66038076
0.66216218
0.65974998
0.65883951
0.65851317
0.65753064
0.65689571
0.65647613
0.65580405
0.6552457
0.6548105
0.65415127
0.65325987
0.6520434
0.65057167
0.64914441
0.64781224
0.64647501
0.64502319
0.6436088
0.64217339
0.6405493
0.63887934
0.63722801
0.63548769
0.63372838
0.63189855
0.63002499
0.62811458
0.62618335
0.62423035
0.62231004
0.62042362
0.61861293
0.61686085
0.61518748
0.61358284
0.61205176
0.61059276
0.60921385
0.60788672
0.60663855
0.60543424
0.60430833
0.60327761
0.60229049
0.60135723
0.60048588
0.59969884
0.59900803
0.59835552
0.59772953
0.59713964
0.59658953
0.59609064
0.59564028
0.59521934
0.5948235
0.59445923
0.59412784
0.59382662
0.59355538
0.59329928
0.59305193
0.59282486
0.59262767
0.5924526
0.59229154
0.59214932
0.59202214
0.59190216
0.59178931
0.59168487
0.59151397
0.59033597
0.5847811
0.5796722
0.57733493
0.57594343
0.57504292
0.57445102
0.5740673
0.57382925
0.57369337
0.57362451
0.57360108
0.57361012
0.5736429
0.5736915
0.57374887
0.57381179
0.57387862
0.57394792
0.57401785
0.57408746
0.57415582
0.5742221
0.57428563
0.57434595
0.57440275
0.5744559
0.57450535
0.57455104
0.57459297
0.57463113
0.57466555
0.57469624
0.57472324
0.57474659
0.57476634
0.57478257
0.57479547
0.57480534
0.57481256
0.57481764
0.57482108
0.5748233
0.5748246
0.57482527
0.57482554
0.66498318
0.66655483
0.66529111
0.66574857
0.66524075
0.66523228
0.66512201
0.66509672
0.66507927
0.66507358
0.66507168
0.66507319
0.66508092
0.66508545
0.66499699
0.664503
0.66306778
0.66021722
0.65625396
0.652671
0.65081371
0.65008823
0.64915877
0.64880403
0.6512351
0.65712547
0.66371418
0.6644987
0.65981101
0.66031334
0.66217738
0.65980649
0.65885029
0.65854991
0.65751793
0.65686019
0.65644951
0.65577313
0.65516468
0.65473836
0.65416382
0.65329966
0.65210199
0.65063571
0.64920572
0.64787085
0.64653109
0.64508073
0.64367496
0.64223706
0.64061139
0.63894769
0.63729318
0.63554648
0.63377318
0.6319209
0.63002512
0.62809863
0.62615127
0.62418876
0.62225746
0.62036204
0.61854568
0.6167847
0.61509872
0.61347772
0.61192955
0.61045191
0.60905291
0.6077055
0.60643684
0.60521597
0.60407568
0.60302547
0.60201906
0.60107155
0.60019105
0.59939817
0.59869907
0.59803638
0.59739887
0.59680033
0.59624445
0.5957403
0.59528412
0.59486077
0.59446609
0.59410978
0.59378722
0.59348903
0.59321702
0.59296783
0.59273723
0.59252786
0.59234644
0.59218513
0.59203139
0.59188876
0.59176771
0.5916631
0.59156987
0.59147702
0.59129461
0.59024277
0.58525036
0.57971179
0.57723994
0.57579287
0.57486785
0.57426232
0.57386397
0.57360952
0.57345343
0.57336758
0.57333251
0.57333319
0.57335683
0.57339557
0.57344551
0.57350311
0.57356551
0.57363071
0.5736975
0.57376401
0.57382935
0.57389278
0.57395369
0.57401167
0.57406654
0.5741183
0.57416685
0.57421219
0.57425434
0.57429335
0.57432936
0.57436252
0.57439303
0.57442105
0.57444673
0.57447016
0.57449137
0.57451024
0.57452647
0.57453963
0.57454925
0.57455529
0.57455847
0.57455982
0.5745602
0.66498148
0.66655742
0.66529121
0.66574888
0.66524226
0.66523229
0.66512227
0.66509676
0.6650793
0.66507359
0.66507168
0.66507318
0.6650811
0.66508684
0.66500309
0.6645203
0.66310273
0.66027161
0.65631763
0.65272636
0.65085372
0.65012238
0.64918129
0.64878292
0.65111872
0.65693619
0.66357274
0.66459197
0.65986943
0.66024319
0.66218901
0.65986704
0.65886011
0.65859017
0.6575076
0.65682582
0.6564221
0.65574757
0.65509011
0.65465443
0.65415879
0.65333608
0.65215524
0.65070154
0.64926995
0.64793261
0.64659114
0.64514289
0.64374474
0.64230334
0.64067726
0.63901624
0.63735721
0.63560404
0.63381722
0.63193481
0.6300266
0.62808034
0.6261213
0.62414777
0.62220764
0.62030505
0.61848186
0.61671114
0.61501211
0.6133753
0.61181061
0.61031292
0.60889455
0.60752692
0.60623622
0.60499817
0.60384261
0.60277206
0.60174465
0.60078183
0.5998933
0.59909292
0.59838266
0.59770645
0.59705482
0.59644583
0.59588639
0.59538228
0.59493038
0.59451103
0.5941175
0.5937615
0.59344289
0.59315392
0.59289298
0.5926462
0.59241092
0.59220274
0.59203067
0.59187954
0.59173815
0.59161145
0.59149424
0.59138706
0.59129028
0.59120237
0.59107047
0.59021287
0.58558394
0.57973632
0.57712486
0.57560159
0.57462671
0.57398917
0.57357121
0.57330053
0.5731313
0.57303308
0.57298535
0.57297408
0.57298965
0.57302494
0.57307438
0.5731336
0.57319915
0.57326822
0.57333867
0.57340902
0.57347792
0.57354466
0.57360896
0.5736707
0.57372973
0.573786
0.57383937
0.57388957
0.57393648
0.57398002
0.57402015
0.57405706
0.57409086
0.57412164
0.57414949
0.57417449
0.57419673
0.57421623
0.57423293
0.57424658
0.57425676
0.57426331
0.57426679
0.57426827
0.57426867
0.66497926
0.66655907
0.6652913
0.66574922
0.66524335
0.66523226
0.66512253
0.6650968
0.66507932
0.66507359
0.66507167
0.66507318
0.66508128
0.66508823
0.6650092
0.6645377
0.66313794
0.66032638
0.6563817
0.65278222
0.65089436
0.65015749
0.64920497
0.64876367
0.65100389
0.65674584
0.663427
0.66468242
0.65993309
0.66017276
0.6621976
0.65993053
0.65886802
0.65863526
0.65750158
0.65679229
0.65639308
0.65572641
0.65502334
0.65456379
0.65413554
0.65337097
0.65220364
0.65076457
0.64933275
0.64799595
0.64665428
0.64520879
0.6438176
0.64237188
0.6407457
0.63908529
0.63742111
0.63566085
0.63385912
0.63194514
0.63002515
0.62806185
0.62609141
0.62410995
0.62216176
0.62025176
0.6184213
0.61664053
0.61492895
0.61327622
0.61169325
0.61017467
0.60873605
0.60734677
0.60603543
0.60478284
0.60361166
0.60251831
0.6014704
0.60049501
0.5995982
0.59878906
0.59806655
0.59737669
0.59671144
0.59609269
0.59552467
0.595012
0.594552
0.59412754
0.59373186
0.59338017
0.59306463
0.5927725
0.59250669
0.59226795
0.59205164
0.59185524
0.59168194
0.59152491
0.59137808
0.59124713
0.59113876
0.59104045
0.59094913
0.59085964
0.59070609
0.58997926
0.58601151
0.57984227
0.57698007
0.57535686
0.57433359
0.57366722
0.5732286
0.5729422
0.5727608
0.57265345
0.57259899
0.57258247
0.57259325
0.57262359
0.57266782
0.57272174
0.57278223
0.57284695
0.57291409
0.57298226
0.5730503
0.5731173
0.57318248
0.57324523
0.57330503
0.57336141
0.5734143
0.57346393
0.57351051
0.5735542
0.5735952
0.57363352
0.57366923
0.57370241
0.57373312
0.57376137
0.57378712
0.57381022
0.57383035
0.57384702
0.57385952
0.57386752
0.57387173
0.57387347
0.57387391
0.6649764
0.66656003
0.66529153
0.66574961
0.66524419
0.66523226
0.66512282
0.66509684
0.66507935
0.66507359
0.66507167
0.66507318
0.66508145
0.66508962
0.66501538
0.66455557
0.66317443
0.66038338
0.65644879
0.65284074
0.65093659
0.65019397
0.64923023
0.64874578
0.65088696
0.65654823
0.66327045
0.6647706
0.66000508
0.66010036
0.66220153
0.65999788
0.65887356
0.65868345
0.6575013
0.65675994
0.65636238
0.65570897
0.65496523
0.6544699
0.65409106
0.65339947
0.65225117
0.65082557
0.64939467
0.64805985
0.64671944
0.64527775
0.64389191
0.6424403
0.64081526
0.63915261
0.63748489
0.63571638
0.6338948
0.63195685
0.63002213
0.62804307
0.62606386
0.62407424
0.6221193
0.62020343
0.61836436
0.61657261
0.61484802
0.61317963
0.61157841
0.6100387
0.60858005
0.60716972
0.60583771
0.60456938
0.60337957
0.60226353
0.60119687
0.60020923
0.59930335
0.59848281
0.59774514
0.59703893
0.59635823
0.59572934
0.59515761
0.59464394
0.59418555
0.59375989
0.59336119
0.593006
0.59268926
0.59239968
0.59213524
0.59188552
0.5916508
0.59144762
0.59128273
0.59113617
0.59099352
0.5908621
0.59074204
0.59063672
0.59054235
0.59045573
0.59034767
0.58976462
0.58619737
0.5798883
0.57675012
0.57502095
0.57393839
0.57323293
0.57276736
0.57246182
0.57226619
0.5721476
0.57208385
0.5720595
0.57206372
0.57208869
0.57212863
0.57217916
0.57223699
0.57229957
0.57236495
0.57243165
0.5724985
0.57256464
0.57262942
0.57269235
0.57275306
0.57281128
0.5728668
0.57291947
0.57296919
0.57301589
0.57305954
0.57310019
0.57313787
0.57317265
0.57320463
0.57323396
0.57326072
0.57328495
0.57330643
0.57332455
0.5733384
0.57334738
0.57335212
0.57335408
0.57335457
0.66497349
0.66655982
0.66529181
0.66575
0.66524508
0.66523231
0.66512311
0.66509688
0.66507938
0.6650736
0.66507166
0.66507317
0.66508162
0.66509101
0.66502156
0.66457358
0.66321125
0.66044082
0.6565164
0.65289987
0.65097952
0.65023153
0.64925679
0.64872993
0.65077181
0.65634942
0.6631097
0.664855
0.66008457
0.66002666
0.66220222
0.66006837
0.65887656
0.65873498
0.65750761
0.65672823
0.65632939
0.65569395
0.65491578
0.65437605
0.65402958
0.65341816
0.65229587
0.65088277
0.64945598
0.648125
0.64678469
0.64534765
0.64396568
0.64250893
0.64088381
0.6392196
0.637548
0.63577157
0.63391841
0.63196709
0.63001666
0.62802628
0.62603711
0.62404222
0.62208117
0.62015887
0.6183103
0.61650768
0.61477038
0.61308631
0.61146549
0.60990378
0.60842477
0.60699218
0.60563999
0.6043574
0.60314934
0.60200934
0.60092249
0.5999222
0.59900602
0.59817282
0.59741941
0.59669642
0.59599985
0.59535877
0.59477457
0.5942487
0.59377944
0.59334503
0.59293914
0.59258211
0.59226177
0.59196385
0.59169275
0.59145238
0.59123534
0.59103495
0.59085423
0.59068909
0.59053994
0.59040842
0.59029341
0.59018435
0.59008327
0.58998785
0.58985169
0.58937423
0.58648285
0.58010233
0.57655932
0.57470307
0.57355717
0.57281091
0.57231626
0.57198893
0.57177646
0.57164455
0.57157006
0.5715369
0.57153365
0.57155228
0.57158676
0.57163264
0.57168653
0.57174584
0.57180859
0.5718732
0.57193845
0.57200341
0.57206734
0.57212967
0.57219
0.57224803
0.57230355
0.57235645
0.57240663
0.57245405
0.57249872
0.57254068
0.57257996
0.57261662
0.57265069
0.57268221
0.57271118
0.5727375
0.57276086
0.57278063
0.5727958
0.57280567
0.57281088
0.57281301
0.57281354
0.66497089
0.66655918
0.66529196
0.66575045
0.66524611
0.66523244
0.66512341
0.66509693
0.66507941
0.6650736
0.66507165
0.66507316
0.66508177
0.6650924
0.66502782
0.66459204
0.66324929
0.66050061
0.65658726
0.65296195
0.65102427
0.65027062
0.64928518
0.64871587
0.65065533
0.65614321
0.66293729
0.66493415
0.66017452
0.65995106
0.66219755
0.66014287
0.65887721
0.65878815
0.65751977
0.65669698
0.65629397
0.65568044
0.65487466
0.65428517
0.65395249
0.65342045
0.65233879
0.65093669
0.64951619
0.64819223
0.64685115
0.64541915
0.64404004
0.64257683
0.64095174
0.63928513
0.63761049
0.63582477
0.63393888
0.63197616
0.63001087
0.62800997
0.62601237
0.6240138
0.62204658
0.62011936
0.61826032
0.61644575
0.61469502
0.61299517
0.61135435
0.60977151
0.608272
0.60681739
0.60544624
0.60414835
0.60291828
0.60175405
0.60065079
0.59964074
0.59871324
0.59786399
0.59709135
0.59634936
0.59563633
0.59498454
0.59439504
0.59386486
0.59339168
0.59295012
0.59253777
0.59217356
0.59184645
0.59154421
0.59126486
0.59100252
0.59075898
0.59054868
0.59037494
0.59021609
0.5900575
0.58991253
0.58978613
0.58967504
0.58957122
0.58947611
0.58937671
0.58899159
0.58646762
0.5802343
0.576261
0.57428031
0.57306577
0.57227302
0.57174617
0.57139603
0.57116687
0.57102222
0.57093755
0.570896
0.57088557
0.57089801
0.57092714
0.5709684
0.57101835
0.57107436
0.57113441
0.5711969
0.57126058
0.57132447
0.57138779
0.57144993
0.57151044
0.57156897
0.57162526
0.57167916
0.57173053
0.57177931
0.57182547
0.57186902
0.57191
0.57194846
0.57198442
0.57201793
0.57204897
0.57207742
0.57210292
0.57212466
0.57214144
0.57215239
0.57215816
0.57216051
0.57216109
0.66496845
0.66655945
0.66529195
0.66575092
0.66524719
0.66523258
0.66512372
0.66509697
0.66507944
0.6650736
0.66507164
0.66507315
0.66508192
0.6650938
0.66503409
0.66461065
0.66328769
0.66056096
0.65665868
0.65302464
0.65106975
0.65031088
0.64931501
0.64870427
0.65054099
0.65593566
0.66276068
0.66500847
0.66027262
0.65987367
0.66218908
0.6602212
0.65887569
0.65884286
0.65753745
0.65666613
0.65625591
0.65566763
0.65484103
0.65419927
0.65386318
0.65340229
0.65237742
0.65098821
0.64957305
0.64825697
0.64691829
0.64549148
0.6441147
0.64264575
0.64101964
0.6393514
0.63767359
0.63586869
0.63395782
0.63198251
0.63000374
0.62799582
0.62598948
0.62398767
0.6220166
0.62008308
0.61821346
0.61638735
0.61462265
0.61290681
0.61124528
0.60964091
0.60812057
0.60664376
0.60525356
0.60393967
0.60268787
0.60150038
0.60037897
0.59935493
0.59841262
0.59754632
0.59675492
0.59599352
0.59526263
0.59459581
0.59399003
0.59344451
0.59295759
0.59250298
0.59207864
0.59170635
0.59136999
0.59105567
0.59076965
0.59051631
0.59028488
0.59006758
0.58986967
0.58969009
0.58953033
0.58938487
0.58924972
0.58912308
0.58900953
0.58890192
0.58877346
0.58846545
0.58654573
0.58055267
0.57604863
0.57391509
0.57261622
0.57176761
0.57120234
0.5708247
0.57057506
0.5704146
0.57031729
0.57026536
0.57024613
0.57025102
0.57027359
0.57030911
0.57035404
0.57040569
0.57046198
0.57052128
0.5705823
0.57064401
0.57070562
0.57076646
0.57082605
0.57088399
0.57093999
0.57099385
0.57104541
0.57109455
0.57114124
0.57118545
0.57122721
0.57126653
0.57130344
0.57133795
0.57137005
0.57139961
0.57142622
0.57144905
0.57146679
0.57147843
0.57148459
0.57148709
0.57148771
0.66496574
0.66656034
0.66529168
0.66575142
0.66524828
0.6652327
0.66512403
0.66509701
0.66507947
0.66507361
0.66507164
0.66507313
0.66508206
0.66509519
0.66504041
0.66462965
0.66332735
0.66062373
0.65673352
0.65309056
0.65111732
0.65035279
0.64934692
0.6486947
0.65042617
0.65572079
0.66257168
0.66507561
0.66038216
0.65979483
0.66217341
0.66030434
0.658872
0.65889723
0.65756057
0.65663568
0.65621572
0.65565494
0.65481489
0.65412096
0.65376742
0.65336317
0.65240624
0.6510377
0.64962843
0.6483194
0.64698265
0.64556328
0.644188
0.64271459
0.64108772
0.63941787
0.63773511
0.63590147
0.63397616
0.63198803
0.62999761
0.62798228
0.62596926
0.62396619
0.62199014
0.62005159
0.61817079
0.6163322
0.61455261
0.61282034
0.61113801
0.60951324
0.60797192
0.60647243
0.60506418
0.6037336
0.60245775
0.60124688
0.60011077
0.59907674
0.59811974
0.59723367
0.59641995
0.59563767
0.59488951
0.5942106
0.59359665
0.59304206
0.59254439
0.59207764
0.59164346
0.59125975
0.59091098
0.59058606
0.59028397
0.59000274
0.58974317
0.58951591
0.58932163
0.58913949
0.58895927
0.58879931
0.58866203
0.58853546
0.58841287
0.58830518
0.58820256
0.58794023
0.58629538
0.58074966
0.57574333
0.57345078
0.57206235
0.57115584
0.5705521
0.57014786
0.56987905
0.56970414
0.56959548
0.56953427
0.56950726
0.56950537
0.56952198
0.56955223
0.56959251
0.56964008
0.56969283
0.56974912
0.56980764
0.56986736
0.56992744
0.56998722
0.57004616
0.57010383
0.57015991
0.57021416
0.57026639
0.57031646
0.5703643
0.57040986
0.57045313
0.57049412
0.57053284
0.57056926
0.57060335
0.57063492
0.57066352
0.57068818
0.57070743
0.57072009
0.57072679
0.5707295
0.57073015
0.6649621
0.66656126
0.66529135
0.66575189
0.66524942
0.66523279
0.66512436
0.66509706
0.66507951
0.66507361
0.66507163
0.66507311
0.66508219
0.66509659
0.66504675
0.66464879
0.66336745
0.66068708
0.65680899
0.65315706
0.65116567
0.65039591
0.64938042
0.64868762
0.65031378
0.65550459
0.662378
0.66513848
0.66049939
0.65971355
0.6621528
0.66039286
0.65886599
0.65895079
0.65759091
0.6566056
0.65617315
0.65564127
0.654794
0.65405106
0.65366999
0.65330861
0.65241946
0.65108197
0.6496821
0.64837993
0.64704678
0.64563198
0.64425929
0.64278321
0.64115617
0.63948432
0.63778788
0.6359286
0.63399266
0.63199177
0.62999131
0.62797175
0.62595224
0.62394832
0.62196783
0.62002281
0.61813089
0.61628027
0.61448511
0.61273614
0.61103329
0.60938806
0.60782478
0.60630348
0.60487736
0.60352767
0.60222722
0.60099473
0.59984292
0.59879304
0.59781608
0.59690871
0.59607356
0.5952697
0.59450192
0.59380548
0.59317242
0.59260037
0.59208622
0.59160247
0.59115299
0.59075659
0.59039483
0.59005545
0.58974617
0.58947004
0.58921356
0.58897153
0.58875119
0.58855237
0.58837252
0.58820238
0.58804288
0.58789902
0.58777072
0.5876453
0.5875152
0.58730612
0.58614038
0.58109471
0.57557411
0.57306427
0.57156151
0.57058468
0.56993448
0.5694977
0.56920502
0.56901201
0.56888918
0.5688165
0.56878
0.56876988
0.5687793
0.56880316
0.56883771
0.56888013
0.56892828
0.56898048
0.56903541
0.56909201
0.56914943
0.56920697
0.56926408
0.56932029
0.56937525
0.56942869
0.56948036
0.56953012
0.56957783
0.56962344
0.56966692
0.56970823
0.56974736
0.56978429
0.56981897
0.5698512
0.56988052
0.56990594
0.5699259
0.5699391
0.56994611
0.56994894
0.56994963
0.66495893
0.66656216
0.66529121
0.66575232
0.66525058
0.66523289
0.6651247
0.66509711
0.66507955
0.66507362
0.66507162
0.66507308
0.6650823
0.66509798
0.66505313
0.66466827
0.66340877
0.66075285
0.65688804
0.65322708
0.65121639
0.65044078
0.64941622
0.6486833
0.65020171
0.65528127
0.66217082
0.66519283
0.6606282
0.65963046
0.66212437
0.66048685
0.658858
0.65900158
0.65762946
0.65657652
0.65612881
0.65562553
0.65477759
0.65399085
0.65357378
0.65323478
0.65241135
0.65112172
0.64973693
0.64844145
0.64711245
0.64570112
0.64432907
0.64285265
0.64122358
0.6395451
0.63783003
0.63595231
0.63400698
0.63199537
0.62998704
0.62796211
0.6259386
0.6239344
0.62194895
0.61999839
0.61809536
0.61623179
0.61441994
0.61265358
0.61093066
0.60926576
0.60768056
0.60613693
0.60469243
0.60332294
0.6019981
0.60074553
0.59957978
0.59851654
0.59752073
0.5965912
0.59573203
0.59490653
0.5941212
0.59341078
0.59276589
0.59217976
0.59164908
0.5911494
0.59068594
0.59027295
0.5898938
0.58953831
0.58920737
0.58890209
0.58862054
0.58836859
0.58814663
0.58793712
0.58773564
0.58755805
0.5874002
0.58724883
0.58710323
0.58697918
0.58686438
0.58666385
0.58565575
0.58126031
0.57534813
0.57258527
0.5709647
0.5699196
0.56922485
0.568757
0.56844187
0.56823221
0.56809666
0.56801391
0.56796921
0.56795203
0.56795526
0.56797358
0.56800311
0.56804096
0.56808497
0.56813346
0.56818512
0.56823888
0.56829391
0.56834949
0.56840507
0.56846015
0.56851437
0.56856742
0.56861904
0.56866903
0.56871724
0.56876359
0.568808
0.56885043
0.56889083
0.56892916
0.56896534
0.56899914
0.56903004
0.56905695
0.56907817
0.56909225
0.56909972
0.56910274
0.56910345
0.66495674
0.66656329
0.6652913
0.6657527
0.66525172
0.66523298
0.66512503
0.66509717
0.66507958
0.66507362
0.66507161
0.66507305
0.66508239
0.66509937
0.66505952
0.6646879
0.66345055
0.66081933
0.65696779
0.65329769
0.65126787
0.65048691
0.64945375
0.64868146
0.65009219
0.65505656
0.66195802
0.66524253
0.66076428
0.65954416
0.66209214
0.66058642
0.65884841
0.65904834
0.6576835
0.65654998
0.65608283
0.655607
0.65476444
0.65394019
0.65348154
0.65314911
0.65238361
0.65114675
0.64978458
0.64850054
0.64717788
0.6457721
0.64439981
0.64292056
0.64128454
0.63959529
0.63786471
0.635973
0.63401969
0.63199901
0.62998377
0.62795601
0.62592885
0.62392444
0.62193438
0.61997647
0.61806191
0.61618595
0.61435706
0.61257282
0.61083067
0.60914642
0.60753803
0.60597307
0.60451097
0.60311931
0.60176899
0.6004964
0.59931577
0.59823422
0.59721502
0.59626105
0.59537789
0.59452896
0.5937228
0.59299318
0.59232772
0.59172285
0.59117357
0.59065461
0.59017376
0.58974513
0.58935074
0.58897962
0.58863922
0.5883315
0.58804238
0.58777127
0.58752533
0.58730222
0.58709428
0.58689556
0.58671374
0.58655161
0.58640246
0.58625471
0.58611277
0.58595225
0.585291
0.58151045
0.57530609
0.57219297
0.57043
0.56930403
0.56855495
0.56804837
0.56770493
0.56747423
0.56732274
0.56722761
0.56717301
0.56714753
0.56714359
0.56715552
0.5671792
0.56721165
0.56725064
0.56729446
0.56734181
0.56739162
0.56744306
0.56749542
0.56754814
0.56760072
0.56765276
0.56770396
0.56775403
0.56780274
0.56784992
0.56789546
0.56793926
0.56798126
0.56802138
0.56805957
0.56809573
0.56812963
0.56816075
0.56818798
0.56820957
0.56822397
0.56823164
0.56823474
0.56823548
0.66495484
0.66656457
0.66529361
0.66575311
0.66525284
0.66523311
0.66512533
0.66509724
0.66507962
0.66507362
0.66507159
0.66507302
0.66508247
0.66510075
0.66506592
0.66470782
0.66349356
0.66088831
0.65705129
0.65337212
0.65132198
0.65053493
0.64949369
0.64868272
0.64998363
0.6548251
0.66173138
0.66528115
0.66091251
0.65945709
0.66205259
0.66069067
0.65883816
0.65908843
0.65775922
0.65652821
0.65603535
0.65558479
0.65475418
0.6538997
0.65339578
0.65305423
0.65233614
0.65115616
0.64982555
0.64855546
0.64723994
0.64584297
0.64447166
0.64298284
0.64133701
0.63963824
0.63789395
0.63599138
0.63403076
0.63200286
0.62998373
0.62795118
0.62592323
0.62391813
0.62192255
0.61995884
0.61803276
0.61614314
0.61429649
0.61249352
0.61073297
0.60902925
0.60739788
0.60581182
0.60433017
0.60291537
0.60154152
0.60025266
0.59905801
0.59795783
0.59691546
0.59593782
0.59503019
0.59415974
0.59333605
0.59259047
0.59190992
0.59128701
0.59071717
0.59017918
0.58968061
0.58923136
0.58881586
0.5884239
0.58805895
0.58772409
0.58741468
0.58713162
0.58687713
0.58663951
0.58641639
0.58621438
0.58602685
0.58584771
0.58568019
0.58553764
0.58540614
0.58522541
0.58461523
0.58152935
0.57523568
0.57171601
0.56981332
0.56861008
0.56780836
0.56726414
0.56689347
0.5666429
0.56647674
0.56637055
0.56630736
0.566275
0.56626521
0.56627198
0.56629095
0.566319
0.56635381
0.56639367
0.56643727
0.56648358
0.56653181
0.56658129
0.56663148
0.5666819
0.56673217
0.56678196
0.566831
0.56687901
0.56692583
0.5669713
0.56701528
0.5670577
0.56709844
0.56713741
0.56717448
0.56720936
0.56724144
0.56726952
0.56729174
0.56730637
0.56731407
0.56731715
0.56731794
0.66495264
0.66656592
0.66529715
0.66575357
0.66525396
0.66523327
0.66512564
0.66509732
0.66507966
0.66507362
0.66507158
0.66507298
0.66508253
0.66510213
0.66507233
0.66472789
0.6635371
0.66095808
0.65713557
0.65344713
0.65137678
0.6505842
0.64953536
0.64868647
0.64987773
0.65459222
0.66149933
0.665315
0.66106919
0.65936904
0.66200921
0.6607999
0.65882809
0.65912056
0.65784793
0.656515
0.6559867
0.65555855
0.65474615
0.65386786
0.65331808
0.65295686
0.65227406
0.65114653
0.64985255
0.64860344
0.64729732
0.64590973
0.64453986
0.64303568
0.6413815
0.63967425
0.63791839
0.63600808
0.63404167
0.63200883
0.62998589
0.62795025
0.62592212
0.62391566
0.62191558
0.61994369
0.6180057
0.61610212
0.61423776
0.61241572
0.61063767
0.60891465
0.60726003
0.60565334
0.60415283
0.60271366
0.60131567
0.60000801
0.5987967
0.59767505
0.59660812
0.59560448
0.59467079
0.59377587
0.59293095
0.59216518
0.59146395
0.59082209
0.5902329
0.58967514
0.58915784
0.58869123
0.58825955
0.5878519
0.58747414
0.58712771
0.58680066
0.58649702
0.5862219
0.58596894
0.58572846
0.58550208
0.58529879
0.58511395
0.58493925
0.58476761
0.58461285
0.58446665
0.58409516
0.58157333
0.57536033
0.57133495
0.5692708
0.56797496
0.56710849
0.56651779
0.56611339
0.56583811
0.5656537
0.56553387
0.56546025
0.56541975
0.56540324
0.56540424
0.56541804
0.56544125
0.56547143
0.56550678
0.56554599
0.56558804
0.56563215
0.56567771
0.5657242
0.56577119
0.56581832
0.56586528
0.56591179
0.56595761
0.56600253
0.56604641
0.56608909
0.56613047
0.56617044
0.56620887
0.56624565
0.56628047