/*--------------------------------*- C++ -*----------------------------------*\
| =========                 |                                                 |
| \\      /  F ield         | OpenFOAM: The Open Source CFD Toolbox           |
|  \\    /   O peration     | Version:  2506                                  |
|   \\  /    A nd           | Website:  www.openfoam.com                      |
|    \\/     M anipulation  |                                                 |
\*---------------------------------------------------------------------------*/
FoamFile
{
    version     2.0;
    format      ascii;
    arch        "LSB;label=32;scalar=64";
    class       volVectorField;
    location    "0.5";
    object      U;
}
// * * * * * * * * * * * * * * * * * * * * * * * * * * * * * * * * * * * * * //

dimensions      [0 1 -1 0 0 0 0];

internalField   nonuniform List<vector> 
1375
(
(93.245283 0.013849483 0)
(93.594325 0.010509166 -1.2238493e-17)
(93.826422 0.012688568 -1.8047307e-17)
(92.919107 0.014764857 0)
(93.264379 0.015299191 0)
(93.608792 0.011720175 -1.8910987e-23)
(93.836028 0.013037675 -5.8925496e-18)
(93.963632 0.012785253 1.158024e-17)
(94.029342 0.01291607 -5.684062e-18)
(94.061656 0.013576619 -9.3283921e-23)
(94.077843 0.014902646 0)
(94.087138 0.01664767 3.2085445e-17)
(92.938704 0.015331979 -1.2077168e-17)
(93.283136 0.015300277 0)
(93.62314 0.01160598 2.9332047e-17)
(93.845658 0.012259663 5.7723337e-18)
(93.969783 0.011261053 -2.3507617e-23)
(94.03332 0.010457164 1.1147271e-17)
(94.064489 0.010280645 -2.6280031e-23)
(94.080181 0.010627704 -1.0727042e-17)
(94.089304 0.011613927 -1.0509573e-17)
(94.096021 0.013135704 0)
(94.101903 0.014870582 3.0174989e-17)
(94.107263 0.016741312 -9.824646e-18)
(94.111937 0.018698785 1.9171959e-17)
(94.11573 0.020533905 -1.8684801e-17)
(94.118556 0.022020896 0)
(92.958708 0.015399939 9.3549176e-23)
(93.302095 0.015430367 0)
(93.637793 0.011309195 -2.2982072e-17)
(93.855621 0.011528857 5.6551603e-18)
(93.976264 0.010037068 -1.6684014e-17)
(94.037647 0.0086836686 1.0928916e-17)
(94.067669 0.0079043114 -1.0730211e-17)
(94.082859 0.0075696725 1.05275e-17)
(94.091791 0.0076166046 -1.0320294e-17)
(94.098412 0.0084209413 1.0107163e-17)
(94.104206 0.0096521452 -1.9773768e-17)
(94.109437 0.011388963 0)
(94.113932 0.013394067 -3.7713907e-17)
(94.117559 0.015515615 1.8383853e-17)
(94.120307 0.017755826 -1.790216e-17)
(94.122219 0.019770814 3.4825408e-17)
(94.123442 0.021651069 -3.3836507e-17)
(94.124224 0.023473104 -1.6420564e-17)
(94.124836 0.025303913 1.5915805e-17)
(92.979444 0.014884802 1.157475e-17)
(93.321515 0.01564925 1.1422795e-17)
(93.65307 0.011369753 1.6887266e-17)
(93.866335 0.011424978 5.5421342e-18)
(93.983476 0.0096878739 0)
(94.042603 0.0081233393 1.071733e-17)
(94.071323 0.0070221775 2.1053249e-17)
(94.085806 0.0063425087 2.0664724e-17)
(94.094375 0.0059782383 0)
(94.100809 0.0060094421 0)
(94.106506 0.0067731817 0)
(94.11168 0.0079430661 0)
(94.116142 0.0095769704 1.8561428e-17)
(94.11977 0.01158134 3.6211114e-17)
(94.122598 0.013895374 1.7639687e-17)
(94.12467 0.016208436 -1.170596e-22)
(94.126007 0.018167671 -2.1234346e-23)
(94.126735 0.01950213 0)
(94.127199 0.021927415 -3.1433218e-17)
(94.127738 0.024033331 3.0454357e-17)
(94.128532 0.025517575 -1.4733175e-17)
(94.129831 0.028026579 1.4237742e-17)
(94.131829 0.031258558 1.3742502e-17)
(93.000575 0.014647823 0)
(93.341072 0.015804944 -1.1191786e-17)
(93.668733 0.011569884 -5.5168577e-18)
(93.877749 0.011584697 5.4332903e-18)
(93.991571 0.0097275806 5.3463761e-18)
(94.048485 0.0081104544 -5.2566945e-18)
(94.075838 0.0069489825 -3.6879718e-23)
(94.08947 0.0061804241 -3.0423493e-17)
(94.097498 0.0057253228 9.9488421e-18)
(94.103576 0.0055300066 -5.7000338e-24)
(94.108991 0.0056323091 -9.5490675e-18)
(94.113923 0.0061700037 1.8683237e-17)
(94.118234 0.007190906 -1.8258306e-17)
(94.121843 0.0084663866 -1.782326e-17)
(94.124792 0.010013497 -3.4756373e-17)
(94.12714 0.012062602 1.6923471e-17)
(94.128888 0.014190507 -1.6458371e-17)
(94.13001 0.015934038 0)
(94.130595 0.017486406 1.0009057e-23)
(94.13091 0.018427975 1.503955e-17)
(94.131377 0.020723196 9.8311984e-23)
(94.132389 0.021916654 -1.4075935e-17)
(94.134214 0.023846257 1.3594305e-17)
(94.13707 0.026828181 -3.9341627e-17)
(94.140716 0.029086753 0)
(94.144963 0.031247061 -3.6464522e-17)
(94.14974 0.034542134 4.6734397e-17)
(93.021753 0.01462078 0)
(93.36054 0.016437667 -1.0968465e-17)
(93.684574 0.012647016 0)
(93.889699 0.012734832 -1.0656092e-17)
(94.000498 0.010882777 -1.5733534e-17)
(94.0554 0.0092189983 2.5791225e-17)
(94.081513 0.007933527 1.0139201e-17)
(94.094386 0.0069517516 -2.9872937e-17)
(94.1019 0.0062282265 -5.121557e-24)
(94.107569 0.0057528364 1.9160548e-17)
(94.112586 0.0054599571 1.8767453e-17)
(94.117112 0.005567605 -3.6728849e-17)
(94.121081 0.0061335942 1.795291e-17)
(94.124486 0.0071331552 5.2599206e-17)
(94.127389 0.0084857278 -1.7105716e-17)
(94.129839 0.010021512 1.6670673e-17)
(94.13189 0.011617339 0)
(94.133573 0.013078332 0)
(94.134796 0.01435414 -1.5312188e-17)
(94.135487 0.015031314 1.4849182e-17)
(94.135882 0.015638135 2.8769126e-17)
(94.13645 0.016542111 0)
(94.137714 0.017789295 0)
(94.140073 0.019470112 2.5947427e-17)
(94.143596 0.021999372 -1.2509358e-17)
(94.147912 0.024499866 -1.2045923e-17)
(94.152567 0.028012206 0)
(94.157221 0.031354057 3.3369652e-17)
(94.161389 0.034875743 1.0667403e-17)
(94.165057 0.040737799 -2.0444288e-17)
(93.042635 0.01397502 0)
(93.37964 0.016028278 1.0752002e-17)
(93.700291 0.012995796 0)
(93.901942 0.013439181 -1.5678276e-17)
(94.010132 0.011682463 1.5437314e-17)
(94.06336 0.010025295 -4.0502535e-17)
(94.088499 0.0086282608 -1.9910721e-17)
(94.100832 0.0074229017 2.9342979e-17)
(94.108003 0.0063849771 -1.9204086e-17)
(94.113369 0.0055574483 9.4179535e-18)
(94.118063 0.0048659359 -1.0621292e-22)
(94.122221 0.0044633319 0)
(94.125793 0.0044359483 1.7668108e-17)
(94.128854 0.0049415441 -5.1783919e-17)
(94.131517 0.0057892092 1.6846837e-17)
(94.133855 0.0069578981 -1.6425478e-17)
(94.135944 0.0082848249 0)
(94.137862 0.0095035427 0)
(94.139562 0.010437654 -1.51216e-17)
(94.141013 0.011087619 -1.4672224e-17)
(94.142157 0.011107472 2.8434419e-17)
(94.143008 0.010863724 -1.376018e-17)
(94.143828 0.011228282 1.3300923e-17)
(94.145081 0.011557985 -2.5678809e-17)
(94.147428 0.014582258 2.4765796e-17)
(94.150849 0.017468551 -1.1933582e-17)
(94.154947 0.021484849 3.4470145e-17)
(94.159384 0.026497375 -2.1165036e-22)
(94.163616 0.031448564 -9.0291074e-23)
(94.167105 0.034946021 0)
(94.169808 0.040473121 0)
(94.172111 0.048481398 0)
(94.173816 0.055863614 0)
(93.063467 0.01353814 -9.3371035e-18)
(93.398569 0.015355975 -1.3177026e-18)
(93.715888 0.01324945 0)
(93.914393 0.014048614 2.0507638e-17)
(94.020399 0.012330524 -5.049854e-18)
(94.072355 0.010583 3.4792398e-17)
(94.096856 0.0089469992 9.7773952e-18)
(94.108898 0.0074564561 -3.8440703e-17)
(94.115902 0.0061206583 0)
(94.12107 0.0049325769 -1.8522817e-17)
(94.125485 0.0039959531 -1.8158422e-17)
(94.129303 0.0032969856 0)
(94.132489 0.0029354649 -1.7399708e-17)
(94.13514 0.002957021 1.7007231e-17)
(94.137412 0.0033744029 0)
(94.139441 0.0042854913 0)
(94.141315 0.0052617492 -1.5781435e-17)
(94.143084 0.0062544858 1.5359859e-17)
(94.144763 0.0070013848 -8.7045813e-23)
(94.146443 0.0075073669 2.9001736e-17)
(94.148093 0.0075009299 -5.6256212e-17)
(94.149558 0.0069848145 2.7242952e-17)
(94.150782 0.0068768197 2.6348285e-17)
(94.151749 0.0068040696 1.2724839e-17)
(94.152708 0.006537517 -6.1249013e-23)
(94.154242 0.010183277 -2.3651171e-17)
(94.156695 0.014164446 -3.4156331e-17)
(94.159803 0.020072197 0)
(94.163301 0.027131445 -2.0924872e-17)
(94.166843 0.033748489 -2.0037322e-17)
(94.170124 0.039241991 1.9279059e-17)
(94.172668 0.042757912 1.8439056e-17)
(94.17453 0.048025863 0)
(94.175588 0.055661973 0)
(94.174944 0.063897504 0)
(93.085384 0.012886047 1.0461649e-17)
(93.418279 0.013950137 0)
(93.731923 0.012515982 -2.0405589e-17)
(93.927248 0.013483191 0)
(94.031207 0.011842595 -1.4870006e-17)
(94.082097 0.010107095 1.4641633e-17)
(94.106165 0.0083586706 0)
(94.118087 0.006641462 1.8889387e-17)
(94.125049 0.0050717125 0)
(94.130097 0.0036648778 9.1096043e-18)
(94.134236 0.0024131649 -4.4669604e-17)
(94.137651 0.0016184529 3.5014079e-17)
(94.140364 0.00098118375 -1.7137181e-17)
(94.142474 0.00078949959 0)
(94.144186 0.0012020678 1.637155e-17)
(94.145702 0.0018808528 0)
(94.147134 0.0028892124 -1.5573716e-17)
(94.148506 0.0040686386 -1.5163796e-17)
(94.149802 0.0052303706 -1.4748046e-17)
(94.151032 0.0061021875 -1.4327575e-17)
(94.152207 0.0066605442 1.3904655e-17)
(94.153337 0.006717371 -7.690952e-23)
(94.154533 0.0070641394 -2.6095573e-17)
(94.155735 0.0076819158 2.5230539e-17)
(94.156678 0.0083025335 7.3075455e-17)
(94.157501 0.0095761491 1.1737694e-17)
(94.158643 0.011285777 -2.2587464e-17)
(94.160415 0.015451703 -3.0709775e-22)
(94.162799 0.020734895 -2.0761326e-17)
(94.165356 0.027578131 0)
(94.16775 0.037092107 -1.9130226e-17)
(94.170186 0.044641895 1.8293212e-17)
(94.17249 0.048820216 -1.7475599e-17)
(94.174215 0.054252546 -1.6680548e-17)
(94.174604 0.060288407 -1.5912701e-17)
(94.172508 0.067975694 -6.8645231e-17)
(94.16914 0.074873613 -6.5705205e-17)
(94.165196 0.085832176 -5.59906e-22)
(93.109667 0.01115594 2.1801766e-17)
(93.439925 0.011718889 1.2673877e-18)
(93.749251 0.011266921 -2.5021132e-18)
(93.940994 0.012620604 -1.9745993e-17)
(94.042677 0.011274307 9.7315397e-18)
(94.092365 0.009720711 -3.8343731e-17)
(94.115908 0.0080949974 1.7916043e-22)
(94.127632 0.0064496248 -9.2826738e-18)
(94.134472 0.0048621393 9.1242245e-18)
(94.139337 0.0035110008 2.6881871e-17)
(94.143173 0.0023734369 1.7583411e-17)
(94.146143 0.0014134511 -3.447022e-17)
(94.148304 0.0010854699 3.3755647e-17)
(94.149775 0.0009434594 -1.651208e-17)
(94.150764 0.0012778645 -1.8916986e-22)
(94.151533 0.0021514233 -1.5757702e-17)
(94.152256 0.0034632402 1.5368201e-17)
(94.153029 0.0052607083 2.9941853e-17)
(94.153828 0.0068963935 0)
(94.154585 0.0088374549 0)
(94.155243 0.010319147 0)
(94.155822 0.011276138 1.3316073e-17)
(94.15642 0.012067811 -2.5785496e-17)
(94.157038 0.012931734 -4.9880585e-17)
(94.157699 0.014802359 -2.4093649e-17)
(94.158505 0.016957234 -2.900087e-22)
(94.159611 0.019053443 2.2429513e-17)
(94.16119 0.022023359 4.2892505e-17)
(94.163215 0.024885773 -3.6478769e-22)
(94.165301 0.028311459 -1.9847777e-17)
(94.166594 0.027643418 -3.8172242e-17)
(94.167675 0.038083112 -3.6355121e-17)
(94.169067 0.047306201 5.2396255e-17)
(94.170792 0.054819726 3.3291739e-17)
(94.172005 0.061638528 1.5871149e-17)
(94.171749 0.068071165 3.0242155e-17)
(94.169643 0.075492651 2.8920665e-17)
(94.166505 0.085350413 2.0653515e-17)
(94.162343 0.09321521 -1.9764299e-17)
(94.156777 0.095867948 -4.3775703e-17)
(93.137067 0.0092452923 -2.0130479e-17)
(93.46437 0.0097724434 0)
(93.768735 0.0096519635 1.9645472e-17)
(93.956332 0.011235161 1.453643e-17)
(94.055275 0.010310593 4.7772555e-18)
(94.103363 0.009223657 0)
(94.126023 0.0080191341 1.8541498e-17)
(94.137217 0.0067685969 0)
(94.14363 0.0055253869 0)
(94.148039 0.0043834431 8.8131692e-18)
(94.151356 0.0036096927 -8.65076e-18)
(94.153746 0.003148558 3.3931101e-17)
(94.155268 0.0029548717 -1.6619002e-17)
(94.15608 0.0033906576 -1.6260103e-17)
(94.15638 0.0043196258 0)
(94.156416 0.0055469504 1.5516741e-17)
(94.156376 0.0070376926 1.5154662e-17)
(94.156409 0.008984108 -1.4781265e-17)
(94.156604 0.010930276 -1.4383374e-17)
(94.156989 0.012686538 0)
(94.157548 0.014153563 0)
(94.158184 0.015109861 -1.3164665e-17)
(94.158702 0.015662655 1.2749816e-17)
(94.159044 0.016173644 2.4659019e-17)
(94.159344 0.017505284 2.3815093e-17)
(94.159606 0.02015634 -2.7439857e-22)
(94.159885 0.023785788 -2.2163217e-17)
(94.160417 0.026887101 -4.243225e-17)
(94.161633 0.030920766 2.0394274e-17)
(94.163895 0.033248345 1.9648127e-17)
(94.166171 0.039473704 1.8887235e-17)
(94.167777 0.040661328 5.3951205e-17)
(94.168301 0.043144688 -3.4716971e-17)
(94.167955 0.049997252 -1.6528438e-17)
(94.168067 0.059327453 6.3469248e-17)
(94.168818 0.069782637 0)
(94.168479 0.075936127 0)
(94.166179 0.084567014 0)
(94.162832 0.09453396 2.6112333e-17)
(94.158864 0.10048728 0)
(94.15405 0.097793608 5.9148637e-18)
(94.151522 0.090143531 -4.4887688e-17)
(93.167446 0.007386532 0)
(93.491837 0.0089134406 1.708599e-17)
(93.79091 0.0091977857 2.4105245e-18)
(93.973937 0.011119984 -4.757275e-18)
(94.069682 0.010666996 4.6913992e-18)
(94.115699 0.010152531 0)
(94.137 0.0095633349 1.8217e-17)
(94.147196 0.0089454791 -8.9658932e-18)
(94.152754 0.0083306733 1.7637713e-17)
(94.156335 0.0077624639 -5.2000714e-17)
(94.158821 0.0074426276 8.5093453e-18)
(94.160421 0.0075984361 2.5238117e-23)
(94.161199 0.0077822734 3.270485e-17)
(94.161345 0.0089288287 -1.2559613e-22)
(94.161106 0.01018084 0)
(94.160647 0.011860894 1.5314016e-17)
(94.160126 0.01380861 -1.4941975e-17)
(94.159651 0.015876972 0)
(94.159302 0.017863511 -1.4168217e-17)
(94.159153 0.01958038 4.1370083e-17)
(94.15926 0.021201241 1.3411134e-17)
(94.159558 0.022443837 1.3017184e-17)
(94.159888 0.023276224 0)
(94.160242 0.023547248 1.2230384e-17)
(94.160738 0.023075044 -1.1826484e-17)
(94.161266 0.022524182 -2.2384253e-22)
(94.16158 0.024933022 2.1921249e-17)
(94.161631 0.027942012 2.1086615e-17)
(94.16189 0.03303393 0)
(94.162681 0.039760289 -1.9507685e-17)
(94.16461 0.044688914 4.0679591e-22)
(94.166687 0.047073578 -5.3736733e-17)
(94.167699 0.050692713 3.4391693e-17)
(94.168044 0.053511703 -1.6375632e-17)
(94.167779 0.055567246 -3.1580739e-17)
(94.166379 0.061111772 0)
(94.164855 0.072756047 0)
(94.163252 0.080641047 -3.4073207e-17)
(94.161655 0.089700396 6.4801008e-18)
(94.159593 0.098260644 0)
(94.156548 0.10203335 4.1240133e-17)
(94.154272 0.098086088 5.5932653e-18)
(94.164245 0.095603062 0)
(93.199584 0.0053213901 0)
(93.521411 0.0080905664 -5.4739297e-22)
(93.815307 0.0088093091 -4.7338331e-18)
(93.993707 0.011312379 -1.8688547e-17)
(94.086083 0.011585239 4.6084229e-18)
(94.129785 0.011844243 -1.8171323e-17)
(94.149446 0.012165379 -3.5803903e-17)
(94.158366 0.012436903 0)
(94.162801 0.012530279 0)
(94.165313 0.012527817 1.7042579e-17)
(94.166735 0.012541974 0)
(94.167304 0.012779048 -1.1420659e-23)
(94.167239 0.013309849 -1.6118789e-17)
(94.166736 0.014745079 4.517349e-24)
(94.16597 0.015881092 -1.5439795e-17)
(94.165108 0.017661127 -1.5090652e-17)
(94.164261 0.019617198 1.4734129e-17)
(94.163482 0.021820869 -1.437024e-17)
(94.16276 0.02411987 0)
(94.162083 0.026353839 8.6998094e-23)
(94.161504 0.028734904 -1.3235124e-17)
(94.161059 0.0312497 -2.5692082e-17)
(94.160772 0.033681202 0)
(94.160666 0.035485008 -2.4141063e-17)
(94.160867 0.037441321 0)
(94.161667 0.037817356 0)
(94.163182 0.040236482 0)
(94.164231 0.040743007 -4.1750169e-17)
(94.164501 0.04237225 1.101603e-22)
(94.16452 0.043808187 3.8677927e-17)
(94.164358 0.047752834 -1.8617112e-17)
(94.164739 0.054197688 0)
(94.166061 0.057615095 3.4074535e-17)
(94.167253 0.058346199 -1.6307799e-17)
(94.167397 0.062151454 2.1080234e-22)
(94.166324 0.064978072 2.9924787e-17)
(94.162837 0.068259324 -4.2704693e-17)
(94.159688 0.086246746 2.7096647e-17)
(94.159194 0.094876439 2.5885283e-17)
(94.159313 0.1003275 0)
(94.158554 0.10335628 -4.6960138e-17)
(94.157662 0.099221598 0)
(94.166998 0.10150311 0)
(94.193334 0.079868131 5.0191605e-18)
(94.225743 0.087970461 3.3430172e-17)
(93.231811 0.0037398421 -1.9036313e-17)
(93.551571 0.0081987025 2.3524842e-18)
(93.840818 0.0093910559 -2.3245436e-18)
(94.014914 0.012359911 1.8358247e-17)
(94.104112 0.013244043 1.8111467e-17)
(94.145616 0.014239011 8.9288972e-18)
(94.163724 0.015326026 3.6871978e-23)
(94.171442 0.016366774 8.6636576e-18)
(94.174813 0.017178912 -1.7047957e-17)
(94.176262 0.017815551 0)
(94.1766 0.018270807 0)
(94.176094 0.018570547 0)
(94.175045 0.01954119 -1.5861316e-17)
(94.173667 0.02053046 1.5540055e-17)
(94.172101 0.02175972 1.5211338e-17)
(94.170589 0.023609005 0)
(94.16918 0.025620928 1.4532925e-17)
(94.167877 0.028073273 1.4183094e-17)
(94.166652 0.030988468 -1.3825688e-17)
(94.165462 0.034133256 0)
(94.164318 0.037284116 -2.6170453e-17)
(94.163336 0.04023159 1.2703609e-17)
(94.162649 0.042900838 2.4633377e-17)
(94.162177 0.044806231 0)
(94.161837 0.046468801 -2.3022661e-17)
(94.161822 0.048393256 0)
(94.162226 0.049656837 2.146047e-17)
(94.163574 0.047062753 -1.6510286e-22)
(94.165125 0.051467929 -2.0001842e-17)
(94.165821 0.054968273 2.800195e-22)
(94.166132 0.055895351 1.8479208e-17)
(94.166355 0.056825209 0)
(94.166665 0.06099989 -3.3861361e-17)
(94.166009 0.065617545 1.6225347e-17)
(94.165435 0.068052957 -1.5499766e-17)
(94.165186 0.066192612 2.9676089e-17)
(94.163539 0.073263665 2.8233658e-17)
(94.160033 0.064412302 -6.7337358e-18)
(94.157519 0.088694694 -4.504007e-17)
(94.158213 0.098605835 6.1138206e-18)
(94.160029 0.10556967 4.0963907e-17)
(94.162091 0.10759137 -4.4457169e-17)
(94.171672 0.10783972 -5.2769061e-18)
(94.197526 0.089221748 -4.0074859e-17)
(94.230418 0.093800166 -1.3633899e-22)
(94.268712 0.055682217 -6.7834212e-17)
(93.262841 0.0028835861 1.8691629e-17)
(93.581104 0.0088894648 -1.8486245e-17)
(93.866476 0.010288565 0)
(94.036836 0.013550249 -1.8035818e-17)
(94.123266 0.014692834 -2.6696824e-17)
(94.162886 0.01603291 8.7762035e-18)
(94.179705 0.017539524 2.5949873e-17)
(94.186457 0.01910261 -8.5192317e-18)
(94.188974 0.020452262 1.6766414e-17)
(94.189544 0.021348124 -1.6498539e-17)
(94.18897 0.022108178 1.8569811e-23)
(94.187505 0.022800485 3.1852929e-17)
(94.185412 0.024104841 -1.5623609e-17)
(94.182895 0.025109154 1.5312856e-17)
(94.180183 0.026721316 0)
(94.177562 0.029024803 -1.4668693e-17)
(94.17514 0.03168512 0)
(94.172917 0.03488608 2.3858987e-22)
(94.170878 0.038487836 0)
(94.169016 0.042352761 -2.6587638e-17)
(94.167347 0.045979914 -1.2931661e-17)
(94.165969 0.048965134 0)
(94.165054 0.05133205 -7.3151227e-17)
(94.164621 0.052928165 4.7311473e-17)
(94.164426 0.054118587 2.2905966e-17)
(94.163795 0.056311579 2.2080561e-17)
(94.162967 0.058686609 -2.1284788e-17)
(94.163113 0.065589435 0)
(94.163777 0.06596435 0)
(94.165155 0.065612614 1.9064236e-17)
(94.166721 0.070386571 -3.6685148e-17)
(94.168016 0.072219583 1.7569683e-17)
(94.168349 0.073356579 1.6830027e-17)
(94.167342 0.069007869 -3.2291297e-17)
(94.1656 0.073093481 2.3975648e-22)
(94.163582 0.077000471 1.6326263e-22)
(94.16274 0.078566249 -2.8104722e-17)
(94.161626 0.079915005 2.6939674e-17)
(94.159411 0.075723459 4.4779689e-17)
(94.158604 0.097254495 -6.0827729e-18)
(94.160992 0.10585862 -4.6542803e-17)
(94.166134 0.10625152 8.4920107e-22)
(94.176904 0.10922932 0)
(94.203543 0.093923315 4.496839e-17)
(94.236749 0.10398528 -4.7455154e-18)
(94.277002 0.064768583 7.2120402e-17)
(94.344286 0.092854355 2.1393514e-18)
(93.291825 0.002828915 -1.1471811e-18)
(93.609102 0.010080938 1.1347956e-18)
(93.891396 0.011735133 1.7944531e-17)
(94.058695 0.015306131 1.7722622e-17)
(94.142886 0.016591576 0)
(94.181038 0.01805487 0)
(94.196887 0.019741172 0)
(94.202937 0.021592305 8.3780954e-18)
(94.204812 0.023421935 -3.2389171e-23)
(94.204723 0.024745266 2.4375399e-17)
(94.203353 0.026002777 -3.194059e-17)
(94.201043 0.027592775 1.5685861e-17)
(94.197919 0.029012121 -6.3257839e-23)
(94.194208 0.031087686 -3.0184424e-17)
(94.190254 0.033385848 1.4783194e-17)
(94.186334 0.036423095 -1.4466446e-17)
(94.182639 0.039869132 -1.1566718e-22)
(94.179261 0.043886336 1.469501e-22)
(94.176232 0.048006015 1.3797235e-22)
(94.173556 0.052106002 -2.5103389e-22)
(94.171224 0.055737368 3.8327382e-17)
(94.169233 0.058718854 -1.2420331e-17)
(94.167636 0.060938742 4.8246542e-17)
(94.1665 0.062929776 2.6640917e-22)
(94.16587 0.064902098 -2.2678006e-17)
(94.165772 0.065002766 0)
(94.165792 0.067176296 2.1212649e-17)
(94.165018 0.067317444 2.0427423e-22)
(94.164373 0.072866384 5.8863183e-17)
(94.16445 0.07975389 -1.8938e-17)
(94.164947 0.082744472 -3.629263e-17)
(94.166187 0.083639869 1.7418118e-17)
(94.167902 0.081500806 0)
(94.16896 0.086609886 0)
(94.168086 0.077658269 3.0760709e-17)
(94.16594 0.079638024 -1.4670507e-17)
(94.163493 0.080184065 -2.7976962e-17)
(94.162373 0.089404548 -1.3413571e-17)
(94.162359 0.088299412 -2.5599386e-17)
(94.161993 0.078911587 4.8622946e-17)
(94.163913 0.089683683 0)
(94.169917 0.10057173 1.1502983e-21)
(94.182436 0.11719639 -4.7186941e-17)
(94.210197 0.097892138 -3.4883804e-17)
(94.24413 0.1099807 0)
(94.286164 0.069806883 -7.1907125e-17)
(94.359928 0.098324914 0)
(94.544559 0.047032614 6.4783559e-17)
(94.786633 0.10413617 0)
(93.318319 0.003166013 0)
(93.634852 0.01127824 -1.7835831e-17)
(93.914646 0.012967852 -4.8677851e-22)
(94.079457 0.016652436 0)
(94.161934 0.017982578 0)
(94.199087 0.019514003 0)
(94.214376 0.02129844 1.6729678e-17)
(94.220048 0.023222271 -3.2967491e-17)
(94.221567 0.025345694 0)
(94.221053 0.027219943 0)
(94.219088 0.028955437 0)
(94.216044 0.031228691 1.5449132e-17)
(94.212028 0.034170131 -1.0938074e-22)
(94.20729 0.036697169 0)
(94.202204 0.040047795 -1.4575156e-17)
(94.197096 0.043831337 -1.2521666e-22)
(94.19219 0.048016782 2.7905201e-17)
(94.187658 0.05255431 1.3630521e-17)
(94.183569 0.057069917 -2.6602631e-17)
(94.179926 0.061371004 -1.3885489e-22)
(94.176677 0.065285652 2.5251217e-17)
(94.173758 0.068789411 -1.2279299e-17)
(94.171148 0.071740539 -4.7709355e-17)
(94.168909 0.074692826 4.6278128e-17)
(94.16713 0.07766252 -2.2418768e-17)
(94.166129 0.081569047 0)
(94.165808 0.082934238 -2.1003169e-17)
(94.166219 0.084213409 1.8828445e-22)
(94.166916 0.085374377 -1.9453717e-17)
(94.166257 0.078406082 3.7541654e-17)
(94.165784 0.086507058 -1.8024866e-17)
(94.166209 0.090861837 1.7311772e-17)
(94.166931 0.095794645 0)
(94.168257 0.092534559 1.591235e-17)
(94.169958 0.092765262 -6.110974e-17)
(94.17074 0.088670628 1.4677469e-17)
(94.168148 0.083545261 1.3977394e-17)
(94.165409 0.087471237 3.9963506e-17)
(94.163887 0.097787018 -2.5465356e-17)
(94.165528 0.10863494 -3.6286963e-23)
(94.169717 0.11246496 -4.0446113e-17)
(94.176235 0.10231155 4.3963379e-17)
(94.189369 0.10699117 3.6583983e-17)
(94.216252 0.099110974 3.9751735e-17)
(94.250781 0.11703446 3.7762329e-17)
(94.294965 0.076669948 -7.1698204e-17)
(94.375369 0.10318036 6.8055892e-17)
(94.555776 0.047183934 6.3558923e-17)
(94.786598 0.16609371 -6.0339389e-17)
(93.342452 0.0036408882 -1.6599908e-17)
(93.658189 0.01268052 1.6428082e-17)
(93.935726 0.014662991 4.3309271e-18)
(94.098338 0.018663693 8.1406333e-23)
(94.179411 0.020079845 -2.9581598e-17)
(94.215899 0.02176478 8.3413989e-18)
(94.230982 0.02375252 -8.2274788e-18)
(94.236628 0.025859916 3.8833387e-22)
(94.238132 0.028246963 7.9917362e-18)
(94.237542 0.030675186 -1.5742598e-17)
(94.235373 0.033017757 0)
(94.231917 0.035846741 -1.5216562e-17)
(94.227351 0.039858178 -2.9885419e-17)
(94.22194 0.043112893 1.4660548e-17)
(94.216041 0.04737325 -1.4370654e-17)
(94.21 0.051806641 -2.2364641e-22)
(94.20407 0.056453876 1.3767607e-17)
(94.198479 0.061413795 -1.3455182e-17)
(94.193332 0.066349029 -1.3136439e-17)
(94.18863 0.071028407 -1.2810912e-17)
(94.184324 0.075529435 2.4958952e-17)
(94.180367 0.079626322 0)
(94.176731 0.083165459 0)
(94.173493 0.086332946 -2.2898107e-17)
(94.17077 0.089199494 4.4373052e-17)
(94.168492 0.092121862 -2.1453937e-17)
(94.166893 0.095076135 -2.0709321e-17)
(94.166454 0.10144177 -2.6653271e-22)
(94.166539 0.10320181 -1.9304311e-17)
(94.167942 0.10721236 -1.8721325e-17)
(94.169446 0.10415841 0)
(94.169358 0.10252789 0)
(94.168336 0.094368352 1.653678e-17)
(94.168369 0.10570025 1.3700206e-22)
(94.169365 0.10229319 -1.5154789e-17)
(94.170909 0.098864188 2.9184707e-17)
(94.171804 0.09348501 0)
(94.171526 0.094685467 -2.6640938e-17)
(94.169158 0.086094192 1.2671889e-17)
(94.169557 0.09846335 -3.6275953e-17)
(94.173549 0.097440252 4.6104171e-17)
(94.182122 0.10628751 -5.4865046e-18)
(94.196147 0.11065222 -3.6505733e-17)
(94.221614 0.10328913 -4.4603409e-17)
(94.256347 0.12054527 9.4135318e-18)
(94.302928 0.085229215 1.3850531e-16)
(94.389992 0.1152619 -6.7855079e-17)
(94.569808 0.043846904 -6.4377317e-17)
(94.787587 0.16260141 6.0864905e-17)
(93.364714 0.0037586443 1.739607e-17)
(93.679552 0.013725563 0)
(93.954912 0.015939849 -1.2770008e-17)
(94.115441 0.020526217 -4.2063843e-18)
(94.195242 0.02228391 3.6771205e-22)
(94.231206 0.024279467 0)
(94.246244 0.026526471 0)
(94.25205 0.0288999 2.7956104e-22)
(94.253744 0.03146073 -3.9323894e-17)
(94.253318 0.03415537 3.8743122e-17)
(94.251296 0.03697749 1.5245855e-17)
(94.247836 0.039855067 7.5603361e-23)
(94.243141 0.044194346 1.4723417e-17)
(94.237532 0.047803821 1.4450894e-17)
(94.231324 0.05217556 -4.5611393e-23)
(94.224775 0.056597859 1.3882034e-17)
(94.218148 0.061304748 1.3586555e-17)
(94.211686 0.066234575 0)
(94.205577 0.071237232 2.5948649e-17)
(94.199877 0.076194175 -1.2658469e-17)
(94.194562 0.081138999 -4.9345522e-17)
(94.189595 0.085863916 0)
(94.184923 0.090240683 0)
(94.18058 0.094126496 0)
(94.176729 0.097797221 -6.5973373e-17)
(94.173483 0.10145986 8.5190088e-17)
(94.170872 0.10482265 1.6745228e-22)
(94.168856 0.10906593 1.9862554e-17)
(94.167773 0.1122535 1.9154707e-17)
(94.168373 0.11918815 -1.8555963e-17)
(94.169044 0.11860199 1.7766177e-17)
(94.169621 0.11927456 -3.4502264e-17)
(94.171013 0.11941247 3.4795316e-22)
(94.170445 0.099511101 -1.5766915e-17)
(94.170171 0.10858602 4.5239937e-17)
(94.1715 0.10740813 -4.3352436e-17)
(94.172734 0.10805711 -2.7740257e-17)
(94.172748 0.10351256 0)
(94.17434 0.10486796 0)
(94.175574 0.088868871 6.0304964e-18)
(94.177664 0.11044666 -5.7374264e-18)
(94.185062 0.10347907 0)
(94.200139 0.11350679 8.3201704e-17)
(94.225192 0.10220547 0)
(94.260597 0.12395805 -3.7600246e-17)
(94.310178 0.089262837 -7.1319118e-17)
(94.403143 0.12077459 0)
(94.580819 0.042343757 6.4242951e-17)
(94.783505 0.11991507 0)
(93.385591 0.002515372 0)
(93.699509 0.013496111 0)
(93.972732 0.015917898 0)
(94.131233 0.021342192 -1.6540594e-17)
(94.209824 0.023805161 3.2679326e-17)
(94.245332 0.026563239 0)
(94.260396 0.02949254 0)
(94.266441 0.03250206 3.1394682e-17)
(94.268407 0.035627903 1.5480777e-17)
(94.268229 0.038580112 1.5256177e-17)
(94.266459 0.042045979 -1.1728645e-22)
(94.263214 0.04535895 1.4763446e-17)
(94.258638 0.049303687 0)
(94.25314 0.053581002 0)
(94.247012 0.057527942 -2.6722491e-23)
(94.2404 0.062093382 -9.5983076e-23)
(94.233528 0.066666397 -1.3408503e-17)
(94.226584 0.071340206 -2.6230337e-17)
(94.219774 0.076220076 1.2814768e-17)
(94.213241 0.081268181 -1.2508172e-17)
(94.207035 0.086514649 2.4390722e-17)
(94.201131 0.091763867 0)
(94.195469 0.097022443 2.3106472e-17)
(94.190017 0.10198395 1.1100722e-22)
(94.184868 0.10671366 3.0682523e-23)
(94.180323 0.11143421 -2.1111124e-17)
(94.176639 0.11596699 -4.2057429e-23)
(94.173821 0.12038751 -1.9749814e-17)
(94.171845 0.12392324 0)
(94.170406 0.12767472 0)
(94.169664 0.12983653 0)
(94.16965 0.13084534 3.4093872e-17)
(94.170679 0.13394771 0)
(94.173281 0.12709596 0)
(94.174953 0.12128896 0)
(94.175252 0.11554784 2.8839871e-17)
(94.174945 0.11401724 -8.0181878e-23)
(94.173696 0.11296097 -2.6361713e-17)
(94.174701 0.11370639 0)
(94.178366 0.115323 0)
(94.18339 0.094706388 0)
(94.188907 0.10647444 0)
(94.203495 0.10977916 -8.2866014e-17)
(94.226516 0.10167822 0)
(94.261808 0.11996654 4.6707861e-18)
(94.314734 0.09389283 -4.4557518e-18)
(94.413981 0.13234455 6.9634769e-17)
(94.588108 0.053589142 -6.5023209e-17)
(94.780752 0.202557 -9.5099949e-19)
(93.405524 -0.00028033413 0)
(93.718572 0.011407139 0)
(93.989642 0.013980996 0)
(94.146099 0.02026859 1.626322e-17)
(94.223452 0.023445789 -1.6068377e-17)
(94.258479 0.027047645 0)
(94.273554 0.030809633 1.5662109e-17)
(94.279855 0.034592437 -2.3171194e-17)
(94.282144 0.03844717 -1.5225621e-17)
(94.282276 0.041824605 7.5039143e-18)
(94.280775 0.04581276 -1.4784115e-17)
(94.277794 0.049645838 -1.4543255e-17)
(94.273455 0.053468839 0)
(94.268142 0.057207942 0)
(94.262185 0.061442438 -1.3778915e-17)
(94.255747 0.065362715 1.3509565e-17)
(94.248957 0.069540964 -8.8976516e-23)
(94.241962 0.0736505 1.2948779e-17)
(94.234894 0.077884744 2.5315388e-17)
(94.227903 0.082398595 3.7080114e-17)
(94.221088 0.087397799 -1.2056007e-17)
(94.214462 0.092719116 7.0479515e-17)
(94.207992 0.098569999 2.2827434e-22)
(94.201624 0.10473696 2.2223517e-17)
(94.19536 0.11098861 -2.1573738e-17)
(94.189407 0.11719634 2.0917282e-17)
(94.184152 0.12324407 -1.5829589e-22)
(94.179951 0.12913882 0)
(94.176924 0.13476449 -1.8932317e-17)
(94.174557 0.13906932 3.6504853e-17)
(94.172905 0.14131517 2.105308e-22)
(94.172061 0.14099645 -3.3748906e-17)
(94.172042 0.14305551 3.4160101e-22)
(94.1746 0.1456687 1.5654022e-17)
(94.176917 0.13558515 0)
(94.177372 0.13183092 2.8663245e-17)
(94.176473 0.11915889 5.5112805e-17)
(94.176035 0.11979357 3.937596e-17)
(94.17635 0.11399303 2.5908919e-22)
(94.179262 0.11930944 2.5572943e-22)
(94.18543 0.11444526 5.7178708e-18)
(94.194555 0.11207001 1.0881324e-17)
(94.207577 0.11218651 -1.0295683e-17)
(94.228046 0.099579258 4.9186137e-18)
(94.261481 0.1194621 0)
(94.315063 0.09536857 3.3379969e-17)
(94.420244 0.13372376 -6.5393398e-17)
(94.596573 0.052644149 9.9799247e-19)
(94.776871 0.12944592 -9.4653181e-19)
(93.424765 -0.0031882737 -1.6515503e-17)
(93.73709 0.0090027631 2.0441077e-18)
(94.006052 0.011567301 1.0110669e-17)
(94.160449 0.0185808 -1.1994638e-17)
(94.236459 0.022423405 -7.9016526e-18)
(94.270862 0.026878229 -7.8046001e-18)
(94.285809 0.031490653 -3.0819984e-17)
(94.292232 0.036090213 1.5203415e-17)
(94.294721 0.040729257 7.4943956e-18)
(94.295149 0.044688005 -2.2166732e-17)
(94.293886 0.049386992 0)
(94.291128 0.05358448 1.4327399e-17)
(94.287061 0.05781586 0)
(94.281989 0.061723889 -1.3130351e-22)
(94.276222 0.065668565 2.7174112e-17)
(94.269962 0.069284389 -2.6652496e-17)
(94.263315 0.072849574 3.9175215e-17)
(94.25643 0.076279638 -1.2783444e-17)
(94.249411 0.079529213 -2.5003366e-17)
(94.242369 0.082958352 -1.2213115e-17)
(94.235378 0.086726377 -2.3836644e-17)
(94.228438 0.091174813 -2.3235105e-17)
(94.22151 0.096489633 -2.2622536e-17)
(94.214546 0.10269387 -2.1999901e-17)
(94.207533 0.10965175 -2.1368202e-17)
(94.200562 0.11704647 2.0727823e-17)
(94.1939 0.12451714 -2.0080813e-17)