/*--------------------------------*- C++ -*----------------------------------*\
| =========                 |                                                 |
| \\      /  F ield         | OpenFOAM: The Open Source CFD Toolbox           |
|  \\    /   O peration     | Version:  2506                                  |
|   \\  /    A nd           | Website:  www.openfoam.com                      |
|    \\/     M anipulation  |                                                 |
\*---------------------------------------------------------------------------*/
FoamFile
{
    version     2.0;
    format      ascii;
    arch        "LSB;label=32;scalar=64";
    class       volScalarField;
    location    "0.35";
    object      nut;
}
// * * * * * * * * * * * * * * * * * * * * * * * * * * * * * * * * * * * * * //

dimensions      [0 2 -1 0 0 0 0];

internalField   nonuniform List<scalar> 
1376
(
0.19743021
0.19610826
0.19500805
0.19415447
0.19352883
0.19309472
0.19279074
0.19256901
0.19239536
0.19225034
0.19212719
0.19202257
0.19193089
0.19185043
0.19177816
0.19171496
0.19165779
0.19161015
0.19156448
0.19152416
0.19148932
0.19146107
0.19143627
0.19141435
0.19140306
0.19139606
0.19139859
0.19142968
0.19148446
0.19156042
0.19166373
0.1918444
0.18274971
0.15023792
0.11848012
0.093847115
0.080061681
0.066054601
0.036349905
0.02262385
0.013813698
0.0028660571
0.0063069363
0.0090579125
0.012236716
0.017335479
0.010104912
0.0060814234
0.00074357464
0.19740932
0.19615287
0.19510702
0.19427309
0.19365216
0.19321236
0.19290125
0.19267185
0.19249149
0.19234132
0.19221271
0.19210318
0.19200685
0.191922
0.19184567
0.1917782
0.19171687
0.19166529
0.19161664
0.19157276
0.19153477
0.19150213
0.19147631
0.19145186
0.19143465
0.19142663
0.19142845
0.19145351
0.19149984
0.19156111
0.19166802
0.19183483
0.18719693
0.15103672
0.12664845
0.10432465
0.079517064
0.066800489
0.049853949
0.038467083
0.0052234749
0.03139272
0.0059863008
0.022322383
0.0082075538
0.0058501951
0.01018281
0.0045651059
0.00071757869
0.19753067
0.19630723
0.19527369
0.19444348
0.19381397
0.19335961
0.19303407
0.19279287
0.19260356
0.1924463
0.19231108
0.19219472
0.19209266
0.19200228
0.19192091
0.19184842
0.19178256
0.19172577
0.19167269
0.1916249
0.19158321
0.19154679
0.19151856
0.1914906
0.19146833
0.19145665
0.19145819
0.19147287
0.19151006
0.19156489
0.19167817
0.1918193
0.18729628
0.15406599
0.1240816
0.1027239
0.081979329
0.065775132
0.051097512
0.038961214
0.021795062
0.0062241863
0.0088349044
0.011272757
0.012122099
0.010377783
0.0075061694
0.0041037575
0.00074889256
0.19761059
0.19642016
0.19542341
0.19460678
0.19397417
0.19350929
0.19317159
0.19291984
0.19272175
0.19255702
0.19241545
0.19229203
0.19218392
0.19208734
0.19200076
0.19192277
0.19185222
0.19178909
0.19173208
0.19167975
0.19163473
0.19159427
0.1915616
0.19153089
0.19150446
0.19149101
0.19148853
0.19149501
0.19152767
0.19157667
0.19168348
0.19180514
0.19202539
0.15911609
0.1278207
0.10060392
0.085349718
0.066005719
0.051006155
0.045510239
0.016127997
0.014996901
0.01726769
0.016398817
0.010229932
0.0078723291
0.0065949323
0.0039170618
0.0007669021
0.19770024
0.19654809
0.19558057
0.19477422
0.19413913
0.19366569
0.19331705
0.19305512
0.1928483
0.19267609
0.19252744
0.19239652
0.19228131
0.19217812
0.19208593
0.19200214
0.19192638
0.19185758
0.19179595
0.191739
0.19168947
0.19164446
0.19160749
0.19157364
0.19154522
0.19152686
0.19151962
0.19152323
0.19154463
0.1915885
0.19168353
0.19180191
0.19200307
0.16127992
0.1296069
0.10676742
0.083917117
0.065895359
0.055172016
0.036827715
0.050274363
0.019128784
0.013560884
0.012809785
0.011040415
0.0080811415
0.0062823877
0.0034986448
0.00077722134
0.19778337
0.19667768
0.19573367
0.19493985
0.19430635
0.19382671
0.19347003
0.19319881
0.19298348
0.19280329
0.19264676
0.19250777
0.19238492
0.19227481
0.19217608
0.19208648
0.1920049
0.1919302
0.19186317
0.1918014
0.1917468
0.19169778
0.1916566
0.19162124
0.1915895
0.19156507
0.19155202
0.19155247
0.191567
0.19160393
0.19167588
0.19180867
0.19197903
0.16497684
0.13198518
0.10377491
0.085670012
0.070434891
0.049571471
0.052057097
0.022775469
0.018508716
0.02593933
0.0147834
0.011204136
0.0080095875
0.0054963025
0.0034753969
0.00082781751
0.19787141
0.19680698
0.19588335
0.19510422
0.19447566
0.19399412
0.19363139
0.19335132
0.19312702
0.19293836
0.19277302
0.19262593
0.192495
0.19237729
0.19227142
0.19217527
0.19208747
0.19200675
0.19193369
0.19186828
0.19180789
0.19175329
0.19170784
0.19167097
0.19163504
0.1916045
0.19158697
0.19158308
0.19159277
0.19162121
0.19167752
0.19181638
0.19195487
0.1670878
0.13655857
0.10851565
0.085156336
0.067482008
0.057375375
0.037992213
0.05110502
0.019038145
0.016362119
0.014885302
0.010199486
0.0074465417
0.0052334477
0.0031423103
0.00084030762
0.19796162
0.19693457
0.19603314
0.19527178
0.19465108
0.19417164
0.19380206
0.19351312
0.19327887
0.19308072
0.19290616
0.19275042
0.1926108
0.19248506
0.19237157
0.19226805
0.19217416
0.19208732
0.19200789
0.19193731
0.19187095
0.19181101
0.19176245
0.19172159
0.19168113
0.19164517
0.19162238
0.19161397
0.19161891
0.19163876
0.19169206
0.1918134
0.19193881
0.17149648
0.13732001
0.11189778
0.086570006
0.069915917
0.053624172
0.045931786
0.028656085
0.025794353
0.020387411
0.015647256
0.011895883
0.0081303119
0.005358444
0.0031206202
0.0008911419
0.19804678
0.19706204
0.19618784
0.19544662
0.1948362
0.19435717
0.19398129
0.19368325
0.1934378
0.19322877
0.1930446
0.19287942
0.19273086
0.19259696
0.19247566
0.19236453
0.1922634
0.19217053
0.19208504
0.19200799
0.1919369
0.19187212
0.1918182
0.1917724
0.19172964
0.19168959
0.19166109
0.1916474
0.19164854
0.19166125
0.19171465
0.19179097
0.19193652
0.17470841
0.13878858
0.11158455
0.091722667
0.069030897
0.056422241
0.041667439
0.037664393
0.023937519
0.018517893
0.013753125
0.0099036304
0.0067633155
0.0047705947
0.0028253019
0.00091516388
0.19812864
0.19719076
0.19634865
0.19562646
0.19502733
0.19454727
0.19416588
0.19385756
0.19360058
0.19338021
0.19318615
0.19301168
0.19285421
0.19271192
0.19258243
0.19246358
0.19235484
0.19225548
0.19216349
0.1920805
0.19200497
0.19193433
0.19187414
0.19182454
0.19177975
0.19173565
0.19170171
0.19168313
0.1916794
0.19168693
0.19173308
0.19177536
0.19195785
0.17894123
0.14469583
0.11234506
0.0904036
0.07326804
0.056089539
0.045610315
0.032184907
0.027617413
0.020678628
0.015095635
0.011534539
0.0079316098
0.0053758698
0.0028696161
0.00089465586
0.19821488
0.19731811
0.19650508
0.19580233
0.19521571
0.19473786
0.19435098
0.19403267
0.19376443
0.19353309
0.19332926
0.19314601
0.19297952
0.19282829
0.19269018
0.19256346
0.19244691
0.1923407
0.19224259
0.19215334
0.19207285
0.19199739
0.19193184
0.19187773
0.19182936
0.19178143
0.19174238
0.19171903
0.19171095
0.19171477
0.19174988
0.19177542
0.19197234
0.18194557
0.14663991
0.11762562
0.091207816
0.072741731
0.057276013
0.044705889
0.035134421
0.026004851
0.019569664
0.014069184
0.0099917944
0.0070403953
0.0041959845
0.002791806
0.00090606646
0.19830038
0.19743581
0.19664782
0.19596652
0.19539349
0.19492069
0.19453181
0.19420548
0.19392743
0.19368596
0.19347244
0.1932802
0.19310442
0.19294391
0.19279696
0.19266197
0.19253786
0.19242457
0.19232034
0.19222491
0.19213919
0.19205917
0.19198791
0.19192913
0.19187756
0.19182634
0.19178216
0.19175357
0.19174125
0.19174265
0.19176732
0.19179385
0.19197524
0.18617206
0.14889413
0.1193391
0.094174778
0.074506939
0.058239445
0.045717243
0.035524225
0.026464548
0.021505725
0.014565545
0.011216086
0.0072419383
0.0049327486
0.0026450114
0.00093216594
0.19837921
0.197543
0.19677862
0.19611907
0.19555984
0.19509312
0.19470372
0.19437211
0.1940868
0.19383642
0.19361308
0.19341131
0.19322612
0.19305606
0.19290034
0.19275727
0.1926256
0.19250554
0.19239566
0.19229457
0.19220377
0.19211964
0.19204311
0.19197899
0.19192405
0.19187091
0.19182299
0.19178988
0.19177332
0.19177203
0.19178558
0.19183374
0.19194346
0.18890823
0.15259921
0.12090835
0.095671241
0.074837385
0.05949823
0.045920405
0.036161177
0.026973169
0.019700247
0.015765794
0.0096467803
0.0069815989
0.0044698438
0.0027703353
0.00092574712
0.19846184
0.19765192
0.19690619
0.19626197
0.19571656
0.19525634
0.1948671
0.19453249
0.19424054
0.19398122
0.19374785
0.19353605
0.19334138
0.19316193
0.19299742
0.19284669
0.19270821
0.19258198
0.19246659
0.19236018
0.19226442
0.1921765
0.19209555
0.19202659
0.19196819
0.19191316
0.19186212
0.19182482
0.1918043
0.19180005
0.19180699
0.19185973
0.19191465
0.19207216
0.15510435
0.12317725
0.097466941
0.075955126
0.059812275
0.046398402
0.03595771
0.028114619
0.020087721
0.014817564
0.010993454
0.007201332
0.0042116651
0.0024874807
0.00093153679
0.19852621
0.19773784
0.19701562
0.19639221
0.19586082
0.19540951
0.19502095
0.19468295
0.19438322
0.19411469
0.19387172
0.19365026
0.19344656
0.19325862
0.19308606
0.19292828
0.19278363
0.19265206
0.19253199
0.19242091
0.1923202
0.19222805
0.19214279
0.19206925
0.19200752
0.19195091
0.19189774
0.19185691
0.19183252
0.19182535
0.1918268
0.1918791
0.19189686
0.19211921
0.1569978
0.12500496
0.098105036
0.077186374
0.059975222
0.047301198
0.035696917
0.027708136
0.020631339
0.014671946
0.010475215
0.0067476094
0.0044283856
0.0028063392
0.00091735629
0.19857847
0.19780604
0.19710548
0.19650228
0.19598669
0.19554137
0.19515403
0.19481208
0.19450608
0.19423005
0.19397917
0.1937497
0.19353819
0.19334281
0.19316325
0.19299943
0.19284971
0.19271356
0.19258935
0.1924742
0.19236918
0.19227337
0.19218479
0.19210766
0.19204304
0.19198498
0.19193041
0.19188668
0.19185851
0.1918476
0.19184349
0.19189294
0.19187986
0.19212114
0.15858076
0.12680634
0.099689191
0.077748132
0.060859453
0.047436056
0.036857507
0.027406557
0.020882291
0.014755633
0.010401141
0.0071831505
0.0042304523
0.0023586595
0.00091452755
0.19861656
0.19786198
0.19718357
0.19659853
0.19609549
0.19565597
0.19526578
0.19491753
0.19460576
0.1943238
0.19406719
0.19383174
0.19361417
0.19341295
0.19322788
0.19305897
0.19290449
0.19276378
0.19263559
0.19251683
0.19240814
0.19230941
0.19221877
0.19213945
0.19207282
0.19201359
0.19195797
0.19191174
0.19187983
0.19186468
0.19185539
0.19190111
0.19186436
0.19212057
0.16227424
0.12962828
0.10213691
0.079635332
0.06218611
0.048463711
0.037572687
0.028429372
0.021044866
0.015319616
0.010499857
0.0069570352
0.0043264592
0.0027199761
0.00092429186
0.19864293
0.19790374
0.1972399
0.19666597
0.1961681
0.19573201
0.19534243
0.19499227
0.19467763
0.1943927
0.19413237
0.19389279
0.19367138
0.19346655
0.19327768
0.1931047
0.19294601
0.19280106
0.19266914
0.19254739
0.19243589
0.19233493
0.19224297
0.1921622
0.19209381
0.19203332
0.1919768
0.19192857
0.19189353
0.19187493
0.1918624
0.1919058
0.19185706
0.19212207
0.16629052
0.13307987
0.10469911
0.081447527
0.063530565
0.049638203
0.038221844
0.029053157
0.021404475
0.01551058
0.010822502
0.0071781881
0.0044374267
0.0026170772
0.00093290738
0.19865695
0.19792848
0.1972757
0.19671119
0.19621867
0.19578435
0.19539674
0.19504593
0.19472856
0.19443979
0.19417542
0.19393196
0.19370705
0.19349914
0.19330743
0.19313177
0.19297081
0.19282382
0.19269028
0.19256728
0.19245437
0.19235185
0.1922587
0.1921765
0.19210611
0.19204397
0.19198659
0.19193775
0.1919025
0.19188443
0.19187367
0.19191973
0.19187596
0.19214332
0.16332487
0.13054776
0.1027694
0.079847269
0.062153864
0.04852669
0.037481144
0.028239158
0.020897475
0.015011291
0.010459446
0.0069439427
0.0042462043
0.002546995
0.00091894187
0.19866105
0.1979369
0.19728703
0.19672239
0.19623076
0.19579705
0.19540807
0.19505538
0.19473641
0.19444643
0.19418127
0.19393705
0.19371156
0.19350347
0.19331188
0.19313649
0.19297629
0.19283027
0.19269793
0.19257612
0.19246386
0.19236123
0.19226753
0.19113655
0.19115712
0.19118762
0.19122397
0.19126938
0.19132641
0.19139768
0.19149005
0.19161042
0.19177484
0.19200024
0.19233363
0.19286822
0.19378411
0.19521183
0.1913684
0.19127972
0.19120828
0.19115144
0.19112399
0.19110784
0.191111
0.19110432
0.19110834
0.19111839
0.19113657
0.19114912
0.19117105
0.19119051
0.19121493
0.19124879
0.1912903
0.19134059
0.19140294
0.19147919
0.19157695
0.19170446
0.19187755
0.1921176
0.19247204
0.19303477
0.19398099
0.19540876
0.057729956
0.049167856
0.097091665
0.094369493
0.11181781
0.12908468
0.18322937
0.19193018
0.19168696
0.19150173
0.19137252
0.19129781
0.19124147
0.19119418
0.19116163
0.19115211
0.19115008
0.19114649
0.19115173
0.19116102
0.19118037
0.19119742
0.19122222
0.19124724
0.19127639
0.19131418
0.19135938
0.19141487
0.19148215
0.1915642
0.19166791
0.19180255
0.19198509
0.19224004
0.19261781
0.19321121
0.19418647
0.19560903
0.016913072
0.014835773
0.022773897
0.017520464
0.034620714
0.012317232
0.030685166
0.022620483
0.038383518
0.064356479
0.080757801
0.087117968
0.11301353
0.15271829
0.18880006
0.1922066
0.19183314
0.19162011
0.19146276
0.19134236
0.19127332
0.19123143
0.19121552
0.19119172
0.1911868
0.19118993
0.19118725
0.19119469
0.19120679
0.1912294
0.19124945
0.19127665
0.19130526
0.19133945
0.1913818
0.19143126
0.19149181
0.19156442
0.19165292
0.19176335
0.19190534
0.19209803
0.19236891
0.19277215
0.1933975
0.19439847
0.19581383
0.00077030934
0.021251556
0.024478306
0.014250907
0.016568372
0.011170994
0.032153949
0.010055876
0.013560871
0.028969279
0.035671822
0.046747442
0.053021483
0.088196173
0.10149726
0.12713985
0.15593561
0.19215989
0.19183781
0.19161941
0.19147521
0.19137392
0.19130252
0.19125131
0.19121467
0.19121082
0.19120813
0.19121882
0.19122593
0.19123708
0.19125458
0.19127944
0.19130278
0.19133289
0.19136449
0.19140359
0.19145077
0.19150602
0.19157186
0.19165058
0.19174606
0.19186371
0.19201353
0.19221675
0.19250401
0.19293494
0.19359519
0.19462055
0.1960243
0.00077322005
0.0089000476
0.013396342
0.012239514
0.023660386
0.026066412
0.030998825
0.017589352
0.018045983
0.033810531
0.036936036
0.058571846
0.083497776
0.087935924
0.11628291
0.13313313
0.15906193
0.1892349
0.19180481
0.1915984
0.19146288
0.19138887
0.19131654
0.19128181
0.19125918
0.19124361
0.19124462
0.19125161
0.19126456
0.19127964
0.19130259
0.19132856
0.19135639
0.19138881
0.19142644
0.19147086
0.1915236
0.19158456
0.191656
0.19174104
0.19184372
0.19196913
0.19212742
0.19234183
0.19264698
0.19310836
0.19380545
0.1948518
0.19624235
0.00074069011
0.010678561
0.0091522495
0.010010124
0.027538401
0.014183542
0.03166106
0.028144999
0.029135221
0.041620329
0.068480888
0.061093259
0.085744471
0.098708669
0.1046623
0.13615146
0.18016182
0.19202743
0.19176873
0.19158172
0.19144669
0.19138613
0.19132705
0.19128958
0.19128178
0.19128061
0.19128305
0.19129417
0.19130847
0.19132667
0.19135256
0.19138116
0.19141349
0.19144976
0.19149171
0.1915415
0.19159971
0.19166648
0.19174384
0.19183576
0.191946
0.19207971
0.19224773
0.19247513
0.19280119
0.1932948
0.19402806
0.19509175
0.19646948
0.00072487248
0.01074643
0.013767919
0.012752006
0.018625691
0.028237431
0.02107411
0.011149096
0.023469524
0.041443154
0.046836579
0.062253706
0.069229809
0.088961859
0.1219715
0.14224811
0.17062315
0.19197845
0.19174067
0.19157997
0.19145527
0.19139607
0.19134063
0.19131711
0.19130854
0.19130762
0.19131731
0.19133307
0.19135204
0.19137489
0.19140497
0.19143812
0.19147279
0.19151356
0.19156015
0.19161527
0.19167873
0.19175148
0.1918352
0.1919345
0.19205287
0.19219544
0.19237473
0.1926177
0.19296662
0.19349525
0.19426297
0.19534264
0.19670732
0.00073413017
0.0057786806
0.0087984409
0.0059051359
0.012946569
0.010037962
0.0121039
0.0068668985
0.017747166
0.024735561
0.053160097
0.073390506
0.087793906
0.096200524
0.10953533
0.14523863
0.17466733
0.19192964
0.19170668
0.19157299
0.19146782
0.1914026
0.19136178
0.19134313
0.19134151
0.19134158
0.19135349
0.19137145
0.19139348
0.19142208
0.19145631
0.1914942
0.19153292
0.19157788
0.19163059
0.19169173
0.19176054
0.19183944
0.19193016
0.19203712
0.19216421
0.19231647
0.19250849
0.19276942
0.19314514
0.19370898
0.19450933
0.19560546
0.19696034
0.00073918823
0.0081311792
0.0094905354
0.0078115401
0.0057481619
0.0077871776
0.0058235336
0.0062436269
0.010515941
0.032805179
0.072404409
0.065444313
0.0774795
0.09820601
0.12630045
0.15004869
0.18083877
0.19188411
0.19167964
0.19156271
0.19147455
0.19141089
0.19137664
0.191371
0.19137218
0.19137867
0.19139547
0.19141654
0.19144005
0.19147206
0.19150885
0.19155119
0.19159463
0.19164575
0.19170375
0.1917709
0.19184549
0.19193086
0.19202868
0.19214383
0.19227991
0.19244262
0.19264925
0.19293125
0.19333579
0.19393312
0.19476387
0.19586783
0.19722168
)
;

boundaryField
{
    Side
    {
        type            empty;
    }
    Inlet
    {
        type            calculated;
        value           nonuniform List<scalar> 
30
(
0.1981381
0.19811318
0.19817164
0.19823466
0.19830015
0.19834478
0.19839476
0.19846209
0.19851873
0.19857167
0.19863444
0.19870077
0.19875907
0.19882893
0.19888683
0.19893401
0.19896962
0.19899352
0.19900639
0.19901035
0.19948568
0.19940186
0.19927134
0.19913349
0.19903928
0.19901025
0.19905388
0.19907092
0.19870298
0.19817581
)
;
    }
    Airfoil
    {
        type            nutkWallFunction;
        blending        stepwise;
        value           nonuniform List<scalar> 
25
(
0.00085806375
0.00084830266
0.00084098658
0.00083609145
0.00083318718
0.00083221881
0.00083285713
0.0008349881
0.00083838382
0.00084284827
0.00084815683
0.00085405685
0.00086026276
0.0008664357
0.00087230814
0.00087769825
0.00088243046
0.00088619048
0.0008886921
0.00089995413
0.00089037289
0.00088234826
0.000875227
0.00087046547
0.0008676251
)
;
    }
    Outlet
    {
        type            calculated;
        value           nonuniform List<scalar> 0();
    }
    procBoundary7to0
    {
        type            processor;
        value           nonuniform List<scalar> 
50
(
0.19218393
0.19211123
0.19204702
0.19198846
0.19193939
0.1919051
0.19188884
0.19188065
0.19192927
0.19189513
0.19216272
0.15898282
0.12706917
0.10006532
0.077799533
0.06056202
0.04730316
0.036464142
0.027496514
0.020259321
0.014586151
0.010091539
0.0066711874
0.0040332652
0.0023495682
0.00088431644
0.19865751
0.19792961
0.19727627
0.19671031
0.19621786
0.19578381
0.19539631
0.19504571
0.19472828
0.19443948
0.19417516
0.19393149
0.19370633
0.19349852
0.19330713
0.19313169
0.19297056
0.19282324
0.1926899
0.19256729
0.19245411
0.19235105
0.19218393
0.19225802
)
;
    }
    procBoundary7to8
    {
        type            processor;
        value           nonuniform List<scalar> 
53
(
0.19108471
0.19110323
0.19112944
0.1911602
0.19120114
0.19125307
0.19131923
0.19140648
0.1915205
0.19167624
0.19188808
0.19220196
0.19271058
0.19359951
0.19501573
0.19132049
0.19124506
0.19120089
0.19117138
0.19110636
0.1910916
0.19108518
0.19107161
0.19107166
0.19107824
0.19109772
0.19110343
0.19112138
0.19112138
0.043888319
0.075921976
0.074784962
0.10923111
0.13302113
0.16446165
0.19230548
0.19199728
0.19171708
0.19151174
0.19151174
0.01317402
0.021155162
0.014322469
0.021529717
0.014469498
0.039360278
0.055969331
0.051373871
0.058342169
0.058342169
0.00078624527
0.020217724
0.020217724
)
;
    }
}


// ************************************************************************* //
