/*--------------------------------*- C++ -*----------------------------------*\
| =========                 |                                                 |
| \\      /  F ield         | OpenFOAM: The Open Source CFD Toolbox           |
|  \\    /   O peration     | Version:  2506                                  |
|   \\  /    A nd           | Website:  www.openfoam.com                      |
|    \\/     M anipulation  |                                                 |
\*---------------------------------------------------------------------------*/
FoamFile
{
    version     2.0;
    format      ascii;
    arch        "LSB;label=32;scalar=64";
    class       volScalarField;
    location    "0.006";
    object      Ma;
}
// * * * * * * * * * * * * * * * * * * * * * * * * * * * * * * * * * * * * * //

dimensions      [0 0 0 0 0 0 0];

internalField   nonuniform List<scalar> 
13761
(
0.00043250567
0.0011938076
0.0017951851
0.0021889927
0.0023450401
0.0022863048
0.0021368247
0.0022516263
0.0031036577
0.0044852836
0.0060424267
0.0076260529
0.0091949776
0.010743598
0.012274757
0.013791989
0.015297314
0.01679023
0.018267841
0.019728588
0.021186058
0.022653931
0.024143916
0.02566595
0.027228836
0.02884023
0.030507436
0.032237889
0.034037606
0.035908872
0.037851053
0.039862394
0.041940254
0.044081092
0.046280924
0.048535082
0.050838749
0.053203396
0.055647643
0.058182908
0.060819204
0.063563608
0.066424895
0.069416766
0.072545744
0.075815949
0.07924747
0.08294784
0.087304644
0.091576591
0.09731141
0.11140128
0.13609104
0.16064056
0.1785728
0.18936431
0.19467547
0.19752459
0.19939914
0.20113775
0.20251515
0.20339336
0.20410128
0.20459771
0.2043446
0.20334189
0.20244376
0.20232013
0.20270754
0.20326523
0.2045876
0.20684268
0.20911994
0.21039604
0.21072754
0.21019459
0.20943506
0.20915863
0.20951189
0.21035005
0.21151991
0.21273255
0.21390015
0.21492583
0.21602175
0.21722897
0.21838344
0.21960474
0.22078715
0.22217074
0.22362875
0.22500895
0.22627077
0.22746862
0.22851905
0.2297107
0.23086302
0.23212243
0.23341337
0.23482842
0.23625982
0.23785531
0.23950213
0.24110246
0.24268865
0.24437631
0.24644621
0.24890478
0.25151657
0.25426744
0.25667513
0.25951435
0.26341587
0.26548048
0.26848382
0.27369103
0.27430119
0.27749503
0.28375524
0.2840005
0.28350007
0.28841572
0.29380377
0.29521124
0.29509832
0.29504753
0.2957389
0.29706989
0.29835111
0.29912816
0.29945949
0.29956332
0.2995883
0.29959202
0.29959229
0.29959231
0.29959231
0.29959231
0.00043617851
0.0013355092
0.0023004579
0.0033349349
0.004442709
0.0056295149
0.0069015625
0.0082649241
0.0097245432
0.011280935
0.01292693
0.014642237
0.016390487
0.018126269
0.019808647
0.021413309
0.022936294
0.024389062
0.025790996
0.02716431
0.028530886
0.02990981
0.031316955
0.032765353
0.034264954
0.035823258
0.037445598
0.039135225
0.040893684
0.042720876
0.044615157
0.04657347
0.048591268
0.05066237
0.05277729
0.054919079
0.05714177
0.059448331
0.061827959
0.064276374
0.066796815
0.069400035
0.0721021
0.074920721
0.077872822
0.08097473
0.08426182
0.087920776
0.09217412
0.096529178
0.10465392
0.12374746
0.14910721
0.17083348
0.18506607
0.19286831
0.19685584
0.19914888
0.20056299
0.2021167
0.20344943
0.20408818
0.20461416
0.20486991
0.20434657
0.20318086
0.20236883
0.20233712
0.20278282
0.20355522
0.20512116
0.20742732
0.20958274
0.21062696
0.21076193
0.21009663
0.20930382
0.2091476
0.20961153
0.21047064
0.21170283
0.2129445
0.21408619
0.21508847
0.21619803
0.2173758
0.21846256
0.21964959
0.22088687
0.2222691
0.22372613
0.22507502
0.22636051
0.22756277
0.22860559
0.22984731
0.23098738
0.23226477
0.23356991
0.23498877
0.23641662
0.23802176
0.23966216
0.24127015
0.24282594
0.24453156
0.24660425
0.24911435
0.25171228
0.25442231
0.25685857
0.25967447
0.26351299
0.26562905
0.26862858
0.27368912
0.27443538
0.27763591
0.28374167
0.28401853
0.28364959
0.28846661
0.29375332
0.29519564
0.29514071
0.29517301
0.29580284
0.29710249
0.29836269
0.29912955
0.29945752
0.29956286
0.29958839
0.29959208
0.29959229
0.29959231
0.29959231
0.29959231
1.8111897e-05
2.1246927e-06
9.0844213e-05
0.00026608958
0.00054765706
0.0009591198
0.0015273099
0.0022810132
0.0032482834
0.0044494673
0.0058868433
0.0075324413
0.0093252314
0.011190571
0.013066997
0.014919939
0.016738501
0.018525896
0.02029234
0.022050986
0.023815826
0.025599411
0.027412441
0.029264038
0.031161111
0.033108713
0.035110171
0.037167125
0.039280041
0.041448351
0.043670769
0.045945901
0.04827309
0.050654025
0.053095338
0.055612447
0.058158404
0.060724988
0.06331048
0.065920475
0.068566663
0.071265561
0.074034839
0.076890718
0.079849476
0.082927484
0.086169177
0.089808949
0.093967246
0.098423804
0.10770834
0.12849985
0.15368775
0.17429962
0.18735548
0.19412394
0.19753071
0.19948509
0.20115795
0.20257435
0.20389433
0.20468615
0.2051753
0.20536453
0.20484955
0.20373705
0.20290893
0.20287266
0.20323786
0.20390818
0.20536594
0.20764227
0.20988135
0.21095721
0.21110305
0.21044633
0.20962088
0.20936579
0.20978407
0.21063948
0.21185256
0.21312293
0.21424563
0.21520875
0.21629923
0.21752434
0.2186389
0.21980787
0.22101602
0.22241502
0.2238823
0.22524292
0.22646882
0.22767251
0.22875819
0.22995029
0.23114033
0.23240604
0.23371192
0.23513487
0.23657207
0.23815116
0.23976167
0.24133827
0.24290782
0.24461144
0.24672457
0.24920124
0.25179239
0.2544929
0.25691201
0.25971344
0.26355851
0.26569248
0.26864417
0.27376504
0.27449255
0.27762681
0.28381921
0.28410206
0.28367704
0.28850791
0.29386783
0.29536605
0.29526646
0.29522019
0.29580599
0.2970845
0.29834378
0.29912416
0.29945569
0.29956269
0.29958828
0.29959208
0.2995923
0.29959231
0.29959231
0.29959231
0.00011785737
0.00040521741
0.00076565042
0.0012133868
0.0017645883
0.0024385519
0.0032571324
0.0042440073
0.0054233271
0.0068150339
0.0084278784
0.010248957
0.012235947
0.014323792
0.016444373
0.01854533
0.020598923
0.02259896
0.024551811
0.026470689
0.028371783
0.03027059
0.03218084
0.034114447
0.036080737
0.038086718
0.040137071
0.042234063
0.044377974
0.046567313
0.048799341
0.051070261
0.053374861
0.055707334
0.058062549
0.060436943
0.062831054
0.065245188
0.067683523
0.070154828
0.072671718
0.075250414
0.077910284
0.080672935
0.083560496
0.086596765
0.08984612
0.093633074
0.097781476
0.10306343
0.11508305
0.13784644
0.16218478
0.18040666
0.19107142
0.19671084
0.19958931
0.20130615
0.20260697
0.20385211
0.20481669
0.20536235
0.2058185
0.20580382
0.20506443
0.20382235
0.20315683
0.20329951
0.20367561
0.20437866
0.20597717
0.20824629
0.2103438
0.21123752
0.21125535
0.21059555
0.20976911
0.20951233
0.20998402
0.21089757
0.2121519
0.21339328
0.21446945
0.21542938
0.21655316
0.21776595
0.21882439
0.21996691
0.22122378
0.22262489
0.2241001
0.22543968
0.22668569
0.22789339
0.2289122
0.23013705
0.23130205
0.23257792
0.23386554
0.2353033
0.23676217
0.23836529
0.23997292
0.24153151
0.24308329
0.24479223
0.24693435
0.24944393
0.25201395
0.25467726
0.25710719
0.25990614
0.26367023
0.26582104
0.26879634
0.27376369
0.27461046
0.27776391
0.28379578
0.28415067
0.28377682
0.28848647
0.29389652
0.29543822
0.29534188
0.29535179
0.29586534
0.29708718
0.29834083
0.29912464
0.29945608
0.2995627
0.29958839
0.29959207
0.2995923
0.29959231
0.29959231
0.00015260543
0.00051556739
0.0009616875
0.0015065989
0.0021679483
0.0029667534
0.0039264963
0.0050718787
0.0064263594
0.0080054205
0.0098073833
0.011802559
0.013930575
0.016117102
0.01829801
0.020433698
0.022509476
0.02452786
0.026500237
0.028442167
0.030370577
0.032300911
0.03424649
0.03621872
0.038226346
0.040275782
0.04237107
0.04451367
0.04670295
0.048936441
0.051210178
0.05351905
0.055856967
0.05821768
0.060595692
0.062987178
0.065391629
0.067811858
0.070253957
0.072727612
0.075245809
0.077824718
0.080482844
0.083239589
0.086113728
0.089127819
0.09235675
0.096150074
0.10021525
0.10637216
0.12088792
0.14431529
0.16727071
0.18375894
0.19333001
0.19799997
0.20037056
0.2018504
0.20326048
0.20468481
0.20564531
0.20617827
0.20654294
0.20658553
0.20589017
0.20470847
0.20394925
0.2039882
0.20434508
0.20497061
0.20646372
0.20872168
0.21073621
0.2116558
0.2116514
0.21096212
0.2102286
0.20996384
0.21035014
0.21121087
0.2124124
0.21364232
0.21471444
0.21566311
0.21670964
0.21792766
0.21903011
0.22019547
0.22138004
0.22274419
0.22419581
0.22556816
0.22678255
0.22797983
0.22905624
0.23025572
0.23146053
0.23275171
0.23405158
0.235492
0.23692581
0.23849325
0.24006235
0.24161964
0.24316721
0.2449092
0.24705607
0.24954611
0.25209572
0.25475324
0.25716916
0.25995677
0.26375136
0.26588024
0.26882278
0.2738483
0.27466513
0.27779235
0.28387704
0.28424154
0.283813
0.2885623
0.29397009
0.29555702
0.29548814
0.29542457
0.29589763
0.2970987
0.29834103
0.29912207
0.29945486
0.29956255
0.29958833
0.29959206
0.2995923
0.29959231
0.29959231
0.00019947057
0.00066239775
0.0012195785
0.0018879297
0.0026864389
0.0036376951
0.0047666542
0.0060989116
0.0076573438
0.0094537888
0.011478678
0.013691187
0.016020976
0.018389823
0.020735726
0.02302331
0.025241187
0.027393459
0.02949175
0.031551227
0.03358823
0.035617553
0.037651923
0.039702244
0.041776855
0.043881894
0.046021336
0.048196968
0.050408677
0.052654409
0.05493014
0.057230527
0.059549931
0.061883512
0.064228155
0.066582389
0.068946363
0.071322713
0.073717886
0.076142396
0.078610556
0.081140039
0.083751053
0.086465291
0.089305172
0.092302531
0.095552781
0.099450688
0.10369873
0.11099824
0.12766063
0.15162588
0.17356827
0.18834577
0.19627822
0.20025538
0.2023352
0.20371913
0.20495203
0.20601885
0.20681201
0.20709808
0.2073296
0.207117
0.20621936
0.20489622
0.2042907
0.20451274
0.20482328
0.20551398
0.20717685
0.20954817
0.21142931
0.21209472
0.21190119
0.21114773
0.21035418
0.21010901
0.21062524
0.21153243
0.21272033
0.21390983
0.21493331
0.21590821
0.21697635
0.21815953
0.21925515
0.22036986
0.22161684
0.22300188
0.22445236
0.22578333
0.22699801
0.22821343
0.22925157
0.23047663
0.23168284
0.23297364
0.23428419
0.23573578
0.23718562
0.23875193
0.24030403
0.24182698
0.24335495
0.24511642
0.2473138
0.24980921
0.25233725
0.25495719
0.25737179
0.26014854
0.26384425
0.26601581
0.26894805
0.2738575
0.27479257
0.27786487
0.28385617
0.28432234
0.28391832
0.28853504
0.29399637
0.29562485
0.29560858
0.29556923
0.29596875
0.29711956
0.2983504
0.29912433
0.29945538
0.29956265
0.29958839
0.29959204
0.2995923
0.29959231
0.29959231
0.00028058759
0.00091156279
0.0016497632
0.0025128557
0.0035204011
0.0046956602
0.0060637075
0.0076489939
0.0094706636
0.011532259
0.013810904
0.016250291
0.018769228
0.021288001
0.023750489
0.026129344
0.028419861
0.030630749
0.032776508
0.034874091
0.036941015
0.038992881
0.041043034
0.043102892
0.045181223
0.047284526
0.049417045
0.051580682
0.053775487
0.055999752
0.058250201
0.06052254
0.062811837
0.065113468
0.067424225
0.069742759
0.072069543
0.07440816
0.076766441
0.079155892
0.081591571
0.084091507
0.086675732
0.089365217
0.092181782
0.095164004
0.098438207
0.10236862
0.10687473
0.11600988
0.13522581
0.15904948
0.17887372
0.19146688
0.19818102
0.20143157
0.20316919
0.20441475
0.20557667
0.20674932
0.20753881
0.207995
0.20820996
0.20807127
0.2071822
0.20595279
0.20529576
0.20531517
0.20562456
0.20627062
0.20777472
0.21006326
0.21192522
0.21267967
0.21249638
0.21168503
0.21088372
0.21061967
0.21105497
0.21192013
0.21307122
0.21425505
0.21528972
0.21624028
0.21725382
0.21839706
0.21949889
0.22065154
0.22183943
0.22318989
0.22464502
0.22601634
0.22721341
0.22839673
0.22945347
0.23064964
0.23186283
0.23313631
0.234442
0.23588835
0.23732682
0.23886266
0.24039494
0.24192009
0.24346813
0.24524438
0.24744406
0.24992364
0.25242696
0.25502489
0.25744001
0.26021191
0.26394066
0.26607032
0.26904948
0.27395765
0.27484839
0.27796956
0.28393089
0.28439113
0.28396643
0.28861993
0.2940642
0.29574935
0.29573877
0.2956493
0.29601124
0.29713987
0.29835429
0.299123
0.29945458
0.29956251
0.29958832
0.29959203
0.2995923
0.29959231
0.00033804079
0.0010894291
0.001958965
0.0029652628
0.0041288026
0.0054738809
0.0070262055
0.0088096603
0.010840378
0.013114642
0.015597985
0.018221655
0.020897027
0.023545031
0.026115304
0.028587047
0.030960541
0.033247519
0.035464086
0.037627932
0.03975685
0.041866461
0.043969994
0.046078707
0.048201148
0.050343577
0.052509998
0.054702146
0.056919911
0.05916121
0.061422244
0.063698327
0.065984515
0.068276582
0.070572076
0.072870478
0.075173264
0.077485161
0.079814922
0.082174748
0.084580235
0.087049835
0.089604044
0.092264798
0.095056316
0.098025617
0.10132406
0.1052942
0.11029544
0.12077329
0.14059729
0.16397004
0.18293716
0.19460695
0.20063318
0.20349892
0.20505511
0.20624002
0.20735146
0.20838414
0.20891562
0.20909894
0.20921351
0.20876096
0.20759707
0.20617607
0.20565246
0.20590894
0.20624891
0.20698175
0.20869024
0.21097406
0.21259087
0.21313232
0.2127599
0.2118772
0.2111444
0.21095335
0.21143522
0.21230184
0.21344987
0.21459168
0.21560346
0.21655921
0.21758041
0.21872277
0.21979726
0.22090605
0.22213161
0.22348678
0.22492343
0.22624175
0.22743522
0.22863402
0.22965694
0.23086865
0.23208653
0.23338203
0.23471608
0.23616718
0.23761476
0.23914029
0.24062935
0.24214499
0.2436898
0.2455135
0.24773705
0.25020359
0.25268435
0.25525
0.25766065
0.26042711
0.26405273
0.26621709
0.26913251
0.27396945
0.27497959
0.27799961
0.28393209
0.28449813
0.2840572
0.28858177
0.29409017
0.29581964
0.2959026
0.29579692
0.29608287
0.29716468
0.29836608
0.29912596
0.299455
0.29956267
0.29958832
0.29959201
0.2995923
0.29959231
0.00042118925
0.0013446802
0.0023995273
0.0036051783
0.0049827894
0.0065573375
0.0083544188
0.010395956
0.012692596
0.015229886
0.017958505
0.020796164
0.023648395
0.026439148
0.029125345
0.031693161
0.034147855
0.03650422
0.038780107
0.040994199
0.043164901
0.045308213
0.047437647
0.049564689
0.051698097
0.05384432
0.056007551
0.058189732
0.060390938
0.062609487
0.064842374
0.067085826
0.069335751
0.071588627
0.073842515
0.076097663
0.078357035
0.080626685
0.082916021
0.085237774
0.087607978
0.090045442
0.092571075
0.095207734
0.097983025
0.10095605
0.10432181
0.1084241
0.11417205
0.12709984
0.14887218
0.17144116
0.18815682
0.19774795
0.20237297
0.20461423
0.20593962
0.20703594
0.20808959
0.20903745
0.20963506
0.20992237
0.20994515
0.20960581
0.20851967
0.20736456
0.20688264
0.20697095
0.20723914
0.20793583
0.20954314
0.21163185
0.21312006
0.21370521
0.21340869
0.21250676
0.21170646
0.21151067
0.2119243
0.21271448
0.2138286
0.21496346
0.21594962
0.21686575
0.21786802
0.21897786
0.22005155
0.22118482
0.22234525
0.223681
0.22511506
0.22648649
0.22766465
0.22883919
0.22987943
0.23106668
0.23229507
0.23357888
0.23489606
0.23634455
0.23776023
0.23927327
0.24074961
0.24225128
0.24378951
0.24565472
0.24789491
0.25033672
0.2527841
0.25533031
0.25774163
0.26048569
0.26414737
0.26628707
0.26926898
0.27408185
0.27503399
0.27813405
0.28399957
0.28455781
0.28410267
0.28869438
0.29417344
0.29595312
0.29601543
0.29587947
0.29613073
0.29718746
0.29837024
0.29912561
0.29945448
0.29956248
0.29958828
0.29959199
0.2995923
0.29959231
0.00048576838
0.0015431541
0.0027425223
0.0041041215
0.0056497744
0.0074051269
0.0093956876
0.011641583
0.014148405
0.016892112
0.019810833
0.022811807
0.025797111
0.028694172
0.031466348
0.034105726
0.036621808
0.039032045
0.041355836
0.043612757
0.045821728
0.047999052
0.05015843
0.052311489
0.054467083
0.056631734
0.058809679
0.061002876
0.063211434
0.065433677
0.067666585
0.069906493
0.072149535
0.074392612
0.076634393
0.078875244
0.081118134
0.083369306
0.085638235
0.087937823
0.090284159
0.092696026
0.095194407
0.097802786
0.10055173
0.10350794
0.10689356
0.11103435
0.1173872
0.13132097
0.15314605
0.17517332
0.19091611
0.19979697
0.20429382
0.20649726
0.20774839
0.20880509
0.20981803
0.21070499
0.21112011
0.21114466
0.21106301
0.21048051
0.20915633
0.20781613
0.20736854
0.20764556
0.20794119
0.20862144
0.21039762
0.21259885
0.21399048
0.21432832
0.21383713
0.21280696
0.21210831
0.21193469
0.21236594
0.21321455
0.21432417
0.2154141
0.2163574
0.21723753
0.21820919
0.21934571
0.22042697
0.22151851
0.22271631
0.22402812
0.22545531
0.22676084
0.22792654
0.22913729
0.23017557
0.23134682
0.23256751
0.2338514
0.23516661
0.23662868
0.23804893
0.23953336
0.2409792
0.24249068
0.24406054
0.24597157
0.24820902
0.25062517
0.25304792
0.25557409
0.25797034
0.26072078
0.26428446
0.26644353
0.26932971
0.27409602
0.27517028
0.27817884
0.28401163
0.28467833
0.28419233
0.2886449
0.29419337
0.29603351
0.29620799
0.29602904
0.2962013
0.29721404
0.29838204
0.29912844
0.29945496
0.29956265
0.29958829
0.29959198
0.29959229
0.00056700259
0.0017922121
0.0031720076
0.0047274605
0.0064809671
0.0084586138
0.010685267
0.013177945
0.015934911
0.018919548
0.022055297
0.025239172
0.028371998
0.031386992
0.034255128
0.036974714
0.039559378
0.042029061
0.044404584
0.046706325
0.048953696
0.051163287
0.053348972
0.055522507
0.057692834
0.059866548
0.062047946
0.064239038
0.066439992
0.068649377
0.070864588
0.073082415
0.075299552
0.077513564
0.079723863
0.081931343
0.084139521
0.086355802
0.088590811
0.090858178
0.093174703
0.095560092
0.09803674
0.10063074
0.10337918
0.10636647
0.10986734
0.11426915
0.12197285
0.13831199
0.16087719
0.18154135
0.19533219
0.20266812
0.2060359
0.20756601
0.20867373
0.20966826
0.21063356
0.21140129
0.2117978
0.21198701
0.2119225
0.21140058
0.21015654
0.20906832
0.20866418
0.20872332
0.20893237
0.20961101
0.21121577
0.21320637
0.21455503
0.21493209
0.21451531
0.2135507
0.21273308
0.21254924
0.21295547
0.21370353
0.2147337
0.21580522
0.21673927
0.21766805
0.21865912
0.21969281
0.22070262
0.22180684
0.22298959
0.22431911
0.2256933
0.22703154
0.22816826
0.22934705
0.23038484
0.23156261
0.23277628
0.234044
0.2353661
0.23681312
0.23820344
0.23967718
0.24111437
0.24260205
0.24420108
0.24614213
0.24838765
0.25076316
0.25315234
0.25564946
0.25804946
0.26079489
0.26435893
0.26650994
0.26952111
0.2742234
0.27522833
0.27830664
0.28408064
0.28473984
0.28425606
0.28877407
0.29427834
0.29616021
0.29631585
0.29611214
0.29625246
0.29723744
0.29838679
0.29912833
0.29945476
0.29956244
0.29958827
0.29959197
0.29959229
0.00062902754
0.0019826908
0.0035009582
0.0052055965
0.0071195293
0.0092691619
0.011678732
0.014362466
0.01731222
0.020480767
0.023779786
0.027098909
0.030338902
0.033438119
0.036373819
0.039149383
0.041781886
0.044293345
0.046705784
0.049040263
0.051316531
0.053551378
0.055758774
0.057950539
0.060135674
0.062320838
0.064510399
0.066706447
0.068909343
0.071117818
0.073329374
0.075540999
0.077749625
0.079953073
0.082150909
0.08434447
0.08653768
0.088737715
0.09095481
0.093202235
0.095496511
0.097857153
0.10030647
0.10287098
0.10559027
0.10855689
0.11207187
0.11657244
0.12496537
0.141857
0.16456399
0.18456732
0.19749473
0.20423933
0.20754808
0.20931896
0.21043088
0.21138245
0.21231521
0.21303246
0.21337557
0.21330082
0.21309423
0.21231298
0.21089707
0.20958805
0.20918105
0.20938598
0.20969478
0.21046037
0.21221492
0.21429446
0.21555191
0.21565335
0.21499983
0.21390811
0.21318695
0.21300451
0.21344939
0.21427174
0.21530289
0.21636307
0.21722344
0.21805554
0.21899038
0.22009104
0.2211415
0.22214405
0.22329786
0.22462547
0.22605674
0.22731371
0.22843866
0.22961941
0.23067031
0.2318576
0.23310412
0.2343652
0.23567682
0.23710483
0.23851082
0.23995646
0.24137024
0.24288334
0.24450127
0.2464765
0.24871592
0.25106126
0.25342901
0.25590814
0.25830912
0.26102046
0.26453454
0.2666829
0.26955911
0.27425744
0.27537173
0.27835412
0.28409252
0.28486749
0.28433972
0.28873507
0.29430446
0.29623234
0.29652464
0.29626335
0.29632168
0.29726501
0.29839887
0.2991314
0.29945535
0.29956262
0.29958824
0.29959195
0.29959229
0.00070226209
0.0022073657
0.0038886156
0.0057684848
0.007870352
0.01022086
0.012843169
0.015747725
0.018918177
0.022294744
0.025776658
0.029247357
0.032609557
0.035808033
0.038826545
0.041673202
0.044368003
0.046934667
0.049396108
0.051773895
0.054088083
0.056355614
0.058590592
0.060804937
0.063007747
0.065205802
0.067403606
0.069603413
0.071805734
0.074009506
0.076212527
0.078412109
0.080605557
0.082791123
0.084968746
0.087140268
0.089310222
0.091486059
0.093678415
0.095901631
0.098173568
0.1005153
0.10295141
0.10551239
0.10824645
0.11126761
0.11493654
0.11986231
0.12991044
0.14844751
0.17108274
0.18967781
0.20106867
0.20676181
0.20933442
0.21046176
0.2113839
0.21229882
0.21318726
0.21382041
0.21403381
0.21414801
0.21394037
0.21321665
0.21193144
0.21086804
0.21053816
0.21064797
0.21082989
0.21153905
0.21315559
0.2150422
0.21611152
0.2162582
0.21567189
0.21471402
0.21387935
0.21365941
0.21405913
0.21480481
0.21579722
0.21681305
0.21768563
0.21852457
0.2194832
0.22049803
0.2214841
0.22254271
0.22369017
0.22497612
0.22632061
0.22766529
0.22876492
0.22991009
0.23093697
0.23209793
0.23330199
0.23459365
0.23588387
0.23729344
0.23865805
0.24009971
0.2414993
0.24302334
0.24468526
0.24668234
0.24890131
0.25120427
0.25353465
0.25600463
0.25839852
0.26114063
0.26460998
0.26676675
0.26975753
0.27435469
0.27543035
0.27851498
0.28417226
0.28492864
0.28438742
0.28884142
0.29439872
0.29638141
0.29663492
0.2963476
0.29637518
0.2972884
0.29840437
0.29913191
0.2994553
0.29956247
0.2995882
0.29959194
0.29959229
0.00076016154
0.0023853084
0.0041960351
0.0062153926
0.0084671205
0.010978019
0.013770265
0.016850985
0.020196814
0.023737492
0.027362288
0.03094996
0.034404924
0.037677099
0.040755522
0.043652259
0.046389905
0.048993757
0.051487652
0.053893676
0.0562322
0.058520363
0.060772406
0.06300039
0.065213568
0.067418874
0.069620993
0.071822364
0.074023684
0.076224075
0.078421505
0.080613429
0.082797274
0.084971402
0.087135767
0.089292256
0.091445526
0.093603246
0.095776221
0.097978473
0.1002275
0.10254428
0.10495348
0.10748621
0.11019309
0.113196
0.11688101
0.12199697
0.13245135
0.15162349
0.17418
0.19212832
0.20283245
0.20809004
0.21060004
0.21210873
0.21310669
0.21397528
0.21481153
0.21538385
0.21561188
0.21546343
0.21512486
0.21422724
0.21275637
0.21147529
0.21116178
0.21133518
0.21154156
0.21230132
0.21412916
0.2161339
0.21716965
0.21714264
0.21628082
0.21512422
0.21433756
0.21418238
0.2146318
0.21540495
0.21640329
0.21740864
0.21822065
0.21897619
0.21986169
0.22091944
0.22192434
0.22292834
0.2240654
0.22533869
0.2267025
0.22795236
0.22904064
0.230203
0.23124396
0.23238798
0.23362337
0.23489812
0.23621863
0.23763024
0.23898142
0.24039149
0.24178804
0.24330857
0.24501131
0.24704345
0.24923747
0.25149868
0.25382037
0.25626944
0.25865411
0.26134851
0.26478258
0.26693718
0.26981378
0.2744367
0.27557244
0.27854321
0.28417256
0.28506144
0.2844829
0.28883024
0.29441732
0.2964524
0.29684951
0.2964986
0.29644392
0.29731742
0.29841648
0.29913484
0.29945595
0.29956262
0.29958817
0.29959193
0.00083234661
0.0026064768
0.0045771037
0.00676784
0.0092027278
0.011908476
0.014905696
0.018196749
0.021748859
0.025478713
0.029264534
0.032981734
0.036538841
0.039892827
0.04303893
0.045993435
0.048781463
0.051429753
0.053962937
0.056403565
0.058772303
0.061086492
0.063360553
0.065606712
0.067834386
0.070050674
0.072260409
0.074466173
0.076668786
0.078867468
0.081060276
0.083244772
0.085418529
0.087580104
0.089729697
0.091869574
0.094004879
0.096143878
0.098298198
0.10048295
0.10271679
0.10502217
0.10742671
0.10996647
0.11270098
0.1157751
0.11964213
0.12529582
0.13722444
0.15739066
0.17958204
0.1962967
0.20582691
0.21035354
0.21239971
0.21330245
0.21408323
0.21493817
0.21572685
0.21623223
0.21633442
0.21627859
0.21598887
0.21515868
0.21377868
0.21280293
0.21253418
0.21261741
0.21280835
0.21354405
0.21516711
0.21685918
0.21769361
0.21774592
0.2170194
0.21600438
0.21518589
0.21492438
0.2153115
0.21601185
0.21691785
0.21787024
0.21868318
0.21949571
0.2204154
0.22136824
0.22232155
0.22330405
0.22440263
0.22568767
0.22701703
0.22829287
0.22936338
0.23049062
0.23152222
0.23267741
0.23387241
0.23513705
0.23642027
0.23780557
0.23915653
0.24055667
0.24196408
0.24350429
0.24523505
0.24726772
0.24942913
0.25164805
0.2539326
0.25637082
0.25876019
0.26148594
0.26486336
0.26701621
0.27001152
0.27450799
0.27564116
0.2787213
0.28425867
0.28512844
0.28455837
0.28892803
0.29452828
0.2966132
0.2969675
0.29658664
0.2965
0.29734093
0.29842276
0.29913538
0.29945602
0.29956254
0.29958814
0.29959192
0.00088990727
0.0027825459
0.0048800459
0.0072064211
0.0097858758
0.012644999
0.015803091
0.019258638
0.02297134
0.026847771
0.030757846
0.034574582
0.038209602
0.041625072
0.044820867
0.047816571
0.050639476
0.0533177
0.05587675
0.058339764
0.060727807
0.06305851
0.065346494
0.06760417
0.069841091
0.072064473
0.07427923
0.076487996
0.078691591
0.080889204
0.083078828
0.085257994
0.087424283
0.089576224
0.091714109
0.093840361
0.095960233
0.098082127
0.1002178
0.10238256
0.10459551
0.10687961
0.10926213
0.11177878
0.11449015
0.11754748
0.12142674
0.12725559
0.13956398
0.16015938
0.18217025
0.19831689
0.2073152
0.21153831
0.21349363
0.21478211
0.21572723
0.21652048
0.21725019
0.21770094
0.21782601
0.21765294
0.21720483
0.21618478
0.21463252
0.21343613
0.21318929
0.21333614
0.21355755
0.21432854
0.21613705
0.21795324
0.21880361
0.21863303
0.21766749
0.21643316
0.21566895
0.21552309
0.21588751
0.21661845
0.21757763
0.21852476
0.21928247
0.22003086
0.22087132
0.2218475
0.2228318
0.22379424
0.22484844
0.22610094
0.22744395
0.2286891
0.22972851
0.23084783
0.23188723
0.23299047
0.23420688
0.23547811
0.23676582
0.23815152
0.23947608
0.24085148
0.24225022
0.24380953
0.24561175
0.24765284
0.24977016
0.25194516
0.25422399
0.25664698
0.25903494
0.2617073
0.26506023
0.26722632
0.27008539
0.27461442
0.27579029
0.27876133
0.28428036
0.28526171
0.28462106
0.288934
0.29454275
0.29670593
0.29718633
0.29673488
0.29656871
0.29737162
0.29843517
0.29913812
0.29945682
0.29956269
0.2995881
0.29959191
0.00096028927
0.0029976378
0.0052498211
0.0077412531
0.010496292
0.013541257
0.016893382
0.020545642
0.024447569
0.028493005
0.032542796
0.036469009
0.040188631
0.043670793
0.046921116
0.049963097
0.052826473
0.055540792
0.058132352
0.060624734
0.063039281
0.065393751
0.067702846
0.069978999
0.072231764
0.074468325
0.076693542
0.078909954
0.081118292
0.083317656
0.085506004
0.087680876
0.089839961
0.09198201
0.094107736
0.096220148
0.098325158
0.10043194
0.10255313
0.10470496
0.10690759
0.10918533
0.11156801
0.11409556
0.11683649
0.11996475
0.12402462
0.13039892
0.14397517
0.16527512
0.18679772
0.20183114
0.20987817
0.21353983
0.21519678
0.21598221
0.21668861
0.21748789
0.21819068
0.2185862
0.21860811
0.2183948
0.21799457
0.21706154
0.21567198
0.21477722
0.21455793
0.2146293
0.21478646
0.21552294
0.21716752
0.21870792
0.21936997
0.21924604
0.21843059
0.21736068
0.21659333
0.21638911
0.21669793
0.21733432
0.21817307
0.21902871
0.21975308
0.22045898
0.2213623
0.22231683
0.22323451
0.22418183
0.22524935
0.22646048
0.22774657
0.22900263
0.23004777
0.2311627
0.23216715
0.23328844
0.23447016
0.23572982
0.23698836
0.23833055
0.23966212
0.24105974
0.24246512
0.24405176
0.24584219
0.24788436
0.24995868
0.25209199
0.25433736
0.25676243
0.25913854
0.26186853
0.26513134
0.26730425
0.27027898
0.27468044
0.27585672
0.27893223
0.28434644
0.28534146
0.28472458
0.28902487
0.29465702
0.29683939
0.29731201
0.29682819
0.29662703
0.29739529
0.29844228
0.29913889
0.2994571
0.29956269
0.29958806
0.001014201
0.0031620054
0.0055318716
0.0081485005
0.011036353
0.014221514
0.017719659
0.021519664
0.0255636
0.029736047
0.033891418
0.037901107
0.04168586
0.045219771
0.048512587
0.051590597
0.054485264
0.057227273
0.059843629
0.062358354
0.064793078
0.067165733
0.069491092
0.071781618
0.074046814
0.076293791
0.078527288
0.0807497
0.082961602
0.085161958
0.087348671
0.089519374
0.091671927
0.093805306
0.095920546
0.098021048
0.10011311
0.10220625
0.10431338
0.10645092
0.10863906
0.11090206
0.11326953
0.11578154
0.11850774
0.12162853
0.12571108
0.13224079
0.14613966
0.16775683
0.18903489
0.20354329
0.21115334
0.21458468
0.21617212
0.21732348
0.21821424
0.21893695
0.21960133
0.21995489
0.22000382
0.21977273
0.21928398
0.21819986
0.21657589
0.21541701
0.21519927
0.21530253
0.21550747
0.21635006
0.21811989
0.21982121
0.22053696
0.22020517
0.21908135
0.21786001
0.21703522
0.21688335
0.21728491
0.21797707
0.21887168
0.21974259
0.22043784
0.22113965
0.22194678
0.22283324
0.22370803
0.22463505
0.22569414
0.22694472
0.22822819
0.22939554
0.23044504
0.23153127
0.23259162
0.23368318
0.23485585
0.23608979
0.23734409
0.23870884
0.24000971
0.2413764
0.24279638
0.24440302
0.24625221
0.2482808
0.25029048
0.25238598
0.25465142
0.25705333
0.25942151
0.26205656
0.26533494
0.26748172
0.27035623
0.2748167
0.27601216
0.27899993
0.28440067
0.28547005
0.28478126
0.28905473
0.29468644
0.29697193
0.29753735
0.29697242
0.29669594
0.29742744
0.29845487
0.29914137
0.29945818
0.29956283
0.29958802
0.0010779057
0.0033565664
0.0058662435
0.0086320208
0.011678462
0.015031291
0.018703977
0.022679678
0.026890547
0.031209728
0.035484829
0.039588081
0.04344589
0.04703865
0.05038093
0.053502228
0.056435948
0.05921383
0.06186342
0.064408954
0.066872112
0.069270746
0.071619496
0.073930647
0.076213509
0.078474981
0.080719614
0.082949653
0.085165624
0.087366615
0.089550763
0.091715882
0.093860131
0.095982991
0.09808614
0.10017368
0.10225261
0.10433312
0.10642878
0.10855666
0.11073775
0.11299743
0.11536715
0.11789048
0.12064461
0.1238314
0.12808571
0.13515702
0.15035704
0.17252527
0.19316833
0.20660557
0.21339799
0.21638896
0.21776931
0.21847637
0.21909909
0.21983683
0.2204888
0.22079608
0.22077168
0.22050538
0.21999832
0.21891055
0.21756512
0.21672264
0.21654721
0.21663569
0.21679205
0.21753682
0.21915284
0.22062675
0.22108685
0.22083813
0.21990998
0.21879735
0.21802453
0.21781512
0.21814084
0.21874561
0.21951352
0.22030084
0.22094306
0.22157536
0.22244037
0.22335879
0.22422627
0.22508941
0.22612866
0.22733522
0.22858071
0.2297885
0.23076665
0.23184935
0.23284915
0.23394003
0.23510135
0.23636213
0.23759624
0.23889985
0.24021102
0.24160584
0.24302026
0.24467546
0.24650308
0.24851124
0.25047684
0.2525244
0.25475714
0.25715826
0.25954471
0.26228728
0.26543042
0.26763475
0.27058298
0.27486349
0.27608972
0.27915784
0.28445742
0.28556233
0.2848809
0.28914482
0.29479247
0.29708047
0.29766743
0.29707092
0.29675569
0.29745132
0.29846258
0.29914229
0.29945872
0.29956287
0.29958798
0.001123197
0.0034948846
0.0061039766