/*--------------------------------*- C++ -*----------------------------------*\
| =========                 |                                                 |
| \\      /  F ield         | OpenFOAM: The Open Source CFD Toolbox           |
|  \\    /   O peration     | Version:  2506                                  |
|   \\  /    A nd           | Website:  www.openfoam.com                      |
|    \\/     M anipulation  |                                                 |
\*---------------------------------------------------------------------------*/
FoamFile
{
    version     2.0;
    format      ascii;
    arch        "LSB;label=32;scalar=64";
    class       volScalarField;
    location    "0.0035";
    object      nut;
}
// * * * * * * * * * * * * * * * * * * * * * * * * * * * * * * * * * * * * * //

dimensions      [0 2 -1 0 0 0 0];

internalField   nonuniform List<scalar> 
13763
(
3.8022393e-06
3.801165e-06
3.802359e-06
3.8028408e-06
3.8030324e-06
3.8042631e-06
3.8052041e-06
3.8060221e-06
3.8068757e-06
3.8073632e-06
3.8077157e-06
3.8081508e-06
3.808846e-06
3.8097781e-06
3.8107478e-06
3.8116542e-06
3.8125805e-06
3.8137168e-06
3.8153184e-06
3.8175541e-06
3.8203736e-06
3.8233753e-06
3.8255132e-06
3.8264101e-06
3.8266574e-06
3.8267154e-06
3.8267262e-06
3.8267292e-06
3.8267215e-06
3.826706e-06
3.8266945e-06
3.826681e-06
3.8266914e-06
3.8267127e-06
3.8267474e-06
3.826772e-06
3.8267808e-06
3.826783e-06
3.8267848e-06
3.8267881e-06
3.8267934e-06
3.8268001e-06
3.8268078e-06
3.8268158e-06
3.8268238e-06
3.8268314e-06
3.8268379e-06
3.826841e-06
3.802201e-06
3.8012765e-06
3.8023496e-06
3.802802e-06
3.8031127e-06
3.8042547e-06
3.8053004e-06
3.8060456e-06
3.8068968e-06
3.8073817e-06
3.8077332e-06
3.8081662e-06
3.8088592e-06
3.8097909e-06
3.8107586e-06
3.8116651e-06
3.8125904e-06
3.8137259e-06
3.8153272e-06
3.8175625e-06
3.8203817e-06
3.8233834e-06
3.8255221e-06
3.8264201e-06
3.8266676e-06
3.8267256e-06
3.8267364e-06
3.826739e-06
3.8267316e-06
3.8267162e-06
3.8266872e-06
3.8266857e-06
3.8266963e-06
3.8267173e-06
3.8267529e-06
3.8267772e-06
3.8267848e-06
3.8267851e-06
3.8267844e-06
3.8267849e-06
3.8267873e-06
3.8267916e-06
3.8267976e-06
3.8268048e-06
3.8268126e-06
3.8268206e-06
3.8268284e-06
3.8268335e-06
3.8268397e-06
3.8268387e-06
3.8022346e-06
3.8012831e-06
3.8023711e-06
3.8028198e-06
3.8031021e-06
3.8042672e-06
3.8052973e-06
3.8060447e-06
3.8068953e-06
3.8073809e-06
3.8077326e-06
3.8081654e-06
3.8088585e-06
3.8097907e-06
3.8107581e-06
3.8116648e-06
3.8125904e-06
3.8137262e-06
3.815328e-06
3.817564e-06
3.8203838e-06
3.8233859e-06
3.8255244e-06
3.8264227e-06
3.8266704e-06
3.8267286e-06
3.8267395e-06
3.8267421e-06
3.826735e-06
3.8267199e-06
3.826691e-06
3.8266921e-06
3.8267028e-06
3.8267236e-06
3.82676e-06
3.8267842e-06
3.826791e-06
3.8267901e-06
3.8267875e-06
3.8267853e-06
3.8267846e-06
3.8267856e-06
3.8267886e-06
3.8267934e-06
3.8267997e-06
3.8268071e-06
3.8268151e-06
3.8268214e-06
3.8268314e-06
3.82683e-06
3.8268385e-06
3.8022644e-06
3.8012821e-06
3.8023856e-06
3.8028329e-06
3.8030944e-06
3.8042734e-06
3.8052938e-06
3.8060437e-06
3.8068933e-06
3.8073798e-06
3.8077316e-06
3.8081643e-06
3.8088575e-06
3.80979e-06
3.8107574e-06
3.8116643e-06
3.8125903e-06
3.8137267e-06
3.8153292e-06
3.8175663e-06
3.8203869e-06
3.8233895e-06
3.8255277e-06
3.8264266e-06
3.8266746e-06
3.826733e-06
3.8267441e-06
3.8267468e-06
3.8267401e-06
3.8267254e-06
3.8266974e-06
3.826699e-06
3.8267102e-06
3.8267311e-06
3.8267679e-06
3.8267923e-06
3.8267991e-06
3.8267977e-06
3.8267942e-06
3.8267905e-06
3.8267874e-06
3.8267853e-06
3.8267847e-06
3.8267859e-06
3.8267889e-06
3.8267937e-06
3.8268e-06
3.8268068e-06
3.826818e-06
3.826816e-06
3.8268286e-06
3.8268378e-06
3.8268368e-06
3.8022949e-06
3.8012732e-06
3.8023998e-06
3.8028363e-06
3.8030927e-06
3.8042753e-06
3.8052913e-06
3.8060431e-06
3.8068915e-06
3.8073787e-06
3.8077303e-06
3.808163e-06
3.8088566e-06
3.809789e-06
3.8107567e-06
3.811664e-06
3.8125902e-06
3.8137273e-06
3.8153306e-06
3.8175688e-06
3.8203904e-06
3.8233936e-06
3.8255315e-06
3.8264309e-06
3.8266793e-06
3.8267379e-06
3.8267492e-06
3.826752e-06
3.8267459e-06
3.8267317e-06
3.8267046e-06
3.8267063e-06
3.8267179e-06
3.8267392e-06
3.826776e-06
3.8268009e-06
3.826808e-06
3.826807e-06
3.8268034e-06
3.8267992e-06
3.8267951e-06
3.8267912e-06
3.826788e-06
3.8267858e-06
3.826785e-06
3.8267856e-06
3.8267882e-06
3.8267933e-06
3.8268025e-06
3.8268004e-06
3.8268132e-06
3.826827e-06
3.8268255e-06
3.8268356e-06
3.8268344e-06
3.802327e-06
3.8012665e-06
3.8024146e-06
3.8028361e-06
3.8030934e-06
3.804279e-06
3.8052875e-06
3.8060428e-06
3.8068901e-06
3.8073774e-06
3.8077288e-06
3.8081614e-06
3.8088557e-06
3.8097878e-06
3.8107562e-06
3.8116637e-06
3.8125901e-06
3.8137281e-06
3.8153322e-06
3.8175715e-06
3.8203941e-06
3.8233978e-06
3.8255353e-06
3.8264354e-06
3.8266843e-06
3.8267431e-06
3.8267546e-06
3.8267577e-06
3.8267524e-06
3.8267388e-06
3.8267123e-06
3.8267138e-06
3.8267258e-06
3.8267474e-06
3.8267844e-06
3.8268097e-06
3.8268174e-06
3.8268168e-06
3.8268136e-06
3.8268098e-06
3.8268056e-06
3.8268014e-06
3.8267972e-06
3.8267933e-06
3.8267899e-06
3.8267873e-06
3.8267857e-06
3.826787e-06
3.8267906e-06
3.8267895e-06
3.8267977e-06
3.8268104e-06
3.8268085e-06
3.8268234e-06
3.8268218e-06
3.8268331e-06
3.826832e-06
3.8023602e-06
3.8012714e-06
3.8024328e-06
3.8028449e-06
3.8030953e-06
3.8042854e-06
3.8052762e-06
3.8060424e-06
3.8068889e-06
3.8073758e-06
3.8077273e-06
3.8081596e-06
3.8088549e-06
3.809787e-06
3.8107561e-06
3.8116635e-06
3.81259e-06
3.8137289e-06
3.8153337e-06
3.8175742e-06
3.8203978e-06
3.823402e-06
3.8255393e-06
3.82644e-06
3.8266894e-06
3.8267485e-06
3.8267605e-06
3.8267643e-06
3.8267596e-06
3.8267458e-06
3.8267202e-06
3.8267215e-06
3.8267338e-06
3.8267557e-06
3.8267929e-06
3.8268187e-06
3.8268269e-06
3.8268268e-06
3.8268242e-06
3.826821e-06
3.8268174e-06
3.8268136e-06
3.8268097e-06
3.8268056e-06
3.8268015e-06
3.8267975e-06
3.8267937e-06
3.8267917e-06
3.8267888e-06
3.82679e-06
3.8267905e-06
3.826796e-06
3.8267949e-06
3.8268063e-06
3.8268046e-06
3.8268199e-06
3.8268184e-06
3.826831e-06
3.8268297e-06
3.8268289e-06
3.8023939e-06
3.8012868e-06
3.802455e-06
3.8028581e-06
3.8030961e-06
3.804294e-06
3.8052538e-06
3.8060411e-06
3.8068876e-06
3.8073741e-06
3.8077258e-06
3.8081575e-06
3.8088537e-06
3.8097864e-06
3.810756e-06
3.8116632e-06
3.8125899e-06
3.8137295e-06
3.8153351e-06
3.8175767e-06
3.8204013e-06
3.8234064e-06
3.8255434e-06
3.8264448e-06
3.8266948e-06
3.8267543e-06
3.8267672e-06
3.8267717e-06
3.8267669e-06
3.8267526e-06
3.8267282e-06
3.8267294e-06
3.8267421e-06
3.8267643e-06
3.8268019e-06
3.8268282e-06
3.8268368e-06
3.8268372e-06
3.8268352e-06
3.8268325e-06
3.8268296e-06
3.8268266e-06
3.8268234e-06
3.82682e-06
3.8268163e-06
3.8268126e-06
3.8268083e-06
3.8268048e-06
3.8267984e-06
3.8268016e-06
3.8267967e-06
3.8267933e-06
3.8267945e-06
3.8267958e-06
3.8267956e-06
3.8268035e-06
3.8268022e-06
3.8268169e-06
3.8268155e-06
3.8268146e-06
3.8268277e-06
3.8268251e-06
3.8024282e-06
3.8013143e-06
3.8024802e-06
3.80287e-06
3.8030966e-06
3.8042996e-06
3.8052266e-06
3.8060387e-06
3.8068858e-06
3.8073722e-06
3.8077245e-06
3.8081554e-06
3.808852e-06
3.8097856e-06
3.8107557e-06
3.8116628e-06
3.8125896e-06
3.8137298e-06
3.8153362e-06
3.8175792e-06
3.8204051e-06
3.823411e-06
3.8255478e-06
3.8264497e-06
3.8267005e-06
3.826761e-06
3.8267748e-06
3.8267792e-06
3.8267736e-06
3.8267592e-06
3.8267364e-06
3.8267377e-06
3.8267508e-06
3.8267735e-06
3.8268113e-06
3.8268381e-06
3.8268472e-06
3.8268481e-06
3.8268466e-06
3.8268446e-06
3.8268423e-06
3.8268401e-06
3.8268376e-06
3.826835e-06
3.8268323e-06
3.8268293e-06
3.8268258e-06
3.8268221e-06
3.826815e-06
3.8268196e-06
3.826813e-06
3.8268049e-06
3.8268083e-06
3.8268011e-06
3.8268034e-06
3.826799e-06
3.8267998e-06
3.8268028e-06
3.8268023e-06
3.8268029e-06
3.8268131e-06
3.8268108e-06
3.8024649e-06
3.8013429e-06
3.8025058e-06
3.8028772e-06
3.8030981e-06
3.8043042e-06
3.8052085e-06
3.8060357e-06
3.8068834e-06
3.8073703e-06
3.8077232e-06
3.8081532e-06
3.8088497e-06
3.8097842e-06
3.8107549e-06
3.8116622e-06
3.8125892e-06
3.8137301e-06
3.8153374e-06
3.817582e-06
3.8204091e-06
3.8234158e-06
3.8255525e-06
3.826455e-06
3.8267071e-06
3.8267686e-06
3.8267825e-06
3.8267861e-06
3.8267799e-06
3.8267661e-06
3.8267451e-06
3.8267464e-06
3.82676e-06
3.8267831e-06
3.8268212e-06
3.8268485e-06
3.8268582e-06
3.8268596e-06
3.8268586e-06
3.8268572e-06
3.8268556e-06
3.826854e-06
3.8268522e-06
3.8268504e-06
3.8268485e-06
3.8268465e-06
3.8268439e-06
3.8268407e-06
3.8268345e-06
3.82684e-06
3.8268342e-06
3.8268254e-06
3.8268303e-06
3.8268201e-06
3.8268243e-06
3.8268127e-06
3.8268159e-06
3.8268061e-06
3.8268078e-06
3.826811e-06
3.8268049e-06
3.8268036e-06
3.8025077e-06
3.8013643e-06
3.8025293e-06
3.8028815e-06
3.8031022e-06
3.8043063e-06
3.8052032e-06
3.8060323e-06
3.8068806e-06
3.8073688e-06
3.8077222e-06
3.8081508e-06
3.8088468e-06
3.8097822e-06
3.8107538e-06
3.8116616e-06
3.8125889e-06
3.8137306e-06
3.8153389e-06
3.817585e-06
3.8204133e-06
3.8234207e-06
3.8255573e-06
3.826461e-06
3.8267148e-06
3.8267764e-06
3.8267896e-06
3.8267922e-06
3.8267865e-06
3.8267739e-06
3.8267541e-06
3.8267555e-06
3.8267696e-06
3.8267932e-06
3.8268313e-06
3.8268591e-06
3.8268694e-06
3.8268714e-06
3.826871e-06
3.8268702e-06
3.8268692e-06
3.8268682e-06
3.8268672e-06
3.8268661e-06
3.826865e-06
3.8268638e-06
3.8268622e-06
3.8268598e-06
3.8268548e-06
3.826861e-06
3.8268567e-06
3.8268491e-06
3.826855e-06
3.8268454e-06
3.8268509e-06
3.826838e-06
3.8268427e-06
3.8268275e-06
3.8268309e-06
3.8268366e-06
3.8268193e-06
3.8268191e-06
3.802557e-06
3.8013855e-06
3.8025541e-06
3.8028884e-06
3.8031139e-06
3.8043075e-06
3.8052034e-06
3.8060285e-06
3.8068778e-06
3.8073674e-06
3.807721e-06
3.8081478e-06
3.8088433e-06
3.80978e-06
3.8107528e-06
3.8116615e-06
3.8125891e-06
3.8137313e-06
3.8153405e-06
3.8175879e-06
3.8204174e-06
3.8234255e-06
3.8255627e-06
3.8264682e-06
3.8267228e-06
3.8267835e-06
3.826796e-06
3.8267986e-06
3.8267938e-06
3.8267822e-06
3.8267632e-06
3.8267649e-06
3.8267794e-06
3.8268034e-06
3.8268416e-06
3.8268699e-06
3.8268808e-06
3.8268834e-06
3.8268836e-06
3.8268834e-06
3.8268831e-06
3.8268828e-06
3.8268824e-06
3.8268821e-06
3.8268819e-06
3.8268815e-06
3.826881e-06
3.8268791e-06
3.8268752e-06
3.8268814e-06
3.8268787e-06
3.826873e-06
3.8268796e-06
3.8268719e-06
3.8268776e-06
3.8268664e-06
3.8268716e-06
3.8268573e-06
3.8268623e-06
3.8268709e-06
3.8268514e-06
3.8268531e-06
3.8026103e-06
3.8014028e-06
3.8025797e-06
3.8028974e-06
3.8031313e-06
3.8043203e-06
3.8052047e-06
3.8060247e-06
3.8068753e-06
3.8073656e-06
3.807719e-06
3.8081439e-06
3.8088397e-06
3.8097785e-06
3.8107526e-06
3.8116619e-06
3.8125895e-06
3.813732e-06
3.8153418e-06
3.8175906e-06
3.8204212e-06
3.8234308e-06
3.8255692e-06
3.8264759e-06
3.8267299e-06
3.8267896e-06
3.8268023e-06
3.8268057e-06
3.8268019e-06
3.8267909e-06
3.8267724e-06
3.8267744e-06
3.8267894e-06
3.8268137e-06
3.8268521e-06
3.8268808e-06
3.8268923e-06
3.8268954e-06
3.8268963e-06
3.8268967e-06
3.826897e-06
3.8268974e-06
3.8268978e-06
3.8268983e-06
3.8268987e-06
3.8268989e-06
3.8268992e-06
3.8268969e-06
3.826894e-06
3.8268993e-06
3.8268987e-06
3.8268955e-06
3.8269009e-06
3.8268955e-06
3.8268999e-06
3.8268926e-06
3.8268981e-06
3.8268894e-06
3.8268959e-06
3.826905e-06
3.8268911e-06
3.8268941e-06
3.8026664e-06
3.8014221e-06
3.8026045e-06
3.8029048e-06
3.8031408e-06
3.8043368e-06
3.805207e-06
3.8060214e-06
3.8068726e-06
3.8073628e-06
3.8077161e-06
3.8081398e-06
3.8088368e-06
3.8097781e-06
3.810753e-06
3.8116624e-06
3.8125897e-06
3.8137323e-06
3.8153426e-06
3.8175928e-06
3.8204251e-06
3.8234372e-06
3.8255762e-06
3.8264829e-06
3.8267361e-06
3.8267957e-06
3.8268096e-06
3.8268136e-06
3.8268102e-06
3.8267997e-06
3.8267815e-06
3.8267839e-06
3.8267995e-06
3.8268243e-06
3.8268624e-06
3.8268915e-06
3.8269035e-06
3.826907e-06
3.8269083e-06
3.8269091e-06
3.8269099e-06
3.8269105e-06
3.8269112e-06
3.8269117e-06
3.8269122e-06
3.8269119e-06
3.8269122e-06
3.8269094e-06
3.8269082e-06
3.8269113e-06
3.826913e-06
3.8269125e-06
3.8269135e-06
3.8269112e-06
3.8269124e-06
3.8269117e-06
3.8269147e-06
3.8269147e-06
3.8269159e-06
3.8269148e-06
3.8269154e-06
3.826912e-06
3.8027236e-06
3.8014528e-06
3.802628e-06
3.8029094e-06
3.8031448e-06
3.8043557e-06
3.8052096e-06
3.8060179e-06
3.8068689e-06
3.807359e-06
3.8077132e-06
3.8081366e-06
3.8088353e-06
3.8097785e-06
3.8107535e-06
3.8116626e-06
3.8125894e-06
3.813732e-06
3.8153429e-06
3.8175948e-06
3.8204299e-06
3.8234444e-06
3.8255828e-06
3.8264888e-06
3.8267421e-06
3.8268027e-06
3.8268179e-06
3.8268219e-06
3.8268185e-06
3.8268083e-06
3.8267903e-06
3.8267927e-06
3.8268089e-06
3.8268344e-06
3.826871e-06
3.8268997e-06
3.8269119e-06
3.8269154e-06
3.8269165e-06
3.826917e-06
3.8269172e-06
3.8269172e-06
3.8269171e-06
3.8269168e-06
3.8269165e-06
3.8269158e-06
3.8269149e-06
3.8269127e-06
3.8269131e-06
3.8269109e-06
3.826913e-06
3.8269151e-06
3.8269095e-06
3.8269116e-06
3.8269065e-06
3.8269117e-06
3.8269053e-06
3.826911e-06
3.8269006e-06
3.8268883e-06
3.8268976e-06
3.8268864e-06
3.8027805e-06
3.8014946e-06
3.8026478e-06
3.8029158e-06
3.8031519e-06
3.8043783e-06
3.8052094e-06
3.8060129e-06
3.8068645e-06
3.8073559e-06
3.8077118e-06
3.8081351e-06
3.8088349e-06
3.8097791e-06
3.8107535e-06
3.8116622e-06
3.8125886e-06
3.8137311e-06
3.8153428e-06
3.8175974e-06
3.8204356e-06
3.8234514e-06
3.8255882e-06
3.8264943e-06
3.826749e-06
3.8268107e-06
3.8268265e-06
3.8268299e-06
3.8268261e-06
3.826816e-06
3.826798e-06
3.8267993e-06
3.8268158e-06
3.8268417e-06
3.8268748e-06
3.8269021e-06
3.8269136e-06
3.8269164e-06
3.8269164e-06
3.8269158e-06
3.8269149e-06
3.8269138e-06
3.8269128e-06
3.8269116e-06
3.8269103e-06
3.8269094e-06
3.8269058e-06
3.8269036e-06
3.8269037e-06
3.8268947e-06
3.8268952e-06
3.8268985e-06
3.8268882e-06
3.8268922e-06
3.8268817e-06
3.8268872e-06
3.8268749e-06
3.8268799e-06
3.8268653e-06
3.8268491e-06
3.8268578e-06
3.8268448e-06
3.8028367e-06
3.8015407e-06
3.8026632e-06
3.8029263e-06
3.8031641e-06
3.8043982e-06
3.8052052e-06
3.8060075e-06
3.8068614e-06
3.8073551e-06
3.8077124e-06
3.8081349e-06
3.8088349e-06
3.8097793e-06
3.8107528e-06
3.8116611e-06
3.8125873e-06
3.8137299e-06
3.8153429e-06
3.8176009e-06
3.8204417e-06
3.8234575e-06
3.8255931e-06
3.8265004e-06
3.8267567e-06
3.8268189e-06
3.8268346e-06
3.8268367e-06
3.8268318e-06
3.8268213e-06
3.826803e-06
3.826802e-06
3.8268177e-06
3.8268433e-06
3.8268718e-06
3.8268971e-06
3.8269074e-06
3.8269093e-06
3.8269083e-06
3.8269068e-06
3.8269051e-06
3.8269033e-06
3.8269012e-06
3.8268987e-06
3.8268955e-06
3.8268934e-06
3.8268873e-06
3.8268838e-06
3.8268826e-06
3.8268708e-06
3.8268697e-06
3.8268722e-06
3.8268601e-06
3.8268626e-06
3.8268496e-06
3.8268531e-06
3.8268368e-06
3.82684e-06
3.8268221e-06
3.8268027e-06
3.826811e-06
3.8267968e-06
3.8028908e-06
3.8015843e-06
3.8026837e-06
3.802942e-06
3.8031846e-06
3.8044142e-06
3.8052084e-06
3.8060055e-06
3.806861e-06
3.8073566e-06
3.807714e-06
3.8081355e-06
3.8088348e-06
3.8097789e-06
3.8107515e-06
3.8116595e-06
3.8125856e-06
3.8137288e-06
3.815344e-06
3.8176052e-06
3.8204471e-06
3.8234627e-06
3.8255983e-06
3.826507e-06
3.8267641e-06
3.8268259e-06
3.8268413e-06
3.8268405e-06
3.8268337e-06
3.826822e-06
3.8268029e-06
3.8267996e-06
3.8268136e-06
3.826838e-06
3.8268632e-06
3.8268874e-06
3.8268968e-06
3.8268982e-06
3.8268966e-06
3.8268944e-06
3.8268918e-06
3.8268886e-06
3.8268848e-06
3.8268806e-06
3.8268758e-06
3.8268725e-06
3.826865e-06
3.8268602e-06
3.8268576e-06
3.8268434e-06
3.8268406e-06
3.8268422e-06
3.8268273e-06
3.8268272e-06
3.82681e-06
3.8268104e-06
3.82679e-06
3.8267925e-06
3.8267755e-06
3.8267576e-06
3.8267638e-06
3.8267497e-06
3.8029377e-06
3.8016246e-06
3.8027069e-06
3.8029646e-06
3.8032107e-06
3.8044274e-06
3.8052201e-06
3.8060082e-06
3.8068628e-06
3.8073587e-06
3.807715e-06
3.8081363e-06
3.8088348e-06
3.8097782e-06
3.8107497e-06
3.8116574e-06
3.812584e-06
3.8137284e-06
3.8153459e-06
3.8176091e-06
3.8204513e-06
3.8234676e-06
3.8256037e-06
3.8265127e-06
3.8267693e-06
3.8268298e-06
3.8268445e-06
3.8268398e-06
3.8268305e-06
3.8268173e-06
3.8267971e-06
3.8267925e-06
3.8268049e-06
3.8268285e-06
3.8268525e-06
3.8268762e-06
3.826885e-06
3.8268857e-06
3.826883e-06
3.8268794e-06
3.8268752e-06
3.8268705e-06
3.8268654e-06
3.8268599e-06
3.8268538e-06
3.8268489e-06
3.8268399e-06
3.8268326e-06
3.8268278e-06
3.8268098e-06
3.826805e-06
3.826806e-06
3.8267868e-06
3.8267835e-06
3.8267643e-06
3.8267636e-06
3.826746e-06
3.8267484e-06
3.8267327e-06
3.8267152e-06
3.826719e-06
3.8267053e-06
3.8029718e-06
3.801666e-06
3.8027314e-06
3.8029925e-06
3.803231e-06
3.8044388e-06
3.8052408e-06
3.8060141e-06
3.8068653e-06
3.8073604e-06
3.8077147e-06
3.8081372e-06
3.8088347e-06
3.809777e-06
3.8107474e-06
3.8116552e-06
3.8125828e-06
3.8137288e-06
3.8153477e-06
3.8176117e-06
3.8204545e-06
3.8234725e-06
3.8256079e-06
3.8265155e-06
3.8267703e-06
3.8268291e-06
3.8268428e-06
3.8268342e-06
3.8268231e-06
3.8268088e-06
3.8267879e-06
3.8267829e-06
3.8267943e-06
3.8268175e-06
3.8268412e-06
3.8268641e-06
3.8268717e-06
3.8268706e-06
3.8268664e-06
3.8268615e-06
3.826856e-06
3.82685e-06
3.8268435e-06
3.8268363e-06
3.8268281e-06
3.8268202e-06
3.8268094e-06
3.8267982e-06
3.826791e-06
3.8267704e-06
3.8267646e-06
3.8267645e-06
3.8267448e-06
3.8267405e-06
3.8267242e-06
3.826723e-06
3.8267069e-06
3.826708e-06
3.8266951e-06
3.8266829e-06
3.8266847e-06
3.8266743e-06
3.802998e-06
3.8017119e-06
3.802762e-06
3.8030223e-06
3.8032444e-06
3.8044496e-06
3.8052646e-06
3.8060204e-06
3.8068675e-06
3.8073613e-06
3.8077133e-06
3.808138e-06
3.8088344e-06
3.8097755e-06
3.810745e-06
3.8116535e-06
3.8125824e-06
3.8137295e-06
3.8153483e-06
3.8176124e-06
3.8204564e-06
3.8234761e-06
3.8256086e-06
3.8265137e-06
3.8267667e-06
3.8268239e-06
3.8268365e-06
3.8268257e-06
3.8268138e-06
3.8267988e-06
3.8267775e-06
3.8267724e-06
3.8267833e-06
3.8268059e-06
3.8268281e-06
3.8268489e-06
3.8268553e-06
3.8268529e-06
3.8268475e-06
3.826841e-06
3.8268339e-06
3.826826e-06
3.8268172e-06
3.8268073e-06
3.8267962e-06
3.8267843e-06
3.8267722e-06
3.8267591e-06
3.8267519e-06
3.8267343e-06
3.8267287e-06
3.826727e-06
3.8267081e-06
3.8267033e-06
3.8266891e-06
3.8266878e-06
3.8266773e-06
3.8266786e-06
3.8266737e-06
3.8266752e-06
3.8266776e-06
3.8266774e-06
3.8030294e-06
3.8017538e-06
3.8027938e-06
3.8030524e-06
3.8032573e-06
3.8044608e-06
3.8052791e-06
3.8060257e-06
3.8068695e-06
3.8073621e-06
3.8077113e-06
3.8081384e-06
3.8088338e-06
3.809774e-06
3.8107429e-06
3.8116526e-06
3.8125825e-06
3.8137295e-06
3.8153465e-06
3.8176108e-06
3.8204562e-06
3.8234764e-06
3.8256049e-06
3.8265078e-06
3.8267596e-06
3.8268158e-06
3.8268276e-06
3.8268162e-06
3.8268039e-06
3.8267887e-06
3.8267669e-06
3.8267611e-06
3.8267708e-06
3.8267918e-06
3.826812e-06
3.8268313e-06
3.8268362e-06
3.8268321e-06
3.826825e-06
3.8268165e-06
3.8268069e-06
3.8267963e-06
3.8267844e-06
3.8267716e-06
3.8267588e-06
3.8267465e-06
3.8267362e-06
3.8267252e-06
3.8267188e-06
3.8267023e-06
3.8266961e-06
3.8266932e-06
3.8266778e-06
3.8266744e-06
3.826667e-06
3.8266681e-06
3.8266691e-06
3.8266733e-06
3.826685e-06
3.8267126e-06
3.8267198e-06
3.8267399e-06
3.8030643e-06
3.8017837e-06
3.8028252e-06
3.8030855e-06
3.8032689e-06
3.8044718e-06
3.8052875e-06
3.8060296e-06
3.8068717e-06
3.8073631e-06
3.8077092e-06
3.8081382e-06
3.8088331e-06
3.8097727e-06
3.8107414e-06
3.8116518e-06
3.8125816e-06
3.8137267e-06
3.8153414e-06
3.8176063e-06
3.8204528e-06
3.8234728e-06
3.8255979e-06
3.8264995e-06
3.8267509e-06
3.8268065e-06
3.8268179e-06
3.8268064e-06
3.8267938e-06
3.8267778e-06
3.8267546e-06
3.8267468e-06
3.8267552e-06
3.826775e-06
3.8267932e-06
3.8268101e-06
3.8268132e-06
3.8268071e-06
3.8267976e-06
3.8267864e-06
3.826774e-06
3.8267609e-06
3.8267481e-06
3.8267364e-06
3.8267258e-06
3.8267156e-06
3.8267057e-06
3.8266953e-06
3.826689e-06
3.8266762e-06
3.8266712e-06
3.8266687e-06
3.8266622e-06
3.8266632e-06
3.826669e-06
3.8266769e-06
3.826699e-06
3.8267115e-06
3.826749e-06
3.826805e-06
3.8268164e-06
3.8268496e-06
3.8031031e-06
3.8018049e-06
3.8028569e-06
3.8031201e-06
3.8032772e-06
3.8044828e-06
3.8052879e-06
3.8060321e-06
3.8068742e-06
3.8073644e-06
3.8077075e-06
3.8081375e-06
3.8088324e-06
3.8097718e-06
3.8107397e-06
3.811649e-06
3.8125779e-06
3.8137182e-06
3.8153324e-06
3.8175982e-06
3.8204462e-06
3.8234662e-06
3.8255892e-06
3.8264904e-06
3.8267418e-06
3.826797e-06
3.826808e-06
3.8267959e-06
3.8267813e-06
3.8267635e-06
3.8267391e-06
3.82673e-06
3.826737e-06
3.8267551e-06
3.8267705e-06
3.8267847e-06
3.8267857e-06
3.8267771e-06
3.8267651e-06
3.826752e-06
3.8267394e-06
3.8267283e-06
3.8267179e-06
3.8267076e-06
3.8266977e-06
3.8266886e-06
3.8266804e-06
3.8266723e-06
3.8266678e-06
3.8266612e-06
3.8266603e-06
3.8266617e-06
3.8266707e-06
3.8266821e-06
3.8267118e-06
3.8267327e-06
3.8267818e-06
3.8268033e-06
3.8268541e-06
3.8269042e-06
3.8269113e-06
3.826929e-06
3.8031455e-06
3.8018233e-06
3.8028907e-06
3.8031502e-06
3.8032856e-06
3.8044968e-06
3.8052793e-06
3.8060332e-06
3.806877e-06
3.8073661e-06
3.8077063e-06
3.8081367e-06
3.8088321e-06
3.809771e-06
3.8107358e-06
3.8116414e-06
3.8125696e-06
3.8137037e-06
3.8153197e-06
3.8175866e-06
3.8204374e-06
3.8234581e-06
3.82558e-06
3.826481e-06
3.8267325e-06
3.8267871e-06
3.8267969e-06
3.8267824e-06
3.8267659e-06
3.8267466e-06
3.8267209e-06
3.8267097e-06
3.8267149e-06
3.8267311e-06
3.8267438e-06
3.8267555e-06
3.826754e-06
3.826744e-06
3.8267324e-06
3.8267216e-06
3.8267114e-06
3.8267013e-06
3.8266919e-06
3.8266834e-06
3.8266762e-06
3.8266703e-06
3.8266649e-06
3.8266601e-06
3.8266591e-06
3.8266631e-06
3.8266725e-06
3.8266852e-06
3.8267204e-06
3.826749e-06
3.8268045e-06
3.8268344e-06
3.8268862e-06
3.8269036e-06
3.8269316e-06
3.8269453e-06
3.8269451e-06
3.8269444e-06
3.8031895e-06
3.8018453e-06
3.8029273e-06
3.8031754e-06
3.8032987e-06
3.8045147e-06
3.8052677e-06
3.8060342e-06
3.8068803e-06
3.8073681e-06
3.8077056e-06
3.8081359e-06
3.8088319e-06
3.8097679e-06
3.8107273e-06
3.8116289e-06
3.8125572e-06
3.8136863e-06
3.8153042e-06
3.8175727e-06
3.8204268e-06
3.8234486e-06
3.8255703e-06
3.8264711e-06
3.8267215e-06
3.8267744e-06
3.8267826e-06
3.8267665e-06
3.8267474e-06
3.8267261e-06
3.8266987e-06
3.8266854e-06
3.8266889e-06
3.8267033e-06
3.8267138e-06
3.8267239e-06
3.8267231e-06
3.8267155e-06
3.826706e-06
3.8266963e-06
3.8266874e-06
3.8266799e-06
3.8266737e-06
3.8266686e-06
3.8266644e-06
3.8266617e-06
3.8266602e-06
3.8266622e-06
3.8266708e-06
3.8266969e-06
3.8267275e-06
3.8267576e-06
3.8268172e-06
3.8268542e-06
3.8269039e-06
3.826923e-06
3.8269431e-06
3.826947e-06
3.8269482e-06
3.8269435e-06
3.8269409e-06
3.8269372e-06
3.8032379e-06
3.8018806e-06
3.8029699e-06
3.8032012e-06
3.8033153e-06
3.8045353e-06
3.8052648e-06
3.8060374e-06
3.8068839e-06
3.8073703e-06
3.8077054e-06
3.8081352e-06
3.8088298e-06
3.8097601e-06
3.8107136e-06
3.8116133e-06
3.8125418e-06
3.8136679e-06
3.8152874e-06
3.8175576e-06
3.8204145e-06
3.8234378e-06
3.8255594e-06
3.8264582e-06
3.8267073e-06
3.8267591e-06
3.8267658e-06
3.826747e-06
3.8267249e-06
3.8267018e-06
3.8266734e-06
3.8266584e-06
3.82666e-06
3.8266724e-06
3.8266838e-06
3.8266967e-06
3.8266979e-06
3.8266915e-06
3.8266838e-06
3.8266773e-06
3.8266722e-06
3.8266681e-06
3.8266646e-06
3.8266618e-06
3.8266609e-06
3.8266643e-06
3.826674e-06
3.8266942e-06
3.8267231e-06
3.8267805e-06
3.8268288e-06
3.8268641e-06
3.826912e-06
3.8269328e-06
3.8269472e-06
3.82695e-06
3.8269478e-06
3.8269461e-06
3.8269408e-06
3.826934e-06
3.8269308e-06
3.8269279e-06
3.803291e-06
3.8019363e-06
3.8030203e-06
3.8032325e-06
3.8033391e-06
3.8045574e-06
3.805273e-06
3.8060436e-06
3.8068878e-06
3.8073725e-06
3.8077056e-06
3.8081326e-06
3.8088222e-06
3.8097471e-06
3.8106956e-06
3.8115956e-06
3.812524e-06
3.8136494e-06
3.8152697e-06
3.8175418e-06
3.8204e-06
3.8234242e-06
3.8255456e-06
3.8264429e-06
3.8266906e-06
3.8267406e-06
3.8267451e-06
3.8267235e-06
3.8266998e-06
3.8266759e-06
3.826646e-06
3.826629e-06
3.8266296e-06
3.8266436e-06
3.8266593e-06
3.8266738e-06
3.8266773e-06
3.8266746e-06
3.8266712e-06
3.8266682e-06
3.8266652e-06
3.8266624e-06
3.8266611e-06
3.8266636e-06
3.8266734e-06
3.8266945e-06
3.8267291e-06
3.8267764e-06
3.8268229e-06
3.8268855e-06
3.8269203e-06
3.8269371e-06
3.8269477e-06
3.8269506e-06
3.826947e-06
3.8269452e-06
3.8269396e-06
3.826937e-06
3.826931e-06
3.8269231e-06
3.8269185e-06
3.8269143e-06
3.803347e-06
3.8020062e-06
3.8030772e-06
3.8032715e-06
3.8033703e-06
3.8045805e-06
3.8052862e-06
3.8060516e-06
3.8068917e-06
3.8073748e-06
3.8077046e-06
3.8081238e-06
3.8088081e-06
3.8097303e-06
3.8106747e-06
3.8115757e-06
3.8125042e-06
3.8136312e-06
3.8152513e-06
3.817524e-06
3.8203824e-06
3.8234075e-06
3.8255294e-06
3.8264246e-06
3.8266698e-06
3.8267178e-06
3.8267204e-06
3.8266984e-06
3.8266737e-06
3.826648e-06
3.8266169e-06
3.826601e-06
3.8266043e-06
3.82662e-06
3.8266391e-06
3.8266587e-06
3.8266669e-06
3.8266679e-06
3.826666e-06
3.8266632e-06
3.8266612e-06
3.8266626e-06
3.8266711e-06
3.8266914e-06
3.8267264e-06
3.8267752e-06
3.8268313e-06
3.8268832e-06
3.8269171e-06
3.8269433e-06
3.8269503e-06
3.8269507e-06
3.8269455e-06
3.8269445e-06
3.8269391e-06
3.8269365e-06
3.8269302e-06
3.8269268e-06
3.8269193e-06
3.8269076e-06
3.8268987e-06
3.8268871e-06
3.8034072e-06
3.8020749e-06
3.803138e-06
3.8033176e-06
3.8034054e-06
3.8046048e-06
3.8053005e-06
3.80606e-06
3.8068957e-06
3.8073763e-06
3.8076983e-06
3.8081076e-06
3.8087897e-06
3.8097104e-06
3.8106522e-06
3.811554e-06
3.8124824e-06
3.8136129e-06
3.8152305e-06
3.8175037e-06
3.8203632e-06
3.823389e-06
3.8255097e-06
3.826402e-06
3.8266455e-06
3.8266928e-06
3.8266942e-06
3.8266718e-06
3.8266455e-06
3.8266204e-06
3.8265919e-06
3.8265779e-06
3.8265831e-06
3.8266022e-06
3.8266293e-06
3.8266539e-06
3.8266633e-06
3.8266634e-06
3.8266613e-06
3.8266614e-06
3.8266682e-06
3.8266867e-06
3.8267208e-06
3.8267704e-06
3.8268282e-06
3.8268827e-06
3.8269234e-06
3.8269442e-06
3.8269502e-06
3.8269486e-06
3.8269464e-06
3.8269442e-06
3.826938e-06
3.8269363e-06
3.8269304e-06
3.8269268e-06
3.826919e-06
3.8269134e-06
3.8269014e-06
3.8268806e-06
3.8268647e-06
3.8268468e-06
3.8034736e-06
3.8021386e-06
3.8032037e-06
3.8033682e-06
3.8034412e-06
3.8046307e-06
3.8053162e-06
3.8060687e-06
3.8068973e-06
3.8073719e-06
3.8076836e-06
3.8080875e-06
3.8087694e-06
3.8096885e-06
3.8106291e-06
3.8115311e-06
3.8124581e-06
3.8135908e-06
3.8152062e-06
3.8174812e-06
3.8203419e-06
3.8233673e-06
3.8254863e-06
3.8263774e-06
3.8266207e-06
3.8266672e-06
3.8266663e-06
3.8266441e-06
3.8266205e-06
3.8265976e-06
3.8265713e-06
3.8265611e-06
3.8265716e-06
3.8265957e-06
3.826627e-06
3.82665e-06
3.8266577e-06
3.8266595e-06
3.8266648e-06
3.826681e-06
3.8267133e-06
3.8267624e-06
3.8268218e-06
3.8268793e-06
3.8269223e-06
3.8269457e-06
3.8269531e-06
3.8269507e-06
3.8269471e-06
3.8269413e-06
3.8269386e-06
3.8269364e-06
3.8269302e-06
3.8269273e-06
3.8269199e-06
3.8269142e-06
3.8269024e-06
3.8268913e-06
3.8268702e-06
3.8268452e-06
3.8268383e-06
3.8268312e-06
3.8035496e-06
3.8022044e-06
3.8032765e-06
3.8034213e-06
3.8034763e-06
3.8046593e-06
3.8053333e-06
3.8060756e-06
3.8068904e-06
3.8073581e-06
3.8076637e-06
3.808066e-06
3.8087478e-06
3.8096656e-06
3.8106061e-06
3.8115063e-06
3.8124306e-06
3.8135642e-06
3.8151784e-06
3.8174547e-06
3.8203165e-06
3.823342e-06
3.8254617e-06
3.8263526e-06
3.8265947e-06
3.8266397e-06
3.8266391e-06
3.8266212e-06
3.8265999e-06
3.8265809e-06
3.8265606e-06
3.8265561e-06
3.8265698e-06
3.8265933e-06
3.8266212e-06
3.8266439e-06
3.8266579e-06
3.8266742e-06
3.8267043e-06
3.8267522e-06
3.8268126e-06
3.8268729e-06
3.8269195e-06
3.8269454e-06
3.8269537e-06
3.826953e-06
3.826949e-06
3.8269435e-06
3.8269395e-06
3.8269339e-06
3.8269308e-06
3.8269281e-06
3.8269207e-06
3.8269157e-06
3.8269049e-06
3.8268944e-06
3.826874e-06
3.8268562e-06
3.8268387e-06
3.8268351e-06
3.8268388e-06
3.8268393e-06
3.8036363e-06
3.8022781e-06
3.8033583e-06
3.8034756e-06
3.8035117e-06
3.804692e-06
3.8053495e-06
3.8060734e-06
3.8068767e-06
3.8073405e-06
3.8076423e-06
3.8080443e-06
3.808725e-06
3.8096423e-06
3.8105828e-06
3.8114773e-06
3.8124001e-06
3.813534e-06
3.8151458e-06
3.8174238e-06
3.8202878e-06
3.8233152e-06
3.8254368e-06
3.8263259e-06
3.8265677e-06
3.8266154e-06
3.8266168e-06
3.826603e-06
3.826589e-06
3.8265768e-06
3.8265605e-06
3.8265551e-06
3.8265651e-06
3.8265863e-06
3.8266167e-06
3.8266532e-06
3.8266913e-06
3.8267396e-06
3.8268005e-06
3.8268636e-06
3.8269146e-06
3.826944e-06
3.8269543e-06
3.826954e-06
3.8269501e-06
3.8269458e-06
3.8269415e-06
3.8269363e-06
3.8269322e-06
3.826926e-06
3.8269216e-06
3.8269174e-06
3.8269076e-06
3.8268982e-06
3.8268799e-06
3.8268617e-06
3.8268404e-06
3.8268347e-06
3.8268356e-06
3.8268436e-06
3.8268616e-06
3.8268854e-06
3.8037337e-06
3.8023611e-06
3.8034477e-06
3.8035311e-06
3.803549e-06
3.8047257e-06
3.8053584e-06
3.8060652e-06
3.8068619e-06
3.8073221e-06
3.8076204e-06
3.8080221e-06
3.8087014e-06
3.8096184e-06
3.8105546e-06
3.8114445e-06
3.8123653e-06
3.8134985e-06
3.8151096e-06
3.8173914e-06
3.8202578e-06
3.823287e-06
3.8254097e-06
3.8263001e-06
3.8265452e-06
3.8265953e-06
3.8266011e-06
3.8265966e-06
3.8265898e-06
3.8265771e-06
3.8265565e-06
3.8265472e-06
3.8265575e-06
3.8265855e-06
3.8266376e-06
3.8267104e-06
3.8267831e-06
3.8268512e-06
3.8269072e-06
3.8269414e-06
3.8269544e-06
3.8269552e-06
3.8269514e-06
3.8269469e-06
3.8269426e-06
3.8269387e-06
3.8269346e-06
3.826929e-06
3.8269239e-06
3.8269161e-06
3.8269094e-06
3.8269021e-06
3.8268864e-06
3.8268691e-06
3.8268452e-06
3.8268345e-06
3.826833e-06
3.8268372e-06
3.8268505e-06
3.8268875e-06
3.8269238e-06
3.8269557e-06
3.803842e-06
3.8024525e-06
3.8035428e-06
3.8035876e-06
3.8035878e-06
3.804754e-06
3.8053602e-06
3.8060552e-06
3.8068472e-06
3.8073038e-06
3.8075982e-06
3.8079991e-06
3.8086765e-06
3.8095899e-06
3.810522e-06
3.8114071e-06
3.8123255e-06
3.8134595e-06
3.8150733e-06
3.817358e-06
3.8202251e-06
3.8232568e-06
3.8253855e-06
3.8262792e-06
3.8265288e-06
3.8265854e-06
3.8265983e-06
3.8265988e-06
3.8265871e-06
3.8265688e-06
3.8265471e-06
3.8265429e-06
3.8265676e-06
3.8266209e-06
3.8267151e-06
3.8268197e-06
3.826894e-06
3.8269365e-06
3.8269539e-06
3.8269562e-06
3.8269528e-06
3.8269483e-06
3.8269439e-06
3.8269399e-06
3.8269359e-06
3.8269318e-06
3.8269269e-06