/*--------------------------------*- C++ -*----------------------------------*\
| =========                 |                                                 |
| \\      /  F ield         | OpenFOAM: The Open Source CFD Toolbox           |
|  \\    /   O peration     | Version:  2506                                  |
|   \\  /    A nd           | Website:  www.openfoam.com                      |
|    \\/     M anipulation  |                                                 |
\*---------------------------------------------------------------------------*/
FoamFile
{
    version     2.0;
    format      ascii;
    arch        "LSB;label=32;scalar=64";
    class       volScalarField;
    location    "2.9";
    object      rho;
}
// * * * * * * * * * * * * * * * * * * * * * * * * * * * * * * * * * * * * * //

dimensions      [1 -3 0 0 0 0 0];

internalField   nonuniform List<scalar> 
19257
(
0.66589335
0.6658183
0.66578932
0.66580419
0.66579619
0.66578621
0.66578129
0.66577417
0.66576
0.6657547
0.66574654
0.66573971
0.66573821
0.66573273
0.66570178
0.66568713
0.66567287
0.66566978
0.66566613
0.66564404
0.66560521
0.66558288
0.66557268
0.66553055
0.66547694
0.66542644
0.66541711
0.6654112
0.66539239
0.66537781
0.6653503
0.66531206
0.66526271
0.66525131
0.66524339
0.66517671
0.66511357
0.66516136
0.66507235
0.66511934
0.66538292
0.66522174
0.66549184
0.66515686
0.66521243
0.66481896
0.65942789
0.6614864
0.65471939
0.66590372
0.665812
0.66579007
0.66580445
0.66580246
0.66579129
0.66578099
0.66577658
0.66576809
0.66576176
0.66574559
0.66574778
0.66574359
0.66573838
0.66571206
0.66570086
0.6656901
0.66568343
0.66567918
0.66566646
0.66562991
0.66560712
0.66560352
0.66557612
0.66552599
0.66548402
0.66547488
0.66548195
0.66547515
0.66546479
0.66546437
0.66545054
0.66542399
0.66540251
0.66542689
0.66545497
0.66542242
0.66542555
0.66567694
0.66563382
0.66550101
0.66565813
0.66554325
0.66562755
0.66552977
0.66490046
0.66323731
0.66412588
0.65590205
0.66591472
0.66580468
0.66579264
0.66580428
0.66580611
0.66579022
0.66578782
0.66578464
0.66577712
0.66577214
0.66576245
0.66575611
0.66575018
0.66575149
0.66572747
0.66571657
0.66570593
0.66569512
0.66569077
0.66568851
0.66565873
0.66563532
0.66564026
0.6656215
0.66557817
0.66554451
0.66553244
0.66554842
0.66555795
0.66555798
0.66556998
0.66558284
0.66558722
0.66558017
0.66562249
0.66570269
0.66570623
0.66575301
0.66583174
0.6660016
0.66620083
0.66639557
0.66673426
0.66672535
0.66666186
0.66604101
0.66430445
0.66619597
0.65770639
0.66591928
0.66581874
0.66579881
0.66580374
0.66580579
0.66579808
0.66579345
0.6657872
0.66578151
0.66578488
0.6657778
0.66575702
0.66576008
0.66575938
0.66574205
0.66572805
0.66572052
0.66570982
0.66570582
0.66570893
0.66569098
0.66566574
0.66567116
0.66566745
0.66563661
0.66560469
0.6655902
0.66561598
0.66564802
0.66565484
0.66567475
0.66570703
0.66573487
0.66574722
0.66580195
0.66591754
0.66599819
0.66607133
0.66624377
0.66653901
0.66662182
0.66696373
0.66713471
0.66736511
0.66743755
0.66718867
0.6668449
0.66701194
0.65964825
0.66593206
0.66582768
0.66579763
0.66580293
0.66580478
0.66580375
0.66579169
0.66578477
0.66578649
0.66578337
0.66577763
0.66576697
0.6657632
0.66576445
0.66575717
0.66574195
0.66573933
0.66572994
0.66572731
0.66572481
0.66572153
0.66569933
0.6657095
0.66571514
0.66569403
0.66566603
0.66565676
0.66569342
0.66573538
0.66575309
0.66578727
0.66583252
0.66587485
0.66591334
0.66598574
0.66611487
0.66626307
0.66636552
0.66655142
0.66678408
0.6671101
0.66741663
0.6678601
0.66826743
0.66839097
0.6684781
0.66917792
0.66792486
0.66277049
0.66593497
0.6658357
0.66580136
0.66580325
0.66580382
0.66580734
0.66579746
0.66579218
0.66579199
0.66578476
0.66578727
0.66578306
0.665776
0.66577695
0.66577083
0.6657581
0.66575549
0.66574684
0.66574773
0.66574522
0.66575154
0.66573812
0.66574997
0.66576154
0.66575653
0.66572927
0.665727
0.66576899
0.66582346
0.66585723
0.66590377
0.66596061
0.66601245
0.666072
0.66616899
0.66631418
0.66650545
0.66665905
0.66689421
0.66716731
0.66755845
0.66785565
0.66846942
0.66891367
0.66918698
0.67003559
0.66994869
0.67004951
0.66652932
0.66594934
0.66584281
0.66580202
0.6658
0.66580473
0.66581365
0.66580983
0.6658029
0.66580055
0.66579619
0.66580004
0.66579486
0.66578829
0.66578115
0.66578227
0.66577162
0.66577218
0.66576778
0.66576731
0.66576859
0.66577595
0.66578333
0.66578999
0.66580885
0.6658136
0.66579293
0.6657984
0.6658427
0.66591038
0.66596073
0.66602173
0.66609307
0.66615408
0.66622332
0.66634088
0.66650859
0.66672315
0.66694551
0.66716141
0.66751979
0.66781237
0.66833658
0.6688186
0.66955012
0.67005214
0.67113073
0.67170179
0.67222414
0.66888409
0.66596767
0.66584909
0.6657992
0.66580673
0.66581409
0.66582222
0.66581416
0.66580781
0.66580938
0.66580677
0.66580603
0.6657999
0.66579809
0.66579614
0.66579817
0.66579175
0.66579192
0.66579488
0.6657962
0.66580094
0.66580454
0.66582321
0.66584124
0.66586117
0.66586681
0.66585902
0.66587406
0.66591962
0.66599677
0.66606331
0.6661405
0.66622783
0.66630312
0.66637866
0.666508
0.66669881
0.6669367
0.66720921
0.66745599
0.66784306
0.66816427
0.66872702
0.66927969
0.67018153
0.67088989
0.67186992
0.67301221
0.672681
0.67215018
0.66597714
0.66586485
0.66581168
0.66581932
0.66582301
0.66582508
0.66581585
0.66581339
0.66581205
0.66580941
0.6658075
0.66580718
0.66580892
0.66581265
0.66581347
0.66581612
0.66581497
0.66582422
0.66582667
0.66583036
0.66583561
0.66586243
0.66588985
0.66590835
0.66592782
0.66593243
0.66595089
0.66599673
0.66608279
0.6661658
0.66625542
0.66636034
0.66645533
0.66654154
0.66667168
0.66687936
0.6671477
0.66744132
0.66776419
0.66810124
0.66858597
0.66901792
0.66983039
0.67065461
0.67171371
0.67274132
0.67396714
0.6746568
0.67547832
0.66598541
0.66587588
0.66581415
0.6658174
0.66582402
0.66582302
0.66581685
0.66581521
0.66581207
0.66581085
0.66581008
0.66580914
0.66581627
0.66582371
0.66582445
0.66582976
0.66582989
0.66584358
0.66585315
0.66585748
0.66586597
0.66589395
0.66593252
0.66596093
0.66598952
0.66600505
0.66602909
0.66607653
0.66616621
0.66626297
0.66636436
0.66648726
0.66660592
0.66670834
0.66683858
0.66705136
0.66734282
0.6676662
0.66803598
0.66841399
0.66893034
0.66940093
0.67026186
0.6710975
0.67241505
0.67348197
0.67507799
0.67665616
0.67812206
0.66600601
0.66587093
0.66580099
0.66579926
0.66581964
0.6658179
0.66582265
0.66581881
0.66581478
0.66581513
0.66581502
0.66581638
0.66582704
0.66583002
0.66583312
0.66584115
0.66584698
0.66586281
0.66587938
0.6658869
0.66590022
0.66592796
0.6659729
0.66601289
0.66605113
0.66607629
0.66610455
0.6661549
0.66624644
0.66635614
0.66646789
0.66660482
0.6667476
0.66687348
0.66700976
0.66722287
0.66752377
0.66788417
0.66825955
0.66873118
0.66919594
0.66985944
0.67058082
0.6716573
0.67284636
0.67442133
0.67573505
0.67825021
0.68059466
0.66603089
0.66586892
0.66580187
0.66579553
0.66581722
0.66581491
0.66583028
0.66582519
0.66582057
0.66582308
0.66582605
0.66583162
0.6658441
0.66584996
0.66585639
0.66586439
0.66587426
0.66588829
0.66590909
0.66592114
0.66593637
0.66596381
0.66601415
0.66606362
0.6661076
0.66614324
0.66617831
0.66623299
0.66632565
0.66644636
0.66656826
0.66671493
0.66687821
0.66703139
0.6671789
0.6673939
0.66769879
0.66808375
0.66848399
0.66898124
0.66951869
0.67019229
0.67097388
0.67215982
0.67336949
0.67517479
0.67682197
0.67949684
0.68256124
0.66606364
0.66588243
0.66580248
0.66579141
0.66581136
0.6658148
0.66583353
0.66582939
0.66582415
0.6658307
0.66583847
0.6658493
0.66586484
0.66587313
0.66588131
0.66589033
0.66590175
0.66591507
0.66593897
0.66595679
0.66597314
0.66600029
0.66605169
0.66610976
0.66616152
0.66620661
0.6662489
0.66630825
0.66640133
0.66653081
0.66666425
0.66681729
0.66699453
0.66717387
0.6673397
0.66755819
0.66787154
0.6682608
0.6687017
0.66918815
0.6698109
0.67046342
0.6713754
0.67248421
0.67396252
0.6755393
0.67796056
0.68018512
0.6844818
0.66609694
0.66589407
0.66579639
0.66578254
0.66580653
0.6658268
0.66583665
0.66583068
0.66582622
0.66583362
0.66584394
0.6658558
0.66587088
0.66588269
0.66589324
0.66590577
0.66592145
0.66593704
0.66596408
0.66598873
0.66600876
0.66603669
0.6660872
0.66615031
0.66620985
0.66626271
0.66631194
0.66637639
0.66647024
0.66660533
0.66675075
0.66690947
0.66709507
0.66729577
0.66748496
0.66770988
0.66803141
0.66843239
0.66888787
0.66940028
0.67003563
0.67075624
0.67167703
0.6728292
0.6743692
0.67614136
0.67851281
0.68150943
0.68618644
0.66613127
0.66590791
0.66579789
0.66578087
0.6658046
0.66583366
0.665841
0.66583655
0.66583445
0.66584026
0.66584814
0.66585849
0.66587287
0.6658869
0.66589958
0.66591392
0.66593321
0.6659522
0.66598226
0.66601263
0.66603788
0.66606878
0.66612044
0.6661871
0.66625326
0.6663115
0.66636686
0.66643753
0.66653371
0.66667106
0.666827
0.66699276
0.66718347
0.6673984
0.66761023
0.66784608
0.66817461
0.66859114
0.66905665
0.66959271
0.67023489
0.6710098
0.6719334
0.67319339
0.67469077
0.67672569
0.67891755
0.68254124
0.68753931
0.66615886
0.66592113
0.66579885
0.66577606
0.66580447
0.66583158
0.66583759
0.66584261
0.66584455
0.66584932
0.66585666
0.66586678
0.66588332
0.66590064
0.66591367
0.66592598
0.66594597
0.66596905
0.66600107
0.66603373
0.66606144
0.66609502
0.66614927
0.66621899
0.66629126
0.66635445
0.66641438
0.66649114
0.66659209
0.66673016
0.66689337
0.66706703
0.66726275
0.66748556
0.66771558
0.66796456
0.66829979
0.6687293
0.66921338
0.66975479
0.6704267
0.67121584
0.67216899
0.67344262
0.67505034
0.67703373
0.6796461
0.68309615
0.68871722
0.66617976
0.66592862
0.66579545
0.665774
0.66580407
0.66583147
0.66583412
0.66584842
0.66585963
0.66585883
0.66586461
0.66587608
0.66589446
0.66591297
0.6659258
0.66593763
0.66595796
0.66598366
0.6660168
0.66605118
0.66608094
0.66611612
0.66617262
0.66624503
0.66632205
0.66639037
0.66645408
0.66653504
0.66664192
0.66678058
0.66694705
0.6671276
0.66732963
0.66755655
0.66779812
0.66806018
0.66840187
0.6688406
0.6693397
0.66989763
0.67057651
0.67138497
0.67236562
0.67363895
0.67532524
0.67733371
0.68015728
0.6836657
0.6896832
0.66619473
0.6659359
0.66579219
0.6657703
0.66579926
0.66582199
0.66584792
0.66586585
0.66585645
0.66585503
0.66586348
0.66587776
0.66589844
0.66591792
0.66593097
0.66594341
0.66596475
0.66599288
0.66602738
0.66606288
0.66609451
0.66613051
0.66618791
0.6662623
0.66634236
0.66641514
0.66648279
0.66656594
0.66667785
0.66681721
0.66698309
0.66716738
0.66737595
0.66760438
0.66784949
0.66812199
0.66846797
0.66891035
0.66941772
0.66998734
0.67067735
0.67149586
0.67247144
0.67376806
0.67545687
0.67760421
0.68033653
0.68413011
0.69026553
0.66620292
0.66594176
0.66578864
0.66576694
0.66579889
0.66582027
0.66585115
0.66587047
0.66585938
0.66586074
0.66586519
0.66587632
0.66589765
0.6659179
0.66593158
0.66594411
0.6659657
0.66599617
0.66603232
0.66606826
0.66610047
0.66613613
0.666193
0.6662681
0.66634876
0.66642347
0.66649468
0.6665789
0.66669358
0.66683295
0.66699516
0.66717961
0.66739268
0.6676201
0.66786182
0.66813961
0.6684882
0.66892799
0.66943669
0.67001403
0.67070878
0.67152544
0.67249707
0.67378369
0.67548864
0.6776349
0.68043945
0.68426147
0.69047696
0.6662046
0.66594321
0.66578813
0.66576595
0.66580311
0.66582974
0.66584604
0.66585459
0.66586321
0.66586681
0.66586511
0.6658734
0.66589614
0.66591871
0.66593361
0.66594431
0.66596398
0.66599533
0.66603374
0.66607029
0.66610254
0.6661375
0.66619394
0.66626908
0.6663475
0.66642111
0.6664948
0.66658011
0.66669566
0.66683432
0.66699301
0.66717763
0.6673941
0.6676193
0.66785626
0.66813758
0.6684896
0.66892599
0.6694335
0.67001627
0.6707124
0.67152447
0.67249183
0.67376963
0.67546648
0.67762176
0.68042618
0.68424813
0.6905373
0.66619864
0.66594291
0.66579254
0.66576864
0.66580601
0.66583196
0.66584455
0.66585018
0.66585939
0.66586709
0.66586666
0.66587427
0.66589727
0.66592113
0.665938
0.66594894
0.66596698
0.66599617
0.66603328
0.66606869
0.66610154
0.66613651
0.66619352
0.66626918
0.66634392
0.66641513
0.66649184
0.66657966
0.66669575
0.66683409
0.66699069
0.66717643
0.66739518
0.66761727
0.66785045
0.6681357
0.66849325
0.66892833
0.66943504
0.67002175
0.67071747
0.67152706
0.67249886
0.6737721
0.67545833
0.67761494
0.68042288
0.68424221
0.6904773
0.66618615
0.6659392
0.66579913
0.6657714
0.66580413
0.66582959
0.66584228
0.66584536
0.66585316
0.66586435
0.66586794
0.66587686
0.6658998
0.66592298
0.66593872
0.66594792
0.66596401
0.66599271
0.66602847
0.66606242
0.66609467
0.66612852
0.66618705
0.66626405
0.66633321
0.66639998
0.66647862
0.66656858
0.66668428
0.66682172
0.66697602
0.66716189
0.66737934
0.66759554
0.66782477
0.66811293
0.66847636
0.6689112
0.66941508
0.66999856
0.67068622
0.67149477
0.67247527
0.67374073
0.67540078
0.67753933
0.68030458
0.68407469
0.69021718
0.66616942
0.66592903
0.66579973
0.66577435
0.66580664
0.66582835
0.66583399
0.66583868
0.66584775
0.66586064
0.66586872
0.66587938
0.66589868
0.66591671
0.66592979
0.66593826
0.66595586
0.66598633
0.66602154
0.66605373
0.66608219
0.66611219
0.66617162
0.66624858
0.66630967
0.66637119
0.66644996
0.66653962
0.66665278
0.66678718
0.6669371
0.66711997
0.66733023
0.66753738
0.66776158
0.66805013
0.66841508
0.66884753
0.66933928
0.66990647
0.67057692
0.67137671
0.67236706
0.67361059
0.67521648
0.67728449
0.68004785
0.6836025
0.6895691
0.6661457
0.66591604
0.66579829
0.66577812
0.66581173
0.66582789
0.66582823
0.66584099
0.66584779
0.66585771
0.6658609
0.66586973
0.66589025
0.66590764
0.66591829
0.6659259
0.6659454
0.66597622
0.66600902
0.66603746
0.66606091
0.66608757
0.66614787
0.66622302
0.66627482
0.66633255
0.66641056
0.66649803
0.66660777
0.66673776
0.66688142
0.66705818
0.6672574
0.6674541
0.66767235
0.66795869
0.66832322
0.66874742
0.66921701
0.66975431
0.67040433
0.67120507
0.67218266
0.67339593
0.67492961
0.67699116
0.67953538
0.68309773
0.68858126
0.66611238
0.66590101
0.66579441
0.66577699
0.66581506
0.66582649
0.66583035
0.66583877
0.665843
0.66584665
0.66584807
0.66585987
0.66588174
0.66589755
0.66590529
0.66591092
0.66592961
0.66595894
0.66598844
0.66601365
0.66603356
0.66605926
0.666121
0.66619156
0.66623253
0.66628823
0.66636465
0.66644829
0.6665547
0.66667849
0.66681398
0.66698223
0.66716888
0.66735468
0.66756692
0.66785116
0.66821424
0.66862245
0.66905708
0.66956132
0.67019406
0.67100516
0.67196579
0.67312888
0.67460294
0.67654573
0.678962
0.68235023
0.68750263
0.66607993
0.66589186
0.66579836
0.66577966
0.66581564
0.66582773
0.66583446
0.66582858
0.66583293
0.66583892
0.66584286
0.66585675
0.66587703
0.66588663
0.6658882
0.66589209
0.66591343
0.665943
0.66596813
0.66598871
0.66600287
0.66602921
0.6660936
0.66615515
0.66618451
0.66623931
0.66631279
0.66639142
0.66649464
0.66660949
0.66673556
0.66689388
0.66706791
0.66724292
0.66744925
0.66773274
0.66808945
0.66847192
0.66885945
0.66934219
0.6699801
0.67077621
0.67171576
0.67280186
0.67425081
0.67600133
0.67847888
0.68115643
0.68607654
0.66605235
0.66588535
0.66579963
0.6657912
0.6658159
0.66582952
0.66582765
0.66582363
0.66582951
0.66583178
0.66583537
0.66584588
0.66586218
0.66586587
0.66586697
0.66587368
0.6658983
0.6659246
0.66594237
0.66595856
0.6659677
0.66599715
0.66606283
0.6661089
0.66612877
0.666184
0.66625419
0.66632958
0.66642854
0.6665312
0.66664722
0.66679511
0.66695678
0.66712002
0.66732129
0.66760353
0.66794722
0.66828448
0.66863426
0.66910204
0.66975573
0.67051842
0.67144429
0.67245284
0.67374681
0.67554498
0.67770144
0.68053925
0.68441571
0.66602543
0.66587018
0.66579117
0.66579462
0.66581194
0.66582532
0.66582304
0.66582343
0.66582946
0.66582623
0.6658221
0.66583084
0.66584419
0.66584669
0.66585209
0.66585973
0.66588343
0.66590355
0.66591624
0.66592832
0.66592937
0.66596255
0.66602568
0.66605166
0.66606734
0.66612327
0.66618948
0.66626376
0.66635488
0.66644405
0.66655037
0.66668798
0.6668365
0.66698728
0.66718397
0.66746033
0.6677806
0.66806114
0.66838712
0.66886493
0.66950305
0.67026182
0.67107218
0.6721086
0.67333461
0.67505545
0.67673873
0.67932623
0.68268042
0.6660008
0.6658576
0.66578921
0.66579187
0.66580703
0.66581691
0.6658184
0.66582272
0.66581831
0.66581262
0.66580884
0.66582207
0.66583215
0.66583024
0.66583338
0.66583894
0.66586276
0.66587737
0.66588609
0.66589268
0.66589426
0.66593138
0.6659834
0.66598673
0.66600369
0.66605783
0.66611898
0.66619124
0.66626983
0.66634689
0.6664462
0.66657467
0.6667073
0.66684528
0.66703656
0.66730563
0.66758234
0.66781482
0.66813078
0.66864163
0.66923294
0.6699762
0.67072878
0.67156009
0.67275928
0.67432425
0.6762043
0.67766115
0.68046529
0.6659664
0.6658494
0.66579296
0.66579048
0.66580353
0.66580525
0.66580399
0.66581209
0.66580876
0.6657999
0.66580017
0.66581752
0.66581977
0.66581116
0.66581282
0.66582185
0.66583824
0.66584745
0.66585589
0.66585834
0.66586255
0.66590068
0.66593758
0.66592402
0.66594425
0.665993
0.66604992
0.6661154
0.66617905
0.66624517
0.66633844
0.66645604
0.66657096
0.6666963
0.66687984
0.66713523
0.66735397
0.66755195
0.66789615
0.66839231
0.66898804
0.66961839
0.67034024
0.6711892
0.67224037
0.67348928
0.67505851
0.67670482
0.67814777
0.66594734
0.66584401
0.6657884
0.66578994
0.66580759
0.66579854
0.6657967
0.66580126
0.66579652
0.66579059
0.6657962
0.66580926
0.66580383
0.66579478
0.66579203
0.66580711
0.66582148
0.66582131
0.66582394
0.66582488
0.66583091
0.66586768
0.66588524
0.66586478
0.66588552
0.66592968
0.66598357
0.66603785
0.66608727
0.66614356
0.66623077
0.66633253
0.66642791
0.66654133
0.66672013
0.6669471
0.66711148
0.66729998
0.66767138
0.66813243
0.66865922
0.66927592
0.66989348
0.67062677
0.67168085
0.67287742
0.67386303
0.67508324
0.67569363
0.66593011
0.66584199
0.66578928
0.66579697
0.66581143
0.66579912
0.66579614
0.66579628
0.66579134
0.66578524
0.66579434
0.66579651
0.66578375
0.66577336
0.66577562
0.66578866
0.66579506
0.66578887
0.66578885
0.66578758
0.66579418
0.6658232
0.66582433
0.66580753
0.66582874
0.66587003
0.66591647
0.6659563
0.66598971
0.66603802
0.66611971
0.66620431
0.66628128
0.66638315
0.66655767
0.66674099
0.66685531
0.66707051
0.66744811
0.66787497
0.66833775
0.66886259
0.6694316
0.67010295
0.6708506
0.67186975
0.67312891
0.67352949
0.67274518
0.6659227
0.66584062
0.6657858
0.6658022
0.66580961
0.66579717
0.66579466
0.66579179
0.66578652
0.6657847
0.66578927
0.66578174
0.66576835
0.66575456
0.66575468
0.66577119
0.66577163
0.66576187
0.66575977
0.66575299
0.66576064
0.66577899
0.66576657
0.66574805
0.66577337
0.66581297
0.66584647
0.66587468
0.66589064
0.66593152
0.6660044
0.66607125
0.66613285
0.66622703
0.6663844
0.66651775
0.66661533
0.66684419
0.66721404
0.66757512
0.66801331
0.66851024
0.66895276
0.66953905
0.67018253
0.67075
0.67150221
0.67191192
0.6698376
0.66591586
0.66584005
0.66578863
0.66580652
0.66580592
0.66579319
0.66579093
0.66578988
0.66577963
0.66577683
0.66577999
0.66576626
0.6657528
0.66574313
0.66574731
0.66575714
0.66575044
0.66573541
0.66572937
0.66573153
0.66573899
0.66574106
0.66571779
0.66569413
0.66572005
0.6657543
0.6657722
0.66578925
0.66579198
0.6658312
0.66588983
0.66593739
0.66598668
0.66607685
0.66621291
0.6662968
0.66637954
0.66663178
0.66696506
0.66724255
0.66762478
0.66801278
0.66839059
0.66874953
0.66933636
0.66975247
0.67055325
0.67052999
0.6662323
0.6659214
0.66583934
0.66579715
0.66581177
0.66580461
0.66579418
0.66578803
0.66578851
0.66577557
0.66576755
0.66577044
0.66575702
0.66573984
0.66573244
0.66574073
0.66574178
0.66572991
0.66571194
0.66569599
0.66570267
0.66570901
0.66569891
0.66567036
0.66565154
0.6656735
0.66570027
0.66570713
0.6657001
0.6656976
0.66573653
0.66577369
0.66580321
0.6658448
0.66592386
0.66602234
0.66606717
0.66615839
0.66642334
0.66666906
0.66691959
0.66722899
0.66747175
0.66781112
0.66825843
0.66819846
0.6683116
0.66882634
0.66896959
0.66348961
0.66591399
0.6658278
0.66580912
0.66581604
0.66580676
0.66579725
0.66579087
0.66578261
0.66577247
0.66576634
0.66576206
0.66575135
0.66573546
0.66572286
0.66572763
0.66572522
0.6657071
0.66568888
0.66567385
0.66567802
0.66567705
0.66565333
0.66561794
0.66561427
0.66563065
0.66564131
0.66564472
0.66562464
0.66560761
0.66564626
0.66565994
0.66567094
0.66570395
0.6657619
0.66583246
0.66585185
0.66594158
0.6661726
0.66636013
0.6665864
0.66677829
0.6670398
0.66692028
0.66734171
0.66754174
0.66721017
0.66803642
0.66780608
0.65983724
0.66590487
0.66580892
0.66580497
0.66581347
0.6658054
0.66579726
0.66579309
0.66577675
0.66576811
0.66576556
0.66575303
0.66574134
0.6657287
0.66571816
0.66571505
0.66570614
0.66568387
0.66566766
0.66565567
0.66566225
0.66564899
0.66561305
0.66557646
0.66557783
0.66558018
0.66558939
0.66557027
0.66554388
0.66552974
0.66554922
0.66555229
0.66554199
0.66555884
0.6656067
0.66562441
0.66561942
0.66572938
0.6659007
0.6660238
0.66612084
0.66624599
0.66628993
0.66631239
0.66620386
0.66637967
0.66610529
0.66577412
0.6658858
0.65834493
0.66591868
0.66582839
0.66580536
0.66581196
0.6658024
0.6657944
0.66579006
0.66577349
0.66576449
0.66576112
0.66574592
0.66573034
0.66571519
0.66571053
0.6657083
0.66568875
0.6656644
0.66565041
0.66563262
0.66563601
0.66562335
0.66557688
0.66554589
0.66554796
0.66553683
0.6655378
0.66550577
0.66545885
0.66545595
0.66544215
0.66543864
0.66542218
0.66541317
0.66540612
0.66541897
0.66542687
0.66549238
0.66562235
0.66569002
0.66566494
0.6658447
0.66564097
0.66577767
0.665568
0.66515499
0.66472159
0.66312174
0.66438798
0.65604647
0.665912
0.66586464
0.66581312
0.66581336
0.66579877
0.66579312
0.66578555
0.66576912
0.66575886
0.66575621
0.66574313
0.6657215
0.66570379
0.66569479
0.6656979
0.6656717
0.66565001
0.66563778
0.66561504
0.66560863
0.66559015
0.66553952
0.66551996
0.66551392
0.66549751
0.66548546
0.66544769
0.66539106
0.66537832
0.66533711
0.66532117
0.66529071
0.66525839
0.6652363
0.665216
0.66519648
0.66524564
0.66532499
0.66526659
0.66521831
0.66518185
0.66514081
0.66452432
0.66471572
0.6648817
0.66438363
0.66189764
0.66238722
0.65478054
0.66879492
0.6687639
0.66958953
0.66867277
0.66865946
0.66833161
0.66801308
0.66772916
0.66744602
0.66717595
0.66692043
0.66665333
0.66657192
0.6663871
0.66618009
0.6660603
0.66599075
0.66591828
0.66583765
0.66579994
0.66574073
0.66569719
0.66568125
0.66566382
0.66565861
0.66565438
0.66564851
0.66564994
0.66565642
0.66566316
0.66566714
0.66567702
0.66569169
0.66570049
0.66570974
0.66571874
0.66573491
0.66574167
0.66574676
0.66574755
0.66575248
0.6657629
0.6657692
0.66577925
0.66578073
0.66579124
0.66578502
0.66580485
0.66580274
0.66576697
0.66723445
0.66767013
0.66779387
0.66769056
0.66754647
0.66736024
0.66716663
0.66696
0.66677849
0.66659153
0.66648091
0.66627182
0.66609463
0.66604275
0.66597852
0.66588446
0.66577686
0.66570921
0.66566848
0.66563446
0.66559754
0.66559473
0.6655953
0.66560511
0.66561698
0.66562325
0.66562821
0.66563712
0.6656453
0.66565137
0.66566575
0.66568369
0.66569386
0.66570393
0.6657141
0.66573166
0.66573952
0.66574463
0.66574593
0.66575124
0.66576171
0.66576838
0.66577798
0.66578059
0.66578997
0.66578517
0.66580226
0.6658121
0.66474303
0.66597905
0.66656347
0.66660688
0.66661013
0.66660794
0.6665335
0.66646223
0.66636226
0.66627063
0.66616409
0.66601965
0.66593221
0.66590795
0.66578339
0.66568234
0.66560875
0.66558442
0.66557373
0.66554907
0.6655471
0.66555126
0.66554397
0.66554656
0.66557309
0.66558884
0.66559792
0.66560466
0.66561745
0.6656278
0.66563485
0.66565464
0.66567589
0.66568721
0.66569874
0.66570991
0.66572872
0.66573756
0.66574249
0.66574427
0.66575009
0.66576054
0.6657677
0.66577688
0.66578009
0.66578867
0.66578518
0.66580138
0.66582054
0.6628661
0.66490783
0.66510175
0.66560334
0.66560964
0.66577839
0.66579785
0.66581872
0.66577499
0.66573746
0.66568398
0.6656854
0.66560465
0.6655173
0.66547758
0.6654544
0.66546523
0.66547429
0.66546247
0.66546919
0.66548385
0.66548477
0.66547679
0.66548676
0.66552234
0.66554872
0.66556434
0.66558002
0.6656001
0.66561041
0.66561955
0.66564429
0.66566891
0.66568073
0.66569359
0.66570597
0.66572588
0.6657353
0.66574029
0.66574252
0.66574892
0.6657595
0.66576707
0.665776
0.6657793
0.66578738
0.66578521
0.66580129
0.66582406
0.66233594
0.66395287
0.66441481
0.66473338
0.66481663
0.66500089
0.66504997
0.6651457
0.66514206
0.66516717
0.66516579
0.66517287
0.6651977
0.66526258
0.66527016
0.66526655
0.66525549
0.66527991
0.66531925
0.66534468
0.66537232
0.66539459
0.66540307
0.66543324
0.66547968
0.66551089
0.66553436
0.66555718
0.66558147
0.66559303
0.66560486
0.66563311
0.66566035
0.66567398
0.66568846
0.66570236
0.66572301
0.66573274
0.66573797
0.66574078
0.66574774
0.66575852
0.66576607
0.66577509
0.66577866
0.66578593
0.66578509
0.66580123
0.66582445
0.66088766
0.66346918
0.66345351
0.66397281
0.6640175
0.66427049
0.66437916
0.66452126
0.66462609
0.66473213
0.66476708
0.66484628
0.66488084
0.66489582
0.6649556
0.66502162
0.665044
0.66509455
0.66516087
0.66522206
0.66526424
0.6653174
0.66534578
0.66537305
0.66542968
0.6654733
0.66550167
0.66553053
0.66556122
0.66557512
0.6655905
0.66562208
0.66565151
0.66566761
0.66568379
0.66569915
0.66572009
0.66572975
0.66573567
0.66573905
0.66574658
0.66575755
0.66576504
0.66577428
0.66577837
0.66578448
0.66578419
0.66580185
0.66582095
0.66099703
0.66240131
0.66294096
0.66329166
0.66334384
0.66360858
0.66373878
0.66391598
0.66406891
0.66424213
0.66434551
0.66442551
0.66451009
0.66461597
0.66466577
0.66478976
0.66489226
0.66494628
0.66500805
0.6650948
0.66515989
0.66522174
0.66527838
0.66531349
0.66537188
0.66542969
0.66547093
0.66550547
0.66554044
0.66555745
0.66557722
0.66561186
0.66564244
0.66566123
0.66567911
0.66569595
0.66571724
0.66572668
0.66573337
0.66573719
0.66574552
0.6657568
0.66576447
0.6657733
0.66577788
0.66578304
0.66578235
0.66580303
0.66580934
0.65966524
0.66223017
0.66218772
0.66287625
0.66279664
0.66316931
0.66323905
0.66343878
0.66351697
0.66370198
0.6638862
0.6640951
0.66422983
0.66435102
0.66439455
0.66450532
0.66466807
0.66480451
0.66487746
0.66495904
0.66504888
0.66512976
0.66520721
0.66525943
0.66531937
0.66538484
0.66544051
0.66548082
0.66551954
0.66553962
0.66556336
0.66560139
0.66563376
0.66565501
0.66567456
0.66569279
0.66571444
0.66572366
0.66573104
0.66573538
0.66574452
0.66575623
0.66576345
0.6657721
0.66577726
0.66578202
0.66578061
0.66580199
0.66579794
0.65984383
0.6612526
0.66165872
0.66232067
0.66217558
0.66264089
0.66265262
0.66299863
0.66305367
0.66323334
0.66342488
0.66366434
0.66383538
0.66410055
0.66427424
0.66432629
0.66441507
0.66462629
0.66477471
0.66484996
0.66495162
0.66505136
0.66513356
0.66520325
0.66527416
0.66534245
0.66540868
0.66545674
0.66549934
0.66552262
0.66555137
0.66559197
0.66562602
0.66564918
0.66566995
0.66568954
0.66571149
0.6657208
0.66572882
0.66573413
0.66574357
0.66575539
0.66576212
0.66577136
0.66577649
0.66578097
0.66577904
0.66579777
0.66579079
0.65840107
0.66139086
0.66084387
0.66176099
0.66147885
0.66199674
0.66209237
0.66251022
0.66279316
0.66310934
0.66320051
0.66340476
0.66354201
0.66374602
0.66403387
0.66427546
0.66426771
0.66438616
0.66462163
0.66476123
0.66485526
0.66497506
0.66507003
0.66514054
0.66523029
0.66530845
0.66537995
0.66543447
0.66547941
0.66550579
0.66554001
0.66558411
0.66561841
0.66564332
0.66566537
0.66568639
0.66570848
0.66571805
0.665727
0.66573331
0.66574275
0.66575428
0.66576122
0.66577097
0.66577501
0.66577975
0.66577776
0.6657927
0.66579416
0.65924424
0.65948381
0.66038523
0.6614361
0.66117135
0.66158969
0.66166076
0.66195071
0.66225629
0.66272459
0.66292539
0.66319874
0.66337232
0.66351918
0.66365947
0.66403493
0.66425622
0.66425403
0.66441729
0.66463574
0.66476719
0.66489466
0.6650165
0.66508725
0.6651824
0.665278
0.6653537
0.66541264
0.6654593
0.66548811
0.66552849
0.66557796
0.66561099
0.66563726
0.66566082
0.66568336
0.66570572
0.66571517
0.66572546
0.66573209
0.66574222
0.665753
0.66576038
0.66577005
0.66577342
0.66577888
0.66577703
0.66578871
0.66580417
0.65627054
0.66153862
0.65935018
0.66073632
0.66077557
0.66126888
0.66138107
0.66167014
0.66169652
0.66211429
0.66243393
0.66285793
0.66317191
0.66348937
0.66349216
0.66365584
0.66404864
0.6642834
0.66430241
0.6644808
0.66467474
0.66481589
0.66495832
0.665049
0.66513894
0.66524531
0.66532962
0.66539083
0.66544005
0.66547291
0.66551675
0.66557123
0.66560388
0.66563104
0.6656563
0.6656803
0.66570294
0.66571226
0.66572384
0.66573067
0.66574104
0.66575141
0.66575927
0.665769
0.66577296
0.66577818
0.66577611
0.66578582
0.66580861
0.65723723
0.65968358
0.66003211
0.65957319
0.65994456
0.66074029
0.66101072
0.66168363
0.66159879
0.66180958
0.66201326
0.662469
0.66274551
0.66321856
0.66351648
0.66354309
0.66373462
0.66410945
0.66434554
0.66440907
0.66457866
0.66474724
0.66489804
0.66501111
0.6651088
0.66521384
0.66530481
0.66536714
0.66542023
0.66546109
0.66550697
0.6655626
0.66559671
0.66562554
0.66565234
0.66567727
0.66569977
0.66570976
0.66572224
0.66572915
0.66573946
0.66575
0.66575812
0.66576809
0.66577229
0.66577686
0.66577439
0.66578437
0.66580906
0.65686995
0.65872977
0.65889412
0.66023144
0.65972372
0.66028076
0.66032264
0.66097203
0.66143325
0.66197029
0.66192453
0.66225287
0.66246851
0.66277913
0.6632496
0.66361527
0.66363457
0.66386761
0.66418012
0.66442278
0.664529
0.66468825
0.664843
0.66496924
0.66508394
0.66518846
0.66527977
0.66534343
0.66539919
0.66545106
0.66550128
0.66555382
0.66558843
0.66562108
0.66564926
0.66567439
0.66569643
0.66570826
0.66572056
0.66572789
0.6657388
0.66574883
0.66575701
0.66576691
0.66577083
0.66577538
0.66577297
0.66578382
0.66580787
0.65593004
0.65940986
0.65815296
0.65987195
0.65973661
0.66022924
0.65999128
0.66038093
0.66072706
0.66146729
0.66184591
0.6622169
0.66237673
0.66258246
0.66288016
0.66337955
0.66368356
0.66379521
0.6640321
0.66429711
0.66449521
0.66464712
0.6648022
0.66493114
0.66505417
0.66516655
0.66525712
0.66532377
0.6653803
0.66544001
0.66549713
0.6655469
0.66558005
0.66561651
0.66564672
0.66567178
0.66569363
0.66570639
0.66571879
0.66572743
0.66573784
0.66574728
0.6657557
0.6657657
0.66576931
0.66577479
0.66577225
0.66578307
0.66580717
0.65516295
0.65849095
0.6583928
0.658835
0.65903562
0.66001391
0.65999291
0.66045508
0.6604251
0.66091845
0.66132681
0.66190674
0.66229212
0.66261996
0.66271695
0.66316338
0.6635417
0.66381131
0.66399739
0.66420722
0.66442078
0.66460481
0.66477211
0.66490753
0.66502837
0.66514119
0.66523564
0.66530922
0.66536829