/*--------------------------------*- C++ -*----------------------------------*\
| =========                 |                                                 |
| \\      /  F ield         | OpenFOAM: The Open Source CFD Toolbox           |
|  \\    /   O peration     | Version:  2506                                  |
|   \\  /    A nd           | Website:  www.openfoam.com                      |
|    \\/     M anipulation  |                                                 |
\*---------------------------------------------------------------------------*/
FoamFile
{
    version     2.0;
    format      ascii;
    arch        "LSB;label=32;scalar=64";
    class       volScalarField;
    location    "0.00052";
    object      Cx;
}
// * * * * * * * * * * * * * * * * * * * * * * * * * * * * * * * * * * * * * //

dimensions      [0 1 0 0 0 0 0];

internalField   nonuniform List<scalar> 
3421
(
0.34696315
0.34695484
0.34694583
0.34693606
0.34692545
0.34691395
0.34690146
0.34688792
0.35047528
0.35046827
0.35046067
0.35045241
0.35044346
0.35043374
0.3504232
0.35041177
0.35039936
0.3503859
0.35037129
0.3539987
0.35399228
0.35398532
0.35397776
0.35396955
0.35396066
0.353951
0.35394053
0.35392916
0.35391683
0.35390345
0.35388893
0.35387318
0.35754102
0.35753514
0.35752876
0.35752184
0.35751433
0.35750618
0.35749733
0.35748774
0.35747733
0.35746603
0.35745378
0.35744048
0.35742605
0.3574104
0.35739341
0.3611022
0.36109681
0.36109097
0.36108463
0.36107775
0.36107028
0.36106218
0.3610534
0.36104386
0.36103352
0.36102229
0.36101011
0.3609969
0.36098256
0.360967
0.36095012
0.36468217
0.36467724
0.36467189
0.36466608
0.36465978
0.36465294
0.36464552
0.36463747
0.36462874
0.36461926
0.36460898
0.36459783
0.36458573
0.3645726
0.36455835
0.36454289
0.36452612
0.36828087
0.36827635
0.36827145
0.36826613
0.36826036
0.3682541
0.3682473
0.36823993
0.36823193
0.36822325
0.36821384
0.36820362
0.36819254
0.36818051
0.36816746
0.36815331
0.36813794
0.36812128
0.37189822
0.37189408
0.37188959
0.37188472
0.37187943
0.3718737
0.37186748
0.37186073
0.3718534
0.37184545
0.37183683
0.37182747
0.37181732
0.37180631
0.37179436
0.37178139
0.37176732
0.37175206
0.37173549
0.37553414
0.37553035
0.37552624
0.37552178
0.37551694
0.37551168
0.37550599
0.3754998
0.37549309
0.37548582
0.37547792
0.37546935
0.37546005
0.37544996
0.37543902
0.37542715
0.37541426
0.37540028
0.37538511
0.37536866
0.37918855
0.37918508
0.37918132
0.37917723
0.3791728
0.37916799
0.37916277
0.37915711
0.37915096
0.3791443
0.37913707
0.37912922
0.3791207
0.37911147
0.37910144
0.37909057
0.37907877
0.37906597
0.37905208
0.37903701
0.37902065
0.38286138
0.3828582
0.38285475
0.38285101
0.38284695
0.38284254
0.38283777
0.38283258
0.38282695
0.38282085
0.38281423
0.38280704
0.38279924
0.38279078
0.3827816
0.38277165
0.38276084
0.38274912
0.3827364
0.3827226
0.38270762
0.38269137
0.38655253
0.38654961
0.38654646
0.38654303
0.38653931
0.38653528
0.3865309
0.38652615
0.386521
0.38651541
0.38650935
0.38650277
0.38649563
0.38648788
0.38647948
0.38647036
0.38646046
0.38644973
0.38643808
0.38642544
0.38641173
0.38639685
0.3863807
0.39026191
0.39025925
0.39025636
0.39025322
0.39024981
0.39024612
0.39024211
0.39023776
0.39023305
0.39022793
0.39022237
0.39021635
0.39020981
0.39020272
0.39019502
0.39018667
0.39017761
0.39016778
0.39015711
0.39014554
0.39013298
0.39011936
0.39010457
0.39008854
0.39398945
0.39398701
0.39398436
0.39398149
0.39397837
0.39397499
0.39397132
0.39396734
0.39396302
0.39395833
0.39395325
0.39394773
0.39394174
0.39393525
0.3939282
0.39392055
0.39391225
0.39390325
0.39389348
0.39388289
0.39387139
0.39385891
0.39384538
0.39383069
0.39381476
0.39773504
0.39773281
0.39773039
0.39772776
0.3977249
0.3977218
0.39771844
0.3977148
0.39771084
0.39770655
0.3977019
0.39769684
0.39769136
0.39768541
0.39767896
0.39767196
0.39766436
0.39765612
0.39764717
0.39763747
0.39762694
0.39761552
0.39760313
0.39758968
0.39757509
0.39755926
0.40149861
0.40149656
0.40149434
0.40149193
0.40148932
0.40148649
0.40148341
0.40148007
0.40147645
0.40147252
0.40146826
0.40146363
0.40145861
0.40145317
0.40144726
0.40144085
0.40143389
0.40142634
0.40141815
0.40140927
0.40139963
0.40138917
0.40137782
0.40136551
0.40135215
0.40133765
0.40132193
0.40528005
0.40527817
0.40527614
0.40527394
0.40527154
0.40526895
0.40526613
0.40526308
0.40525976
0.40525616
0.40525226
0.40524802
0.40524343
0.40523844
0.40523303
0.40522716
0.40522079
0.40521388
0.40520638
0.40519825
0.40518942
0.40517985
0.40516946
0.40515818
0.40514595
0.40513268
0.40511828
0.40510266
0.40907926
0.40907755
0.40907569
0.40907367
0.40907148
0.4090691
0.40906653
0.40906373
0.40906069
0.4090574
0.40905382
0.40904994
0.40904574
0.40904117
0.40903622
0.40903084
0.40902501
0.40901869
0.40901182
0.40900437
0.40899629
0.40898753
0.40897801
0.40896769
0.40895649
0.40894434
0.40893116
0.40891685
0.40890133
0.41289617
0.4128946
0.41289289
0.41289104
0.41288904
0.41288686
0.4128845
0.41288194
0.41287916
0.41287615
0.41287287
0.41286932
0.41286547
0.41286129
0.41285676
0.41285184
0.4128465
0.41284071
0.41283442
0.4128276
0.4128202
0.41281218
0.41280347
0.41279402
0.41278376
0.41277264
0.41276057
0.41274747
0.41273326
0.41271785
0.41673064
0.41672921
0.41672765
0.41672595
0.41672412
0.41672213
0.41671997
0.41671762
0.41671508
0.41671232
0.41670932
0.41670607
0.41670254
0.41669872
0.41669456
0.41669006
0.41668517
0.41667987
0.41667412
0.41666787
0.4166611
0.41665375
0.41664578
0.41663713
0.41662774
0.41661756
0.41660651
0.41659452
0.41658151
0.41656739
0.41655208
0.42058259
0.42058127
0.42057984
0.42057829
0.42057661
0.42057479
0.42057281
0.42057066
0.42056833
0.42056581
0.42056306
0.42056009
0.42055686
0.42055336
0.42054956
0.42054543
0.42054096
0.4205361
0.42053083
0.42052512
0.42051892
0.42051219
0.42050489
0.42049697
0.42048838
0.42047905
0.42046894
0.42045796
0.42044605
0.42043313
0.42041911
0.4204039
0.42445187
0.42445067
0.42444936
0.42444794
0.4244464
0.42444473
0.42444292
0.42444096
0.42443883
0.42443651
0.424434
0.42443128
0.42442832
0.42442512
0.42442164
0.42441786
0.42441377
0.42440932
0.4244045
0.42439927
0.42439359
0.42438743
0.42438075
0.4243735
0.42436563
0.4243571
0.42434784
0.42433779
0.42432689
0.42431506
0.42430222
0.4242883
0.42427319
0.42833941
0.4283384
0.42833729
0.4283361
0.4283348
0.42833339
0.42833186
0.4283302
0.4283284
0.42832645
0.42832433
0.42832204
0.42831954
0.42831684
0.4283139
0.42831072
0.42830726
0.42830351
0.42829944
0.42829503
0.42829024
0.42828504
0.4282794
0.42827329
0.42826665
0.42825945
0.42825164
0.42824316
0.42823396
0.42822398
0.42821315
0.4282014
0.42818866
0.42817483
0.42815982
0.43224382
0.43224296
0.43224203
0.43224102
0.43223993
0.43223874
0.43223745
0.43223605
0.43223453
0.43223288
0.4322311
0.43222916
0.43222706
0.43222477
0.4322223
0.43221961
0.43221669
0.43221353
0.4322101
0.43220638
0.43220233
0.43219795
0.43219319
0.43218803
0.43218243
0.43217636
0.43216977
0.43216261
0.43215485
0.43214643
0.4321373
0.43212739
0.43211663
0.43210497
0.4320923
0.43207857
0.43206366
0.43616431
0.43616352
0.43616267
0.43616175
0.43616074
0.43615965
0.43615847
0.43615719
0.4361558
0.4361543
0.43615266
0.43615089
0.43614896
0.43614687
0.43614461
0.43614215
0.43613948
0.43613658
0.43613344
0.43613003
0.43612633
0.43612232
0.43611797
0.43611324
0.43610812
0.43610256
0.43609652
0.43608997
0.43608287
0.43607516
0.4360668
0.43605773
0.43604789
0.43603721
0.43602562
0.43601304
0.4359994
0.4359846
0.44010235
0.44010169
0.44010097
0.44010019
0.44009935
0.44009843
0.44009743
0.44009635
0.44009518
0.44009391
0.44009253
0.44009103
0.4400894
0.44008764
0.44008573
0.44008366
0.4400814
0.44007896
0.44007631
0.44007344
0.44007032
0.44006693
0.44006326
0.44005927
0.44005495
0.44005026
0.44004517
0.44003964
0.44003365
0.44002715
0.4400201
0.44001244
0.44000414
0.43999513
0.43998535
0.43997474
0.43996324
0.43995075
0.4399372
0.4399225
0.44405585
0.44405519
0.44405448
0.4440537
0.44405287
0.44405195
0.44405096
0.44404989
0.44404873
0.44404746
0.44404609
0.44404461
0.44404299
0.44404124
0.44403934
0.44403728
0.44403505
0.44403262
0.44402999
0.44402713
0.44402404
0.44402067
0.44401703
0.44401307
0.44400877
0.44400412
0.44399906
0.44399358
0.44398763
0.44398117
0.44397416
0.44396656
0.44395831
0.44394937
0.44393966
0.44392913
0.4439177
0.4439053
0.44389184
0.44387724
0.44802607
0.44802542
0.44802471
0.44802394
0.44802311
0.4480222
0.44802122
0.44802015
0.44801899
0.44801774
0.44801638
0.4480149
0.4480133
0.44801156
0.44800968
0.44800763
0.44800541
0.448003
0.44800039
0.44799755
0.44799448
0.44799114
0.44798752
0.44798359
0.44797932
0.4479747
0.44796968
0.44796423
0.44795832
0.44795191
0.44794495
0.4479374
0.44792921
0.44792033
0.44791069
0.44790023
0.44788888
0.44787656
0.4478632
0.4478487
0.45201289
0.45201224
0.45201153
0.45201077
0.45200994
0.45200904
0.45200807
0.45200701
0.45200586
0.45200462
0.45200326
0.4520018
0.45200021
0.45199848
0.45199661
0.45199458
0.45199237
0.45198998
0.45198739
0.45198457
0.45198151
0.4519782
0.4519746
0.4519707
0.45196647
0.45196187
0.45195689
0.45195148
0.45194561
0.45193924
0.45193234
0.45192484
0.45191671
0.45190788
0.45189831
0.45188792
0.45187665
0.45186442
0.45185116
0.45183676
0.45601618
0.45601553
0.45601483
0.45601408
0.45601326
0.45601236
0.45601139
0.45601034
0.4560092
0.45600796
0.45600662
0.45600517
0.45600359
0.45600187
0.45600001
0.455998
0.45599581
0.45599343
0.45599086
0.45598806
0.45598503
0.45598173
0.45597816
0.45597429
0.45597008
0.45596552
0.45596057
0.4559552
0.45594937
0.45594305
0.45593619
0.45592875
0.45592067
0.45591191
0.45590241
0.45589209
0.4558809
0.45586876
0.45585558
0.45584129
0.46003582
0.46003518
0.46003449
0.46003373
0.46003292
0.46003203
0.46003107
0.46003003
0.46002889
0.46002767
0.46002633
0.46002489
0.46002332
0.46002162
0.46001977
0.46001777
0.4600156
0.46001324
0.46001068
0.4600079
0.46000489
0.46000162
0.45999807
0.45999423
0.45999005
0.45998552
0.45998061
0.45997528
0.45996949
0.45996321
0.4599564
0.45994901
0.45994099
0.45993229
0.45992285
0.45991261
0.4599015
0.45988944
0.45987636
0.45986217
0.46407169
0.46407106
0.46407037
0.46406962
0.46406881
0.46406793
0.46406697
0.46406594
0.46406481
0.46406359
0.46406227
0.46406084
0.46405928
0.46405759
0.46405576
0.46405377
0.46405161
0.46404927
0.46404673
0.46404397
0.46404098
0.46403773
0.46403421
0.46403039
0.46402625
0.46402175
0.46401687
0.46401158
0.46400583
0.4639996
0.46399284
0.4639855
0.46397754
0.4639689
0.46395953
0.46394936
0.46393833
0.46392636
0.46391337
0.46389927
0.46812366
0.46812303
0.46812235
0.4681216
0.4681208
0.46811993
0.46811898
0.46811795
0.46811683
0.46811562
0.46811431
0.46811288
0.46811134
0.46810966
0.46810784
0.46810587
0.46810372
0.4681014
0.46809888
0.46809614
0.46809317
0.46808995
0.46808645
0.46808266
0.46807854
0.46807408
0.46806923
0.46806398
0.46805827
0.46805208
0.46804537
0.46803808
0.46803018
0.4680216
0.4680123
0.4680022
0.46799125
0.46797936
0.46796647
0.46795248
0.47219159
0.47219097
0.47219029
0.47218955
0.47218875
0.47218789
0.47218694
0.47218592
0.47218481
0.47218361
0.47218231
0.47218089
0.47217936
0.47217769
0.47217589
0.47217393
0.4721718
0.47216949
0.47216699
0.47216427
0.47216132
0.47215812
0.47215465
0.47215088
0.4721468
0.47214237
0.47213755
0.47213234
0.47212667
0.47212053
0.47211386
0.47210663
0.47209878
0.47209027
0.47208103
0.47207101
0.47206013
0.47204833
0.47203553
0.47202164
0.47627535
0.47627473
0.47627406
0.47627332
0.47627253
0.47627167
0.47627074
0.47626972
0.47626862
0.47626743
0.47626613
0.47626473
0.4762632
0.47626155
0.47625976
0.47625781
0.4762557
0.47625341
0.47625092
0.47624822
0.4762453
0.47624212
0.47623868
0.47623494
0.47623088
0.47622648
0.4762217
0.47621652
0.4762109
0.4762048
0.47619818
0.476191
0.47618321
0.47617476
0.47616559
0.47615564
0.47614484
0.47613313
0.47612041
0.47610662
0.4803748
0.48037418
0.48037351
0.48037279
0.480372
0.48037114
0.48037022
0.48036921
0.48036812
0.48036693
0.48036565
0.48036425
0.48036274
0.4803611
0.48035932
0.48035739
0.48035529
0.48035301
0.48035055
0.48034787
0.48034496
0.48034181
0.48033839
0.48033468
0.48033065
0.48032628
0.48032154
0.4803164
0.48031082
0.48030476
0.48029819
0.48029106
0.48028333
0.48027494
0.48026583
0.48025595
0.48024524
0.48023361
0.48022099
0.4802073
0.4844898
0.48448919
0.48448852
0.4844878
0.48448702
0.48448617
0.48448525
0.48448425
0.48448317
0.48448199
0.48448071
0.48447933
0.48447783
0.4844762
0.48447443
0.48447251
0.48447043
0.48446817
0.48446572
0.48446306
0.48446018
0.48445705
0.48445365
0.48444997
0.48444597
0.48444164
0.48443693
0.48443182
0.48442628
0.48442027
0.48441375
0.48440667
0.484399
0.48439067
0.48438163
0.48437182
0.48436118
0.48434964
0.48433711
0.48432352
0.48430878
0.48862022
0.48861961
0.48861895
0.48861823
0.48861746
0.48861661
0.4886157
0.48861471
0.48861363
0.48861246
0.4886112
0.48860982
0.48860833
0.48860672
0.48860496
0.48860306
0.48860099
0.48859875
0.48859632
0.48859368
0.48859082
0.48858771
0.48858434
0.48858068
0.48857671
0.48857241
0.48856774
0.48856267
0.48855717
0.4885512
0.48854473
0.4885377
0.48853008
0.48852181
0.48851284
0.48850311
0.48849255
0.48848109
0.48846865
0.48845516
0.48844052
0.49276592
0.49276531
0.49276466
0.49276395
0.49276318
0.49276234
0.49276143
0.49276045
0.49275938
0.49275822
0.49275697
0.4927556
0.49275412
0.49275252
0.49275077
0.49274888
0.49274683
0.49274461
0.4927422
0.49273958
0.49273673
0.49273365
0.4927303
0.49272667
0.49272273
0.49271846
0.49271382
0.49270879
0.49270334
0.49269741
0.49269099
0.49268401
0.49267645
0.49266824
0.49265934
0.49264967
0.49263919
0.49262782
0.49261547
0.49260208
0.49258755
0.49692677
0.49692617
0.49692552
0.49692481
0.49692405
0.49692322
0.49692232
0.49692134
0.49692028
0.49691913
0.49691788
0.49691653
0.49691506
0.49691347
0.49691174
0.49690986
0.49690783
0.49690562
0.49690322
0.49690062
0.4968978
0.49689474
0.49689142
0.49688782
0.49688391
0.49687966
0.49687506
0.49687007
0.49686465
0.49685877
0.49685239
0.49684547
0.49683796
0.49682982
0.49682098
0.49681139
0.49680098
0.49678969
0.49677744
0.49676415
0.49674973
0.50110263
0.50110203
0.50110139
0.50110069
0.50109993
0.50109911
0.50109821
0.50109724
0.50109619
0.50109505
0.50109381
0.50109247
0.50109101
0.50108943
0.50108771
0.50108585
0.50108383
0.50108164
0.50107926
0.50107668
0.50107388
0.50107084
0.50106755
0.50106397
0.50106009
0.50105588
0.50105131
0.50104636
0.50104098
0.50103514
0.50102881
0.50102194
0.50101449
0.50100641
0.50099763
0.50098811
0.50097779
0.50096658
0.50095442
0.50094123
0.50092692
0.50529337
0.50529278
0.50529214
0.50529145
0.5052907
0.50528988
0.50528899
0.50528803
0.50528698
0.50528585
0.50528462
0.50528329
0.50528184
0.50528027
0.50527857
0.50527672
0.50527472
0.50527254
0.50527018
0.50526762
0.50526484
0.50526183
0.50525856
0.50525501
0.50525115
0.50524698
0.50524244
0.50523752
0.50523219
0.5052264
0.50522011
0.5052133
0.5052059
0.50519788
0.50518917
0.50517972
0.50516947
0.50515835
0.50514628
0.50513319
0.50511898
0.50949887
0.50949828
0.50949765
0.50949696
0.50949621
0.5094954
0.50949452
0.50949356
0.50949253
0.5094914
0.50949018
0.50948886
0.50948742
0.50948586
0.50948417
0.50948234
0.50948035
0.50947819
0.50947585
0.50947331
0.50947055
0.50946756
0.50946431
0.50946079
0.50945697
0.50945282
0.50944832
0.50944344
0.50943814
0.5094324
0.50942616
0.5094194
0.50941206
0.50940409
0.50939545
0.50938607
0.5093759
0.50936486
0.50935289
0.5093399
0.5093258
0.51371898
0.51371839
0.51371776
0.51371708
0.51371634
0.51371553
0.51371466
0.51371371
0.51371268
0.51371157
0.51371036
0.51370904
0.51370762
0.51370607
0.51370439
0.51370257
0.5137006
0.51369846
0.51369613
0.51369361
0.51369087
0.5136879
0.51368468
0.51368119
0.51367739
0.51367328
0.51366881
0.51366397
0.51365871
0.51365301
0.51364682
0.51364011
0.51363282
0.51362492
0.51361635
0.51360704
0.51359695
0.51358599
0.51357411
0.51356121
0.51354722
0.51795356
0.51795299
0.51795236
0.51795168
0.51795095
0.51795015
0.51794928
0.51794834
0.51794732
0.51794621
0.51794501
0.51794371
0.51794229
0.51794076
0.5179391
0.51793729
0.51793533
0.5179332
0.5179309
0.51792839
0.51792568
0.51792273
0.51791954
0.51791607
0.5179123
0.51790822
0.51790379
0.51789898
0.51789376
0.51788811
0.51788196
0.5178753
0.51786807
0.51786023
0.51785172
0.51784249
0.51783247
0.5178216
0.51780981
0.51779701
0.51778313
0.52220249
0.52220192
0.5222013
0.52220063
0.5221999
0.52219911
0.52219825
0.52219731
0.5221963
0.5221952
0.52219401
0.52219271
0.52219131
0.52218979
0.52218814
0.52218635
0.5221844
0.52218229
0.52218
0.52217752
0.52217482
0.5221719
0.52216873
0.52216529
0.52216155
0.5221575
0.5221531
0.52214833
0.52214316
0.52213754
0.52213145
0.52212484
0.52211766
0.52210988
0.52210144
0.52209228
0.52208234
0.52207155
0.52205985
0.52204715
0.52203337
0.52646562
0.52646505
0.52646444
0.52646377
0.52646304
0.52646226
0.5264614
0.52646048
0.52645947
0.52645838
0.5264572
0.52645592
0.52645452
0.52645301
0.52645137
0.5264496
0.52644767
0.52644557
0.5264433
0.52644084
0.52643816
0.52643526
0.52643212
0.5264287
0.52642499
0.52642097
0.52641661
0.52641188
0.52640674
0.52640117
0.52639512
0.52638856
0.52638145
0.52637372
0.52636535
0.52635626
0.52634639
0.52633569
0.52632408
0.52631148
0.52629781
0.53074279
0.53074223
0.53074162
0.53074096
0.53074024
0.53073946
0.53073861
0.53073769
0.53073669
0.53073561
0.53073444
0.53073316
0.53073178
0.53073028
0.53072866
0.53072689
0.53072498
0.5307229
0.53072065
0.5307182
0.53071555
0.53071267
0.53070955
0.53070616
0.53070248
0.53069849
0.53069417
0.53068947
0.53068437
0.53067885
0.53067285
0.53066634
0.53065928
0.53065162
0.5306433
0.53063428
0.5306245
0.53061388
0.53060236
0.53058986
0.53057629
0.53503387
0.53503331
0.5350327
0.53503205
0.53503133
0.53503056
0.53502972
0.53502881
0.53502782
0.53502674
0.53502558
0.53502432
0.53502295
0.53502146
0.53501985
0.5350181
0.5350162
0.53501414
0.5350119
0.53500947
0.53500684
0.53500399
0.53500089
0.53499752
0.53499388
0.53498992
0.53498562
0.53498096
0.53497591
0.53497042
0.53496447
0.53495802
0.53495101
0.53494341
0.53493516
0.53492621
0.5349165
0.53490597
0.53489454
0.53488213
0.53486868
0.5393387
0.53933815
0.53933755
0.5393369
0.53933619
0.53933542
0.53933459
0.53933368
0.5393327
0.53933163
0.53933048
0.53932923
0.53932787
0.53932639
0.53932479
0.53932305
0.53932117
0.53931913
0.53931691
0.5393145
0.53931189
0.53930906
0.53930598
0.53930265
0.53929903
0.5392951
0.53929084
0.53928622
0.5392812
0.53927576
0.53926986
0.53926345
0.5392565
0.53924896
0.53924078
0.5392319
0.53922227
0.53921181
0.53920047
0.53918817
0.53917482
0.54365715
0.5436566
0.54365601
0.54365536
0.54365466
0.5436539
0.54365307
0.54365217
0.5436512
0.54365014
0.54364899
0.54364775
0.5436464
0.54364494
0.54364335
0.54364163
0.54363976
0.54363773
0.54363553
0.54363314
0.54363055
0.54362774
0.54362469
0.54362138
0.54361779
0.5436139
0.54360967
0.54360509
0.54360011
0.54359471
0.54358885
0.5435825
0.5435756
0.54356812
0.54356001
0.5435512
0.54354164
0.54353127
0.54352002
0.54350782
0.54349457
0.54798908
0.54798853
0.54798794
0.5479873
0.5479866
0.54798584
0.54798502
0.54798413
0.54798317
0.54798212
0.54798098
0.54797975
0.54797841
0.54797696
0.54797538
0.54797368
0.54797182
0.54796981
0.54796763
0.54796526
0.54796269
0.5479599
0.54795688
0.54795359
0.54795003
0.54794617
0.54794197
0.54793743
0.54793249
0.54792713
0.54792132
0.54791502
0.54790818
0.54790076
0.54789271
0.54788397
0.54787449
0.5478642
0.54785304
0.54784094
0.5478278
0.55233433
0.55233379
0.5523332
0.55233256
0.55233187
0.55233112
0.55233031
0.55232942
0.55232847
0.55232743
0.5523263
0.55232508
0.55232375
0.55232231
0.55232075
0.55231905
0.55231721
0.55231522
0.55231305
0.5523107
0.55230815
0.55230539
0.55230239
0.55229913
0.5522956
0.55229176
0.55228761
0.55228309
0.5522782
0.55227289
0.55226712
0.55226087
0.55225408
0.55224672
0.55223873
0.55223007
0.55222067
0.55221046
0.55219939
0.55218738
0.55217435
0.55669277
0.55669223
0.55669165
0.55669101
0.55669033
0.55668959
0.55668878
0.5566879
0.55668695
0.55668592
0.5566848
0.55668359
0.55668227
0.55668084
0.5566793
0.55667761
0.55667579
0.55667381
0.55667166
0.55666933
0.5566668
0.55666406
0.55666108
0.55665785
0.55665435
0.55665055
0.55664642
0.55664195
0.55663709
0.55663182
0.55662611
0.5566199
0.55661317
0.55660587
0.55659795
0.55658935
0.55658003
0.55656991
0.55655893
0.55654701
0.55653409
0.56106425
0.56106372
0.56106314
0.56106251
0.56106183
0.5610611
0.56106029
0.56105943
0.56105848
0.56105746
0.56105635
0.56105515
0.56105384
0.56105243
0.56105089
0.56104922
0.56104741
0.56104545
0.56104332
0.56104101
0.5610385
0.56103578
0.56103283
0.56102962
0.56102615
0.56102238
0.56101829
0.56101385
0.56100903
0.56100381
0.56099814
0.56099198
0.56098531
0.56097807
0.56097021
0.56096168
0.56095243
0.5609424
0.56093151
0.56091969
0.56090687
0.56544864
0.56544811
0.56544754
0.56544692
0.56544624
0.56544551
0.56544472
0.56544385
0.56544292
0.5654419
0.5654408
0.56543961
0.56543832
0.56543691
0.56543539
0.56543373
0.56543194
0.56542999
0.56542788
0.56542559
0.5654231
0.5654204
0.56541747
0.5654143
0.56541085
0.56540711
0.56540305
0.56539865
0.56539387
0.56538869
0.56538307
0.56537697
0.56537035
0.56536316
0.56535537
0.56534692
0.56533774
0.56532779
0.56531699
0.56530527
0.56529255
0.56984579
0.56984526
0.5698447
0.56984408
0.56984341
0.56984269
0.5698419
0.56984104
0.56984012
0.56983911
0.56983802
0.56983684
0.56983555
0.56983416
0.56983265
0.56983101
0.56982923
0.5698273
0.5698252
0.56982293
0.56982046
0.56981779
0.56981488
0.56981173
0.56980831
0.5698046
0.56980058
0.56979621
0.56979148
0.56978634
0.56978076
0.56977471
0.56976814
0.56976102
0.56975329
0.56974491
0.56973581
0.56972594
0.56971523
0.56970361
0.569691
0.57425556
0.57425504
0.57425447
0.57425387
0.5742532
0.57425248
0.5742517
0.57425085
0.57424993
0.57424894
0.57424785
0.57424668
0.57424541
0.57424403
0.57424253
0.5742409
0.57423914
0.57423722
0.57423514
0.57423289
0.57423044
0.57422779
0.57422491
0.57422179
0.5742184
0.57421472
0.57421073
0.5742064
0.5742017
0.5741966
0.57419107
0.57418507
0.57417856
0.5741715
0.57416384
0.57415552
0.5741465
0.57413671
0.57412609
0.57411456
0.57410206
0.5786778
0.57867728
0.57867672
0.57867612
0.57867546
0.57867475
0.57867397
0.57867313
0.57867222
0.57867123
0.57867016
0.57866899
0.57866773
0.57866636
0.57866488
0.57866326
0.57866151
0.57865961
0.57865755
0.57865532
0.57865289
0.57865026
0.57864741
0.57864431
0.57864095
0.5786373
0.57863334
0.57862905
0.57862439
0.57861934
0.57861386
0.57860791
0.57860145
0.57859445
0.57858685
0.5785786
0.57856965
0.57855995
0.57854942
0.57853799
0.57852559
0.58311235
0.58311183
0.58311128
0.58311068
0.58311003
0.58310932
0.58310855
0.58310772
0.58310682
0.58310584
0.58310477
0.58310362
0.58310237
0.58310101
0.58309953
0.58309793
0.5830962
0.58309432
0.58309227
0.58309006
0.58308765
0.58308504
0.58308221
0.58307914
0.58307581
0.58307219
0.58306827
0.58306401
0.58305939
0.58305438
0.58304894
0.58304305
0.58303664
0.5830297
0.58302216
0.58301399
0.58300512
0.58299549
0.58298505
0.58297372
0.58296143
0.58755905
0.58755854
0.58755799
0.5875574
0.58755675
0.58755605
0.58755529
0.58755446
0.58755357
0.58755259
0.58755154
0.5875504
0.58754915
0.58754781
0.58754635
0.58754476
0.58754304
0.58754117
0.58753915
0.58753695
0.58753457
0.58753198
0.58752917
0.58752613
0.58752282
0.58751924
0.58751535
0.58751113
0.58750655
0.58750158
0.58749619
0.58749034
0.58748399
0.58747711
0.58746964
0.58746153
0.58745274
0.58744319
0.58743284
0.58742161
0.58740942
0.59201775
0.59201725
0.59201671
0.59201612
0.59201548
0.59201478
0.59201403
0.59201321
0.59201232
0.59201135
0.59201031
0.59200917
0.59200794
0.59200661
0.59200516
0.59200359
0.59200188
0.59200003
0.59199802
0.59199585
0.59199348
0.59199092
0.59198813
0.59198512
0.59198184
0.59197828
0.59197443
0.59197024
0.5919657
0.59196078
0.59195543
0.59194963
0.59194334
0.59193652
0.59192911
0.59192107
0.59191235
0.59190289
0.59189263
0.59188149
0.59186941
0.5918563
0.59648831
0.59648781
0.59648727
0.59648669
0.59648605
0.59648536
0.59648461
0.5964838
0.59648292
0.59648197
0.59648093
0.59647981
0.59647858
0.59647726
0.59647583
0.59647427
0.59647258
0.59647074
0.59646875
0.59646659
0.59646425
0.59646171
0.59645895
0.59645595
0.59645271
0.59644918
0.59644536
0.59644121
0.59643671
0.59643183
0.59642653
0.59642078
0.59641454
0.59640778
0.59640043
0.59639247
0.59638382
0.59637444
0.59636427
0.59635323
0.59634125
0.59632825
0.60097057
0.60097007
0.60096954
0.60096896
0.60096833
0.60096765
0.6009669
0.6009661
0.60096523
0.60096428
0.60096325
0.60096214
0.60096093
0.60095961
0.60095819
0.60095665
0.60095497
0.60095315
0.60095118
0.60094904
0.60094671
0.60094419
0.60094146
0.60093849
0.60093527
0.60093178
0.60092799
0.60092388
0.60091942
0.60091458
0.60090932
0.60090363
0.60089744
0.60089073
0.60088346
0.60087556
0.60086699
0.60085769
0.60084761
0.60083666
0.60082479
0.6008119
0.60546437
0.60546388
0.60546335
0.60546278
0.60546216
0.60546148
0.60546074
0.60545994
0.60545908
0.60545814
0.60545712
0.60545602
0.60545482
0.60545352
0.60545211
0.60545058
0.60544891
0.60544711
0.60544516
0.60544303
0.60544073
0.60543823
0.60543552
0.60543258
0.60542939
0.60542593
0.60542217
0.6054181
0.60541367
0.60540888
0.60540367
0.60539802
0.60539189
0.60538524
0.60537803
0.6053702
0.60536171
0.60535249
0.60534249
0.60533164
0.60531987
0.6053071
0.60996958
0.6099691
0.60996857
0.609968
0.60996738
0.60996671
0.60996598
0.60996519
0.60996433
0.6099634
0.60996239
0.6099613
0.60996011
0.60995882
0.60995742
0.6099559
0.60995426
0.60995247
0.60995053
0.60994843
0.60994615
0.60994367
0.60994098
0.60993807
0.60993491
0.60993147
0.60992775
0.60992371
0.60991933
0.60991457
0.60990941
0.60990381
0.60989774
0.60989115
0.609884
0.60987624
0.60986782
0.60985869
0.60984878
0.60983802
0.60982636
0.6098137
0.60979997
0.61448604
0.61448556
0.61448504
0.61448447
0.61448386
0.61448319
0.61448247
0.61448169
0.61448084
0.61447991
0.61447891
0.61447783
0.61447665
0.61447537
0.61447399
0.61447248
0.61447085
0.61446908
0.61446716
0.61446508
0.61446281
0.61446036
0.6144577
0.61445481
0.61445167
0.61444827
0.61444458
0.61444058
0.61443623
0.61443152
0.61442641
0.61442086
0.61441484
0.61440831
0.61440122
0.61439353
0.61438519
0.61437613
0.61436631
0.61435566
0.61434409
0.61433155
0.61431794
0.6190136
0.61901312
0.6190126
0.61901204
0.61901144
0.61901078
0.61901006
0.61900928
0.61900844
0.61900753
0.61900654
0.61900546
0.61900429
0.61900303
0.61900165
0.61900016
0.61899855
0.61899679
0.61899489
0.61899282
0.61899058
0.61898815
0.61898551
0.61898265
0.61897954
0.61897617
0.61897251
0.61896855
0.61896424
0.61895957
0.6189545
0.618949
0.61894304
0.61893656
0.61892954
0.61892192
0.61891365
0.61890468
0.61889495
0.61888439
0.61887293
0.6188605
0.61884701
0.62355211
0.62355164
0.62355112
0.62355057
0.62354997
0.62354931
0.6235486
0.62354784
0.623547
0.62354609
0.62354511
0.62354405
0.62354289
0.62354163
0.62354027
0.6235388
0.62353719
0.62353546
0.62353357
0.62353152
0.6235293
0.62352689
0.62352428
0.62352144
0.62351836
0.62351502
0.6235114
0.62350746
0.6235032
0.62349857
0.62349355
0.6234881
0.62348219
0.62347577
0.62346881
0.62346126
0.62345307
0.62344418
0.62343453
0.62342407
0.62341271
0.62340039
0.62338703
0.62810142
0.62810096
0.62810045
0.6280999
0.6280993
0.62809865
0.62809795
0.62809719
0.62809636
0.62809546
0.62809449
0.62809344
0.62809229
0.62809105
0.6280897
0.62808823
0.62808665
0.62808492
0.62808305
0.62808102
0.62807882
0.62807644
0.62807385
0.62807103
0.62806798
0.62806467
0.62806108
0.62805719
0.62805296
0.62804837
0.6280434
0.628038
0.62803214
0.62802578
0.62801889
0.62801141
0.62800329
0.62799448
0.62798492
0.62797455
0.6279633
0.62795109
0.62793785
0.63266139
0.63266093
0.63266043
0.63265988
0.63265929
0.63265865
0.63265795
0.6326572
0.63265638
0.63265549
0.63265452
0.63265348
0.63265234
0.63265111
0.63264977
0.63264832
0.63264675
0.63264504
0.63264319
0.63264118
0.632639
0.63263663
0.63263407
0.63263128
0.63262826
0.63262498
0.63262142
0.63261756
0.63261338
0.63260883
0.6326039
0.63259855
0.63259275
0.63258645
0.63257962
0.6325722
0.63256416
0.63255543
0.63254596
0.63253569
0.63252454
0.63251245
0.63249932
0.63723185
0.63723139
0.63723089
0.63723035
0.63722977
0.63722913
0.63722844
0.63722769
0.63722688
0.637226
0.63722504
0.63722401
0.63722288
0.63722166
0.63722034
0.6372189
0.63721734
0.63721565
0.63721382
0.63721182
0.63720966
0.63720732
0.63720478
0.63720202
0.63719902
0.63719578
0.63719225
0.63718843
0.63718428
0.63717978
0.63717489
0.63716959
0.63716384
0.6371576
0.63715083
0.63714349
0.63713552
0.63712687
0.63711749
0.63710731
0.63709627
0.63708428
0.63707128
0.64181262
0.64181217
0.64181167
0.64181114
0.64181056
0.64180993
0.64180925
0.64180851
0.6418077
0.64180683
0.64180588
0.64180485
0.64180374
0.64180253
0.64180122
0.6417998
0.64179825
0.64179658
0.64179476
0.64179279
0.64179065
0.64178832
0.6417858
0.64178307
0.64178011
0.64177689
0.6417734
0.64176961
0.6417655
0.64176104
0.6417562
0.64175095
0.64174525
0.64173907
0.64173236
0.64172509
0.64171719
0.64170863
0.64169933
0.64168925
0.64167831
0.64166644
0.64165356
0.64640355
0.6464031
0.64640262
0.64640208
0.64640151
0.64640089
0.64640021
0.64639948
0.64639868
0.64639781
0.64639688
0.64639586
0.64639476
0.64639356
0.64639226
0.64639085
0.64638932
0.64638766
0.64638586
0.64638391
0.64638179
0.64637949
0.64637699
0.64637428
0.64637134
0.64636816
0.6463647
0.64636094
0.64635687
0.64635246
0.64634766
0.64634246
0.64633682
0.6463307
0.64632405
0.64631685
0.64630903
0.64630054
0.64629134
0.64628135
0.64627051
0.64625875
0.64624599
0.65100448
0.65100404
0.65100355
0.65100303
0.65100246
0.65100184
0.65100117
0.65100045
0.65099966
0.6509988
0.65099787
0.65099686
0.65099577
0.65099458
0.6509933
0.6509919
0.65099039
0.65098874
0.65098696
0.65098502
0.65098292
0.65098065
0.65097817
0.65097549
0.65097258
0.65096942
0.650966
0.65096228
0.65095825
0.65095387
0.65094912
0.65094397
0.65093838
0.65093232
0.65092574
0.6509186
0.65091086
0.65090245
0.65089333
0.65088344
0.65087271
0.65086106
0.65084842
0.65561526
0.65561482
0.65561434
0.65561382
0.65561325
0.65561264
0.65561198
0.65561126
0.65561048
0.65560963
0.65560871
0.65560771