/*--------------------------------*- C++ -*----------------------------------*\
| =========                 |                                                 |
| \\      /  F ield         | OpenFOAM: The Open Source CFD Toolbox           |
|  \\    /   O peration     | Version:  2506                                  |
|   \\  /    A nd           | Website:  www.openfoam.com                      |
|    \\/     M anipulation  |                                                 |
\*---------------------------------------------------------------------------*/
FoamFile
{
    version     2.0;
    format      ascii;
    arch        "LSB;label=32;scalar=64";
    class       volScalarField;
    location    "2.997";
    object      nut;
}
// * * * * * * * * * * * * * * * * * * * * * * * * * * * * * * * * * * * * * //

dimensions      [0 2 -1 0 0 0 0];

internalField   nonuniform List<scalar> 
1375
(
0.0070802236
0.025450462
0.035250713
0.044569479
0.026929748
0.033644554
0.0081846609
0.023987494
0.038295326
0.059068243
0.037273065
0.041683056
0.03933996
0.045399415
0.051471555
0.051576854
0.0678335
0.06704067
0.086634908
0.092882743
0.0088633765
0.022776296
0.036167483
0.057958659
0.045569301
0.057286735
0.041942046
0.052572611
0.053135134
0.059451171
0.06855265
0.073362613
0.088648599
0.096382034
0.1158729
0.13369095
0.15882328
0.18915728
0.19239023
0.19203501
0.19178342
0.0091591231
0.021785723
0.034068264
0.0588069
0.043180695
0.067392229
0.045602259
0.058806813
0.055727817
0.066202075
0.07061183
0.079109749
0.090802254
0.10066791
0.11862313
0.13593579
0.1606229
0.19018451
0.19250009
0.19210268
0.19181801
0.1916177
0.19148007
0.1913889
0.19133152
0.19129833
0.0092753235
0.020983917
0.037922586
0.067017163
0.042805026
0.063717696
0.049002388
0.065283808
0.058874778
0.072205483
0.073370835
0.084398483
0.093392184
0.10504386
0.12137462
0.13873062
0.16303979
0.19206144
0.19261347
0.19217436
0.19185674
0.19163151
0.19147525
0.19137044
0.1913031
0.1912626
0.19124115
0.19123326
0.19123507
0.19124411
0.19125881
0.0093277155
0.020337756
0.042012132
0.066828891
0.04686294
0.069898165
0.052972565
0.071646292
0.062503919
0.077898233
0.076553183
0.089456335
0.096316844
0.10931947
0.12422028
0.14187736
0.16579671
0.19328331
0.19272703
0.19224795
0.19189818
0.19164833
0.1914735
0.19135494
0.19127751
0.19122958
0.19120259
0.19119035
0.19118856
0.19119437
0.19120599
0.19122239
0.19124313
0.19126827
0.19129844
0.19133504
0.0093795649
0.019816108
0.046633336
0.066584674
0.05068945
0.075956424
0.056969246
0.077275824
0.066352244
0.083178903
0.080016956
0.094246376
0.099462878
0.11348929
0.12720982
0.1452479
0.16878167
0.19341796
0.1928394
0.19232248
0.19194152
0.19166752
0.19147433
0.19134204
0.19125448
0.19119907
0.19116645
0.19114983
0.19114443
0.19114705
0.19115564
0.19116901
0.19118656
0.19120826
0.19123465
0.191267
0.19130767
0.19136041
0.19143084
0.19152698
0.1916591
0.19183965
0.0093691413
0.019378807
0.049469676
0.066291103
0.054499341
0.081091934
0.06084266
0.081962485
0.070171603
0.08779865
0.083569381
0.098639417
0.10272351
0.11751396
0.1303239
0.14875199
0.17196979
0.19354604
0.19294973
0.1923972
0.19198604
0.19168846
0.19147717
0.19133127
0.1912336
0.1911707
0.19113244
0.19111143
0.19110242
0.19110188
0.1911075
0.19111792
0.19113242
0.19115085
0.19117366
0.19120202
0.19123814
0.19128556
0.19134968
0.1914383
0.19156154
0.19173227
0.19196092
0.19225336
0.19261305
0.19305256
0.19365048
0.19451156
0.19560095
0.0093694593
0.019010454
0.048494415
0.065963714
0.058159768
0.085457997
0.064626362
0.085828985
0.073846605
0.091686586
0.087032104
0.10254231
0.10596057
0.12130138
0.1334616
0.15228027
0.17528689
0.19366681
0.19305664
0.19247105
0.19203089
0.19171047
0.19148156
0.1913223
0.19121467
0.19114434
0.19110047
0.19107509
0.1910625
0.19105884
0.19106157
0.19106913
0.1910807
0.19109603
0.19111545
0.19114006
0.1911719
0.19121437
0.19127256
0.19135408
0.19146885
0.19163007
0.19184903
0.1921329
0.19248566
0.19291645
0.19350109
0.19434587
0.19543681
0.0093603048
0.018692423
0.047552419
0.065610196
0.061559349
0.089145301
0.068289572
0.089018698
0.077372345
0.094936281
0.090351093
0.10596152
0.10910666
0.12480975
0.13657282
0.15577749
0.1786981
0.19378109
0.19316012
0.19254384
0.19207574
0.1917332
0.19148714
0.1913148
0.19119735
0.19111968
0.19107026
0.19104055
0.19102443
0.1910177
0.1910176
0.1910224
0.19103116
0.19104353
0.19105976
0.19108083
0.19110867
0.1911465
0.19119914
0.19127395
0.19138067
0.1915327
0.19174207
0.19201731
0.1923631
0.19278582
0.19335829
0.19418719
0.19527669
0.0095182011
0.01841927
0.046660656
0.065243088
0.064639893
0.092173789
0.071708127
0.091597389
0.080685065
0.097635171
0.093474088
0.10892936
0.112101
0.12802142
0.13960581
0.15919374
0.18214647
0.19388867
0.19325914
0.19261462
0.19211984
0.19175605
0.19149344
0.19130842
0.19118142
0.19109658
0.1910417
0.19100774
0.19098815
0.19097843
0.19097558
0.19097772
0.19098378
0.19099332
0.19100653
0.19102427
0.19104837
0.19108186
0.1911293
0.19119778
0.19129684
0.19144004
0.19163997
0.19190652
0.19224526
0.19266038
0.19322179
0.19403525
0.19512103
0.0181787
0.045804872
0.06486709
0.0674191
0.094545503
0.074812535
0.0936116
0.08372046
0.099832544
0.09636327
0.11148277
0.11492391
0.13095141
0.1425549
0.16252148
0.18561854
0.1939905
0.19335418
0.19268358
0.19216315
0.19177888
0.19150028
0.19130296
0.19116666
0.19107481
0.1910146
0.19097647
0.19095348
0.19094083
0.19093531
0.19093489
0.19093836
0.19094521
0.19095555
0.19097016
0.19099075
0.19102017
0.19106275
0.19112529
0.19121707
0.19135178
0.19154251
0.19180032
0.19213188
0.19253979
0.19309119
0.1938894
0.19496918
0.017970121
0.045004039
0.064497522
0.069883249
0.096267462
0.077544632
0.095110891
0.086410985
0.10156321
0.09896272
0.11364514
0.11754197
0.13361457
0.1454064
0.16576282
0.18911419
0.19408664
0.19344453
0.19274997
0.1922051
0.19180121
0.19150729
0.19129812
0.19115284
0.19105422
0.19098882
0.19094664
0.19092034
0.19090485
0.19089675
0.19089385
0.19089484
0.19089914
0.19090675
0.19091841
0.1909357
0.19096133
0.19099935
0.19105632
0.19114122
0.19126779
0.1914496
0.19169867
0.19202288
0.19242392
0.1929663
0.19375017
0.19482513
0.017784883
0.044239895
0.064126132
0.071929148
0.097332406
0.079843823
0.096150284
0.088709629
0.10285907
0.10122812
0.11544237
0.11993118
0.13602671
0.14814972
0.16891979
0.19264849
0.19417753
0.19353038
0.19281379
0.19224559
0.19182293
0.19151432
0.19129379
0.19113987
0.1910347
0.19096429
0.19091817
0.19088867
0.19087043
0.19085982
0.19085454
0.19085316
0.19085501
0.19086005
0.19086893
0.19088312
0.1909052
0.19093895
0.1909907
0.19106909
0.19118787
0.19136108
0.19160141
0.19191811
0.19231254
0.19284681
0.19361791
0.19468931
0.017613275
0.04351232
0.063751705
0.073517108
0.097716649
0.081695681
0.096801272
0.090627849
0.10376763
0.10316293
0.11690649
0.1221059
0.13822228
0.15081335
0.17202563
0.1943004
0.19426389
0.19361218
0.19287521
0.19228465
0.19184393
0.19152122
0.19128978
0.19112753
0.19101603
0.19094078
0.19089086
0.19085825
0.19083734
0.19082434
0.19081676
0.19081311
0.19081264
0.19081523
0.19082149
0.19083276
0.19085152
0.19088129
0.19092815
0.19100043
0.19111178
0.1912767
0.19150834
0.19181741
0.19220547
0.19273252
0.1934924
0.19455963
0.017458529
0.042827296
0.063379489
0.074617511
0.097453546
0.08295558
0.096627144
0.092212653
0.10426564
0.10473699
0.11806954
0.12405993
0.14022675
0.1534007
0.17509064
0.19439217
0.19434521
0.19368945
0.19293374
0.19232192
0.19186395
0.1915278
0.19128595
0.19111575
0.19099819
0.19091828
0.1908647
0.1908291
0.19080564
0.19079032
0.19078054
0.19077472
0.19077203
0.19077231
0.19077609
0.19078462
0.19080026
0.1908263
0.19086859
0.19093512
0.19103941
0.19119636
0.19141939
0.19172079
0.19210262
0.19262316
0.19337295
0.19443804
0.017314617
0.042171729
0.063001261
0.075143699
0.096630676
0.084404871
0.10617564
0.092383861
0.10432756
0.10595372
0.11895921
0.12582166
0.14208297
0.1559482
0.17815406
0.19447663
0.19442211
0.19376298
0.1929899
0.1923577
0.19188314
0.19153409
0.19128225
0.19110441
0.19098103
0.19089664
0.19083954
0.19080105
0.19077512
0.19075758
0.1907457
0.1907378
0.19073301
0.19073108
0.19073252
0.19073848
0.19075121
0.19077376
0.19081177
0.1908729
0.1909705
0.19111978
0.19133434
0.19162806
0.19200388
0.19251841
0.017178002
0.041555708
0.06262859
0.0786397
0.099413291
0.089889968
0.098178422
0.093344217
0.10421955
0.10692347
0.11966008
0.1274234
0.14384167
0.15848419
0.18125398
0.19455384
0.19449404
0.19383214
0.19304309
0.19239156
0.19190117
0.19153986
0.19127856
0.19109345
0.19096452
0.19087585
0.19081537
0.19077413
0.19074583
0.19072616
0.19071226
0.19070239
0.19069558
0.19069157
0.1906908
0.19069434
0.19070432
0.19072361
0.19075762
0.19081369
0.19090497
0.19104688
0.19125314
0.19153933
0.04096739
0.062262473
0.08288152
0.10145265
0.086580801
0.094555054
0.093766435
0.10391664
0.10766473
0.12023351
0.12891763
0.14556493
0.16105893
0.1844426
0.19462401
0.19456105
0.19389717
0.1930935
0.19242362
0.19191813
0.19154516
0.19127485
0.19108285
0.19094862
0.19085588
0.19079218
0.19074829
0.19071773
0.19069602
0.1906802
0.19066843
0.19065971
0.19065371
0.19065084
0.1906521
0.19065952
0.19067575
0.19070602
0.19075734
0.19084263
0.19097752
0.19117571
0.040397572
0.061886419
0.082473804
0.10100587
0.082579677
0.093372234
0.093683029
0.10339932
0.10819614
0.12070551
0.13035004
0.1472993
0.16372069
0.18777075
0.19468815
0.19462375
0.19395872
0.19314161
0.19245418
0.19193415
0.19155
0.1912711
0.19107248
0.19093319
0.19083656
0.19076976
0.19072335
0.19069062
0.19066696
0.1906493
0.19063572
0.19062518
0.1906173
0.19061245
0.19061156
0.19061658
0.19062996
0.19065671
0.19070358
0.19078325
0.039853096
0.061499925
0.082071271
0.10056702
0.082049953
0.091898164
0.093280119
0.1027426
0.10855349
0.12111938
0.13174839
0.14908238
0.166487
0.19129568
0.19474615
0.19468159
0.19401621
0.1931869
0.1924829
0.19194902
0.19155428
0.19126724
0.19106237
0.19091828
0.19081794
0.1907482
0.19069938
0.19066458
0.19063906
0.19061965
0.19060435
0.19059207
0.1905824
0.19057568
0.19057277
0.19057553
0.19058623
0.19060969
0.1906524
0.039325744
0.061102435
0.081669771
0.092828505
0.081150659
0.090217489
0.092669514
0.10202324
0.1088101
0.12154159
0.13317891
0.15097677
0.16941193
0.19407477
0.19479827
0.19473477
0.19406995
0.19322966
0.19250997
0.19196287
0.19155806
0.1912633
0.19105249
0.19090385
0.19079998
0.19072745
0.19067633
0.19063956
0.19061226
0.19059118
0.19057425
0.19056031
0.19054894
0.19054044
0.19053563
0.19053627
0.19054445
0.19056482
0.038807886
0.060690253
0.080099808
0.084660416
0.079677224
0.088409188
0.091909026
0.10127837
0.10902747
0.12202692
0.13469981
0.15304056
0.17254708
0.19412044
0.19484487
0.19478377
0.19412042
0.19327025
0.19253565
0.19197584
0.19156141
0.19125927
0.1910428
0.19088982
0.1907826
0.1907074
0.19065408
0.19061543
0.19058644
0.19056377
0.19054527
0.19052977
0.19051678
0.19050661
0.1905
0.19049863
0.038305102
0.060262879
0.072389103
0.078659418
0.077788758
0.086557397
0.091037272
0.10055355
0.10925813
0.12263196
0.13635467
0.15532131
0.17592847
0.19415816
0.1948858
0.19482828
0.19416725
0.19330835
0.19255972
0.19198782
0.19156425
0.19125514
0.19103332
0.19087623
0.19076582
0.19068809
0.19063269
0.19059226
0.19056165
0.19053746
0.19051748
0.19050048
0.19048597
0.19047421
0.19046588
0.037812466
0.05982286
0.065243061
0.075262818
0.075800659
0.084698336
0.090120589
0.09991048
0.10957151
0.12341779
0.13820314
0.1578721
0.17961119
0.19418809
0.19492111
0.19486842
0.19421056
0.19334406
0.19258226
0.19199886
0.19156664
0.19125095
0.19102406
0.19086309
0.19074967
0.19066953
0.19061216
0.19057003
0.19053789
0.19051226
0.19049087
0.19047245
0.19045648
0.19044319
0.059373826
0.060604652
0.071777526
0.073809452
0.082862886
0.089232207
0.099408066
0.11003161
0.12443362
0.14029745
0.1607281
0.18362637
0.19421083
0.19495113
0.19490455
0.19425071
0.19337765
0.19260348
0.1920091
0.19156863
0.19124669
0.191015
0.19085035
0.19073407
0.19065165
0.19059241
0.19054866
0.19051507
0.19048806
0.19046532
0.19044555
0.19042819
0.058922392
0.057727261
0.068403796
0.071830642
0.081097187
0.088442122
0.099103101
0.11069226
0.12572407
0.14267437
0.16391119
0.18803684
0.19422692
0.19497608
0.1949368
0.1942878
0.19340917
0.19262341
0.19201857
0.19157026
0.19124239
0.19100615
0.19083801
0.19071901
0.19063444
0.19057342
0.19052814
0.19049317
0.19046485
0.19044083
0.19041977
0.058466721
0.054758509
0.065177583
0.069894335
0.079464496
0.087819522
0.099049899
0.11160679
0.12733409
0.14536679
0.16744557
0.19252758
0.1942369
0.1949962
0.19496533
0.1943219
0.19343867
0.19264209
0.1920273
0.19157155
0.19123806
0.19099753
0.19082609
0.19070452
0.19061791
0.1905552
0.19050846
0.19047218
0.19044262
0.19041739
0.05540822
0.051792011
0.062140802
0.068053105
0.078035031
0.087426794
0.099296412
0.11282246
0.12930055
0.14841002
0.17136677
0.19251797
0.19424116
0.19501178
0.1949903
0.19435313
0.19346619
0.19265957
0.19203533
0.19157252
0.19123374
0.19098915
0.19081459
0.1906906
0.19060205
0.19053774
0.19048963
0.1904521
0.19042136
0.19039496
0.04865003
0.048900609
0.059360341
0.066374433
0.076877779
0.08731966
0.099885352
0.1143788
0.13164934
0.15181668
0.17569043
0.19250086
0.19424024
0.19502323
0.19501194
0.19438158
0.19349175
0.19267584
0.19204268
0.19157321
0.19122943
0.19098101
0.19080352
0.19067724
0.19058686
0.19052105
0.19047163
0.19043291
0.19040104
0.042357173
0.046143363
0.05688456
0.064929563
0.07605314
0.087546443
0.10085366
0.11630712
0.13439593
0.15558121
0.18040023
0.19247717
0.19423466
0.19503094
0.19503048
0.19440738
0.19351542
0.19269097
0.19204939
0.19157362
0.19122515
0.19097314
0.19079289
0.19066445
0.19057235
0.19050511
0.19045445
0.19041461
0.037108114
0.043659653
0.054741898
0.063787004
0.075615721
0.088139573
0.10222518
0.11861598
0.13753206
0.1596758
0.18550233
0.1924478
0.19422491
0.1950353
0.1950462
0.19443074
0.19353732
0.19270502
0.19205552
0.19157381
0.19122094
0.19096555
0.1907827
0.19065223
0.19055851
0.19048991
0.19043809
0.033939342
0.041692067
0.052976457
0.063005049
0.075593829
0.089099458
0.10399104
0.1212735
0.14100886
0.16405296
0.18939281
0.1924148
0.19421211
0.19503693
0.1950593
0.19445157
0.19355726
0.19271784
0.19206099
0.19157375
0.19121677
0.19095825
0.19077298
0.19064061
0.19054537
0.19047551
0.19042257
0.03130554
0.040090234
0.051656037
0.062641939
0.076024462
0.090450646
0.10616959
0.12428498
0.14482164
0.16871879
0.18932717
0.1923784
0.19419636
0.19503589
0.19506981
0.19446989
0.19357523
0.19272945
0.19206581
0.19157345
0.19121269
0.19095127
0.19076376
0.19062963
0.19053296
0.19046191
0.029744684
0.039312318
0.051186356
0.063094454
0.07723973
0.092553003
0.1090936
0.12801102
0.14933002
0.17414769
0.18926677
0.19234486
0.19418154
0.19503436
0.19507865
0.19448581
0.19359101
0.19273959
0.19206984
0.19157286
0.19120867
0.19094463
0.19075506
0.19061931
0.19052133
0.03707471
0.04970759
0.062592614
0.077692894
0.093962396
0.11143516
0.13113882
0.15325611
0.17893385
0.18918374
0.19229708
0.19415812
0.19502808
0.19508522
0.1945008
0.19360655
0.19274986
0.19207419
0.19157271
0.19120523
0.19093867
0.19074716
0.19060987
0.19051064
0.075997402
0.076428219
0.076668488
0.076677105
0.05970553
0.040976983
0.094671299
0.094856934
0.094846443
0.094581089
0.080279698
0.052151838
0.11230849
0.11239601
0.11227001
0.11190507
0.092826109
0.067770271
0.12974661
0.12982074
0.12967262
0.12932876
0.10980302
0.083573273
0.1458685
0.14590933
0.14577424
0.14549475
0.13083401
0.10193456
0.15960105
0.15961527
0.15951049
0.15929249
0.15050024
0.1206087
0.17052731
0.17052705
0.17044627
0.17027568
0.16997196
0.14196619
0.17891602
0.17891976
0.17886633
0.17874318
0.17852149
0.16523308
0.18513037
0.18510436
0.18502658
0.18487839
0.18465605
0.1895383
0.18953749
0.18949932
0.18941242
0.18927611
0.19244985
0.19246879
0.19246191
0.19242217
0.19234918
0.19417245
0.19420482
0.19421959
0.19421243
0.1941828
0.19494954
0.19499096
0.1950204
0.19503524
0.19503469
0.19500108
0.19503816
0.19506534
0.1950816
0.1944069
0.19444357
0.19447313
0.19449434
0.19351915
0.1935519
0.19357916
0.19359979
0.19269418
0.19272049
0.1927415
0.19201311
0.1920403
0.19206324
0.19150546
0.19153411
0.19155927
0.19116243
0.19118965
0.19089225
0.19092128
0.19072824
0.19058969
)
;

boundaryField
{
    Side
    {
        type            empty;
    }
    Inlet
    {
        type            calculated;
        value           nonuniform List<scalar> 9(0.19950753 0.19951148 0.19951485 0.19951767 0.19952003 0.19952198 0.19952357 0.19952487 0.19952589);
    }
    Airfoil
    {
        type            nutkWallFunction;
        blending        stepwise;
        value           nonuniform List<scalar> 
11
(
0.00099348822
0.0010307215
0.0010706246
0.0011073168
0.0011414787
0.0011721965
0.0012005578
0.0012265796
0.0012503924
0.0012723388
0.0012921325
)
;
    }
    Outlet
    {
        type            calculated;
        value           nonuniform List<scalar> 0();
    }
    procBoundary1to0
    {
        type            processor;
        value           nonuniform List<scalar> 
56
(
0.005465467
0.027177689
0.017768209
0.024623396
0.025694162
0.024393568
0.037768615
0.037768615
0.036231541
0.051758545
0.044320135
0.066798562
0.062087007
0.08335619
0.091361762
0.11307222
0.11307222
0.1322297
0.15800482
0.18930317
0.19228454
0.19197287
0.19175387
0.19160782
0.19160782
0.19148851
0.19141065
0.19136291
0.19133678
0.19128229
0.19128229
0.19127869
0.1912841
0.19129638
0.19131423
0.1912783
0.1912783
0.19130237
0.19133112
0.1913653
0.19140644
0.19138058
0.19138058
0.19143902
0.1915162
0.19162033
0.19176179
0.19195242
0.1920781
0.1920781
0.192379
0.19274564
0.19319474
0.19380705
0.19468415
0.19576889
)
;
    }
    procBoundary1to2
    {
        type            processor;
        value           nonuniform List<scalar> 
71
(
0.19325858
0.1943237
0.19190883
0.19325858
0.19241774
0.19190883
0.19145407
0.1909112
0.19145407
0.19110149
0.1909112
0.19072663
0.19072663
0.19060359
0.19050449
0.19060359
0.19052192
0.19050449
0.19046267
0.19046267
0.1904333
0.1904333
0.19041351
0.19041351
0.19040113
0.19040113
0.19039513
0.19039513
0.19037154
0.19037358
0.19037358
0.1903817
0.1903817
0.1903972
0.1903972
0.19038068
0.19040795
0.19040795
0.19044918
0.19044918
0.19043745
0.19048943
0.07543331
0.094353603
0.11208321
0.12950473
0.14565664
0.15945195
0.17043543
0.17885105
0.18511554
0.18511554
0.18950992
0.19241071
0.19412606
0.19489834
0.19495577
0.19495577
0.19436426
0.19348166
0.19266343
0.19266343
0.19198216
0.1914736
0.19113234
0.19113234
0.19086077
0.1906977
0.1906977
0.19055787
0.19048943
)
;
    }
    procBoundary1to8
    {
        type            processor;
        value           nonuniform List<scalar> 
35
(
0.0097025557
0.0097025557
0.0098503775
0.0099621469
0.010037499
0.010082628
0.010103916
0.010102352
0.017049376
0.017049376
0.016923598
0.016801444
0.016683338
0.016565176
0.016447937
0.016331823
0.037323497
0.037323497
0.036842997
0.036370219
0.035908552
0.035418676
0.032775153
0.028036995
0.024936321
0.021543169
0.020810294
0.02711113
0.02711113
0.054011308
0.054604071
0.055017516
0.05525606
0.055327118
0.027121763
)
;
    }
}


// ************************************************************************* //
