/*--------------------------------*- C++ -*----------------------------------*\
| =========                 |                                                 |
| \\      /  F ield         | OpenFOAM: The Open Source CFD Toolbox           |
|  \\    /   O peration     | Version:  2506                                  |
|   \\  /    A nd           | Website:  www.openfoam.com                      |
|    \\/     M anipulation  |                                                 |
\*---------------------------------------------------------------------------*/
FoamFile
{
    version     2.0;
    format      ascii;
    arch        "LSB;label=32;scalar=64";
    class       volScalarField;
    location    "0.25";
    object      p;
}
// * * * * * * * * * * * * * * * * * * * * * * * * * * * * * * * * * * * * * //

dimensions      [1 -1 -2 0 0 0 0];

internalField   nonuniform List<scalar> 
19257
(
47148.959
47080.149
47082.348
47074.452
47068.273
47064.593
47062.378
47060.653
47058.602
47056.571
47054.737
47052.382
47051.138
47047.91
47045.789
47045.11
47043.919
47040.746
47038.904
47037.022
47034.54
47031.352
47029.193
47027.134
47023.08
47018.012
47014.814
47011.72
47009.447
47003.354
47002.814
47004.282
47002.754
47000.808
46998.231
46993.382
46989.341
46993.023
47002.164
46999.619
47000.349
46993.564
46974.058
46932.718
46984.255
46783.639
46356.811
46549.745
46112.426
47151.413
47067.216
47079.576
47074.599
47067.787
47064.392
47062.859
47061.05
47059.056
47057.203
47055.911
47053.453
47051.994
47049.014
47046.952
47046.297
47045.849
47042.658
47040.965
47039.268
47037.784
47034.28
47032.507
47031.256
47028.185
47023.488
47020.679
47018.878
47017.31
47013.319
47012.622
47015.148
47018.436
47020.369
47020.095
47017.947
47015.442
47024.784
47038.217
47044.717
47052.7
47056.535
47042.991
47034.546
46994.874
46990.069
46789.988
46679.421
46059.371
47155.167
47057.84
47074.168
47072.296
47067.144
47065.01
47063.3
47061.172
47059.512
47057.692
47056.764
47054.609
47052.772
47050.418
47048.242
47047.711
47047.381
47044.4
47043.077
47041.814
47040.928
47037.896
47036.017
47035.425
47033.626
47029.558
47027.431
47025.619
47024.481
47023.713
47022.777
47025.928
47033.269
47037.445
47040.786
47041.313
47041.119
47053.736
47069.75
47087.682
47104.575
47119.927
47139.792
47128.517
47110.46
47088.138
46994.52
46861.846
46108.588
47156.77
47051.661
47067.964
47072.118
47069.108
47064.553
47062.787
47061.375
47060
47057.869
47057.241
47055.247
47053.913
47052.339
47049.983
47048.757
47048.644
47046.317
47045.329
47044.562
47044.022
47041.93
47039.772
47039.732
47039.115
47036.497
47034.046
47032.513
47032.488
47033.573
47033.884
47037.512
47046.609
47054.073
47060.372
47063.545
47067.391
47080.101
47102.378
47124.227
47146.034
47173.2
47202.857
47201.516
47187.589
47183.375
47134.734
47021.732
46491.2
47163.33
47049.058
47063.079
47071.092
47067.516
47063.299
47062.596
47061.844
47060.467
47058.404
47057.415
47056.482
47055.469
47053.78
47051.88
47050.21
47050.322
47048.778
47047.819
47047.387
47047.188
47046.092
47043.872
47043.803
47044.945
47043.782
47041.033
47040.336
47040.907
47043.592
47045.66
47049.79
47059.436
47070.013
47078.425
47086.085
47092.19
47106.386
47131.933
47156.893
47186.166
47223.431
47268.369
47288.868
47304.696
47326.282
47289.283
47253.724
46779.112
47170.107
47043.828
47056.329
47068.345
47066.394
47063.311
47062.796
47062.158
47061.157
47058.981
47057.694
47057.815
47056.716
47055.155
47053.742
47052.412
47052.19
47051.426
47050.504
47050.225
47050.707
47050.453
47048.255
47048.148
47050.704
47050.992
47049.025
47048.702
47049.832
47053.553
47057.262
47062.482
47072.415
47084.897
47096.253
47107.436
47115.673
47132.321
47159.242
47189.898
47225.597
47269.017
47319.132
47363.491
47388.076
47420.844
47431.807
47473.104
47019.717
47173
47040.555
47050.956
47065.311
47066.895
47064.606
47063.117
47062.178
47061.575
47059.978
47058.54
47058.656
47057.649
47056.507
47055.633
47054.612
47053.721
47054.096
47053.068
47053.438
47054.267
47054.35
47053.116
47053.377
47056.318
47057.942
47057.114
47057.152
47058.924
47063.447
47068.802
47075.15
47085.57
47099.466
47114.141
47127.607
47139.043
47157.708
47185.284
47221.376
47260.393
47308.175
47365.673
47427.097
47476.319
47532.326
47606.249
47527.904
47308.526
47179.177
47043.649
47046.161
47061.597
47067.12
47064.458
47062.63
47061.791
47061.826
47061.056
47059.446
47059.043
47058.796
47057.827
47057.296
47056.755
47055.827
47056.247
47055.905
47056.843
47057.781
47058.333
47058.06
47058.579
47061.731
47064.569
47065.101
47065.763
47068.224
47073.526
47080.191
47087.776
47098.747
47113.869
47131.312
47147.688
47162.587
47181.7
47211.904
47251.702
47295.884
47346.918
47416.193
47485.147
47555.382
47629.524
47714.539
47665.009
47664.711
47187.137
47048.442
47043.605
47055.025
47061.977
47062.615
47061.468
47061.494
47062.278
47061.611
47060.573
47059.841
47059.786
47059.219
47058.834
47058.909
47058.454
47058.782
47059.215
47059.755
47061.295
47062.414
47063.135
47063.783
47067.151
47071.218
47073.105
47074.671
47077.915
47083.694
47091.332
47100.163
47111.78
47128.043
47147.719
47167.321
47185.006
47205.346
47237.873
47279.804
47329.597
47385.124
47458.462
47535.703
47621.066
47729.596
47781.928
47984.727
48000.97
47193.76
47053.376
47030.169
47053.143
47066.624
47063.199
47060.976
47061.24
47062.551
47062.522
47062.007
47061.022
47061.064
47060.836
47060.355
47060.879
47061.049
47061.319
47061.911
47062.466
47064.986
47066.945
47068.203
47069.141
47072.628
47077.788
47081.027
47083.483
47087.479
47093.66
47102.236
47112.434
47124.981
47141.877
47163.544
47186.172
47206.492
47229.014
47262.14
47307.7
47361.311
47421.08
47497.454
47588.237
47683.912
47811.419
47953.535
48215.193
48214.627
47205.13
47059.271
47027.939
47054.463
47064.363
47064.284
47062.192
47062.151
47063.026
47063.479
47063.231
47062.545
47062.592
47062.618
47061.924
47062.504
47063.434
47063.846
47064.724
47065.649
47068.591
47071.354
47073.111
47074.704
47078.183
47084.032
47088.626
47091.993
47096.789
47103.481
47112.918
47124.547
47138.16
47155.474
47178.636
47203.902
47227.141
47251.898
47285.25
47333.054
47390.538
47456.096
47535.982
47632.798
47740.162
47883.689
48080.673
48221.026
48424.958
47221.873
47060.515
47021.755
47050.969
47066.987
47066.041
47062.779
47062.097
47062.826
47064.203
47064.358
47063.889
47064.072
47064.596
47064.089
47064.463
47065.751
47066.681
47067.911
47068.985
47072.09
47075.525
47077.766
47080.075
47083.745
47089.994
47095.953
47100.345
47105.82
47113.015
47123.093
47136.231
47150.936
47168.717
47192.758
47220.335
47246.472
47273.491
47307.915
47356.74
47418.705
47488.8
47572.014
47676.056
47793.473
47946.148
48140.037
48350.364
48649.235
47243.704
47060.926
47014.549
47048.584
47066.725
47064.308
47061.095
47061.106
47062.484
47064.234
47065.384
47065.151
47065.325
47066.261
47066.423
47066.594
47068.013
47069.477
47070.885
47071.985
47075.136
47079.152
47082.028
47084.949
47089.101
47095.548
47102.576
47108.185
47114.421
47122.148
47132.623
47147.088
47163.014
47181.178
47205.785
47235.341
47264.22
47293.399
47329.475
47378.574
47443.754
47517.801
47606.8
47713.572
47842.97
47999.359
48220.607
48482.451
48829.101
47254.725
47062.359
47012.153
47046.99
47066.573
47064.254
47060.796
47061.231
47063.026
47065.164
47066.967
47066.899
47066.859
47067.785
47068.372
47068.627
47070.259
47072.236
47073.915
47075.031
47077.922
47082.382
47086.041
47089.481
47094.192
47100.73
47108.408
47115.244
47122.399
47130.781
47141.44
47156.823
47174.129
47192.597
47217.526
47248.711
47280.007
47311.611
47349.183
47398.839
47465.815
47544.529
47636.705
47748.844
47883.503
48057.864
48280.599
48583.37
48994.372
47271.747
47063.733
47007.447
47042.192
47062.656
47063.723
47061.059
47061.62
47063.742
47066.1
47067.889
47068.439
47068.568
47069.499
47070.094
47070.336
47072.116
47074.687
47076.963
47078.318
47080.781
47085.32
47089.67
47093.569
47098.845
47105.542
47113.508
47121.335
47129.432
47138.597
47149.45
47165.342
47184.036
47202.945
47227.887
47260.348
47293.668
47327.606
47367.005
47417.563
47485.231
47568.28
47663.236
47781.018
47919.04
48105.165
48345.355
48685.728
49132.327
47277.955
47063.421
47003.486
47038.436
47060.978
47064.487
47060.76
47060.948
47063.422
47066.142
47068.386
47069.709
47070.127
47071.252
47071.891
47071.98
47073.566
47076.373
47079.258
47081.129
47083.342
47087.765
47092.575
47096.907
47102.733
47109.775
47117.878
47126.373
47135.284
47145.237
47156.484
47172.65
47192.545
47212.108
47236.949
47270.205
47305.25
47341.016
47382.473
47434.005
47502.382
47588.232
47687.158
47806.882
47954.217
48140.915
48404.58
48751.696
49252.747
47292.001
47070.194
47003.306
47038.502
47060.028
47064.471
47062.05
47061.875
47064.133
47067.15
47069.874
47071.337
47071.662
47072.757
47073.596
47073.768
47075.146
47077.866
47081.045
47083.453
47085.544
47089.78
47094.795
47099.434
47105.694
47113.198
47121.418
47130.292
47139.822
47150.421
47162.203
47178.566
47199.34
47219.63
47244.369
47278.077
47314.419
47351.465
47394.608
47447.42
47516.219
47603.912
47706.028
47827.971
47980.619
48174.813
48444.343
48821.869
49348.283
47300.251
47071.151
47001.228
47034.11
47057.292
47065.493
47063.925
47062.626
47064.587
47067.712
47070.518
47071.998
47072.427
47073.472
47074.457
47074.884
47076.326
47079.015
47082.261
47085.143
47087.253
47091.288
47096.32
47101.085
47107.575
47115.522
47123.871
47132.872
47142.82
47153.892
47166.196
47182.735
47203.943
47224.711
47249.33
47283.145
47320.162
47358.024
47402.352
47456.336
47525.361
47613.883
47717.671
47841.747
47996.528
48198.339
48474.082
48863.004
49407.466
47305.793
47073.739
47001.379
47033.637
47057.281
47064.895
47063.247
47062.231
47063.587
47066.833
47070.127
47072.284
47072.94
47073.885
47074.94
47075.509
47076.882
47079.482
47082.693
47085.874
47088.151
47092.059
47097.034
47101.776
47108.314
47116.586
47125.019
47133.904
47144.086
47155.483
47168.208
47184.904
47206.126
47226.936
47251.377
47285.086
47322.309
47360.484
47405.422
47460.27
47529.386
47617.728
47722.292
47846.715
48003.389
48207.602
48488.714
48885.452
49441.403
47307.5
47075.036
47001.913
47033.63
47057.057
47064.707
47063.068
47062.255
47063.604
47066.408
47069.696
47072.13
47073.127
47074.223
47075.324
47075.91
47077.227
47079.726
47082.865
47086.174
47088.496
47092.29
47097.225
47101.85
47108.309
47116.784
47125.207
47133.845
47144.174
47155.825
47168.9
47185.752
47206.709
47227.277
47251.658
47285.194
47322.306
47360.56
47405.811
47461.342
47530.635
47618.339
47722.772
47847.116
48004.234
48209.933
48492.47
48892.57
49452.812
47305.796
47074.556
47002.164
47034.244
47057.309
47064.308
47062.735
47062.055
47063.553
47066.436
47069.393
47071.513
47072.61
47073.887
47075.117
47075.802
47077.237
47079.789
47082.955
47086.302
47088.525
47092.225
47097.107
47101.5
47107.849
47116.459
47124.737
47133.107
47143.578
47155.473
47168.866
47185.841
47206.354
47226.622
47251.14
47284.405
47321.162
47359.459
47405.015
47461.235
47530.782
47617.535
47721.433
47845.602
48002.741
48209.128
48491.561
48890.558
49447.978
47300.285
47071.671
47001.847
47034.666
47056.991
47065.014
47063.523
47062.571
47064.373
47067.011
47069.678
47071.59
47072.302
47073.255
47074.526
47075.381
47076.914
47079.48
47082.607
47085.796
47087.881
47091.558
47096.277
47100.273
47106.555
47115.219
47123.142
47131.236
47141.791
47153.834
47167.389
47184.299
47204.168
47224.125
47248.938
47281.659
47317.627
47355.822
47401.697
47458.505
47527.981
47613.245
47715.76
47839.41
47995.591
48200.608
48480.805
48872.64
49418.673
47291.169
47069.877
47003.722
47038.657
47059.98
47063.954
47061.457
47062.041
47064.299
47066.795
47069.256
47070.924
47071.64
47072.55
47073.617
47074.362
47075.955
47078.555
47081.574
47084.463
47086.336
47089.964
47094.364
47097.904
47104.194
47112.738
47120.117
47127.909
47138.387
47150.385
47163.768
47180.249
47199.313
47219.018
47244.003
47275.668
47310.345
47348.219
47394.216
47451.07
47519.575
47602.457
47702.905
47825.139
47978.199
48180.875
48454.498
48834.868
49358.566
47277.221
47064.15
47004.507
47037.9
47059.453
47062.741
47059.686
47060.411
47063.314
47065.966
47068.262
47069.593
47070.465
47071.618
47072.62
47073.057
47074.558
47077.09
47079.929
47082.434
47084.154
47087.659
47091.544
47094.702
47101.046
47109.264
47116.004
47123.446
47133.717
47145.492
47158.319
47174.079
47192.355
47211.901
47236.661
47266.682
47299.785
47337.171
47383.267
47439.248
47505.596
47585.49
47684.207
47802.344
47952.767
48150.554
48411.731
48778.45
49271.802
47269.924
47064.726
47009.927
47042.87
47062.271
47063.356
47061.301
47061.659
47063.52
47065.507
47067.607
47068.718
47069.346
47070.395
47071.26
47071.417
47072.854
47075.296
47077.853
47079.913
47081.551
47084.781
47087.983
47090.941
47097.292
47105.023
47111.093
47118.173
47128.195
47139.555
47151.485
47166.472
47184.079
47203.466
47227.471
47255.39
47286.776
47323.935
47369.81
47424.281
47487.903
47564.278
47659.389
47774.919
47922.884
48109.588
48362.063
48705.713
49160.613
47251.588
47062.297
47014.601
47049.936
47069.186
47066.375
47062.549
47062.05
47063.253
47064.812
47066.728
47067.333
47067.401
47068.299
47069.129
47069.302
47070.837
47073.137
47075.319
47077.007
47078.526
47081.27
47083.795
47086.75
47092.973
47100.067
47105.45
47112.221
47121.956
47132.557
47143.384
47157.806
47174.914
47193.956
47216.562
47242.111
47271.98
47309.135
47354.664
47406.549
47466.192
47540.548
47631.566
47745.447
47886.131
48063.336
48308.195
48618.949
49025.473
47240.456
47059.776
47015.866
47050.677
47069.238
47067.336
47063.999
47063.012
47063.506
47064.281
47065.647
47065.923
47065.741
47066.331
47066.878
47067.135
47068.739
47070.622
47072.326
47073.762
47075.027
47077.124
47079.14
47082.138
47088.128
47094.43
47099.105
47105.648
47114.995
47124.394
47134.196
47148.367
47164.988
47183.245
47203.817
47227.026
47255.875
47293.235
47337.474
47385.932
47441.528
47512.951
47600.209
47710.318
47840.072
48016.651
48234.328
48516.742
48865.444
47221.095
47060.038
47020.146
47051.369
47067.664
47067.409
47064.689
47063.692
47063.602
47064.122
47065.075
47065.034
47064.68
47064.879
47064.885
47065.128
47066.667
47067.864
47069.102
47070.314
47071.136
47072.61
47074.301
47077.318
47083.031
47088.168
47092.09
47098.554
47107.321
47115.194
47124.327
47138.363
47154.226
47171.055
47189.216
47210.432
47238.839
47276.493
47317.836
47361.785
47415.543
47481.938
47567.798
47671.23
47791.676
47961.494
48157.105
48406.545
48681.629
47206.112
47056.287
47027.116
47053.654
47065.748
47066.003
47063.533
47063.083
47062.836
47063.159
47063.831
47063.608
47063.288
47063.323
47062.876
47063.127
47064.47
47065.051
47065.997
47066.865
47066.855
47067.805
47069.333
47072.343
47077.635
47081.391
47084.793
47091.264
47098.999
47105.263
47114.162
47127.9
47142.457
47157.225
47173.018
47192.773
47221.482
47258.022
47295.472
47334.784
47386.133
47450.084
47532.692
47627.302
47748.753
47888.818
48073.606
48279.995
48476.248
47193.922
47052.652
47030.983
47054.521
47067.154
47065.183
47062.337
47062.038
47061.465
47061.649
47061.66
47061.511
47061.116
47061.227
47060.641
47061.088
47062.069
47062.166
47062.805
47063.253
47062.406
47063.132
47064.627
47067.548
47071.811
47074.352
47077.669
47083.883
47089.904
47094.898
47103.922
47117.001
47129.641
47142.09
47155.75
47174.747
47203.667
47237.645
47270.048
47306.891
47353.011
47415.339
47489.82
47575.962
47694.165
47823.228
47980.931
48136.487
48244.694
47184.021
47050.538
47040.917
47055.86
47063.718
47063.601
47061.83
47061.621
47060.639
47060.388
47059.63
47059.278
47058.904
47059.092
47058.28
47058.946
47059.512
47059.314
47059.518
47059.117
47057.864
47058.923
47060.188
47062.802
47065.429
47067.23
47070.724
47076.028
47079.928
47084.302
47093.542
47105.437
47115.81
47126.076
47137.992
47156.786
47184.897
47215.087
47242.273
47278.252
47322.958
47381.175
47449.358
47528.163
47621.951
47741.741
47877.811
47985.959
47990.999
47175.342
47047.558
47047.095
47061.245
47065.824
47063.888
47061.927
47060.796
47060.229
47059.618
47058.424
47057.472
47057.009
47057.079
47056.187
47056.694
47056.763
47056.307
47056.467
47054.969
47053.398
47055.175
47055.547
47057.455
47059.035
47060.618
47063.895
47067.525
47069.558
47073.943
47083.088
47093.178
47101.31
47109.757
47120.338
47138.648
47164.711
47189.741
47214.106
47244.869
47289.199
47340.844
47402.877
47482.151
47558.003
47659.019
47762.601
47831.338
47706.699
47168.66
47044.73
47053.874
47065.578
47066.545
47064.031
47062.136
47060.068
47059.562
47058.682
47057.315
47056
47055.69
47054.935
47054.488
47054.441
47054.06
47053.508
47053.021
47050.873
47049.782
47051.29
47051.153
47051.741
47052.957
47054.555
47056.965
47058.501
47059.563
47064.297
47072.683
47080.527
47086.636
47093.45
47102.913
47120.356
47143.27
47163.172
47186.35
47216.001
47252.472
47300.193
47349.613
47418.516
47486.094
47573.542
47643.896
47675.486
47411.151
47166.333
47045.659
47057.759
47067.556
47068.136
47063.855
47061.589
47059.618
47059.006
47057.784
47056.324
47054.474
47054.353
47052.893
47052.836
47052.298
47051.371
47050.654
47049.565
47046.732
47047.108
47046.97
47046.794
47046.706
47047.159
47048.62
47049.988
47049.417
47049.957
47055.05
47062.367
47067.966
47072.096
47077.071
47085.53
47101.15
47119.433
47136.676
47155.846
47184.533
47219.52
47259.671
47308.896
47352.855
47414.79
47458.001
47508.459
47514.433
47102.985
47161.644
47048.406
47064.123
47070.45
47067.906
47063.767
47061.045
47059.374
47058.69
47057.181
47055.37
47053.234
47052.975
47050.972
47050.884
47050.339
47049.183
47047.956
47046.189
47043.34
47044.553
47042.833
47042.378
47042.239
47042.044
47042.396
47042.636
47040.936
47041.418
47046.042
47051.862
47055.479
47057.608
47060.678
47068.274
47081.019
47095.468
47109.504
47127.948
47148.616
47175.937
47207.099
47255.166
47291.275
47344.219
47350.475
47354.288
47352.553
46802.271
47157.087
47047.372
47066.859
47072.05
47068.754
47064.222
47060.877
47059.341
47058.526
47056.734
47054.961
47052.459
47051.443
47049.406
47049.342
47048.201
47046.845
47045.774
47043.045
47040.64
47041.887
47038.89
47038.53
47037.499
47036.983
47036.413
47034.631
47032.907
47033.599
47037.146
47041.165
47042.862
47042.722
47044.295
47050.507
47060.524
47071.83
47083.078
47099.177
47116.942
47137.344
47165.309
47188.969
47216.925
47245.998
47234.509
47196.35
47203.011
46522.898
47156.031
47053.075
47071.026
47071.121
47067.638
47063.387
47060.293
47058.848
47058.096
47055.972
47054.098
47051.221
47050.332
47047.821
47047.806
47046.202
47044.571
47043.374
47039.835
47038.221
47038.898
47035.285
47034.917
47032.912
47031.668
47030.562
47026.786
47025.463
47026.085
47028.025
47030.109
47030.079
47027.332
47027.706
47032.195
47038.717
47046.432
47056.79
47065.862
47077.622
47091.356
47109.95
47139.279
47154.618
47147.784
47108.994
47009.936
47036.308
46294.216
47151.72
47063.059
47076.931
47072.885
47067.032
47063.083
47059.716
47058.213
47057.431
47055.059
47052.948
47050.497
47049.134
47046.495
47046.502
47044.539
47042.689
47040.836
47036.817
47036.404
47035.843
47032.105
47031.329
47028.575
47026.887
47024.417
47019.684
47019.172
47019.176
47018.683
47018.252
47017.072
47012.631
47011.387
47013.65
47017.173
47023.519
47025.697
47035.042
47036.227
47043.687
47050.031
47061.849
47055.958
47050.143
46980.217
46795.946
46910.863
46084.822
47149.731
47077.229
47080.099
47073.098
47066.727
47063.519
47059.997
47057.964
47056.482
47054.412
47051.689
47049.958
47048.014
47046.053
47045.681
47043.027
47040.915
47038.714
47034.398
47034.812
47032.971
47029.132
47027.734
47024.455
47022.495
47018.186
47013.35
47013.046
47011.61
47009.234
47006.637
47002.803
46997.975
46995.199
46993.785
46994.8
46996.612
46995.601
46997.679
46994.644
46997.292
47000.007
46988.614
46959.972
46860.578
46812.662
46653.614
46714.628
45976.394
47520.948
47438.886
47409.157
47342.866
47319.574
47287.385
47256.336
47229.001
47202.969
47178.043
47153.938
47130.045
47111.282
47098.175
47085.075
47071.788
47055.603
47044.234
47038.923
47032.983
47028.15
47024.463
47021.307
47018.654
47016.157
47016.001
47017.13
47018.476
47017.883
47017.399
47018.392
47020.518
47023.015
47025.097
47027.154
47029.998
47033.325
47035.991
47037.649
47039.457
47041.022
47042.362
47042.799
47043.179
47042.893
47042.207
47041.636
47038.158
47041.232
47252.794
47259.819
47238.355
47240.019
47222.391
47209.296
47192.308
47173.275
47154.257
47135.603
47117.514
47102.894
47088.211
47072.026
47059.259
47048.792
47039.596
47033.81
47028.526
47024.797
47022
47018.578
47015.462
47013.859
47012.774
47013.261
47014.933
47016.74
47016.621
47016.455
47017.763
47020.06
47022.701
47024.883
47026.943
47029.869
47033.266
47035.986
47037.638
47039.51
47041.16
47042.408
47043.062
47043.463
47043.17
47042.434
47041.682
47038.509
47041.699
47125.235
47126.224
47132.561
47121.152
47121.79
47113.635
47107.82
47102.599
47094.36
47085.266
47076.109
47065.424
47055.442
47048.356
47040.746
47033.438
47028.125
47021.677
47016.878
47015.613
47013.55
47010.456
47009.405
47009.455
47009.459
47010.474
47012.954
47015.149
47015.482
47015.671
47017.292
47019.622
47022.362
47024.651
47026.714
47029.726
47033.218
47035.976
47037.599
47039.526
47041.228
47042.428
47043.369
47043.76
47043.353
47042.631
47041.816
47038.696
47040.702
46973.752
47011.019
47003.115
47024.777
47026.5
47034.908
47037.093
47038.061
47037.411
47036.516
47032.916
47029.548
47025.85
47021.16
47017.4
47013.618
47009.422
47006.887
47004.773
47002.977
47003.383
47003.312
47003.397
47004.922
47006.332
47008.172
47010.892
47013.244
47014.217
47014.837
47016.722
47019.1
47021.976
47024.38
47026.489
47029.568
47033.159
47035.957
47037.537
47039.501
47041.231
47042.585
47043.586
47044.034
47043.6
47043.011
47042.087
47038.719
47039.358
46907.227
46911.876
46929.21
46939.013
46949.415
46958.61
46965.271
46972.757
46977.817
46982.1
46984.648
46986.583
46987.188
46989.087
46989.632
46990.59
46992.023
46992.838
46992.519
46992.798
46994.228
46996.078
46997.731
47000.669
47003.315
47005.603
47008.409
47011.194
47012.965
47014.054
47016.168
47018.575
47021.623
47024.116
47026.258
47029.403
47033.068
47035.928
47037.444
47039.427
47041.279
47042.748
47043.675
47044.231
47043.997
47043.493
47042.488
47039.049
47039.272
46801.019
46844.077
46843.351
46868.103
46876.861
46894.234
46904.274
46916.74
46925.275
46933.712
46940.869
46946.661
46952.331
46958.526
46964.29
46969.626
46973.548
46976.686
46979.113
46981.532
46984.627
46988.643
46992.337
46996.269
46999.812
47002.97
47006.054
47009.081
47011.691
47013.357
47015.603
47018.021
47021.279
47023.875
47026.043
47029.245
47032.954
47035.869
47037.331
47039.375
47041.327
47042.846
47043.754
47044.413
47044.396
47043.934
47043.124
47039.763
47040.58
46758.438
46754.014
46779.981
46799.531
46812.56
46833.018
46844.353
46861.442
46874.133
46887.997
46899.051
46909.08
46917.942
46927.108
46935.953
46945.122
46953.575
46960.23
46965.144
46969.731
46975.191
46981.641
46987.3
46991.88
46996.049
47000.029
47003.65
47007.044
47010.288
47012.599
47015.007
47017.499
47020.978
47023.676
47025.87
47029.106
47032.829
47035.778
47037.235
47039.353
47041.383
47042.928
47043.947
47044.678
47044.738
47044.319
47043.91
47040.843
47042.28
46666.886
46715.391
46705.079
46737.565
46744.695
46772.563
46785.846
46808.793
46824.955
46843.169
46860.457
46877.046
46888.861
46899.905
46910.646
46921.463
46933.112
46944.52
46952.629
46958.706
46966.107
46974.578
46981.952
46987.547
46992.417
46996.802
47001.008
47005.283
47009.106
47011.821
47014.341
47017.073
47020.734
47023.503
47025.749
47028.987
47032.702
47035.667
47037.15
47039.293
47041.401
47043.009
47044.13
47044.959
47044.979
47044.877
47044.808
47042.059
47044.549
46648.51
46623.02
46651.372
46684.419
46690.762
46722.78
46737.283
46762.421
46779.627
46799.614
46818.079
46840.772
46860.192
46875.766
46888.901
46900.855
46912.816
46927.087
46940.522
46949.227
46957.214
46967.421
46976.354
46982.887
46988.931
46993.921
46998.265
47003.521
47008.179
47011.13
47013.534
47016.635
47020.572
47023.335
47025.671
47028.9
47032.578
47035.523
47037.041
47039.269
47041.387
47043.133
47044.25
47045.171
47045.265
47045.45
47045.638
47043.328
47046.53
46527.542
46608.919
46597.264
46640.33
46647.76
46677.601
46696
46721.343
46744.801
46769.934
46784.156
46801.489
46824.071
46848.256
46867.804
46884.203
46897.219
46910.688
46926.585
46940.444
46950.128
46960.467
46970.728
46978.141
46985.214
46991.388
46995.947
47001.614
47007.102
47010.575
47012.777
47016.191
47020.426
47023.171
47025.633
47028.851
47032.459
47035.376
47036.981
47039.264
47041.312
47043.254
47044.319
47045.381
47045.623
47045.927
47046.316
47044.471
47047.676
46508.739
46528.359
46553.775
46597.255
46597.247
46631.009
46648.775
46677.108
46704.108
46738.019
46760.518
46776.664
46791.93
46817.057
46841.774
46865.083
46884.074
46899.536
46914.01
46929.66
46943.101
46954.141
46965.358
46973.942
46981.282
46988.565
46994.235
47000.13
47005.698
47009.853
47012.252
47015.88
47020.187
47022.991
47025.619
47028.834
47032.356
47035.215
47036.873
47039.127
47041.322
47043.334
47044.406
47045.639
47045.942
47046.296
47046.807
47045.307
47048.017
46424.252
46552.981
46485.179
46564.881
46544.281
46588.875
46603.196
46635.545
46659.568
46687.709
46724.787
46763.37
46779.027
46796.121
46817.515
46843.426
46866.556
46888.274
46905.94
46920.172
46935.061
46947.813
46960.057
46970.227
46978.165
46985.499
46992.374
46999.171
47004.477
47008.733
47011.797
47015.809
47019.92
47022.76
47025.614
47028.843
47032.257
47035.033
47036.728
47039.158
47041.421
47043.323
47044.68
47045.907
47046.28
47046.687
47047.152
47045.526
47046.854
46563.094
46236.698
46385.876
46492.941
46481.241
46544.322
46559.913
46601.254
46629.278
46656.939
46683.143
46722.253
46760.354
46789.889
46805.648
46827.746
46850.442
46872.855
46896.657
46914.192
46928.141
46941.527
46954.712
46966.278
46975.728
46983.254
46990.142
46997.871
47003.892
47007.725
47011.218
47015.774
47019.786
47022.518
47025.609
47028.866
47032.164
47034.895
47036.685
47039.188
47041.29
47043.338
47044.956
47046.133
47046.693
47047.023
47047.4
47045.889
47046.356
46115.202
46600.813
46367.917
46471.48
46425.963
46500.089
46522.002
46565.551
46602.786
46646.418
46665.657
46693.621
46724.247
46764.613
46797.113
46820.482
46842.092
46860.944
46884.009
46906.427
46922.986
46936.412
46950.068
46962.129
46972.965
46981.757
46988.435
46996.023
47003.17
47007.407
47010.665
47015.588
47019.671
47022.389
47025.616
47028.888
47032.102
47034.821
47036.582
47039.064
47041.163
47043.452
47044.992
47046.384
47047.082
47047.318
47047.538
47046.659
47045.917
46309.833
46380.938
46343.072
46408.203
46423.736
46463.318
46496.686
46539.104
46565.379
46616.582
46652.416
46682.1
46704.266
46741.497
46774.689
46807.049
46835.629
46856.777
46874.833
46896.448
46916.689
46932.436
46946.504
46958.753
46969.825
46979.838
46987.581
46994.391
47001.907
47007.057
47010.629
47015.312
47019.439
47022.37
47025.682
47028.951
47032.081
47034.787
47036.545
47038.997
47041.297
47043.606
47045.084
47046.767
47047.444
47047.727
47047.807
47047.495
47045.288
46270.893
46350.324
46300.848
46377.51
46394.029
46437.545
46470.565
46525.504
46547.461
46583.332
46619.412
46666.81
46693.534
46728.063
46761.096
46792.679
46821.549
46849.782
46872.222
46889.624
46909.725
46928.041
46943.464
46956.139
46967.401
46977.411
46986.351
46993.883
47000.548
47006.17
47010.677
47015.269
47019.253
47022.345
47025.833
47029.082
47032.093
47034.748
47036.57
47039.067
47041.511
47043.572
47045.305
47047.106
47047.844
47048.257
47048.489
47048.094
47045.779
46173.806
46275.08
46260.863
46346.518
46367.817
46431.716
46449.973
46503.816
46535.5
46570.213
46593.801
46648.353
46680.356
46717.252
46751.304
46784.32
46811.993
46838.186
46865.905
46888.116
46905.018
46923.586
46940.282
46953.487
46965.631
46975.597
46984.596
46993.198
47000.143
47005.113
47010.401
47015.512
47019.278
47022.38
47025.989
47029.234
47032.151
47034.728
47036.613
47039.117
47041.536
47043.564
47045.532
47047.244
47048.299
47048.869
47049.356
47048.969
47046.21
46136.261
46217.257
46215.418
46304.837
46332.244
46401.181
46426.439
46478.195
46510.535
46562.081
46579.216
46633.391
46672.536
46709.751
46741.252
46776.688
46805.884
46831.427
46858.439
46883.64
46903.975
46920.408
46937.529
46950.874
46963.645
46974.829
46983.03
46992.128
46999.965
47004.877
47010.313
47015.518
47019.496
47022.505
47026.14
47029.379
47032.288
47034.813
47036.694
47039.195
47041.545
47043.763
47045.593
47047.384
47048.73
47049.377
47050.087
47048.54
47046.628
46148.234
46213.675
46181.623
46270.492
46295.036
46376.582
46390.063
46456.522
46481.083
46549.099
46579.901
46618.491
46658.633
46706.455
46738.393
46771.091
46799.051
46827.64
46854.331
46878.962
46901.176
46919.601
46935.521
46949.093
46961.734
46973.843
46982.714
46991.232
46999.565
47005.381
47010.268
47015.629
47019.412
47022.826
47026.407
47029.572
47032.469
47034.981
47036.827
47039.321
47041.666
47043.967
47045.541
47047.751
47049.048
47049.758
47050.557
47047.973
47049.79
46077.893
46211.216
46176.622
46258.198
46260.719
46350.216
46369.989
46432.038
46468.899
46538.52
46565.06
46616.518
46645.871
46699.208
46735.94
46769.097
46797.299
46826.061
46851.928
46876.216
46898.754
46918.585
46934.525
46948.188
46960.588
46972.719
46982.401
46990.997
46999.342
47004.886
47010.465
47015.791
47019.582
47023.268
47026.76
47029.889
47032.814
47035.085
47036.973
47039.526
47041.856
47043.976
47045.81
47048.072
47049.272
47050.106
47050.731
47047.53
47052.576
46023.475
46137.757
46153.517
46259.994
46227.835
46326.235
46354.702
46435.015
46457.128
46518.796
46548.656
46618.347
46655.26
46700.41
46731.167
46767.552
46799.54
46825.633
46850.15
46874.832
46896.97
46917.655
46934.07
46948.16
46960.367
46972.003
46982.175
46990.938
46999.086
47004.962
47011.004
47016.134
47020.138
47023.798
47027.118
47030.287
47033.155
47035.034
47037.126
47039.732
47042.052
47044.195
47045.965
47048.109
47049.381
47050.381
47051.144
47048.347
47053.396
46005.161