/*--------------------------------*- C++ -*----------------------------------*\
| =========                 |                                                 |
| \\      /  F ield         | OpenFOAM: The Open Source CFD Toolbox           |
|  \\    /   O peration     | Version:  2506                                  |
|   \\  /    A nd           | Website:  www.openfoam.com                      |
|    \\/     M anipulation  |                                                 |
\*---------------------------------------------------------------------------*/
FoamFile
{
    version     2.0;
    format      ascii;
    arch        "LSB;label=32;scalar=64";
    class       volVectorField;
    location    "0.25";
    object      wallShearStress;
}
// * * * * * * * * * * * * * * * * * * * * * * * * * * * * * * * * * * * * * //

dimensions      [1 -1 -2 0 0 0 0];

internalField   uniform (0 0 0);

boundaryField
{
    Side
    {
        type            empty;
    }
    Inlet
    {
        type            calculated;
        value           uniform (0 0 0);
    }
    Airfoil
    {
        type            calculated;
        value           nonuniform List<vector> 
117
(
(-5.2732472 -1.9773914 9.3243152e-19)
(-4.9645938 -2.1678 -5.7444662e-19)
(-4.822299 -2.3221286 7.1167743e-19)
(-4.6377955 -2.1469404 -2.3330209e-18)
(-4.3757604 -2.2094671 -4.4250465e-19)
(-4.264994 -2.0314242 5.9381257e-19)
(-4.0162981 -1.8845972 3.1291045e-20)
(-3.9088685 -1.7839137 7.8529281e-19)
(-3.743237 -1.5096623 4.203772e-19)
(-3.7029179 -1.5218508 7.779455e-18)
(-3.7263252 -1.1757933 2.3763403e-19)
(-3.5890145 -1.0851575 1.2653128e-19)
(-3.6663856 -0.84045219 -1.0866125e-17)
(-3.556436 -0.70472269 1.1715424e-17)
(-3.670485 -0.57273763 -3.2789878e-19)
(-3.5959149 -0.38938062 1.2619875e-17)
(-3.6124259 -0.30406779 -1.3329118e-17)
(-3.5999367 -0.19283328 -3.760839e-20)
(-3.6187749 -0.098521404 -1.605467e-18)
(-3.6657902 0.0067613669 4.5500948e-23)
(-3.6312115 0.10898033 -1.8688878e-18)
(-3.5698227 0.19533086 -3.7908267e-20)
(-3.6432266 0.29957219 -2.6781294e-17)
(-3.6051717 0.43809243 3.8889015e-17)
(-3.6280512 0.53657566 -2.4779427e-17)
(-3.6228763 0.74624304 2.3427536e-17)
(-3.5968167 0.84365964 -1.0156755e-17)
(-3.6711323 1.068571 7.6955436e-19)
(-3.6418558 1.2362641 -7.7037198e-34)
(-3.813118 1.4436715 -7.9721777e-18)
(-3.6735332 1.6713064 -2.6456052e-20)
(-3.9499211 1.6382374 1.2741814e-17)
(-3.9996244 2.0462278 -1.0739875e-17)
(-4.2597925 1.9180307 8.3460044e-18)
(-4.4054501 2.2936474 -4.2549931e-18)
(-4.579024 2.13084 -9.6296497e-35)
(-4.9154504 2.2332829 -2.6259878e-18)
(-4.9367577 2.3855868 2.281464e-18)
(-5.2195832 1.8629332 -9.7318527e-19)
(-5.9657089 1.0292159 -2.2530506e-18)
(-6.9542636 0.24806776 2.8077395e-18)
(-7.2398406 1.0202727 -3.3101921e-35)
(-7.5114597 0.41394698 1.8184911e-18)
(-7.5942959 1.0688636 -1.9183757e-18)
(-7.6722407 0.33659966 3.944562e-18)
(-7.6259629 1.0415357 -4.8148249e-35)
(-7.7780019 -0.03582127 4.8148249e-35)
(-7.7845779 1.0016001 1.6326909e-18)
(-7.8496119 -0.063987501 -5.5812453e-19)
(-7.9044284 0.54174832 3.7423845e-21)
(-7.8516435 0.23426929 -1.1607512e-18)
(-8.0451818 0.24837879 1.8263699e-18)
(-8.1585311 -0.15929819 6.5416344e-19)
(-7.9538119 0.60810643 -6.279387e-19)
(-7.7717048 0.13669347 6.4580581e-19)
(-7.7380108 0.036125496 3.31067e-21)
(-7.6719741 -0.14689219 -3.2997077e-19)
(-7.6382927 -0.15370373 -3.5020157e-19)
(-7.5680948 -0.24356268 5.3174102e-19)
(-7.4188156 -0.045599114 -9.5216005e-20)
(-7.3542481 -0.7480628 2.1981744e-36)
(-7.2963811 -0.12433762 3.8057263e-19)
(-7.1512016 -0.70698786 -1.8186053e-19)
(-7.063215 -0.53591726 -3.8405418e-19)
(-6.9542632 -0.74621345 -2.0353341e-19)
(-6.9804969 -0.99960326 -9.7082541e-20)
(-6.7006454 -0.28605657 1.0078258e-19)
(-6.5194008 -1.4452569 -4.3837788e-19)
(-6.5629613 -0.95192151 -4.1274474e-19)
(-6.3943348 -1.386028 -6.7427015e-19)
(-6.4101927 -1.3062108 2.0971809e-19)
(-6.2279756 -1.2753404 6.9055797e-21)
(-6.0010563 -1.3275117 -6.0185311e-36)
(-5.9022879 -1.6620085 9.7863537e-19)
(-5.8291714 -1.5935452 -1.1084513e-18)
(-5.6018734 -1.8045146 -5.4426471e-19)
(-5.5780976 -2.0420445 1.6000496e-18)
(-5.5022744 -1.9976796 -1.6698336e-18)
(-5.4775918 1.9188796 1.2037062e-34)
(-5.6873264 1.8536151 -6.0185311e-36)
(-5.811604 1.9226397 4.7940105e-19)
(-5.7375072 1.7909497 6.4087719e-21)
(-5.8996601 1.4240112 -9.8029116e-19)
(-6.1506432 1.3805907 -4.6973032e-19)
(-6.2173449 1.4727421 -2.4851941e-20)
(-6.2557959 1.1841793 -4.8478966e-19)
(-6.4394774 0.99804231 4.6296937e-19)
(-6.6000272 0.93508266 3.9774359e-19)
(-6.7687848 0.92437805 -6.7036646e-21)
(-6.8213363 0.97041148 -4.2202224e-19)
(-6.8541558 0.69439955 -2.0718142e-19)
(-7.0534623 0.63552542 -1.7842953e-19)
(-7.1788646 0.67132559 -3.4594639e-21)
(-7.220733 0.49745624 -9.8430421e-20)
(-7.3056304 0.45519945 3.995046e-19)
(-7.4236274 0.21107339 -3.8009312e-19)
(-7.5341942 0.26614323 9.3662391e-20)
(-7.6008927 0.24173668 -7.2918861e-19)
(-7.6858756 0.059130822 6.9944946e-19)
(-7.7062163 0.020306366 9.9671257e-19)
(-7.8944061 -0.26226047 -6.4037712e-19)
(-7.9230028 0.4411327 -6.5105304e-19)
(-7.8181532 -0.67295441 6.3830474e-19)
(-7.9047448 -0.14106542 2.7835706e-35)
(-8.0328636 -0.42644413 1.1855133e-18)
(-7.9676902 0.24432879 -1.1899776e-18)
(-7.902502 -1.184468 1.2060865e-18)
(-7.9494381 0.42776221 -1.1905679e-18)
(-7.7521937 -1.1601972 5.5726672e-19)
(-7.8306 -0.106325 -2.7058826e-18)
(-7.6966351 -0.96494792 5.1619134e-19)
(-7.6449842 -0.2236322 2.0287179e-18)
(-7.4760946 -0.98819047 -1.9356498e-18)
(-7.3852273 -0.43211025 -9.2371948e-19)
(-7.195698 -1.0025007 -2.6731471e-18)
(-6.9413485 -0.29416199 -3.3534836e-18)
(-5.9706646 -1.0478716 -7.6229444e-19)
)
;
    }
    Outlet
    {
        type            calculated;
        value           uniform (0 0 0);
    }
}


// ************************************************************************* //
