/*--------------------------------*- C++ -*----------------------------------*\
| =========                 |                                                 |
| \\      /  F ield         | OpenFOAM: The Open Source CFD Toolbox           |
|  \\    /   O peration     | Version:  2506                                  |
|   \\  /    A nd           | Website:  www.openfoam.com                      |
|    \\/     M anipulation  |                                                 |
\*---------------------------------------------------------------------------*/
FoamFile
{
    version     2.0;
    format      ascii;
    arch        "LSB;label=32;scalar=64";
    class       volVectorField;
    location    "0.3";
    object      wallShearStress;
}
// * * * * * * * * * * * * * * * * * * * * * * * * * * * * * * * * * * * * * //

dimensions      [1 -1 -2 0 0 0 0];

internalField   uniform (0 0 0);

boundaryField
{
    Side
    {
        type            empty;
    }
    Inlet
    {
        type            calculated;
        value           uniform (0 0 0);
    }
    Airfoil
    {
        type            calculated;
        value           nonuniform List<vector> 
26
(
(-3.6598148 0.0071911686 3.4184611e-23)
(-3.6205084 0.10824953 -1.8720958e-18)
(-3.5921213 0.2064488 -3.7789312e-20)
(-3.5955774 0.29515094 -2.6774466e-17)
(-3.6242026 0.40948082 3.8937417e-17)
(-3.648783 0.58807284 -2.4868289e-17)
(-3.557193 0.69693177 2.3448822e-17)
(-3.6676738 0.86732343 -1.0177667e-17)
(-3.5753776 1.0736091 7.6613962e-19)
(-3.7446236 1.1945687 7.7037198e-34)
(-3.6700909 1.5247278 -8.0176794e-18)
(-3.7782057 1.4991889 -2.4270774e-20)
(-3.8639985 1.8210983 1.2821223e-17)
(-4.0607971 1.8299893 -1.0709022e-17)
(-4.22652 2.1121127 8.3459513e-18)
(-4.3948928 2.1175321 -4.2696315e-18)
(-4.6479109 2.2153116 9.6296497e-35)
(-4.7926363 2.2876516 -2.7736996e-18)
(-5.0009182 2.0949755 2.1601028e-18)
(-5.3066968 2.0230878 -9.3579432e-19)
(-5.4695027 2.0400289 1.8055593e-34)
(-5.487429 1.9145393 0)
(-5.6273922 1.7014045 5.2367446e-19)
(-5.8786857 1.6348048 -2.3381345e-21)
(-5.9748967 1.6876925 -9.135841e-19)
(-6.0785852 1.4049644 -4.9652962e-19)
)
;
    }
    Outlet
    {
        type            calculated;
        value           nonuniform List<vector> 0();
    }
    procBoundary0to1
    {
        type            processor;
        value           uniform (0 0 0);
    }
    procBoundary0to7
    {
        type            processor;
        value           uniform (0 0 0);
    }
}


// ************************************************************************* //
