/*--------------------------------*- C++ -*----------------------------------*\
| =========                 |                                                 |
| \\      /  F ield         | OpenFOAM: The Open Source CFD Toolbox           |
|  \\    /   O peration     | Version:  2506                                  |
|   \\  /    A nd           | Website:  www.openfoam.com                      |
|    \\/     M anipulation  |                                                 |
\*---------------------------------------------------------------------------*/
FoamFile
{
    version     2.0;
    format      ascii;
    arch        "LSB;label=32;scalar=64";
    class       surfaceScalarField;
    location    "2.15";
    object      phi;
}
// * * * * * * * * * * * * * * * * * * * * * * * * * * * * * * * * * * * * * //

dimensions      [1 0 -1 0 0 0 0];

oriented        oriented;

internalField   nonuniform List<scalar> 
38210
(
5.6177572
-51.670196
52.114415
5.2311978
-47.831033
48.220482
4.8545775
-44.298802
44.675117
4.5102801
-41.021177
41.365627
4.187653
-37.98368
38.306319
3.8877913
-35.173207
35.472207
3.6107079
-32.572429
32.849399
3.3556006
-30.163736
30.418435
3.113974
-27.929315
28.171475
2.8905149
-25.87208
26.094875
2.6887538
-23.964107
24.165779
2.5029395
-22.190364
22.377073
2.3283918
-20.548568
20.723125
2.1672832
-19.029152
19.189946
2.0178638
-17.624579
17.773876
1.8793973
-16.322275
16.46077
1.7492479
-15.116993
15.246522
1.6310923
-14.00347
14.122196
1.5197686
-12.973173
13.084673
1.4154886
-12.017034
12.121456
1.3188859
-11.133755
11.230157
1.2296684
-10.314254
10.403243
1.1466051
-9.5566168
9.6395171
1.0689407
-8.8564884
8.9340311
0.99687538
-8.206841
8.2792287
0.93009744
-7.6051733
7.6723246
0.86712891
-7.0477107
7.1104821
0.80815981
-6.5322534
6.5905533
0.75294624
-6.0545966
6.1096933
0.7013362
-5.6133501
5.6651963
0.6530436
-5.203774
5.2522711
0.60765542
-4.8240993
4.8696386
0.56433502
-4.4714039
4.5147703
0.52249657
-4.1454796
4.1871839
0.48207089
-3.8442754
3.8843249
0.44569043
-3.5654157
3.6022057
0.41296581
-3.3100011
3.3431642
0.37523518
-3.0667085
3.1041586
0.33516501
-2.8422433
2.8819382
0.30094058
-2.6405833
2.6747137
0.27519001
-2.4497155
2.4748341
0.23331028
-2.2687225
2.3100566
0.21025967
-2.0872227
2.1199012
0.182057
-1.9753309
2.0005397
0.14112477
-1.8856511
1.9220056
0.12122297
-1.7137652
1.7342502
0.045640658
-1.6634502
1.7398997
0.015235911
-1.5371381
1.5666493
-1.4762857
1.4937232
6.9178768
-51.125845
6.4156724
-47.330215
5.9480718
-43.832668
5.5169082
-40.590126
5.1169814
-37.583488
4.7434002
-34.800678
4.3984027
-32.22775
4.0824526
-29.847532
3.785692
-27.632873
3.5048858
-25.592238
3.2504755
-23.710117
3.0172903
-21.956257
2.7996553
-20.330389
2.5981031
-18.827576
2.409595
-17.436405
2.238789
-16.151432
2.0798725
-14.958178
1.9316778
-13.854761
1.7940912
-12.835303
1.6662103
-11.888899
1.547084
-11.014824
1.4361033
-10.203511
1.3327404
-9.4533852
1.2360905
-8.7599304
1.1473526
-8.1178686
1.0649778
-7.5224618
0.98744113
-6.9702122
0.91476483
-6.4600918
0.84684122
-5.9867706
0.78419414
-5.5505366
0.72553124
-5.1448664
0.67047139
-4.7688073
0.61942432
-4.420247
0.57059877
-4.0968868
0.52354428
-3.7977444
0.48050369
-3.5221569
0.43305058
-3.2617665
0.3927621
-3.0267639
0.35956046
-2.8094679
0.32250885
-2.6031882
0.29372644
-2.4218177
0.26485399
-2.2410849
0.29593852
-2.1216325
0.26453841
-1.94359
0.16158473
-1.7802973
0.12392699
-1.6747175
0.055219234
-1.5917184
-0.0020051079
-1.4802265
-1.4792398
8.4506333
-50.451584
7.8366136
-46.71861
7.2630089
-43.259691
6.7312855
-40.058395
6.2383885
-37.090086
5.7787953
-34.342092
5.3523465
-31.801732
4.9538578
-29.449141
4.597767
-27.278253
4.2597063
-25.255145
3.9387888
-23.389585
3.6493212
-21.666007
3.3827171
-20.063249
3.1340293
-18.578959
2.9030457
-17.205741
2.6890739
-15.937798
2.4925135
-14.761746
2.3092861
-13.670945
2.1390818
-12.664813
1.9825324
-11.731865
1.8356188
-10.867909
1.699274
-10.067354
1.5731095
-9.3274254
1.4550909
-8.641968
1.3457905
-8.0084821
1.2446679
-7.4210716
1.1508118
-6.8763557
1.0624073
-6.3719407
0.98025355
-5.9047835
0.90360908
-5.4738424
0.83291978
-5.0738439
0.76640844
-4.701974
0.70379172
-4.357425
0.64552571
-4.0388477
0.5906471
-3.7434272
0.53806535
-3.4695106
0.49598611
-3.2190264
0.45144892
-2.9823993
0.40406756
-2.7623399
0.36143171
-2.560025
0.31253015
-2.3729948
0.27306447
-2.2024529
0.19908655
-2.0474473
0.15786441
-1.9010569
0.13273285
-1.7562791
0.10527487
-1.6472433
0.10253834
-1.5876186
0.078421169
-1.4554372
-1.3999616
10.297953
-49.624825
9.53979
-45.957267
8.8339467
-42.553372
8.1790565
-39.403246
7.5723999
-36.483063
7.0093667
-33.779853
6.4870564
-31.280097
6.0022247
-28.964053
5.551432
-26.827178
5.1393067
-24.842653
4.758193
-23.008662
4.4016122
-21.308898
4.0762099
-19.737464
3.772723
-18.275547
3.489503
-16.922506
3.2247253
-15.673791
2.9817204
-14.519101
2.7570044
-13.445854
2.5475273
-12.455236
2.3560948
-11.53988
2.176888
-10.688667
2.0103303
-9.9009966
1.8555633
-9.1729756
1.7125418
-8.4990042
1.5799351
-7.8759455
1.4559063
-7.2968036
1.341008
-6.7614275
1.2342005
-6.2652563
1.1342751
-5.8052526
1.0412166
-5.3807913
0.95498884
-4.9872292
0.87524296
-4.6218563
0.80095098
-4.2828675
0.73077301
-3.9688333
0.66503312
-3.6782471
0.60387789
-3.4084744
0.54303567
-3.1575427
0.48642605
-2.9255272
0.43687879
-2.7131019
0.39122589
-2.5138261
0.34947755
-2.3309561
0.30889098
-2.1633473
0.25228962
-1.9907182
0.20882173
-1.8577104
0.1787092
-1.7278591
0.13839639
-1.6079738
0.014232008
-1.4622893
-0.038755243
-1.4014318
-1.4389958
12.476616
-48.62451
11.545734
-45.029753
10.684194
-41.693855
9.8863563
-38.606738
9.1494997
-35.74624
8.4658974
-33.096656
7.8313488
-30.646401
7.2429975
-28.37508
6.6955742
-26.279384
6.1894052
-24.33627
5.7206164
-22.540076
5.2903049
-20.878339
4.8889202
-19.335471
4.5184033
-17.904921
4.1777734
-16.581655
3.8589672
-15.355796
3.5637287
-14.224252
3.2930707
-13.175277
3.0389747
-12.200956
2.8024216
-11.302979
2.5853122
-10.471625
2.3836046
-9.6995433
2.1951255
-8.9847125
2.020631
-8.3247435
1.8590171
-7.7141824
1.7092148
-7.1469428
1.5696951
-6.6218614
1.4402314
-6.1359057
1.3199469
-5.6854644
1.2079177
-5.268827
1.104261
-4.883196
1.0079039
-4.5250904
0.91833872
-4.1929676
0.83456573
-3.8851453
0.75588405
-3.6000726
0.68303296
-3.3359776
0.61701096
-3.0909569
0.55701922
-2.8652053
0.49614833
-2.6526163
0.43850407
-2.4559327
0.38263544
-2.274264
0.33253957
-2.1140778
0.30121652
-1.9608388
0.25635727
-1.8128408
0.19735991
-1.6684953
0.13902813
-1.5506274
0.14157926
-1.4648908
0.10001561
-1.3602648
-1.3389194
15.013582
-47.417059
13.888175
-43.907863
12.845364
-40.650943
11.879943
-37.643757
10.990433
-34.856667
10.164915
-32.270777
9.3992978
-29.881761
8.6921737
-27.667231
8.030134
-25.617623
7.4210786
-23.727336
6.8540234
-21.973287
6.3287948
-20.353365
5.846032
-18.851751
5.3978469
-17.456626
4.9848161
-16.168481
4.6021222
-14.973487
4.2452876
-13.868005
3.9128756
-12.843086
3.6071779
-11.894863
3.3240988
-11.019689
3.0624256
-10.210015
2.8192775
-9.4564773
2.5923902
-8.7579776
2.3816449
-8.1141511
2.1871147
-7.5193766
2.0066036
-6.966593
1.8394378
-6.4545234
1.6838561
-5.9804044
1.539185
-5.5413124
1.4048516
-5.1347146
1.2801993
-4.7582113
1.1647725
-4.4091997
1.0576496
-4.0854423
0.95780129
-3.7853009
0.86461351
-3.5073296
0.77735032
-3.24921
0.69659591
-3.0098411
0.61989634
-2.7879617
0.54956266
-2.5824881
0.48678731
-2.393355
0.42741278
-2.2137749
0.36572166
-2.0521667
0.29493633
-1.8909241
0.23022731
-1.7477168
0.19385673
-1.6313414
0.15548578
-1.5137156
0.073208658
-1.3838211
0.020464971
-1.3080062
-1.3181186
17.931602
-45.961949
16.58475
-42.561264
15.339749
-39.40534
14.180592
-36.486954
13.112906
-33.788548
12.124517
-31.281515
11.205527
-28.964149
10.359022
-26.820128
9.5725831
-24.831132
8.840466
-22.995656
8.1625246
-21.295426
7.531838
-19.723015
6.9532893
-18.272189
6.4169508
-16.920242
5.9176649
-15.669237
5.4572197
-14.513082
5.0308988
-13.442176
4.6366279
-12.449273
4.272126
-11.530045
3.931763
-10.678979
3.6152
-9.8934071
3.3230409
-9.164336
3.053582
-8.4885041
2.8026018
-7.8633847
2.5695225
-7.2862632
2.3541918
-6.7512312
2.1543326
-6.2544672
1.9686094
-5.79468
1.7958335
-5.3689693
1.6355094
-4.9747462
1.4872912
-4.6097311
1.3499313
-4.2713695
1.2224991
-3.9575915
1.1037349
-3.6664696
0.99292285
-3.3968728
0.89013698
-3.1470089
0.79525391
-2.9148447
0.70746678
-2.6995573
0.62522517
-2.5003429
0.54560904
-2.3141272
0.47664398
-2.1441103
0.40622017
-1.9810198
0.36177045
-1.8470866
0.31414658
-1.7001229
0.24754274
-1.5641929
0.17606558
-1.4436645
0.13563418
-1.3449847
0.08295573
-1.2558848
-1.2347624
21.268649
-44.239845
19.664456
-40.959303
18.178069
-37.920015
16.800995
-35.111361
15.529288
-32.517734
14.355452
-30.106472
13.263317
-27.873329
12.252983
-25.809862
11.319797
-23.897576
10.453129
-22.129323
9.6528166
-20.495201
8.9067674
-18.977006
8.2135444
-17.578533
7.5756105
-16.282346
6.9840817
-15.07756
6.4365178
-13.965439
5.9297884
-12.935784
5.4602758
-11.980508
5.0252779
-11.094875
4.6226103
-10.275757
4.249034
-9.5196451
3.9028034
-8.8180689
3.5821184
-8.16773
3.2846308
-7.566322
3.0084704
-7.0100248
2.7520565
-6.494561
2.5146269
-6.0169481
2.2946169
-5.5746215
2.0904943
-5.1650911
1.9009203
-4.7856062
1.7253124
-4.4339957
1.5626316
-4.108251
1.4118672
-3.8063789
1.2719607
-3.5264224
1.1415918
-3.2667591
1.0202725
-3.0262712
0.90775498
-2.8024615
0.8043932
-2.5956886
0.7086032
-2.404433
0.61884147
-2.2248002
0.53452381
-2.0596297
0.45931314
-1.9048833
0.37320491
-1.7610728
0.2953944
-1.6223421
0.23524401
-1.5040292
0.18129895
-1.391037
0.11208136
-1.2774955
0.056647518
-1.2009699
-1.1777969
24.977114
-42.19972
23.092268
-39.073625
21.349528
-36.177483
19.730683
-33.49378
18.229795
-31.018708
16.849326
-28.725467
15.567523
-26.592309
14.375504
-24.618998
13.273367
-22.795315
12.254229
-21.110036
11.308952
-19.549854
10.436109
-18.104016
9.6248674
-16.767283
8.8743504
-15.531673
8.1803006
-14.383329
7.5346791
-13.320183
6.9364423
-12.33779
6.3826081
-11.427397
5.8717277
-10.584122
5.3990061
-9.802465
4.9591229
-9.0796929
4.5517565
-8.4106665
4.1747386
-7.7906197
3.8243143
-7.21652
3.5000206
-6.685786
3.2001737
-6.1943244
2.9216835
-5.7385013
2.6632496
-5.3162054
2.4233888
-4.9252965
2.2007845
-4.5633891
1.9947937
-4.2280187
1.804112
-3.9171835
1.6273975
-3.6291717
1.4632608
-3.362056
1.3108824
-3.1145693
1.1687806
-2.8846572
1.0383151
-2.6723505
0.91631962
-2.4733637
0.80232102
-2.2900504
0.69855736
-2.1212925
0.60257786
-1.9637984
0.51180679
-1.8134115
0.43052952
-1.679785
0.3614134
-1.5536187
0.28686498
-1.4300381
0.21157327
-1.316867
0.14912342
-1.2163604
0.081166983
-1.1335076
-1.0964595
29.0753
-39.829429
26.881169
-36.878852
24.843381
-34.141043
22.956318
-31.608272
21.20652
-29.271114
19.590566
-27.109631
18.097807
-25.100136
16.715558
-23.238558
15.433989
-21.512713
14.245181
-19.920925
13.142645
-18.447961
12.121324
-17.082882
11.174479
-15.820432
10.297819
-14.654775
9.4899165
-13.575276
8.7415658
-12.572098
8.0470837
-11.643382
7.402784
-10.783833
6.8056187
-9.9873007
6.253791
-9.2501419
5.7425726
-8.5684083
5.2688124
-7.936887
4.8300636
-7.3517306
4.4225627
-6.8097479
4.0448215
-6.308261
3.6952558
-5.8442125
3.3708432
-5.4141729
3.0701094
-5.0156761
2.7914908
-4.646721
2.5329002
-4.3050692
2.2932774
-3.9884945
2.07153
-3.6951109
1.8661716
-3.4232825
1.6757754
-3.1713281
1.4986972
-2.9376414
1.3349252
-2.7212721
1.1816125
-2.5194705
1.0419992
-2.333721
0.91291059
-2.160551
0.79080534
-1.9992063
0.67522428
-1.848434
0.57581315
-1.7136906
0.47634232
-1.5801478
0.38129459
-1.4590309
0.29650398
-1.345811
0.21939232
-1.2404563
0.14584568
-1.143877
0.075395244
-1.063499
-1.0209487
33.470342
-37.092714
30.933153
-34.341346
28.585492
-31.794835
26.416077
-29.438408
24.40365
-27.259127
22.544748
-25.250756
20.822118
-23.37771
19.224584
-21.641598
17.747193
-20.034991
16.3801
-18.55373
15.113529
-17.18225
13.940375
-15.910414
12.854051
-14.734318
11.845228
-13.645576
10.908821
-12.638269
10.042073
-11.705542
9.2407397
-10.842332
8.4989106
-10.042763
7.8130348
-9.3017935
7.1781013
-8.6146038
6.5884351
-7.9784277
6.0416353
-7.3901072
5.5357991
-6.845566
5.0665578
-6.3411209
4.6317641
-5.8739193
4.2297737
-5.4414991
3.8566873
-5.0410405
3.5105451
-4.6699057
3.189797
-4.3261514
2.8924819
-4.0079036
2.6169231
-3.7130404
2.3618725
-3.4397884
2.1257467
-3.1866176
1.9068796
-2.9520099
1.7037275
-2.7345949
1.514833
-2.5326951
1.3407837
-2.3458396
1.1780898
-2.1712778
1.0277784
-2.009946
0.89017491
-1.8613753
0.76445265
-1.7227914
0.64300019
-1.5921058
0.5349555
-1.471717
0.43496765
-1.3593556
0.34113633
-1.2524182
0.25274186
-1.1527124
0.16949658
-1.0614076
0.086433275
-0.98078354
-0.93449958
38.095953
-33.978386
35.216289
-31.461671
32.545884
-29.123959
30.070847
-26.961799
27.775979
-24.963879
25.652394
-23.126792
23.689466
-21.414346
21.871062
-19.823518
20.185533
-18.350026
18.625407
-16.992397
17.180545
-15.737564
15.842298
-14.573217
14.602868
-13.494899
13.456214
-12.498608
12.395285
-11.576824
11.411857
-10.722324
10.499836
-9.9304702
9.6538893
-9.197412
8.8703984
-8.5186522
8.1464687
-7.8900564
7.4762982
-7.3078379
6.8547114
-6.7687055
6.2792171
-6.269623
5.7452736
-5.807543
5.2501688
-5.3795794
4.7928766
-4.983397
4.3687415
-4.6165193
3.9749798
-4.2765262
3.6100189
-3.9615622
3.2719726
-3.6699511
2.9586836
-3.3998311
2.6686358
-3.1495259
2.4000974
-2.9175909
2.1514023
-2.702752
1.9203909
-2.5035932
1.7065054
-2.3190724
1.5076955
-2.1473725
1.3243306
-1.9883284
1.1546377
-1.8402851
0.9967679
-1.7032038
0.84975008
-1.5755998
0.71487614
-1.4570119
0.59188542
-1.3482971
0.47453149
-1.241967
0.36798508
-1.1462477
0.26837935
-1.0535571
0.17660622
-0.97022112
0.089443083
-0.89402383
-0.84510295
42.819169
-30.474934
39.569271
-28.213173
36.563491
-26.118718
33.78363
-24.182068
31.207794
-22.38837
28.819662
-20.739711
26.614946
-19.20913
24.571033
-17.779554
22.677775
-16.457285
20.924769
-15.238325
19.299609
-14.112283
17.794277
-13.068456
16.401121
-12.101686
15.110228
-11.20727
13.914252
-10.380521
12.807296
-9.6151449
11.782927
-8.9059165
10.833728
-8.2487146
9.9543138
-7.6398651
9.1404896
-7.0758715
8.3867228
-6.5535822
7.6877447
-6.0700188
7.0408295
-5.6223161
6.4411772
-5.2078713
5.8845314
-4.8239151
5.3700157
-4.468293
4.8934554
-4.1392109
4.4510915
-3.8344138
4.0410297
-3.5520096
3.6613742
-3.2904239
3.3095329
-3.0480744
2.9836778
-2.8235463
2.6819607
-2.6155035
2.4026766
-2.4228671
2.1436342
-2.2444072
1.903188
-2.0788243
1.6808121
-1.9252405
1.4744233
-1.7823818
1.2832739
-1.6494592
1.1068395
-1.5266356
0.94450622
-1.4129832
0.7937039
-1.3058509
0.65308386
-1.2072042
0.52650215
-1.1149651
0.4075881
-1.027386
0.29840902
-0.94453076
0.19640968
-0.86859788
0.097866828
-0.79585899
-0.74730303
47.484987
-26.58572
43.885108
-24.613977
40.55279
-22.787718
37.465702
-21.096022
34.60853
-19.53143
31.954648
-18.087127
29.507173
-16.761056
27.240683
-15.512533
25.142446
-14.359358
23.197444
-13.292691
21.394333
-12.308508
19.723664
-11.398199
18.177162
-10.555099
16.745575
-9.7750224
15.419236
-9.0540887
14.191105
-8.3867751
13.05401
-7.7684883
12.000618
-7.1955869
11.024625
-6.6646929
10.121728
-6.1728046
9.2858549
-5.7171401
8.5107591
-5.2951929
7.793099
-4.904514
7.1284582
-4.5428841
6.511512
-4.2079464
5.9409126
-3.8975493
5.4128255
-3.6102217
4.9226122
-3.344276
4.4680269
-3.0979443
4.0471577
-2.8697333
3.6572885
-2.6583038
3.2961421
-2.4623837
2.9617173
-2.2808669
2.6521317
-2.1127551
2.3652053
-1.9571858
2.0991261
-1.8128382
1.8525876
-1.6788469
1.6241341
-1.554306
1.412898
-1.4387419
1.2170684
-1.3309121
1.0358455
-1.2315059
0.86948846
-1.139064
0.71426692
-1.0514171
0.57123454
-0.97140268
0.43963022
-0.89549846
0.31791137
-0.82274626
0.20631442
-0.75718076
0.10191571
-0.69176025
-0.64547944
51.914795
-22.331712
47.975249
-20.674656
44.327643
-19.141757
40.952423
-17.721522
37.830182
-16.408244
34.927744
-15.185097
32.251166
-14.084062
29.77219
-13.033244
27.476314
-12.063565
25.350895
-11.166363
23.381437
-10.337673
21.555679
-9.5726535
19.865103
-8.8644845
18.299708
-8.2089806
16.848963
-7.6033358
15.505485
-7.0432355
14.261698
-6.524485
13.109827
-6.0437609
12.042407
-5.5981901
11.054814
-5.1852271
10.140889
-4.8025959
9.293647
-4.4481522
8.508885
-4.1198822
7.7824219
-3.8159366
7.1081881
-3.534489
6.4840163
-3.2736166
5.906646
-3.0320455
5.3710105
-2.808577
4.8743174
-2.6016965
4.4144219
-2.4100297
3.9884706
-2.2324224
3.5938433
-2.0678102
3.228324
-1.915279
2.8899601
-1.7740262
2.5764642
-1.6433137
2.2859256
-1.5222507
2.0167135
-1.4096797
1.7673478
-1.305216
1.5359368
-1.2079146
1.3225863
-1.1178828
1.1250315
-1.033827
0.94244577
-0.95608463
0.77483336
-0.88319887
0.61898023
-0.81497418
0.47552661
-0.75161956
0.34405957
-0.69101887
0.22212563
-0.63529617
0.10951217
-0.57934688
-0.53606183
55.909143
-17.7489
51.667937
-16.433712
47.73867
-15.213539
44.102046
-14.085022
40.73971
-13.045087
37.607676
-12.053814
34.721743
-11.199719
32.052634
-10.363847
29.579893
-9.5900274
27.289963
-8.8756238
25.169448
-8.2157121
23.204133
-7.6071601
21.384339
-7.0446958
19.699557
-6.5237633
18.13841
-6.0423344
16.692219
-5.5972026
15.352666
-5.184975
14.112072
-4.803089
12.962211
-4.4492074
11.89792
-4.1211606
10.913089
-3.8171456
10.000344
-3.5355074
9.1548445
-3.2746265
8.3724229
-3.0329894
7.6467002
-2.8092253
6.9744438
-2.6017792
6.3525354
-2.4095833
5.7759013
-2.2318479
5.2412585
-2.0674255
4.7461742
-1.9151193
4.2876893
-1.7739439
3.8629022
-1.6430873
3.4693695
-1.5217796
3.1049876
-1.4094718
2.7675643
-1.3055311
2.454875
-1.2093703
2.1653296
-1.1200631
1.8968264
-1.0368975
1.6481501
-0.95981339
1.4178542
-0.88803818
1.2055303
-0.82148459
1.0090991
-0.75936108
0.82789629
-0.7014796
0.66059535
-0.64707635
0.5058147
-0.59634932
0.36467397
-0.54947972
0.2330674
-0.50358879
0.11286083
-0.45930832
-0.42330891
59.272707
-12.890096
54.772719
-11.934774
50.607861
-11.049022
46.752311
-10.229324
43.188246
-9.4806468
39.873368
-8.7407991
36.813201
-8.1398657
33.979277
-7.5300449
31.355745
-6.9665003
28.925897
-6.4460246
26.676592
-5.9658944
24.592342
-5.5228403
22.661917
-5.1143957
20.874847
-4.7363475
19.219882
-4.3873722
17.687331
-4.0647534
16.268014
-3.7658032
14.953854
-3.4887473
13.735771
-3.2318825
12.607773
-2.9935675
11.563724
-2.7726073
10.596055
-2.5679154
9.6994815
-2.3783335
8.8697371
-2.2027444
8.1005375
-2.0401686
7.3878152
-1.8894621
6.7283141
-1.7497824
6.1170749
-1.6205935
5.5504909
-1.5011712
5.0258303
-1.3905807
4.5399746
-1.2880285
4.0898085
-1.1929531
3.6727244
-1.1047952
3.2863851
-1.0231393
2.9287433
-0.94763107
2.5974999
-0.87782251
2.2906698
-0.81303499
2.0063136
-0.75266715
1.7426072
-0.69665998
1.4987159
-0.64463697
1.2735552
-0.59636195
1.0655084
-0.55110085
0.87322782
-0.50883339
0.69597772
-0.46932682
0.53285133
-0.43269443
0.38198217
-0.39811929
0.24463656
-0.36599943
0.11886809
-0.33365227
-0.30453985
61.823352
-7.8213373
57.129763
-7.2419727
52.785329
-6.7047061
48.764042
-6.2077722
45.041142
-5.756832
41.597035
-5.2974546
38.386444
-4.9298444
35.433091
-4.5761441
32.701341
-4.2347008
30.16721
-3.9116789
27.820735
-3.61856
25.646992
-3.3487401
23.63297
-3.1003194
21.768475
-2.8713517
20.041942
-2.6604895
18.443028
-2.4656468
16.962206
-2.2849882
15.591476
-2.1175671
14.32142
-1.9622568
13.145238
-1.8177977
12.056533
-1.6835436
11.047543
-1.5590482
10.112583
-1.4437033
9.2471171
-1.3368865
8.4450549
-1.238066
7.701803
-1.1465133
7.0138031
-1.0616408
6.3762011
-0.98312476
5.7853371
-0.91062831
5.2382646
-0.84353243
4.7316341
-0.78127095
4.2622389
-0.72352132
3.8272794
-0.66995447
3.4242909
-0.62031183
3.0512152
-0.57446516
2.7059096
-0.53214903
2.3860985
-0.49288779
2.089586
-0.45624131
1.8146292
-0.42227114
1.5603118
-0.39080612
1.3254852
-0.36153901
1.1086461
-0.33404796
0.90815974
-0.30811499
0.72309196
-0.28396451
0.55257372
-0.26170949
0.39611497
-0.24110077
0.25241048
-0.22196505
0.12151304
-0.20279274
-0.18310138
63.416578
-2.6213941
58.601678
-2.4274102
54.145057
-2.2477982
50.019818
-2.0819223
46.198525
-1.9348569
42.671949
-1.770385
39.391825
-1.6503398
36.358548
-1.5432472
33.548158
-1.4238543
30.94379
-1.3069277
28.535221
-1.2090965
26.305576
-1.1187117
24.240328
-1.0348875
22.32808
-0.9583969
20.557147
-0.88879682
18.916807
-0.82483817
17.397459
-0.76557476
15.991031
-0.71049932
14.687974
-0.65926271
13.481295
-0.61125149
12.364345
-0.56618732
11.329313
-0.52414702
10.370336
-0.48511403
9.4826573
-0.44894677
8.6602374
-0.41553342
7.8980957
-0.38456936
7.1923907
-0.35584115
6.5382842
-0.32930275
5.9322328
-0.30492231
5.3712139
-0.28241512
4.8516168
-0.26147196
4.3702398
-0.24201631
3.9241244
-0.22394222
3.510716
-0.20718731
3.1279757
-0.19179771
2.7738888
-0.17767812
2.4460529
-0.16458447
2.1420203
-0.15227333
1.8600371
-0.14091693
1.5992357
-0.13047858
1.3585568
-0.12076928
1.1362311
-0.11143228
0.9306625
-0.10240994
0.74080004
-0.094026049
0.56596979
-0.086547041
0.40538689
-0.079952435
0.25787904
-0.074053718
0.12314365
-0.068031824
-0.060036369
63.95808
2.6233253
59.101551
2.4292614
54.606511
2.2473165
50.445088
2.080856
46.590881
1.920999
43.02396
1.7964415
39.718667
1.6540278
36.656306
1.5188439
33.82645
1.4066059
31.205625
1.3139646
28.776795
1.2198182
26.527896
1.1299851
24.445918
1.0470527
22.518408
0.96968625
20.733425
0.89697886
19.07956
0.82950539
17.547219
0.76678163
16.128639
0.70876062
14.814229
0.65528985
13.596829
0.60621903
12.469781
0.56128592
11.425449
0.51999077
10.457985
0.48188323
9.5625734
0.44664596
8.7332234
0.41400819
7.9646916
0.38385513
7.2529787
0.35596353
6.5932179
0.33006006
5.9820157
0.30591473
5.4163593
0.28346647
4.8924064
0.2627487
4.4070122
0.24358128
3.9571298
0.22585716
3.5401694
0.2094059
3.1541256
0.19407163
2.7971029
0.17974431
2.4666271
0.16645051
2.1600718
0.15420509
1.8757006
0.14274823
1.6127837
0.13198924
1.3702035
0.12201128
1.1461523
0.11301014
0.93889816
0.10492033
0.74743236
0.097329305
0.57117871
0.089917576
0.40931528
0.082461246
0.26023036
0.075484199
0.12300251
0.069283527
0.062924353
63.415719
7.8232235
58.601004
7.2441933
54.14432
6.704705
50.018305
6.2080201
46.197422
5.7429828
42.663605
5.3316378
39.385868
4.9303947
36.349374
4.5545271
33.538462
4.2182603
30.93929
3.9137503
28.532725
3.6263481
26.303568
3.3583169
24.239568
3.1106069
22.328419
2.8810774
20.558189
2.6677825
18.918283
2.4697471
17.398933
2.2860303
15.992569
2.1157106
14.689757
1.9582672
13.482998
1.8130612
12.365475
1.6791161
11.329858
1.5553185
10.370448
1.4408096
9.4824627
1.3348241
8.6600828
1.2366971
7.897996
1.1459066
7.1921854
1.0618483
6.5378381
0.98392379
5.9317611
0.91162908
5.3709687
0.84459665
4.8514693
0.78256671
4.3701834
0.72511659
3.9240842
0.67188653
3.5105572
0.62252006
3.1276985
0.57671728
2.7736735
0.5341891
2.4459819
0.49474407
2.1419047
0.458156
1.8598138
0.42406253
1.5990996
0.39230477
1.3585713
0.36285284
1.1364026
0.33567366
0.93075025
0.31062078
0.74074486
0.28707675
0.56581235
0.26494452
0.40525448
0.24353355
0.25790008
0.22332309
0.12310427
0.20422265
0.18599682
61.821792
12.891853
57.128748
11.937102
52.784666
11.050197
48.76288
10.230533
45.0393
9.4669421
41.595007
8.7771512
38.3985
8.1267693
35.438293
7.5140791
32.698949
6.95806
30.166406
6.4473541
27.820946
5.9723057
25.646546
5.5323043
23.632866
5.1242521
21.768573
4.7455905
20.042453
4.3942907
18.444116
4.0682339
16.963586
3.7662722
15.59296
3.4867398
14.323151
3.2282569
13.146874
2.9894859
12.05735
2.7688302
11.047643
2.5646718
10.112266
2.3757213
9.2465467
2.2007829
8.4448401
2.0388093
7.7018656
1.8888847
7.0136671
1.7500778
6.3755769
1.6214479
5.784678
1.5021967
5.2380022
1.3917092
4.7315093
1.2894145
4.2622336
1.1946498
3.8272497
1.106792
3.4239952
1.0253512
3.0506824
0.949839
2.705512
0.8798178
2.3859706
0.81487825
2.0893353
0.7545583
1.8142124
0.69835427
1.5600499
0.64616341
1.3256028
0.59773225
1.1089126
0.55294954
0.90844617
0.51111836
0.72284999
0.47231746
0.55257738
0.43521835
0.3955857
0.40097671
0.25237084
0.36703001
0.1220384
0.33475194
0.30802821
59.271192
17.750089
54.772912
16.434293
50.608753
15.21634
46.753576
14.087066
43.184815
13.035994
39.872746
12.089091
36.815203
11.185154
33.981801
10.346917
31.357973
9.5816336
28.929146
8.8758855
26.677642
8.2237672
24.591059
7.6186123
22.660015
7.0555455
20.872918
6.5329186
19.21878
6.0487481
17.686759
5.6002087
16.267601
5.1849671
14.953919
4.8007654
13.736894
4.445542
12.609299
4.1172136
11.564608
3.8135486
10.596383
3.5324469
9.6994527
3.2721661
8.8693613
3.0311156
8.1006613
2.8079225
7.3882503
2.601324
6.7282531
2.4100517
6.1162622
2.2327943
5.549697
2.0685129
5.0255614
1.9163677
4.53987
1.7754686
4.0898214
1.6449141
3.672655
1.5238528
3.285934
1.4116777
2.9279567
1.3076885
2.5969664
1.2113096
2.2904625
1.1219006
2.0059205
1.0387249
1.7419976
0.96143928
1.4984198
0.88957857
1.2736542
0.82303533
1.0660556
0.76115628
0.87332428
0.7038436
0.69619964
0.64904855
0.53153675
0.5998317
0.38273581
0.55019564
0.24388617
0.50636662
0.11769878
0.46118013
0.42573642
55.907593
22.33265
51.664469
20.676421
47.73852
19.14348
44.102202
17.724475
40.740564
16.398013
37.607274
15.222482
34.732807
14.060866
32.064559
13.014124
29.588573
12.05733
27.292896
11.171051
25.167191
10.349173
23.199878
9.5852508
21.379698
8.8758018
19.694564
8.2180424
18.134635
7.6088119
16.689777
7.0448112
15.35127
6.5229667
14.112231
6.0402441
12.964207
5.5938654
11.900436
5.18107
10.914769
4.799101
10.001238
4.4454182
9.1550333
4.1178205
8.3720046
3.814373
7.6468967
3.53345
6.9748726
3.273434
6.3521274
3.0326678
5.7746737
2.8095275
5.2402813
2.6028023
4.7458316
2.4113912
4.2875541
2.2340734
3.862867
2.0697385
3.469204
1.9173929
3.1043429
1.7762005
2.7665479
1.6454301
2.4543211
1.5240592
2.1649607
1.411636
1.8962851
1.3068792
1.6473944
1.2095854
1.4176418
1.1193421
1.2056765
1.0355889
1.0094448
0.95794693
0.82823695
0.88500673
0.65985545
0.8170379
0.50657158
0.75307345
0.36315705
0.69397276
0.23445624
0.63555966
0.11536466
0.58054379
0.54112166
51.914609
26.585515
47.973495
24.615356
44.330023
22.788884
40.956708
21.098177
37.827316
19.526866
34.926435
18.122646
32.257909
16.728961
29.777491
15.49425
27.474639
14.360156
25.342832
13.302092
23.371664
12.31984
21.546929
11.409137
19.858641
10.564098
18.295032
9.7814216
16.846873
9.0570496
15.504877
8.3865168
14.261862
7.7656518
13.1116
7.1911434
12.045822
6.6600859
11.058116
6.1689719
10.142827
5.7142596
9.2945816
5.293023
8.5089826
4.9028431
7.7821035
4.5415802
7.108815
4.2071937
6.4846822
3.8976314
5.9061062
3.6108948
5.369704
3.3451844
4.8734661
3.0991155
4.414171
2.8712424
3.9884019
2.6600799
3.5937961
2.4644033
3.2280903
2.2829855
2.889083
2.1149361
2.5754236
1.9591183
2.2851927
1.8148031
2.0163505
1.6806494
1.7665952
1.5559945
1.5353936
1.4402095
1.3221627
1.3327724
1.1251232
1.2332264
0.9429205
1.1406187
0.77458351
1.0532522
0.61828291
0.97300408
0.47475142
0.89659167
0.34427945
0.82474758
0.22022406
0.7600786
0.10675638
0.69431831
0.64791165
47.485699
30.474095
43.883575
28.214912
40.551566
26.121855
37.46755
24.18295
34.598395
22.39533
31.967065
20.752467
29.515447
19.178168
27.241197
17.768821
25.138582
16.463413
23.190598
15.249116
21.387895
14.121467
19.719143
13.077125
18.174747
12.1084
16.743983
11.211807
15.419202
10.381962
14.191801
9.6135322
13.055151
8.9021453
12.003195
8.2439063
11.028384
7.6354421
10.125032
7.0725119
9.2878801
6.5512243
8.5118103
6.0683862
7.7930984
5.6211338
7.1282208
5.2069701
6.5122896
4.8235572
5.9412596
4.4685925
5.4117989
4.1398184
4.921099
3.8352577
4.4671853
3.5532506
4.0468827
3.2920028
3.65719
3.0499021
3.2960556
2.8255643
2.9613387
2.6176244
2.6511123
2.4249648
2.3640165
2.2463381
2.098459
2.0808121
1.8521046
1.9269336
1.6234429
1.7839804
1.4117865
1.6515258
1.2169363
1.527978
1.0361373
1.4145767
0.86965863
1.3074544
0.71436014
1.2084208
0.57243705
1.1147137
0.4408905
1.0281224
0.3186045
0.94730086
0.2098653
0.86920642
0.10540094
0.79909782
0.75335553
42.818057
33.978968
39.566841
31.464176
36.562828
29.124946
33.784518
26.962443
31.200879
24.979388
28.835521
23.117621
26.620984
21.391396
24.571667
19.819123
22.676612
18.358419
20.921348
17.003723
19.295837
15.746225
17.792464
14.58008
16.400886
13.499877
15.111467
12.500838
13.917405
11.575971
12.810366
10.719818
11.785765
9.9266911
10.837526
9.1929401
9.9583205
8.5150266
9.1431233
7.887677
8.3876255
7.3064405
7.6875628
6.7677523
7.039765
6.2687764
6.440395
5.8069783
5.8848902
5.3795109
5.3696518
4.9837217
4.8919168
4.6170366
4.4494021
4.2773783
4.0400732
3.9628673
3.6608685
3.6715307
3.309242
3.4015855
2.9833939
3.1514494
2.6813259
2.9196469
2.4014172
2.7047503
2.1423936
2.5055734
1.9026385
2.320879
1.6800183
2.1492622
1.473447
1.9899623
1.2829331
1.8419623
1.1065555
1.7047835
0.94396869
1.5776304
0.79322871
1.4584026
0.65392998
1.3476057
0.52411913
1.2444219
0.40527916
1.1469937
0.29657818
1.0561499
0.19064948
0.9755881
0.094723998
0.89533953
0.84809739
38.098272
37.091746
35.219011
34.341649
32.54761
31.795624
30.067641
29.442577
27.779826
27.268717
25.666726
25.230222
23.690367
23.367908
21.868403
21.643222
20.183142
20.04449
18.623316
18.563412
17.179768
17.189186
15.845004
15.914552
14.607558
14.737496
13.460423
13.647903
12.397598
12.638641
11.412875
11.703714
10.501609
10.838147
9.6575059
10.037823
8.8748551
9.2981671
8.1494745
8.6128478
7.477686
7.9777311
6.8551923
7.389506
6.2790277
6.8449767
5.7457585
6.3409491
5.2514148
5.8743766
4.792839
5.4421951
4.3676256
5.0418456
3.9737379
4.6710876
3.6092582
4.3276523
3.2715267
4.0094782
2.9584513
3.7147144
2.6682857
3.441669
2.3992152
3.1886643
2.1499419
2.9539605
1.9192861
2.7364761
1.7054795
2.534774
1.5070106
2.3473056
1.323206
2.173361
1.1537983
2.0114984
0.99627773
1.8627288
0.85123415
1.7230448
0.7162243
1.5934967
0.59126626
1.4725197
0.47669569
1.3589955
0.36978717
1.2539094
0.26828792
1.1577077
0.18119573
1.0632224
0.09303015
0.98372842
0.94110876
33.472056
39.828452
30.937393
36.874538
28.58966
34.142201
26.415712
31.614472
24.413529
29.270828
22.548807
27.093565
20.821222
25.095258
19.22533
23.24119
17.745638
21.525055
16.376305
19.932923
15.10989
18.455408
13.937533
17.087021