/*--------------------------------*- C++ -*----------------------------------*\
| =========                 |                                                 |
| \\      /  F ield         | OpenFOAM: The Open Source CFD Toolbox           |
|  \\    /   O peration     | Version:  2506                                  |
|   \\  /    A nd           | Website:  www.openfoam.com                      |
|    \\/     M anipulation  |                                                 |
\*---------------------------------------------------------------------------*/
FoamFile
{
    version     2.0;
    format      ascii;
    arch        "LSB;label=32;scalar=64";
    class       volScalarField;
    location    "1.3";
    object      Co;
}
// * * * * * * * * * * * * * * * * * * * * * * * * * * * * * * * * * * * * * //

dimensions      [0 0 0 0 0 0 0];

internalField   nonuniform List<scalar> 
1376
(
0.0063579851
0.0065102766
0.0066600019
0.0067967424
0.0063580687
0.0065069849
0.0066536159
0.0067874498
0.0069094049
0.0070217847
0.0071263322
0.0072240576
0.0073154464
0.0074006652
0.0063580647
0.0065040968
0.0066478175
0.0067788477
0.0068982079
0.0070082318
0.007110653
0.0072064605
0.0072961142
0.0073797635
0.0074573992
0.0075289361
0.0075942782
0.0076533594
0.0077061611
0.0063579445
0.0065014875
0.006642337
0.0067706046
0.006887423
0.0069951426
0.0070954787
0.0071893933
0.0072773231
0.0073593984
0.007435594
0.0075058156
0.0075699587
0.0076279499
0.0076797602
0.0077254073
0.0077649477
0.0077984904
0.0078261559
0.0063578414
0.0064989576
0.006637166
0.0067628347
0.0068772124
0.006982684
0.0070809608
0.0071729873
0.0072591801
0.0073396517
0.0074143651
0.0074832195
0.0075461095
0.0076029612
0.0076537416
0.0076984578
0.0077371502
0.0077699025
0.0077968254
0.0078180563
0.0078337948
0.0078442618
0.0078497286
0.0063576751
0.0064963521
0.0066318722
0.0067549459
0.006866943
0.0069702536
0.0070665644
0.0071567912
0.0072413265
0.0073202622
0.0073935453
0.0074610654
0.0075227132
0.0075784134
0.0076281307
0.0076718694
0.0077096686
0.0077415972
0.0077677516
0.0077882576
0.0078032866
0.007813039
0.0078177626
0.0078177448
0.007813323
0.0078048674
0.0077927828
0.0063575567
0.0064939895
0.0066269854
0.0067475703
0.0068572314
0.0069583853
0.0070527114
0.0071411103
0.0072239583
0.0073013348
0.007373176
0.007439365
0.0074997878
0.0075543623
0.0076030439
0.0076458206
0.00768271
0.0077137644
0.0077390718
0.0077587534
0.0077729709
0.0077819184
0.0077858354
0.0077849982
0.0077797115
0.0077703297
0.0077572465
0.0077408933
0.0077217108
0.0077001765
0.0063575482
0.0064915686
0.0066219761
0.0067400766
0.0068474697
0.0069465568
0.007038982
0.0071256187
0.0072068256
0.0072826718
0.0073530882
0.0074179558
0.0074771608
0.0075306197
0.0075782807
0.0076201205
0.0076561437
0.0076863874
0.0077109156
0.007729824
0.0077432549
0.0077513902
0.0077544532
0.0077527267
0.0077465073
0.0077361502
0.0077220239
0.0077045316
0.0076841069
0.0076612121
0.0076363358
0.0076099919
0.0075827182
0.0063577028
0.0064894054
0.0066174291
0.0067331648
0.0068383336
0.0069353567
0.0070258713
0.0071107344
0.0071902877
0.0072645884
0.007333559
0.0073970762
0.0074550243
0.0075073178
0.0075539023
0.0075947478
0.007629849
0.0076592335
0.0076829543
0.0077010975
0.0077137867
0.0077211777
0.007723453
0.0077208683
0.0077137027
0.0077023065
0.0076870647
0.0076683658
0.0076466448
0.0076223447
0.0075959437
0.0075679363
0.0075388573
0.0075092505
0.007479687
0.0063575461
0.0064868705
0.0066124903
0.0067259418
0.0068290372
0.0069241606
0.0070129155
0.0070961333
0.0071741398
0.0072469824
0.0073145781
0.0073767999
0.0074335278
0.0074846706
0.0075301662
0.0075699777
0.0076040951
0.0076325406
0.0076553584
0.0076726262
0.0076844613
0.0076910204
0.0076924845
0.0076890881
0.0076810892
0.0076687784
0.0076525071
0.0076326491
0.0076096429
0.0075839222
0.0075559625
0.007526257
0.0074953357
0.007463737
0.0074320378
0.0074007972
0.0073706095
0.0073421263
0.0063577268
0.0064841962
0.0066075224
0.0067187295
0.0068197358
0.0069129428
0.0069999438
0.0070815482
0.0071580603
0.0072295134
0.0072958133
0.0073568237
0.0074124169
0.0074625009
0.0075069938
0.0075458535
0.0075790524
0.0076066012
0.0076285268
0.0076448938
0.0076558054
0.0076614099
0.0076618844
0.0076574694
0.0076484549
0.0076351412
0.0076178598
0.0075969236
0.0075727125
0.007545642
0.0075161883
0.0074848331
0.0074520957
0.0074185207
0.0073846877
0.0073511621
0.0073185311
0.0072873542
0.0072582456
0.007231847
0.0063579424
0.0064814384
0.0066024279
0.0067114235
0.0068104104
0.0069017616
0.0069870458
0.0070670525
0.0071420725
0.0072121298
0.0072771231
0.0073369106
0.0073913608
0.0074403855
0.0074838839
0.007521817
0.0075541439
0.0075808687
0.0076020008
0.007617591
0.0076277248
0.007632522
0.0076321407
0.0076267811
0.0076166926
0.0076021711
0.007583601
0.007561373
0.0075359015
0.0075075522
0.007476716
0.0074438187
0.0074093536
0.0073738508
0.0073378675
0.0073019901
0.007266825
0.007232937
0.007200928
0.0071713816
0.0071449554
0.0071224085
0.0063581498
0.0064788787
0.0065976005
0.0067043956
0.006801342
0.0068908278
0.0069744089
0.0070528489
0.0071264164
0.0071951183
0.0072588403
0.0073174295
0.0073707526
0.007418709
0.0074611935
0.0074981556
0.0075295569
0.007555389
0.0075756609
0.0075904172
0.0075997368
0.0076037224
0.0076025163
0.0075963058
0.0075853268
0.0075698413
0.0075501588
0.0075266244
0.0074996581
0.0074697174
0.0074372708
0.0074027629
0.0073666172
0.0073292853
0.0072912777
0.0072531952
0.0072156203
0.0071791282
0.0071442926
0.00711169
0.0070818689
0.007055615
0.0070332373
0.0063582501
0.0064765032
0.0065928719
0.0066974323
0.0067923169
0.0068799065
0.0069617421
0.0070385719
0.007110654
0.0071779842
0.0072404376
0.0072978537
0.0073501011
0.0073970473
0.0074385924
0.0074746516
0.0075051947
0.0075301778
0.0075496053
0.0075635125
0.0075719743
0.0075750975
0.0075730239
0.0075659296
0.0075540258
0.0075375741
0.0075168783
0.0074922703
0.0074641104
0.0074327944
0.0073987588
0.0073624887
0.0073244911
0.0072852672
0.0072452488
0.0072049364
0.0071649016
0.0071257422
0.007088046
0.007052428
0.0070193751
0.0069895652
0.006963322
0.0069420765
0.0069255282
0.0063583123
0.0064748649
0.0065889594
0.0066912872
0.0067840562
0.0068696718
0.0069496639
0.007024769
0.0070952379
0.007161064
0.0072221224
0.0072782558
0.0073293416
0.0073752321
0.0074158301
0.0074510141
0.0074807491
0.0075049641
0.0075236529
0.0075368243
0.0075445261
0.0075468445
0.007543908
0.0075358904
0.0075230143
0.0075055377
0.0074837547
0.0074579926
0.0074286104
0.0073959838
0.0073605127
0.0073226246
0.0072827912
0.0072415305
0.0071994039
0.0071569244
0.0071145841
0.007072905
0.0070324211
0.0069937283
0.0069574392
0.0069241842
0.0068942423
0.0068689281
0.0068480293
0.0068337429
0.0063583653
0.0064735635
0.0065854088
0.006685575
0.006776327
0.0068600546
0.0069382644
0.0070116763
0.0070805295
0.0071448112
0.0072043991
0.0072591435
0.0073089288
0.0073536134
0.0073931049
0.0074272895
0.007456117
0.0074795092
0.0074974393
0.0075099004
0.0075169168
0.0075185518
0.0075149054
0.0075061167
0.0074923747
0.0074739237
0.0074510585
0.0074241111
0.0073934496
0.0073594584
0.0073225499
0.0072831384
0.0072416591
0.0071985741
0.007154358
0.0071095557
0.0070647873
0.0070205547
0.0069773773
0.0069358024
0.0068963206
0.0068595186
0.0068257973
0.006796463
0.0067714028
0.0067526259
0.0067393443
0.006737874
0.0063586006
0.0064723535
0.0065820392
0.0066800741
0.0067688163
0.0068506689
0.0069271216
0.0069988775
0.0070661621
0.0071289544
0.0071871282
0.0072405365
0.0072890601
0.0073325605
0.0073709296
0.0074040628
0.0074318956
0.0074543566
0.0074714066
0.0074830362
0.0074892607
0.0074901368
0.0074857531
0.0074762363
0.0074617575
0.0074425194
0.007418757
0.0073907721
0.0073589077
0.0073235474
0.0072851078
0.0072440396
0.007200796
0.0071558505
0.0071096688
0.0070626919
0.0070154568
0.006968579
0.0069226534
0.0068781975
0.0068356807
0.0067956335
0.0067583568
0.0067250496
0.0066957594
0.0066722299
0.0066539374
0.0066473158
0.0066445985
0.0063592077
0.0064709378
0.0065784914
0.0066744607
0.006761275
0.0068413161
0.0069160501
0.0069861677
0.0070518888
0.0071131949
0.0071699644
0.0072220578
0.007269354
0.0073117157
0.0073490237
0.0073811726
0.0074080732
0.0074296512
0.0074458581
0.0074566698
0.0074620927
0.0074621684
0.0074569703
0.0074466004
0.0074312288
0.0074110699
0.0073863612
0.0073573893
0.0073244539
0.007287889
0.007248075
0.0072054473
0.0071604685
0.0071136227
0.0070654166
0.0070163369
0.0069668491
0.0069174226
0.0068686081
0.0068210697
0.0067754053
0.0067321048
0.006691446
0.0066544801
0.0066213443
0.006593437
0.0065701292
0.0065582219
0.0065493371
0.0063595308
0.0064692904
0.0065747944
0.0066687501
0.0067536917
0.0068319853
0.006905073
0.0069736231
0.0070378402
0.0070977009
0.0071530869
0.0072038611
0.0072499046
0.0072910876
0.0073272914
0.0073584199
0.0073843709
0.0074050626
0.0074204349
0.0074304507
0.0074351048
0.0074344094
0.0074284301
0.0074172801
0.0074010915
0.0073800531
0.0073543943
0.0073243841
0.0072903348
0.0072525828
0.0072114825
0.0071674048
0.0071207741
0.0070720712
0.0070217769
0.0069704091
0.006918528
0.0068666792
0.0068153176
0.0067648807
0.0067159743
0.0066692161
0.006624962
0.0065840781
0.0065469088
0.0065148897
0.0064869913
0.006470277
0.0064554202
0.0063596112
0.0064673921
0.0065708602
0.0066628452
0.0067459648
0.0068225558
0.0068940443
0.0069610815
0.0070238598
0.0070823467
0.007136422
0.0071859495
0.007230799
0.0072708417
0.0073059591
0.0073360527
0.0073610156
0.00738078
0.0073952911
0.0074044998
0.0074083909
0.0074069723
0.0074002727
0.0073883714
0.0073713681
0.0073494436
0.0073228012
0.0072916964
0.0072564368
0.0072173531
0.0071748414
0.0071293085
0.0070811475
0.0070307606
0.0069786213
0.0069251889
0.0068709444
0.0068164365
0.0067623091
0.0067091533
0.0066573976
0.0066074823
0.0065598702
0.0065153924
0.0064743492
0.0064380146
0.0064051722
0.0063836264
0.0063628713
0.0063597854
0.0064653179
0.006566843
0.006656933
0.0067382774
0.0068132038
0.0068831236
0.0069486712
0.0070100314
0.0070671709
0.0071199703
0.0071682889
0.0072119901
0.0072509424
0.0072850258
0.007314121
0.0073381167
0.0073569289
0.0073704939
0.0073787813
0.0073817765
0.0073794991
0.0073719851
0.0073593165
0.0073415812
0.0073189218
0.0072915219
0.0072595748
0.0072233259
0.0071830742
0.0071391482
0.0070919693
0.0070420314
0.006989792
0.0069357197
0.0068802553
0.0068238717
0.0067670069
0.006710175
0.006653948
0.0065989945
0.0065458573
0.0064947892
0.0064466162
0.0064016514
0.0063614477
0.0063243531
0.0062982631
0.0062716335
0.0063601407
0.0064630344
0.0065625934
0.0066508146
0.0067304281
0.0068037398
0.0068721392
0.0069362409
0.0069962173
0.007052033
0.0071035736
0.0071507027
0.0071932674
0.0072311568
0.0072642517
0.0072924112
0.0073155307
0.0073335033
0.0073462535
0.0073537256
0.0073558834
0.0073527329
0.007344305
0.0073306698
0.0073119511
0.0072882769
0.0072598568
0.0072269018
0.007189665
0.0071484112
0.00710344
0.0070550624
0.0070036385
0.0069496134
0.0068935316
0.0068358895
0.0067772342
0.0067180242
0.0066587438
0.0065998859
0.0065418686
0.0064854471
0.006431017
0.0063793848
0.0063308334
0.0062866431
0.0062448572
0.0062141787
0.0061817988
0.0063604347
0.0064611182
0.0065586936
0.0066449938
0.0067228064
0.0067944393
0.0068612668
0.006923886
0.006982458
0.0070369398
0.0070872092
0.0071331313
0.0071745568
0.0072113867
0.007243477
0.0072706958
0.0072929476
0.0073101071
0.007322094
0.0073288219
0.0073302483
0.0073263517
0.0073171595
0.0073027029
0.0072830966
0.0072584664
0.0072290077
0.0071949086
0.0071564253
0.0071138479
0.0070675009
0.0070177489
0.0069649655
0.0069094971
0.0068517379
0.0067921089
0.0067311661
0.0066694614
0.006607542
0.0065460611
0.0064853852
0.0064259932
0.0063681207
0.0063126626
0.0062601001
0.0062118234
0.0061660991
0.0061313415
0.0060933057
0.0063607161
0.0064596736
0.0065553071
0.0066397349
0.0067157819
0.0067857477
0.0068509904
0.0069120953
0.006969217
0.0070223101
0.0070712684
0.0071159231
0.0071561436
0.0071918148
0.0072227915
0.0072489413
0.0072701637
0.0072863438
0.0072974167
0.0073033108
0.0073039937
0.0072994279
0.0072896168
0.0072745518
0.0072543083
0.0072289307
0.0071985905
0.0071634899
0.0071238855
0.007080054
0.0070323119
0.0069810326
0.0069265961
0.0068694129
0.0068099408
0.0067486146
0.0066858231
0.0066219793
0.0065575775
0.0064931695
0.0064293349
0.0063667396
0.0063057375
0.0062469426
0.006190855
0.0061389863
0.0060890339
0.0060496971
0.0060061112
0.0063609947
0.0064581906
0.0065519088
0.0066344879
0.006708806
0.0067771619
0.0068408891
0.0069005538
0.006956297
0.0070080762
0.007055798
0.0070992653
0.0071383908
0.0071730124
0.0072029894
0.0072281792
0.007248461
0.0072637089
0.0072738309
0.007278743
0.0072784012
0.0072727953
0.00726196
0.0072459317
0.0072248099
0.0071986835
0.0071676938
0.0071319071
0.0070914849
0.0070466751
0.0069977639
0.0069451016
0.0068890649
0.0068301051
0.0067686849
0.0067052495
0.0066403816
0.0065744982
0.0065079018
0.0064410899
0.006374595
0.0063089064
0.0062444482
0.0061820411
0.0061221684
0.0060664018
0.0060125948
0.0059691809
0.0059202959
0.0063612475
0.0064569911
0.0065487552
0.0066294269
0.006701943
0.0067686013
0.006830724
0.006888869
0.0069431689
0.0069935846
0.0070400268
0.0070822795
0.0071202649
0.007153819
0.0071828038
0.0072070788
0.007226519
0.0072409934
0.0072503964
0.0072546297
0.0072536089
0.0072472837
0.007235637
0.0072186841
0.0071965008
0.0071691768
0.0071368828
0.0070998676
0.0070583863
0.0070126172
0.0069627792
0.006909135
0.0068519499
0.0067915581
0.006728415
0.0066629761
0.0065957865
0.0065274449
0.0064584832
0.006389286
0.0063201604
0.0062516441
0.0061841417
0.0061183759
0.0060549607
0.0059951765
0.0059373644
0.0058896853
0.0058357211
0.0063616463
0.0064561722
0.0065460688
0.006624898
0.0066956723
0.0067606744
0.0068212102
0.0068778255
0.0069306492
0.0069796481
0.0070247193
0.007065672
0.0071024035
0.0071347674
0.0071626171
0.0071858195
0.0072042495
0.0072177852
0.0072263274
0.0072297862
0.0072280844
0.0072211703
0.0072089972
0.0071915322
0.0071687891
0.0071408394
0.0071077813
0.007069712
0.0070268612
0.0069795327
0.0069280841
0.0068729052
0.0068143192
0.0067526852
0.0066882397
0.0066213204
0.0065523843
0.0064818324
0.0064100832
0.0063378376
0.006265886
0.0061945048
0.0061241099
0.0060551471
0.0059882751
0.0059246833
0.0058630846
0.005811302
0.0057524243
0.0063622837
0.0064551457
0.0065432855
0.0066203813
0.0066895307
0.0067529945
0.0068120656
0.0068672754
0.0069187438
0.0069664522
0.0070102743
0.0070500231
0.0070855765
0.0071168122
0.0071435691
0.007165702
0.0071830665
0.0071955328
0.0072029931
0.0072053586
0.0072025673
0.0071945942
0.0071814465
0.0071631629
0.007139764
0.0071112439
0.0070776414
0.0070390773
0.0069956939
0.0069476161
0.0068950684
0.0068384017
0.006777992
0.0067142948
0.0066477869
0.0065790545
0.006508413
0.0064361437
0.006362594
0.0062880701
0.006213216
0.0061384997
0.0060646531
0.0059922581
0.0059220134
0.0058552162
0.0057897392
0.0057338794
0.0056703499
0.0063625036
0.0064536077
0.0065399123
0.0066152256
0.0066827193
0.006744633
0.0068022421
0.0068560645
0.0069062117
0.0069526543
0.0069952768
0.0070339058
0.0070684311
0.0070987129
0.0071245863
0.0071458966
0.007162491
0.0071742237
0.0071809601
0.0071825826
0.0071789953
0.0071701278
0.00715594
0.007136446
0.0071117333
0.007081954
0.0070472589
0.0070077683
0.0069635729
0.0069147902
0.0068615946
0.0068041527
0.0067428371
0.0066778938
0.0066096586
0.006538633
0.0064653659
0.0063905819
0.0063146697
0.0062380567
0.0061609423
0.0060837322
0.0060069399
0.0059313858
0.0058574735
0.0057867503
0.0057171193
0.0056574141
0.0055894528
0.0067365608
0.00679263
0.0068449771
0.006893703
0.0069387831
0.0069800977
0.0070174656
0.0070507878
0.0070799362
0.007104752
0.0071250961
0.0071408178
0.0071517722
0.0071578267
0.0071588598
0.0071547628
0.0071454476
0.0071308492
0.007110919
0.0070856201
0.0070549465
0.0070189873
0.0069779609
0.0069321739
0.0068819092
0.0068274275
0.0067689444
0.0067066436
0.0066406579
0.0065713252
0.0064990748
0.0064242566
0.0063472141
0.0062684407
0.0061887245
0.0061086847
0.0060286801
0.0059490696
0.0058704593
0.0057933994
0.005719534
0.0056459761
0.005582114
0.0055096939
0.0070026104
0.007034735
0.0070627034
0.0070863436
0.007105524
0.0071200952
0.0071299244
0.0071349038
0.0071349452
0.0071299654
0.0071198849
0.0071046297
0.0070841416
0.007058403
0.0070274213
0.0069912234
0.0069498617
0.0069033907
0.0068519091
0.0067956952
0.0067352267
0.0066709257
0.0066032271
0.0065324598
0.0064585982
0.0063821798
0.0063036429
0.0062232393
0.0061412387
0.0060583437
0.0059751022
0.0058922102
0.0058103878
0.005730036
0.0056529694
0.0055758562
0.0055081284
0.0054312387
0.0071005192
0.0071095173
0.0071136294
0.0071127353
0.0071067347
0.0070955604
0.0070791837
0.0070576063
0.0070308493
0.0069989511
0.0069619542
0.0069199495
0.0068730371
0.0068212638
0.0067647572
0.0067036735
0.0066382318
0.0065686949
0.0064955525
0.0064193435
0.0063407767
0.0062601742
0.006177631
0.0060937447
0.0060086919
0.0059228839
0.0058370281
0.0057518666
0.0056677434
0.0055872483
0.0055067296
0.005435019
0.0053538876
0.0070839617
0.0070723269
0.0070553981
0.0070331024
0.0070054184
0.0069723896
0.0069340982
0.0068907336
0.0068424971
0.0067895228
0.0067319985
0.0066702102
0.0066041335
0.0065338643
0.0064597258
0.0063821446
0.0063012627
0.0062180485
0.0061327912
0.0060462431
0.0059587746
0.0058706677
0.0057824041
0.0056943672
0.0056071066
0.0055229181
0.0054387283
0.0053630466
0.0052776751
0.0069463913
0.0069077598
0.006863734
0.0068144816
0.0067601127
0.0067008602
0.0066371519
0.0065692895
0.0064976818
0.0064225576
0.0063439542
0.0062619864
0.0061773664
0.006090249
0.0060009128
0.0059102921
0.0058190579
0.0057279138
0.0056371266
0.0055469723
0.0054597308
0.0053723421
0.0052926717
0.005202814
0.0067313576
0.0066716261
0.0066070242
0.0065377054
0.0064639904
0.0063863849
0.0063055211
0.0062220303
0.0061358024
0.0060471084
0.0059561099
0.005863407
0.0057696566
0.0056752335
0.0055810351
0.0054874231
0.0053969012
0.0053061529
0.0052230261
0.0051292404
0.0064314295
0.0063528358
0.0062702294
0.0061840524
0.0060949351
0.0060036992
0.0059107201
0.0058160835
0.0057202771
0.0056235573
0.0055267863
0.0054301573
0.0053359803
0.0052412676
0.0051542672
0.0050566097
0.0061477486
0.0060574871
0.0059640883
0.005867813
0.005769889
0.005671093
0.0055715983
0.0054718376
0.005372443
0.0052756052
0.0051776459
0.0050869013
0.0049852579
0.005825679
0.0057264341
0.0056252245
0.0055225938
0.0054195457
0.0053164089
0.0052157595
0.0051143199
0.0050202153
0.0049148976
0.0054732652
0.0053679296
0.0052621848
0.0051583587
0.0050528817
0.004954601
0.0048454132
0.0051009275
0.0049926376
0.0048908915
0.0047774349
0.0048276097
0.0047104526
0.0063584797
)
;

boundaryField
{
    Side
    {
        type            empty;
    }
    Inlet
    {
        type            zeroGradient;
    }
    Airfoil
    {
        type            zeroGradient;
    }
    Outlet
    {
        type            zeroGradient;
    }
    procBoundary12to4
    {
        type            processor;
        value           uniform 0.0063581382;
    }
    procBoundary12to5
    {
        type            processor;
        value           nonuniform List<scalar> 
30
(
0.0063589127
0.006359069
0.006358761
0.0063585796
0.0063582771
0.0063580119
0.0063578276
0.0063578401
0.0063578108
0.0063584269
0.0063591193
0.0063597341
0.0063600336
0.0063597821
0.0063592129
0.0063588274
0.0063590181
0.0063592201
0.0063594051
0.0063599426
0.0063608682
0.0063614384
0.0063615952
0.0063618475
0.0063618144
0.0063616263
0.0063619846
0.0063623873
0.0065117806
0.0063589127
)
;
    }
    procBoundary12to6
    {
        type            processor;
        value           uniform 0.0063631377;
    }
    procBoundary12to11
    {
        type            processor;
        value           nonuniform List<scalar> 
65
(
0.006357778
0.0065133751
0.0066662419
0.0068059568
0.0069213172
0.0069213172
0.0070360371
0.0071426779
0.0072422837
0.0073353643
0.0074221154
0.0074797223
0.0074797223
0.0075525524
0.00761907
0.0076792177
0.0077329848
0.0077527113
0.0077527113
0.0077930805
0.0078273928
0.0078557716
0.0078481041
0.0078481041
0.0078645503
0.0078757387
0.0078819587
0.0078505
0.0078505
0.0078469215
0.0078393915
0.0078283486
0.0077775219
0.0077775219
0.0077595714
0.0077394326
0.007676809
0.007676809
0.0076521481
0.0076267576
0.0075550785
0.0075550785
0.0075277055
0.0074507841
0.0074507841
0.0074231965
0.0073975292
0.0073160041
0.0073160041
0.0072928567
0.0072088602
0.0072088602
0.0071899162
0.0071041039
0.0071041039
0.0070162457
0.0070162457
0.0070041905
0.0069161722
0.0069161722
0.0068254326
0.0068254326
0.0068296121
0.0067412098
0.0067412098
)
;
    }
    procBoundary12to13
    {
        type            processor;
        value           nonuniform List<scalar> 
60
(
0.0064525193
0.0065369947
0.0066104908
0.0066762682
0.0066762682
0.006729524
0.0067841959
0.00683519
0.0068826003
0.0069264074
0.0069664596
0.0069664596
0.0069874275
0.0070185986
0.0070456606
0.0070684297
0.0070867725
0.0070867725
0.0070798013
0.0070881776
0.0070917593
0.0070903996
0.0070903996
0.0070595579
0.0070474178
0.0070301191
0.0070075573
0.0069796631
0.0069796631
0.0069189468
0.0068798785
0.0068355426
0.006786041
0.006786041
0.0067010695
0.0066407531
0.0065755556
0.0065057389
0.0065057389
0.0063972585
0.0063178608
0.0062346578
0.0062346578
0.0061093815
0.0060177441
0.0059230188
0.0059230188
0.0057826848
0.0056809315
0.0055777208
0.0055777208
0.0054239069
0.0053154936
0.005207108
0.005207108
0.0050446038
0.0049324908
0.0049324908
0.0047660048
0.0046444775
)
;
    }
}


// ************************************************************************* //
