/*--------------------------------*- C++ -*----------------------------------*\
| =========                 |                                                 |
| \\      /  F ield         | OpenFOAM: The Open Source CFD Toolbox           |
|  \\    /   O peration     | Version:  2506                                  |
|   \\  /    A nd           | Website:  www.openfoam.com                      |
|    \\/     M anipulation  |                                                 |
\*---------------------------------------------------------------------------*/
FoamFile
{
    version     2.0;
    format      ascii;
    arch        "LSB;label=32;scalar=64";
    class       volScalarField;
    location    "0.0235";
    object      T;
}
// * * * * * * * * * * * * * * * * * * * * * * * * * * * * * * * * * * * * * //

dimensions      [0 0 0 1 0 0 0];

internalField   nonuniform List<scalar> 
13761
(
244.91168
244.9079
244.90013
244.88812
244.87237
244.85306
244.831
244.80693
244.78228
244.75845
244.73688
244.71827
244.70284
244.69032
244.68033
244.67242
244.66626
244.66151
244.658
244.65549
244.65388
244.65304
244.65292
244.65342
244.65454
244.65622
244.65848
244.66132
244.66476
244.66881
244.6735
244.67887
244.68496
244.69182
244.6995
244.7081
244.71768
244.72836
244.74014
244.75313
244.76743
244.78313
244.87895
244.8798
244.88172
244.88488
244.88929
244.89505
244.90199
244.91003
244.91873
244.92769
244.93635
244.9444
244.95165
244.95812
244.96388
244.96905
244.97373
244.97803
244.98201
244.98575
244.98931
244.99272
244.99605
244.99931
245.00255
245.00579
245.00906
245.01238
245.0158
245.01932
245.02298
245.0268
245.03081
245.03504
245.03952
245.04429
245.04937
245.05481
245.06063
244.94663
244.94823
244.95165
244.9571
244.96468
244.97454
244.98663
245.00083
245.01662
245.03325
245.04978
245.06545
245.07984
245.09286
245.10457
245.11516
245.12478
245.13359
245.14171
245.14925
245.15629
245.16292
245.16919
245.17515
245.18086
245.18635
245.19166
245.19681
245.20185
245.2068
245.21168
245.21652
245.22135
245.22618
245.23105
245.23597
245.02153
245.0235
245.02758
245.03396
245.04261
245.05358
245.06676
245.08188
245.09838
245.1154
245.13198
245.1474
245.16131
245.17368
245.18468
245.19451
245.20337
245.21146
245.21889
245.22581
245.23229
245.23844
245.24432
245.24998
245.25549
245.26088
245.2662
245.27149
245.27678
245.28211
245.2875
245.29806
245.29772
245.29713
245.2963
245.29534
245.29433
245.29339
245.29265
245.29223
245.29223
245.29271
245.29362
245.29491
245.29651
245.29838
245.30047
245.30278
245.3053
245.30802
245.31094
245.31407
245.3174
245.32096
245.32475
245.22144
247.42031
247.42035
247.42043
247.42056
247.42072
247.42091
247.4211
247.42128
247.42141
247.4215
247.42153
247.4215
247.42141
247.42125
247.42103
247.42073
247.42037
247.41992
247.41939
247.41877
247.41805
247.41721
247.41625
247.41515
247.4139
247.41247
247.41086
247.40903
247.40697
247.40463
247.40199
247.399
247.39561
247.39178
247.38741
247.38244
247.37674
247.37019
247.3626
247.35373
247.34323
247.3306
247.31508
247.2954
247.26931
247.23239
247.17467
247.06688
246.82029
246.44858
246.29302
246.26359
246.26235
246.26509
246.26831
246.27169
246.27522
246.27892
246.28279
246.28685
246.29111
246.29559
246.3003
246.30525
246.31045
246.31593
246.32169
246.32775
246.33412
246.34082
246.34786
246.35527
247.41644
247.41646
247.41648
247.41652
247.41658
247.41663
247.41669
247.41673
247.41675
247.41674
247.41669
247.4166
247.41646
247.41628
247.41604
247.41574
247.41538
247.41495
247.41444
247.41385
247.41316
247.41236
247.41145
247.4104
247.4092
247.40784
247.4063
247.40455
247.40256
247.40031
247.39776
247.39487
247.39159
247.38787
247.38364
247.3788
247.37326
247.36688
247.35948
247.35081
247.34056
247.32821
247.31302
247.29375
247.26819
247.23203
247.17554
247.07033
246.82979
246.45014
246.28269
246.24944
246.24754
246.25021
246.25343
246.25681
246.26034
246.26404
246.26791
246.27197
246.27623
246.2807
246.2854
246.29034
246.29553
246.30099
246.30674
246.31279
246.31914
246.32582
246.33285
246.34023
246.34799
246.35613
246.36467
246.37362
246.383
246.3928
246.40305
246.41374
246.42487
246.43645
247.41297
247.41296
247.41295
247.41293
247.41291
247.41288
247.41283
247.41276
247.41268
247.41257
247.41244
247.41227
247.41208
247.41184
247.41156
247.41123
247.41085
247.4104
247.40989
247.4093
247.40861
247.40783
247.40694
247.40593
247.40477
247.40346
247.40197
247.40027
247.39836
247.39618
247.39372
247.39092
247.38775
247.38414
247.38003
247.37534
247.36995
247.36373
247.35652
247.34806
247.33804
247.32598
247.31112
247.29225
247.26723
247.23183
247.17655
247.07386
246.83923
246.45254
246.27292
246.23556
246.2329
246.2355
246.23871
246.2421
246.24563
246.24933
246.2532
246.25726
246.26151
246.26598
246.27067
246.2756
246.28078
246.28624
246.29197
246.298
246.30434
246.31101
246.31802
246.32538
246.33311
246.34124
246.34975
246.35868
246.36804
246.37782
246.38805
246.39871
246.40983
246.42139
246.43339
246.44581
246.45864
246.47185
246.48539
246.49923
247.40627
247.4063
247.40636
247.40645
247.40657
247.4067
247.40684
247.40697
247.40706
247.40712
247.40712
247.40708
247.407
247.40685
247.40666
247.4064
247.40609
247.40571
247.40525
247.40471
247.40408
247.40336
247.40252
247.40156
247.40046
247.3992
247.39778
247.39615
247.39431
247.39221
247.38984
247.38714
247.38407
247.38058
247.37659
247.37203
247.36679
247.36074
247.35371
247.34547
247.33568
247.32389
247.30936
247.2909
247.26641
247.23176
247.17768
247.07745
246.84855
246.45573
246.26373
246.22193
246.21843
246.22093
246.22415
246.22754
246.23107
246.23477
246.23864
246.2427
246.24695
246.25141
246.2561
246.26103
246.2662
246.27165
246.27737
246.28339
246.28972
246.29637
246.30336
246.31071
246.31842
246.32652
246.33502
246.34393
246.35326
246.36302
246.37323
246.38387
246.39497
246.40651
246.4185
246.43091
246.44374
246.45696
246.47052
246.48439
246.4985
246.51278
246.52713
246.54142
247.403
247.403
247.40301
247.40302
247.40304
247.40305
247.40307
247.40307
247.40306
247.40302
247.40295
247.40285
247.40272
247.40255
247.40233
247.40206
247.40174
247.40137
247.40092
247.4004
247.39979
247.3991
247.39829
247.39737
247.39632
247.39511
247.39374
247.39218
247.39041
247.38839
247.3861
247.38349
247.38052
247.37714
247.37328
247.36885
247.36376
247.35787
247.35103
247.34299
247.33345
247.32193
247.30773
247.28967
247.26571
247.2318
247.17891
247.08108
246.85771
246.45963
246.25508
246.20855
246.20411
246.2065
246.20972
246.21311
246.21666
246.22036
246.22423
246.22829
246.23254
246.237
246.24169
246.24661
246.25178
246.25722
246.26294
246.26895
246.27526
246.2819
246.28888
246.29621
246.30391
246.31199
246.32047
246.32936
246.33867
246.34841
246.35859
246.36921
246.38029
246.39182
246.40379
246.4162
246.42902
246.44224
246.45583
246.46972
246.48387
246.49821
246.51264
246.52704
246.54127
246.55518
246.56857
247.39708
247.39711
247.39717
247.39726
247.39738
247.39753
247.39768
247.39783
247.39795
247.39803
247.39807
247.39807
247.39803
247.39793
247.39778
247.39758
247.39732
247.397
247.3966
247.39614
247.39558
247.39494
247.39419
247.39332
247.39232
247.39118
247.38987
247.38838
247.38668
247.38474
247.38254
247.38002
247.37716
247.37389
247.37014
247.36585
247.36091
247.35519
247.34852
247.34069
247.33138
247.32013
247.30626
247.2886
247.26516
247.23199
247.18027
247.08477
246.86669
246.46418
246.247
246.19543
246.18994
246.19221
246.19543
246.19883
246.20238
246.20609
246.20997
246.21403
246.21828
246.22275
246.22743
246.23235
246.23752
246.24295
246.24867
246.25467
246.26098
246.26761
246.27457
246.28189
246.28957
246.29763
246.30609
246.31496
246.32425
246.33397
246.34413
246.35474
246.36579
246.3773
246.38926
246.40166
246.41448
246.4277
246.4413
246.45522
246.46941
246.4838
246.4983
246.5128
246.52717
246.54123
246.55481
246.56767
246.57955
247.39398
247.39398
247.39399
247.39401
247.39403
247.39405
247.39408
247.3941
247.3941
247.39408
247.39404
247.39397
247.39387
247.39373
247.39355
247.39333
247.39306
247.39274
247.39235
247.39189
247.39136
247.39074
247.39002
247.38919
247.38824
247.38714
247.38589
247.38446
247.38283
247.38097
247.37885
247.37643
247.37366
247.37051
247.36689
247.36273
247.35794
247.35238
247.34591
247.33829
247.32922
247.31825
247.30471
247.28746
247.26456
247.23213
247.18157
247.08833
246.8753
246.46919
246.23936
246.18249
246.17586
246.178
246.18123
246.18465
246.18821
246.19193
246.19583
246.1999
246.20416
246.20863
246.21333
246.21825
246.22342
246.22885
246.23456
246.24056
246.24686
246.25348
246.26044
246.26774
246.27541
246.28346
246.2919
246.30075
246.31001
246.31971
246.32985
246.34044
246.35147
246.36297
246.37491
246.38729
246.40011
246.41334
246.42694
246.44088
246.45511
246.46955
246.48413
246.49872
246.51321
246.52742
246.54118
246.55427
246.56641
246.57732
246.58666
247.38846
247.38849
247.38855
247.38864
247.38877
247.38891
247.38907
247.38923
247.38936
247.38947
247.38953
247.38955
247.38953
247.38947
247.38936
247.38919
247.38898
247.3887
247.38836
247.38795
247.38747
247.38689
247.38622
247.38544
247.38454
247.3835
247.38231
247.38095
247.37939
247.3776
247.37556
247.37323
247.37056
247.36751
247.36401
247.35999
247.35534
247.34995
247.34365
247.33623
247.3274
247.3167
247.30348
247.28664
247.26425
247.23256
247.18314
247.0921
246.88393
246.47508
246.2325
246.16992
246.16201
246.16397
246.16721
246.17064
246.17422
246.17795
246.18186
246.18594
246.19021
246.19469
246.19939
246.20432
246.20949
246.21492
246.22063
246.22663
246.23292
246.23953
246.24648
246.25377
246.26142
246.26946
246.27788
246.28671
246.29595
246.30563
246.31575
246.32631
246.33733
246.3488
246.36073
246.37311
246.38592
246.39914
246.41275
246.42672
246.44098
246.45547
246.47011
246.48479
246.49939
246.51375
246.52769
246.54099
246.55339
246.5646
246.57428
246.58206
246.58751
247.38608
247.38609
247.3861
247.38612
247.38615
247.38619
247.38623
247.38626
247.38629
247.3863
247.38629
247.38625
247.38619
247.38609
247.38595
247.38577
247.38555
247.38527
247.38494
247.38454
247.38408
247.38352
247.38288
247.38214
247.38128
247.38028
247.37914
247.37784
247.37634
247.37462
247.37266
247.37041
247.36784
247.36489
247.36151
247.35761
247.3531
247.34787
247.34175
247.33453
247.32593
247.3155
247.3026
247.28616
247.2643
247.23333
247.18503
247.09614
246.89266
246.48188
246.22651
246.15782
246.14846
246.15022
246.15344
246.15688
246.16047
246.16421
246.16812
246.1722
246.17648
246.18096
246.18566
246.19059
246.19576
246.20119
246.20689
246.21288
246.21917
246.22577
246.2327
246.23998
246.24762
246.25563
246.26404
246.27285
246.28207
246.29173
246.30182
246.31237
246.32336
246.33482
246.34673
246.35909
246.37189
246.38511
246.39873
246.41271
246.427
246.44154
246.45624
246.47101
246.48572
246.50022
246.51434
246.52784
246.54049
246.55199
246.562
246.57015
246.57601
246.57915
247.38118
247.38121
247.38127
247.38137
247.38149
247.38165
247.38182
247.38199
247.38215
247.38228
247.38238
247.38244
247.38246
247.38243
247.38237
247.38225
247.38209
247.38187
247.3816
247.38125
247.38084
247.38034
247.37975
247.37906
247.37825
247.37732
247.37624
247.37499
247.37356
247.37192
247.37004
247.36788
247.3654
247.36256
247.35929
247.35552
247.35115
247.34607
247.34013
247.33311
247.32474
247.31458
247.30201
247.28597
247.26462
247.23437
247.18718
247.10036
246.9014
246.48947
246.22135
246.14618
246.13521
246.13672
246.13993
246.14338
246.14697
246.15071
246.15461
246.1587
246.16297
246.16745
246.17214
246.17707
246.18223
246.18765
246.19335
246.19932
246.2056
246.21219
246.21911
246.22637
246.23399
246.24199
246.25037
246.25916
246.26837
246.278
246.28807
246.29859
246.30957
246.321
246.33289
246.34524
246.35803
246.37125
246.38488
246.39887
246.41319
246.42777
246.44253
246.45738
246.4722
246.48684
246.50111
246.51482
246.52771
246.53948
246.54982
246.55833
246.5646
246.56818
246.5686
246.56544
247.37924
247.37924
247.37926
247.37928
247.37932
247.37937
247.37943
247.37949
247.37954
247.37958
247.37961
247.37961
247.37958
247.37953
247.37944
247.37932
247.37915
247.37894
247.37867
247.37834
247.37795
247.37748
247.37693
247.37627
247.37551
247.37463
247.3736
247.37242
247.37106
247.36949
247.36768
247.36561
247.36323
247.36049
247.35733
247.35368
247.34945
247.34453
247.33876
247.33195
247.3238
247.31391
247.30166
247.28601
247.26518
247.23564
247.18953
247.10471
246.91009
246.49773
246.21697
246.13497
246.12222
246.12345
246.12663
246.13009
246.13368
246.13742
246.14132
246.14541
246.14968
246.15415
246.15884
246.16375
246.1689
246.17431
246.18
246.18596
246.19222
246.1988
246.2057
246.21294
246.22055
246.22852
246.23689
246.24565
246.25484
246.26445
246.27449
246.28499
246.29594
246.30735
246.31923
246.33156
246.34434
246.35756
246.37119
246.38519
246.39954
246.41416
246.42898
246.4439
246.45882
246.47359
246.48802
246.50192
246.51504
246.52709
246.53774
246.54661
246.55327
246.55728
246.55815
246.55545
246.54877
247.37481
247.37484
247.37491
247.375
247.37513
247.3753
247.37548
247.37567
247.37585
247.376
247.37613
247.37623
247.37629
247.37631
247.37629
247.37623
247.37612
247.37597
247.37576
247.37548
247.37514
247.37473
247.37423
247.37363
247.37293
247.37211
247.37115
247.37003
247.36874
247.36725
247.36553
247.36355
247.36126
247.35863
247.35558
247.35206
247.34798
247.34321
247.33762
247.331
247.32308
247.31346
247.30152
247.28627
247.26594
247.2371
247.19204
247.10917
246.91869
246.50657
246.21333
246.12417
246.10946
246.11038
246.11352
246.11698
246.12058
246.12432
246.12823
246.13231
246.13657
246.14104
246.14572
246.15062
246.15577
246.16117
246.16684
246.17279
246.17903
246.18559
246.19247
246.1997
246.20728
246.21524
246.22358
246.23232
246.24148
246.25106
246.26109
246.27156
246.28249
246.29388
246.30573
246.31805
246.33082
246.34403
246.35766
246.37168
246.38604
246.4007
246.41557
246.43057
246.44559
246.46048
246.47507
246.48915
246.5025
246.51481
246.52577
246.53498
246.54203
246.54645
246.54776
246.54551
246.53928
246.52886
247.37318
247.37319
247.37321
247.37324
247.37329
247.37335
247.37343
247.37352
247.3736
247.37367
247.37373
247.37377
247.37379
247.37378
247.37375
247.37368
247.37357
247.37342
247.37322
247.37296
247.37265
247.37226
247.3718
247.37124
247.37059
247.36982
247.36891
247.36786
247.36664
247.36522
247.36358
247.36169
247.3595
247.35697
247.35405
247.35065
247.34671
247.3421
247.33668
247.33026
247.32257
247.31321
247.30158
247.28672
247.26689
247.23873
247.1947
247.11369
246.9272
246.51589
246.2104
246.11377
246.09694
246.09749
246.1006
246.10406
246.10766
246.1114
246.11531
246.11938
246.12364
246.12811
246.13278
246.13768
246.14281
246.1482
246.15385
246.15979
246.16602
246.17256
246.17942
246.18663
246.19419
246.20212
246.21044
246.21916
246.22829
246.23785
246.24785
246.25829
246.2692
246.28057
246.2924
246.3047
246.31746
246.33066
246.34429
246.35831
246.3727
246.38739
246.40231
246.41739
246.43249
246.4475
246.46224
246.47651
246.49007
246.50264
246.51389
246.52344
246.53087
246.53569
246.53744
246.53563
246.52983
246.51982
246.50553
247.36909
247.36912
247.36918
247.36929
247.36943
247.3696
247.36981
247.37003
247.37024
247.37043
247.37059
247.37073
247.37083
247.3709
247.37094
247.37093
247.37088
247.37079
247.37065
247.37045
247.37019
247.36986
247.36945
247.36896
247.36836
247.36765
247.36682
247.36584
247.36469
247.36335
247.3618
247.36
247.35791
247.35549
247.35268
247.34942
247.34561
247.34116
247.33591
247.32969
247.32223
247.31313
247.30182
247.28734
247.26799
247.24051
247.19748
247.11827
246.9356
246.52563
246.20817
246.10377
246.08463
246.08476
246.08783
246.09129
246.0949
246.09865
246.10255
246.10662
246.11088
246.11534
246.12
246.12489
246.13001
246.13539
246.14103
246.14696
246.15317
246.15969
246.16653
246.17372
246.18126
246.18917
246.19746
246.20616
246.21526
246.2248
246.23477
246.24519
246.25607
246.26742
246.27923
246.29151
246.30425
246.31745
246.33107
246.34511
246.35951
246.37423
246.3892
246.40434
246.41954
246.43466
246.44954
246.46399
246.47776
246.49058
246.50212
246.512
246.51979
246.52501
246.52718
246.5258
246.52043
246.51082
246.49687
246.47902
247.36766
247.36767
247.3677
247.36774
247.36781
247.3679
247.36801
247.36813
247.36825
247.36837
247.36847
247.36856
247.36863
247.36867
247.36869
247.36868
247.36863
247.36855
247.36842
247.36824
247.36801
247.36771
247.36734
247.36688
247.36633
247.36568
247.3649
247.36399
247.36291
247.36165
247.36018
247.35847
247.35648
247.35417
247.35148
247.34834
247.34468
247.34038
247.33532
247.32929
247.32205
247.31322
247.30221
247.28811
247.26925
247.24241
247.20036
247.12288
246.94387
246.53569
246.20659
246.09415
246.07252
246.07219
246.07521
246.07867
246.08229
246.08604
246.08994
246.09401
246.09827
246.10272
246.10738
246.11226
246.11737
246.12274
246.12837
246.13428
246.14048
246.14698
246.15381
246.16097
246.16849
246.17638
246.18465
246.19332
246.2024
246.21191
246.22185
246.23225
246.24311
246.25443
246.26622
246.27848
246.29121
246.30439
246.31802
246.33206
246.34648
246.36122
246.37624
246.39144
246.40672
246.42195
246.43697
246.45159
246.46556
246.47863
246.49045
246.50064
246.50879
246.51441
246.51699
246.51604
246.51108
246.50186
246.48825
246.47066
246.44994
247.36398
247.36402
247.36409
247.36419
247.36435
247.36454
247.36476
247.365
247.36524
247.36547
247.36567
247.36585
247.36599
247.36611
247.3662
247.36624
247.36626
247.36623
247.36615
247.36603
247.36584
247.3656
247.36528
247.36489
247.3644
247.36381
247.3631
247.36225
247.36125
247.36007
247.35869
247.35707
247.35518
247.35298
247.35041
247.34741
247.34389
247.33975
247.33486
247.32903
247.32201
247.31344
247.30274
247.28901
247.27062
247.24443
247.20332
247.12751
246.952
246.54602
246.20562
246.08492
246.06061
246.05976
246.06272
246.06618
246.06981
246.07356
246.07747
246.08154
246.08579
246.09024
246.0949
246.09977
246.10488
246.11023
246.11585
246.12175
246.12793
246.13442
246.14123
246.14838
246.15588
246.16374
246.17199
246.18064
246.18969
246.19917
246.20909
246.21946
246.23029
246.24159
246.25336
246.2656
246.27831
246.29149
246.30511
246.31915
246.33359
246.34836
246.36342
246.37868
246.39404
246.40938
246.42453
246.43931
246.45348
246.46678
246.47887
246.48938
246.49788
246.50388
246.50687
246.50633
246.50179
246.49295
246.47966
246.46233
246.4418
246.41929
247.36276
247.36278
247.36281
247.36286
247.36294
247.36305
247.36318
247.36333
247.36349
247.36365
247.36379
247.36392
247.36404
247.36413
247.3642
247.36425
247.36426
247.36424
247.36418
247.36407
247.36392
247.3637
247.36343
247.36307
247.36263
247.36209
247.36144
247.36066
247.35973
247.35863
247.35733
247.3558
247.35402
247.35192
247.34947
247.34659
247.34322
247.33924
247.33452
247.32889
247.3221
247.31378
247.30339
247.29002
247.2721
247.24653
247.20634
247.13213
246.95998
246.55652
246.20524
246.07606
246.04887
246.04746
246.05034
246.05381
246.05744
246.0612
246.06511
246.06919
246.07344
246.07789
246.08254
246.08741
246.09251
246.09786
246.10347
246.10935
246.11553
246.122
246.12879
246.13592
246.14341
246.15125
246.15948
246.1681
246.17713
246.18659
246.19649
246.20683
246.21764
246.22891
246.24066
246.25288
246.26557
246.27873
246.29235
246.30639
246.32084
246.33564
246.35074
246.36605
246.38149
246.39693
246.41221
246.42714
246.44151
246.45504
246.4674
246.47821
246.48705
246.49343
246.49681
246.49669
246.49255
246.48408
246.47112
246.45404
246.43367
246.41129
246.3891
247.36026
247.36028
247.36033
247.36041
247.36053
247.36068
247.36085
247.36105
247.36125
247.36145
247.36163
247.3618
247.36194
247.36206
247.36216
247.36223
247.36228
247.36228
247.36226
247.36218
247.36207
247.36189
247.36165
247.36135
247.36096
247.36047
247.35988
247.35916
247.3583
247.35728
247.35606
247.35463
247.35294
247.35096
247.34862
247.34588
247.34264
247.33882
247.33428
247.32884
247.32227
247.31421
247.30412
247.29111
247.27365
247.24869
247.2094
247.13674
246.9678
246.56713
246.20539
246.06754
246.03731
246.03526
246.03807
246.04153
246.04518
246.04895
246.05286
246.05694
246.0612
246.06564
246.0703
246.07516
246.08026
246.0856
246.09121
246.09709
246.10325
246.10971
246.11649
246.12361
246.13107
246.1389
246.14711
246.15571
246.16472
246.17415
246.18402
246.19434
246.20512
246.21637
246.2281
246.2403
246.25298
246.26613
246.27973
246.29378
246.30824
246.32306
246.33819
246.35356
246.36907
246.3846
246.40001
246.4151
246.42965
246.4434
246.45601
246.46713
246.4763
246.48305
246.48682
246.4871
246.48336
246.47526
246.46262
246.44578
246.42558
246.40329
246.38123
246.36086
247.35943
247.35944
247.35946
247.35949
247.35955
247.35962
247.35972
247.35983
247.35996
247.36008
247.3602
247.36032
247.36042
247.36051
247.36058
247.36063
247.36066
247.36066
247.36063
247.36057
247.36046
247.36031
247.36009
247.35981
247.35946
247.35901
247.35847
247.35781
247.35701
247.35605
247.35492
247.35357
247.35197
247.35009
247.34787
247.34526
247.34216
247.33849
247.33413
247.32889
247.32253
247.31473
247.30493
247.29228
247.27527
247.25091
247.21248
247.14131
246.97544
246.57776
246.20602
246.05937
246.0259
246.02315
246.02587
246.02934
246.033
246.03678
246.0407
246.04479
246.04905
246.0535
246.05816
246.06303
246.06812
246.07346
246.07907
246.08494
246.09109
246.09755
246.10432
246.11142
246.11887
246.12669
246.13487
246.14346
246.15245
246.16186
246.1717
246.182
246.19276
246.20398
246.21568
246.22786
246.24052
246.25366
246.26726
246.2813
246.29577
246.31061
246.32578
246.34119
246.35678
246.3724
246.38792
246.40316
246.41789
246.43186
246.44473
246.45613
246.46563
246.47274
246.4769
246.47758
246.47423
246.46649
246.45416
246.43756
246.41751
246.39532
246.37334
246.35325
246.33486
247.35614
247.35617
247.35623
247.35633
247.35648
247.35666
247.35688
247.35713
247.35737
247.35761
247.35784
247.35805
247.35823
247.35839
247.35853
247.35865
247.35873
247.35879
247.35881
247.35879
247.35873
247.35862
247.35845
247.35822
247.35792
247.35753
247.35704
247.35644
247.35571
247.35483
247.35377
247.35251
247.35101
247.34924
247.34713
247.34464
247.34169
247.33818
247.33398
247.32894
247.3228
247.31525
247.30574
247.29345
247.27688
247.25311
247.21553
247.14579
246.98284
246.58828
246.20703
246.05148
246.01462
246.01111
246.01374
246.01721
246.02088
246.02468
246.02862
246.03272
246.03699
246.04145
246.04611
246.05099
246.05609
246.06143
246.06704
246.07291
246.07906
246.08551
246.09227
246.09937
246.1068
246.1146
246.12277
246.13134
246.14031
246.1497
246.15952
246.1698
246.18053
246.19173
246.20341
246.21557
246.22821
246.24133
246.25492
246.26897
246.28344
246.2983
246.31349
246.32896
246.34461
246.36032
246.37595
246.39134
246.40624
246.42041
246.43353
246.44522
246.45504
246.4625
246.46704
246.46811
246.46515
246.45778
246.44576
246.42939
246.40948
246.38736
246.36544
246.3456
246.32784
246.30902
247.35478
247.35479
247.35483
247.35489
247.35499
247.35511
247.35526
247.35544
247.35563
247.35583
247.35602
247.35619
247.35636
247.35651
247.35665
247.35676
247.35685
247.35692
247.35696
247.35696
247.35693
247.35685
247.35672
247.35653
247.35627
247.35593
247.35549
247.35495
247.35429
247.35348
247.3525
247.35133
247.34992
247.34825
247.34626
247.3439
247.34109
247.33773
247.33371
247.32886
247.32295
247.31565
247.30644
247.2945
247.27837
247.25518
247.21843
247.15009
246.98996
246.59866
246.20838
246.04384
246.00342
245.9991
246.00162
246.00512
246.00881
246.01264
246.0166
246.02072
246.02501
246.02949
246.03416
246.03905
246.04416
246.04951
246.05512
246.06099
246.06714
246.07359
246.08035
246.08743
246.09486
246.10265
246.11081
246.11935
246.12831
246.13768
246.14748
246.15773
246.16844
246.17962
246.19127
246.20341
246.21603
246.22914
246.24272
246.25676
246.27124
246.28611
246.30133
246.31684
246.33255
246.34835
246.3641
246.37962
246.39469
246.40907
246.42242
246.43439
246.44453
246.45233
246.45725
246.45871
246.45613
246.44912
246.4374
246.42126
246.4015
246.37944
246.35755
246.3379
246.32074
246.30286
247.35284
247.35286
247.35291
247.353
247.35312
247.35328
247.35347
247.35369
247.35393
247.35416
247.35438
247.3546
247.35479
247.35498
247.35514
247.35528
247.3554
247.3555
247.35557
247.3556
247.3556
247.35556
247.35547
247.35532
247.3551
247.35481
247.35443
247.35394
247.35334
247.3526
247.35169
247.3506
247.34929
247.34772
247.34584
247.34359
247.34091
247.3377
247.33385
247.32918
247.32348
247.31642
247.3075
247.2959
247.28019
247.25756
247.22162
247.15463
246.99727
246.60946
246.21059
246.03681
245.99255
245.9873
245.9897
245.99319
245.9969
246.00076
246.00473
246.00887
246.01317
246.01766
246.02235
246.02724
246.03236
246.03772
246.04333
246.04921
246.05536
246.0618
246.06855
246.07563
246.08305
246.09083
246.09897
246.1075
246.11643
246.12578
246.13557
246.14579
246.15648
246.16763
246.17927
246.19138
246.20399
246.21708
246.23065
246.24468
246.25916
246.27405
246.2893
246.30485
246.32062
246.3365
246.35235
246.368
246.38324
246.39781
246.4114
246.42364
246.43408
246.44223
246.44752
246.44936
246.44716
246.44051
246.4291
246.41319
246.39356
246.37155
246.34968
246.33018
246.31357
246.2966
246.28068
247.35235
247.35236
247.35239
247.35244
247.35252
247.35263
247.35276
247.35293
247.35311
247.35329
247.35348
247.35366
247.35384
247.35401
247.35416
247.3543
247.35442
247.35452
247.3546
247.35465
247.35466
247.35464
247.35457
247.35445
247.35427
247.35402
247.35369
247.35325
247.3527
247.35203
247.35119
247.35017
247.34895
247.34747
247.34569
247.34357
247.34101
247.33795
247.33426
247.32977
247.32428
247.31746
247.30881
247.29755
247.28227
247.26019
247.22504
247.15938
247.00473
246.6206
246.2136
246.03041
245.98205
245.97576
245.978
245.98149
245.98521
245.98908
245.99306
245.9972
246.00151
246.00601
246.0107
246.0156
246.02072
246.02608
246.03169
246.03756
246.04371
246.05015
246.05689
246.06396
246.07137
246.07913
246.08726
246.09578
246.10469
246.11402
246.12378
246.13399
246.14465
246.15578
246.16739
246.17948
246.19207
246.20514
246.2187
246.23273
246.24721
246.26211
246.27738
246.29297
246.3088
246.32475
246.3407
246.35648
246.37188
246.38664
246.40046
246.41296
246.42371
246.4322
246.43784
246.44006
246.43825
246.43195
246.42085
246.40517
246.38568
246.36371
246.34183
246.32243
246.30633
246.29025
246.27588
246.24007
247.35012
247.35015
247.35021
247.35032
247.35046
247.35066
247.3509
247.35116
247.35145
247.35173
247.35201
247.35228
247.35253
247.35276
247.35298
247.35318
247.35336
247.35351
247.35364
247.35374
247.35381
247.35383
247.35382
247.35375
247.35362
247.35342
247.35314
247.35277
247.35228
247.35167
247.35091
247.34997
247.34883
247.34744
247.34577
247.34376
247.34134
247.33842
247.33488
247.33057
247.32528
247.31869
247.31033
247.2994
247.28452
247.26298
247.22861
247.16425
247.01226
246.63196
246.21731
246.02457
245.97188
245.96446
245.96651
245.96999
245.97372
245.97758
245.98159
245.98573
245.99004
245.99453
245.99923
246.00412
246.00924
246.01459
246.0202
246.02607
246.03221
246.03864
246.04537
246.05243
246.05983
246.06757
246.07569
246.08418
246.09308
246.10239
246.11212
246.12231
246.13294
246.14405
246.15564
246.16771
246.18027
246.19333
246.20687
246.22089
246.23537
246.25028
246.26558
246.2812
246.29708
246.31311
246.32915
246.34506
246.36061
246.37556
246.3896
246.40236
246.41341
246.42222
246.42823
246.43082
246.42938
246.42344
246.41265
246.3972
246.37785
246.35593
246.33401
246.31468
246.29904
246.28381
246.27098
246.23698
247.3496
247.34962
247.34966
247.34974
247.34985
247.35
247.3502
247.35043
247.35068
247.35094
247.3512
247.35146
247.35171
247.35195
247.35217
247.35239
247.35259
247.35276
247.35292
247.35305
247.35315
247.35322
247.35324
247.35322
247.35314
247.35299
247.35277
247.35246
247.35204
247.35149
247.35081
247.34995
247.34889
247.3476
247.34604
247.34414
247.34184
247.33906
247.33568
247.33155
247.32646
247.3201
247.312
247.30139
247.28692
247.26591
247.2323
247.1692
247.01981
246.64345
246.22163
246.01925
245.96201
245.95334
245.95519
245.95865
245.96238
245.96626
245.97026
245.97441
245.97873
245.98322
245.98791
245.9928
245.99792
246.00326
246.00886
246.01472
246.02085
246.02727
246.03399
246.04104
246.04841
246.05614
246.06424
246.07271
246.08159
246.09088
246.10059
246.11075
246.12136
246.13244
246.144
246.15605
246.1686
246.18163
246.19516
246.20918
246.22365
246.23857
246.25389
246.26954
246.28547
246.30157
246.31771
246.33373
246.34943
246.36456
246.37882
246.39183
246.40317
246.41231
246.41866
246.42163
246.42057
246.41498
246.40451
246.3893
246.37009
246.34819
246.32623
246.30694
246.2917
246.27728
246.26596
246.23382
246.19597
247.34844
247.34847
247.34853
247.34862
247.34875
247.34893
247.34916
247.34942
247.34971
247.35
247.3503
247.35059
247.35087
247.35114
247.35141
247.35165
247.35188
247.3521
247.35229
247.35246
247.35261
247.35272
247.35279
247.35281
247.35278
247.35269
247.35253
247.35228
247.35192
247.35145
247.35084
247.35007
247.3491
247.34791
247.34645
247.34466
247.34249
247.33985
247.33662
247.33266
247.32777
247.32164
247.3138
247.30351
247.28943
247.26894
247.23607
247.1742
247.02734
246.655
246.2265
246.01444
245.95241
245.94239
245.944
245.94745
245.95119
245.95507
245.95908
245.96324
245.96755
245.97204
245.97673
245.98162
245.98673
245.99207
245.99766
246.00351
246.00963
246.01603
246.02274
246.02977
246.03713
246.04484
246.05292
246.06137
246.07022
246.07949
246.08918
246.09931
246.1099
246.12096
246.13249
246.14452
246.15704
246.17006
246.18357
246.19757
246.21205
246.22697
246.2423
246.25799
246.27396
246.29012
246.30635
246.32249
246.33833
246.35364
246.3681
246.38137
246.39299
246.40245
246.40915
246.41249
246.4118
246.40658
246.39642
246.38145
246.36238
246.34053
246.3185
246.2992
246.28433
246.27067
246.26084
246.23059
246.19354
247.34837
247.34839
247.34843
247.3485
247.3486
247.34875
247.34893
247.34916
247.3494
247.34967
247.34994
247.35021
247.35047
247.35074
247.351
247.35125
247.35148
247.35171
247.35192
247.35211
247.35228
247.35241
247.35252
247.35258
247.3526
247.35255
247.35244
247.35224
247.35195
247.35155
247.35101
247.35032
247.34944
247.34834
247.34698
247.34531
247.34326
247.34076
247.33768
247.3339
247.3292
247.32328
247.31571
247.30573
247.29204
247.27205
247.23989
247.17922