/*--------------------------------*- C++ -*----------------------------------*\
| =========                 |                                                 |
| \\      /  F ield         | OpenFOAM: The Open Source CFD Toolbox           |
|  \\    /   O peration     | Version:  2506                                  |
|   \\  /    A nd           | Website:  www.openfoam.com                      |
|    \\/     M anipulation  |                                                 |
\*---------------------------------------------------------------------------*/
FoamFile
{
    version     2.0;
    format      ascii;
    arch        "LSB;label=32;scalar=64";
    class       volVectorField;
    location    "0.017";
    object      U;
}
// * * * * * * * * * * * * * * * * * * * * * * * * * * * * * * * * * * * * * //

dimensions      [0 1 -1 0 0 0 0];

internalField   nonuniform List<vector> 
13761
(
(0.16770155 -0.051277537 -1.7586552e-17)
(0.49098196 -0.15899 1.8357219e-17)
(0.81528536 -0.26880035 -8.6776788e-18)
(1.1264396 -0.38061796 8.1845733e-18)
(1.4068568 -0.4921437 7.6923511e-18)
(1.6359658 -0.60054971 7.200714e-18)
(1.7917295 -0.70257569 -2.0155892e-17)
(1.8544347 -0.79554307 6.2407444e-18)
(1.8145635 -0.87816335 5.7691417e-18)
(1.6791848 -0.95142209 -5.3075106e-18)
(1.4690099 -1.0181751 -4.8586561e-18)
(1.2063037 -1.0816923 4.4383125e-18)
(0.90623688 -1.1445239 -4.0562484e-18)
(0.57618067 -1.2081338 3.7147162e-18)
(0.21828354 -1.2732881 2.0837584e-22)
(-0.16781038 -1.3403277 -1.9195182e-22)
(-0.58335652 -1.4094196 2.9023903e-18)
(-1.0295545 -1.4807889 -2.6872566e-18)
(-1.5067737 -1.5547963 -3.0464296e-22)
(-2.0139177 -1.6310783 2.3161049e-18)
(-2.551656 -1.7093467 -4.3053974e-18)
(-3.120168 -1.7896298 2.0014813e-18)
(-3.7185734 -1.8718577 -4.5439158e-22)
(-4.3450872 -1.9558521 -4.2221598e-22)
(-4.9967225 -2.0415204 -7.8452734e-22)
(-5.6692889 -2.1291244 -1.4903833e-18)
(-6.3573264 -2.2159762 1.3828129e-18)
(-7.0671251 -2.2918165 6.2648617e-22)
(-7.8519202 -2.353585 -5.8044498e-22)
(-8.7538711 -2.3883236 0)
(-9.8023226 -2.3863182 0)
(-11.012597 -2.3421854 9.4233655e-19)
(-12.387499 -2.2545627 -1.7433429e-18)
(-13.921937 -2.1250266 8.0598997e-19)
(-15.607827 -1.9565205 7.4504775e-19)
(-17.438172 -1.7525193 -6.8710462e-19)
(-19.409724 -1.516158 -6.3608117e-19)
(-21.524193 -1.249627 5.8974928e-19)
(-23.787566 -0.95396926 2.1200922e-21)
(-26.208512 -0.62901718 -1.9566857e-21)
(-28.794724 -0.27346036 6.7746386e-25)
(-31.543408 0.11465222 0)
(-34.417964 0.53575469 -3.0724407e-21)
(-37.288634 0.98022858 0)
(-39.820133 1.4110189 -2.6065323e-21)
(-41.418247 1.7466063 -3.1147936e-19)
(-41.42141 1.8786607 -4.3098179e-21)
(-39.51693 1.7009295 2.596742e-19)
(-36.077798 1.200131 2.3917559e-19)
(-31.660231 0.45426332 -2.2061214e-19)
(-26.573176 -0.46300957 0)
(-20.897549 -1.5477512 0)
(-14.513908 -2.7879612 1.783682e-19)
(-7.4634785 -4.2523807 -1.6450547e-19)
(0.76836382 -6.130629 1.5587153e-23)
(11.00727 -8.1275634 -8.4397248e-21)
(20.114226 -9.9976293 0)
(29.093887 -11.547503 7.1480315e-21)
(37.328541 -12.911614 -1.3147112e-20)
(44.82403 -13.94838 1.2114566e-19)
(51.465555 -14.710704 -1.0040908e-19)
(57.096753 -15.154268 -8.2311908e-20)
(61.620305 -15.286388 -4.2114461e-23)
(65.056243 -15.135959 8.746557e-20)
(67.532268 -14.758445 0)
(69.241973 -14.215905 0)
(70.395506 -13.567641 -5.4909652e-20)
(71.188609 -12.8625 5.0577284e-20)
(71.769137 -12.134815 0)
(72.236072 -11.407528 4.2962341e-20)
(72.648094 -10.693129 4.4056077e-24)
(73.034222 -9.9979738 -1.0925315e-19)
(73.403691 -9.3349546 -1.4462303e-23)
(73.765246 -8.7014341 0)
(74.120864 -8.1027628 -9.3692695e-24)
(74.472208 -7.5402107 -5.2292401e-20)
(74.820738 -7.0147688 -2.4063127e-20)
(75.168132 -6.526408 -8.8540532e-20)
(75.516238 -6.0742066 -2.0357481e-20)
(75.866852 -5.656483 -5.6193822e-20)
(76.221584 -5.2709249 -2.4002544e-24)
(76.581774 -4.9146788 -1.583747e-20)
(76.948411 -4.5844586 -1.4555931e-20)
(77.322161 -4.2768296 2.9159677e-24)
(77.703427 -3.9884019 2.9835831e-24)
(78.092365 -3.7158427 1.0161854e-19)
(78.488953 -3.4559288 5.680127e-24)
(78.893067 -3.2056528 -9.5165847e-21)
(79.304507 -2.9622385 2.902375e-24)
(79.723036 -2.7231001 1.4422044e-19)
(80.148386 -2.4858022 -2.4245916e-19)
(80.580273 -2.2480642 -1.0774791e-19)
(81.018408 -2.0077621 0)
(81.462492 -1.7628778 1.8080667e-19)
(81.912186 -1.5114393 0)
(82.367085 -1.2515073 1.5137981e-19)
(82.826691 -0.98117147 0)
(83.290372 -0.69852151 -3.9507774e-21)
(83.757328 -0.40158819 -4.5824375e-19)
(84.226556 -0.088329718 2.1070288e-19)
(84.696812 0.243351 0)
(85.16658 0.59566832 3.500468e-19)
(85.634112 0.97106227 -6.3726505e-19)
(86.09744 1.3720841 0)
(86.554395 1.8012648 0)
(87.002746 2.2610502 9.3336452e-22)
(87.440379 2.7536948 4.3173108e-19)
(87.865314 3.2810744 3.75257e-25)
(88.275523 3.8446138 3.5586929e-19)
(88.66879 4.4453986 -6.4190914e-19)
(89.042605 5.0845158 0)
(89.394028 5.764019 2.6717113e-22)
(89.719955 6.4856435 -9.4016593e-19)
(90.018448 7.24877 0)
(90.28931 8.0490929 1.5166227e-18)
(90.533154 8.8795593 -6.7963816e-19)
(90.750385 9.7378496 6.0808219e-19)
(90.938813 10.619731 5.3050892e-22)
(91.096956 11.526176 -9.4660636e-22)
(91.2252 12.451497 -8.6288958e-19)
(91.325946 13.377245 0)
(91.405622 14.316678 0)
(91.46076 15.225211 -1.2084989e-18)
(91.500588 16.12023 -1.0694455e-18)
(91.528604 17.038629 -9.4391484e-19)
(91.541771 17.802682 -8.1367775e-22)
(91.543371 18.641261 -1.466834e-18)
(91.527339 19.548369 2.5793627e-18)
(91.55485 19.966165 2.2130703e-21)
(91.483968 20.772711 -9.5989638e-22)
(91.314075 22.037407 -3.4794484e-18)
(91.461696 21.923571 -7.4098378e-22)
(91.546927 21.63985 -1.3239789e-18)
(91.063778 23.511451 0)
(90.560776 25.16893 0)
(91.110328 23.711975 1.7478606e-18)
(91.997999 21.03812 1.4720855e-21)
(92.325457 19.994645 1.3052552e-18)
(0.10375566 -0.015319184 -1.0950169e-22)
(0.31991033 -0.048806823 0)
(0.55333957 -0.087264646 -1.4204384e-17)
(0.80378065 -0.13102053 1.3409593e-17)
(1.0699193 -0.18012773 9.6175853e-23)
(1.3494615 -0.23454053 -1.1829786e-17)
(1.6381279 -0.29379964 8.5372989e-23)
(1.9290701 -0.35697908 1.5840166e-22)
(2.212206 -0.42252907 9.6272107e-18)
(2.4736166 -0.48822906 2.7298413e-22)
(2.6961032 -0.55137039 1.2658308e-22)
(2.8612198 -0.60905048 0)
(2.9537679 -0.65884222 -2.1652033e-22)
(2.9666012 -0.69942654 6.5514519e-18)
(2.9014608 -0.73081729 -6.036278e-18)
(2.7651494 -0.75375457 1.6945376e-22)
(2.5646015 -0.76898381 0)
(2.3038634 -0.77668552 0)
(1.9832498 -0.77629332 2.6478886e-22)
(1.5992058 -0.76765176 4.0047128e-18)
(1.1496385 -0.75030365 -3.6946942e-18)
(0.63257549 -0.72348433 4.1611794e-22)
(0.04568001 -0.68650763 3.8440703e-22)
(-0.61376023 -0.63869572 0)
(-1.3486627 -0.57947174 -2.6917388e-18)
(-2.1624111 -0.50837163 4.9773023e-18)
(-3.0593944 -0.4251109 -2.3012857e-18)
(-4.0456376 -0.32944075 -5.1898488e-22)
(-5.1290371 -0.22076854 0)
(-6.3176486 -0.097503389 -1.8182598e-18)
(-7.6187572 0.042591677 1.6805837e-18)
(-9.0381619 0.20214816 -7.5761939e-22)
(-10.579661 0.38393095 -7.001275e-22)
(-12.245227 0.59064302 -1.3246884e-18)
(-14.035721 0.82484745 1.2260443e-18)
(-15.951521 1.0890123 -1.1041141e-21)
(-17.993542 1.3856925 1.044641e-18)
(-20.164226 1.7178178 -1.9531448e-21)
(-22.467808 2.0888807 -8.8882854e-19)
(-24.909793 2.5028469 9.2335908e-25)
(-27.494554 2.9634778 7.5854022e-19)
(-30.217845 3.4735193 -6.9717509e-19)
(-33.048997 4.0339614 0)
(-35.894326 4.6361274 0)
(-38.522868 5.2447233 2.1387504e-21)
(-40.482912 5.7779095 0)
(-41.100764 6.0824978 3.6229396e-21)
(-39.98208 6.0200155 3.3298225e-21)
(-37.229037 5.5527143 3.9244184e-19)
(-33.204929 4.7190558 -3.645741e-19)
(-28.153928 3.6240815 -3.3334233e-19)
(-22.258631 2.2816321 3.0255163e-19)
(-15.343158 0.80242424 -4.4281818e-21)
(-7.0256928 -1.0597994 4.0822494e-21)
(3.2185769 -2.8938795 2.4829243e-19)
(11.141634 -5.2150616 -2.0742911e-19)
(19.844072 -7.3283228 -2.0292663e-19)
(29.072989 -9.2492397 -5.9108972e-21)
(37.492704 -11.018453 3.4439328e-19)
(45.193195 -12.455427 -1.6848704e-19)
(52.037002 -13.573953 0)
(57.837154 -14.328702 1.2638849e-19)
(62.476379 -14.718039 -2.6415043e-19)
(65.970634 -14.769292 -1.4398042e-20)
(68.456265 -14.540159 1.1901695e-19)
(70.139874 -14.099996 -9.7635674e-20)
(71.243502 -13.517373 1.0125829e-19)
(71.974497 -12.85094 -1.7026076e-23)
(72.487748 -12.144421 0)
(72.886784 -11.427421 3.5234783e-20)
(73.232643 -10.717181 -1.6223698e-20)
(73.554668 -10.024841 -2.9888343e-20)
(73.863306 -9.3630523 -2.7541244e-20)
(74.168919 -8.7305321 5.0690619e-20)
(74.473294 -8.1332683 -2.3341553e-20)
(74.778298 -7.5727852 0)
(75.085487 -7.0499697 -3.9549927e-20)
(75.396489 -6.5646172 3.6403996e-20)
(75.71295 -6.1155715 7.2207921e-24)
(76.036345 -5.7009114 -6.1662055e-20)
(76.367896 -5.3181253 -2.8367512e-20)
(76.708509 -4.9642039 2.6099383e-20)
(77.058714 -4.6357605 7.2004995e-20)
(77.418733 -4.3293244 2.2068498e-20)
(77.788559 -4.0415093 -2.0291403e-20)
(78.167979 -3.7690114 -7.4613644e-20)
(78.556647 -3.5086623 1.5428075e-19)
(78.954156 -3.2575249 0)
(79.36008 -3.0128956 0)
(79.773988 -2.7722582 -2.1249848e-19)
(80.195455 -2.5332411 5.7450844e-24)
(80.624068 -2.2936218 1.7897152e-19)
(81.059435 -2.0513259 -1.6415396e-19)
(81.501173 -1.8043745 4.702505e-21)
(81.948874 -1.5508251 -4.3116181e-21)
(82.402075 -1.2887623 -5.560567e-24)
(82.860231 -1.0162938 -2.3139642e-19)
(83.32267 -0.73152258 0)
(83.788559 -0.43248941 1.9369471e-19)
(84.25687 -0.11715991 -1.7705697e-19)
(84.726338 0.21655723 0)
(85.195432 0.57086965 -2.9761792e-19)
(85.662388 0.94820922 2.6941302e-19)
(86.125224 1.3511207 1.9191631e-21)
(86.581764 1.782129 -2.2368561e-19)
(87.029766 2.2436701 0)
(87.467102 2.7379842 -3.7019789e-19)
(87.891779 3.266936 1.3132639e-21)
(88.301761 3.8319471 -6.1150036e-19)
(88.69482 4.4341071 0)
(89.068442 5.0745161 0)
(89.41967 5.7552403 4.5308006e-19)
(89.745363 6.4780013 4.0927831e-19)
(90.043553 7.2421447 -7.3828796e-19)
(90.314028 8.0433507 -6.6570072e-19)
(90.557432 8.8745877 1.4618405e-22)
(90.77412 9.7335823 0)
(90.961882 10.616146 4.8285492e-19)
(91.119252 11.523215 -4.2226918e-22)
(91.246532 12.449068 2.0498639e-22)
(91.346316 13.375221 0)
(91.424765 14.314962 6.1634811e-19)
(91.478581 15.22383 1.0977575e-18)
(91.517433 16.118978 4.7662891e-22)
(91.543563 17.037464 -4.2283942e-22)
(91.555545 17.801869 -7.6749532e-19)
(91.556491 18.640255 1.357929e-18)
(91.537255 19.547147 -1.145005e-23)
(91.564393 19.966026 1.0333826e-21)
(91.494085 20.772582 9.3044738e-19)
(91.319822 22.035731 8.6428385e-24)
(91.466066 21.923133 0)
(91.554509 21.641796 1.2587429e-18)
(91.06757 23.512875 -1.080932e-21)
(90.561076 25.167056 -2.2826646e-25)
(91.114862 23.708632 -2.8563532e-23)
(92.004137 21.036626 7.1732441e-22)
(92.332179 19.994842 1.2684065e-18)
(-0.34811348 0.049307567 -1.3021374e-17)
(-1.0124292 0.14605222 5.1904636e-23)
(-1.6678729 0.23834963 -1.2878861e-17)
(-2.308447 0.32685539 1.2159664e-17)
(-2.9280098 0.41045185 8.7288325e-23)
(-3.5211824 0.48794434 -8.1847628e-23)
(-4.0824146 0.55816903 1.0039694e-17)
(-4.6062981 0.62005745 -1.8744923e-17)
(-5.0877796 0.67253518 8.7323977e-18)
(-5.5219598 0.71460494 -1.2403672e-22)
(-5.9046247 0.74541633 -1.1500978e-22)
(-6.2329161 0.76436019 0)
(-6.5070837 0.77146596 0)
(-6.7324162 0.76762757 -1.8124982e-22)
(-6.9185806 0.75442062 -5.4647738e-18)
(-7.0769962 0.73369565 5.030226e-18)
(-7.2183926 0.70718042 4.6296388e-18)
(-7.3518379 0.67633843 -8.5267015e-18)
(-7.4847573 0.64248691 7.8607249e-18)
(-7.6235657 0.60687686 -3.6255247e-18)
(-7.774252 0.57076234 3.3454581e-18)
(-7.9427965 0.53552524 -6.179224e-18)
(-8.1354853 0.5027068 2.8534763e-18)
(-8.3592092 0.47407709 -2.6376708e-18)
(-8.621571 0.4516503 4.8767385e-18)
(-8.9309849 0.43774068 -2.2527414e-18)
(-9.2967306 0.43496868 5.0929479e-22)
(-9.7288745 0.44629888 0)
(-10.238225 0.47506024 -8.6973578e-22)
(-10.836095 0.52496741 8.0404365e-22)
(-11.533923 0.60009437 -7.4325733e-22)
(-12.34285 0.70478536 7.6574322e-25)
(-13.273257 0.84356589 6.356912e-22)
(-14.33445 1.0210466 -1.2972393e-24)
(-15.53466 1.2418494 1.1105437e-18)
(-16.881035 1.5105454 -1.0270463e-18)
(-18.380107 1.8316452 0)
(-20.038758 2.209686 0)
(-21.865686 2.6492747 -3.1594349e-21)
(-23.874441 3.1551887 1.4754341e-24)
(-26.091192 3.7348093 1.3471789e-21)
(-28.507795 4.3903211 -2.4856624e-21)
(-31.041264 5.1075401 0)
(-33.646049 5.8816937 5.4027848e-19)
(-36.174561 6.683305 -3.9641221e-21)
(-38.301778 7.4407517 -4.5811041e-19)
(-39.506788 8.0258393 -3.2914933e-21)
(-39.328344 8.2984447 -3.027988e-21)
(-37.575011 8.1745429 -2.7854206e-21)
(-34.373722 7.6493055 -3.2569656e-19)
(-29.950797 6.8000484 3.0257917e-19)
(-24.511354 5.6349268 -2.7455654e-19)
(-18.161673 4.2951229 2.4973146e-23)
(-11.058366 2.6144463 2.3725865e-19)
(-4.1778858 0.80207289 0)
(5.6199969 -2.4542709 -2.0765689e-19)
(16.559732 -4.932956 1.8422446e-19)
(26.731694 -7.3136204 5.3065431e-21)
(35.849672 -9.342969 1.3897634e-24)
(44.184601 -11.080753 9.0016494e-21)
(51.608443 -12.488548 0)
(57.898757 -13.506777 7.651874e-21)
(62.91333 -14.119346 1.1291904e-19)
(66.662225 -14.349464 -1.0413041e-19)
(69.296143 -14.255096 -1.0188895e-23)
(71.04451 -13.910977 1.1079208e-20)
(72.151871 -13.39341 7.1567581e-20)
(72.848292 -12.768843 -9.4246404e-20)
(73.304781 -12.088871 0)
(73.636268 -11.388498 -3.2019465e-20)
(73.910406 -10.68913 1.4754039e-20)
(74.160113 -10.00676 2.7164488e-20)
(74.39951 -9.3524764 -2.5018487e-20)
(74.640201 -8.7277487 0)
(74.88486 -8.1382824 0)
(75.135827 -7.5858257 0)
(75.394887 -7.0710699 3.5985941e-20)
(75.663634 -6.5935616 -3.3128051e-20)
(75.943455 -6.151868 3.0496297e-20)
(76.235423 -5.743824 6.0000613e-24)
(76.540271 -5.3667434 -2.5819826e-20)
(76.858363 -5.0175017 4.7521325e-20)
(77.189677 -4.692669 -5.8488806e-24)
(77.533909 -4.3888056 -2.011243e-20)
(77.890575 -4.1025938 -7.3968573e-20)
(78.259027 -3.8308202 -1.0201259e-19)
(78.638542 -3.5704308 -4.6889644e-20)
(79.028398 -3.3186111 5.7454264e-20)
(79.427905 -3.0727754 1.0557781e-19)
(79.836415 -2.8305142 9.6984786e-20)
(80.253323 -2.5895515 8.9058359e-20)
(80.678073 -2.3477486 -7.1536998e-20)
(81.110158 -2.1031017 1.4066764e-19)
(81.549098 -1.8536865 -1.3763791e-19)
(81.994407 -1.5976026 -7.8868249e-21)
(82.445554 -1.3329677 -2.2415128e-19)
(82.901937 -1.057915 2.1200113e-19)
(83.362838 -0.77056708 -2.0020303e-19)
(83.827385 -0.46897867 1.1106402e-20)
(84.294519 -0.15112654 1.6255898e-19)
(84.762953 0.18507211 -4.6460026e-21)
(85.231136 0.54181572 2.7162497e-19)
(85.697277 0.92152517 0)
(86.159387 1.3267362 0)
(86.61528 1.7599662 2.0798088e-19)
(87.062704 2.2236385 -1.4693031e-21)
(87.499522 2.7199764 0)
(87.923732 3.2508316 1.2159464e-21)
(88.333291 3.8176218 2.8181921e-19)
(88.725956 4.4214408 -5.1364853e-19)
(89.09919 5.0634039 4.6579162e-19)
(89.450002 5.7455912 4.2110624e-19)
(89.775218 6.4697087 -3.8176019e-19)
(90.072868 7.2350608 6.9069886e-19)
(90.342751 8.0373112 3.0405756e-22)
(90.585517 8.8694531 -2.7416623e-22)
(90.801426 9.7292687 0)
(90.988228 10.612616 4.5431037e-19)
(91.144484 11.520395 -8.1591348e-19)
(91.270469 12.446845 -1.6262172e-22)
(91.368956 13.373438 -9.6036168e-27)
(91.445846 14.313518 -2.9686716e-22)
(91.498064 15.222724 5.0990322e-22)
(91.535564 16.117993 -9.3005999e-19)
(91.559581 17.036572 -4.0408373e-22)
(91.570245 17.801274 7.3513018e-19)
(91.570031 18.639475 0)
(91.547617 19.54615 -1.1543521e-18)
(91.57455 19.965988 -1.0211144e-18)
(91.503932 20.772685 9.0110034e-19)
(91.325518 22.034342 1.5878353e-18)
(91.471249 21.922603 -1.3959309e-18)
(91.562472 21.643768 1.2247732e-18)
(91.071211 23.514855 -1.0754328e-18)
(90.561045 25.165468 -1.8868695e-18)
(91.118158 23.704775 -1.6468146e-18)
(92.00916 21.034537 2.0980576e-21)
(92.338915 19.994871 -2.4936609e-18)
(-0.21855729 0.030946657 1.2126728e-17)
(-0.63651573 0.092452678 -4.8347713e-23)
(-1.0500421 0.15243503 4.5725134e-23)
(-1.4554978 0.21157306 0)
(-1.8489451 0.26920048 -5.8749453e-26)
(-2.2266602 0.32479497 7.6254892e-23)
(-2.5845925 0.37776118 -9.353198e-18)
(-2.9186284 0.42749888 8.7332785e-18)
(-3.2249181 0.47349646 -8.1390275e-18)
(-3.5000707 0.51527471 7.572333e-18)
(-3.7417901 0.55253789 -7.0254947e-18)
(-3.9494312 0.58523854 6.5050423e-18)
(-4.1248978 0.6137098 1.8344121e-22)
(-4.2734027 0.63875482 -1.6933148e-22)
(-4.402762 0.66158966 0)
(-4.5216742 0.68353042 -4.715474e-18)
(-4.6382033 0.70579227 4.3426151e-18)
(-4.7591487 0.72942579 3.9991901e-18)
(-4.8901086 0.75530367 -3.6867739e-18)
(-5.0358875 0.78417536 2.075353e-22)
(-5.200913 0.81676035 3.1360567e-18)
(-5.3894695 0.85377544 -2.8949421e-18)
(-5.6059176 0.89597378 3.2627621e-22)
(-5.8549396 0.94419467 -2.4678092e-18)
(-6.1416198 0.99940282 2.2796657e-18)
(-6.4716043 1.0627136 2.1061164e-18)
(-6.8512124 1.135449 -1.9471563e-18)
(-7.2874841 1.2191648 4.3890907e-22)
(-7.7882828 1.3156916 -1.6614701e-18)
(-8.362266 1.4271842 1.5345107e-18)
(-9.0188331 1.5561179 6.9306544e-22)
(-9.7680286 1.7053203 6.4034409e-22)
(-10.620338 1.877935 1.2116189e-18)
(-11.586563 2.0774163 -2.2082944e-21)
(-12.677788 2.3074959 -2.069009e-18)
(-13.905168 2.5720939 9.5510293e-19)
(-15.280013 2.8752855 0)
(-16.814144 3.2212649 8.1299422e-19)
(-18.520395 3.6143569 -7.4928909e-19)
(-20.413161 4.0591087 -6.9180972e-19)
(-22.50736 4.5605985 6.4117825e-19)
(-24.806734 5.1226042 0)
(-27.288295 5.7423345 2.131867e-21)
(-29.911963 6.4117899 0)
(-32.578836 7.1105364 1.8136299e-21)
(-35.065497 7.7905208 0)
(-36.980304 8.3581043 -3.9363237e-19)
(-37.84171 8.6835478 3.5933753e-19)
(-37.244984 8.6515074 2.602352e-21)
(-35.052366 8.2156658 0)
(-31.368979 7.4183794 -4.4116756e-21)
(-26.395827 6.2841074 0)
(-20.331783 4.90896 3.7484222e-21)
(-13.380197 3.2705411 0)
(-6.007827 1.5609751 -2.0402618e-19)
(2.3341771 -0.25718522 1.8802967e-19)
(13.016461 -2.8903905 0)
(23.986088 -5.4500077 1.5838929e-19)
(33.761959 -7.8475934 1.8246127e-20)
(42.762469 -9.8950074 -8.3740106e-21)
(50.8326 -11.57534 -1.1604265e-19)
(57.695039 -12.815052 0)
(63.165473 -13.599748 1.3163412e-20)
(67.237964 -13.959461 8.5010717e-20)
(70.073494 -13.958946 -1.0082135e-19)
(71.925122 -13.680493 -8.2724604e-20)
(73.061624 -13.208232 7.6268556e-20)
(73.738317 -12.614954 0)
(74.145231 -11.958315 -1.6203755e-20)
(74.411459 -11.276292 5.9767846e-20)
(74.612846 -10.592976 -5.5040687e-20)
(74.78749 -9.9279471 -5.0711759e-20)
(74.955532 -9.2886107 -2.3353317e-20)
(75.128676 -8.6799142 4.3013841e-20)
(75.31127 -8.1061972 1.9805584e-20)
(75.506257 -7.5691245 0)
(75.71566 -7.0690262 -6.7184409e-20)
(75.940983 -6.6051082 6.1860125e-20)
(76.183278 -6.1756442 2.8478227e-20)
(76.443139 -5.7782683 2.6206294e-20)
(76.720749 -5.4101909 -2.4115497e-20)
(77.015877 -5.068256 -3.7825167e-24)
(77.32791 -4.7490857 -6.1288099e-20)
(77.656 -4.4493653 0)
(77.999166 -4.1659291 7.7510266e-24)
(78.35632 -3.8957286 4.7696287e-20)
(78.72636 -3.6358891 7.3081385e-20)
(79.10825 -3.3837744 -5.3746411e-20)
(79.501038 -3.1369607 -1.2353842e-20)
(79.90386 -2.8931815 -7.9410966e-20)
(80.315936 -2.6502849 8.336457e-20)
(80.736569 -2.4062395 0)
(81.165136 -2.1591295 0)
(81.601063 -1.9070988 1.2898076e-19)
(82.04378 -1.6482996 0)
(82.49269 -1.3808908 1.0849682e-19)
(82.947134 -1.1030382 0)
(83.406345 -0.81288797 1.8223135e-19)
(83.86941 -0.50851311 5.2136892e-21)
(84.335237 -0.18790471 -1.5752325e-19)
(84.802518 0.1510092 2.7509581e-19)
(85.269675 0.51041613 -2.5151471e-19)
(85.734899 0.89272374 2.3711172e-19)
(86.196182 1.3004566 -1.7531573e-24)
(86.651334 1.736123 -3.0403789e-21)
(87.098092 2.2021328 -3.5474493e-19)
(87.534307 2.7006901 0)
(87.957969 3.2336321 0)
(88.367026 3.8023722 2.6760039e-19)
(88.759219 4.4080085 4.8538289e-19)
(89.131986 5.0516728 -4.4147297e-19)
(89.482299 5.7354606 -7.9987192e-19)
(89.806953 6.4610598 7.1918667e-22)
(90.103977 7.2277291 -6.56184e-19)
(90.373183 8.0311142 5.924181e-19)
(90.615221 8.8642368 2.6130864e-22)
(90.830252 9.7249406 -2.3561371e-22)
(91.015983 10.609131 -8.6866182e-19)
(91.171006 11.517671 7.8093547e-19)
(91.29558 12.444756 1.4021811e-18)
(91.392652 13.371813 0)
(91.467864 14.31225 -1.1064985e-23)
(91.518372 15.221794 1.005946e-18)
(91.554399 16.117187 1.7954784e-18)
(91.576205 17.035859 0)
(91.585461 17.800822 7.122478e-19)
(91.583944 18.638858 -1.2645274e-18)
(91.558333 19.5453 0)
(91.584987 19.966011 9.9141723e-19)
(91.5138 20.772959 1.7080727e-21)
(91.331402 22.033134 -1.5112087e-21)
(91.476775 21.921998 1.3647651e-18)
(91.570353 21.645771 -2.3981628e-18)
(91.074391 23.517178 2.1106642e-18)
(90.561164 25.164033 1.8527126e-18)
(91.122183 23.700652 -7.859548e-22)
(92.014826 21.032163 6.9346318e-22)
(-0.30279115 0.042913391 3.9353171e-23)
(-0.88395269 0.12822761 -5.4160565e-23)
(-1.4602924 0.21155506 -1.1311166e-17)
(-2.0260315 0.29361229 0)
(-2.5750234 0.37338288 -1.0051356e-17)
(-3.1015528 0.45003164 9.4259637e-18)
(-3.5995916 0.52269857 0)
(-4.0631085 0.59055604 -1.256419e-22)
(-4.4864336 0.65281985 7.6759472e-18)
(-4.8643147 0.70877167 -7.1404835e-18)
(-5.1926243 0.75786127 6.6234744e-18)
(-5.4690722 0.79977335 -6.1309842e-18)
(-5.6946688 0.83469404 -1.7460763e-25)
(-5.8751062 0.86346936 1.5969346e-22)
(-6.0199702 0.88748838 0)
(-6.1402862 0.90837278 0)
(-6.2462971 0.92763865 4.0879461e-18)
(-6.3464823 0.94653911 -3.7655804e-18)
(-6.4475682 0.96610215 -3.4712907e-18)
(-6.5550052 0.98716866 3.2018198e-18)
(-6.6734656 1.0104819 -3.604281e-22)
(-6.8071758 1.0367272 3.3304457e-22)
(-6.9602043 1.0665761 -3.0722185e-22)
(-7.1367242 1.100727 0)
(-7.341148 1.1399321 5.2427867e-22)
(-7.578296 1.1850266 0)
(-7.8535413 1.2369518 4.4804543e-22)
(-8.1729039 1.2968003 -4.1470879e-25)
(-8.5431994 1.3658299 -7.6438476e-22)
(-8.9721165 1.4455125 7.0578634e-25)
(-9.4682802 1.5375631 0)
(-10.041317 1.643982 0)
(-10.701842 1.767077 0)
(-11.461513 1.9095013 1.0151711e-24)
(-12.33314 2.0743109 9.740544e-19)
(-13.330605 2.2649241 -8.9891832e-19)
(-14.468942 2.4851439 -8.3191552e-19)
(-15.764501 2.7391249 7.6915827e-19)
(-17.235033 3.0313141 -1.2999869e-24)
(-18.89958 3.366347 -2.5581859e-21)
(-20.777305 3.7488205 0)
(-22.883106 4.1823855 0)
(-25.219702 4.6674516 -2.0140533e-21)
(-27.769602 5.1990974 -1.8568338e-21)
(-30.470512 5.7627514 -1.7126572e-21)
(-33.167022 6.3248126 -4.0427058e-19)
(-35.553645 6.8168899 3.752398e-19)
(-37.152544 7.1308368 2.6774336e-21)
(-37.407877 7.1524867 -3.1514506e-19)
(-35.96727 6.8211178 2.8987087e-19)
(-32.840206 6.160129 4.1691495e-21)
(-28.256866 5.1992858 -2.4576636e-19)
(-22.500592 4.025675 2.1941594e-19)
(-15.788364 2.6006478 -2.0881621e-19)
(-8.2512963 1.0439487 -6.0060454e-21)
(-0.028484403 -0.76140667 1.8219984e-19)
(10.555358 -2.8012729 0)
(21.352668 -5.075093 1.5416149e-19)
(31.573084 -7.3340853 -8.6043028e-21)
(41.200594 -9.3662633 -1.2676824e-19)
(49.940046 -11.086691 -7.3035408e-21)
(57.416008 -12.385884 -1.144438e-19)
(63.38085 -13.226929 9.9328101e-20)
(67.805375 -13.631629 1.1462259e-20)
(70.859617 -13.664261 0)
(72.822797 -13.409896 -9.7607739e-21)
(73.990692 -12.956498 9.00127e-20)
(74.646312 -12.38014 -6.6383902e-20)
(75.000737 -11.741874 1.0037864e-23)
(75.198277 -11.079412 -2.8214783e-20)
(75.323311 -10.418444 1.0395095e-19)
(75.420731 -9.7781297 -4.7862049e-20)
(75.51574 -9.1633648 0)
(75.62031 -8.5800707 0)
(75.740344 -8.0312298 3.7415007e-20)
(75.879297 -7.5178937 -3.4457334e-20)
(76.03929 -7.03984 3.1739035e-20)
(76.221604 -6.5958566 -2.9221982e-20)
(76.426845 -6.1839413 5.3805276e-20)
(76.655057 -5.8016092 -4.9541656e-20)
(76.905827 -5.4460679 2.2804171e-20)
(77.178293 -5.1142403 2.0984755e-20)
(77.471244 -4.8029193 0)
(77.783295 -4.5090244 0)
(78.112977 -4.229634 7.554781e-24)
(78.458774 -3.9619456 -6.0132099e-20)
(78.819222 -3.7033344 -1.1060052e-19)
(79.192988 -3.4513986 0)
(79.578872 -3.2039218 -1.0515617e-19)
(79.975806 -2.9588162 8.5903911e-20)
(80.382844 -2.7140827 9.8607114e-21)
(80.799154 -2.4678196 0)
(81.224005 -2.2182164 1.3310739e-19)
(81.656729 -1.9634984 0)
(82.096677 -1.7018804 -7.0059803e-21)
(82.543185 -1.431571 6.4292873e-21)
(82.995536 -1.1507745 0)
(83.452914 -0.85766589 -1.6745605e-19)
(83.914365 -0.55034023 -4.950118e-21)
(84.378762 -0.22680624 1.4500893e-19)
(84.844773 0.11499487 -2.6544376e-19)
(85.310799 0.47723798 2.4280812e-19)
(85.775003 0.86231532 -9.2475016e-24)
(86.235364 1.2727381 1.9962438e-19)
(86.689684 1.7110042 2.8938695e-21)
(87.135689 2.1795089 1.2789809e-23)
(87.571217 2.6804357 0)
(87.994252 3.2156058 -2.8059656e-19)
(88.40273 3.7864275 -5.0880531e-19)
(88.794376 4.3940039 -1.814919e-21)
(89.1666 5.0394841 4.2117556e-19)
(89.516336 5.7249798 3.837663e-19)
(89.840347 6.4521582 1.1081931e-23)
(90.136663 7.2202291 6.2899026e-19)
(90.405112 8.0248186 -5.6898833e-19)
(90.64634 8.8589806 5.1382273e-19)
(90.860401 9.7206255 5.969219e-26)
(91.044964 10.605706 -8.359556e-19)
(91.198653 11.515047 7.5254617e-19)
(91.321717 12.442795 -6.7643596e-19)
(91.417274 13.370332 -2.9650146e-22)
(91.490703 14.311141 -5.4376234e-19)
(91.539405 15.221023 -9.7505294e-19)
(91.573862 16.116542 -8.7067679e-19)
(91.59337 17.035304 -3.7950254e-22)
(91.60114 17.800495 -6.9198582e-19)
(91.598225 18.63839 1.2314584e-18)
(91.569374 19.544577 -1.0932626e-18)
(91.595684 19.966088 9.7006646e-19)
(91.523802 20.773392 -8.5953572e-19)
(91.337464 22.032074 -1.5169951e-18)
(91.482502 21.921322 0)
(91.578265 21.647818 1.1778257e-18)
(91.07744 23.519802 -1.0362533e-18)
(90.561369 25.162705 -1.7755866e-21)
(91.126427 23.696287 7.82949e-22)
(92.020729 21.02955 1.3912828e-18)
(-0.20296 0.028627832 -3.1754194e-26)
(-0.59010746 0.085769075 4.3385602e-23)
(-0.97172204 0.14163404 -1.0761118e-17)
(-1.3440136 0.19678277 1.0161179e-17)
(-1.7029344 0.25070312 -7.2927272e-23)
(-2.0447196 0.30289351 -8.967526e-18)
(-2.3653652 0.35284684 1.6784782e-17)
(-2.6609064 0.40002192 1.1370932e-22)
(-2.9277061 0.44397493 -5.9955574e-24)
(-3.1626786 0.48429573 -1.0972936e-22)
(-3.3639998 0.52073285 -6.2989201e-18)
(-3.5317691 0.55331177 0)
(-3.6689687 0.58240764 -1.644812e-22)
(-3.7818292 0.60887357 1.5165605e-22)
(-3.8787222 0.63381892 4.5822241e-18)
(-3.9683134 0.65841301 -4.2211095e-18)
(-4.0582967 0.68370893 3.8872074e-18)
(-4.1550609 0.71053457 -3.580666e-18)
(-4.263871 0.73956281 -4.0294711e-22)
(-4.3892626 0.77135075 -3.0443038e-18)
(-4.5354204 0.80637965 2.8090781e-18)
(-4.7063586 0.84508897 0)
(-4.9060741 0.88788761 5.8448623e-22)
(-5.1387205 0.93518365 0)
(-5.4086304 0.98737825 -4.9888949e-22)
(-5.720401 1.0448829 -4.6055961e-22)
(-6.0789457 1.1081227 1.7434245e-18)
(-6.4894878 1.1775396 -4.0216498e-22)
(-6.9576307 1.253613 -1.4889528e-18)
(-7.4893539 1.3368598 5.0761115e-25)
(-8.0910351 1.4278611 6.2040895e-22)
(-8.7695362 1.5272825 -1.1743384e-18)
(-9.5322783 1.635924 2.1700774e-18)
(-10.387504 1.754767 -2.0038899e-18)
(-11.344679 1.8850781 9.2598913e-19)
(-12.414758 2.0284718 0)
(-13.610668 2.1869985 -7.7070785e-22)
(-14.947825 2.3632549 7.2980978e-19)
(-16.444477 2.5604415 -2.6434476e-21)
(-18.12175 2.7823612 -6.2024156e-19)
(-20.002885 3.0333027 5.7507589e-19)
(-22.110471 3.3175775 -2.0807933e-21)
(-24.460425 3.6382918 -4.8842988e-19)
(-27.051156 3.9955916 1.2923072e-24)
(-29.841556 4.3828396 1.6316713e-21)
(-32.709488 4.7811112 0)
(-35.386 5.1460514 -3.5469148e-19)
(-37.375846 5.3954901 3.2386952e-19)
(-38.00538 5.426514 2.9783571e-19)
(-36.816486 5.1691494 -5.5202184e-19)
(-33.841281 4.6339326 2.5395189e-19)
(-29.374963 3.8475786 -2.3018715e-19)
(-23.746763 2.8765499 2.1879429e-19)
(-17.229467 1.7085734 0)
(-10.045138 0.36739066 5.7059003e-21)
(-1.6559848 -1.2139709 -1.7280161e-19)
(8.8326823 -2.9675318 1.4949062e-19)
(19.402933 -5.05175 -1.4659187e-19)
(29.821776 -7.1155241 1.3089193e-19)
(39.908754 -9.0702944 0)
(49.232846 -10.759287 1.0416884e-19)
(57.281683 -12.048541 -9.601872e-20)
(63.715089 -12.88466 9.4495503e-20)
(68.468589 -13.283441 -1.7435872e-19)
(71.718511 -13.310193 8.0439593e-20)
(73.770886 -13.053212 7.4265935e-20)
(74.950308 -12.603482 -1.712512e-19)
(75.568794 -12.038722 6.3157672e-20)
(75.858867 -11.420513 1.4564805e-20)
(75.979318 -10.783517 -6.7111943e-20)
(76.022904 -10.155983 4.9448612e-20)
(76.041827 -9.5500158 4.5568113e-20)
(76.063251 -8.9714571 2.0985096e-20)
(76.100178 -8.4244946 -1.9331095e-20)
(76.15934 -7.9106911 3.5615538e-20)
(76.24434 -7.4301446 -3.2801042e-20)
(76.357121 -6.9819741 0)
(76.498536 -6.564544 2.7822788e-20)
(76.668623 -6.1756562 -7.6856217e-20)
(76.866825 -5.8128333 2.3586033e-20)
(77.092099 -5.4734079 0)
(77.342956 -5.1545142 0)
(77.617613 -4.8532504 0)
(77.914184 -4.5668846 -6.770167e-20)
(78.230746 -4.2928348 4.6725087e-20)
(78.56539 -4.0286274 1.4333587e-20)
(78.916332 -3.7719576 5.2705914e-20)
(79.281967 -3.5207141 9.6921192e-20)
(79.660875 -3.2729312 0)
(80.051805 -3.0267344 0)
(80.453664 -2.780305 -8.4669385e-20)
(80.865495 -2.5318928 -6.9133685e-20)
(81.286468 -2.2798089 -1.1906169e-19)
(81.715828 -2.0223728 -1.2388175e-19)
(82.152851 -1.7578718 6.69017e-21)
(82.596808 -1.4845725 0)
(83.046924 -1.2007237 -1.8011519e-19)
(83.502337 -0.90453434 1.6514165e-19)
(83.962047 -0.59412551 4.7281268e-21)
(84.424897 -0.26752704 -1.4296245e-19)
(84.88953 0.077304314 0)
(85.354321 0.44252909 2.3591142e-19)
(85.817408 0.83052182 -4.2821328e-19)
(86.276755 1.243778 -1.9418856e-19)
(86.730155 1.684784 2.7708767e-21)
(87.175324 2.1559193 3.2131595e-19)
(87.610088 2.6593453 0)
(88.03242 3.196866 2.1132259e-21)
(88.440246 3.7698843 8.1362243e-24)
(88.831273 4.3795082 4.4453699e-19)
(89.202881 5.0269049 -4.0574189e-19)
(89.551965 5.7142028 0)
(89.875259 6.4430465 3.3436723e-19)
(90.170793 7.2125928 0)
(90.438411 8.0184477 -5.3581341e-22)
(90.678751 8.8537009 -4.9576356e-19)
(90.891759 9.7163337 -2.1882781e-22)
(91.075063 10.602346 2.202501e-22)
(91.227325 11.512523 -7.2856779e-19)
(91.348789 12.440958 -6.5559988e-19)
(91.442738 13.36899 7.1904079e-23)
(91.514292 14.310186 -2.5810999e-22)
(91.561101 15.220402 -9.4700287e-19)
(91.593901 16.116049 -8.4783192e-19)
(91.611032 17.034897 3.6952411e-22)
(91.617244 17.800285 0)
(91.612846 18.638064 1.20223e-18)
(91.580717 19.543971 1.0696761e-18)
(91.606622 19.966217 -9.4936961e-19)
(91.533937 20.773974 -8.2280163e-22)
(91.343696 22.031149 1.4904349e-18)
(91.488401 21.92058 0)
(91.586212 21.649913 -1.1600182e-18)
(91.080404 23.522702 9.9464443e-22)
(90.561658 25.161465 0)
(91.130825 23.691699 0)