/*--------------------------------*- C++ -*----------------------------------*\
| =========                 |                                                 |
| \\      /  F ield         | OpenFOAM: The Open Source CFD Toolbox           |
|  \\    /   O peration     | Version:  2506                                  |
|   \\  /    A nd           | Website:  www.openfoam.com                      |
|    \\/     M anipulation  |                                                 |
\*---------------------------------------------------------------------------*/
FoamFile
{
    version     2.0;
    format      ascii;
    arch        "LSB;label=32;scalar=64";
    class       volScalarField;
    location    "1.5";
    object      nut;
}
// * * * * * * * * * * * * * * * * * * * * * * * * * * * * * * * * * * * * * //

dimensions      [0 2 -1 0 0 0 0];

internalField   nonuniform List<scalar> 
1375
(
0.19199023
0.19191626
0.19185322
0.19180245
0.19176195
0.19173197
0.19171821
0.19171154
0.19175936
0.19172977
0.19199625
0.15982146
0.12683006
0.099635684
0.078121015
0.060956407
0.046919018
0.035800256
0.027097835
0.020143298
0.014562514
0.010064528
0.0066703528
0.0039983665
0.0023513639
0.00089275783
0.19864532
0.1979161
0.19725834
0.19667663
0.19616203
0.19570172
0.19528647
0.19491132
0.19457206
0.19426468
0.19398524
0.19373195
0.19350193
0.19329238
0.19310064
0.1929255
0.19276635
0.19262102
0.19248771
0.19236641
0.19225633
0.19215673
0.19206795
0.19198667
0.19191287
0.19185021
0.19179955
0.19175838
0.19172732
0.19171278
0.19170456
0.19175007
0.19171073
0.19197674
0.16399601
0.13029909
0.1023849
0.080225634
0.062511461
0.048130554
0.036758079
0.027864983
0.020739877
0.015014104
0.010477547
0.0068906017
0.0042762582
0.0024899275
0.00092851036
0.19863105
0.19789511
0.19723325
0.19664935
0.19613302
0.19567134
0.19525618
0.19488123
0.19454244
0.19423601
0.19395797
0.19370613
0.19347759
0.19326941
0.19307903
0.19290514
0.19274705
0.19260257
0.19247019
0.19235005
0.1922411
0.19214243
0.19205413
0.19197264
0.19189872
0.19183607
0.19178486
0.19174203
0.1917092
0.19169296
0.19168359
0.19172804
0.19168605
0.19194836
0.1673031
0.13298037
0.10455293
0.081945708
0.063822049
0.049170676
0.03768979
0.028584565
0.021252292
0.015569073
0.01067191
0.0071394692
0.0044653847
0.0026430608
0.00088736823
0.19860881
0.19786083
0.19719148
0.19660334
0.19608372
0.19562056
0.19520504
0.19483077
0.19449347
0.19418847
0.19391221
0.19366255
0.19343619
0.19323002
0.19304179
0.19287018
0.19271436
0.19257197
0.19244149
0.19232312
0.19221572
0.19211873
0.19203182
0.19195134
0.19187899
0.1918182
0.19176827
0.19172597
0.19169411
0.19167925
0.19167207
0.19171883
0.19168921
0.19194188
0.16297233
0.12966727
0.10211603
0.080125914
0.062514251
0.04830815
0.036922664
0.027879666
0.021236533
0.014733023
0.010555155
0.0075086186
0.0036577405
0.002892295
0.0009787822
0.19858089
0.19781573
0.19713505
0.19654032
0.19601678
0.19555148
0.19513524
0.19476189
0.19442634
0.19412382
0.19385032
0.19360355
0.19337986
0.19317635
0.19299102
0.19282257
0.19266998
0.19253036
0.19240234
0.19228638
0.19218134
0.19208699
0.1920022
0.1919235
0.19185357
0.19179548
0.19174781
0.19170754
0.19167813
0.19166588
0.19166255
0.19171178
0.19170392
0.19194112
0.15901026
0.12634035
0.099498821
0.078187884
0.061084789
0.04701431
0.036085689
0.028191205
0.019779866
0.015258494
0.011381549
0.0057710535
0.0058545204
0.0020677964
0.00090611723
0.19854903
0.19776073
0.19706503
0.19646099
0.19593227
0.19546459
0.19504788
0.19467573
0.19434281
0.19404295
0.19377286
0.1935298
0.19330953
0.1931097
0.19292833
0.19276391
0.19261514
0.19247874
0.19235396
0.19224135
0.19213957
0.19204836
0.19196571
0.19188904
0.19182187
0.19176679
0.19172185
0.19168448
0.19165827
0.19164913
0.19165071
0.19170156
0.19172142
0.19193901
0.15685455
0.12463804
0.098116612
0.077255444
0.060372195
0.04668789
0.036613202
0.026193949
0.020619927
0.015498384
0.009264051
0.0084630665
0.0036303197
0.0028270336
0.00088291703
0.19851538
0.19769804
0.19698359
0.19636824
0.19583338
0.19536249
0.19494514
0.19457467
0.19424444
0.19394825
0.19368216
0.19344352
0.19322774
0.19303259
0.19285584
0.19269597
0.19255144
0.19241873
0.19229786
0.19218907
0.19209091
0.19200301
0.19192252
0.19184841
0.1917846
0.19173278
0.19169067
0.19165674
0.19163454
0.19162949
0.19163731
0.19168729
0.19174005
0.19193513
0.15489009
0.12305926
0.097011478
0.076871048
0.059676693
0.046994892
0.035045638
0.027388925
0.020713549
0.014465089
0.0098004782
0.0074355062
0.0034665654
0.002730248
0.00092637953
0.19848109
0.19762858
0.1968914
0.19626217
0.19572036
0.19524629
0.19482933
0.19446101
0.19413416
0.19384225
0.19358101
0.19334761
0.19313704
0.19294712
0.19277537
0.19262062
0.19248062
0.19235209
0.19223576
0.19213127
0.19203722
0.19195272
0.1918747
0.19180392
0.19174387
0.1916954
0.19165649
0.19162611
0.1916079
0.19160726
0.19162226
0.19166657
0.19176954
0.18945061
0.15257738
0.12033837
0.096378377
0.075214585
0.059052462
0.046122607
0.035495165
0.027278864
0.020559464
0.01448314
0.011825818
0.0063794239
0.0046342457
0.0024470179
0.00093700838
0.19844637
0.19755325
0.19679046
0.1961458
0.19559594
0.19511932
0.19470277
0.19433715
0.19401473
0.19372762
0.19347198
0.19324431
0.19303938
0.19285528
0.19268904
0.1925398
0.19240486
0.19228108
0.19216981
0.1920698
0.19197991
0.191899
0.19182407
0.19175703
0.19170093
0.19165616
0.19162038
0.19159335
0.19157934
0.19158336
0.19161064
0.19163035
0.19180767
0.18597163
0.14816438
0.12018646
0.093703784
0.073846456
0.059337712
0.045752493
0.035295958
0.025896233
0.020381312
0.013301098
0.012525593
0.0062347433
0.0052695261
0.0025597743
0.0009153946
0.19840986
0.19747158
0.19668066
0.19602073
0.19546271
0.19498409
0.19456879
0.19420616
0.19388835
0.19360711
0.19335725
0.19313561
0.19293684
0.19275911
0.19259903
0.19245574
0.19232597
0.19220708
0.1921012
0.19200615
0.19192064
0.19184292
0.19177167
0.19170905
0.19165685
0.19161529
0.19158285
0.19155977
0.1915519
0.19156181
0.19159949
0.19161493
0.19180681
0.18036457
0.14691952
0.11524898
0.091827351
0.07448626
0.057551635
0.045083067
0.033711322
0.027871768
0.019115997
0.016729633
0.0098256606
0.0066135744
0.0045968813
0.0027215766
0.00095894265
0.19837162
0.19738328
0.19656275
0.19588686
0.19532213
0.19484185
0.19442888
0.19407063
0.19375772
0.1934828
0.19323953
0.19302407
0.19283187
0.19266099
0.19250745
0.19237008
0.19224531
0.19213196
0.19203187
0.19194125
0.19185952
0.1917854
0.19171816
0.19166013
0.19161141
0.1915736
0.19154495
0.19152699
0.19152476
0.19153787
0.19158414
0.19161571
0.19179399
0.17778516
0.14254362
0.11373681
0.093282094
0.070477589
0.057746245
0.043543339
0.035475114
0.02663702
0.019601292
0.016174319
0.0090058958
0.0093785613
0.0050670394
0.0027619304
0.00084131135
0.19832987
0.19728771
0.19643716
0.19574612
0.19517557
0.19469532
0.19428548
0.19393248
0.19362564
0.1933569
0.19312107
0.19291189
0.19272655
0.1925622
0.1924153
0.19228405
0.19216425
0.19205721
0.19196177
0.19187562
0.19179928
0.19172946
0.19166534
0.19161087
0.19156629
0.19153244
0.19150756
0.19149375
0.19149706
0.19151677
0.19156852
0.1916339
0.19177855
0.17372925
0.13809544
0.11394434
0.086183618
0.072521628
0.05494865
0.043454349
0.034511813
0.024232134
0.02030252
0.013616695
0.010623892
0.0087102815
0.0037171244
0.0030753798
0.00091209554
0.19828678
0.19718726
0.19630642
0.19560105
0.1950259
0.19454662
0.194141
0.19379395
0.19349369
0.19323157
0.19300317
0.19280071
0.1926228
0.19246489
0.19232433
0.19219868
0.19208475
0.19198321
0.1918927
0.19181253
0.19173955
0.19167321
0.19161247
0.19156282
0.19152308
0.19149284
0.19147154
0.19146353
0.19147472
0.19149868
0.19154587
0.19166052
0.19177781
0.16706703
0.13825891
0.1086453
0.089036778
0.069558223
0.054336118
0.045636792
0.032893119
0.027022727
0.021207528
0.014410744
0.011195646
0.0073547087
0.0062404407
0.0032126182
0.00093993134
0.19823942
0.1970808
0.19617019
0.19545313
0.19487552
0.19439835
0.1939977
0.19365696
0.19336345
0.19310858
0.19288736
0.19269221
0.19252177
0.19236994
0.19223586
0.19211573
0.19200754
0.19191158
0.19182573
0.19175024
0.19168134
0.19161863
0.19156293
0.1915161
0.19147989
0.19145508
0.1914385
0.19143523
0.1914492
0.19147908
0.19153199
0.1916658
0.1918048
0.16658547
0.13554015
0.10670516
0.087556898
0.066335755
0.057442345
0.040914068
0.034117081
0.026168524
0.019112779
0.013870801
0.012568298
0.0061864866
0.0042688525
0.0031988148
0.00079076867
0.19818537
0.1969688
0.19603142
0.1953045
0.19472636
0.19425216
0.19385743
0.19352309
0.19323672
0.19298946
0.19277522
0.19258751
0.19242391
0.19227886
0.19215081
0.19203555
0.19193347
0.1918429
0.19176112
0.19169054
0.19162504
0.19156598
0.19151475
0.19147088
0.19143865
0.19141812
0.19140648
0.19140648
0.19142592
0.19146186
0.19153378
0.19166008
0.19183068
0.1643045
0.12879901
0.10780658
0.080454439
0.07032225
0.050399874
0.04273892
0.032924751
0.023600437
0.021256142
0.014965941
0.009829154
0.0080210014
0.0059769675
0.0027190274
0.0008440588
0.19812686
0.19685203
0.19589148
0.19515731
0.19457978
0.19410984
0.1937216
0.193394
0.19311471
0.19287523
0.19266776
0.19248756
0.19233005
0.19219127
0.19206956
0.19195965
0.19186314
0.19177708
0.19169981
0.19163253
0.19157076
0.19151644
0.19146811
0.19142822
0.19140297
0.19138484
0.19137219
0.19138011
0.19140615
0.19144112
0.19154399
0.19165795
0.19185893
0.15636552
0.13081136
0.10119315
0.086993343
0.06503448
0.055139142
0.044120192
0.032272663
0.030176142
0.018410894
0.014836489
0.014622246
0.0062775235
0.0052303132
0.0044225744
0.0007742388
0.19806184
0.19672859
0.19574932
0.19501196
0.1944367
0.19397255
0.19359101
0.19327056
0.19299821
0.19276637
0.19256556
0.1923925
0.19224111
0.19210825
0.19199223
0.19188778
0.19179651
0.19171477
0.19164135
0.19157797
0.19152066
0.19146899
0.19142255
0.19138858
0.19136718
0.19135084
0.19134418
0.19135516
0.19138449
0.19143
0.19154823
0.19166818
0.19188281
0.15962314
0.12631676
0.10408164
0.080764176
0.064971436
0.054069383
0.039750619
0.032838605
0.024043057
0.019172781
0.017716249
0.0071421395
0.0085608207
0.0083065838
0.0032719524
0.00073495635
0.1980038
0.19661289
0.19561327
0.19487317
0.19430086
0.19384295
0.19346788
0.19315429
0.19288874
0.19266361
0.1924697
0.19230324
0.19215768
0.19203056
0.19191953
0.1918203
0.19173404
0.19165578
0.19158633
0.19152645
0.19147259
0.19142407
0.19138039
0.19135123
0.19133299
0.19132307
0.19132081
0.19132885
0.19136139
0.19142765
0.19154579
0.19168295
0.19105864
0.14884953
0.12206017
0.098189202
0.078657523
0.067854724
0.048231942
0.040420581
0.035691861
0.024135648
0.021960078
0.014473723
0.014986453
0.0061387097
0.0078976003
0.0042896673
0.00076957098
0.19789687
0.19645804
0.19546212
0.19472881
0.19416357
0.19371383
0.19334684
0.19304107
0.19278275
0.19256501
0.19237735
0.19221698
0.1920772
0.1919565
0.19185012
0.19175561
0.19167392
0.19159981
0.19153441
0.19147843
0.19142568
0.19138039
0.19134145
0.19131589
0.19129896
0.19129677
0.19129684
0.19130391
0.19134046
0.19143044
0.19154773
0.19170015
0.18958014
0.1506371
0.12167827
0.097315141
0.08523334
0.058956613
0.052958989
0.04710655
0.02743769
0.024640878
0.018759588
0.015592495
0.0041606173
0.0055016075
0.0082361143
0.0070728352
0.00073865702
0.19792243
0.19640727
0.19537258
0.19462988
0.1940632
0.1936153
0.19325147
0.19294959
0.19269653
0.19248346
0.19230041
0.19214428
0.19200895
0.19189218
0.19179003
0.19169907
0.19162016
0.19154917
0.19148759
0.19143455
0.19138467
0.19134045
0.19130407
0.19128209
0.19126934
0.19126956
0.19127558
0.19128202
0.19132171
0.19142653
0.19155239
0.19171125
0.18961528
0.15469857
0.11815252
0.1017687
0.076671148
0.07394645
0.051586426
0.037106746
0.044195244
0.019707406
0.0245635
0.011403817
0.0067307561
0.0037655772
0.0041757457
0.0035722449
0.00071658393
0.00072586455
0.0068497237
0.0094816772
0.0049329077
0.010901545
0.026894704
0.023235935
0.021178433
0.01878557
0.041734853
0.048521758
0.053845496
0.078081752
0.096617062
0.11610339
0.14121223
0.18507777
0.19173963
0.19157957
0.19143884
0.19131833
0.19126175
0.19125251
0.19123942
0.19123843
0.1912455
0.19126659
0.19129789
0.19133864
0.19138348
0.1914346
0.19149109
0.19155808
0.19163294
0.19171839
0.19181434
0.19192605
0.19205381
0.19220266
0.19237652
0.19257961
0.19282177
0.19311183
0.193462
0.19389335
0.19444069
0.19515932
0.19616769
0.19765309
0.00072968792
0.0084281446
0.0067448065
0.012086289
0.018675573
0.020835886
0.016210558
0.030248618
0.037597516
0.041447526
0.046454382
0.062381444
0.071025838
0.093646473
0.11627471
0.13947507
0.17354089
0.19178592
0.19159941
0.19144482
0.19132013
0.19124292
0.19122218
0.19121652
0.19121289
0.19121275
0.19122933
0.19125481
0.19129266
0.19133338
0.19138137
0.19143399
0.19149639
0.19156641
0.19164604
0.19173663
0.19184285
0.19196324
0.19210396
0.19226853
0.19246177
0.19269266
0.19297049
0.19330654
0.19372153
0.19424845
0.19494174
0.19591856
0.19736282
0.00072008003
0.011747476
0.018051871
0.012996059
0.007973615
0.020551251
0.028545615
0.030809019
0.014417304
0.037658653
0.045952334
0.065098855
0.087048672
0.10025851
0.1160469
0.14294976
0.17105673
0.19183125
0.19162092
0.19146128
0.1913348
0.19123721
0.19120203
0.19118702
0.19118515
0.19117999
0.1911901
0.19121208
0.19124752
0.19128467
0.19133001
0.19137904
0.19143578
0.1915017
0.19157672
0.19166279
0.19176183
0.19187559
0.19200846
0.19216428
0.19234853
0.19256893
0.19283457
0.19315736
0.19355696
0.19406441
0.19473375
0.19567846
0.19708379
0.00075605188
0.0082477838
0.020583355
0.0068947963
0.012251242
0.0096705266
0.010945817
0.0125176
0.026835629
0.030490351
0.045285122
0.043312865
0.061376927
0.084750507
0.10657631
0.12728545
0.17663233
0.19187771
0.19164257
0.19147749
0.19134528
0.19122753
0.19117068
0.19116155
0.1911544
0.19114543
0.19115597
0.19117465
0.19120573
0.1912395
0.19128105
0.19132525
0.19137855
0.19144238
0.1915117
0.19159209
0.19168423
0.19179106
0.19191681
0.19206459
0.19224025
0.19245047
0.1927045
0.19301491
0.19339963
0.19388917
0.19453627
0.1954513
0.1968206
0.00078888308
0.016068303
0.010578779
0.0088391511
0.020020873
0.011685532
0.020234053
0.021183919
0.024526748
0.04137214
0.04612367
0.079416217
0.071595228
0.087337787
0.11050868
0.13411515
0.14802995
0.19193203
0.19165317
0.19148884
0.19134939
0.19121972
0.1911513
0.19114989
0.19112977
0.19112988
0.19112559
0.19113969
0.19116476
0.19119571
0.19123442
0.19127489
0.19132453
0.19138338
0.1914484
0.19152275
0.19160954
0.19170983
0.19182883
0.19196897
0.19213638
0.19233707
0.19258036
0.1928789
0.19324965
0.19372275
0.1943491
0.19523613
0.19656997
0.00078310063
0.016338575
0.010812094
0.016625593
0.022262701
0.028985491
0.037378724
0.021508223
0.039776686
0.055224495
0.063523559
0.059899467
0.048797282
0.11180318
0.11081531
0.12998576
0.15989719
0.19016382
0.1917049
0.19151765
0.19136771
0.19122277
0.19114146
0.19112731
0.19110708
0.19109808
0.19108929
0.19110055
0.19112169
0.191152
0.19118652
0.19122633
0.19127143
0.1913249
0.19138568
0.19145493
0.19153651
0.19163172
0.19174407
0.1918772
0.19203678
0.19222856
0.1924619
0.19274906
0.19310683
0.19356464
0.19417157
0.19503228
0.19633272
0.022899474
0.037648359
0.043869582
0.031078802
0.042366572
0.027815882
0.039231434
0.044254108
0.094038063
0.068481384
0.10382802
0.12477614
0.15771699
0.19204958
0.1917358
0.19154445
0.19138163
0.19123397
0.19113338
0.1910958
0.19106841
0.19106517
0.19105575
0.19106467
0.19108093
0.19110849
0.19114212
0.19117905
0.19122004
0.19126817
0.19132455
0.1913897
0.19146605
0.19155655
0.19166268
0.1917894
0.19194133
0.19212462
0.19234856
0.19262503
0.19297061
0.19341414
0.19400299
0.19483971
0.19610653
0.041488613
0.087941555
0.094460705
0.11102555
0.1494977
0.19215069
0.19174804
0.19153181
0.19137103
0.19122516
0.19113201
0.19110852
0.19105709
0.19105464
0.19103624
0.19104114
0.19104813
0.19107219
0.19110748
0.19113215
0.1911693
0.1912132
0.19126637
0.19132744
0.191399
0.19148428
0.19158495
0.19170547
0.19184998
0.1920252
0.19223985
0.19250632
0.19284046
0.19327062
0.19384284
0.1946573
0.19589043
0.19112728
0.19108707
0.19104415
0.19102483
0.19101034
0.19101098
0.19102021
0.19103286
0.19106268
0.19108564
0.19111834
0.19115924
0.19120983
0.19126726
0.19133462
0.19141521
0.19151072
0.1916249
0.19176242
0.19193003
0.19213585
0.19239257
0.19271606
0.19313372
0.19369059
0.19448403
0.19568444
0.19115463
0.19120927
0.1912728
0.19134913
0.19143894
0.19154719
0.1916781
0.19183855
0.19203636
0.19228375
0.19259706
0.19300304
0.19354557
0.1943194
0.19548826
)
;

boundaryField
{
    Side
    {
        type            empty;
    }
    Inlet
    {
        type            calculated;
        value           nonuniform List<scalar> 
29
(
0.19900707
0.1989979
0.19898465
0.19896936
0.19895437
0.19894126
0.19893156
0.19892496
0.19892158
0.19891982
0.19892093
0.19892846
0.19893239
0.19892371
0.19891564
0.19891806
0.19892647
0.19893285
0.19894287
0.19897629
0.19907068
0.19913743
0.19919431
0.19919568
0.19919081
0.19918765
0.19918779
0.19919097
0.19920202
)
;
    }
    Airfoil
    {
        type            nutkWallFunction;
        blending        stepwise;
        value           nonuniform List<scalar> 
26
(
0.00088948215
0.00088856859
0.00088606907
0.00088216935
0.00087740944
0.0008721108
0.00086635266
0.0008603056
0.00085421173
0.00084840663
0.00084317114
0.0008388354
0.00083550928
0.00083338516
0.00083307682
0.0008342692
0.00083737913
0.00084232836
0.00084993008
0.00085931717
0.00086878218
0.00087267123
0.00087894006
0.00088650698
0.0008947056
0.00090403038
)
;
    }
    Outlet
    {
        type            calculated;
        value           nonuniform List<scalar> 0();
    }
    procBoundary0to1
    {
        type            processor;
        value           nonuniform List<scalar> 
53
(
0.00078968011
0.016599695
0.015757628
0.023383361
0.023383361
0.029841633
0.019066497
0.035847427
0.037004653
0.030071923
0.046098356
0.047704727
0.070628135
0.070628135
0.080068489
0.13658444
0.1078806
0.12494809
0.1279181
0.15923776
0.19183276
0.19157531
0.19137776
0.19121841
0.19121841
0.19112908
0.1910483
0.19101053
0.19098121
0.19097404
0.19097307
0.19097912
0.19098653
0.19101517
0.19103906
0.19106914
0.19110736
0.19110736
0.19110218
0.19115415
0.19121375
0.19128533
0.19136939
0.19147214
0.19159706
0.19175061
0.19194088
0.19217966
0.19248337
0.19287813
0.19340729
0.19416304
0.19530144
)
;
    }
    procBoundary0to7
    {
        type            processor;
        value           nonuniform List<scalar> 
50
(
0.19198262
0.19190792
0.19184352
0.19179112
0.19174911
0.1917176
0.19170176
0.19169261
0.19173774
0.1917002
0.19196557
0.16443652
0.13021627
0.10216637
0.080149569
0.062567265
0.048155637
0.036688802
0.02780934
0.020719011
0.014981291
0.010466338
0.0068851283
0.0042711823
0.0025277415
0.00089342239
0.19865058
0.19792237
0.19726489
0.19668568
0.19617149
0.19571049
0.19529474
0.19491945
0.19458004
0.19427173
0.19399168
0.19373811
0.19350795
0.1932983
0.19310649
0.19293126
0.19277191
0.19262642
0.19249297
0.19237144
0.19226114
0.19216102
0.19207167
0.19207167
)
;
    }
}


// ************************************************************************* //
