/*--------------------------------*- C++ -*----------------------------------*\
| =========                 |                                                 |
| \\      /  F ield         | OpenFOAM: The Open Source CFD Toolbox           |
|  \\    /   O peration     | Version:  2506                                  |
|   \\  /    A nd           | Website:  www.openfoam.com                      |
|    \\/     M anipulation  |                                                 |
\*---------------------------------------------------------------------------*/
FoamFile
{
    version     2.0;
    format      ascii;
    arch        "LSB;label=32;scalar=64";
    class       volScalarField;
    location    "0.0125";
    object      omega;
}
// * * * * * * * * * * * * * * * * * * * * * * * * * * * * * * * * * * * * * //

dimensions      [0 0 -1 0 0 0 0];

internalField   nonuniform List<scalar> 
13761
(
14452.17
14455.08
14458.224
14457.295
14454.085
14450.843
14448.986
14446.644
14457.207
14453.987
14450.673
14447.679
14445.034
14444.606
14444.129
14457.202
14453.984
14450.658
14447.508
14444.773
14442.941
14442.13
14444.634
14448.616
14457.204
14453.99
14450.662
14447.493
14444.738
14442.696
14441.771
14442.857
14446.465
14455.03
14466.497
14457.206
14453.996
14450.668
14447.497
14444.738
14442.663
14441.703
14442.553
14446.01
14453.081
14464.106
14482.28
14509.141
14457.209
14454.002
14450.676
14447.505
14444.743
14442.659
14441.682
14442.48
14445.873
14452.644
14463.431
14479.922
14505.922
14554.099
14645.801
14457.212
14454.009
14450.683
14447.513
14444.749
14442.659
14441.668
14442.439
14445.787
14452.455
14463.088
14479.053
14504.317
14549.943
14639.062
14815.862
15148.083
15735.335
14457.216
14454.016
14450.692
14447.522
14444.755
14442.659
14441.654
14442.401
14445.707
14452.299
14462.796
14478.43
14503.021
14547.044
14633.357
14804.643
15129.443
15706.139
16654.038
18099.358
14457.22
14454.023
14450.701
14447.532
14444.763
14442.659
14441.64
14442.362
14445.625
14452.143
14462.503
14477.83
14501.753
14544.314
14627.754
14793.711
15109.94
15673.856
16607.193
18036.341
20039.221
22614.596
14457.225
14454.031
14450.711
14447.542
14444.771
14442.66
14441.625
14442.321
14445.54
14451.983
14462.201
14477.22
14500.461
14541.549
14622.036
14782.55
15089.683
15639.754
16554.625
17962.566
19954.191
22524.581
25483.349
28540.319
14457.229
14454.038
14450.72
14447.553
14444.779
14442.66
14441.61
14442.278
14445.451
14451.817
14461.889
14476.594
14499.138
14538.717
14616.162
14771.049
15068.668
15604.109
16498.804
17882.58
19852.945
22412.265
25393.917
28484.623
31277.982
33755.181
14457.235
14454.047
14450.731
14447.564
14444.788
14442.661
14441.595
14442.233
14445.358
14451.645
14461.568
14475.952
14497.786
14535.822
14610.136
14759.195
15046.893
15566.966
16440.19
17797.615
19741.897
22284.828
25277.594
28403.719
31264.612
33781.31
36536.193
41089.313
49039.125
14457.24
14454.055
14450.742
14447.576
14444.797
14442.662
14441.578
14442.186
14445.262
14451.466
14461.236
14475.296
14496.407
14532.865
14603.963
14746.997
15024.373
15528.335
16378.835
17707.927
19622.852
22145.083
25141.368
28301.815
31229.867
33795.476
36539.223
40966.309
48691.625
60587.072
77246.878
14457.245
14454.064
14450.754
14447.589
14444.807
14442.663
14441.561
14442.137
14445.161
14451.281
14460.895
14474.626
14495.003
14529.855
14597.658
14734.477
15001.133
15488.243
16314.765
17613.557
19496.197
21993.858
24988.379
28181.139
31175.921
33798.198
36535.835
40835.232
48322.776
59877.912
76024.177
98535.326
133455.44
212256.31
14457.251
14454.074
14450.767
14447.602
14444.817
14442.664
14441.542
14442.085
14445.056
14451.088
14460.544
14473.944
14493.579
14526.8
14591.238
14721.664
14977.217
15446.736
16248.004
17514.493
19361.936
21831.185
24819.463
28042.209
31103.855
33789.631
36526.031
40695.859
47931.52
59121.452
74714.526
96170.67
128370.1
195384.03
75476.009
90913.337
130910.44
14457.258
14454.084
14450.78
14447.616
14444.828
14442.665
14441.523
14442.031
14444.945
14450.889
14460.183
14473.25
14492.139
14523.711
14584.722
14708.592
14952.671
15403.869
16178.598
17410.73
19219.966
21656.81
24634.359
27884.355
31013.425
33769.291
36509.798
40548.062
47516.813
58314.976
73312.724
93639.632
122979.42
179012.78
71509.195
85730.813
120557.66
14457.265
14454.095
14450.794
14447.631
14444.84
14442.666
14441.503
14441.974
14444.83
14450.681
14459.813
14472.546
14490.688
14520.598
14578.133
14695.301
14927.558
15359.722
16106.614
17302.277
19070.183
21470.393
24432.361
27706.198
30903.236
33735.917
36486.899
40391.825
47077.71
57455.713
71813.613
90936.665
117311.13
162691.52
67874.613
81083.185
111592.73
14457.272
14454.107
14450.809
14447.647
14444.852
14442.667
14441.482
14441.914
14444.71
14450.466
14459.433
14471.833
14489.229
14517.474
14571.495
14681.835
14901.946
15314.382
16032.145
17189.18
18912.487
21271.567
24212.589
27505.949
30770.996
33687.43
36456.738
40227.298
46613.555
56541.065
70212.411
88057.925
111381.58
146857.23
64487.945
76878.122
103737.2
14457.28
14454.12
14450.825
14447.664
14444.865
14442.669
14441.46
14441.851
14444.584
14450.242
14459.044
14471.112
14487.768
14514.349
14564.834
14668.242
14875.913
15267.957
15955.302
17071.504
18746.811
21059.974
23974.112
27281.607
30613.699
33620.902
36418.246
40054.861
46124.27
55569.109
68505.524
85003.296
105227.37
131598.02
61405.758
73040.015
96781.966
14457.289
14454.133
14450.842
14447.682
14444.879
14442.67
14441.436
14441.785
14444.452
14450.011
14458.645
14470.385
14486.31
14511.238
14558.181
14654.581
14849.561
15220.597
15876.277
16949.431
18573.217
20835.387
23716.093
27031.129
30427.834
33532.507
36369.76
39875.149
45610.5
54538.717
66690.645
81776.068
98892.557
117120.45
58555.291
69505.347
90563.733
14457.298
14454.147
14450.86
14447.701
14444.894
14442.672
14441.412
14441.716
14444.314
14449.77
14458.238
14469.654
14484.861
14508.156
14551.571
14640.923
14823.01
15172.489
15795.312
16823.217
18391.886
20597.712
23437.812
26752.503
30209.482
33417.429
36308.771
39688.971
45073.708
53449.66
64766.817
78383.167
92431.511
103525.34
55943.092
66221.147
84954.036
14457.308
14454.163
14450.879
14447.721
14444.91
14442.674
14441.386
14441.644
14444.17
14449.521
14457.821
14468.919
14483.425
14505.119
14545.038
14627.335
14796.382
15123.821
15712.665
16693.152
18203.028
20346.914
23138.648
26443.8
29954.467
33269.818
36231.593
39497.262
44516.702
52303.609
62736.063
74837.818
85910.332
90962.66
53513.034
63144.621
79850.088
14457.319
14454.179
14450.899
14447.742
14444.926
14442.677
14441.36
14441.568
14444.02
14449.261
14457.394
14468.182
14482.009
14502.14
14538.617
14613.893
14769.818
15074.823
15628.663
16559.631
18007.022
20083.168
22818.223
26103.348
29658.564
33082.814
36132.951
39300.786
43943.943
51104.873
60604.427
71160.905
79406.943
79501.38
51256.006
60241.637
75170.502
14457.33
14454.196
14450.921
14447.764
14444.943
14442.679
14441.332
14441.489
14443.862
14448.992
14456.957
14467.443
14480.616
14499.237
14532.349
14600.682
14743.475
15025.762
15543.701
16423.162
17804.401
19806.859
22476.446
25729.826
29317.705
32848.681
36005.497
39099.524
43361.609
49860.837
58382.488
67381.156
73008.653
69281.923
49130.493
57485.003
70847.794
14457.342
14454.214
14450.943
14447.788
14444.961
14442.681
14441.302
14441.405
14443.697
14448.712
14456.51
14466.704
14479.252
14496.423
14526.271
14587.783
14717.516
14976.918
15458.213
16284.323
17595.822
19518.558
22113.496
25322.329
28928.219
32559.042
35839.392
38891.801
42777.725
48583.147
56087.141
63537.133
66811.989
60365.305
47129.986
54853.692
66827.62
14457.355
14454.233
14450.967
14447.812
14444.98
14442.684
14441.27
14441.317
14443.523
14448.421
14456.052
14465.964
14477.919
14493.713
14520.421
14575.287
14692.12
14928.614
15372.711
16143.838
17382.16
19219.148
21730.007
24880.619
28487.244
32205.462
35622.072
38672.96
42201.749
47288.508
53742.774
59677.617
60919.84
52882.665
45227.199
52332.47
63065.939
14457.368
14454.253
14450.992
14447.838
14445
14442.686
14441.237
14441.224
14443.341
14448.117
14455.581
14465.222
14476.622
14491.119
14514.836
14563.278
14667.468
14881.185
15287.751
16002.517
17164.45
18909.756
21326.971
24405.096
27993.005
31780.144
35338.439
38433.635
41643.426
45999.451
51382.724
55862.206
55436.698
46880.329
43421.708
49910.459
59527.225
14457.383
14454.274
14451.018
14447.865
14445.021
14442.688
14441.202
14441.126
14443.15
14447.801
14455.096
14464.479
14475.361
14488.651
14509.549
14551.844
14643.745
14834.99
15203.947
15861.294
16943.938
18591.834
20905.87
23896.979
27445.214
31277.035
34971.852
38157.933
41110.471
44744.813
49051.115
52161.962
50462.217
42320.638
41698.489
47581.571
56184.182
14457.398
14454.297
14451.046
14447.894
14445.042
14442.689
14441.164
14441.022
14442.949
14447.469
14454.597
14463.732
14474.138
14486.318
14504.59
14541.062
14621.135
14790.398
15121.958
15721.21
16722.076
18267.158
20468.651
23358.274
26845.286
30692.988
34506.246
37822.297
40604.296
43558.709
46804.042
48659.379
46084.186
39041.168
40062.389
45343.346
53015.942
14457.415
14454.322
14451.076
14447.924
14445.064
14442.69
14441.124
14440.913
14442.738
14447.123
14454.08
14462.98
14472.951
14484.125
14499.983
14531.007
14599.815
14747.779
15042.472
15583.4
16500.509
17937.826
20017.724
22791.725
26196.336
30028.804
33929.518
37396.69
40113.835
42476.885
44710.225
45448.31
42370.865
36719.949
38512.172
43197.277
50008.134
14457.433
14454.348
14451.107
14447.956
14445.087
14442.691
14441.082
14440.797
14442.515
14446.759
14453.545
14462.219
14471.797
14482.075
14495.746
14521.738
14579.944
14707.495
14966.196
15449.079
16281.078
17606.277
19555.974
22200.714
25502.942
29289.683
33237.591
36850.319
39609.383
41527.656
42848.452
42632.618
39370.491
35101.828
37058.05
41148.406
47151.886
14457.452
14454.375
14451.141
14447.989
14445.112
14442.692
14441.036
14440.675
14442.28
14446.377
14452.989
14461.446
14470.673
14480.163
14491.888
14513.305
14561.666
14669.887
14893.838
15319.529
16065.814
17275.315
19086.793
21589.169
24770.601
28484.583
32437.521
36162.776
39042.855
40715.705
41297.105
40319.024
37104.189
33941.755
35712.776
39205.527
44443.608
14457.473
14454.406
14451.177
14448.025
14445.137
14442.692
14440.988
14440.545
14442.031
14445.976
14452.408
14460.657
14469.572
14478.386
14488.412
14505.736
14545.094
14635.261
14826.076
15196.051
15856.886
16948.067
18614.056
20961.424
24004.972
27624.213
31547.065
35336.993
38364.891
40005.147
40109.357
38597.725
35559.099
33134.207
34494.486
37381.234
41884.485
14457.496
14454.438
14451.215
14448.062
14445.164
14442.692
14440.936
14440.408
14441.769
14445.553
14451.801
14459.847
14468.487
14476.732
14485.309
14499.046
14530.31
14603.875
14763.542
15079.945
15656.597
16628.038
18142.267
20322.375
23211.426
26718.306
30589.142
34403.99
37559.88
39327.475
39277.571
37504.422
34676.104
32606.193
33427.333
35692.492
39480.318
14457.521
14454.473
14451.256
14448.102
14445.192
14442.691
14440.88
14440.262
14441.493
14445.108
14451.165
14459.012
14467.41
14475.189
14482.563
14493.225
14517.353
14575.918
14706.778
14972.433
15467.272
16318.989
17676.525
19677.56
22394.833
25772.988
29582.08
33409.069
36669.749
38639.311
38728.354
36987.765
34357.811
32344.058
32540.46
34161.259
37241.333
14457.548
14454.511
14451.301
14448.145
14445.221
14442.689
14440.821
14440.108
14441.2
14444.637
14450.496
14458.145
14466.33
14473.737
14480.145
14488.242
14506.219
14551.498
14656.196
14874.591
15291.153
16024.837
17222.499
19033.422
21560.081
24790.01
28530.914
32383.136
35764.853
37975.555
38391.261
36934.701
34500.164
32352.098
31870.979
32816.359
35183.672
14457.577
14454.552
14451.349
14448.191
14445.253
14442.687
14440.757
14439.944
14440.89
14444.14
14449.791
14457.24
14465.236
14472.358
14478.02
14484.045
14496.856
14530.631
14612.067
14787.305
15130.334
15749.586
16786.518
18397.845
20713.584
23769.156
27426.421
31320.831
34875.983
37395.031
38249.459
37237.427
35020.782
32650.217
31466.244
31695.808
33330.815
14457.61
14454.597
14451.401
14448.241
14445.286
14442.685
14440.69
14439.77
14440.562
14443.614
14449.046
14456.292
14464.116
14471.027
14476.148
14480.564
14489.166
14513.239
14574.478
14711.185
14986.591
15497.083
16375.313
17780.262
19864.639
22712.454
26252.975
30184.001
33958.892
36875.118
38269.15
37805.877
35862.715
33270.261
31386.15
30850.039
31714.975
14457.645
14454.647
14451.458
14448.295
14445.322
14442.682
14440.617
14439.586
14440.215
14443.058
14448.259
14455.293
14462.958
14469.722
14474.48
14477.713
14483.01
14499.144
14543.324
14646.512
14861.246
15270.763
15995.711
17191.544
19026.419
21628.528
25000.713
28926.326
32922.473
36297.944
38331.932
38529.37
36974.498
34247.687
31706.337
30346.63
30378.806
14457.684
14454.701
14451.52
14448.353
14445.362
14442.68
14440.541
14439.39
14439.847
14442.469
14447.425
14454.237
14461.749
14468.416
14472.967
14475.394
14478.212
14488.075
14518.294
14593.181
14755.02
15073.335
15654.095
16643.377
18215.845
20534.81
23674.639
27518.356
31679.758
35515.874
38263.307
39260.052
38285.965
35611.031
32515.854
30277.01
29382.772
14457.728
14454.76
14451.587
14448.417
14445.405
14442.678
14440.459
14439.182
14439.457
14441.845
14446.541
14453.118
14460.476
14467.086
14471.557
14473.504
14474.575
14479.691
14498.891
14550.688
14667.92
14906.478
15355.795
16147.279
17452.456
19457.191
22297.722
25960.144
30180.351
34408.89
37887.731
39820.655
39683.864
37358.382
33909.225
30764.366
28816.411
14457.775
14454.825
14451.662
14448.487
14445.452
14442.676
14440.373
14438.962
14439.044
14441.183
14445.603
14451.929
14459.129
14465.707
14470.202
14471.938
14471.886
14473.592
14484.456
14518.141
14599.169
14770.552
15104.385
15713.271
16756.341
18427.462
20908.843
24282.149
28419.112
32906.562
37058.387
40016.007
40991.674
39419.796
35961.141
31969.014
28815.711
14457.828
14454.896
14451.744
14448.565
14445.505
14442.677
14440.282
14438.728
14438.606
14440.482
14444.607
14450.664
14457.695
14464.257
14468.856
14470.599
14469.936
14469.358
14474.22
14494.324
14547.241
14664.474
14901.153
15348.598
16145.789
17479.79
19558.469
22541.167
26434.381
30991.988
35669.038
39643.674
41957.501
41613.066
38677.93
34081.339
29589.387
14457.885
14454.975
14451.834
14448.652
14445.565
14442.679
14440.187
14438.482
14438.142
14439.74
14443.55
14449.316
14456.163
14462.717
14467.477
14469.398
14468.531
14466.574
14467.369
14477.8
14509.963
14585.711
14744.711
15056.48
15634.581
16646.114
18302.388
20813.754
24303.677
28703.637
33666.338
38515.174
42265.209
43607.439
41919.386
37280.855
31453.995
14457.949
14455.062
14451.935
14448.748
14445.633
14442.686
14440.089
14438.222
14437.652
14438.952
14442.426
14447.879
14454.522
14461.065
14466.027
14468.255
14467.497
14464.862
14463.106
14467.039
14484.731
14530.497
14630.965
14835.308
15229.541
15951.156
17193.936
19187.19
22137.49
26138.275
31068.469
36492.091
41570.836
44912.834
45295.888
41623.527
34861.927
14458.019
14455.158
14452.046
14448.856
14445.711
14442.699
14439.989
14437.949
14437.134
14438.119
14441.234
14446.346
14452.762
14459.284
14464.474
14467.106
14466.692
14463.899
14460.72
14460.572
14468.782
14494.26
14553.549
14678.577
14928.986
15407.913
16275.353
17747.459
20068.562
23450.808
27986.83
33535.805
39569.398
44911.777
48070.711
46814.917
40357.908
14458.095
14455.263
14452.17
14448.978
14445.801
14442.719
14439.889
14437.664
14436.589
14437.237
14439.968
14444.711
14450.871
14457.355
14462.787
14465.895
14466.004
14463.43
14459.625
14457.111
14459.499
14472.182
14504.656
14575.682
14722.503
15014.529
15569.28
16563.989
18232.97
20842.579
24639.858
29765.173
36096.262
42959.059
49119.176
51851.437
48277.208
14458.178
14455.379
14452.308
14449.115
14445.906
14442.75
14439.792
14437.37
14436.017
14436.307
14438.626
14442.967
14448.838
14455.26
14460.935
14464.573
14465.342
14463.266
14459.384
14455.644
14454.669
14459.813
14476.203
14513.694
14592.774
14754.407
15073.726
15675.326
16745.263
18534.373
21348.166
25512.209
31277.396
38610.757
47057.506
54584.149
57663.303
14458.269
14455.507
14452.461
14449.27
14446.029
14442.796
14439.701
14437.069
14435.42
14435.329
14437.206
14441.11
14446.652
14452.98
14458.89
14463.095
14464.635
14463.272
14459.701
14455.465
14452.646
14453.562
14461.007
14479.623
14519.087
14599.92
14762.555
15079.76
15671.464
16720.926
18491.623
21340.57
25706.753
32049.419
40812.997
51611.074
63043.903
14458.368
14455.647
14452.632
14449.446
14446.174
14442.86
14439.622
14436.766
14434.802
14434.305
14435.708
14439.135
14444.304
14450.497
14456.62
14461.415
14463.817
14463.35
14460.384
14456.135
14452.361
14450.925
14453.597
14462.491
14481.465
14518.875
14592.168
14734.933
15007.021
15508.858
16402.252
17939.732
20497.571
24615.105
31087.539
40673.927
54248.367
14458.475
14455.8
14452.82
14449.645
14446.343
14442.948
14439.559
14436.468
14434.17
14433.24
14434.134
14437.041
14441.786
14447.79
14454.091
14459.482
14462.822
14463.411
14461.308
14457.41
14453.226
14450.425
14450.453
14454.501
14463.978
14481.536
14512.818
14569.244
14672.383
14860.888
15201.845
15809.018
16868.558
18680.948
21747.287
26713.474
34495.782
14458.59
14455.966
14453.03
14449.869
14446.543
14443.066
14439.521
14436.183
14433.532
14432.142
14432.492
14434.831
14439.093
14444.846
14451.27
14457.241
14461.571
14463.365
14462.369
14459.147
14454.957
14451.342
14449.704
14451.071
14456.171
14465.732
14480.989
14504.48
14541.314
14601.293
14702.563
14877.677
15182.39
15712.928
16645.051
18225.55
20796.587
14458.713
14456.147
14453.26
14450.123
14446.777
14443.22
14439.517
14435.921
14432.9
14431.024
14430.793
14432.514
14436.228
14441.651
14448.124
14454.632
14459.978
14463.102
14463.449
14461.233
14457.416
14453.392
14450.568
14450.062
14452.604
14458.576
14468.129
14481.369
14498.677
14521.237
14551.925
14596.599
14665.733
14779.412
14980.548
15331.038
15906.417
14458.844
14456.342
14453.514
14450.408
14447.05
14443.418
14439.556
14435.697
14432.291
14429.903
14429.056
14430.107
14433.2
14438.202
14444.626
14451.595
14457.943
14462.488
14464.4
14463.527
14460.491
14456.469
14452.827
14450.791
14451.269
14454.774
14461.406
14470.903
14482.759
14496.442
14511.671
14528.584
14547.802
14571.949
14609.693
14673.23
14772.035
14458.983
14456.551
14453.791
14450.728
14447.367
14443.668
14439.652
14435.526
14431.724
14428.806
14427.307
14427.637
14430.034
14434.511
14440.762
14448.073
14455.359
14461.366
14465.027
14465.833
14464.023
14460.483
14456.448
14453.195
14451.808
14453.027
14457.165
14464.09
14473.315
14484.172
14495.993
14508.08
14519.611
14530.422
14542.17
14556.635
14572.619
14459.13
14456.774
14454.093
14451.085
14447.734
14443.98
14439.816
14435.426
14431.224
14427.761
14425.585
14425.146
14426.768
14430.606
14436.534
14444.027
14452.123
14459.561
14465.094
14467.882
14467.762
14465.257
14461.378
14457.352
14454.378
14453.42
14455.052
14459.398
14466.176
14474.876
14484.935
14495.667
14506.165
14515.903
14525.181
14533.776
14539.939
14459.285
14457.01
14454.42
14451.481
14448.156
14444.361
14440.063
14435.419
14430.819
14426.806
14423.935
14422.688
14423.463
14426.541
14431.976
14439.444
14448.15
14456.895
14464.326
14469.327
14471.339
14470.475
14467.423
14463.249
14459.174
14456.33
14455.548
14457.23
14461.345
14467.579
14475.532
14484.682
14494.278
14503.745
14512.99
14521.398
14527.355
14459.448
14457.259
14454.771
14451.917
14448.637
14444.82
14440.408
14435.526
14430.542
14425.986
14422.414
14420.335
14420.201
14422.402
14427.158
14434.351
14443.393
14453.211
14462.437
14469.759
14474.269
14475.647
14474.181
14470.662
14466.209
14462.033
14459.177
14458.315
14459.665
14463.089
14468.297
14474.943
14482.603
14490.97
14499.929
14508.942
14516.49
14459.621
14457.521
14455.148
14452.396
14449.181
14445.367
14440.864
14435.77
14430.425
14425.346
14421.088
14418.171
14417.088
14418.309
14422.199
14428.841
14437.872
14448.409
14459.165
14468.74
14475.958
14480.098
14480.999
14479.065
14475.178
14470.496
14466.187
14463.165
14461.907
14462.441
14464.531
14467.892
14472.365
14478.044
14485.131
14493.712
14503.586
14459.805
14457.795
14455.548
14452.916
14449.791
14446.008
14441.447
14436.174
14430.504
14424.938
14420.026
14416.293
14414.248
14414.416
14417.272
14423.076
14431.697
14442.486
14454.329
14465.861
14475.762
14482.993
14486.953
14487.581
14485.373
14481.26
14476.388
14471.84
14468.378
14466.297
14465.503
14465.712
14466.687
14468.397
14470.853
14474.101
14478.592
14460.002
14458.081
14455.971
14453.478
14450.468
14446.749
14442.169
14436.76
14430.811
14424.809
14419.299
14414.799
14411.82
14410.905
14412.599
14417.303
14425.097
14435.588
14447.904
14460.837
14473.078
14483.41
14490.88
14494.952
14495.615
14493.374
14489.121
14483.929
14478.797
14474.438
14471.214
14469.202
14468.267
14468.125
14468.167
14467.365
14464.689
14460.216
14458.38
14456.418
14454.082
14451.216
14447.597
14443.042
14437.548
14431.378
14425.006
14418.972
14413.787
14409.942
14407.971
14408.441
14411.843
14418.426
14428.042
14440.093
14453.626
14467.494
14480.491
14491.484
14499.564
14504.2
14505.321
14503.293
14498.839
14492.898
14486.452
14480.44
14475.738
14473.043
14472.749
14474.726
14478.066
14481.274
14460.452
14458.691
14456.888
14454.728
14452.033
14448.556
14444.077
14438.558
14432.234
14425.57
14419.103
14413.338
14408.739
14405.8
14405.067
14407.062
14412.144
14420.364
14431.386
14444.554
14458.995
14473.701
14487.586
14499.6
14508.86
14514.758
14517.01
14515.67
14511.125
14504.035
14495.325
14486.248
14478.251
14472.712
14470.74
14473.004
14479.761
14460.716
14459.015
14457.379
14455.412
14452.921
14449.629
14445.283
14439.807
14433.406
14426.535
14419.738
14413.516
14408.306
14404.545
14402.718
14403.323
14406.764
14413.216
14422.556
14434.396
14448.174
14463.189
14478.609
14493.518
14507.001
14518.213
14526.427
14531.069
14531.777
14528.412
14521.107
14510.454
14497.518
14483.601
14470.113
14458.523
14450.344
14461.018
14459.35
14457.89
14456.134
14453.877
14450.818
14446.669
14441.312
14434.919
14427.935
14420.914
14414.365
14408.703
14404.303
14401.567
14400.921
14402.751
14407.289
14414.542
14424.316
14436.304
14450.107
14465.219
14481.034
14496.886
14512.076
14525.865
14537.485
14546.187
14551.256
14552.018
14548.018
14539.224
14525.957
14508.787
14488.552
14466.34
14461.379
14459.694
14458.418
14456.892
14454.899
14452.123
14448.24
14443.087
14436.797
14429.798
14422.66
14415.91
14409.954
14405.112
14401.693
14400.025
14400.431
14403.14
14408.219
14415.586
14425.09
14436.533
14449.655
14464.133
14479.615
14495.728
14512.044
14528.033
14543.083
14556.525
14567.57
14575.339
14579.064
14578.196
14572.348
14561.304
14545.024
14461.849
14460.044
14458.962
14457.68
14455.982
14453.539
14449.996
14445.14
14439.058
14432.153
14425.005
14418.169
14412.06
14406.96
14403.089
14400.667
14399.926
14401.059
14404.149
14409.177
14416.072
14424.738
14435.025
14446.741
14459.697
14473.743
14488.751
14504.545
14520.874
14537.449
14553.904
14569.716
14584.243
14596.844
14606.91
14613.839
14617.025
14462.562
14460.399
14459.515
14458.493
14457.119
14455.057
14451.927
14447.469
14441.711
14435.018
14427.971
14421.154
14415.01
14409.805
14405.688
14402.772
14401.185
14401.061
14402.482
14405.472
14410.031
14416.132
14423.682
14432.508
14442.411
14453.237
14464.911
14477.398
14490.66
14504.668
14519.416
14534.876
14550.936
14567.428
14584.164
14600.913
14617.341
14463.861
14460.755
14460.075
14459.324
14458.298
14456.662
14454.017
14450.058
14444.747
14438.396
14431.567
14424.871
14418.788
14413.593
14409.393
14406.208
14404.059
14403
14403.09
14404.383
14406.955
14410.881
14416.163
14422.677
14430.202
14438.494
14447.348
14456.614
14466.18
14475.977
14486.006
14496.343
14507.114
14518.464
14530.561
14543.553
14557.51
14466.52
14461.111
14460.637
14460.165
14459.505
14458.332
14456.238
14452.875
14448.137
14442.263
14435.777
14429.302
14423.355
14418.248
14414.08
14410.811
14408.361
14406.69
14405.798
14405.73
14406.605
14408.6
14411.857
14416.394
14422.088
14428.717
14436.022
14443.746
14451.638
14459.465
14467.039
14474.243
14481.041
14487.463
14493.584
14499.484
14505.214
14461.46
14461.196
14461.008
14460.726
14460.043
14458.553
14455.875
14451.83
14446.571
14440.558
14434.399
14428.646
14423.663
14419.58
14416.345
14413.819
14411.874
14410.425
14409.448
14409.023
14409.347
14410.651
14413.095
14416.724
14421.473
14427.204
14433.738
14440.863
14448.344
14455.942
14463.428
14470.596
14477.28
14483.346
14488.679
14493.16
14461.791
14461.741
14461.842
14461.947
14461.774
14460.928
14459.006
14455.762
14451.251
14445.842
14440.097
14434.58
14429.708
14425.682
14422.495
14420.012
14418.073
14416.529
14415.266
14414.252
14413.579
14413.433
14413.994
14415.379
14417.638
14420.783
14424.794
14429.634
14435.226
14441.453
14448.174
14455.23
14462.462
14469.732
14476.906
14483.838
14462.089
14462.253
14462.647
14463.146
14463.496
14463.323
14462.214
14459.864
14456.226
14451.556
14446.333
14441.098
14436.304
14432.231
14428.967
14426.456
14424.587
14423.23
14422.232
14421.454
14420.834
14420.403
14420.232
14420.364
14420.811
14421.591
14422.733
14424.295
14426.341
14428.913
14432.023
14435.654
14439.781
14444.381
14449.432
14454.875
14462.337
14462.71
14463.393
14464.287
14465.169
14465.689
14465.435
14464.059
14461.414
14457.628
14453.068
14448.206
14443.492
14439.266
14435.722
14432.928
14430.894
14429.596
14428.951
14428.809
14429
14429.389
14429.892
14430.426
14430.889
14431.19
14431.278
14431.159
14430.891
14430.561
14430.261
14430.077
14430.086
14430.366
14430.982
14431.952
14462.52
14463.085
14464.044
14465.324
14466.732
14467.951
14468.583
14468.245
14466.706
14463.967
14460.259
14455.951
14451.44
14447.083
14443.147
14439.816
14437.234
14435.53
14434.77
14434.91
14435.801
14437.231
14438.986
14440.871
14442.685
14444.235
14445.36
14445.962
14446.006
14445.525
14444.593
14443.314
14441.804
14440.176
14438.524
14436.898
14462.627
14463.359
14464.564
14466.201
14468.113
14470.018
14471.54
14472.282
14471.945
14470.419
14467.797
14464.324
14460.311
14456.077
14451.909
14448.057
14444.751
14442.235
14440.721
14440.321
14441.02
14442.674
14445.059
14447.926
14451.023
14454.104
14456.944
14459.359
14461.218
14462.456
14463.063
14463.083
14462.589
14461.674
14460.424
14458.907
14462.65
14463.515
14464.925
14466.873
14469.241
14471.791
14474.176
14476.004
14476.931
14476.756
14475.454
14473.152
14470.061
14466.431
14462.522
14458.585
14454.865
14451.63
14449.154
14447.647
14447.219
14447.868
14449.488
14451.911
14454.943
14458.377
14462.008
14465.641
14469.1
14472.232
14474.921
14477.084
14478.678
14479.684
14480.096
14479.91
14462.587
14463.545
14465.109
14467.305
14470.061
14473.185
14476.373
14479.251
14481.454
14482.714
14482.917
14482.089
14480.355
14477.896
14474.924
14471.657
14468.302
14465.071
14462.187
14459.849
14458.191
14457.284
14457.135
14457.702
14458.927
14460.744
14463.088
14465.887
14469.056
14472.5
14476.11
14479.778
14483.404
14486.898
14490.169
14493.116
14462.439
14463.448
14465.106
14467.477
14470.533
14474.137
14478.038
14481.894
14485.338
14488.061
14489.874
14490.727
14490.675
14489.844
14488.405
14486.548
14484.443
14482.229
14480.033
14477.962
14476.074
14474.381
14472.879
14471.559
14470.421
14469.486
14468.805
14468.445
14468.481
14468.977
14469.972
14471.48
14473.497
14476.005
14478.969
14482.325
14462.212
14463.226
14464.915
14467.376
14470.626
14474.591
14479.082
14483.809
14488.424
14492.591
14496.064
14498.716
14500.536
14501.592
14502.013
14501.965
14501.613
14501.079
14500.431
14499.708
14498.912
14497.993
14496.876
14495.483
14493.759
14491.68
14489.265
14486.57
14483.684
14480.715
14477.768
14474.939
14472.308
14469.942
14467.896
14466.193
14461.924
14462.89
14464.539
14466.989
14470.306
14474.475
14479.383
14484.815
14490.469
14496.013
14501.155
14505.691
14509.522
14512.634
14515.073
14516.936
14518.354
14519.457
14520.335
14521.038
14521.585
14521.972
14522.169
14522.124
14521.783
14521.094
14520.018
14518.531
14516.625
14514.307
14511.599
14508.531
14505.141
14501.47
14497.559
14493.436
14461.605
14462.471
14464.001
14466.329
14469.554
14473.718
14478.79
14484.647
14491.072
14497.779
14504.472
14510.893
14516.848
14522.215
14526.917
14530.913
14534.202
14536.827
14538.852
14540.352
14541.404
14542.089
14542.499
14542.719
14542.828
14542.888
14542.941
14543.004
14543.074
14543.126
14543.127
14543.041
14542.836
14542.482
14541.946
14541.188
14461.293
14462.016
14463.36
14465.457
14468.424
14472.34
14477.242
14483.1
14489.807
14497.175
14504.967
14512.928
14520.825
14528.447
14535.602
14542.108
14547.796
14552.533
14556.238
14558.894
14560.544
14561.28
14561.24
14560.591
14559.516
14558.197
14556.804
14555.483
14554.351
14553.491
14552.954
14552.768
14552.937
14553.455
14554.298
14555.422
14461.024
14461.58
14462.702
14464.499
14467.083
14470.543
14474.943
14480.321
14486.665
14493.901
14501.895
14510.471
14519.428
14528.553
14537.619
14546.381
14554.582
14561.973
14568.342
14573.543
14577.5
14580.212
14581.732
14582.161
14581.628
14580.279
14578.269
14575.752
14572.878
14569.785
14566.596
14563.413
14560.321
14557.386
14554.659
14552.167
14460.824
14461.193
14462.098
14463.582
14465.746
14468.66
14472.378
14476.944
14482.388
14488.71
14495.869
14503.782
14512.33
14521.368
14530.722
14540.194
14549.566
14558.618
14567.149
14574.997
14582.049
14588.239
14593.533
14597.925
14601.42
14604.033
14605.782
14606.695
14606.803
14606.148
14604.779
14602.756
14600.145
14597.016
14593.435
14589.456
14460.732
14460.842
14461.554
14462.755
14464.537
14466.949
14470.013
14473.739
14478.134
14483.202
14488.93
14495.286
14502.212
14509.63
14517.444
14525.548
14533.827
14542.174
14550.498
14558.73
14566.83
14574.769
14582.524
14590.069
14597.366
14604.37
14611.026
14617.273
14623.048
14628.292
14632.954
14637.005
14640.435
14643.25
14645.461
14647.072
14460.957
14460.481
14461.024
14461.971
14463.414
14465.406
14467.955
14471.035
14474.611
14478.641
14483.088
14487.906
14493.05
14498.466
14504.103
14509.911
14515.851
14521.895
14528.034
14534.272
14540.623
14547.107
14553.735
14560.51