/*--------------------------------*- C++ -*----------------------------------*\
| =========                 |                                                 |
| \\      /  F ield         | OpenFOAM: The Open Source CFD Toolbox           |
|  \\    /   O peration     | Version:  2506                                  |
|   \\  /    A nd           | Website:  www.openfoam.com                      |
|    \\/     M anipulation  |                                                 |
\*---------------------------------------------------------------------------*/
FoamFile
{
    version     2.0;
    format      ascii;
    arch        "LSB;label=32;scalar=64";
    class       volScalarField;
    location    "0.00052";
    object      rho;
}
// * * * * * * * * * * * * * * * * * * * * * * * * * * * * * * * * * * * * * //

dimensions      [1 -3 0 0 0 0 0];

internalField   nonuniform List<scalar> 
3440
(
0.67033567
0.67012782
0.67118009
0.66750569
0.66591393
0.66354587
0.66862036
0.67020263
0.67095166
0.6718043
0.67252116
0.67040722
0.66270515
0.66536651
0.6673203
0.66802902
0.66635951
0.66457448
0.6702062
0.67088081
0.6713021
0.67087372
0.67130765
0.6695621
0.66961202
0.66258246
0.6625972
0.66556705
0.6673901
0.66707074
0.66464479
0.66383613
0.66901506
0.67093473
0.67161962
0.67123222
0.6715531
0.66915955
0.66801251
0.66764528
0.66312888
0.66340751
0.66616755
0.66782238
0.66753473
0.66479102
0.66460231
0.66989695
0.67105189
0.67042059
0.67075323
0.67058521
0.6678512
0.66554818
0.66455433
0.66254396
0.66505293
0.66485442
0.66451342
0.66158415
0.65742902
0.66371852
0.66563724
0.66767604
0.66861527
0.66644802
0.66569111
0.6629753
0.66317932
0.66579408
0.6671318
0.66616623
0.66361506
0.66528559
0.66942689
0.66995151
0.66924473
0.67011729
0.67047268
0.66557266
0.6624093
0.66142681
0.65917081
0.65141666
0.66507055
0.66507056
0.66507055
0.66507055
0.66507055
0.66507055
0.66507055
0.66507047
0.66505718
0.66491112
0.66443651
0.66169457
0.65805974
0.66340401
0.66536058
0.66755767
0.6686796
0.66665185
0.66597104
0.6636992
0.66389587
0.66577938
0.66678796
0.66635567
0.66449551
0.66645619
0.66981834
0.66784087
0.66766023
0.66823448
0.66897389
0.66302001
0.65842004
0.65489703
0.65048105
0.64156385
0.64028361
0.66507056
0.66507056
0.66507055
0.66507055
0.66507055
0.66507055
0.66507055
0.66507055
0.66507055
0.66507055
0.66507055
0.66507055
0.66507055
0.66507052
0.66506095
0.66495417
0.66436516
0.66182431
0.65869625
0.66325083
0.66577262
0.66786364
0.66880384
0.66658778
0.66586298
0.66348682
0.66344346
0.66517309
0.66630654
0.66586686
0.66490827
0.66771184
0.67000504
0.66755408
0.66707281
0.66758651
0.66552343
0.65848561
0.64724305
0.64285293
0.64159101
0.63906251
0.65506561
0.66221069
0.66507056
0.66507056
0.66507055
0.66507055
0.66507055
0.66507055
0.66507055
0.66507055
0.66507055
0.66507055
0.66507055
0.66507055
0.66507055
0.66507055
0.66507055
0.66507055
0.66507055
0.66507055
0.66507055
0.66507055
0.66507055
0.66507055
0.66507055
0.66507055
0.66507055
0.66507055
0.66507054
0.66506403
0.66498225
0.66434725
0.66208186
0.65933122
0.66330651
0.66570106
0.66771943
0.66882744
0.66670223
0.66601009
0.66422006
0.6640422
0.66539892
0.66660434
0.66645572
0.66616197
0.66858983
0.66975958
0.66639564
0.66574326
0.66521894
0.6615686
0.64728762
0.63331564
0.63504571
0.6441927
0.6539592
0.66485354
0.66806187
0.66742444
0.66507055
0.66507056
0.66507055
0.66507055
0.66507055
0.66507055
0.66507055
0.66507055
0.66507055
0.66507055
0.66507055
0.66507055
0.66507055
0.66507055
0.66507055
0.66507055
0.66507055
0.66507055
0.66507055
0.66507055
0.66507055
0.66507055
0.66507055
0.66507055
0.66507055
0.66507055
0.66507055
0.66507055
0.66507055
0.66507055
0.66507055
0.66507055
0.66507055
0.66507055
0.66507055
0.66507055
0.66507055
0.66507055
0.66507055
0.66507055
0.66507055
0.66507054
0.6650664
0.66500256
0.66437813
0.662396
0.65981388
0.66305314
0.6655054
0.66782688
0.66936913
0.66677072
0.66603805
0.66422576
0.66342248
0.66462947
0.6658675
0.66606554
0.66659794
0.66944923
0.66976497
0.66501337
0.6646536
0.66281054
0.65467831
0.63404527
0.63335004
0.65548322
0.66216185
0.66338919
0.66783039
0.6696075
0.6699654
0.66748827
0.66507055
0.66507055
0.66507055
0.66507055
0.66507055
0.66507055
0.66507055
0.66507055
0.66507055
0.66507055
0.66507055
0.66507055
0.66507055
0.66507055
0.66507055
0.66507055
0.66507055
0.66507055
0.66507055
0.66507055
0.66507055
0.66507055
0.66507055
0.66507055
0.66507055
0.66507055
0.66507055
0.66507055
0.66507055
0.66507055
0.66507055
0.66507055
0.66507055
0.66507055
0.66507055
0.66507055
0.66507055
0.66507055
0.66507055
0.66507055
0.66507055
0.66507055
0.66507055
0.66507055
0.66507055
0.66507055
0.66507055
0.66507055
0.66507055
0.66507055
0.66507055
0.66506812
0.66501747
0.66442567
0.66272254
0.66014267
0.66268625
0.66510037
0.66770423
0.66952832
0.66694302
0.66620395
0.66482051
0.66372479
0.66479439
0.66627491
0.66685228
0.66815179
0.6694687
0.66856552
0.66392521
0.66342023
0.66057821
0.64714803
0.63405713
0.65776802
0.6689193
0.66960497
0.66821035
0.67019861
0.67189852
0.67131661
0.66897553
0.66507055
0.66507055
0.66507055
0.66507055
0.66507055
0.66507055
0.66507055
0.66507055
0.66507055
0.66507055
0.66507055
0.66507055
0.66507055
0.66507055
0.66507055
0.66507055
0.66507055
0.66507055
0.66507055
0.66507055
0.66507055
0.66507055
0.66507055
0.66507055
0.66507055
0.66507055
0.66507055
0.66507055
0.66507055
0.66507055
0.66507055
0.66507055
0.66507055
0.66507055
0.66507055
0.66507055
0.66507055
0.66507055
0.66507055
0.66507055
0.66507055
0.66507055
0.66507055
0.66507055
0.66507055
0.66507055
0.66507055
0.66507055
0.66507055
0.66507055
0.66507055
0.66507055
0.66507055
0.66507055
0.66506921
0.66502889
0.66451147
0.6630792
0.6603702
0.66236144
0.66534425
0.66829971
0.66988376
0.6668972
0.66604979
0.6646308
0.66300303
0.66440784
0.66631453
0.66704119
0.66824387
0.66965697
0.66842612
0.66153645
0.66288324
0.65891465
0.64715615
0.6522347
0.6680695
0.67334924
0.67415855
0.67207521
0.67271421
0.67509599
0.67398078
0.67176031
0.66507056
0.66507055
0.66507055
0.66507055
0.66507055
0.66507055
0.66507055
0.66507055
0.66507055
0.66507055
0.66507055
0.66507055
0.66507055
0.66507055
0.66507055
0.66507055
0.66507055
0.66507055
0.66507055
0.66507055
0.66507055
0.66507055
0.66507055
0.66507055
0.66507055
0.66507055
0.66507055
0.66507055
0.66507055
0.66507055
0.66507055
0.66507055
0.66507055
0.66507055
0.66507055
0.66507055
0.66507055
0.66507055
0.66507055
0.66507055
0.66507055
0.66507055
0.66507055
0.66507055
0.66507055
0.66507055
0.66507055
0.66507055
0.66507055
0.66507055
0.66507055
0.66507055
0.66507055
0.66507055
0.66506987
0.66503892
0.66461848
0.66339753
0.6605869
0.6625373
0.66545973
0.66838523
0.67009048
0.66718179
0.66632038
0.66522458
0.66358557
0.6646826
0.66665597
0.66769998
0.668905
0.66912522
0.66648578
0.66131354
0.66202141
0.6601684
0.65106489
0.66112502
0.6722798
0.67787442
0.67952197
0.67527397
0.67412245
0.67633716
0.67599818
0.66507054
0.66507055
0.66507055
0.66507055
0.66507055
0.66507055
0.66507055
0.66507055
0.66507055
0.66507055
0.66507055
0.66507055
0.66507055
0.66507055
0.66507055
0.66507055
0.66507055
0.66507055
0.66507055
0.66507055
0.66507055
0.66507055
0.66507055
0.66507055
0.66507055
0.66507055
0.66507055
0.66507055
0.66507055
0.66507055
0.66507055
0.66507055
0.66507055
0.66507055
0.66507055
0.66507055
0.66507055
0.66507055
0.66507055
0.66507055
0.66507055
0.66507055
0.66507055
0.66507055
0.66507055
0.66507055
0.66507055
0.66507055
0.66507055
0.66507055
0.66507055
0.66507055
0.66507055
0.66507055
0.66507022
0.66504692
0.6647333
0.66359658
0.66090091
0.66271238
0.66550919
0.66846844
0.67034091
0.66700382
0.66612124
0.66503218
0.66299786
0.66463903
0.66682635
0.66827611
0.66897943
0.66877766
0.66544383
0.66016945
0.66188837
0.66143251
0.65367542
0.66661935
0.67766568
0.68271855
0.682106
0.67611309
0.67456734
0.6758602
0.6770098
0.66507055
0.66507055
0.66507055
0.66507055
0.66507055
0.66507055
0.66507055
0.66507055
0.66507055
0.66507055
0.66507055
0.66507055
0.66507055
0.66507055
0.66507055
0.66507055
0.66507055
0.66507055
0.66507055
0.66507055
0.66507055
0.66507055
0.66507055
0.66507055
0.66507055
0.66507055
0.66507055
0.66507055
0.66507055
0.66507055
0.66507055
0.66507055
0.66507055
0.66507055
0.66507055
0.66507055
0.66507055
0.66507055
0.66507055
0.66507055
0.66507055
0.66507055
0.66507055
0.66507055
0.66507055
0.66507055
0.66507055
0.66507055
0.66507055
0.66507055
0.66507055
0.66507055
0.66507055
0.66507055
0.66507041
0.66505328
0.66483712
0.6637423
0.66124055
0.66279919
0.66618548
0.66787295
0.67047191
0.66717335
0.66632388
0.66556673
0.66366434
0.66504074
0.66727
0.66875955
0.66889619
0.66731474
0.66369499
0.6597582
0.66257618
0.66363794
0.65710898
0.67254022
0.67948936
0.68377205
0.6811657
0.67508714
0.67395743
0.67501111
0.67620333
0.66507055
0.66507055
0.66507055
0.66507055
0.66507055
0.66507055
0.66507055
0.66507055
0.66507055
0.66507055
0.66507055
0.66507055
0.66507055
0.66507055
0.66507055
0.66507055
0.66507055
0.66507055
0.66507055
0.66507055
0.66507055
0.66507055
0.66507055
0.66507055
0.66507055
0.66507055
0.66507055
0.66507055
0.66507055
0.66507055
0.66507055
0.66507055
0.66507055
0.66507055
0.66507055
0.66507055
0.66507055
0.66507055
0.66507055
0.66507055
0.66507055
0.66507055
0.66507055
0.66507055
0.66507055
0.66507055
0.66507055
0.66507055
0.66507055
0.66507055
0.66507055
0.66507055
0.66507055
0.66507055
0.6650705
0.66505866
0.66491453
0.66389996
0.66168855
0.66295651
0.6665596
0.66819785
0.67031936
0.66703358
0.66612086
0.66534798
0.66301991
0.66475477
0.6672212
0.66884693
0.66797994
0.66618487
0.66239229
0.65968034
0.66480223
0.66616868
0.66286308
0.67407683
0.67816521
0.68032987
0.67849041
0.67324872
0.67324305
0.67394342
0.66507054
0.66507055
0.66507055
0.66507055
0.66507055
0.66507055
0.66507055
0.66507055
0.66507055
0.66507055
0.66507055
0.66507055
0.66507055
0.66507055
0.66507055
0.66507055
0.66507055
0.66507055
0.66507055
0.66507055
0.66507055
0.66507055
0.66507055
0.66507055
0.66507055
0.66507055
0.66507055
0.66507055
0.66507055
0.66507055
0.66507055
0.66507055
0.66507055
0.66507055
0.66507055
0.66507055
0.66507055
0.66507055
0.66507055
0.66507055
0.66507055
0.66507055
0.66507055
0.66507055
0.66507055
0.66507055
0.66507055
0.66507055
0.66507055
0.66507055
0.66507055
0.66507055
0.66507055
0.66507055
0.66507053
0.66506311
0.66496707
0.66403991
0.6622411
0.66328175
0.66687398
0.66869013
0.66984197
0.66694923
0.6663099
0.66585058
0.66397105
0.66534235
0.66746286
0.66885153
0.66749395
0.6650795
0.66148581
0.65995067
0.66699589
0.66866167
0.66606725
0.67233379
0.67434208
0.67579545
0.67565218
0.67184548
0.67255741
0.67306771
0.66507055
0.66507055
0.66507055
0.66507055
0.66507055
0.66507055
0.66507055
0.66507055
0.66507055
0.66507055
0.66507055
0.66507055
0.66507055
0.66507055
0.66507055
0.66507055
0.66507055
0.66507055
0.66507055
0.66507055
0.66507055
0.66507055
0.66507055
0.66507055
0.66507055
0.66507055
0.66507055
0.66507055
0.66507055
0.66507055
0.66507055
0.66507055
0.66507055
0.66507055
0.66507055
0.66507055
0.66507055
0.66507055
0.66507055
0.66507055
0.66507055
0.66507055
0.66507055
0.66507055
0.66507055
0.66507055
0.66507055
0.66507055
0.66507055
0.66507055
0.66507055
0.66507055
0.66507055
0.66507055
0.66507054
0.66506634
0.66499795
0.66419777
0.66259114
0.66344627
0.66711602
0.6688385
0.67036765
0.66662618
0.66598414
0.66556856
0.66349418
0.66492852
0.66724478
0.66864163
0.66741754
0.66391418
0.66056038
0.66091872
0.6699632
0.67072292
0.66758241
0.66976954
0.67137463
0.67302715
0.67312764
0.67161918
0.67150267
0.67242905
0.66507055
0.66507055
0.66507055
0.66507055
0.66507055
0.66507055
0.66507055
0.66507055
0.66507055
0.66507055
0.66507055
0.66507055
0.66507055
0.66507055
0.66507055
0.66507055
0.66507055
0.66507055
0.66507055
0.66507055
0.66507055
0.66507055
0.66507055
0.66507055
0.66507055
0.66507055
0.66507055
0.66507055
0.66507055
0.66507055
0.66507055
0.66507055
0.66507055
0.66507055
0.66507055
0.66507055
0.66507055
0.66507055
0.66507055
0.66507055
0.66507055
0.66507055
0.66507055
0.66507055
0.66507055
0.66507055
0.66507055
0.66507055
0.66507055
0.66507055
0.66507055
0.66507055
0.66507055
0.66507055
0.66507055
0.66506831
0.66501762
0.66436327
0.66298295
0.66271118
0.66677156
0.66827303
0.66941983
0.66653387
0.66603428
0.66583569
0.66419816
0.66533327
0.66695659
0.6679705
0.66663507
0.66304914
0.65999134
0.66367413
0.67185349
0.67138771
0.66625977
0.66838069
0.67006888
0.67164273
0.67200814
0.67170308
0.67097415
0.66507057
0.66507055
0.66507055
0.66507055
0.66507055
0.66507055
0.66507055
0.66507055
0.66507055
0.66507055
0.66507055
0.66507055
0.66507055
0.66507055
0.66507055
0.66507055
0.66507055
0.66507055
0.66507055
0.66507055
0.66507055
0.66507055
0.66507055
0.66507055
0.66507055
0.66507055
0.66507055
0.66507055
0.66507055
0.66507055
0.66507055
0.66507055
0.66507055
0.66507055
0.66507055
0.66507055
0.66507055
0.66507055
0.66507055
0.66507055
0.66507055
0.66507055
0.66507055
0.66507055
0.66507055
0.66507055
0.66507055
0.66507055
0.66507055
0.66507055
0.66507055
0.66507055
0.66507055
0.66507055
0.66507055
0.66506951
0.66503266
0.66453359
0.66329919
0.66252636
0.66566777
0.66453009
0.6645693
0.66459182
0.66565384
0.66573263
0.66402826
0.66514635
0.6667567
0.66767889
0.66647816
0.66237785
0.65973792
0.66730775
0.6726088
0.67098756
0.66470737
0.66920631
0.67025057
0.67221817
0.6725003
0.67235225
0.67134749
0.66507054
0.66507055
0.66507055
0.66507055
0.66507055
0.66507055
0.66507055
0.66507055
0.66507055
0.66507055
0.66507055
0.66507055
0.66507055
0.66507055
0.66507055
0.66507055
0.66507055
0.66507055
0.66507055
0.66507055
0.66507055
0.66507055
0.66507055
0.66507055
0.66507055
0.66507055
0.66507055
0.66507055
0.66507055
0.66507055
0.66507055
0.66507055
0.66507055
0.66507055
0.66507055
0.66507055
0.66507055
0.66507055
0.66507055
0.66507055
0.66507055
0.66507055
0.66507055
0.66507055
0.66507055
0.66507055
0.66507055
0.66507055
0.66507055
0.66507055
0.66507055
0.66507055
0.66507055
0.66507055
0.66507055
0.6650701
0.66504312
0.66469001
0.66365479
0.66167322
0.66042693
0.6588355
0.6592002
0.65860977
0.66369416
0.66559092
0.66445276
0.66511402
0.66663702
0.66742395
0.66586804
0.66166426
0.66153476
0.67003051
0.67238775
0.67111349
0.6659504
0.6671464
0.67118891
0.67367464
0.67341557
0.67320333
0.67199349
0.66507055
0.66507055
0.66507055
0.66507055
0.66507055
0.66507055
0.66507055
0.66507055
0.66507055
0.66507055
0.66507055
0.66507055
0.66507055
0.66507055
0.66507055
0.66507055
0.66507055
0.66507055
0.66507055
0.66507055
0.66507055
0.66507055
0.66507055
0.66507055
0.66507055
0.66507055
0.66507055
0.66507055
0.66507055
0.66507055
0.66507055
0.66507055
0.66507055
0.66507055
0.66507055
0.66507055
0.66507055
0.66507055
0.66507055
0.66507055
0.66507055
0.66507055
0.66507055
0.66507055
0.66507055
0.66507055
0.66507055
0.66507055
0.66507055
0.66507055
0.66507055
0.66507055
0.66507055
0.66507055
0.66507055
0.66507038
0.66505096
0.66483243
0.66380135
0.65932734
0.65709364
0.65931995
0.6589404
0.65476242
0.65673136
0.66511793
0.66468393
0.66499208
0.66637403
0.66702023
0.66555218
0.66166075
0.66472876
0.67079814
0.6720256
0.67054254
0.66532067
0.66613124
0.67143455
0.67446626
0.67428026
0.67393303
0.6717058
0.66507057
0.66507055
0.66507055
0.66507055
0.66507055
0.66507055
0.66507055
0.66507055
0.66507055
0.66507055
0.66507055
0.66507055
0.66507055
0.66507055
0.66507055
0.66507055
0.66507055
0.66507055
0.66507055
0.66507055
0.66507055
0.66507055
0.66507055
0.66507055
0.66507055
0.66507055
0.66507055
0.66507055
0.66507055
0.66507055
0.66507055
0.66507055
0.66507055
0.66507055
0.66507055
0.66507055
0.66507055
0.66507055
0.66507055
0.66507055
0.66507055
0.66507055
0.66507055
0.66507055
0.66507055
0.66507055
0.66507055
0.66507055
0.66507055
0.66507055
0.66507055
0.66507055
0.66507055
0.66507055
0.66507055
0.6650705
0.66505711
0.66493292
0.6636058
0.65755098
0.65893175
0.66145563
0.65799102
0.65237042
0.64968939
0.66200114
0.66469583
0.6648093
0.66623225
0.66687699
0.6653406
0.66207512
0.66656111
0.67109271
0.67232449
0.67009631
0.66570303
0.66468194
0.67095509
0.67431855
0.67449614
0.67372331
0.67044737
0.66507054
0.66507055
0.66507055
0.66507055
0.66507055
0.66507055
0.66507055
0.66507055
0.66507055
0.66507055
0.66507055
0.66507055
0.66507055
0.66507055
0.66507055
0.66507055
0.66507055
0.66507055
0.66507055
0.66507055
0.66507055
0.66507055
0.66507055
0.66507055
0.66507055
0.66507055
0.66507055
0.66507055
0.66507055
0.66507055
0.66507055
0.66507055
0.66507055
0.66507055
0.66507055
0.66507055
0.66507055
0.66507055
0.66507055
0.66507055
0.66507055
0.66507055
0.66507055
0.66507055
0.66507055
0.66507055
0.66507055
0.66507055
0.66507055
0.66507055
0.66507055
0.66507055
0.66507055
0.66507055
0.66507055
0.66507054
0.66506281
0.66497402
0.66332471
0.65776606
0.66188965
0.66265612
0.65650614
0.64712461
0.64688325
0.65194271
0.66305276
0.66498932
0.66638157
0.66681846
0.665185
0.66306089
0.66777542
0.67098692
0.67199442
0.66963454
0.66508601
0.66251764
0.66967308
0.67334779
0.67358904
0.67255232
0.66888228
0.66507056
0.66507055
0.66507055
0.66507055
0.66507055
0.66507055
0.66507055
0.66507055
0.66507055
0.66507055
0.66507055
0.66507055
0.66507055
0.66507055
0.66507055
0.66507055
0.66507055
0.66507055
0.66507055
0.66507055
0.66507055
0.66507055
0.66507055
0.66507055
0.66507055
0.66507055
0.66507055
0.66507055
0.66507055
0.66507055
0.66507055
0.66507055
0.66507055
0.66507055
0.66507055
0.66507055
0.66507055
0.66507055
0.66507055
0.66507055
0.66507055
0.66507055
0.66507055
0.66507055
0.66507055
0.66507055
0.66507055
0.66507055
0.66507055
0.66507055
0.66507055
0.66507055
0.66507055
0.66507055
0.66507055
0.66507055
0.66506589
0.66499239
0.66329028
0.65852965
0.66478898
0.66260473
0.65321121
0.64493047
0.6404637
0.64190227
0.65758446
0.66329258
0.6661865
0.6665482
0.66514448
0.66400313
0.66811949
0.67076324
0.6718093
0.66901903
0.66425269
0.66109243
0.66817084
0.67211384
0.67253435
0.67083785
0.66704285
0.66507054
0.66507055
0.66507055
0.66507055
0.66507055
0.66507055
0.66507055
0.66507055
0.66507055
0.66507055
0.66507055
0.66507055
0.66507055
0.66507055
0.66507055
0.66507055
0.66507055
0.66507055
0.66507055
0.66507055
0.66507055
0.66507055
0.66507055
0.66507055
0.66507055
0.66507055
0.66507055
0.66507055
0.66507055
0.66507055
0.66507055
0.66507055
0.66507055
0.66507055
0.66507055
0.66507055
0.66507055
0.66507055
0.66507055
0.66507055
0.66507055
0.66507055
0.66507055
0.66507055
0.66507055
0.66507055
0.66507055
0.66507055
0.66507055
0.66507055
0.66507055
0.66507055
0.66507055
0.66507055
0.66507055
0.66507055
0.66506816
0.66500564
0.66327541
0.65964578
0.66529409
0.66187932
0.65122307
0.63776525
0.59147861
0.56124206
0.62825259
0.66289748
0.66679951
0.66673521
0.6652266
0.6645494
0.66823411
0.6705973
0.6716782
0.66861837
0.66365685
0.6595932
0.66705083
0.67155508
0.67175995
0.66834788
0.66295748
0.66507054
0.66507055
0.66507055
0.66507055
0.66507055
0.66507055
0.66507055
0.66507055
0.66507055
0.66507055
0.66507055
0.66507055
0.66507055
0.66507055
0.66507055
0.66507055
0.66507055
0.66507055
0.66507055
0.66507055
0.66507055
0.66507055
0.66507055
0.66507055
0.66507055
0.66507055
0.66507055
0.66507055
0.66507055
0.66507055
0.66507055
0.66507055
0.66507055
0.66507055
0.66507055
0.66507055
0.66507055
0.66507055
0.66507055
0.66507055
0.66507055
0.66507055
0.66507055
0.66507055
0.66507055
0.66507055
0.66507055
0.66507055
0.66507055
0.66507055
0.66507055
0.66507055
0.66507055
0.66507055
0.66507055
0.66507055
0.66506917
0.66501171
0.66350976
0.66080299
0.664792
0.66113278
0.64759914
0.59694001
0.44228323
0.4418254
0.57584263
0.65915651
0.6653538
0.66738031
0.66556335
0.66519721
0.66836838
0.67020554
0.67092888
0.66768601
0.66222433
0.65744815
0.66664237
0.67132244
0.67096348
0.66545192
0.66507056
0.66507055
0.66507055
0.66507055
0.66507055
0.66507055
0.66507055
0.66507055
0.66507055
0.66507055
0.66507055
0.66507055
0.66507055
0.66507055
0.66507055
0.66507055
0.66507055
0.66507055
0.66507055
0.66507055
0.66507055
0.66507055
0.66507055
0.66507055
0.66507055
0.66507055
0.66507055
0.66507055
0.66507055
0.66507055
0.66507055
0.66507055
0.66507055
0.66507055
0.66507055
0.66507055
0.66507055
0.66507055
0.66507055
0.66507055
0.66507055
0.66507055
0.66507055
0.66507055
0.66507055
0.66507055
0.66507055
0.66507055
0.66507055
0.66507055
0.66507055
0.66507055
0.66507055
0.66507055
0.66507055
0.66507055
0.66506979
0.66502208
0.66384525
0.66130907
0.66453714
0.66126026
0.63608309
0.49820354
0.40375253
0.59036007
0.67385163
0.65896212
0.66502834
0.66778999
0.66559289
0.66554871
0.6681218
0.66981914
0.67048269
0.66703001
0.66023295
0.65637837
0.66719403
0.67185254
0.66991762
0.66000612
0.66507054
0.66507055
0.66507055
0.66507055
0.66507055
0.66507055
0.66507055
0.66507055
0.66507055
0.66507055
0.66507055
0.66507055
0.66507055
0.66507055
0.66507055
0.66507055
0.66507055
0.66507055
0.66507055
0.66507055
0.66507055
0.66507055
0.66507055
0.66507055
0.66507055
0.66507055
0.66507055
0.66507055
0.66507055
0.66507055
0.66507055
0.66507055
0.66507055
0.66507055
0.66507055
0.66507055
0.66507055
0.66507055
0.66507055
0.66507055
0.66507055
0.66507055
0.66507055
0.66507055
0.66507055
0.66507055
0.66507055
0.66507055
0.66507055
0.66507055
0.66507055
0.66507055
0.66507055
0.66507055
0.66507055
0.66507055
0.66507017
0.6650319
0.66412656
0.66163995
0.66441711
0.6615282
0.61369108
0.44930069
0.60972729
0.71785919
0.76161539
0.66297837
0.66438631
0.66623216
0.66615275
0.66543799
0.66769903
0.66929711
0.66947346
0.66567745
0.65765495
0.65633937
0.66854362
0.67210684
0.66828412
0.66507056
0.66507055
0.66507055
0.66507055
0.66507055
0.66507055
0.66507055
0.66507055
0.66507055
0.66507055
0.66507055
0.66507055
0.66507055
0.66507055
0.66507055
0.66507055
0.66507055
0.66507055
0.66507055
0.66507055
0.66507055
0.66507055
0.66507055
0.66507055
0.66507055
0.66507055
0.66507055
0.66507055
0.66507055
0.66507055
0.66507055
0.66507055
0.66507055
0.66507055
0.66507055
0.66507055
0.66507055
0.66507055
0.66507055
0.66507055
0.66507055
0.66507055
0.66507055
0.66507055
0.66507055
0.66507055
0.66507055
0.66507055
0.66507055
0.66507055
0.66507055
0.66507055
0.66507055
0.66507055
0.66507055
0.66507055
0.66507038
0.66504066
0.66437298
0.66186662
0.66438588
0.66225917
0.60200969
0.49950876
0.66701073
0.73880941
0.79627982
0.67307109
0.66613939
0.66568801
0.66689352
0.6663314
0.66782486
0.66898809
0.66853081
0.66411159
0.65523573
0.65841607
0.67018369
0.67222876
0.66605659
0.66507054
0.66507055
0.66507055
0.66507055
0.66507055
0.66507055
0.66507055
0.66507055
0.66507055
0.66507055
0.66507055
0.66507055
0.66507055
0.66507055
0.66507055
0.66507055
0.66507055
0.66507055
0.66507055
0.66507055
0.66507055
0.66507055
0.66507055
0.66507055
0.66507055
0.66507055
0.66507055
0.66507055
0.66507055
0.66507055
0.66507055
0.66507055
0.66507055
0.66507055
0.66507055
0.66507055
0.66507055
0.66507055
0.66507055
0.66507055
0.66507055
0.66507055
0.66507055
0.66507055
0.66507055
0.66507055
0.66507055
0.66507055
0.66507055
0.66507055
0.66507055
0.66507055
0.66507055
0.66507055
0.66507055
0.66507055
0.66507047
0.66504787
0.6645753
0.66212799
0.6643609
0.66308883
0.60309021
0.54107551
0.67836392
0.72450955
0.76504062
0.69763411
0.66881908
0.66543255
0.66547907
0.66653176
0.66731041
0.66851278
0.66753989
0.6625003
0.65300602
0.66199458
0.67131976
0.67203245
0.66461139
0.66507056
0.66507055
0.66507055
0.66507055
0.66507055
0.66507055
0.66507055
0.66507055
0.66507055
0.66507055
0.66507055
0.66507055
0.66507055
0.66507055
0.66507055
0.66507055
0.66507055
0.66507055
0.66507055
0.66507055
0.66507055
0.66507055
0.66507055
0.66507055
0.66507055
0.66507055
0.66507055
0.66507055
0.66507055
0.66507055
0.66507055
0.66507055
0.66507055
0.66507055
0.66507055
0.66507055
0.66507055
0.66507055
0.66507055
0.66507055
0.66507055
0.66507055
0.66507055
0.66507055
0.66507055
0.66507055
0.66507055
0.66507055
0.66507055
0.66507055
0.66507055
0.66507055
0.66507055
0.66507055
0.66507055
0.66507055
0.66507052
0.66505441
0.66472643
0.66227017
0.66451408
0.662951
0.60823031
0.55864132
0.68796703
0.71240603
0.76197446
0.69706512
0.67270554
0.66539046
0.66521621
0.66658338
0.66722548
0.66815778
0.66666476
0.66034713
0.65260975
0.66553093
0.67230599
0.67163908
0.66422953
0.66507053
0.66507055
0.66507055
0.66507055
0.66507055
0.66507055
0.66507055
0.66507055
0.66507055
0.66507055
0.66507055
0.66507055
0.66507055
0.66507055
0.66507055
0.66507055
0.66507055
0.66507055
0.66507055
0.66507055
0.66507055
0.66507055
0.66507055
0.66507055
0.66507055
0.66507055
0.66507055
0.66507055
0.66507055
0.66507055
0.66507055
0.66507055
0.66507055
0.66507055
0.66507055
0.66507055
0.66507055
0.66507055
0.66507055
0.66507055
0.66507055
0.66507055
0.66507055
0.66507055
0.66507055
0.66507055
0.66507055
0.66507055
0.66507055
0.66507055
0.66507055
0.66507055
0.66507055
0.66507055
0.66507055
0.66507055
0.66507054
0.66505943
0.66482471
0.66257867
0.66425821
0.66363309
0.61949985
0.58601597
0.6900553
0.71063865
0.78438334
0.72895946
0.67545091
0.66663088
0.66553666
0.66631081
0.66799874
0.66756451
0.66567671
0.65851982
0.65573765
0.66853977
0.67324818
0.6711252
0.66486739
0.66507055
0.66507055
0.66507055
0.66507055
0.66507055
0.66507055
0.66507055
0.66507055
0.66507055
0.66507055
0.66507055
0.66507055
0.66507055
0.66507055
0.66507055
0.66507055
0.66507055
0.66507055
0.66507055
0.66507055
0.66507055
0.66507055
0.66507055
0.66507055
0.66507055
0.66507055
0.66507055
0.66507055
0.66507055
0.66507055
0.66507055
0.66507055
0.66507055
0.66507055
0.66507055
0.66507055
0.66507055
0.66507055
0.66507055
0.66507055
0.66507055
0.66507055
0.66507055
0.66507055
0.66507055
0.66507055
0.66507055
0.66507055
0.66507055
0.66507055
0.66507055
0.66507055
0.66507055
0.66507055
0.66507055
0.66507055
0.66507054
0.66506314
0.66490032
0.66298113
0.66400912
0.66407764
0.63263094
0.60277237
0.67881842
0.7034019
0.77053958
0.74230525
0.67831127
0.66751904
0.66512362
0.66574593
0.66807993
0.6671862
0.66469604
0.65823397
0.66124229
0.67055324
0.6738171
0.67061727
0.66601537
0.66507053
0.66507055
0.66507055
0.66507055
0.66507055
0.66507055
0.66507055
0.66507055
0.66507055
0.66507055
0.66507055
0.66507055
0.66507055
0.66507055
0.66507055
0.66507055
0.66507055
0.66507055
0.66507055
0.66507055
0.66507055
0.66507055
0.66507055
0.66507055
0.66507055
0.66507055
0.66507055
0.66507055
0.66507055
0.66507055
0.66507055
0.66507055
0.66507055
0.66507055
0.66507055
0.66507055
0.66507055
0.66507055
0.66507055
0.66507055
0.66507055
0.66507055
0.66507055
0.66507055
0.66507055
0.66507055
0.66507055
0.66507055
0.66507055
0.66507055
0.66507055
0.66507055
0.66507055
0.66507055
0.66507055
0.66507055
0.66507055
0.66506646
0.6649544
0.66319094
0.66380052
0.66435587
0.64403953
0.6062388
0.66860672
0.69480464
0.74927562
0.75274141
0.68286776
0.66958401
0.66571081
0.66566059
0.66721028
0.66759658
0.66390206
0.65892321
0.66422502
0.67114221
0.67408952
0.67082653
0.66507055
0.66507055
0.66507055
0.66507055
0.66507055
0.66507055
0.66507055
0.66507055
0.66507055
0.66507055
0.66507055
0.66507055
0.66507055
0.66507055
0.66507055
0.66507055
0.66507055
0.66507055
0.66507055
0.66507055
0.66507055
0.66507055
0.66507055
0.66507055
0.66507055
0.66507055
0.66507055
0.66507055
0.66507055
0.66507055
0.66507055
0.66507055
0.66507055
0.66507055
0.66507055
0.66507055
0.66507055
0.66507055
0.66507055
0.66507055
0.66507055
0.66507055
0.66507055
0.66507055
0.66507055
0.66507055
0.66507055
0.66507055
0.66507055
0.66507055
0.66507055
0.66507055
0.66507055
0.66507055
0.66507055
0.66507055
0.66507055
0.6650683
0.66498337
0.66350003
0.66377239
0.66447871
0.65177138
0.60570118
0.6634411
0.69477897
0.7407619
0.76242795
0.69236023
0.67107255
0.66673575
0.66598884
0.6666718
0.66809579
0.66371177
0.66038013
0.66638511
0.6713427
0.67407834
0.67111847
0.66507053
0.66507055
0.66507055
0.66507055
0.66507055
0.66507055
0.66507055
0.66507055
0.66507055
0.66507055
0.66507055
0.66507055
0.66507055
0.66507055
0.66507055
0.66507055
0.66507055
0.66507055
0.66507055
0.66507055
0.66507055
0.66507055
0.66507055
0.66507055
0.66507055
0.66507055
0.66507055
0.66507055
0.66507055
0.66507055
0.66507055
0.66507055
0.66507055
0.66507055
0.66507055
0.66507055
0.66507055
0.66507055
0.66507055
0.66507055
0.66507055
0.66507055
0.66507055
0.66507055
0.66507055
0.66507055
0.66507055
0.66507055
0.66507055
0.66507055
0.66507055
0.66507055
0.66507055
0.66507055
0.66507055
0.66507055
0.66507055
0.66506942
0.66500712
0.66383479
0.66372133
0.6646695
0.65673598
0.60908741
0.65664039
0.69550708
0.73277833
0.77675545
0.69244974
0.67390772
0.66762668
0.66614557
0.66655664
0.6666183
0.66490125
0.66135665
0.66711768
0.67159141
0.67422718
0.66507055
0.66507055
0.66507055
0.66507055
0.66507055
0.66507055
0.66507055
0.66507055
0.66507055
0.66507055
0.66507055
0.66507055
0.66507055
0.66507055
0.66507055
0.66507055
0.66507055
0.66507055
0.66507055
0.66507055
0.66507055
0.66507055
0.66507055
0.66507055
0.66507055
0.66507055
0.66507055
0.66507055
0.66507055
0.66507055
0.66507055
0.66507055
0.66507055
0.66507055
0.66507055
0.66507055
0.66507055
0.66507055
0.66507055
0.66507055
0.66507055
0.66507055
0.66507055
0.66507055
0.66507055
0.66507055
0.66507055
0.66507055
0.66507055
0.66507055
0.66507055
0.66507055
0.66507055
0.66507055
0.66507055
0.66507055
0.66507055
0.66507004
0.66502429
0.66416339
0.6635889
0.66467536
0.66062071
0.61603556
0.64547291
0.68842791
0.71635106
0.78338478
0.70655778
0.67642309
0.66908255
0.66643796
0.66609641
0.66612231
0.66571913
0.66270317
0.66762579
0.67149036
0.67353542
0.66507054
0.66507055
0.66507055
0.66507055
0.66507055
0.66507055
0.66507055
0.66507055
0.66507055
0.66507055
0.66507055
0.66507055
0.66507055
0.66507055
0.66507055
0.66507055
0.66507055
0.66507055
0.66507055
0.66507055
0.66507055
0.66507055
0.66507055
0.66507055
0.66507055
0.66507055
0.66507055
0.66507055
0.66507055
0.66507055
0.66507055
0.66507055
0.66507055
0.66507055
0.66507055
0.66507055
0.66507055
0.66507055
0.66507055
0.66507055
0.66507055
0.66507055
0.66507055
0.66507055
0.66507055
0.66507055
0.66507055
0.66507055
0.66507055
0.66507055