/*--------------------------------*- C++ -*----------------------------------*\
| =========                 |                                                 |
| \\      /  F ield         | OpenFOAM: The Open Source CFD Toolbox           |
|  \\    /   O peration     | Version:  2506                                  |
|   \\  /    A nd           | Website:  www.openfoam.com                      |
|    \\/     M anipulation  |                                                 |
\*---------------------------------------------------------------------------*/
FoamFile
{
    version     2.0;
    format      ascii;
    arch        "LSB;label=32;scalar=64";
    class       volScalarField;
    location    "2.35";
    object      omega;
}
// * * * * * * * * * * * * * * * * * * * * * * * * * * * * * * * * * * * * * //

dimensions      [0 0 -1 0 0 0 0];

internalField   nonuniform List<scalar> 
1375
(
74.871381
66.710876
57.664493
49.844493
43.836942
39.395309
76.66199
72.249013
64.293452
55.61498
48.193987
42.522921
38.335638
35.227507
32.879387
31.079077
29.691386
28.627671
27.823954
27.227949
26.795518
26.489069
26.276966
26.134203
26.042158
74.151666
69.778601
62.025962
53.701638
46.655725
41.296824
37.344448
34.40952
32.191304
30.491485
29.18373
28.184608
27.433136
26.87919
26.480381
26.200528
26.009227
25.88257
25.803089
25.758957
25.741115
25.738065
25.744601
25.762531
25.788324
25.820297
25.857706
71.755994
67.393483
59.830595
51.852478
45.17077
40.112359
36.385316
33.616758
31.524091
29.922128
28.69273
27.757121
27.056866
26.543731
26.176992
25.921994
25.74979
25.637833
25.56996
25.535198
25.523807
25.523356
25.534159
25.555348
25.583719
25.617973
25.657485
25.701993
25.751517
25.806434
25.867299
25.934772
26.009675
26.093046
69.459064
65.069979
57.678277
50.038346
43.713323
38.947775
35.440042
32.833962
30.864881
29.360227
28.2095
27.338057
26.689572
26.217417
25.882423
25.651521
25.497463
25.399357
25.342489
25.316325
25.309614
25.312263
25.327147
25.351243
25.381998
25.418371
25.459841
25.506196
25.557488
25.61411
25.676624
25.745731
25.822295
25.907363
26.002245
26.108553
26.228274
26.363985
67.270058
62.824924
55.587438
48.274023
42.294247
37.811352
34.514957
32.065889
30.216979
28.807773
27.734868
26.92728
26.330438
25.899092
25.595486
25.388121
25.251565
25.166755
25.120345
25.101761
25.098452
25.104884
25.123428
25.150159
25.18312
25.221477
25.264769
25.312819
25.365773
25.424012
25.488084
25.558715
25.636812
25.723463
25.819932
25.927798
26.049053
26.186266
26.342642
26.522096
26.729569
65.209965
60.69935
53.607023
46.602625
40.947154
36.729003
33.630579
31.328948
29.593429
28.274826
27.276144
26.529635
25.982296
25.590125
25.316644
25.131823
25.011998
24.939877
24.903247
24.891178
24.890393
24.901106
24.922865
24.951997
24.987017
25.027211
25.072186
25.121842
25.176345
25.236092
25.301639
25.373712
25.453241
25.54135
25.63931
25.748648
25.871348
26.009954
26.167626
26.348278
26.556837
26.800046
27.086882
27.429976
63.294766
58.731681
51.784059
45.065168
39.703258
35.723598
32.804165
30.636843
29.00552
27.770625
26.840586
26.150467
25.648765
25.292719
25.047072
24.88316
24.778962
24.718783
24.691063
24.683747
24.685877
24.700718
24.725293
24.756633
24.793564
24.83547
24.882017
24.933159
24.989111
25.050291
25.117237
25.190664
25.271541
25.361015
25.460366
25.571096
25.695153
25.835046
25.993897
26.175609
26.385102
26.629003
26.916155
27.259083
27.67565
28.190262
61.530886
56.952315
50.15424
43.689413
38.580072
34.805212
32.041885
29.994107
28.457111
27.29866
26.431343
25.792483
25.331983
25.008382
24.787693
24.642615
24.552662
24.503393
24.483309
24.479366
24.485066
24.50354
24.530598
24.563951
24.602643
24.646129
24.694131
24.746664
24.803991
24.866532
24.934804
25.009522
25.091669
25.182417
25.283065
25.395112
25.520447
25.661531
25.821454
26.004094
26.214363
26.458774
26.746063
27.08867
27.504031
28.01577
28.664066
29.643311
59.911633
55.369491
48.72394
42.476511
37.575449
33.970643
31.340319
29.397572
27.945491
26.856864
26.04708
25.455033
25.031805
24.737213
24.538642
24.410261
24.33303
24.293415
24.279685
24.278208
24.28787
24.309448
24.3387
24.373872
24.414159
24.459083
24.508433
24.562277
24.620896
24.684714
24.754247
24.830207
24.913571
25.005519
25.107374
25.220629
25.347149
25.489348
25.650245
25.833697
26.04459
26.289334
26.576602
26.91874
27.332743
27.841431
28.484112
29.459078
33.013086
58.414989
53.957811
47.46336
41.400976
36.671684
33.208403
30.691599
28.841218
27.465754
26.44123
25.684649
25.135783
24.746575
24.478083
24.299166
24.185564
24.119657
24.088504
24.079576
24.080419
24.094095
24.118318
24.149522
24.186331
24.228045
24.274265
24.324846
24.379906
24.439748
24.504777
24.575507
24.65265
24.737172
24.83025
24.933216
25.047575
25.175183
25.318407
25.480193
25.664352
25.875727
26.120652
26.407763
26.749297
27.161807
27.667271
28.304173
29.274764
32.890484
57.009718
52.668043
46.321406
40.424221
35.845133
32.50555
30.088838
28.320934
27.014798
26.048875
25.341217
24.832054
24.473963
24.229127
24.067868
23.96754
23.911817
23.887927
23.882386
23.886204
23.90351
23.930039
23.962991
24.001256
24.044245
24.091636
24.143351
24.199543
24.260513
24.326668
24.398529
24.476797
24.562418
24.656554
24.760536
24.875898
25.004492
25.148632
25.311203
25.495971
25.707719
25.952711
26.239548
26.580343
26.991228
27.493288
28.124235
29.090332
32.770788
55.664297
51.44481
45.243991
39.507077
35.072359
31.849949
29.526495
27.834357
26.591344
25.678541
25.015178
24.541945
24.212014
23.988586
23.843341
23.755133
23.708625
23.690885
23.687901
23.695309
23.715824
23.744432
23.778983
23.81858
23.862733
23.911197
23.963947
24.021166
24.083174
24.150376
24.223288
24.302614
24.389271
24.484398
24.589309
24.705563
24.835021
24.979958
25.143219
25.328504
25.540528
25.785498
26.071957
26.411882
26.820991
27.319446
27.944275
28.905923
32.654616
54.353905
50.241305
44.186225
38.616626
34.332381
31.229459
28.998089
27.378237
26.193668
25.329005
24.705294
24.264085
23.959314
23.755165
23.624524
23.547475
23.509329
23.496923
23.495965
23.507407
23.530757
23.561295
23.597361
23.638218
23.683472
23.732938
23.786639
23.844795
23.907741
23.975892
24.049772
24.130077
24.217702
24.313746
24.419506
24.536545
24.666739
24.812353
24.976202
25.161907
25.374124
25.619003
25.904987
26.243901
26.651055
27.145691
27.764273
28.721851
32.542807
53.06552
49.034024
43.126268
37.735914
33.612388
30.634492
28.496598
26.947536
25.818199
24.997712
24.409677
23.997027
23.71474
23.528016
23.410812
23.344179
23.313693
23.305374
23.3068
23.322279
23.348143
23.380491
23.418003
23.460073
23.506391
23.55683
23.611439
23.670454
23.734239
23.803235
23.877981
23.959173
24.047679
24.14456
24.25109
24.368819
24.499636
24.64581
24.810131
24.996165
25.208495
25.453212
25.738617
26.076376
26.481381
26.971979
27.584257
28.538514
32.435867
51.797664
47.824063
42.065602
36.863834
32.908068
30.058763
28.01527
26.536105
25.459948
24.68099
24.125852
23.739241
23.477425
23.3067
23.202023
23.145133
23.12143
23.116132
23.120713
23.139815
23.167918
23.201967
23.240871
23.284123
23.331477
23.382845
23.438318
23.498143
23.562695
23.632443
23.707945
23.789903
23.879182
23.976815
24.084038
24.202377
24.333711
24.48033
24.645014
24.831279
25.043638
25.288105
25.572824
25.909285
26.311947
26.798303
27.404296
28.356261
32.333644
50.557121
46.631024
41.02399
36.012684
32.223725
29.501114
27.550156
26.139182
25.114542
24.375432
23.851525
23.489409
23.246765
23.091061
22.998188
22.950309
22.932449
22.929532
22.93783
22.960035
22.990117
23.025723
23.065937
23.110313
23.158656
23.210928
23.267228
23.327812
23.393072
23.463491
23.539652
23.622268
23.712208
23.810485
23.918313
24.037179
24.168948
24.315913
24.480857
24.667253
24.879546
25.123659
25.407589
25.742618
26.142753
26.624702
27.224484
28.175171
32.235284
49.351705
45.472469
40.018021
35.192604
31.563228
28.961194
27.098713
25.753486
24.778889
24.078609
23.585067
23.246623
23.022385
22.881022
22.799292
22.759641
22.74686
22.745881
22.758183
22.782971
22.814785
22.85181
22.89324
22.938672
22.987945
23.041056
23.098135
23.159426
23.225322
23.29633
23.373062
23.456238
23.546732
23.645552
23.753892
23.873209
24.00534
24.152564
24.317669
24.504091
24.716214
24.959864
25.242908
25.57639
25.973842
26.451261
27.044898
27.994923
32.139302
48.187994
44.356717
39.052921
34.404987
30.925449
28.436553
26.658059
25.376297
24.450745
23.788878
23.325418
23.010296
22.804021
22.676492
22.605318
22.573171
22.564333
22.565567
22.581755
22.608714
22.642046
22.68032
22.722826
22.769206
22.819322
22.873185
22.930941
22.992867
23.059357
23.130911
23.208148
23.291797
23.382741
23.482003
23.590761
23.710454
23.842883
23.990294
24.155467
24.341814
24.553659
24.796736
25.078799
25.410637
25.805287
26.278083
26.865553
27.814892
32.044054
47.072486
43.28873
38.130267
33.649336
30.309293
27.926035
26.227084
25.006624
24.129307
23.505641
23.072166
22.780155
22.591487
22.477318
22.416094
22.39059
22.384678
22.388841
22.408419
22.437223
22.471892
22.511254
22.554686
22.601872
22.652702
22.707219
22.76559
22.828094
22.895113
22.967146
23.04482
23.128882
23.22022
23.31985
23.428958
23.548953
23.681605
23.829129
23.994279
24.180447
24.391901
24.634296
24.915288
25.24539
25.637144
26.105239
26.686424
27.634439
31.948831
46.009965
42.269564
37.249417
32.925412
29.715607
27.431216
25.807513
24.645934
23.815623
23.229529
22.825602
22.556257
22.384691
22.283305
22.231306
22.211532
22.207908
22.215537
22.237955
22.268358
22.304211
22.344526
22.388751
22.436615
22.488043
22.543111
22.602007
22.665009
22.732499
22.804979
22.883069
22.967513
23.059189
23.159121
23.268501
23.388727
23.521536
23.669104
23.834144
24.020019
24.230966
24.472567
24.752384
25.080652
25.469425
25.932739
26.50747
27.453257
31.854146
45.003352
41.297834
36.407497
32.231667
29.144868
26.954013
25.401835
24.296615
23.511585
22.961804
22.586404
22.338846
22.183594
22.094213
22.050571
22.035719
22.034034
22.045359
22.070122
22.101927
22.138838
22.179991
22.2249
22.27334
22.325276
22.380814
22.440158
22.503597
22.571513
22.644391
22.722851
22.80764
22.899622
22.999815
23.109408
23.229806
23.36271
23.510249
23.675096
23.860575
24.070887
24.31157
24.59009
24.916412
25.302098
25.760528
26.328659
27.271569
31.76165
44.056141
40.378441
35.607669
31.570406
28.599458
26.497021
25.012572
23.960796
23.218748
22.703407
22.355002
22.127994
21.988032
21.909738
21.8736
21.862924
21.862919
21.878007
21.904696
21.937737
21.975597
22.017502
22.063018
22.111963
22.164342
22.220288
22.280022
22.34384
22.412123
22.485361
22.564165
22.649262
22.741511
22.841917
22.951672
23.072178
23.205112
23.352562
23.517141
23.702123
23.911689
24.151334
24.428421
24.752654
25.135114
25.588522
26.149981
27.090013
31.673019
43.171046
39.520376
34.857595
30.947053
28.083389
26.063471
24.642351
23.640459
22.938407
22.455016
22.131574
21.923534
21.797673
21.729532
21.700056
21.692491
21.694801
21.713219
21.741506
21.775632
21.814338
21.856924
21.903
21.952413
22.005195
22.061501
22.121573
22.185717
22.25432
22.327869
22.406966
22.492332
22.584807
22.685385
22.795247
22.915796
23.048697
23.19599
23.360225
23.544637
23.753367
23.991862
24.267378
24.589366
24.968433
25.416648
25.97147
26.909326
31.589036
42.345652
38.727009
34.16133
30.364722
27.598877
25.654828
24.292128
23.336176
22.670803
22.216589
21.915892
21.725155
21.612166
21.553217
21.529499
21.524297
21.529557
21.550792
21.58045
21.615539
21.654999
21.698197
21.744782
21.794625
21.847777
21.90441
21.964775
22.029194
22.098062
22.171867
22.251201
22.336776
22.429422
22.530122
22.640046
22.760581
22.893381
23.04045
23.204279
23.388063
23.595887
23.833137
24.106954
24.426548
24.80204
25.244885
25.793172
26.72997
31.510062
27.144314
25.269797
23.960751
23.046904
22.415018
21.987354
21.707313
21.532321
21.431067
21.380388
21.361609
21.358354
21.367012
21.390598
21.421465
21.457417
21.497545
21.541287
21.588328
21.638559
21.692043
21.748962
21.809576
21.874219
21.943294
22.017292
22.0968
22.18252
22.275274
22.376035
22.485963
22.606431
22.739072
22.885856
23.049227
23.23233
23.439188
23.675118
23.947132
24.264191
24.635932
25.073253
25.615103
26.55193
31.4363
21.766242
21.50506
21.344484
21.253958
21.21069
21.19622
21.194705
21.206991
21.232545
21.264509
21.301249
21.341973
21.386187
21.43362
21.484183
21.53795
21.59511
21.655929
21.720745
21.78997
21.864094
21.943711
22.029515
22.122315
22.223075
22.332942
22.453275
22.585691
22.732129
22.89499
23.077363
23.283204
23.517744
23.78787
24.102281
24.470119
24.901791
25.437224
26.374766
31.36744
21.033407
21.049377
21.076586
21.109555
21.147013
21.188264
21.232884
21.280643
21.33148
21.385476
21.442824
21.503799
21.568739
21.638059
21.712254
21.791916
21.877732
21.970515
22.071217
22.18096
22.301086
22.433198
22.579216
22.741509
22.923097
23.127865
23.360956
23.629126
23.940791
24.304605
24.730532
25.259486
26.197968
31.303383
20.994689
21.036402
21.081358
21.129378
21.180426
21.234596
21.292086
21.353172
21.418193
21.48756
21.561772
21.641419
21.727195
21.819902
21.920478
22.030033
22.149881
22.281604
22.427115
22.588759
22.769493
22.97313
23.204717
23.470873
23.779711
24.139388
24.559469
25.081828
26.02121
31.244391
21.031012
21.085306
21.142892
21.204046
21.269106
21.338483
21.412674
21.492273
21.577964
21.67054
21.770928
21.880215
21.999696
22.130943
22.27586
22.436761
22.616553
22.818983
23.049008
23.313095
23.619034
23.974467
24.388599
24.904282
25.844577
31.190795
21.121493
21.19085
21.264993
21.344508
21.430074
21.522478
21.622617
21.731558
21.850589
21.981267
22.125489
22.285549
22.464304
22.665441
22.893836
23.155798
23.458764
23.809849
24.217915
24.726887
25.668415
31.142839
21.198128
21.283539
21.375721
21.475558
21.584098
21.702609
21.832637
21.976061
22.135167
22.312784
22.512541
22.73923
22.998993
23.298911
23.645557
24.047466
24.549768
25.493228
31.100793
21.329749
21.437844
21.555777
21.685085
21.82763
21.985681
22.16205
22.360332
22.585231
22.84271
23.139494
23.481607
23.877299
24.373085
25.319453
31.065071
21.410077
21.538618
21.68022
21.837139
22.012167
22.208873
22.431878
22.686974
22.980523
23.318008
23.707461
24.196945
25.147315
31.036045
21.689567
21.86318
22.058219
22.279229
22.531825
22.822008
23.154769
23.537982
24.021374
24.97685
31.013976
21.908391
22.127313
22.37729
22.663976
22.991896
23.368855
23.84636
24.808009
30.999157
22.223382
22.506428
22.829393
23.200064
23.671851
24.64072
30.99135
22.349372
22.667265
23.031582
23.4978
24.474839
30.982792
22.863426
23.324206
24.310384
30.943825
23.151044
24.147833
30.998341
23.987375
31.079855
)
;

boundaryField
{
    Side
    {
        type            empty;
    }
    Inlet
    {
        type            fixedValue;
        value           uniform 60.24606;
    }
    Airfoil
    {
        type            omegaWallFunction;
        blending        binomial;
        n               2;
        value           nonuniform List<scalar> 0();
    }
    Outlet
    {
        type            inletOutlet;
        inletValue      nonuniform List<scalar> 0();
        value           nonuniform List<scalar> 0();
    }
    procBoundary4to3
    {
        type            processor;
        value           nonuniform List<scalar> 
57
(
77.720702
69.36487
59.929349
51.670661
45.287154
40.56003
36.099678
36.099678
33.61145
31.703113
30.229703
29.096686
28.236649
27.594914
27.125537
26.789563
26.554216
26.393479
26.287638
25.987918
25.987918
25.962468
25.955887
25.958623
25.972872
25.995836
26.025354
26.060518
25.900245
25.900245
25.947897
26.001007
26.060105
26.125819
26.198928
26.280481
26.186238
26.186238
26.290888
26.408977
26.543087
26.518924
26.518924
26.697028
26.903273
26.971898
26.971898
27.258238
27.601347
27.847583
27.847583
28.364867
28.844018
28.844018
29.827634
33.138591
33.138591
)
;
    }
    procBoundary4to5
    {
        type            processor;
        value           nonuniform List<scalar> 
64
(
37.992543
33.515409
29.821392
29.821392
26.716696
24.906025
23.646245
22.77098
22.169696
22.169696
21.552603
21.308672
21.161325
21.080603
21.044003
21.033281
21.033281
20.874881
20.894094
20.922709
20.956586
20.956586
20.844254
20.88636
20.931592
20.97981
20.97981
20.883239
20.937613
20.995251
21.05643
21.05643
20.975364
21.044663
21.118723
21.118723
21.05311
21.138323
21.230249
21.230249
21.185128
21.292749
21.292749
21.265453
21.393214
21.533838
21.533838
21.542951
21.715093
21.715093
21.759393
21.976138
21.976138
22.070085
22.070085
22.192785
22.505501
22.505501
22.695586
22.695586
22.978389
22.978389
23.828709
31.085403
)
;
    }
    procBoundary4to11
    {
        type            processor;
        value           nonuniform List<scalar> 
26
(
76.802623
74.253942
71.855907
69.593656
67.467963
65.485461
63.644186
61.92476
60.297015
58.734613
57.22395
55.765369
54.366685
53.031615
51.75396
50.52125
49.325705
48.168732
47.058541
46.006557
45.021016
44.100971
43.237444
42.419157
79.329195
79.329195
)
;
    }
    procBoundary4to12
    {
        type            processor;
        value           uniform 41.571818;
    }
}


// ************************************************************************* //
