/*--------------------------------*- C++ -*----------------------------------*\
| =========                 |                                                 |
| \\      /  F ield         | OpenFOAM: The Open Source CFD Toolbox           |
|  \\    /   O peration     | Version:  2506                                  |
|   \\  /    A nd           | Website:  www.openfoam.com                      |
|    \\/     M anipulation  |                                                 |
\*---------------------------------------------------------------------------*/
FoamFile
{
    version     2.0;
    format      ascii;
    arch        "LSB;label=32;scalar=64";
    class       surfaceScalarField;
    location    "2.45";
    object      phi;
}
// * * * * * * * * * * * * * * * * * * * * * * * * * * * * * * * * * * * * * //

dimensions      [1 0 -1 0 0 0 0];

oriented        oriented;

internalField   nonuniform List<scalar> 
2671
(
9.5579183
0.44642872
8.7291637
0.4137727
7.9610974
0.38346663
7.2491136
0.35542434
6.5899798
0.32947022
5.9798461
0.30549324
5.4145012
0.28335697
4.8904309
0.26277264
4.4047807
0.24355484
3.9549902
0.22570015
3.538507
0.20910309
3.1527839
0.19369305
2.795594
0.17942192
2.4647647
0.16618693
2.1583164
0.15394374
1.8746389
0.14262238
1.6122916
0.13209062
1.3697837
0.1221967
1.1456648
0.11287908
0.93849692
0.10401834
0.74714191
0.095715654
0.57074132
0.088362231
0.40871819
0.081737272
0.25971816
0.076072592
0.12272321
0.070296021
0.064562313
63.380053
7.8186696
58.568095
7.2398428
54.114231
6.7009298
49.990402
6.2030208
46.171266
5.7444678
42.63748
5.3282896
39.361955
4.9158022
36.334653
4.5437877
33.528158
4.2268957
30.926386
3.915927
28.518314
3.6258843
26.289423
3.3569614
24.226216
3.10683
22.314574
2.8752709
20.544772
2.6617852
18.905751
2.4645856
17.387936
2.2818651
15.982425
2.1126608
14.680162
1.9563024
13.474157
1.8117522
12.35769
1.6780007
11.32342
1.5542495
10.365138
1.4397962
9.4775808
1.333945
8.655768
1.235875
7.8941754
1.1449792
7.1882032
1.0608345
6.5346941
0.98294743
5.929754
0.91087869
5.3690788
0.84415874
4.8493332
0.78224987
4.3677892
0.72476706
3.9218216
0.67148157
3.5088572
0.62203464
3.1264068
0.57616657
2.7722159
0.53366392
2.4441527
0.49425574
2.1402554
0.4577014
1.8588934
0.42380433
1.5986615
0.39230914
1.3580998
0.36293343
1.1357539
0.3354666
0.93025224
0.30968469
0.74048739
0.28543664
0.56552098
0.26315361
0.4047455
0.24243742
0.25737806
0.22348673
0.1228249
0.20490635
0.18741339
61.787284
12.885211
57.09679
11.930359
52.755274
11.043533
48.734473
10.223311
45.013461
9.4652454
41.570604
8.7704665
38.37929
8.1065811
35.421538
7.5017435
32.68612
6.9625504
30.151035
6.4501783
27.802901
5.9728683
25.62973
5.5296935
23.618741
5.117946
21.755871
4.737708
20.031212
4.3866472
18.433646
4.0620495
16.954083
3.761351
15.583892
3.4829136
14.314214
3.2254297
13.138392
2.9872263
12.049871
2.7668002
11.041531
2.562792
10.107313
2.3739997
9.2419246
2.1992974
8.4405853
2.037449
7.6980166
1.8874955
7.0097473
1.7486517
6.3727115
1.6201179
5.7829459
1.5011554
5.2361635
1.3909669
4.7293031
1.2887483
4.2597879
1.1939562
3.8249475
1.1061197
3.4222904
1.0246557
3.0494232
0.94909743
2.704065
0.87908941
2.3841729
0.81416479
2.0878354
0.75392452
1.8134619
0.69799767
1.5596538
0.64608173
1.325035
0.597684
1.1081523
0.55252301
0.90774731
0.51024846
0.72274075
0.47050656
0.55218161
0.43362967
0.39541632
0.39913408
0.25183621
0.36708816
0.12143465
0.33535439
0.30886762
59.237919
17.741408
54.741665
16.425974
50.578786
15.206475
46.724988
14.076724
43.15543
13.034186
39.850199
12.075444
36.796375
11.160104
33.963447
10.33448
31.339178
9.5868639
28.908315
8.880802
26.658036
8.2228055
24.57585
7.6119229
22.648317
7.0455711
20.862978
6.5227305
19.209919
6.0400043
17.67843
5.5932717
16.260101
5.1795231
14.946487
4.79656
13.728909
4.4423039
12.60132
4.1144433
11.557417
3.8109661
10.59051
3.5299929
9.6947272
3.2698832
8.8648159
3.0291185
8.0963683
2.8060962
7.3843287
2.5995273
6.7244162
2.4082422
6.1137121
2.2311323
5.5481948
2.0671919
5.0237344
1.9153128
4.5376219
1.7744503
4.0873943
1.6438999
3.6703741
1.5229247
3.2842407
1.4107684
2.9267181
1.306744
2.59554
1.2103509
2.2887502
1.1209705
2.004584
1.0379913
1.7413894
0.9610175
1.4980484
0.88937812
1.2730534
0.82277575
1.0649433
0.76075121
0.87293488
0.7024038
0.69556713
0.64802127
0.53183607
0.59736907
0.3818997
0.54899849
0.24377472
0.5051979
0.11794844
0.46121397
0.42683647
55.876011
22.321064
51.637267
20.664541
47.711876
19.130131
44.077978
17.710425
40.706097
16.405757
37.603948
15.17767
34.718104
14.045954
32.037817
13.015731
29.563299
12.061336
27.273368
11.170591
25.152201
10.343874
23.188596
9.5756997
21.37052
8.8637237
19.686531
8.2066123
18.127432
7.5994709
16.682762
7.0375561
15.344785
6.5173434
14.105348
6.0359348
12.956337
5.5904189
11.892521
5.1779267
10.907715
4.7960052
9.9956463
4.4423823
9.1506275
4.1150024
8.3676335
3.8119249
7.6427364
3.5312077
6.9710425
3.271247
6.3485531
3.0305042
5.7725411
2.8075841
5.2389565
2.6012186
4.7439705
2.4100191
4.2853186
2.2327062
3.8605254
2.0684649
3.467
1.9162217
3.1026979
1.7750962
2.7653875
1.6442397
2.4528633
1.5229565
2.1633595
1.410479
1.8951759
1.3060795
1.6469428
1.2090779
1.4172575
1.1190103
1.2047992
1.0353154
1.008895
0.95673426
0.82716482
0.88427321
0.65982823
0.8155886
0.50647103
0.75079618
0.36350203
0.69184873
0.2338643
0.63480977
0.11377721
0.58130307
0.54062581
51.884065
26.570724
47.94614
24.601257
44.30279
22.772753
40.929583
21.083107
37.801642
19.533744
34.920752
18.059736
32.235232
16.731812
29.752946
15.498195
27.456802
14.357441
25.330413
13.29664
23.361596
12.312208
21.539923
11.397554
19.85226
10.55158
18.288495
9.7705522
16.840327
9.0480157
15.498473
8.3789835
14.256361
7.759505
13.105727
7.1864843
12.038908
6.6562849
11.051233
6.1653543
10.136803
5.7106371
9.2900127
5.2894963
8.5053149
4.8996826
7.7780885
4.5388182
7.1048956
4.2046035
6.4809964
3.8951067
5.9028618
3.6084604
5.3679441
3.3430301
4.8721525
3.0972878
4.4121883
2.8695399
3.9861487
2.6584224
3.5915619
2.4628581
3.2259369
2.2816181
2.8875477
2.1135873
2.5742259
1.9577896
2.2838455
1.8134034
2.0148762
1.679445
1.7657558
1.5550974
1.5350407
1.4396144
1.3215793
1.3324234
1.1247079
1.2322592
0.94160801
1.1398758
0.77375356
1.0522802
0.61855672
0.9710639
0.47462647
0.89482892
0.34280313
0.82355923
0.22024241
0.75730999
0.10806912
0.69348108
0.64869508
47.456989
30.456004
43.860277
28.196207
40.529687
26.103761
37.442541
24.169644
34.589485
22.387014
31.945568
20.704654
29.492378
19.186691
27.223688
17.767105
25.123414
16.457842
23.179315
15.240736
21.378636
14.112462
19.712189
13.064589
18.167835
12.096305
16.737387
11.201439
15.412637
10.373013
14.185616
9.6056354
13.049966
8.8955558
11.997244
8.2389582
11.021357
7.6311812
10.118289
7.0682658
9.2820814
6.5470282
8.5075341
6.0644351
7.7895069
5.6175767
7.1241602
5.2037799
6.5083666
4.8206084
5.9375553
4.4657928
5.4087735
4.1371715
4.9195487
3.8328834
4.4657922
3.5511169
4.0448111
3.2899792
3.6550659
3.0479588
3.2939348
2.8237938
2.9592933
2.6160567
2.6496883
2.4233756
2.3628865
2.2448247
2.097146
2.0791989
1.8508871
1.9256999
1.6228304
1.7830309
1.4114814
1.650782
1.2162496
1.5276354
1.0352866
1.4132892
0.86879754
1.3063841
0.71396259
1.2072628
0.57157209
1.1137866
0.43970449
1.0268078
0.31998378
0.94319525
0.20808085
0.86907629
0.10241349
0.79917542
0.75110808
42.791587
33.958638
39.548247
31.439146
36.545472
29.10758
33.762045
26.952221
31.19496
24.954203
28.804625
23.095901
26.599292
21.393107
24.554873
19.812224
22.662233
18.351532
20.909166
16.994499
19.287605
15.734298
17.786454
14.566733
16.394372
13.488728
15.105281
12.490891
13.910933
11.567307
12.804247
10.712084
11.780274
9.92015
10.830799
9.1879103
9.9508799
8.5101905
9.1364908
7.8826954
8.3822172
7.3015358
7.6840301
6.7630974
7.0367524
6.2646687
6.436937
5.8033728
5.8816421
5.3762142
5.3667182
4.9805875
4.8898534
4.6141361
4.448608
4.2748111
4.0389825
3.9605755
3.6590755
3.6693298
3.3074734
3.399456
2.9814808
3.1495562
2.6795234
2.9178498
2.4001531
2.7029839
2.1413278
2.5038685
1.9014097
2.3191857
1.6791325
2.1479739
1.4731228
1.9888844
1.2824649
1.8412775
1.106303
1.7038148
0.94328053
1.5763645
0.79228425
1.4573764
0.65292661
1.3467703
0.52508699
1.2419541
0.40603847
1.1459654
0.29421782
1.054864
0.1918824
0.97130759
0.097381044
0.89362855
0.84849043
38.078272
37.067273
35.19302
34.324267
32.521305
31.780069
30.045378
29.427877
27.761798
27.23738
25.638756
25.218965
23.675976
23.355102
21.854415
21.633408
20.169953
20.036605
18.612076
18.553257
17.173571
17.173261
15.838997
15.90231
14.600467
14.727227
13.452601
13.63863
12.389712
12.629761
11.406832
11.694885
10.496834
10.830832
9.6519603
10.032152
8.8689371
9.2924998
8.1447489
8.6071703
7.4739958
7.9725016
6.8525522
7.3849271
6.275892
6.8409823
5.7419719
6.3371884
5.2478979
5.8706458
4.7897278
5.4386513
4.3655617
5.0385699
3.9727663
4.6682007
3.6078441
4.3250574
3.2697011
4.0069669
2.956686
3.712429
2.6664163
3.4395591
2.3975387
3.186596
2.1487342
2.9520603
1.9182164
2.7346045
1.7045117
2.5329942
1.5065539
2.3459145
1.3228331
2.1724167
1.1527892
2.0112069
0.99547336
1.8611867
0.84986709
1.7220147
0.7150914
1.5921146
0.59143621
1.4706166
0.47447131
1.3592117
0.36872082
1.2518407
0.27206291
1.1513392
0.18048436
1.0628492
0.089308808
0.98479936
0.93778739
33.441453
39.810322
30.90801
36.85858
28.572211
34.116394
26.403945
31.59557
24.402239
29.238228
22.53924
27.081975
20.812232
25.080653
19.212706
23.23206
17.73438
21.514716
16.370076
19.917487
15.104608
18.438892
13.930523
17.077404
12.843689
15.814549
11.838068
14.643905
10.905501
13.561945
10.040846
12.559967
9.240207
11.632052
8.4976647
10.773939
7.8102205
9.9792623
7.1743852
9.2434791
6.5848492
8.5622781
6.0390266
7.9311529
5.5328183
7.3467431
5.0638774
6.8060335
4.6295819
6.3052748
4.2267345
5.8414092
3.8540141
5.4117622
3.508634
5.0139676
3.1876437
4.6453776
2.8903388
4.3038847
2.6150735
3.987683
2.359719
3.6946207
2.1231659
3.4230515
1.9043408
3.1711943
1.7016002
2.9375747
1.5133589
2.7213642
1.3389231
2.5202824
1.177245
2.3338908
1.0279372
2.1604647
0.88958528
1.999618
0.76144854
1.8501354
0.64278896
1.7107449
0.53176144
1.5818342
0.43211243
1.4591548
0.33652197
1.3474802
0.24567599
1.2420497
0.16225658
1.1461299
0.085203603
1.0618764
1.0230032
29.065718
42.168419
26.874658
39.04979
24.832787
36.158396
22.949348
33.477796
21.204659
30.982948
19.584095
28.70202
18.083283
26.580046
16.697593
24.616736
15.418001
22.793946
14.234331
21.100574
13.134653
19.539171
12.116349
18.096948
11.172357
16.759012
10.296334
15.519792
9.4863697
14.371776
8.739927
13.307199
8.0462599
12.326028
7.4013553
11.418034
6.8042663
10.57577
6.2521325
9.7960174
5.7408655
9.0736786
5.2675505
8.4048564
4.8277111
7.7863226
4.4201186
7.2136476
4.042603
6.6830578
3.692432
6.1914593
3.3686999
5.7360946
3.0682888
5.3144624
2.7891886
4.9237316
2.5309528
4.5619398
2.2916861
4.2269534
2.069447
3.9165511
1.8637621
3.6287061
1.6735251
3.3617754
1.4968629
3.1144613
1.33348
2.8848512
1.1813134
2.6723031
1.0402918
2.4747386
0.9096676
2.2911039
0.78888276
2.1204818
0.67670347
1.9622722
0.57303067
1.8143992
0.47776223
1.677247
0.38626498
1.5509013
0.30420747
1.4295718
0.22868301
1.3175628
0.15618923
1.2185879
0.079020448
1.139022
1.1020302
24.94403
44.221792
23.062077
40.932452
21.332544
37.890059
19.724457
35.085741
18.22504
32.483344
16.838266
30.088668
15.552422
27.864015
14.364767
25.803168
13.267958
23.890171
12.250723
22.117516
11.305298
20.484779
10.434246
18.969312
9.6255067
17.567998
8.8760886
16.268901
8.1814983
15.066034
7.5351525
13.953935
6.9371284
12.924144
6.383534
11.97072
5.8712165
11.087921
5.3970009
10.270565
4.9570953
9.513603
4.5494825
8.8126258
4.17172
8.1639824
3.8220842
7.5634246
3.4982556
7.0070272
3.198111
6.4915731
2.9201387
6.0146851
2.6615216
5.5728476
2.4212598
5.1633096
2.1991273
4.7841037
1.9931483
4.4329304
1.8019153
4.107499
1.6249691
3.805737
1.4611633
3.5259357
1.3091528
3.2666658
1.1673813
3.0266463
1.0361606
2.8033165
0.91512344
2.5956335
0.80291123
2.4033758
0.69759387
2.225847
0.60123184
2.0585893
0.51096593
1.9046889
0.42734703
1.7610854
0.35161029
1.6267566
0.27285641
1.5084249
0.19889227
1.3916298
0.13291109
1.2846612
0.072654116
1.1993382
1.174723
21.274975
45.919495
19.675063
42.531144
18.176001
39.39327
16.798369
36.465251
15.521857
33.761999
14.345229
31.265338
13.253879
28.954079
12.245917
26.810711
11.312485
24.822683
10.444677
22.984902
9.6435843
21.286723
8.8975168
19.715916
8.2078382
18.257289
7.570598
16.90647
6.9804653
15.656413
6.4342706
14.500458
5.9279627
13.430681
5.4583519
12.439863
5.0232577
11.522837
4.6202631
10.673922
4.2474005
9.8866867
3.901559
9.15844
3.5801144
8.4852373
3.2826615
7.8610917
3.0066458
7.2829756
2.7504114
6.7479456
2.5132665
6.252372
2.2930499
5.7926908
2.0888048
5.3669979
1.8996759
4.9733341
1.7237667
4.6087764
1.5606063
4.2704431
1.4097977
3.9567503
1.2699863
3.666088
1.1398327
3.396965
1.0195428
3.1468383
0.9078249
2.9147723
0.80338029
2.6999823
0.70623034
2.5005935
0.61793875
2.3141246
0.5333168
2.1431287
0.4544094
1.9836831
0.38288524
1.8328197
0.31294814
1.6968221
0.25708225
1.5645434
0.19708854
1.451864
0.13540957
1.3463716
0.072793827
1.2619845
1.2476243
17.918261
47.379329
16.568061
43.880281
15.326317
40.633716
14.174899
37.617237
13.108901
34.831013
12.117928
32.256779
11.19803
29.874245
10.348997
27.660012
9.5618654
25.609315
8.8303777
23.716229
8.1574227
21.960507
7.5345252
20.339009
6.9551037
18.836082
6.4177919
17.444056
5.9213606
16.153406
5.4605926
14.961318
5.0333104
13.857845
4.6380095
12.835267
4.2707909
11.889994
3.9305401
11.01398
3.6157547
10.201912
3.3234978
9.4508323
3.0515863
8.7566511
2.8003796
8.1126866
2.5677722
7.5155252
2.3527934
6.9631708
2.1531431
6.4522755
1.9671009
5.9783621
1.7942789
5.5395069
1.6342205
5.133463
1.4856741
4.7571569
1.3479308
4.4080413
1.2202996
4.0846639
1.1018095
3.7848906
0.99149015
3.5073598
0.88880683
3.2493324
0.79299754
3.0103339
0.70440849
2.7885653
0.62285905
2.5822351
0.54487515
2.3920793
0.47407246
2.2138647
0.41036822
2.0475177
0.34508858
1.8981737
0.28666596
1.7555036
0.21720221
1.6344917
0.15626817
1.5133309
0.10298761
1.3998254
0.057331847
1.3077559
1.3051051
14.991567
48.601172
13.868514
45.002779
12.831489
41.669652
11.871664
38.578356
10.979442
35.725528
10.150293
33.085969
9.3876591
30.637846
8.6819665
28.366184
8.0242153
26.266544
7.415958
24.325203
6.8530576
22.524116
6.3303062
20.861224
5.850058
19.316319
5.4027885
17.891356
4.9862352
16.570297
4.5986987
15.348111
4.2421167
14.214093
3.911262
13.166139
3.6058989
12.195657
3.3222339
11.297459
3.0594869
10.46504
2.8154214
9.6950976
2.5894847
8.982257
2.3804914
8.321796
2.1858216
7.7104681
2.0050613
7.1443454
1.8373825
6.6199912
1.6819388
6.1333898
1.5380012
5.6833493
1.403863
5.2676383
1.2788192
4.8819471
1.1629449
4.5238116
1.0559517
4.1919621
0.95616992
3.884926
0.86381298
3.5997286
0.77694214
3.3359335
0.69638812
3.0906967
0.62163135
2.8633703
0.55084293
2.6530962
0.48612573
2.4567194
0.42387497
2.2762175
0.36266801
2.108978
0.31057658
1.9503737
0.26002282
1.8063719
0.22670533
1.6684974
0.1776739
1.5629214
0.1115767
1.4656276
0.058793838
1.3606474
1.364464
12.456686
49.609518
11.531858
45.926678
10.674594
42.525546
9.8785062
39.376292
9.1383746
36.466785
8.4557944
33.768479
7.8268165
31.267529
7.2391879
28.953662
6.6929279
26.812177
6.1936243
24.825632
5.7276536
22.99041
5.2947881
21.2934
4.8915975
19.719507
4.5200122
18.262806
4.1773915
16.912828
3.8591581
15.665394
3.5647668
14.507986
3.2906404
13.440322
3.0360599
12.450425
2.8006988
11.532821
2.5835886
10.682696
2.381144
9.8973668
2.1925651
9.1707923
2.0185348
8.4959604
1.8574215
7.8717111
1.7081488
7.2940744
1.5686229
6.759451
1.438987
6.2626013
1.3185672
5.8037559
1.2065486
5.3796714
1.1025978
4.9856108
1.006164
4.6201944
0.91651365
4.2819368
0.83291649
3.9687059
0.75457825
3.6780138
0.68209403
3.4081553
0.61415106
3.158571
0.55066511
2.9269692
0.49152317
2.7121817
0.4343671
2.5137613
0.38145124
2.3292359
0.33346232
2.1570783
0.28219641
2.0018703
0.23240766
1.8567693
0.17407621
1.7280924
0.12429659
1.613099
0.09184903
1.4974409
0.046803687
1.4058049
1.4119882
10.303252
50.430594
9.5339084
46.694632
8.8279193
43.230777
8.1720263
40.033876
7.565426
37.073894
7.0038766
34.330332
6.4843299
31.78795
6.0021796
29.434987
5.5558496
27.25812
5.1436988
25.238805
4.7591307
23.375182
4.4023915
21.649299
4.0726261
20.048934
3.7696029
18.566312
3.4885511
17.193718
3.2292554
15.924073
2.9844101
14.752365
2.7572598
13.667551
2.5486364
12.658972
2.3558648
11.725734
2.1768859
10.862087
2.009867
10.064092
1.8554575
9.3250973
1.7123909
8.6392028
1.5787972
8.0053818
1.454494
7.418579
1.3394906
6.8744264
1.2326613
6.369068
1.1329835
5.9034017
1.0401397
5.4724758
0.95361058
5.0718382
0.87348839
4.700356
0.79895857
4.3568104
0.7293995
4.0383623
0.66388267
3.7433892
0.60197664
3.4699123
0.54417325
3.216448
0.49066385
2.980656
0.43962419
2.7631524
0.39244268
2.5608979
0.3491549
2.3727657
0.30441865
2.2019537
0.26124916
2.0451326
0.22324016
1.8957291
0.19143819
1.7606868
0.1470335
1.6570237
0.068096577
1.574174
0.027272765
1.446742
1.4410955
8.442468
51.106767
7.8319214
47.304536
7.2589886
43.803594
6.7259542
40.568148
6.2328379
37.567139
5.7732138
34.790394
5.3482288
32.213699
4.954187
29.828459
4.5908252
27.62177
4.2528436
25.577682
3.9395835
23.688865
3.6500741
21.937973
3.3830692
20.315663
3.135394
18.814647
2.9030267
17.426136
2.6876487
16.139048
2.4890986
14.950653
2.3090444
13.847734
2.1399431
12.82798
1.981611
11.884346
1.8339759
11.009916
1.6976848
10.200025
1.571765
9.4511694
1.454121
8.7569387
1.3452603
8.114386
1.2435583
7.5200657
1.1492906
6.9685444
1.0613681
6.4569174
0.97909062
5.9856156
0.90288366
5.5485897
0.83167054
5.142758
0.7652814
4.7668761
0.70308958
4.4193432
0.6446024
4.0968414
0.59011726
3.7977083
0.5390036
3.5209201
0.49092074
3.264594
0.44362411
3.0280107
0.39797716
2.8086807
0.35452307
2.6044462
0.30809073
2.4195574
0.2664813
2.2437229
0.23018695
2.0814911
0.18940549
1.9375933
0.15208505
1.7986469
0.1270078
1.6801357
0.12254084
1.57516
0.054219521
1.51539
1.4977401
6.9135148
51.647206
6.4083908
47.808915
5.9409046
44.271511
5.5123562
40.997607
5.110452
37.968953
4.7383833
35.162956
4.3957054
32.556703
4.0762012
30.147688
3.780505
27.918004
3.5069067
25.85207
3.2529084
23.942916
3.0176192
22.172504
2.8005047
20.532743
2.5998375
19.015981
2.4112866
17.614641
2.239394
16.310548
2.0792611
15.110674
1.9297985
13.997464
1.7898848
12.967929
1.6621618
12.012438
1.5442408
11.127809
1.4337221
10.310304
1.3312634
9.554033
1.2353247
8.8528726
1.1458724
8.2039019
1.0632246
7.6025022
0.98622226
7.0451989
0.91332291
6.5297732
0.84616758
6.0528035
0.78319203
5.6114884
0.72404814
5.2016336
0.66909122
4.8219813
0.61708163
4.4716375
0.56855562
4.1453201
0.5217857
3.8444184
0.47781433
3.564926
0.43613059
3.3062346
0.39743985
3.0665428
0.36106004
2.8448384
0.3262518
2.6393836
0.30113813
2.4447914
0.26601334
2.2786931
0.2293192
2.118712
0.18829564
1.979596
0.13022479
1.8566082
0.079937081
1.7281225
-0.070481238
1.7197776
-0.081044854
1.5234388
1.417769
5.6148931
52.0892
5.2265165
48.198634
4.8513152
44.646743
4.5050879
41.344328
4.1812838
38.292535
3.8865642
35.458121
3.6117674
32.831586
3.3543083
30.404817
3.1171151
28.155787
2.8960883
26.073674
2.6922204
24.146465
2.504389
22.359779
2.3292679
20.707812
2.165433
19.180243
2.0204107
17.759297
1.8808271
16.44961
1.7471962
15.244462
1.6273222
14.117419
1.5165877
13.078611
1.41382
12.115549
1.3179562
11.223626
1.2280817
10.40006
1.1453844
9.6371644
1.0685086
8.9296752
0.99642583
8.2759806
0.92905353
7.6696354
0.8661174
7.1078362
0.80751257
6.5882574
0.7522636
6.1081644
0.70039257
5.6632853
0.65162315
5.2501735
0.60563315
4.8681638
0.56279098
4.5145626
0.52129625
4.186749
0.48264752
3.8831969
0.44462218
3.6031078
0.40691126
3.3437026
0.36951077
3.1036747
0.33414406
2.8803953
0.29659474
2.6773365
0.24845457
2.4934938
0.21257628
2.3147996
0.17600479
2.1552869
0.14520452
2.0107615
0.13487962
1.8655288
0.13580904
1.7248118
0.22727908
1.6313755
0.18518028
1.5659469
1.5961458
0.051021744
1.5369382
0.0512624
1.5674299
-0.0084073667
1.6946424
-0.024269627
1.7402738
-0.059670475
1.9010311
-0.063492424
2.0149845
-0.061364433
2.1531604
-0.075287705
2.3285929
-0.079035739
2.4969586
-0.087051595
2.6856719
-0.097207284
2.8907172
-0.10331057
3.1093748
-0.10821341
3.3480693
-0.11301176
3.6078527
-0.11820396
3.8885539
-0.12289937
4.1914007
-0.126209
4.5178839
-0.12915202
4.8712045
-0.13197575
5.2527878
-0.13454063
5.6657589
-0.13716485
6.1109734
-0.13948873
6.5904901
-0.1407493
7.1089138
-0.14146216
7.670073
-0.14241972
8.2769532
-0.14287841
8.9300668
-0.14118858
9.6357369
-0.1404143
10.399294
-0.13992724
11.22318
-0.13822704
12.114137
-0.13614355
13.076493
-0.13241733
14.11368
-0.1250159
15.237012
-0.1227531
16.446993
-0.12431797
17.760697
-0.121229
19.177115
-0.11597746
20.702788
-0.11038166
22.353608
-0.10484425
24.140439
-0.098152124
26.067265
-0.09018712
28.148742
-0.081270695
30.395695
-0.07336974
32.823575
-0.060847197
35.44625
-0.048700828
38.280353
-0.038386874
41.334279
-0.026974212
44.636275
-0.013940034
48.193139
52.079749
0.042141581
1.4940193
0.037348718
1.5742223
-0.022026776
1.7502489
-0.048614005
1.7666143
-0.036930753
1.8905199
-0.051111255
2.0297032
-0.080006529
2.1827366
-0.08360822
2.3318022
-0.087848176
2.5009183
-0.095028072
2.6929409
-0.098054216
2.8939124
-0.10572117
3.1167866
-0.11274987
3.3544885
-0.11856615
3.6134666
-0.12285183
3.8930404
-0.12650187
4.1952195
-0.13095611
4.5224006
-0.13500605
4.8753028
-0.13864705
5.2563365
-0.14160771
5.6685078
-0.14383816
6.1134089
-0.14559997
6.5922617
-0.14718887
7.1104388
-0.14856364
7.6711942
-0.1480815
8.2765259
-0.14845211
8.9303757
-0.14855132
9.6359976
-0.14676589
10.397598
-0.14525513
11.221671
-0.1428978
12.112091
-0.1401469
13.073906
-0.13921821
14.112845
-0.13545553
15.233398
-0.13472431
16.446147
-0.12997093
17.755755
-0.12463787
19.171414
-0.12160185
20.69998
-0.11848977
22.350205
-0.10933796
24.130858
-0.10126051
26.059279
-0.093295387
28.141665
-0.084235416
30.387147
-0.075662612
32.815039
-0.064917169
35.436066
-0.052566322
38.268271
-0.040223419
41.32222
-0.029014419
44.625743
-0.020949785
48.185809
52.062498
0.013291531
1.4867991
-0.0047380544
1.592192
0.028995657
1.7139482
0.022808522
1.7706961
-0.031578649
1.9482081
-0.023729889
2.0225899
-0.020933034
2.1799158
-0.037843005
2.3487056
-0.060721897
2.5237555
-0.072184331
2.7046717
-0.083135744
2.9056713
-0.090058779
3.1238865
-0.097669312
3.3617141
-0.10364626
3.6191232
-0.10993354
3.8994031
-0.11627572
4.2019105
-0.12055822
4.5268174
-0.12448199
4.8792034
-0.12778458
5.2596113
-0.13106016
5.6714774
-0.13347718
6.1159049
-0.13553318
6.5944956
-0.13672058
7.111662
-0.13785008
7.6721373
-0.13847632
8.2771958
-0.13763036
8.929512
-0.13816985
9.6366083
-0.13874012
10.398251
-0.13768465
11.220383
-0.13626849
12.110985
-0.1342743
13.072026
-0.13125349
14.109986
-0.12874716
15.231203
-0.12758405
16.444857
-0.12333609
17.751496
-0.11788172
19.165775
-0.11137565
20.693597
-0.1071884
22.345699
-0.10389859
24.127073
-0.096553885
26.052093
-0.087652046
28.133629
-0.078965827
30.379067
-0.070562319
32.806472
-0.061430072
35.427276
-0.050816262
38.257867
-0.039732066
41.311554
-0.028867087
44.615384
-0.01425359
48.170933
52.050239
0.0089809514
1.4757809
0.0068579986
1.5982013
0.0088218918
1.71552
0.0051296584
1.7735651
0.0011125568
1.9505431
-0.027654117
2.0522718
-0.064585058
2.2168248
-0.065457658
2.3487638
-0.060343253
2.5175081
-0.06950136
2.7135761
-0.080536616
2.9169605
-0.08708512
3.1308028
-0.095134124
3.3695037
-0.10188977
3.625471
-0.10538568
3.9027388
-0.10879404
4.2055363
-0.11334009
4.5316135
-0.11726894
4.8830682
-0.12042967
5.2628161
-0.12349165
5.6742812
-0.12648572
6.1187713
-0.12890464
6.5971947
-0.1311266
7.1140467
-0.13258321
7.6734807
-0.1332926
8.277823
-0.13508448
8.9312547
-0.13411536
9.6355427
-0.13358425
10.397721
-0.13480163
11.221111
-0.13099354
12.107429
-0.12847301
13.069584
-0.12689694
14.108564
-0.12411632
15.228697
-0.1204055
16.440961
-0.11759391
17.748706
-0.11381323
19.161822
-0.11138641
20.691025
-0.106006
22.33999
-0.098638767
24.119132
-0.09338325
26.046871
-0.083801147
28.124796
-0.074738431
30.370685
-0.066628496
32.79829
-0.057438278
35.418315
-0.04710485
38.247493
-0.03772977
41.302473
-0.028601135
44.606418
-0.012336178
48.155462
52.038858
0.0049025708
1.4705945
-0.0031085373
1.60789
-0.0082357648
1.7198277
-0.025800147
1.7924638
-0.026815706
1.9525517
-0.020701084
2.0459513
-0.034894395
2.2302887
-0.04410643
2.3570417
-0.064358497
2.5372746
-0.071464549
2.7200538
-0.066063622
2.911489
-0.074064684
3.1391993
-0.077252441
3.3728655
-0.084744727
3.6327782
-0.094203317
3.9119151
-0.099036788
4.2105926
-0.10346259
4.5364817
-0.1082579
4.8879047
-0.11330013
5.2679141
-0.11700448
5.6777945
-0.11964158
6.1210723
-0.12219907
6.5998612
-0.12400829
7.1160766
-0.12551942
7.6749399
-0.12644327
8.278524
-0.12592495
8.9304847
-0.12574758
9.6353157
-0.12353345
10.395608
-0.12256905
11.219808
-0.12265158
12.10785
-0.1205182
13.067882
-0.11870232
14.106732
-0.11549289
15.2256
-0.111593
16.437104
-0.10938279
17.746607
-0.10584661
19.158077
-0.10082042
20.686148
-0.098434694
22.337646
-0.097269406
24.117425
-0.089493901
26.039017
-0.08170227
28.117689
-0.072647983
30.362502
-0.063557299
32.789454
-0.054607465
35.409492
-0.045483675
38.238207
-0.034088137
41.291075
-0.025039602
44.59749
-0.016798612
48.1482
52.027754
0.013211754
-0.004759467
0.0031420943
-0.013561082
-0.02268429
1.9631118
-0.024047204
2.0481148
-0.010261363
2.2152042
-0.016343033
2.3623576
-0.023197214
2.5433288
-0.034579077
2.7310406
-0.058070057
2.9352107
-0.066559334
3.147978
-0.078071959
3.3850365
-0.081766802
3.6366198
-0.085110121
3.9147697
-0.092765028
4.2182586
-0.099517665
4.543616
-0.10501816
4.8934599
-0.10779188
5.2706288
-0.11086142
5.6806672
-0.11393319
6.1237289
-0.11600985
6.6018502
-0.11728065
7.117621
-0.11717462
7.6749281
-0.11701925
8.2782422
-0.11770594
8.9309678
-0.11804719
9.635809
-0.11886075
10.39658
-0.11832419
11.219064
-0.11765069
12.107291
-0.11637373
13.067058
-0.11140906
14.101744
-0.10923223
15.223433
-0.10779865
16.435816
-0.10342909
17.742312
-0.10036852
19.154788
-0.096821893
20.682536
-0.091223797
22.332224
-0.088029847
24.113878
-0.084307422
26.03526
-0.078208047
28.111935
-0.070677485
30.355987
-0.061784308
32.781165
-0.052839221
35.4005
-0.045093921
38.230325
-0.035017766
41.280888
-0.023124968
44.585639
-0.013919347
48.139357
52.02007
-0.020623249
-0.034974957
-0.051536874
-0.051326709
-0.04905569
-0.054327831
-0.052728817
-0.061468812
-0.067117167
3.3908109
-0.07666058
3.6466349
-0.084966069
3.9226049
-0.088573293
4.22119
-0.088519016
4.5438048
-0.090842791
4.8959333
-0.095825331
5.275665
-0.099540046
5.68426
-0.10216305
6.1260225
-0.1052121
6.6047783
-0.10894347
7.1215964
-0.11148021
7.6777138
-0.11350202
8.280325
-0.11631195
8.9336506
-0.11832755
9.6378874
-0.11875272
10.396732
-0.11710553
11.216957
-0.11396856
12.104072
-0.11025292
13.063503
-0.10843453
14.100218
-0.10537585
15.220371
-0.10191025
16.432147
-0.098840703
17.739181
-0.096563261
19.152627
-0.09295358
20.6788
-0.088464731
22.327721
-0.082760455
24.108015
-0.078179335
26.030284
-0.072984575
28.106817
-0.066768826
30.350676
-0.058971851
32.774075
-0.050057972
35.391516
-0.04208897
38.222221
-0.03349686
41.272036
-0.022653733
44.57479
-0.014109344
48.130908
52.012045
-0.055352223
-0.063688196
-0.068564012
-0.072675126
-0.083917766
-0.089354897
-0.09191726
-0.095387802
-0.10053139
-0.10360218
-0.10423044
7.1221709
-0.10636992
7.6799744
-0.10647074
8.2805064
-0.10228698
8.9293548
-0.099430084
9.6348715
-0.10051079
10.397472
-0.10314912
11.219042
-0.10228975
12.103163
-0.10077577
13.062304
-0.10047817
14.100482
-0.098797765
15.219062
-0.094817662
16.427986
-0.091759199
17.735773
-0.089469626
19.15057
-0.086309245
20.675529
-0.083185777
22.324524
-0.077895176
24.102755
-0.072381604
26.024445
-0.067221687
28.10163
-0.062122357
30.346256
-0.054679355
32.767297
-0.046438162
35.383195
-0.039231272
38.214863
-0.031280775
41.263963
-0.022524233
44.565858
-0.014866631
48.122797
52.003025
-0.093283456
-0.093277876
-0.094481429
-0.09697484
-0.095671124
-0.092743341
-0.091021013
-0.092367414
-0.091867293
-0.089804693
-0.089297768
-0.088066371
-0.085801323
17.733196
-0.081927292
19.146747
-0.078827154
20.672524
-0.075692771
22.321448
-0.071270182
24.0984
-0.065877965
26.018813
-0.060990605
28.096641
-0.056176762
30.342056
-0.04974735
32.761446
-0.042877395
35.376472
-0.036186978
38.207987
-0.028824944
41.256328
-0.02092974
44.557753
-0.014208046
48.115676
51.994622
-0.078803261
-0.075374964
-0.071539342
-0.067096199
-0.063721226
-0.06041382
-0.055916655
-0.049595251
-0.044270769
-0.038649817
-0.03194887
-0.024870853
-0.018985993
-0.01321378
)
;

boundaryField
{
    Side
    {
        type            empty;
    }
    Inlet
    {
        type            calculated;
        value           nonuniform List<scalar> 
29
(
-68.576487
-66.852665
-64.093423
-60.455733
-56.134637
-51.343604
-46.29538
-41.186934
-36.184897
-31.425371
-26.999276
-22.975278
-19.377216
-16.212406
-13.46448
-11.123044
-9.1181023
-7.4554293
-6.056012
-0.0015783679
-0.0083196556
-0.0021277273
-0.00028506109
-0.0056695776
-0.0058591887
-0.0058080239
-0.005768938
-0.005785841
-0.0056585976
)
;
    }
    Airfoil
    {
        type            calculated;
        value           uniform 0;
    }
    Outlet
    {
        type            calculated;
        value           nonuniform List<scalar> 0();
    }
    procBoundary0to1
    {
        type            processor;
        value           nonuniform List<scalar> 
53
(
1.4568556
1.6285141
1.7103927
1.808526
0.0071199718
1.9762021
2.0624227
2.2325952
2.3624012
2.5410981
2.7355662
2.9325143
3.1566333
0.054909081
3.3912544
3.6550672
3.9271999
4.2245676
4.555133
4.9019044
5.278514
5.6876748
6.13079
6.6075585
0.091193646
7.1240672
7.6800005
8.2819152
8.9321931
9.6338633
10.394619
11.216886
12.104394
13.06204
14.098575
15.218903
16.426817
0.0804724
17.73146
19.143432
20.66868
22.316998