/*--------------------------------*- C++ -*----------------------------------*\
| =========                 |                                                 |
| \\      /  F ield         | OpenFOAM: The Open Source CFD Toolbox           |
|  \\    /   O peration     | Version:  2506                                  |
|   \\  /    A nd           | Website:  www.openfoam.com                      |
|    \\/     M anipulation  |                                                 |
\*---------------------------------------------------------------------------*/
FoamFile
{
    version     2.0;
    format      ascii;
    arch        "LSB;label=32;scalar=64";
    class       volScalarField;
    location    "1.85";
    object      k;
}
// * * * * * * * * * * * * * * * * * * * * * * * * * * * * * * * * * * * * * //

dimensions      [0 2 -2 0 0 0 0];

internalField   nonuniform List<scalar> 
19257
(
11.242542
10.215119
9.571672
9.1308566
8.805058
8.5529775
8.3518942
8.1880972
8.0525603
7.9389721
7.8429536
7.761029
7.6906314
7.6297059
7.5767831
7.5305604
7.4900447
7.454548
7.423316
7.395626
7.3711858
7.3497925
7.3309171
7.3141398
7.2995587
7.2877315
7.2788386
7.2719897
7.2676357
7.268232
7.2739321
7.2875587
7.3086802
7.3337964
7.3630014
7.4003809
7.442395
7.4933171
7.5521835
7.6342937
7.7149698
7.8481611
7.9980727
8.2256335
8.4581916
8.722671
8.9577938
10.440078
10.651816
11.224214
10.247059
9.6255279
9.1881128
8.8611308
8.6064689
8.4022673
8.2352781
8.0966136
7.980023
7.8811528
7.7966061
7.7237726
7.6606244
7.6055565
7.5573911
7.5150711
7.4778482
7.4449889
7.415848
7.3900863
7.3673837
7.3474729
7.3295803
7.3138499
7.3010125
7.2911223
7.2833558
7.2781239
7.277286
7.281848
7.2932626
7.3128116
7.3359682
7.3643026
7.3971056
7.4398105
7.4911971
7.5502043
7.6164977
7.7211993
7.8319274
7.958801
8.1737464
8.332888
8.5958689
8.898129
10.325773
10.349466
11.30139
10.349255
9.7190289
9.2735843
8.9393994
8.6780383
8.4677658
8.2952772
8.1516586
8.0306074
7.9276222
7.8393933
7.7632226
7.697053
7.6392027
7.5885511
7.543859
7.5044269
7.469577
7.4386579
7.4112894
7.3870061
7.3656361
7.3464134
7.3294973
7.3154055
7.3041754
7.2952814
7.2888576
7.2862859
7.2896214
7.2986989
7.3162275
7.3377609
7.3639711
7.3960998
7.4349897
7.4796988
7.5377807
7.6070216
7.6848715
7.7986371
7.9401658
8.1174907
8.3136913
8.5286077
8.8294948
10.163735
10.1106
11.34235
10.424659
9.8028104
9.35569
9.0167045
8.7498971
8.5342637
8.3566806
8.2083199
8.0829075
7.9758902
7.8839417
7.8043615
7.7350705
7.6743315
7.6210542
7.5738943
7.5322494
7.4954097
7.4625656
7.4333383
7.4074317
7.384477
7.3639777
7.3457764
7.3302135
7.3176383
7.3075108
7.299961
7.2959926
7.2975816
7.3046091
7.3198139
7.3402048
7.3648533
7.3955958
7.4320693
7.4760302
7.5286138
7.5968704
7.6815777
7.7807601
7.9036401
8.0753356
8.2704746
8.4681618
8.7939271
9.9412219
9.9247395
11.389014
10.506635
9.8917679
9.4426708
9.0989215
8.8265609
8.6053246
8.422355
8.2689429
8.1388473
8.0275511
7.9316088
7.8483245
7.7757018
7.7118842
7.655745
7.6059967
7.5619311
7.5227758
7.4878531
7.4566595
7.4290056
7.4044427
7.3824008
7.3628107
7.3457861
7.3315282
7.3201676
7.311594
7.3061267
7.3053594
7.3109618
7.3240951
7.3426563
7.3660376
7.3940384
7.4291027
7.4722978
7.5230061
7.584493
7.6669793
7.7643627
7.9059261
8.0634025
8.2272414
8.4190449
8.6987342
9.7933736
9.7819649
11.430497
10.58478
9.9803753
9.5313055
9.1837042
8.9061516
8.6794824
8.4911682
8.3326469
8.197776
8.082041
7.9819621
7.8948109
7.8186686
7.7515835
7.6923264
7.6398474
7.5932114
7.5516604
7.5145358
7.4812767
7.4516474
7.4253194
7.4016566
7.380587
7.3621402
7.34625
7.3333104
7.3233974
7.316678
7.3139342
7.3180941
7.3287629
7.3456159
7.367325
7.3943241
7.426843
7.4663517
7.5161418
7.5759676
7.6531044
7.7537289
7.8699463
8.0298894
8.1968906
8.3789889
8.6472085
9.6439231
9.6729685
11.46965
10.661267
10.068949
9.6211803
9.2705428
8.9883023
8.7564332
8.562843
8.3992075
8.2594837
8.1391702
8.0348225
7.943668
7.863803
7.7932996
7.730801
7.6754385
7.6261272
7.5819625
7.5425138
7.507155
7.4753681
7.4470393
7.421741
7.3991094
7.3790923
7.3617728
7.3472708
7.3358758
7.3275763
7.3229766
7.3254887
7.3340111
7.3491267
7.3694516
7.3940134
7.4246007
7.4651663
7.510798
7.567411
7.6413656
7.7360859
7.8660061
8.0115084
8.1684766
8.3451131
8.5977839
9.4957851
9.588698
11.505637
10.73445
10.155811
9.7107867
9.358184
9.0719644
8.835265
8.6366007
8.4679283
8.3233376
8.1984196
8.0896953
7.9944578
7.9107346
7.8366983
7.7709016
7.7124329
7.6603346
7.613536
7.5716193
7.5340209
7.5001624
7.4697542
7.4425628
7.4182785
7.3966925
7.3777902
7.361689
7.3486957
7.3391
7.3332195
7.3331014
7.3393862
7.35301
7.3715589
7.3948022
7.4225931
7.4601338
7.5088296
7.5619005
7.6279247
7.7249143
7.8410658
7.9873959
8.1411219
8.3131324
8.5577086
9.3934738
9.5239785
11.538285
10.803235
10.239593
9.7988549
9.4454854
9.1560341
8.9149826
8.711555
8.5380105
8.388624
8.2590991
8.1459754
8.0466634
7.9589882
7.8813438
7.8122398
7.7506093
7.6955284
7.6460702
7.601592
7.5616658
7.5256946
7.4932215
7.4640915
7.4380111
7.4148022
7.3942916
7.3765846
7.3620718
7.3508866
7.3436954
7.3404291
7.3454555
7.357606
7.3741589
7.3954024
7.4231012
7.4550794
7.5009355
7.5571683
7.6210254
7.7057026
7.8252455
7.9659282
8.1168677
8.2872309
8.5248966
9.2920021
9.4728952
11.567853
10.867662
10.319593
9.884243
9.5310346
9.2391596
8.9943373
8.7865395
8.6083703
8.454387
8.3203764
8.2029254
8.0995899
8.0080134
7.9267048
7.8542398
7.7894253
7.7313735
7.6791942
7.6321332
7.5897925
7.5515983
7.5170369
7.4859765
7.4580504
7.4331277
7.4110725
7.3918092
7.3755773
7.3628539
7.3541968
7.3485541
7.3522039
7.3622311
7.3773042
7.3962713
7.4226615
7.4560218
7.4949809
7.5487343
7.6201456
7.6967977
7.8109144
7.9473019
8.0961457
8.2627554
8.4963598
9.2227136
9.4328671
11.594188
10.926393
10.394259
9.9653269
9.6133882
9.3199355
9.0719974
8.86031
8.6778699
8.5195229
8.3811896
8.2595942
8.1522532
8.0569204
7.9720329
7.8962419
7.8282795
7.7673208
7.7123481
7.6627131
7.6180164
7.577645
7.5409979
7.5079243
7.4781498
7.451523
7.4278658
7.4070548
7.3892495
7.3749509
7.3647177
7.357162
7.3594323
7.367324
7.38015
7.3983161
7.4213597
7.4537961
7.4925368
7.5433974
7.6044359
7.69592
7.7970333
7.9303564
8.0760497
8.2410351
8.4722686
9.1619785
9.4007775
11.617668
10.979858
10.463309
10.04119
9.691178
9.3968434
9.1464875
8.9314589
8.74521
8.582822
8.4404474
8.3149465
8.2037175
8.1047684
8.0164641
7.9374597
7.8664647
7.8026067
7.7449356
7.6928432
7.6458098
7.6032855
7.5646327
7.5295736
7.4979693
7.4696625
7.4444633
7.4221736
7.4028136
7.3869642
7.3751402
7.3663915
7.366513
7.3721669
7.3835025
7.399952
7.4221802
7.4510801
7.4901509
7.5370613
7.600171
7.6759523
7.7897088
7.9180723
8.058585
8.221845
8.4519367
9.1162611
9.3758003
11.638347
11.027276
10.525317
10.110322
9.7629561
9.4684816
9.2163566
8.9985376
8.8089969
8.6430267
8.4969935
8.3678441
8.2530123
8.1506435
8.0590891
7.9770228
7.903164
7.836562
7.7763238
7.7218402
7.6725453
7.6279049
7.587326
7.5504385
7.5170862
7.4871299
7.4604097
7.4367099
7.415939
7.3986281
7.3851915
7.3761684
7.372468
7.3771464
7.3870701
7.4021264
7.4226019
7.4500933
7.4862269
7.5337158
7.5949348
7.6722534
7.7749111
7.9012412
8.0415832
8.2051085
8.4320679
9.072952
9.3562647
11.656275
11.068757
10.580319
10.172337
9.8278557
9.5336935
9.2802179
9.0601852
8.8678315
8.6987922
8.5495221
8.4170892
8.2990468
8.1935402
8.098978
8.0140561
7.9375154
7.8683648
7.8057483
7.7490109
7.6976159
7.6510183
7.6086238
7.5700153
7.5350299
7.5035274
7.475377
7.4503487
7.4282331
7.4095121
7.3945979
7.3846368
7.3784741
7.3820856
7.3904495
7.4040809
7.4231844
7.4491332
7.4842029
7.5290354
7.586673
7.6636842
7.7653774
7.8896996
8.0284859
8.1914039
8.4197009
9.0412405
9.3419682
11.671452
11.104005
10.627558
10.226047
9.8845279
9.5909806
9.3367344
9.1150224
8.9204024
8.7487708
8.5966773
8.4613888
8.3405302
8.2322664
8.1350632
8.0476179
7.9686815
7.8972402
7.832466
7.7736755
7.7203708
7.671985
7.6279361
7.587777
7.5513234
7.5184169
7.4889466
7.4627212
7.4394519
7.4195132
7.4033034
7.3923062
7.3841042
7.3865944
7.3936011
7.4056848
7.4237329
7.4484551
7.4814836
7.5261308
7.5828638
7.6570142
7.7568392
7.8786832
8.017249
8.1800778
8.407792
9.0171947
9.3324923
11.683984
11.132954
10.666582
10.270768
9.9319839
9.6392672
9.384581
9.1615434
8.9652359
8.7915135
8.6371223
8.4994751
8.3762846
8.2657185
8.16627
8.0766632
7.9956588
7.9222349
7.8556009
7.7950475
7.7400953
7.6901811
7.6447068
7.603197
7.5654729
7.5313538
7.5007258
7.4734331
7.4491591
7.4281507
7.4107879
7.3988005
7.3888182
7.3903837
7.3961294
7.4070415
7.4237508
7.4478479
7.4801538
7.5220194
7.5781113
7.6504942
7.7495004
7.8703042
8.0083632
8.1729834
8.4008684
8.9991426
9.3274923
11.693835
11.155546
10.697135
10.305969
9.9694928
9.677585
9.422633
9.1987151
9.0010495
8.8257267
8.6696189
8.5301883
8.4052055
8.2928335
8.1915841
8.1002267
8.0175408
7.9424917
7.8743286
7.8123487
7.7560645
7.7049099
7.6582607
7.6156357
7.576877
7.5417875
7.5102137
7.4820191
7.4568972
7.435018
7.4166818
7.4038404
7.3924062
7.3932456
7.3980854
7.4081091
7.4240786
7.44687
7.4783123
7.5200627
7.5741945
7.6463772
7.74339
7.865024
8.0050297
8.1704274
8.401835
8.9975797
9.3271005
11.700946
11.171676
10.718987
10.331228
9.9965457
9.7053848
9.4504239
9.2258877
9.0271929
8.8506373
8.6933212
8.5526511
8.4263753
8.312692
8.2101254
8.1174832
8.0335695
7.9573418
7.888059
7.8250204
7.7677392
7.7156704
7.6681591
7.6246989
7.5851568
7.5493524
7.5170986
7.4882518
7.4625329
7.4400667
7.4211056
7.4076556
7.3954025
7.3958508
7.4002737
7.4099083
7.4255185
7.4480894
7.4790864
7.5204204
7.5747398
7.6460175
7.7431807
7.8659638
8.0064497
8.1722558
8.4013342
9.0001663
9.3296547
11.705226
11.181275
10.73195
10.346198
10.012572
9.7218247
9.4668316
9.2420615
9.0428833
8.8657283
8.7076188
8.5660654
8.4389125
8.3243994
8.221058
8.1276823
8.0430639
7.9661543
7.8962182
7.83256
7.7746993
7.7221124
7.6741203
7.6301959
7.5902275
7.5540639
7.5215018
7.4923668
7.4664143
7.4437823
7.4247033
7.4111857
7.3990847
7.3997352
7.40419
7.4137843
7.4294095
7.4520419
7.4832304
7.5248889
7.5796155
7.6517801
7.7503015
7.8722152
8.0113573
8.1756047
8.405377
9.014512
9.3346608
11.706634
11.184323
10.735974
10.350664
10.017228
9.7265088
9.4713581
9.2463046
9.0469224
8.8696099
8.7113362
8.5695817
8.4422244
8.3275039
8.2239597
8.1303879
8.0455875
7.9685059
7.8984066
7.834597
7.7766008
7.7239054
7.6758152
7.631799
7.5917602
7.5555651
7.5230076
7.4938712
7.4679394
7.4453834
7.4264144
7.4130473
7.4014003
7.4024195
7.4070602
7.4167966
7.4326156
7.4554835
7.4870072
7.5292121
7.5846339
7.657669
7.7577542
7.8793367
8.0177625
8.1815074
8.4134777
9.035059
9.3398814
11.705278
11.181321
10.732017
10.346173
10.012534
9.721758
9.4667161
9.2418163
9.0426585
8.8655558
8.7075337
8.5660275
8.4388939
8.3243707
8.2210049
8.1275967
8.0429558
7.9660372
7.8961032
7.8324589
7.7746228
7.7220727
7.6740935
7.6301716
7.5902138
7.5540873
7.5215829
7.4924361
7.4664539
7.4438543
7.4248374
7.411349
7.399238
7.3998635
7.4043052
7.4139179
7.4295324
7.4520471
7.4830783
7.5246946
7.5793496
7.6513037
7.7499354
7.8721176
8.0114344
8.1757133
8.405542
9.0151187
9.3352878
11.701051
11.171741
10.719047
10.331194
9.996463
9.7052743
9.4502512
9.2257097
9.027105
8.8506626
8.6933665
8.5526122
8.4262533
8.3125176
8.2099403
8.1172969
8.033391
7.9571848
7.8879329
7.8249388
7.7677166
7.7157209
7.6682131
7.6247195
7.5851628
7.5494125
7.5172491
7.4883575
7.4625748
7.4401658
7.4213173
7.407932
7.3956928
7.3961079
7.400531
7.4102149
7.4258094
7.4481221
7.4789061
7.5200273
7.5741234
7.6453265
7.7423265
7.8653676
8.0063817
8.1722562
8.4005877
8.9994114
9.3306791
11.693946
11.155574
10.697147
10.305918
9.9694175
9.6775414
9.4225905
9.1986654
9.0009666
8.8256168
8.6695554
8.5300874
8.4050403
8.2926468
8.1914219
8.1000819
8.0174132
7.9423818
7.8742332
7.8122832
7.7560468
7.7049563
7.6582628
7.6155558
7.5767591
7.5417501
7.51028
7.4820081
7.4568266
7.4350447
7.4168694
7.4041234
7.3927887
7.3936348
7.3985189
7.4086845
7.4246346
7.4472976
7.4783132
7.5198846
7.5738659
7.6457758
7.7437278
7.8654864
8.0050995
8.170815
8.4016056
8.9950107
9.3282721
11.684026
11.132949
10.666579
10.270732
9.9318453
9.6391236
9.3844142
9.1614344
8.9650305
8.791268
8.6369687
8.4993375
8.3761661
8.265658
8.166268
8.0766759
7.9956522
7.9221738
7.8554883
7.7949379
7.7400284
7.6901588
7.6445884
7.6029822
7.5652528
7.5312727
7.5007352
7.4733191
7.4489899
7.4281101
7.4109352
7.399096
7.3892771
7.3908714
7.3967084
7.4077362
7.4246349
7.4480719
7.4800888
7.5220695
7.5781693
7.6500591
7.7496822
7.871501
8.0096993
8.1735604
8.4042291
9.0088442
9.3304893
11.671396
11.103938
10.627514
10.226053
9.8844647
9.590895
9.3365873
9.1148483
8.9202074
8.748572
8.5966094
8.4613536
8.3405658
8.2323976
8.1352503
8.047792
7.9687718
7.8972063
7.832341
7.77354
7.720289
7.6719378
7.6277765
7.5875223
7.5510985
7.5183693
7.4889659
7.4626215
7.4393407
7.4195572
7.4035741
7.392736
7.3847673
7.3872741
7.3943374
7.4066227
7.4245194
7.4491593
7.4817018
7.526383
7.5813727
7.657452
7.7578231
7.8797048
8.0176688
8.1805805
8.4077095
9.0200964
9.3364981
11.656144
11.068655
10.580257
10.172419
9.8280567
9.5338438
9.2802031
9.0601069
8.8677976
8.6988171
8.5496348
8.4171994
8.2992041
8.1937589
8.0992277
8.0142708
7.9376039
7.8682983
7.8055846
7.7488321
7.6974938
7.650874
7.6083459
7.5696578
7.5347666
7.5034688
7.4753583
7.4502444
7.4281508
7.4095986
7.394905
7.3850976
7.3792618
7.382862
7.3913172
7.4051573
7.4240653
7.4495359
7.4850365
7.5285786
7.5886232
7.6623721
7.7675234
7.8921468
8.0299235
8.1917009
8.418883
9.0437356
9.3465678
11.638254
11.027193
10.525257
10.110453
9.7631844
9.4688596
9.2165017
8.9986164
8.809076
8.6432111
8.4972029
8.3680062
8.2531899
8.1508107
8.0592326
7.9771114
7.903122
7.8363659
7.7760464
7.7215688
7.6723587
7.6276798
7.5869846
7.5500433
7.5168423
7.4870865
7.4603825
7.4366138
7.4158631
7.3987098
7.3854847
7.3766693
7.3733761
7.3779877
7.3880456
7.4031444
7.4237218
7.4513114
7.4869569
7.5329914
7.5912561
7.673098
7.778532
7.9053544
8.0441096
8.2061169
8.4353265
9.077427
9.3615152
11.617722
10.979818
10.463141
10.041176
9.6912543
9.3971692
9.1467156
8.9315987
8.7453657
8.5830835
8.4406388
8.3150275
8.203728
8.1047435
8.0164207
7.9373786
7.8662866
7.8022786
7.7445535
7.692553
7.6455903
7.6029532
7.5641834
7.5291027
7.4976815
7.4695391
7.4443739
7.422083
7.4027983
7.3871084
7.375521
7.3671547
7.3674195
7.3731384
7.3844544
7.4012577
7.4233588
7.4519081
7.4886137
7.5366977
7.5992134
7.6815571
7.7879392
7.9178487
8.0598608
8.2218879
8.450267
9.1144853
9.3809054
11.594244
10.926331
10.394183
9.9653336
9.6134316
9.3201674
9.0722726
8.8605009
8.6780643
8.5197305
8.3812935
8.2595848
8.1520822
8.0567376
7.9718549
7.8960603
7.8280161
7.7668781
7.711874
7.6624381
7.6177841
7.5773199
7.5405886
7.5074769
7.4779032
7.4514317
7.4278327
7.407006
7.389229
7.3750373
7.365114
7.3580273
7.3603877
7.3683122
7.3813453
7.3996882
7.422723
7.453321
7.4923578
7.5429082
7.6088983
7.6874743
7.8038477
7.9353282
8.0776172
8.2420508
8.4755331
9.1706652
9.4068205
11.567801
10.867359
10.319423
9.884182
9.5310771
9.2393569
8.9946348
8.7867741
8.6086039
8.4545251
8.3203813
8.2028352
8.0993173
8.0077575
7.9264588
7.8540101
7.7891223
7.7309211
7.6787343
7.6318914
7.5895987
7.5513356
7.5166734
7.4855522
7.4578099
7.4330237
7.411047
7.3917767
7.3755436
7.3629135
7.3546585
7.3496384
7.3533519
7.3633418
7.3785625
7.3981065
7.4226518
7.455239
7.4962405
7.5487088
7.6113467
7.7024997
7.8180906
7.9535431
8.0976387
8.2623288
8.4945686
9.2218197
9.4389008
11.538334
10.803118
10.2396
9.7989025
9.4456005
9.1562675
8.9153032
8.7118402
8.5382645
8.388741
8.2590552
8.1458601
8.0464151
7.958719
7.8810855
7.8120188
7.7503531
7.6950861
7.645685
7.6013992
7.5614769
7.5254202
7.4928568
7.4637339
7.4378019
7.4147174
7.3943928
7.3767134
7.3621206
7.351067
7.3443163
7.3417471
7.346542
7.3586082
7.3759436
7.3963026
7.4237326
7.4577243
7.5015573
7.5537717
7.6232308
7.7150734
7.8264456
7.9687461
8.118032
8.2879253
8.5310624
9.303888
9.4802286
11.505705
10.73428
10.155768
9.7107981
9.3583648
9.0722793
8.8356206
8.6369537
8.4681643
8.3234259
8.1983427
8.0895778
7.9942554
7.9104401
7.8364762
7.7707427
7.7122067
7.6598858
7.6132754
7.5714635
7.5338673
7.4999794
7.4694736
7.442288
7.4181586
7.3968042
7.3780216
7.3618139
7.3487643
7.3393652
7.3339993
7.3343368
7.3403186
7.3542635
7.3729138
7.3957145
7.4252903
7.4607105
7.505445
7.5596717
7.6351081
7.7237899
7.8488826
7.9899193
8.1411955
8.3117633
8.5547834
9.3934614
9.5312415
11.469803
10.661293
10.069092
9.6212489
9.2707381
8.9886457
8.7567871
8.5632024
8.3993895
8.2595514
8.1391305
8.0346885
7.943458
7.8634996
7.7930762
7.7306459
7.6751661
7.6257994
7.581844
7.5424208
7.5071173
7.4753393
7.4467929
7.4214765
7.3989956
7.3792287
7.3620851
7.3474026
7.3359162
7.3281344
7.3243171
7.3267359
7.3350657
7.3504501
7.3703001
7.3956226
7.4250087
7.462847
7.5100308
7.5708036
7.6441891
7.7414007
7.8613906
8.0078118
8.1659523
8.3535332
8.6092544
9.4799732
9.5965637
11.430726
10.584855
9.9806616
9.531516
9.1839391
8.9064803
8.6798262
8.4915016
8.3328034
8.197821
8.0820307
7.9818468
7.8946301
7.8184218
7.7513857
7.6921442
7.6395972
7.59312
7.5516038
7.5144652
7.481368
7.4516539
7.4250003
7.4014016
7.3805773
7.3624761
7.3467109
7.3334433
7.3234581
7.3173219
7.3154451
7.3194695
7.3302093
7.3467907
7.3686142
7.3949577
7.4276488
7.4693624
7.5160585
7.5760875
7.6536406
7.7527151
7.8781995
8.0316514
8.19505
8.3668619
8.6407906
9.6415014
9.680074
11.389409
10.506587
9.8920922
9.4430094
9.0992015
8.8268286
8.6055799
8.4225863
8.2689909
8.1388232
8.0275191
7.9314452
7.8481234
7.7755546
7.7117377
7.6555344
7.6057898
7.5619588
7.5227725
7.4878706
7.4567706
7.4289891
7.4042663
7.3822149
7.3629227
7.3463364
7.3319957
7.3200261
7.3116723
7.3071059
7.306959
7.3122877
7.3255747
7.343998
7.3671859
7.3957531
7.4302751
7.4704309
7.5226519
7.5877734
7.6741982
7.7693688
7.9005432
8.0570036
8.2295114
8.427063
8.7305372
9.7213468
9.7892313
11.342804
10.424676
9.8031795
9.3560913
9.0170411
8.7501844
8.5345448
8.3569099
8.2083678
8.0828704
7.9758668
7.8837262
7.8041339
7.7349462
7.6742135
7.6209161
7.5738277
7.5324035
7.4954209
7.4626476
7.4334582
7.4074083
7.384413
7.3639826
7.3461687
7.3309045
7.3177817
7.3072414
7.3003199
7.2971381
7.2988656
7.3057645
7.3213334
7.3413076
7.3659417
7.3963683
7.4319104
7.476801
7.5303291
7.5958596
7.6794033
7.7858194
7.9266518
8.0917146
8.2727402
8.4356427
8.767741
9.979528
9.9339874
11.301642
10.349235
9.7193585
9.2740162
8.9397534
8.6783029
8.4680688
8.2955229
8.1517311
8.0306221
7.9276329
7.8392042
7.7630802
7.6969444
7.639098
7.5884726
7.5439008
7.5046686
7.4697225
7.4389331
7.411499
7.3871068
7.3655417
7.3465485
7.3302188
7.3161918
7.3041566
7.295064
7.2896791
7.2874565
7.2905239
7.3000692
7.3176367
7.3392096
7.36581
7.3967549
7.4356154
7.4828186
7.5359761
7.6101127
7.6930095
7.8056703
7.9430714
8.1114191
8.3200922
8.493288
8.8403036
10.188271
10.120706
11.224577
10.247051
9.6258296
9.1885434
8.8614886
8.6067202
8.402595
8.2355481
8.0967364
7.9801187
7.8811602
7.7964338
7.7236882
7.6605408
7.6054724
7.5573916
7.5151813
7.478098
7.445078
7.4161771
7.3903962
7.3676545
7.3475435
7.3297962
7.3147522
7.3019021
7.2909371
7.2832005
7.2794549
7.2785276
7.2828221
7.2944126
7.3141818
7.3378511
7.3652994
7.4000486
7.4412657
7.4870516
7.5545793
7.6203794
7.7121513
7.8345577
7.9885504
8.1716374
8.3648495
8.6496955
8.9813952
10.245193
10.361334
11.242891
10.215138
9.5719326
9.1312595
8.8053805
8.5532074
8.3521885
8.1883419
8.0526986
7.9390687
7.8429143
7.7608407
7.6905354
7.6296598
7.576701
7.530575
7.4901833
7.4547663
7.4233422
7.3958659
7.3714004
7.3500335
7.3311303
7.3145347
7.3004807
7.2885913
7.2787164
7.2721459
7.2692658
7.2700497
7.275014
7.2875481
7.3096947
7.3354256
7.3641402
7.3998032
7.4423237
7.4953501
7.5562589
7.6321969
7.7350485
7.8616798
7.9993741
8.2169502
8.4463241
8.6851175
9.2573646
10.34413
10.658629
34.630992
20.225901
11.075859
9.5635433
9.4665238
9.403056
9.2970627
9.108464
8.9000531
8.6536978
8.4279485
8.2082819
8.0199058
7.8457694
7.70105
7.5591516
7.4211674
7.2945214
7.1727997
7.0676716
6.9787181
6.9088308
6.8603581
6.8262788
6.8005597
6.7802974
6.7649548
6.7539004
6.7447852
6.7381242
6.7334555
6.7292037
6.7262475
6.7255894
6.7266123
6.7298744
6.7355532
6.7446649
6.7581077
6.7769913
6.8028469
6.8375332
6.8841802
6.9468369
7.0316115
7.1489028
7.3180097
7.5794294
8.0873062
34.364208
17.053922
10.545674
9.4132156
9.4831918
9.3518358
9.2257574
9.0224733
8.8277684
8.5903108
8.3804759
8.1623064
7.9763242
7.8050335
7.6742023
7.5421478
7.4042303
7.2781712
7.1641157
7.0652694
6.9827644
6.9176087
6.8718305
6.8394638
6.8149226
6.7957134
6.7811956
6.7705666
6.7618706
6.7553928
6.7508327
6.7466622
6.7439519
6.7433173
6.744462
6.7478885
6.7537162
6.7629878
6.7766053
6.7956974
6.8218082
6.8568157
6.9038444
6.966973
7.052358
7.1704283
7.340626
7.6037443
8.1175123
34.459953
15.626323
10.223941
9.4550912
9.4795409
9.343061
9.1951162
8.9595304
8.7859722
8.5600845
8.3595691
8.1434715
7.9642918
7.7908061
7.663354
7.5254235
7.4035321
7.276523
7.1634797
7.0694918
6.9923072
6.9295949
6.8857607
6.8534487
6.8291379
6.8107796
6.7967834
6.7866507
6.7782901
6.7719247
6.7673937
6.76341
6.7609739
6.760392
6.7616765
6.7652703
6.7712995
6.7807595
6.7945832
6.8139197
6.8403172
6.8756968
6.9231561
6.9868055
7.072867
7.1917826
7.3631198
7.6278875
8.1409075
33.659676
15.767264
10.321099
9.4331337
9.5485271
9.3226893
9.1618336
8.8896675
8.7285251
8.5198283
8.3237608
8.101311
7.9440346
7.7702012
7.6413266
7.5203154
7.3987963
7.2748417
7.1644331
7.0731128
7.0005701
6.9410929
6.8984202
6.8661914
6.8428487
6.8253039
6.8117048
6.8020354
6.7941537
6.7879401
6.7834226
6.7796877
6.7775659
6.7771256
6.7785844
6.7823752
6.7886816
6.7983925
6.8124907
6.8321426
6.8589007
6.8947358
6.9427215
7.0069991
7.0938704
7.2137893
7.3864594
7.6531637
8.1682117
33.012247
14.986748
10.170638
9.475343
9.5431269
9.324138
9.156864
8.8485237
8.6909512
8.4901093
8.3018721
8.0706828
7.9206175
7.7695564
7.6355912
7.5010766
7.3926075
7.2750175
7.1663314
7.0764119
7.0057675
6.9505977
6.9109046
6.8789898
6.8566421
6.8395029
6.8263447
6.8171702
6.8096853
6.8035999
6.7991229
6.7956604
6.7938524
6.7936215
6.7952813
6.7992969
6.8059326
6.8159539
6.8303855
6.8504117
6.8775927
6.9139505
6.9625452
7.0275411
7.1153308
7.2363784
7.4105335
7.6793606
8.1958901
32.558992
15.238391
10.280855
9.4825067
9.5600478
9.3184832
9.1380958
8.8182202
8.6435473
8.4481405
8.2788469
8.0498513
7.8866391
7.7339489
7.6227108
7.4988363
7.3852922
7.2754012
7.1696986
7.0814606
7.0122035
6.9604609
6.9224217
6.8917829
6.8702691
6.8534582
6.8409867
6.8320707
6.8249245
6.818977
6.8146078
6.8114707
6.8099419
6.8099728
6.8118658
6.8161324
6.8231334
6.8335309
6.8483565
6.8688186
6.8964863
6.9334374
6.982725
7.0485302
7.1373519
7.2596587
7.4354631
7.7066271
8.2251674
31.824094
14.647391
10.275723
9.5402056
9.5382823
9.2725945
9.1113601
8.7931404
8.6082801
8.410218
8.2616134
8.0450023
7.8718648
7.7140583
7.6089238
7.4906
7.3799982
7.2739831
7.1734448
7.0886546
7.0194346
6.9703415
6.9335082
6.9043306
6.883624
6.8673909
6.8556521
6.8469067
6.8399738
6.834172
6.8299477
6.8272111
6.8259394
6.8262537
6.8284132
6.8329652
6.8403496
6.8511902
6.8664686
6.8874293
6.9156487
6.9532671
7.0033272
7.0700312
7.1599884
7.2836945
7.4613139
7.7350271
8.2558098
31.383525
14.81659
10.41664
9.5943768
9.5768737
9.2194072
9.0854884
8.7624471
8.5787399
8.3688202
8.2180647
8.0321194
7.8597163
7.6968417
7.5913488
7.4831456
7.3765874
7.2717207
7.1773135
7.0956482
7.027344
6.9797991
6.944493
6.9169357
6.8967541
6.8812591
6.8701575
6.8615765
6.8547879
6.8491944
6.845179
6.8429244
6.8418964
6.8425177
6.8449815
6.8498614
6.8576436
6.8689836
6.8847737
6.9062986
6.9351379
6.9734972
7.0244096
7.0921046
7.1833059
7.3085533
7.4881593
7.764643
8.2880151
30.43882
13.715307
10.401088
9.6416058
9.5938678
9.1720274
9.0522729
8.7129832
8.5566148
8.3365415
8.1765743
7.9997143
7.8533028
7.6956257
7.5838263
7.4698812
7.3714636
7.2703664
7.1807669
7.1013076
7.0355514
6.9893645
6.9559754
6.9289583
6.909216
6.8947108
6.8841185
6.8759008
6.8693051
6.8640438
6.8603106
6.8585525
6.8577723
6.8587442
6.8615562
6.8668184
6.8750219
6.886902
6.9032687
6.9254273
6.9549616
6.9941357
7.0459902
7.114778
7.2073402
7.3342738
7.516051
7.795543
8.3218679
30.121667
13.725968
10.43671
9.6561918
9.5850834
9.1586083
9.0081376
8.6793031
8.5295107
8.3164691
8.1545684
7.9609963
7.8299525
7.6902159
7.583538
7.4657403
7.3671161
7.2708461
7.1843983
7.1070117
7.043936
6.9991577
6.9674374
6.9404758
6.9213472
6.9076843
6.8976452
6.8899878
6.8836159
6.8788019
6.8753943
6.8741047
6.8735678
6.8749691
6.8781801
6.883876
6.8925422
6.9049871
6.9219981
6.9448601
6.9751661
7.0152309
7.0681218
7.1381045
7.2321443
7.3609088
7.5450464
7.8277879
8.3572785
29.276638
12.942746
10.321298
9.6644418
9.5155583
9.1535474
8.9702086
8.6642541
8.4919906
8.3048838
8.1477884
7.9466612
7.8153998
7.6779758
7.5815971
7.4647641
7.365211
7.2710598
7.1868254
7.1132069
7.0514611
7.0094238
6.9785905
6.9516813
6.9335231
6.9204321
6.910971
6.9038907
6.8978084
6.8936144
6.8905217
6.8896444
6.8893681
6.8912854
6.894946
6.9011247
6.910306
6.9233352
6.941057
6.9646919
6.9958502
7.0368797
7.0908979
7.1621859
7.2578187
7.3885656
7.57526
7.8615137
8.3946428
28.795929
12.77836
10.361162
9.6629423
9.4905177
9.1535558
8.9434895
8.6579909
8.4543484
8.2783292
8.1306099
7.9474526
7.8075507
7.6571371
7.5636833
7.4620862
7.3659393
7.2708877
7.1881973
7.1203141
7.0590074
7.0196777
6.989019
6.9628773
6.9459459
6.9332588
6.9242943
6.9178114
6.9119521
6.908469
6.905716
6.9051842
6.9052186
6.9077118
6.9118727
6.9185856
6.9283379
6.941986
6.9604791
6.9849565
7.0170486
7.0591236
7.1143633
7.1870745
7.2844156
7.4173027
7.6067543
7.8967957
8.43392
28.212548
11.958861
10.270822
9.6642068
9.4694942
9.1164901
8.9108836
8.6455788
8.4387074
8.2543702
8.0896754
7.9474323
7.7965522
7.6481112
7.547115
7.4465828
7.3647888
7.2734016
7.190092
7.1260334
7.0663301
7.0290554
6.9988408
6.9742978
6.9585671
6.946314
6.9376692
6.9317435
6.9260034
6.9231364
6.9208868
6.9206895
6.9211102
6.9241903
6.9289213
6.9362279
6.9466045
6.9609285
6.98025
7.0056431
7.038756
7.081971
7.1385297
7.2127931
7.3119742
7.4471664
7.6395945
7.933723
8.4752745
27.372813
11.813306
10.213514
9.5967569
9.4516229
9.1020793
8.8764338
8.6280705
8.4295537
8.2463671
8.059405
7.9226392
7.7632308
7.6320166
7.5351581
7.4354313
7.3532342
7.2745542
7.1950957
7.1295288
7.072765
7.0370357
7.0084704
6.9856166
6.97109
6.9594326
6.9509051
6.9456413
6.9401515
6.9375104
6.9359876
6.9362166
6.9371223
6.9407203
6.9461123
6.9540885
6.9651373
6.9802109
7.0004097
7.0267952
7.0610166
7.105467
7.1634499
7.2393988
7.3405626
7.4782251
7.6738549
7.9723803
8.5186698
26.189682
11.311729
10.193797
9.5714086
9.4580443
9.1053131
8.8426108
8.6066157
8.3765961
8.2316404
8.0396643
7.9067094
7.738005
7.6215736
7.5199951
7.431157
7.3452726
7.2707376
7.2013504
7.1337215
7.0802407
7.0439343
7.0184379
6.9965577
6.9833263
6.9725915
6.9642008
6.9594177
6.9544905
6.9518449
6.9510387
6.9518076
6.9533796
6.957378
6.9635198
6.9722511
6.9840357
6.9999334
7.021056
7.0485075
7.0839245
7.1297106
7.1892271
7.2669963
7.370293
7.5105983
7.7096615
8.0129202
8.5644872
25.716234
11.358781
10.20345
9.56851
9.4183257
9.116969
8.8162104
8.6058471
8.3218137
8.1962307
8.0015073
7.8897162
7.7253536
7.6188953
7.5095641
7.4257616
7.34444
7.2686042
7.2053617
7.1386683
7.0908151
7.0513593
7.0287247
7.0072229
6.9952803
6.9855064
6.9776095
6.9729374
6.9688432
6.9664337
6.9661076
6.9674034
6.9698277
6.9742614
6.9811547
6.9907022
7.003318
7.0201211
7.0422179
7.0708042
7.1075072
7.1547321
7.2159
7.295629
7.401219
7.5443536
7.7470896
8.0554326
8.6127294
24.586046
11.022099
10.116982
9.5778623
9.4002148
9.1190474
8.7922167
8.6081567
8.3015346
8.1727777
7.9618055
7.8698581
7.7068868
7.6183367
7.5081496
7.4193745
7.3454183
7.271696
7.2093257
7.1430462
7.1013294
7.0609627
7.0396434
7.0180292
7.0074676
6.9981063
6.9911251
6.9863391
6.9830674
6.9811732
6.981426
6.9830227
6.9863674
6.9914395
6.9990335
7.0094275
7.022974
7.0407769
7.0639094
7.0936984
7.1317809
7.1805576
7.2435033
7.3253395
7.4333979
7.5795644
7.7862285
8.1000261
8.6635504
23.712556
10.716187
10.193121
9.5963798
9.4250354
9.1180151
8.7695794
8.582368
8.285197
8.1514623
7.9418014
7.8566806
7.6994038
7.5928121
7.5097849
7.4164234
7.3415922
7.2741953
7.2129025
7.1495277
7.1084104
7.0710151
7.0511887
7.0294398
7.0204819
7.0107272
7.0046255
6.9998342
6.9972557
6.9959218
6.9969878
6.998927
7.0030342
7.0089149
7.0172498
7.0284969
7.0430436
7.0619443
7.0861868
7.1172463
7.156813
7.2072547
7.2721092
7.3562054
7.4669194
7.6163335
7.8271921
8.1468281
8.7171196
22.983701
10.647344
10.206778
9.5934259
9.4281321
9.1052913
8.7597371
8.5619489
8.2741914
8.1079479
7.929516
7.833456
7.698241
7.5801502
7.5017465
7.4139027
7.3369487
7.2719204
7.2131637
7.1566994
7.1140934
7.0795994
7.0620198
7.0412043
7.034279
7.0235659
7.0181656
7.0135042
7.0116704
7.010719
7.0126703
7.0152606
7.0199833
7.0267227
7.0358761
7.0479966
7.0635961
7.083671
7.1091161
7.1415333
7.1826933
7.234911
7.3018079
7.3883234
7.5018882
7.654783
7.8701205
8.1960013
8.7737296
22.414875
10.691714
10.188894
9.6363393
9.3610319
9.0839294
8.7303168
8.5577614
8.2751727
8.0960751
7.9105661
7.8108654
7.6856168
7.57513
7.4817498
7.4070882
7.3331652
7.2710527
7.2110158
7.1596995
7.1200267
7.0872477
7.071239
7.0528041
7.048462
7.0363219
7.0316707
7.0273339
7.0262674
7.0257963
7.0284174
7.0319393
7.0373253
7.0448915
7.0549099
7.067952
7.0846507
7.1059577
7.1327297
7.166602
7.209458
7.2635774
7.3326584
7.4217566
7.5383834
7.6950093
7.9151321
8.2476914
8.83354
21.382909
10.22753
10.108341
9.6691189
9.2629975
9.0388644
8.679978
8.5492718
8.2562208
8.1073587
7.8828482
7.7952157
7.6682762
7.5662849
7.4731822
7.3974136
7.3274634
7.2716915
7.2140637
7.1602858
7.1253254
7.0943621
7.0791282
7.0634448
7.0625952
7.0487297
7.0449428
7.041189
7.0408329
7.0411861
7.044361
7.0489121
7.0550017
7.0634155
7.0743501
7.0883671
7.106211
7.1288242
7.1570391
7.19249
7.2371449
7.2932935
7.3647125
7.4565635
7.5764799
7.7371133
7.962359
8.3020606
8.8967767
20.60634
10.295489
10.084415
9.6375637