/*--------------------------------*- C++ -*----------------------------------*\
| =========                 |                                                 |
| \\      /  F ield         | OpenFOAM: The Open Source CFD Toolbox           |
|  \\    /   O peration     | Version:  2506                                  |
|   \\  /    A nd           | Website:  www.openfoam.com                      |
|    \\/     M anipulation  |                                                 |
\*---------------------------------------------------------------------------*/
FoamFile
{
    version     2.0;
    format      ascii;
    arch        "LSB;label=32;scalar=64";
    class       volScalarField;
    location    "2.995";
    object      rho;
}
// * * * * * * * * * * * * * * * * * * * * * * * * * * * * * * * * * * * * * //

dimensions      [1 -3 0 0 0 0 0];

internalField   nonuniform List<scalar> 
1375
(
0.65636444
0.65750073
0.6600764
0.66247649
0.66986652
0.66554562
0.67149071
0.66857796
0.67306103
0.67182174
0.67456089
0.67498148
0.67466175
0.67597116
0.67801924
0.67574449
0.67727561
0.68085576
0.67672184
0.67846991
0.68345614
0.67757343
0.67954104
0.68577856
0.67555494
0.6783294
0.68049713
0.6877857
0.67434026
0.67604779
0.6789781
0.6813273
0.68949423
0.67467976
0.67647018
0.67952248
0.68205309
0.69092278
0.67337363
0.67495781
0.67681898
0.67996236
0.68265398
0.69207892
0.67134167
0.6723399
0.67355793
0.67517184
0.67709039
0.68029651
0.6831355
0.69292235
0.66935714
0.66993164
0.67061661
0.67143909
0.67245011
0.67368626
0.67531997
0.6772807
0.68052463
0.68349262
0.69347398
0.66732138
0.66754976
0.66781591
0.66812599
0.66848621
0.66890535
0.6693961
0.66997492
0.67066488
0.67149345
0.67251153
0.67375789
0.67540198
0.67738734
0.6806498
0.68370432
0.69376865
0.66619128
0.66593215
0.66572556
0.66572734
0.6657742
0.66579928
0.66580205
0.66580368
0.66581078
0.66582105
0.665832
0.66584357
0.66585674
0.66587221
0.66589027
0.66591105
0.66593479
0.66596186
0.66599268
0.66602776
0.66606769
0.66611318
0.66616503
0.66622417
0.66629167
0.66636873
0.66645675
0.66655734
0.66667235
0.66680396
0.66695465
0.66712755
0.66732588
0.66755486
0.66782166
0.66813244
0.66849346
0.66891351
0.66940527
0.66998525
0.67067656
0.67150678
0.67252673
0.67377574
0.67542266
0.67741306
0.68068748
0.68372058
0.69383946
0.6661644
0.66594441
0.66572884
0.66572337
0.66577396
0.66579961
0.66580237
0.66580363
0.66581065
0.66582107
0.66583208
0.66584351
0.66585638
0.66587145
0.66588904
0.66590934
0.66593263
0.66595928
0.66598973
0.66602446
0.66606407
0.66610923
0.66616074
0.66621952
0.66628662
0.66636326
0.66645081
0.66655088
0.66666533
0.66679634
0.66694639
0.6671186
0.66731619
0.66754438
0.66781038
0.6681203
0.66848037
0.6688994
0.66939008
0.66996889
0.67065888
0.67148752
0.67250568
0.67375205
0.67539597
0.67738086
0.68064106
0.68369689
0.693739
0.66616244
0.66591845
0.66572533
0.66572693
0.66577304
0.66579735
0.66580017
0.66580231
0.66580974
0.66581988
0.66583036
0.66584127
0.66585361
0.66586808
0.66588498
0.66590452
0.66592702
0.66595285
0.66598246
0.66601632
0.66605501
0.6660992
0.66614967
0.66620734
0.66627323
0.66634855
0.66643468
0.66653322
0.66664601
0.66677523
0.66692336
0.6670935
0.66728884
0.66751463
0.66777809
0.6680852
0.66844211
0.66885763
0.66934445
0.6699189
0.67060391
0.6714265
0.67243763
0.6736738
0.67530708
0.67726689
0.68050633
0.68347349
0.69342405
0.66612559
0.66592715
0.6657291
0.66572621
0.66577456
0.66579596
0.66579719
0.66579951
0.6658071
0.66581678
0.66582653
0.66583673
0.66584838
0.66586206
0.66587803
0.66589654
0.66591792
0.66594255
0.66597086
0.66600332
0.66604051
0.66608309
0.66613181
0.66618759
0.66625143
0.66632454
0.66640827
0.66650422
0.66661422
0.66674042
0.66688529
0.66705193
0.66724345
0.66746518
0.66772428
0.66802654
0.66837798
0.66878741
0.66926745
0.6698342
0.67051033
0.67132211
0.67232051
0.67353857
0.6751518
0.67706907
0.68026846
0.68310586
0.69284825
0.66611046
0.66589692
0.66572681
0.66573459
0.66577734
0.6657941
0.66579469
0.66579709
0.66580419
0.6658128
0.66582139
0.66583054
0.66584117
0.66585374
0.66586848
0.66588565
0.66590557
0.6659286
0.66595517
0.66598574
0.66602087
0.66606121
0.66610751
0.66616065
0.66622164
0.66629166
0.66637205
0.66646438
0.66657047
0.66669245
0.66683275
0.66699447
0.66718064
0.66739667
0.66764962
0.66794498
0.66828867
0.66868946
0.66915985
0.66971558
0.67037894
0.67117521
0.67215512
0.67334732
0.67493058
0.67679025
0.67992457
0.68261492
0.69197673
0.66607988
0.66588744
0.66572987
0.66573821
0.66577649
0.66578995
0.66579044
0.66579326
0.66579997
0.66580755
0.66581494
0.6658229
0.66583226
0.66584344
0.66585665
0.66587216
0.66589027
0.66591135
0.66593576
0.66596398
0.66599653
0.66603406
0.6660773
0.66612712
0.6661845
0.66625059
0.66632674
0.66641448
0.66651559
0.66663221
0.6667667
0.66692215
0.66710149
0.66731023
0.66755527
0.66784177
0.66817549
0.66856518
0.66902315
0.66956463
0.67021145
0.67098759
0.67194337
0.67310223
0.67464543
0.67643432
0.67947501
0.68200453
0.69079883
0.6660531
0.66586736
0.66572901
0.66574424
0.66577772
0.66578645
0.66578596
0.66578865
0.66579463
0.66580102
0.66580715
0.66581383
0.66582179
0.66583138
0.66584284
0.66585642
0.66587245
0.66589123
0.66591312
0.66593857
0.66596808
0.66600229
0.66604189
0.66608775
0.66614082
0.66620224
0.66627331
0.66635555
0.66645071
0.66656088
0.66668838
0.66683628
0.66700743
0.66720735
0.66744279
0.66771855
0.66804024
0.6684165
0.66885937
0.66938352
0.67001014
0.6707617
0.67168781
0.67280615
0.67429899
0.67600509
0.67892137
0.68126995
0.68935405
0.66602602
0.66584774
0.6657297
0.66574958
0.6657781
0.66578272
0.66578169
0.66578404
0.66578881
0.66579365
0.66579833
0.66580359
0.66581001
0.66581787
0.66582739
0.66583886
0.66585256
0.66586877
0.66588784
0.66591015
0.66593623
0.66596665
0.66600212
0.66604346
0.6660916
0.66614766
0.66621291
0.66628883
0.66637714
0.66647987
0.66659933
0.66673846
0.66690019
0.66708986
0.66731408
0.66757733
0.66788504
0.66824569
0.66867094
0.66917478
0.66977769
0.67050036
0.67139137
0.67246218
0.67389403
0.67550585
0.67826334
0.68043442
0.68761965
0.66599936
0.66583004
0.66573051
0.66575377
0.66577689
0.66577873
0.66577699
0.66577893
0.66578247
0.6657857
0.6657888
0.66579252
0.66579726
0.66580325
0.66581073
0.66581994
0.66583113
0.66584456
0.66586054
0.66587943
0.66590173
0.665928
0.6659589
0.66599524
0.66603793
0.66608804
0.66614681
0.66621569
0.66629635
0.66639078
0.66650123
0.66663053
0.66678169
0.66695987
0.66717138
0.66742044
0.66771233
0.6680553
0.66846053
0.66894123
0.669517
0.67020657
0.67105702
0.6720734
0.67343302
0.67493976
0.67749955
0.67945985
0.68558517
0.66597478
0.66581357
0.66573092
0.66575647
0.66577496
0.66577418
0.66577201
0.6657735
0.66577578
0.66577739
0.66577888
0.66578095
0.66578392
0.66578796
0.66579329
0.66580014
0.6658087
0.66581919
0.66583189
0.66584715
0.66586541
0.66588722
0.66591321
0.66594417
0.66598096
0.66602462
0.66607636
0.66613759
0.66620992
0.6662953
0.6663959
0.66651443
0.66665399
0.66681955
0.66701701
0.66725034
0.66752469
0.66784802
0.66823094
0.66868575
0.66923104
0.66988332
0.67068771
0.67164268
0.67291823
0.67430763
0.67663975
0.67838999
0.68324056
0.66595197
0.66579918
0.66573195
0.66575838
0.66577259
0.66576959
0.66576712
0.66576803
0.66576895
0.66576894
0.66576881
0.6657692
0.66577034
0.66577238
0.66577553
0.66577995
0.6657858
0.66579326
0.66580255
0.66581401
0.66582805
0.66584518
0.66586602
0.66589128
0.66592183
0.66595867
0.66600294
0.66605601
0.66611946
0.66619514
0.66628518
0.66639212
0.66651918
0.66667111
0.66685331
0.6670695
0.66732471
0.66762654
0.66798492
0.66841113
0.66892259
0.66953335
0.67028593
0.6711723
0.67235098
0.67361187
0.6756563
0.67719277
0.68062456
0.66593106
0.66578697
0.6657342
0.66575977
0.66576957
0.66576512
0.66576254
0.66576262
0.66576209
0.66576052
0.66575882
0.66575753
0.66575683
0.66575689
0.66575785
0.66575983
0.66576294
0.66576731
0.66577313
0.66578071
0.66579041
0.66580272
0.66581822
0.66583759
0.66586166
0.66589137
0.66592784
0.66597237
0.66602647
0.66609193
0.66617083
0.6662655
0.66637924
0.66651662
0.66668246
0.6668802
0.66711477
0.66739327
0.66772489
0.66811978
0.66859395
0.66915876
0.66985341
0.67066359
0.67173138
0.67285179
0.67456808
0.67588655
0.67777594
0.66591222
0.665778
0.665738
0.66576055
0.6657662
0.66576096
0.66575826
0.66575732
0.66575529
0.66575225
0.66574906
0.66574615
0.66574367
0.66574178
0.66574059
0.66574016
0.66574054
0.66574182
0.66574416
0.66574783
0.66575315
0.66576057
0.66577064
0.665784
0.66580143
0.66582382
0.66585224
0.66588794
0.66593235
0.66598717
0.66605443
0.66613623
0.66623596
0.66635792
0.66650637
0.66668443
0.66689687
0.66715022
0.66745281
0.66781349
0.66824667
0.66876078
0.66939076
0.67011643
0.6710579
0.67202562
0.67336391
0.6744753
0.67473458
0.66589643
0.66577277
0.66574116
0.66576052
0.6657629
0.66575709
0.66575419
0.66575213
0.66574866
0.66574425
0.66573967
0.66573522
0.66573105
0.6657273
0.66572403
0.66572125
0.66571895
0.66571719
0.66571609
0.66571586
0.66571682
0.66571935
0.66572396
0.66573126
0.66574196
0.66575692
0.66577714
0.66580379
0.66583824
0.66588209
0.6659373
0.66600572
0.66609078
0.66619651
0.66632653
0.6664837
0.66667247
0.66689874
0.66716982
0.66749314
0.66788122
0.66833927
0.668897
0.66952897
0.67032695
0.67113039
0.67203694
0.67297923
0.67156852
0.66588251
0.66576891
0.66574373
0.66576011
0.66575951
0.66575348
0.6657503
0.66574708
0.66574228
0.66573663
0.66573076
0.66572488
0.66571914
0.66571364
0.66570839
0.66570333
0.66569844
0.66569372
0.66568925
0.66568521
0.66568185
0.66567955
0.66567874
0.66567998
0.66568394
0.66569142
0.66570334
0.66572079
0.66574509
0.66577768
0.66582045
0.66587502
0.66594485
0.66603344
0.66614401
0.66627898
0.66644246
0.6666395
0.66687633
0.66715871
0.66749696
0.6678928
0.66836967
0.6688974
0.66953283
0.67016261
0.67057407
0.67141604
0.66835673
0.66587011
0.6657665
0.66574696
0.66575907
0.66575615
0.66575019
0.66574657
0.6657422
0.66573621
0.66572946
0.66572241
0.66571523
0.66570804
0.66570091
0.66569378
0.66568656
0.66567917
0.66567159
0.66566386
0.6656561
0.66564853
0.66564147
0.66563531
0.66563054
0.66562779
0.66562776
0.66563132
0.66563947
0.66565342
0.66567449
0.66570446
0.66574467
0.66579857
0.66586912
0.66595905
0.66607033
0.66620659
0.66637189
0.66657118
0.66680836
0.6670912
0.66741767
0.66780358
0.66821594
0.6686673
0.66912232
0.66896291
0.66980146
0.66527121
0.66585963
0.66576562
0.66575056
0.66575752
0.66575299
0.66574721
0.665743
0.66573754
0.66573054
0.66572281
0.6657147
0.66570635
0.66569785
0.6656892
0.66568031
0.66567105
0.66566129
0.66565098
0.66564011
0.66562877
0.66561712
0.66560542
0.66559401
0.66558333
0.66557391
0.6655664
0.66556158
0.66556034
0.66556378
0.66557305
0.66558983
0.66561516
0.66565224
0.66570383
0.66577189
0.66585788
0.66596475
0.66609547
0.66625346
0.66644054
0.66666148
0.66690987
0.66719393
0.66747706
0.66772064
0.66801203
0.66720063
0.66812464
0.662341
0.66585056
0.66576632
0.66575363
0.66575579
0.66575018
0.66574446
0.66573955
0.66573313
0.66572528
0.66571669
0.66570762
0.66569822
0.66568851
0.66567846
0.66566792
0.66565672
0.6656447
0.66563177
0.66561788
0.66560307
0.66558744
0.6655712
0.66555462
0.66553806
0.665522
0.66550698
0.66549366
0.66548285
0.66547549
0.66547257
0.66547556
0.6654853
0.66550446
0.66553565
0.66557999
0.66563831
0.66571272
0.66580491
0.66591657
0.66604698
0.66619803
0.66635864
0.66652692
0.66667339
0.66667752
0.66685694
0.66536652
0.66643469
0.65982351
0.66584359
0.66577044
0.66575597
0.66575413
0.66574777
0.66574194
0.6657363
0.66572904
0.66572049
0.66571117
0.66570129
0.66569097
0.66568019
0.66566886
0.6656568
0.66564381
0.6656297
0.66561433
0.6655976
0.6655795
0.66556009
0.6655395
0.66551794
0.66549569
0.66547313
0.6654507
0.66542896
0.66540857
0.66539031
0.66537496
0.66536376
0.66535731
0.66535774
0.66536753
0.66538685
0.66541574
0.66545527
0.66550555
0.66556639
0.6656342
0.66570709
0.66576721
0.66580998
0.66579854
0.66553525
0.66561303
0.66346321
0.66477077
0.65757018
0.66583345
0.66577857
0.66575512
0.66575251
0.66574541
0.66573943
0.66573312
0.66572521
0.66571606
0.66570606
0.6656954
0.66568419
0.66567238
0.66565981
0.66564626
0.6656315
0.66561531
0.66559749
0.66557791
0.66555648
0.6655332
0.66550812
0.66548137
0.66545314
0.66542368
0.66539332
0.66536248
0.66533162
0.66530136
0.66527221
0.66524507
0.66522034
0.6651993
0.66518384
0.66517346
0.66516724
0.66516488
0.66516489
0.66516475
0.66515667
0.6651398
0.6650879
0.66497757
0.66484978
0.66424545
0.66438221
0.66147699
0.66316235
0.65610106
0.65472279
0.65322067
0.65926276
0.65799899
0.66175403
0.66154014
0.66284078
0.66340612
0.66381586
0.6641348
0.66435005
0.6645064
0.66462347
0.664718
0.66479543
0.6648627
0.66492317
0.66497999
0.66503547
0.66508884
0.66514019
0.6651897
0.66523719
0.66528263
0.66532583
0.66536667
0.66540503
0.6654408
0.66547393
0.66550441
0.66553225
0.66555752
0.66558034
0.66560087
0.66561933
0.66563596
0.66565106
0.6656649
0.66567773
0.66568977
0.66570111
0.6657117
0.6657214
0.66572995
0.66573697
0.66574322
0.66575129
0.66575327
0.66579257
0.66582588
0.65165525
0.656626
0.65444815
0.65941482
0.65791257
0.66096493
0.66092241
0.66201405
0.66255296
0.66301284
0.66341126
0.66371986
0.66396877
0.66417525
0.66434842
0.66449622
0.66462514
0.6647404
0.66484314
0.66493557
0.66501919
0.66509511
0.66516426
0.66522723
0.66528455
0.66533664
0.66538386
0.66542652
0.66546493
0.66549937
0.66553013
0.6655575
0.6655818
0.66560337
0.66562257
0.66563976
0.66565529
0.66566948
0.6656826
0.66569481
0.66570614
0.66571648
0.66572571
0.66573359
0.66573981
0.66574943
0.66574643
0.66578825
0.66577507
0.65218966
0.65603822
0.65422063
0.65793178
0.65646636
0.65984041
0.65882301
0.66106476
0.66101446
0.66197089
0.66241023
0.66286112
0.6632491
0.6635648
0.66383621
0.66406714
0.66426628
0.66444095
0.66459347
0.66472749
0.66484578
0.66495072
0.66504408
0.66512723
0.66520137
0.66526747
0.66532633
0.66537868
0.66542513
0.66546625
0.66550255
0.66553451
0.66556262
0.66558734
0.66560912
0.66562842
0.66564565
0.66566121
0.66567541
0.66568848
0.66570051
0.66571146
0.66572128
0.66573011
0.66573577
0.66574707
0.66573854
0.66577396
0.66576041
0.65839732
0.66014816
0.66004746
0.66131953
0.66150887
0.66223664
0.66262388
0.66302979
0.66337639
0.66367402
0.66393322
0.66416022
0.66435803
0.66453036
0.66468106
0.6648134
0.66492978
0.66503223
0.66512244
0.66520197
0.66527201
0.66533363
0.66538776
0.66543525
0.66547682
0.66551314
0.66554485
0.66557253
0.66559674
0.66561803
0.66563686
0.66565369
0.66566889
0.66568274
0.6656954
0.6657069
0.6657171
0.66572695
0.66573169
0.66574453
0.66573416
0.66576259
0.66576276
0.66300101
0.66334533
0.66364751
0.6639155
0.66415039
0.6643549
0.66453345
0.66468979
0.66482661
0.66494635
0.66505109
0.6651428
0.66522298
0.66529303
0.66535416
0.66540744
0.66545379
0.66549407
0.66552903
0.66555939
0.6655858
0.66560887
0.66562915
0.66564712
0.6656632
0.66567772
0.66569091
0.66570291
0.66571326
0.66572417
0.66572821
0.66574203
0.66573234
0.66575686
0.66576505
0.6645843
0.66473794
0.66487226
0.66498906
0.66509132
0.66518024
0.66525761
0.66532483
0.66538315
0.66543368
0.66547741
0.66551522
0.66554792
0.66557625
0.66560089
0.66562243
0.6656414
0.66565825
0.66567337
0.66568698
0.66569944
0.66570973
0.66572163
0.66572556
0.66573951
0.66573118
0.66575327
0.66576218
0.6651445
0.66522786
0.6653001
0.66536261
0.66541663
0.66546324
0.66550345
0.66553812
0.66556808
0.66559404
0.66561665
0.66563647
0.66565397
0.66566961
0.66568354
0.6656964
0.66570656
0.66571906
0.66572329
0.66573683
0.66572995
0.66574993
0.66575776
0.66545161
0.66549374
0.66553001
0.66556129
0.66558833
0.66561182
0.66563233
0.66565037
0.66566643
0.66568057
0.66569371
0.66570381
0.66571645
0.66572129
0.66573409
0.66572893
0.66574672
0.66575403
0.66560794
0.665629
0.66564746
0.66566384
0.66567808
0.66569141
0.66570139
0.66571418
0.66571925
0.6657319
0.66572784
0.66574426
0.66575106
0.6656993
0.66571234
0.66571735
0.66573027
0.66572673
0.66574257
0.66574838
)
;

boundaryField
{
    Side
    {
        type            empty;
    }
    Inlet
    {
        type            calculated;
        value           nonuniform List<scalar> 
30
(
0.66577567
0.66577611
0.66577746
0.66577887
0.66578134
0.66578267
0.66578413
0.66578512
0.66578545
0.66578521
0.66578457
0.66578366
0.6657827
0.66578177
0.66578079
0.6657798
0.66577877
0.66577775
0.66577661
0.66577449
0.6657636
0.66575105
0.66574519
0.66574671
0.66574689
0.66574584
0.66574461
0.66574364
0.66574287
0.66574218
)
;
    }
    Airfoil
    {
        type            calculated;
        value           nonuniform List<scalar> 
43
(
0.65636444
0.65750073
0.6600764
0.66247649
0.66554562
0.66857796
0.67182174
0.67498148
0.67801924
0.68085576
0.68345614
0.68577856
0.6877857
0.68949423
0.69092278
0.69207892
0.69292235
0.69347398
0.69376865
0.69383946
0.693739
0.69342405
0.69284825
0.69197673
0.69079883
0.68935405
0.68761965
0.68558517
0.68324056
0.68062456
0.67777594
0.67473458
0.67156852
0.66835673
0.66527121
0.662341
0.65982351
0.65757018
0.65610106
0.65472279
0.65322067
0.65165525
0.65218966
)
;
    }
    Outlet
    {
        type            calculated;
        value           nonuniform List<scalar> 0();
    }
    procBoundary0to1
    {
        type            processor;
        value           nonuniform List<scalar> 
56
(
0.65294942
0.65607006
0.65473523
0.65729315
0.65659599
0.65875505
0.65875505
0.65831083
0.65951852
0.65971602
0.66071354
0.66105328
0.66174209
0.66214998
0.6626197
0.6626197
0.66272234
0.66309255
0.66342256
0.66371796
0.66397948
0.66420826
0.66440862
0.66440862
0.66449908
0.66466549
0.66481104
0.66493796
0.66504849
0.66504849
0.66511588
0.66520389
0.66528006
0.66534589
0.66540268
0.66540268
0.6654426
0.66548617
0.66552364
0.66555592
0.66558379
0.66558379
0.66560501
0.66562646
0.66564519
0.6656618
0.66567603
0.66568949
0.66568949
0.66569751
0.66571085
0.6657157
0.665729
0.66572574
0.66574135
0.66574585
)
;
    }
    procBoundary0to7
    {
        type            processor;
        value           nonuniform List<scalar> 
69
(
0.66313871
0.66483469
0.66647016
0.66818234
0.66818234
0.6690526
0.67066936
0.67213555
0.67346124
0.67346124
0.67292136
0.67367727
0.67436816
0.67499486
0.67499486
0.67394202
0.67394202
0.67284619
0.67313545
0.67313545
0.67120186
0.67218154
0.67218154
0.6692871
0.66985395
0.67053004
0.67053004
0.6672997
0.66752589
0.6677897
0.66809716
0.66845439
0.66887016
0.66887016
0.66617739
0.66594314
0.66573103
0.66572829
0.66577667
0.66580051
0.66580227
0.66580364
0.66581074
0.66582088
0.66583171
0.66584327
0.66585649
0.66587201
0.66589007
0.66591082
0.66593451
0.6659615
0.66599222
0.66602718
0.66606699
0.66611232
0.666164
0.66622295
0.66629022
0.66636703
0.66645476
0.66655503
0.66666968
0.6668009
0.66695116
0.66712358
0.66712358
0.65421788
0.66201271
)
;
    }
}


// ************************************************************************* //
