/*--------------------------------*- C++ -*----------------------------------*\
| =========                 |                                                 |
| \\      /  F ield         | OpenFOAM: The Open Source CFD Toolbox           |
|  \\    /   O peration     | Version:  2506                                  |
|   \\  /    A nd           | Website:  www.openfoam.com                      |
|    \\/     M anipulation  |                                                 |
\*---------------------------------------------------------------------------*/
FoamFile
{
    version     2.0;
    format      ascii;
    arch        "LSB;label=32;scalar=64";
    class       volScalarField;
    location    "0.15";
    object      alphat;
}
// * * * * * * * * * * * * * * * * * * * * * * * * * * * * * * * * * * * * * //

dimensions      [1 -1 -1 0 0 0 0];

internalField   nonuniform List<scalar> 
1376
(
0.13153481
0.13052441
0.1299468
0.12952825
0.12922501
0.12899222
0.12879559
0.12861997
0.12846429
0.12833114
0.12821325
0.12810449
0.1280131
0.12793481
0.12786195
0.12780065
0.12774325
0.1276877
0.1276395
0.127591
0.12755126
0.12751788
0.12748946
0.12745634
0.12742851
0.12742096
0.12742187
0.12743566
0.12745483
0.12749444
0.12756154
0.12768622
0.12007675
0.1028166
0.081518922
0.070083607
0.061613611
0.033676903
0.02826661
0.024920816
0.019092808
0.020522903
0.020237562
0.0089146589
0.0077679809
0.0038812874
0.0077679363
0.0048651167
0.00048475342
0.13151082
0.13052253
0.1299896
0.12958541
0.12928008
0.12904283
0.12884533
0.12866777
0.12851009
0.1283753
0.12825471
0.12814604
0.12804852
0.12797192
0.12789894
0.12783456
0.127775
0.12771794
0.12766744
0.12761888
0.12757789
0.12754608
0.12751802
0.12748702
0.12745627
0.12744641
0.12744992
0.12746366
0.12747577
0.12751709
0.12758737
0.12769704
0.11961518
0.10681972
0.078833558
0.065041158
0.045578686
0.039826716
0.040482939
0.03135604
0.021919844
0.014932902
0.010558937
0.010841719
0.010256899
0.0058349797
0.0038751859
0.0030200803
0.00046948083
0.13160867
0.13060262
0.1300683
0.12966802
0.12935303
0.12910992
0.12890895
0.12872908
0.128568
0.12842926
0.12830558
0.12819513
0.12809559
0.12801567
0.127937
0.12786899
0.12780827
0.12775074
0.12769866
0.1276497
0.12760755
0.12757642
0.12754724
0.12751857
0.12748571
0.12747297
0.12747915
0.12748507
0.12749779
0.12753841
0.12761331
0.12770697
0.12329513
0.096769607
0.089334599
0.06496394
0.060528817
0.039836378
0.030439364
0.027558182
0.024353144
0.01785657
0.013313539
0.0092226085
0.0062758114
0.0071153977
0.0029752709
0.002212259
0.00050550864
0.1316683
0.13066494
0.13014021
0.12974266
0.12942703
0.12917968
0.12897362
0.12879141
0.12862742
0.12848403
0.1283591
0.12824567
0.12814215
0.12805407
0.12797488
0.12790343
0.12784183
0.12778421
0.12773166
0.12768175
0.12763885
0.12760646
0.12757695
0.12754918
0.12751863
0.12750271
0.1275041
0.12750905
0.12752493
0.12756311
0.12763964
0.12771878
0.12786921
0.10448215
0.08076107
0.07088523
0.050577805
0.046305264
0.035751973
0.026817413
0.020509461
0.017545667
0.015370088
0.0096127183
0.0075920879
0.0035223714
0.0036436661
0.0031519723
0.00049303207
0.13173424
0.13073725
0.1302129
0.12982361
0.12951025
0.129255
0.129044
0.12885855
0.12869243
0.1285443
0.1284147
0.12829681
0.12818975
0.12809962
0.12801834
0.1279435
0.12787896
0.12782091
0.12776787
0.12771629
0.12767181
0.12763669
0.12760848
0.12758087
0.12755388
0.12753333
0.12752967
0.12753785
0.12755696
0.12758772
0.12765518
0.12773531
0.12787871
0.10771314
0.085162524
0.070989117
0.057298478
0.041661011
0.035909015
0.028294801
0.022666654
0.01662284
0.011444127
0.011176971
0.0083109601
0.0070191016
0.0032996242
0.0022790764
0.00051013376
0.13179388
0.13080485
0.13028806
0.12991185
0.12959833
0.12933774
0.12911984
0.12893011
0.12876157
0.1286083
0.12847176
0.12835307
0.12824392
0.12814991
0.12806557
0.12798783
0.12792021
0.1278602
0.1278053
0.12775241
0.12770566
0.12766846
0.12764039
0.12761515
0.12759083
0.12756597
0.12755784
0.12756567
0.12758715
0.12761864
0.12766739
0.12776186
0.12788293
0.1065212
0.089959767
0.06776578
0.060829449
0.04494603
0.034763825
0.029684446
0.022585006
0.01799747
0.015711205
0.0097378541
0.0063349685
0.0046735651
0.0029625847
0.0020483299
0.00056340395
0.13185331
0.13087906
0.13036439
0.13000146
0.1296908
0.12942227
0.12919756
0.1290043
0.12883193
0.12867437
0.12853397
0.12841307
0.1283002
0.12820043
0.12811403
0.12803365
0.1279628
0.12789975
0.12784179
0.12778933
0.12774287
0.12770225
0.12767289
0.12765087
0.12762474
0.12760095
0.12759023
0.12759477
0.12761676
0.12764682
0.127689
0.12778892
0.12789046
0.10983423
0.0882819
0.074509295
0.05482519
0.047899398
0.036240818
0.025935282
0.02214757
0.017123098
0.011830258
0.0098283169
0.0080034641
0.0047279083
0.0026818197
0.0022799077
0.00054304544
0.13191498
0.13096421
0.13043939
0.13009682
0.12978694
0.12950905
0.12927849
0.12908232
0.1289043
0.12874338
0.12859946
0.1284725
0.12835695
0.12825271
0.12816254
0.1280796
0.12800617
0.1279406
0.12787952
0.1278293
0.12778238
0.12773868
0.12770464
0.12768429
0.12766047
0.12763635
0.12762504
0.1276265
0.12764553
0.12767596
0.12771817
0.12780724
0.12790454
0.11431107
0.088880565
0.075180758
0.05954075
0.046380958
0.037574092
0.030937675
0.02216099
0.016821711
0.014295735
0.010266351
0.0061013996
0.0060455179
0.0042120919
0.0017952571
0.00062069084
0.13198505
0.13105239
0.13051378
0.13019372
0.12988783
0.12960275
0.12936354
0.12916176
0.12897907
0.12881441
0.12866553
0.12853408
0.12841525
0.12830684
0.12821285
0.12812856
0.12805245
0.1279843
0.12791972
0.12786896
0.12782163
0.12777424
0.12773638
0.12771724
0.12769762
0.12767383
0.12766027
0.127658
0.12767553
0.1277049
0.1277541
0.12781228
0.12793205
0.11398205
0.09581646
0.071161563
0.063520738
0.046216804
0.036638474
0.029234119
0.023996272
0.017940406
0.013337914
0.010256383
0.0088458816
0.0040477425
0.0028704728
0.0019975125
0.00060038301
0.13206593
0.13112708
0.13058809
0.13029151
0.12999428
0.12970014
0.12945014
0.12924258
0.12905657
0.12888665
0.12873353
0.12859642
0.1284744
0.12836335
0.12826476
0.12817913
0.12809981
0.12802825
0.12796095
0.12790703
0.12786036
0.12781225
0.12777262
0.12775036
0.12773263
0.12770978
0.12769629
0.12769217
0.1277068
0.12773432
0.12778201
0.12782374
0.12796832
0.11803905
0.09404546
0.078967695
0.058494499
0.050860415
0.037730107
0.028129634
0.021504129
0.018575563
0.0132072
0.0094407691
0.0062484025
0.0059775344
0.0034174101
0.0017282467
0.00060745602
0.13213595
0.13121241
0.13068113
0.13038517
0.13009103
0.12979932
0.12953946
0.12932468
0.12913434
0.12895954
0.1288016
0.12865946
0.12853335
0.1284183
0.12831616
0.12822797
0.12814654
0.12807188
0.12800398
0.12794672
0.12789918
0.12785016
0.12780772
0.12778266
0.12776699
0.12774599
0.12773052
0.12772598
0.12773994
0.12776697
0.12780979
0.12784405
0.12800115
0.12198044
0.095334934
0.079236662
0.062121904
0.048956739
0.039566596
0.030514922
0.02453793
0.016109111
0.013924028
0.0099839347
0.0082001883
0.0041333156
0.0028284241
0.0020111319
0.00061933314
0.13224933
0.1313006
0.13075564
0.13047552
0.13018984
0.1298931
0.12963101
0.12940944
0.12921316
0.1290341
0.12887026
0.12872261
0.12859197
0.12847358
0.12836799
0.12827618
0.1281933
0.12811569
0.12804575
0.12798548
0.12793655
0.12788799
0.12784279
0.12781441
0.12779871
0.12778116
0.12776542
0.12775977
0.12777186
0.12779887
0.12783538
0.12787385
0.12802176
0.12271057
0.10183472
0.076485219
0.067132679
0.049434071
0.038372535
0.03069738
0.023027334
0.019783183
0.013560586
0.010308706
0.0066778106
0.0058923333
0.0026621712
0.001684092
0.00062912932
0.13233357
0.13138294
0.13084476
0.13056592
0.13027827
0.12998658
0.12972415
0.12949187
0.12928934
0.12910565
0.12893708
0.12878451
0.12864899
0.1285272
0.12841814
0.12832256
0.12823767
0.12815809
0.12808659
0.12802346
0.1279722
0.1279241
0.12787788
0.12784624
0.12782859
0.12781327
0.12779877
0.1277928
0.12780327
0.12783098
0.12786179
0.1279168
0.12801406
0.12658661
0.10002454
0.083534135
0.061946857
0.052930471
0.040671351
0.029951568
0.023329231
0.017650503
0.013688657
0.010055744
0.007028918
0.0043558194
0.0029522453
0.0020817269
0.00064244486
0.13245755
0.13149414
0.13093699
0.13065047
0.13036355
0.13007944
0.12980842
0.12956949
0.12936131
0.12917258
0.12899997
0.12884249
0.12870236
0.12857738
0.12846494
0.12836578
0.12827886
0.12819823
0.12812518
0.12806028
0.12800704
0.12795832
0.1279112
0.1278768
0.12785711
0.12784256
0.12782959
0.12782323
0.12783202
0.12785992
0.12788903
0.12794587
0.12801403
0.12818888
0.10357812
0.08161988
0.066915521
0.051243932
0.040070019
0.031978857
0.024425741
0.018118804
0.013340314
0.010017704
0.0071279262
0.005057534
0.0029973842
0.0014736794
0.00062527851
0.13257236
0.13158888
0.13102345
0.13073411
0.13044656
0.13016083
0.12988568
0.12964065
0.12942626
0.12923259
0.1290568
0.12889607
0.12875164
0.12862352
0.12850769
0.12840454
0.1283155
0.1282346
0.12816057
0.12809372
0.12803798
0.12798847
0.12794123
0.127905
0.12788297
0.12786828
0.12785712
0.12785123
0.12785867
0.12788617
0.12791494
0.1279718
0.12801847
0.12821231
0.1049392
0.083445008
0.065901271
0.052641833
0.041311339
0.0310642
0.023680893
0.018365653
0.014432915
0.009950238
0.0073437049
0.0045277077
0.0027951115
0.0020575638
0.00065300548
0.13268854
0.13168854
0.13110931
0.1308116
0.13052176
0.13023431
0.12995476
0.1297038
0.12948453
0.12928711
0.12910782
0.12894374
0.12879529
0.12866384
0.12854538
0.12843919
0.12834781
0.12826589
0.12819068
0.12812218
0.12806429
0.12801395
0.12796659
0.12792926
0.12790518
0.12788955
0.12787907
0.12787376
0.12788062
0.12790709
0.12793572
0.12799244
0.12802077
0.12823052
0.10616855
0.084842815
0.066845509
0.052814889
0.041407903
0.031961941
0.024495492
0.018559961
0.013346219
0.010128587
0.0067692294
0.0048124474
0.0030198125
0.0015833515
0.00060711967
0.13278891
0.1317732
0.13118153
0.13087533
0.13058513
0.13029665
0.13001295
0.12975633
0.12953276
0.1293323
0.1291496
0.12898224
0.12883057
0.12869644
0.12857619
0.12846814
0.12837467
0.12829169
0.12821541
0.12814608
0.12808652
0.12803515
0.12798754
0.12794958
0.12792398
0.12790715
0.1278966
0.12789169
0.12789819
0.12792315
0.12795101
0.12800768
0.12802182
0.12824401
0.1091199
0.086714437
0.068570798
0.054029617
0.042314801
0.03270906
0.024888049
0.018793741
0.014319663
0.010234854
0.0073016513
0.004772675
0.0028982276
0.0018167231
0.00065327169
0.13286771
0.13184172
0.13124039
0.13092596
0.130633
0.13034143
0.13005411
0.12979379
0.12956666
0.12936355
0.12917866
0.12900965
0.12885583
0.12871952
0.12859814
0.12848907
0.12839412
0.12831009
0.12823327
0.12816382
0.12810322
0.12805088
0.128003
0.12796472
0.12793801
0.12791994
0.12790912
0.12790505
0.12791203
0.12793612
0.12796328
0.12802001
0.1280267
0.12825636
0.11200924
0.089238734
0.070114941
0.055111065
0.0432056
0.033339893
0.025428576
0.019328724
0.014334823
0.010436891
0.0072702937
0.004846222
0.0030099516
0.0018226074
0.00064253764
0.1329168
0.13188445
0.13127797
0.13095822
0.1306629
0.1303683
0.13007858
0.12981644
0.12958666
0.12938158
0.12919562
0.12902561
0.12887067
0.12873316
0.12861118
0.12850124
0.12840516
0.12832051
0.12824365
0.12817426
0.12811304
0.12806001
0.12801217
0.12797422
0.12794693
0.127928
0.12791723
0.1279146
0.12792344
0.12794851
0.12797662
0.12803508
0.12804465
0.12827688
0.11012256
0.087741563
0.068812851
0.053887771
0.042138179
0.032611817
0.024910288
0.018815637
0.014004022
0.010135667
0.007072262
0.0047109669
0.002906439
0.0017271035
0.00063419317
0.13293274
0.1318981
0.1312898
0.13096834
0.13067143
0.13037574
0.1300848
0.12982186
0.12959163
0.12938605
0.12919961
0.1290291
0.12887415
0.12873679
0.12861489
0.12850475
0.12840836
0.12832361
0.12824716
0.12817787
0.12811656
0.1280631
0.1280156
0.12749848
0.1275508
0.12760459
0.12766504
0.12773372
0.12781162
0.12789899
0.12800351
0.12812538
0.12827341
0.12845264
0.12866988
0.12894992
0.12934921
0.12993862
0.12725911
0.1272288
0.12722248
0.12721696
0.12722135
0.1272321
0.12725439
0.12727844
0.12731471
0.12735326
0.12738744
0.12742942
0.12747817
0.1275301
0.12758408
0.12763994
0.12770229
0.1277741
0.12785412
0.1279458
0.12805389
0.1281801
0.12833518
0.12851918
0.12873972
0.12902437
0.12943271
0.13006523
0.029772428
0.017830489
0.045767028
0.06464151
0.11546705
0.11118072
0.12773767
0.12755255
0.12742257
0.12731384
0.12725724
0.12723773
0.12723198
0.12723171
0.12724633
0.12726052
0.1272861
0.12730914
0.12734497
0.12738263
0.12741613
0.12746314
0.12751265
0.12756485
0.12761913
0.12767582
0.12774097
0.12781335
0.12789711
0.12799434
0.12810632
0.12823887
0.12839923
0.12858799
0.12881236
0.12910131
0.12950604
0.1301872
0.010749851
0.011289455
0.021330931
0.0092456747
0.020896345
0.014014662
0.021423826
0.018653874
0.023724662
0.0058591887
0.026018153
0.073984536
0.07637503
0.077465434
0.10020447
0.11255621
0.12758252
0.1274371
0.12733713
0.12728515
0.1272603
0.12725408
0.1272493
0.1272556
0.12728125
0.12731072
0.12733727
0.12737142
0.12741106
0.12745174
0.12749738
0.12754735
0.12759967
0.12765459
0.12771371
0.12778074
0.12785452
0.12794188
0.12804473
0.12816136
0.1282994
0.12846491
0.12865873
0.1288868
0.12918211
0.12960462
0.1303124
0.00049729528
0.0079391974
0.010308036
0.0067911726
0.0096390136
0.0069081129
0.010853775
0.013258746
0.025217053
0.019753252
0.0060391578
0.012009205
0.010102728
0.041021716
0.099915389
0.090218918
0.1101626
0.12774246
0.12755664
0.12743448
0.12734551
0.1273119
0.12728837
0.12727939
0.12727772
0.12728574
0.12730569
0.12733739
0.12736475
0.12740115
0.12743726
0.12748236
0.12753011
0.1275817
0.12763662
0.12769188
0.12775306
0.12782183
0.12789981
0.12799037
0.12809626
0.12821855
0.12836259
0.12853336
0.12873126
0.12896308
0.12926615
0.12973226
0.13046184
0.00048263494
0.010730102
0.0095730423
0.010457469
0.011828584
0.01198418
0.021839677
0.014371648
0.017428797
0.033294642
0.016259066
0.0093595402
0.013180202
0.05466384
0.06533656
0.1025303
0.11501533
0.12773934
0.1275467
0.1274241
0.12735056
0.12732394
0.12730932
0.12730039
0.12729979
0.1273144
0.12733769
0.1273696
0.12739753
0.12743179
0.12746897
0.1275143
0.12756214
0.12761467
0.12767202
0.12773047
0.12779387
0.12786412
0.12794698
0.1280417
0.1281517
0.12827912
0.12842912
0.12860452
0.12880635
0.12904489
0.1293587
0.12984936
0.13061278
0.00048853714
0.0060038302
0.010032292
0.010269792
0.017704998
0.013226447
0.0198275
0.027901179
0.023804152
0.022140143
0.016381328
0.031692773
0.034732363
0.060170041
0.080222608
0.08368486
0.10913001
0.12772668
0.12755989
0.12744771
0.12736743
0.12734492
0.12733064
0.12732292
0.12732496
0.12733643
0.1273656
0.12740117
0.12742901
0.12746374
0.12750372
0.1275497
0.12759678
0.12765267
0.12770777
0.12776768
0.12783445
0.12790756
0.12799512
0.12809473
0.12821058
0.12834277
0.12849837
0.12867767
0.12888482
0.12913071
0.12946523
0.12997574
0.13075249
0.00047504783
0.0060538188
0.0079829507
0.0082778266
0.014689488
0.0080028259
0.015635471
0.012549239
0.020598677
0.03370623
0.030988526
0.036460344
0.018875924
0.057724828
0.068290751
0.097515876
0.11656432
0.1277074
0.12754909
0.12745653
0.12738852
0.12736644
0.12735687
0.1273473
0.12734826
0.1273654
0.12739455
0.12742867
0.12745818
0.12749426
0.12753709
0.12758466
0.12763334
0.12768893
0.12774418
0.12780897
0.12787638
0.12795417
0.12804545
0.12815111
0.1282713
0.12840902
0.12857098
0.12875391
0.12896636
0.12922225
0.12957993
0.13012606
0.13091163
0.00049025751
0.0061577541
0.0088494572
0.0066806998
0.010997001
0.0072181426
0.010449952
0.019663903
0.019673805
0.025822597
0.018365833
0.026451896
0.047545742
0.057346528
0.083484124
0.095285399
0.11785587
0.12768933
0.12755004
0.12746731
0.12740977
0.12738523
0.12737827
0.12737417
0.12737486
0.12739354
0.12742746
0.12745729
0.12748753
0.12752436
0.12757019
0.12761802
0.12766922
0.12772495
0.12778191
0.12785295
0.12792083
0.12800248
0.12809886
0.12821047
0.12833404
0.12847729
0.12864425
0.12883443
0.12905175
0.1293208
0.1297035
0.13027162
0.13111759
0.00048814824
0.0056159222
0.0039887727
0.0051254198
0.0084281167
0.010903314
0.011969085
0.015926338
0.028052218
0.028500149
0.049341349
0.02171291
0.030557788
0.059436751
0.071606104
0.098716509
0.1165519
0.12769039
0.12755439
0.12748214
0.12743249
0.12740796
0.12739991
0.12739684
0.12740121
0.12742437
0.12745931
0.12748812
0.12751998
0.12755821
0.12760466
0.12765146
0.12770494
0.12776133
0.12782121
0.12789486
0.12796732
0.12805327
0.12815596
0.12827054
0.12839939
0.12854937
0.12872019
0.12891422
0.12914045
0.12942637
0.12983012
0.1304156
0.1313698
)
;

boundaryField
{
    Side
    {
        type            empty;
    }
    Inlet
    {
        type            calculated;
        value           nonuniform List<scalar> 
30
(
0.13196737
0.13193258
0.13195604
0.13198277
0.13200125
0.13200452
0.13202064
0.13203423
0.1320422
0.13205858
0.13208958
0.13212085
0.13216638
0.13221772
0.13227926
0.13234437
0.13240623
0.13245755
0.13249152
0.13250338
0.13261078
0.13261904
0.1326327
0.13265049
0.13266126
0.13268895
0.13275609
0.13279976
0.13253079
0.13208418
)
;
    }
    Airfoil
    {
        type            compressible::alphatWallFunction;
        value           nonuniform List<scalar> 
25
(
0.00066110758
0.00065493514
0.0006508312
0.0006490763
0.00064995425
0.00065221182
0.00065622379
0.00066100444
0.0006666767
0.00067285849
0.00067948094
0.00068641197
0.00069330589
0.00070001853
0.00070620662
0.00071181363
0.00071660764
0.00072025497
0.00072257073
0.00069054916
0.00068326413
0.00067638965
0.00067247838
0.00067014677
0.00066796246
)
;
    }
    Outlet
    {
        type            calculated;
        value           nonuniform List<scalar> 0();
    }
    procBoundary7to0
    {
        type            processor;
        value           nonuniform List<scalar> 
50
(
0.12797849
0.12795074
0.12793132
0.12792082
0.12791947
0.1279302
0.12795622
0.12798429
0.12804438
0.12806023
0.12829319
0.1072394
0.085519164
0.067055363
0.052443766
0.041010551
0.031753586
0.024275749
0.018324186
0.013617141
0.0098250836
0.0068343056
0.0045186736
0.0027464952
0.0016100327
0.00060624524
0.13291654
0.13188485
0.13127818
0.13095849
0.13066239
0.13036749
0.13007763
0.12981583
0.12958651
0.12938117
0.12919494
0.12902493
0.12887042
0.12873346
0.12861155
0.12850161
0.12840563
0.12832102
0.12824485
0.12817575
0.12811425
0.12805997
0.12797849
0.12801297
)
;
    }
    procBoundary7to8
    {
        type            processor;
        value           nonuniform List<scalar> 
53
(
0.12746619
0.12751724
0.12756921
0.12762951
0.12769449
0.12777022
0.12785682
0.12795624
0.12807339
0.12821522
0.12838883
0.12860277
0.12887734
0.12925832
0.12982256
0.1272495
0.12721141
0.12719789
0.12718806
0.127195
0.12720142
0.12722118
0.12725308
0.12728492
0.12732414
0.12736153
0.12739753
0.12744627
0.12744627
0.012932751
0.027477253
0.034331306
0.055104864
0.079231648
0.12230728
0.12775889
0.12758433
0.12743049
0.1273176
0.1273176
0.0078287168
0.009140537
0.013312
0.019672426
0.019754623
0.019636572
0.032352269
0.015946899
0.02263564
0.02263564
0.00053275791
0.013067916
0.013067916
)
;
    }
}


// ************************************************************************* //
