/*--------------------------------*- C++ -*----------------------------------*\
| =========                 |                                                 |
| \\      /  F ield         | OpenFOAM: The Open Source CFD Toolbox           |
|  \\    /   O peration     | Version:  2506                                  |
|   \\  /    A nd           | Website:  www.openfoam.com                      |
|    \\/     M anipulation  |                                                 |
\*---------------------------------------------------------------------------*/
FoamFile
{
    version     2.0;
    format      ascii;
    arch        "LSB;label=32;scalar=64";
    class       volScalarField;
    location    "2.85";
    object      alphat;
}
// * * * * * * * * * * * * * * * * * * * * * * * * * * * * * * * * * * * * * //

dimensions      [1 -1 -1 0 0 0 0];

internalField   nonuniform List<scalar> 
1375
(
0.031355956
0.038505629
0.047453306
0.057750668
0.068650863
0.079337727
0.027270009
0.031958893
0.039383499
0.048617253
0.059137752
0.070152701
0.080843462
0.09064061
0.099235731
0.10649201
0.11237585
0.11695415
0.12037933
0.12254377
0.12381985
0.1244203
0.12457212
0.12447173
0.12426218
0.027687927
0.032532188
0.040207657
0.049685088
0.060372514
0.071445201
0.082092959
0.091771099
0.10019574
0.10725109
0.11292499
0.11730752
0.12055085
0.12257844
0.12375844
0.12430082
0.12442431
0.12431577
0.12410863
0.1238809
0.12367671
0.12353988
0.12346386
0.12338455
0.12332984
0.12330021
0.12328608
0.028128286
0.033163261
0.041112029
0.050843473
0.061697714
0.072823076
0.083422342
0.092976662
0.10122602
0.10807542
0.11353396
0.11771401
0.12075911
0.12264141
0.1237158
0.12419292
0.12428372
0.12416446
0.12395795
0.12373579
0.12354509
0.12343291
0.12335649
0.1232778
0.12323091
0.12320659
0.12319669
0.12319731
0.12320568
0.12321951
0.12323785
0.12326046
0.12328679
0.12331694
0.02861964
0.033895147
0.04215991
0.052185907
0.063244734
0.07445558
0.085030733
0.094473004
0.10254289
0.10916566
0.11437458
0.11831308
0.12109971
0.12279286
0.12372516
0.12411207
0.12415579
0.12401851
0.12380916
0.12359289
0.1234221
0.12332955
0.12324798
0.12317446
0.1231347
0.12311507
0.12310878
0.12311205
0.1231223
0.12313766
0.1231574
0.12318121
0.12320869
0.12323999
0.12327545
0.12331564
0.12336128
0.12341293
0.029169335
0.03471866
0.043331002
0.05368372
0.064979747
0.076307255
0.086883022
0.096225534
0.10411167
0.11048617
0.11540978
0.11906763
0.12154399
0.12300847
0.12376987
0.12404855
0.12403565
0.1238757
0.12366206
0.12345466
0.12330889
0.12322773
0.12313954
0.12307523
0.12304151
0.12302577
0.12302238
0.12302781
0.12303967
0.12305642
0.12307744
0.12310237
0.12313087
0.12316315
0.12319973
0.12324109
0.12328773
0.1233403
0.12339993
0.12346862
0.12354795
0.02976009
0.035589872
0.044555959
0.055237481
0.06677
0.078212859
0.088786946
0.09802483
0.105719
0.11183397
0.11645942
0.11982712
0.12198705
0.12321822
0.12380946
0.1239824
0.12391515
0.12373383
0.12351754
0.12332274
0.1232039
0.12312332
0.12303442
0.12297942
0.12295082
0.12293831
0.12293723
0.12294438
0.12295763
0.12297564
0.12299779
0.12302379
0.12305335
0.1230867
0.12312418
0.12316659
0.12321436
0.12326801
0.12332862
0.12339818
0.12347834
0.12357205
0.12368261
0.12381594
0.030354466
0.036446784
0.045745594
0.056725453
0.068457744
0.079979107
0.090519774
0.09963094
0.10712446
0.11298617
0.11733312
0.12043966
0.12232641
0.12335872
0.12380973
0.12389802
0.12378867
0.12359178
0.12337661
0.12320097
0.1231034
0.1230171
0.12293283
0.12288593
0.12286176
0.12285211
0.12285298
0.12286165
0.12287622
0.12289542
0.12291872
0.12294582
0.12297643
0.12301066
0.12304914
0.12309255
0.12314118
0.12319586
0.12325757
0.12332793
0.12340895
0.12350338
0.12361463
0.12374847
0.12391281
0.12412234
0.030908791
0.037229447
0.046822168
0.058051808
0.069930495
0.081480129
0.091947644
0.10090943
0.10820156
0.11383249
0.11794284
0.12083885
0.12251995
0.12340659
0.12375934
0.12379076
0.12365454
0.1234494
0.12324092
0.12308937
0.12300444
0.12291066
0.12283477
0.12279415
0.12277356
0.12276648
0.12276934
0.12277961
0.12279553
0.12281597
0.12284039
0.12286843
0.12289987
0.12293508
0.12297452
0.1230186
0.12306823
0.12312392
0.12318651
0.12325783
0.12333968
0.12343479
0.12354675
0.12368095
0.12384549
0.12405573
0.12432478
0.12454294
0.03139383
0.037906228
0.04775273
0.059186851
0.071167301
0.082707866
0.093077081
0.10188035
0.10898043
0.1144084
0.11832464
0.121056
0.12259108
0.12337842
0.12366816
0.12366541
0.12351464
0.12330796
0.12311148
0.12298562
0.12290241
0.12280519
0.12273897
0.12270374
0.12268639
0.12268161
0.12268628
0.12269807
0.12271528
0.12273688
0.12276228
0.12279108
0.12282341
0.12285963
0.12289989
0.1229448
0.12299529
0.12305192
0.12311542
0.12318772
0.12327047
0.12336619
0.12347878
0.12361334
0.12377792
0.12398868
0.12425763
0.12446734
0.12255571
0.031810466
0.038489275
0.048562306
0.060173289
0.072232861
0.083750144
0.094016083
0.10266496
0.10958573
0.11483108
0.11858175
0.12117256
0.12259554
0.12330897
0.12355459
0.12352964
0.12337087
0.1231673
0.12298852
0.12288529
0.12279632
0.12270143
0.12264416
0.12261367
0.12259956
0.12259725
0.12260384
0.12261714
0.12263559
0.12265818
0.1226844
0.122714
0.12274709
0.12278392
0.12282518
0.12287128
0.12292239
0.12297984
0.12304448
0.12311776
0.12320114
0.12329754
0.12341062
0.12354538
0.12370997
0.12392119
0.12418994
0.124391
0.122382
0.032186764
0.039022898
0.049313027
0.061093258
0.073229349
0.084726282
0.094895558
0.10339809
0.11014729
0.11521722
0.11881132
0.12126462
0.12258348
0.12322859
0.12343434
0.12338978
0.12322491
0.12302803
0.12287224
0.12278358
0.12268676
0.12259944
0.12255019
0.12252402
0.12251296
0.12251306
0.12252159
0.12253641
0.12255601
0.12257967
0.12260685
0.12263725
0.12267111
0.12270879
0.12275076
0.12279747
0.1228495
0.12290792
0.12297332
0.12304735
0.12313147
0.12322872
0.12334218
0.12347699
0.1236419
0.12385371
0.12412176
0.12431374
0.12219836
0.032558929
0.039556032
0.050066629
0.062020413
0.074239582
0.085724593
0.09580521
0.10416623
0.11074376
0.11563448
0.11906834
0.12137184
0.12258096
0.12315267
0.12331521
0.12324916
0.12307865
0.12289198
0.12276133
0.12267791
0.12257491
0.12249897
0.12245698
0.12243508
0.12242709
0.12242952
0.12243984
0.12245606
0.12247673
0.12250118
0.12252916
0.12256049
0.12259518
0.1226336
0.1226762
0.12272335
0.12277619
0.1228353
0.12290162
0.1229764
0.12306147
0.12315957
0.12327348
0.12340864
0.12357385
0.12378607
0.12405308
0.12423499
0.12200505
0.03295333
0.040125479
0.05086581
0.062999016
0.075304819
0.086780118
0.096772449
0.10498917
0.11138862
0.1160921
0.11935855
0.1214973
0.12259019
0.12308283
0.12319851
0.12310944
0.12293436
0.12276031
0.12265405
0.12256663
0.12246449
0.1224001
0.12236473
0.12234704
0.12234208
0.12234678
0.12235876
0.12237618
0.12239787
0.12242319
0.12245175
0.1224836
0.12251906
0.12255825
0.12260141
0.12264933
0.12270268
0.12276237
0.12282951
0.12290517
0.12299145
0.12309028
0.1232047
0.12334024
0.12350567
0.1237184
0.12398406
0.12415462
0.1218027
0.03337552
0.040740961
0.051716844
0.064027477
0.076413851
0.08787259
0.097769925
0.10583533
0.11204973
0.11656056
0.11965595
0.12162313
0.12259957
0.12301304
0.12308217
0.12297097
0.12279359
0.12263688
0.12254821
0.12245243
0.12235725
0.12230318
0.12227374
0.12226001
0.12225792
0.12226472
0.12227818
0.12229667
0.12231923
0.12234534
0.12237473
0.12240727
0.1224431
0.1224828
0.12252671
0.12257527
0.12262926
0.12268953
0.12275728
0.12283392
0.12292099
0.12302062
0.12313573
0.12327175
0.12343763
0.12365066
0.1239146
0.12407283
0.12159228
0.033816785
0.041396216
0.052607366
0.065083339
0.077533146
0.088958864
0.098748328
0.1066541
0.11268016
0.11699981
0.11992785
0.12172904
0.12259643
0.12293679
0.12296384
0.12283404
0.1226585
0.12252231
0.12244258
0.12233793
0.12225396
0.1222085
0.12218425
0.12217409
0.12217461
0.1221833
0.12219808
0.12221753
0.12224086
0.12226768
0.12229777
0.12233104
0.12236756
0.12240764
0.12245192
0.12250113
0.12255582
0.12261675
0.12268521
0.12276236
0.12285019
0.12295068
0.12306665
0.12320328
0.12336957
0.12358268
0.1238449
0.12398975
0.12137481
0.034262825
0.04207148
0.053508973
0.06612983
0.078619475
0.089991504
0.099658947
0.10739936
0.11324006
0.11737795
0.12014992
0.12180137
0.12257309
0.12285072
0.12284274
0.12269987
0.12253099
0.12241571
0.12233494
0.12222658
0.12215441
0.12211596
0.12209616
0.12208925
0.12209216
0.12210252
0.12211846
0.12213878
0.12216286
0.12219034
0.12222103
0.12225489
0.12229205
0.12233278
0.12237754
0.12242716
0.12248238
0.12254404
0.1226131
0.12269098
0.12277928
0.12288047
0.12299746
0.12313463
0.12330138
0.1235145
0.12377458
0.12390545
0.1211519
0.034705109
0.04274852
0.054399086
0.067143092
0.079649314
0.090947971
0.10048097
0.108053
0.11371493
0.11768442
0.1203152
0.12183741
0.12252831
0.12275457
0.1227197
0.12256999
0.12241118
0.12231487
0.12222613
0.12211999
0.12205819
0.12202539
0.1220093
0.12200521
0.1220103
0.12202224
0.12203933
0.12206049
0.12208522
0.12211333
0.12214464
0.12217907
0.12221676
0.12225802
0.12230335
0.12235345
0.12240921
0.1224714
0.12254102
0.12261954
0.12270839
0.12281016
0.12292776
0.12306559
0.12323297
0.1234461
0.1237038
0.12382053
0.12092353
0.035147433
0.043425437
0.055279141
0.068131678
0.080638421
0.091848844
0.10123666
0.10863629
0.11412316
0.11793379
0.12043485
0.12184441
0.12246689
0.12265101
0.12259552
0.12244348
0.12229886
0.1222163
0.12211703
0.12201789
0.12196448
0.12193616
0.12192343
0.12192208
0.12192919
0.12194259
0.12196075
0.12198266
0.12200801
0.12203666
0.12206849
0.12210348
0.12214169
0.12218345
0.12222931
0.1222799
0.12233612
0.12239886
0.12246891
0.12254784
0.12263739
0.1227397
0.12285766
0.12299612
0.12316418
0.12337749
0.12363256
0.1237349
0.12068866
0.035596548
0.044105752
0.056162113
0.069122088
0.081626026
0.092742149
0.10197715
0.10919777
0.1145061
0.11815809
0.12053245
0.12183567
0.12239589
0.1225431
0.12247137
0.12232099
0.12219335
0.12211736
0.12200807
0.12191929
0.12187306
0.12184865
0.12183866
0.12183951
0.12184847
0.12186338
0.12188257
0.12190526
0.12193125
0.12196037
0.12199261
0.12202808
0.12206681
0.12210902
0.12215534
0.12220648
0.12226311
0.12232625
0.12239678
0.12247612
0.12256618
0.12266888
0.12278729
0.12292629
0.12309505
0.12330855
0.12356087
0.12364815
0.1204467
0.036051264
0.044785352
0.057053495
0.070134398
0.0826472
0.093674454
0.10275453
0.10978832
0.11490791
0.11839182
0.1206337
0.12182602
0.12232344
0.12243457
0.12234865
0.12220291
0.12209304
0.12201525
0.12190062
0.12182315
0.12178294
0.12176233
0.12175519
0.12175802
0.12176841
0.12178444
0.12180461
0.12182815
0.12185476
0.1218844
0.12191709
0.12195292
0.12199214
0.12203493
0.12208167
0.12213318
0.12219017
0.12225365
0.12232457
0.12240434
0.12249477
0.1225978
0.12271659
0.1228561
0.12302554
0.12323914
0.12348885
0.12356007
0.12019562
0.036497818
0.045442828
0.057931478
0.071151402
0.083693721
0.094648603
0.10358148
0.11042663
0.11534851
0.1186525
0.1207527
0.12182435
0.12225439
0.12232795
0.12222893
0.12208936
0.12199528
0.12190931
0.12179553
0.12172866
0.12169368
0.12167658
0.1216722
0.12167725
0.12168934
0.12170648
0.12172744
0.12175161
0.12177874
0.12180882
0.12184191
0.12187808
0.12191761
0.12196093
0.12200823
0.12206012
0.12211745
0.1221812
0.12225247
0.12233253
0.12242323
0.12252663
0.12264566
0.12278554
0.12295556
0.12316948
0.12341657
0.12347037
0.11993222
0.036917924
0.046052183
0.058761163
0.072130557
0.08471969
0.095621087
0.10442179
0.11108617
0.1158108
0.11893042
0.1208846
0.12182967
0.12218864
0.12222378
0.12211262
0.12197961
0.12189891
0.12180116
0.12169343
0.12163586
0.12160555
0.12159158
0.12158963
0.12159665
0.12161026
0.12162865
0.12165065
0.12167554
0.12170322
0.1217337
0.12176701
0.12180348
0.12184338
0.12188695
0.12193463
0.12198704
0.12204485
0.12210901
0.12218056
0.12226085
0.12235174
0.12245541
0.12257457
0.12271462
0.12288519
0.12309961
0.1233439
0.12337872
0.11965452
0.037298685
0.046597851
0.059515888
0.073030833
0.085671017
0.096530241
0.10521404
0.1117129
0.11625244
0.11919571
0.12100966
0.12183236
0.12212176
0.12212045
0.12199908
0.12187538
0.12180171
0.1216926
0.1215945
0.12154495
0.12151903
0.12150818
0.12150841
0.12151693
0.1215316
0.12155084
0.12157355
0.12159914
0.12162739
0.12165826
0.12169204
0.12172892
0.12176915
0.12181311
0.12186123
0.12191392
0.12197204
0.12203661
0.12210849
0.12218915
0.12228028
0.12238408
0.12250328
0.12264339
0.12281443
0.12302926
0.12327089
0.12328462
0.11936092
0.03763721
0.047076522
0.060182657
0.073825535
0.086505596
0.097322759
0.10590024
0.11225162
0.11662713
0.1194151
0.12110312
0.12181958
0.1220476
0.12201562
0.12188825
0.1217763
0.12170311
0.12158469
0.12149861
0.12145579
0.12143383
0.12142577
0.12142798
0.12143787
0.12145351
0.12147344
0.12149671
0.12152288
0.12155175
0.12158326
0.12161748
0.12165464
0.12169507
0.12173918
0.12178756
0.12184071
0.12189916
0.12196395
0.12203635
0.12211751
0.12220884
0.12231264
0.12243181
0.12257188
0.12274329
0.12295869
0.12319754
0.1231879
0.11905073
0.087220555
0.097985649
0.10645919
0.1126769
0.11690975
0.1195692
0.12114843
0.12178146
0.12196085
0.12190685
0.12177903
0.12167993
0.12160086
0.12147928
0.12140487
0.12136777
0.12134949
0.12134412
0.12134824
0.12135947
0.12137603
0.12139665
0.12142049
0.1214472
0.12147656
0.12150845
0.12154294
0.12158028
0.12162101
0.12166556
0.12171409
0.12176755
0.12182649
0.12189156
0.12196419
0.12204561
0.12213722
0.12224106
0.12236021
0.12250022
0.12267192
0.1228879
0.12312369
0.12308917
0.11872414
0.11966184
0.12114834
0.12171738
0.12186097
0.12179402
0.12167083
0.1215842
0.12149563
0.12137695
0.121313
0.12128082
0.1212659
0.12126304
0.12126895
0.12128139
0.12129872
0.12131994
0.12134437
0.12137158
0.12140133
0.12143367
0.12146863
0.12150649
0.12154748
0.12159205
0.12164088
0.12169439
0.12175357
0.12181913
0.12189186
0.12197339
0.12206532
0.12216935
0.12228851
0.12242854
0.12260048
0.1228167
0.12304929
0.12298839
0.11838319
0.1214882
0.12138847
0.12127767
0.12122272
0.12119487
0.12118305
0.12118257
0.12119026
0.12120389
0.12122204
0.12124374
0.12126858
0.12129619
0.12132639
0.1213592
0.12139456
0.12143271
0.12147404
0.12151899
0.12156805
0.12162168
0.12168083
0.12174639
0.12181943
0.12190115
0.1219932
0.12209745
0.12221666
0.12235677
0.12252895
0.12274513
0.12297414
0.1228854
0.11803109
0.12110977
0.12110086
0.12110267
0.12111206
0.12112687
0.12114586
0.12116823
0.12119345
0.12122133
0.1212518
0.12128486
0.12132064
0.12135921
0.12140093
0.12144619
0.12149553
0.12154948
0.12160848
0.12167393
0.12174702
0.12182894
0.12192106
0.12202527
0.12214454
0.1222848
0.12245736
0.12267353
0.12289814
0.12278047
0.11766986
0.12105018
0.12107006
0.12109301
0.12111867
0.12114694
0.12117776
0.12121111
0.12124707
0.12128595
0.12132801
0.12137366
0.12142323
0.12147737
0.12153658
0.12160198
0.12167487
0.12175673
0.12184885
0.12195301
0.12207218
0.1222126
0.12238572
0.12260181
0.1228215
0.12267364
0.11730045
0.12107288
0.12110408
0.12113774
0.12117392
0.12121301
0.12125536
0.12130118
0.121351
0.12140533
0.1214648
0.12153035
0.12160313
0.12168466
0.12177657
0.12188058
0.12199965
0.12214024
0.1223138
0.1225296
0.12274431
0.12256445
0.11692397
0.12110089
0.12114019
0.12118277
0.12122894
0.12127892
0.12133329
0.12139304
0.12145866
0.12153148
0.1216128
0.12170435
0.12180795
0.1219269
0.12206763
0.12224155
0.1224569
0.12266632
0.12245304
0.11654095
0.12115666
0.12120689
0.12126145
0.12132126
0.12138698
0.12145975
0.12154093
0.12163216
0.12173538
0.12185401
0.12199476
0.12216905
0.12238375
0.12258732
0.12233895
0.11615126
0.1211897
0.12124941
0.12131521
0.12138796
0.12146899
0.12155989
0.12166275
0.12178097
0.12192168
0.12209613
0.12231007
0.1225074
0.12222147
0.11575497
0.12131618
0.12139699
0.12148751
0.12158993
0.1217078
0.1218484
0.12202294
0.122236
0.12242665
0.12210023
0.11535184
0.12141502
0.12151695
0.12163451
0.12177495
0.12194961
0.12216151
0.12234522
0.12197497
0.1149431
0.12156113
0.12170135
0.121876
0.12208676
0.12226297
0.12184602
0.11461615
0.12162781
0.12180218
0.12201154
0.12217967
0.12171229
0.1141911
0.12193593
0.12209529
0.12157272
0.1135876
0.1220097
0.12142852
0.11321212
0.12127998
0.11300194
)
;

boundaryField
{
    Side
    {
        type            empty;
    }
    Inlet
    {
        type            calculated;
        value           nonuniform List<scalar> 
32
(
0.13278065
0.1327794
0.13277958
0.13278
0.13278035
0.13278066
0.13278058
0.13278074
0.13278137
0.13278138
0.1327817
0.13278292
0.13278347
0.13278275
0.1327811
0.13277839
0.13277459
0.13277015
0.13276833
0.13276878
0.1327699
0.1327711
0.13277248
0.13277436
0.13277699
0.13278001
0.13278276
0.13278509
0.13278652
0.13278727
0.13278798
0.13278872
)
;
    }
    Airfoil
    {
        type            compressible::alphatWallFunction;
        value           nonuniform List<scalar> 0();
    }
    Outlet
    {
        type            calculated;
        value           nonuniform List<scalar> 0();
    }
    procBoundary4to3
    {
        type            processor;
        value           nonuniform List<scalar> 
57
(
0.030655959
0.037472243
0.046060051
0.056048573
0.066747326
0.077352467
0.089222618
0.089222618
0.097976771
0.10544423
0.11156891
0.11638356
0.12004234
0.12239827
0.12381461
0.12450584
0.12470704
0.12462585
0.12441769
0.12402864
0.12402864
0.12381398
0.12365379
0.1235689
0.1234936
0.12343105
0.12339544
0.12337657
0.12328357
0.12328357
0.12328994
0.12330225
0.12331915
0.12334045
0.12336543
0.1233943
0.1233513
0.1233513
0.1233905
0.12343499
0.12348544
0.12347145
0.12347145
0.12353903
0.12361746
0.12364089
0.12364089
0.12375089
0.12388345
0.12397985
0.12397985
0.12418849
0.12439125
0.12439125
0.12461786
0.12271986
0.12271986
)
;
    }
    procBoundary4to5
    {
        type            processor;
        value           nonuniform List<scalar> 
64
(
0.047501934
0.060772341
0.074518621
0.074518621
0.087868235
0.098562371
0.10692305
0.1130094
0.11711204
0.11711204
0.11972202
0.12112069
0.12163581
0.12175214
0.12167891
0.12156312
0.12156312
0.12139129
0.12128048
0.12118111
0.12113374
0.12113374
0.1210257
0.12101927
0.12102303
0.12103405
0.12103405
0.12097365
0.12099423
0.12101779
0.12104411
0.12104411
0.12099843
0.12102995
0.12106411
0.12106411
0.12102724
0.1210673
0.12111017
0.12111017
0.12108409
0.12113469
0.12113469
0.12111736
0.12117769
0.12124351
0.12124351
0.12124446
0.12132497
0.12132497
0.12134256
0.12144407
0.12144407
0.12148785
0.12148785
0.1215543
0.12172848
0.12172848
0.12186002
0.12186002
0.12192276
0.12192276
0.12112351
0.11265952
)
;
    }
    procBoundary4to11
    {
        type            processor;
        value           nonuniform List<scalar> 
26
(
0.02702359
0.027510234
0.027980637
0.028448266
0.028941529
0.029479328
0.030053562
0.030632698
0.031180264
0.031677134
0.032131326
0.03256778
0.033006046
0.03344733
0.033876515
0.034278066
0.034652068
0.035014386
0.035389908
0.035798767
0.036245813
0.036718689
0.037194463
0.037652711
0.026835512
0.026835512
)
;
    }
    procBoundary4to12
    {
        type            processor;
        value           uniform 0.037943407;
    }
}


// ************************************************************************* //
