/*--------------------------------*- C++ -*----------------------------------*\
| =========                 |                                                 |
| \\      /  F ield         | OpenFOAM: The Open Source CFD Toolbox           |
|  \\    /   O peration     | Version:  2506                                  |
|   \\  /    A nd           | Website:  www.openfoam.com                      |
|    \\/     M anipulation  |                                                 |
\*---------------------------------------------------------------------------*/
FoamFile
{
    version     2.0;
    format      ascii;
    arch        "LSB;label=32;scalar=64";
    class       surfaceScalarField;
    location    "0.011";
    object      phi;
}
// * * * * * * * * * * * * * * * * * * * * * * * * * * * * * * * * * * * * * //

dimensions      [1 0 -1 0 0 0 0];

oriented        oriented;

internalField   nonuniform List<scalar> 
26945
(
-0.0015686172
-1.903979
1.9043566
-0.0019203057
-1.7748644
1.7752275
-0.0022544984
-1.6549534
1.6553097
-0.0025572468
-1.5431897
1.5435151
-0.0028488079
-1.4395211
1.4398135
-0.0031426147
-1.3426917
1.3429898
-0.0033993267
-1.2524028
1.2526685
-0.0036097427
-1.1678462
1.168059
-0.0037887444
-1.0894286
1.0895963
-0.0039209282
-1.0159604
1.0160832
-0.0040151118
-0.94736903
0.94746522
-0.0040716935
-0.88318532
0.88325459
-0.0040935522
-0.8231456
0.82318894
-0.0040729858
-0.76686606
0.76687766
-0.0040149394
-0.71418163
0.71417093
-0.0039095563
-0.66478118
0.66472032
-0.0037885173
-0.6185527
0.61847311
-0.0036426342
-0.57527231
0.57516289
-0.0034705879
-0.53482413
0.53468018
-0.0032761421
-0.49695078
0.49677637
-0.003065361
-0.46159256
0.46139624
-0.0028424661
-0.42854849
0.4283368
-0.0026098482
-0.39769634
0.39747287
-0.0023709493
-0.3688791
0.36864689
-0.0021284524
-0.34205406
0.34181693
-0.0018841365
-0.31696683
0.3167272
-0.0016406835
-0.2936682
0.29343001
-0.0013994745
-0.27193212
0.27169708
-0.0011625446
-0.25168868
0.25145649
-0.00093200797
-0.23291829
0.23269131
-0.00070879149
-0.21545568
0.21523701
-0.00049478408
-0.19924376
0.19903571
-0.00029005256
-0.18418582
0.18398699
-9.4259307e-05
-0.17022819
0.17003647
9.2864728e-05
-0.15733272
0.15714775
0.00027107292
-0.14536486
0.14518808
0.00043810209
-0.13426519
0.13409953
0.00059430267
-0.123996
0.12384173
0.00074019585
-0.11448716
0.1143435
0.00087616655
-0.10569705
0.10556323
0.0010019379
-0.097575877
0.097452287
0.0011179297
-0.09005917
0.089945231
0.001224397
-0.083108749
0.083004201
0.0013226812
-0.076691262
0.076594767
0.001412698
-0.070763314
0.070674757
0.0014946725
-0.065286861
0.065205987
0.0015694817
-0.060231967
0.060158077
0.0016375116
-0.055566054
0.055498851
0.0016995249
-0.051255326
0.051194079
0.0017556997
-0.047276189
0.047220804
0.0018066445
-0.043608153
0.043557893
0.0018525497
-0.040223871
0.040178392
0.0018930359
-0.037098481
0.037058289
0.0019290781
-0.034215538
0.034179931
0.001960647
-0.031555432
0.031524496
0.0019813425
-0.029099154
0.029079105
0.0019812986
-0.026827815
0.026828432
0.0019416386
-0.02471143
0.024751632
0.0018619077
-0.022740333
0.022820563
0.0017762491
-0.020795266
0.020881356
0.0017402848
-0.018456064
0.018492358
0.0016837075
-0.016136543
0.016193393
0.0016170092
-0.014251554
0.014318491
0.0015466885
-0.012654613
0.012725143
0.0014744158
-0.011275929
0.011348394
0.0014002521
-0.010073322
0.010147664
0.0013247917
-0.0090183071
0.0090939342
0.0012494236
-0.0080873482
0.0081628724
0.0011752296
-0.0072630209
0.0073373612
0.0011029256
-0.0065307055
0.0066031461
0.0010329574
-0.0058789376
0.0059490333
0.00096561311
-0.0052970264
0.0053644899
0.00090107365
-0.0047773183
0.0048419688
0.00083945565
-0.0043120409
0.0043737622
0.00078082256
-0.0038940441
0.003952773
0.00072513193
-0.0035185523
0.0035743317
0.0006722835
-0.0031806634
0.0032335941
0.0006221611
-0.0028763365
0.0029265351
0.00057463854
-0.0026019956
0.0026495887
0.00052958796
-0.0023543689
0.0023994846
0.00048688854
-0.0021303273
0.0021730869
0.00044640693
-0.0019279489
0.0019684861
0.00040803542
-0.0017443055
0.0017827284
0.00037165124
-0.0015780755
0.0016145071
0.00033714671
-0.0014273143
0.0014618627
0.00030442741
-0.0012901078
0.0013228675
0.00027338333
-0.0011658271
0.0011969085
0.00024392933
-0.0010528488
0.0010823373
0.00021601335
-0.00094951524
0.00097746309
0.00018958559
-0.00085537719
0.00088183433
0.00016461767
-0.00076965241
0.00079464747
0.00014112008
-0.00069135751
0.00071488013
0.00011915104
-0.0006195762
0.00064156822
9.8819033e-05
-0.00055345693
0.00057381014
8.0267704e-05
-0.00049191435
0.00051048504
6.3620343e-05
-0.00043434262
0.00045100781
4.9016866e-05
-0.00038010336
0.00039472306
3.6610325e-05
-0.00032765271
0.0003400742
2.6471704e-05
-0.00027588356
0.00028603582
1.8471229e-05
-0.00022389272
0.00023190609
1.2231149e-05
-0.00017166483
0.00017791681
7.3483761e-06
-0.00012199883
0.00012689272
3.6772435e-06
-7.8284201e-05
8.1965529e-05
1.1518811e-06
-4.1881036e-05
4.4415675e-05
-1.2552229e-05
1.3710817e-05
-0.0018651101
-0.0022288084
-1.7744952
-0.0025732202
-1.6545995
-0.0028865196
-1.5428681
-0.0031916903
-1.4392229
-0.0034982835
-1.3423879
-0.0037659199
-1.2521314
-0.0039862983
-1.1676296
-0.0041770055
-1.0892541
-0.0043201239
-1.0158262
-0.0044243837
-0.94726121
-0.004490991
-0.88310193
-0.0045217699
-0.82309008
-0.004511081
-0.76683562
-0.0044626119
-0.71418398
-0.004366716
-0.66483224
-0.0042538908
-0.61862306
-0.004115773
-0.57537454
-0.0039513953
-0.53496188
-0.003763946
-0.49711963
-0.0035603037
-0.46178278
-0.0033433322
-0.4287548
-0.0031159814
-0.39791525
-0.00288111
-0.3691079
-0.0026409981
-0.34228933
-0.0023990426
-0.31720434
-0.0021584178
-0.29390338
-0.0019193431
-0.27216499
-0.0016833423
-0.25192031
-0.0014540769
-0.23314398
-0.001233542
-0.21567123
-0.001021648
-0.19944948
-0.00081797704
-0.18438408
-0.00062329097
-0.17041966
-0.0004397682
-0.15751474
-0.00026750995
-0.14553603
-0.0001064373
-0.13442488
4.4589621e-05
-0.12414497
0.00018731458
-0.11462766
0.00031974594
-0.10582743
0.0004423467
-0.097696541
0.00055537645
-0.090170563
0.00065899045
-0.083210944
0.00075382138
-0.076784791
0.00083948925
-0.070847991
0.00091633199
-0.065363085
0.00098449344
-0.060299663
0.0010442286
-0.055625177
0.0010954664
-0.051305685
0.001139039
-0.047318812
0.0011753586
-0.043643679
0.0012044051
-0.040252223
0.0012273068
-0.037120754
0.0012448926
-0.034232651
0.0012578198
-0.03156798
0.0012703978
-0.029111303
0.0012886817
-0.026845588
0.0013213307
-0.024743556
0.0013696481
-0.022788157
0.001408955
-0.020834158
0.0013921343
-0.018438928
0.001365538
-0.016109689
0.0013423647
-0.014228153
0.0013209015
-0.012632942
0.0012971039
-0.01125194
0.0012708806
-0.01004692
0.001241279
-0.0089885392
0.0012079014
-0.0080538152
0.001170842
-0.0072258163
0.0011304123
-0.0064901402
0.0010869785
-0.0058353775
0.0010410103
-0.0052509403
0.00099303978
-0.0047292381
0.00094365585
-0.0042625549
0.0008934947
-0.003843788
0.00084317325
-0.0034681427
0.00079324691
-0.0031306553
0.00074414624
-0.00282716
0.00069618847
-0.0025539677
0.00064960816
-0.0023077236
0.00060458144
-0.0020852405
0.00056121992
-0.0018845318
0.00051960322
-0.0017026374
0.0004797614
-0.0015381862
0.00044169382
-0.0013892029
0.00040538474
-0.0012537583
0.0003707757
-0.0011311807
0.00033779724
-0.0010198359
0.00030638433
-0.00091807047
0.00027644151
-0.00082540501
0.00024785979
-0.00074104361
0.00022052685
-0.00066399967
0.00019433139
-0.00059335779
0.00016917476
-0.00052827919
0.00014501005
-0.0004677303
0.00012185512
-0.00041116995
9.9735717e-05
-0.00035796777
7.878153e-05
-0.00030668373
5.9214554e-05
-0.00025630307
4.1451746e-05
-0.0002061173
2.6180537e-05
-0.00015638197
1.4181779e-05
-0.00010998922
5.9056549e-06
-6.9998101e-05
1.3340092e-06
-3.7300262e-05
-1.121093e-05
-0.0025014577
-1.7741188
-0.0028557824
-1.6542417
-0.0031801894
-1.5425418
-0.003497532
-1.4389211
-0.0038160139
-1.3420798
-0.0040945772
-1.2518548
-0.0043241058
-1.1674104
-0.0045251843
-1.0890717
-0.0046786592
-1.0156805
-0.0047934591
-0.94714046
-0.0048709924
-0.88300379
-0.0049116522
-0.82301467
-0.0049101937
-0.76679373
-0.0048724447
-0.71417443
-0.004790059
-0.66486789
-0.0046798544
-0.61869071
-0.0045499014
-0.57546909
-0.0043948166
-0.5350918
-0.0042160389
-0.49728111
-0.0040196314
-0.46196679
-0.0038087096
-0.42895573
-0.0035868182
-0.39812948
-0.0033570149
-0.36933216
-0.0031228108
-0.34251873
-0.0028861106
-0.31743638
-0.0026488891
-0.29413496
-0.0024122012
-0.27239572
-0.0021791466
-0.25214921
-0.001953024
-0.23336621
-0.0017337802
-0.21588527
-0.0015219891
-0.19965529
-0.0013190726
-0.18458211
-0.0011254169
-0.17061071
-0.0009426115
-0.15769643
-0.00077076383
-0.14570696
-0.0006097511
-0.13458444
-0.00045936952
-0.12429313
-0.00031951036
-0.11476509
-0.00019024418
-0.10595434
-7.1875497e-05
-0.097812632
3.6546665e-05
-0.09027697
0.00013559982
-0.08330816
0.00022506262
-0.076872637
0.00030578716
-0.07092749
0.00037739077
-0.06543378
0.0004398691
-0.060361324
0.00049418642
-0.055678726
0.00054162132
-0.051352476
0.00058230747
-0.047358967
0.00061608111
-0.043677034
0.0006428918
-0.040278735
0.00066173882
-0.037139228
0.00067262034
-0.034242948
0.00067723394
-0.031571952
0.00067352171
-0.029107025
0.00065915022
-0.026830729
0.00064642267
-0.024730349
0.00063675907
-0.02277803
0.00063781226
-0.020834786
0.00066201359
-0.018462806
0.00066348367
-0.016110906
0.00065158342
-0.014216035
0.00063210586
-0.012613268
0.0006105155
-0.011230171
0.00058574535
-0.010021986
0.00055907455
-0.0089617158
0.00053150709
-0.0080261057
0.00050340376
-0.0071975809
0.000475194
-0.0064618075
0.00044735136
-0.0058074203
0.00042014595
-0.0052236283
0.00039369481
-0.0047026876
0.00036806953
-0.0042368373
0.00034334132
-0.003818974
0.00031960408
-0.0034443258
0.00029686284
-0.0031078402
0.00027508681
-0.0028053156
0.00025425967
-0.0025330772
0.00023437024
-0.0022877755
0.00021540776
-0.0020662238
0.00019735495
-0.0018664289
0.0001802023
-0.0016854385
0.00016392901
-0.0015218702
0.00014851588
-0.0013737504
0.00013394384
-0.00123915
0.00012018117
-0.0011173846
0.00010719767
-0.0010068217
9.4967119e-05
-0.00090581173
8.3459413e-05
-0.00081387145
7.2645368e-05
-0.00073020589
6.250057e-05
-0.00065383319
5.3013091e-05
-0.00058385055
4.4182952e-05
-0.0005194311
3.6032091e-05
-0.00045956316
2.8594739e-05
-0.00040371787
2.1924009e-05
-0.00035128376
1.6084286e-05
-0.00030083216
1.1164205e-05
-0.00025137223
7.2238911e-06
-0.00020216728
4.2827792e-06
-0.00015343178
2.2659688e-06
-0.00010796403
9.9273784e-07
-6.8717288e-05
2.6490772e-07
-3.6565576e-05
-1.0939425e-05
-0.0027443075
-1.7737399
-0.003110411
-1.6538738
-0.0034450099
-1.542208
-0.0037755927
-1.4386139
-0.0041063218
-1.3417653
-0.0043934897
-1.251573
-0.0046324789
-1.1671868
-0.0048448254
-1.0888783
-0.005007729
-1.0155242
-0.0051321967
-0.94700728
-0.0052186007
-0.88289556
-0.0052673188
-0.82292363
-0.0052755726
-0.76674042
-0.0052466914
-0.71415377
-0.005176004
-0.66489074
-0.005070791
-0.61875361
-0.0049476699
-0.57555815
-0.0047999845
-0.5352158
-0.0046280629
-0.49743685
-0.0044381632
-0.46214503
-0.0042327424
-0.42915175
-0.0040154554
-0.39833985
-0.0037900972
-0.36955217
-0.0035586457
-0.34274542
-0.0033236005
-0.31766676
-0.0030884975
-0.29436424
-0.0028542846
-0.27262409
-0.002622722
-0.25237689
-0.002396642
-0.23358849
-0.0021781488
-0.21609854
-0.0019678975
-0.19985977
-0.0017662785
-0.18477958
-0.0015741892
-0.17080107
-0.0013931883
-0.15787683
-0.0012233047
-0.1458762
-0.001064381
-0.13474198
-0.00091589182
-0.12443945
-0.00077766358
-0.11490114
-0.00064950412
-0.10608054
-0.00053128403
-0.097929077
-0.00042301031
-0.0903838
-0.00032488304
-0.083404971
-0.00023619308
-0.076960152
-0.00015692678
-0.071005932
-8.6548508e-05
-0.065503615
-2.472576e-05
-0.06042263
2.8425544e-05
-0.055731132
7.2835084e-05
-0.051395905
0.00010948541
-0.047394678
0.00013952968
-0.043706427
0.00016360578
-0.040302353
0.00018350415
-0.037158773
0.00019989465
-0.034259083
0.00021056723
-0.031582262
0.00021837433
-0.029114321
0.0002282487
-0.026840058
0.00023518717
-0.024736766
0.00023612844
-0.022778497
0.00026417117
-0.020862351
0.00034082182
-0.018539144
0.00038744351
-0.016157273
0.0004171655
-0.014245534
0.00043557417
-0.012631477
0.00044381498
-0.01123823
0.00044459709
-0.010022602
0.00043956752
-0.0089565328
0.00043041891
-0.0080168152
0.00041874212
-0.0071857726
0.00040547926
-0.0064484227
0.00039112578
-0.0057929537
0.000375964
-0.0052083615
0.00036009857
-0.0046867249
0.00034362313
-0.0042202715
0.00032658302
-0.0038018502
0.00030903459
-0.0034266997
0.00029114317
-0.0030898768
0.00027313222
-0.0027872379
0.00025521384
-0.0025150971
0.00023756051
-0.0022700651
0.0002202933
-0.0020489039
0.00020350342
-0.0018495904
0.00018726694
-0.0016691571
0.00017164093
-0.0015062028
0.00015666666
-0.001358738
0.00014236988
-0.001224818
0.0001287575
-0.0011037399
0.0001158285
-0.00099386291
0.00010358003
-0.00089353592
9.1996907e-05
-0.00080226323
8.1055828e-05
-0.00071924179
7.0735783e-05
-0.00064349212
6.1016949e-05
-0.00057411242
5.1886424e-05
-0.000510283
4.3343487e-05
-0.00045100417
3.5398279e-05
-0.00039575813
2.8073687e-05
-0.00034394598
2.1438484e-05
-0.00029418506
1.5592374e-05
-0.00024551528
1.062593e-05
-0.00019719091
6.6119627e-06
-0.00014940855
3.5780509e-06
-0.00010492152
1.5094111e-06
-6.6640807e-05
3.5217759e-07
-3.5401206e-05
-1.0580833e-05
-0.0029574137
-1.7733598
-0.0033321146
-1.6535044
-0.0036768902
-1.5418723
-0.0040197903
-1.4383029
-0.0043614016
-1.3414454
-0.0046581328
-1.2512849
-0.0049056721
-1.1669591
-0.0051275942
-1.0886739
-0.0053002447
-1.0153564
-0.0054349954
-0.94685985
-0.0055310002
-0.88277086
-0.0055897083
-0.82281988
-0.0056062712
-0.76667494
-0.005586709
-0.71412071
-0.0055268601
-0.66490224
-0.0054296402
-0.61880888
-0.0053122391
-0.57564264
-0.0051730464
-0.53533264
-0.0050094849
-0.49758522
-0.0048268897
-0.46231673
-0.0046271622
-0.42934286
-0.0044153727
-0.39854533
-0.0041946658
-0.36976764
-0.0039678055
-0.34296744
-0.003737661
-0.31789183
-0.0035063366
-0.29458942
-0.0032742465
-0.27285077
-0.0030444481
-0.25260323
-0.0028212539
-0.23380757
-0.0026050321
-0.21630915
-0.0023953876
-0.20006383
-0.0021939399
-0.18497751
-0.002002137
-0.17099167
-0.0018213025
-0.15805722
-0.0016514378
-0.14604525
-0.0014923187
-0.13489935
-0.001343456
-0.12458582
-0.0012051056
-0.11503695
-0.0010776018
-0.10620561
-0.00096072523
-0.098043717
-0.00085411169
-0.090488498
-0.00075734126
-0.083499984
-0.00066967534
-0.077046338
-0.00059079484
-0.071083689
-0.00052077048
-0.065572709
-0.00045920351
-0.060483289
-0.00040456009
-0.055784928
-0.00035560358
-0.051444247
-0.00031262674
-0.04743725
-0.00027598629
-0.043742705
-0.00024551338
-0.040332393
-0.00022170425
-0.03718201
-0.0002038744
-0.03427627
-0.0001881377
-0.031597492
-0.00017601453
-0.029126065
-0.00017583143
-0.026839875
-0.00017457989
-0.024737638
-0.00016256888
-0.022790127
-0.00014486184
-0.020879724
-6.4512378e-05
-0.018619219
2.0279162e-06
-0.01622357
4.7918689e-05
-0.014291203
8.3544531e-05
-0.012666901
0.00011056896
-0.011265071
0.00013106444
-0.010042929
0.00014596166
-0.0089712761
0.0001558524
-0.0080265645
0.00016151806
-0.007191308
0.00016375753
-0.0064505418
0.00016333378
-0.0057924185
0.00016097218
-0.0052058966
0.00015731843
-0.0046829756
0.00015273552
-0.0042156004
0.00014749114
-0.0037965241
0.00014175864
-0.0034208914
0.0001356683
-0.0030837163
0.00012928318
-0.0027807879
0.00012262425
-0.0025083782
0.0001157182
-0.0022631036
0.00010862611
-0.0020417605
0.00010142105
-0.0018423379
9.4182969e-05
-0.0016618753
8.6985464e-05
-0.001498965
7.9893125e-05
-0.0013516085
7.2953474e-05
-0.0012178442
6.6200712e-05
-0.0010969557
5.9668258e-05
-0.00098730155
5.33866e-05
-0.00088722774
4.737639e-05
-0.00079622871
4.1652104e-05
-0.00071349524
3.6222672e-05
-0.00063804233
3.1098535e-05
-0.00056896971
2.6289531e-05
-0.00050545712
2.1816415e-05
-0.00044651574
1.7700618e-05
-0.00039162852
1.3970294e-05
-0.00034020321
1.0652452e-05
-0.00029085607
7.7577736e-06
-0.00024261052
5.3091864e-06
-0.00019473319
3.3312871e-06
-0.00014742212
1.830792e-06
-0.00010341315
7.9531601e-07
-6.5598197e-05
1.9632036e-07
-3.4795742e-05
-1.0378398e-05
-0.0031435846
-1.772976
-0.0035288531
-1.65313
-0.0038843571
-1.5415314
-0.0042395113
-1.4379887
-0.0045916668
-1.3411182
-0.0048963396
-1.2509935
-0.0051533186
-1.1667235
-0.0053849327
-1.0884575
-0.0055661425
-1.015178
-0.0057099192
-0.94669988
-0.0058141519
-0.88262586
-0.0058810628
-0.82270741
-0.0059065315
-0.76659608
-0.0058955149
-0.71407762
-0.0058444521
-0.66490459
-0.0057615913
-0.61885042
-0.0056441824
-0.57572836
-0.0055119981
-0.53544368
-0.0053552102
-0.49772763
-0.0051784203
-0.46248326
-0.004983998
-0.4295293
-0.0047764413
-0.39874705
-0.0045596318
-0.36997914
-0.0043360265
-0.34318594
-0.0041076258
-0.31811487
-0.0038775466
-0.29481333
-0.0036471199
-0.27307626
-0.0034192598
-0.25282783
-0.0031962476
-0.23402638
-0.0029792915
-0.21652072
-0.0027696239
-0.20026861
-0.0025687499
-0.18517577
-0.0023778514
-0.1711821
-0.0021978026
-0.15823718
-0.0020283177
-0.14621406
-0.001869417
-0.13505657
-0.0017204056
-0.12473255
-0.0015811216
-0.11517412
-0.0014517871
-0.10633311
-0.0013322749
-0.098161674
-0.001222633
-0.090596832
-0.0011226923
-0.083598662
-0.0010316711
-0.077136323
-0.0009493448
-0.071165296
-0.00087537426
-0.065646089
-0.00080930682
-0.060548664
-0.00075130336
-0.055841992
-0.00070115863
-0.051493311
-0.00065725754
-0.0474802
-0.00061816281
-0.043781163
-0.00058308
-0.04036707
-0.00055079826
-0.037213958
-0.00052096274
-0.034305723
-0.00049565067
-0.03162225
-0.00047230264
-0.029148829
-0.0004444927
-0.026867193
-0.00041942756
-0.024762281
-0.00040024848
-0.022808938
-0.00035857627
-0.020921072
-0.00025116568
-0.018726373
-0.00016315723
-0.016311346
-0.00010247283
-0.014351671
-5.5563471e-05
-0.012713611
-1.7722853e-05
-0.011302727
1.3183643e-05
-0.010073666
3.8535742e-05
-0.008996473
5.9199274e-05
-0.0080470852
7.5582464e-05
-0.0072075594
8.8104861e-05
-0.0064629425
9.7229771e-05
-0.005801431
0.00010343778
-0.0052120005
0.00010724666
-0.0046866881
0.0001091496
-0.0042174144
0.00010952125
-0.0037968134
0.00010864826
-0.0034199423
0.00010673175
-0.0030817293
0.00010394432
-0.0027779353
0.00010043707
-0.0025048106
9.6355974e-05
-0.0022589668
9.1841023e-05
-0.0020371942
8.7004319e-05
-0.0018374538
8.1928312e-05
-0.0016567555
7.6676793e-05
-0.0014936731
7.1304697e-05
-0.0013461992
6.5879706e-05
-0.0012123849
6.0462056e-05
-0.0010915065
5.5102502e-05
-0.00098191293
4.9849148e-05
-0.00088194766
4.4737075e-05
-0.00079109209
3.9794157e-05
-0.0007085298
3.5037563e-05
-0.00063326511
3.0475828e-05
-0.00056438906
2.6118057e-05
-0.00050108208
2.1976292e-05
-0.00044235822
1.8069856e-05
-0.00038770779
1.4431108e-05
-0.00033655149
1.1104053e-05
-0.00028751727
8.1424803e-06
-0.00023963826
5.6006391e-06
-0.00019218152
3.5239162e-06
-0.00014533627
1.9341583e-06
-0.00010181492
8.3299505e-07
-6.4489297e-05
2.0135523e-07
-3.4157052e-05
-1.0170928e-05
-0.0033003993
-0.0036957214
-1.652752
-0.0040606616
-1.5411876
-0.004428149
-1.4376681
-0.0047897545
-1.3407851
-0.005102252
-1.2506987
-0.0053686661
-1.1664776
-0.0056089389
-1.08823
-0.0057996039
-1.0149879
-0.005953596
-0.94652884
-0.0060659119
-0.88246196
-0.006142758
-0.82258227
-0.0061762011
-0.76650633
-0.0061736239
-0.71402511
-0.0061322772
-0.66489693
-0.0060586051
-0.61888363
-0.0059471157
-0.5758096
-0.0058223939
-0.53554826
-0.0056731735
-0.49786316
-0.0055035736
-0.46264324
-0.0053147056
-0.42971097
-0.0051122875
-0.39894401
-0.0049001979
-0.37018571
-0.0046801655
-0.34340073
-0.0044556567
-0.31833364
-0.0042294007
-0.29503324
-0.0040016606
-0.27329954
-0.0037750184
-0.25305154
-0.0035535828
-0.2342434
-0.0033388416
-0.21672979
-0.0031305377
-0.20047222
-0.0029299665
-0.18537424
-0.0027389782
-0.17137287
-0.0025585588
-0.15841738
-0.0023883739
-0.14638316
-0.0022282717
-0.13521451
-0.0020779346
-0.12488022
-0.0019376721
-0.11531182
-0.0018077699
-0.10646068
-0.0016877453
-0.098279687
-0.001577175
-0.090705666
-0.0014756117
-0.083698557
-0.0013827031
-0.077227842
-0.0012979765
-0.071248914
-0.0012210182
-0.065722041
-0.0011512026
-0.060617477
-0.0010869643
-0.055905357
-0.0010274433
-0.051552235
-0.00097319478
-0.047534038
-0.00092459481
-0.043829324
-0.00088139615
-0.040409683
-0.00084314324
-0.037251597
-0.00080886311
-0.034339516
-0.00077654423
-0.031654261
-0.00074863518
-0.029176462
-0.00072839236
-0.026887107
-0.00070806725
-0.024782269
-0.00068188727
-0.022834802
-0.00064379212
-0.020958908
-0.00053642317
-0.018833532
-0.0004238859
-0.01642368
-0.00034292134
-0.014432436
-0.0002771168
-0.012779225
-0.000222284
-0.011357381
-0.00017633151
-0.010119453
-0.00013772575
-0.0090349247
-0.00010520001
-0.0080794684
-7.7677365e-05
-0.0072349503
-5.434914e-05
-0.006486149
-3.4651328e-05
-0.0058210163
-1.8198034e-05
-0.0052283498
-4.7148663e-06
-0.0047000751
6.0874925e-06
-0.0042281278
1.4524558e-05
-0.0038051683
2.0909968e-05
-0.0034262518
2.5545786e-05
-0.0030862951
2.8720354e-05
-0.0027810452
3.0712789e-05
-0.0025067432
3.176174e-05
-0.0022599605
3.2058175e-05
-0.0020374398
3.1751152e-05
-0.0018370998
3.0966083e-05
-0.0016559272
2.9806393e-05
-0.0014924736
2.8362103e-05
-0.0013447181
2.6720676e-05
-0.0012107095
2.4950469e-05
-0.0010897051
2.3102314e-05
-0.0009800361
2.1211834e-05
-0.00088003083
1.9305525e-05
-0.00078916161
1.7398903e-05
-0.00070660101
1.5509071e-05
-0.00063135495
1.3653009e-05
-0.00056251443
1.1844107e-05
-0.00049925624
1.0097726e-05
-0.00044059643
8.4270333e-06
-0.00038602313
6.8408536e-06
-0.00033495268
5.3579589e-06
-0.00028602299
4.0050674e-06
-0.00023827504
2.8108513e-06
-0.00019097784
1.8038138e-06
-0.00014432043
1.0071214e-06
-0.00010101006
4.3893424e-07
-6.3913664e-05
1.0619236e-07
-3.381753e-05
-1.0058751e-05
-0.0038398733
-1.6523731
-0.0042145483
-1.5408417
-0.004594338
-1.4373377
-0.0049642521
-1.3404436
-0.0052851252
-1.250397
-0.005560755
-1.1662195
-0.0058088549
-1.0879929
-0.0060087344
-1.0147855
-0.0061705489
-0.94634159
-0.0062904415
-0.88228896
-0.006375834
-0.8224436
-0.006417487
-0.7664058
-0.0064234739
-0.71396238
-0.0063904066
-0.66488104
-0.0063247288
-0.61890979
-0.0062199715
-0.57588569
-0.0061013118
-0.53564768
-0.005958549
-0.49799286
-0.0057943593
-0.46279841
-0.0056104438
-0.42988827
-0.0054124131
-0.39913661
-0.0052035207
-0.37038889
-0.0049865936
-0.34361211
-0.0047642623
-0.31854983
-0.0045389405
-0.29525239
-0.0043119317
-0.27352275
-0.0040870021
-0.25327358
-0.0038664831
-0.23445919
-0.0036508414
-0.21694006
-0.0034412859
-0.20067808
-0.0032400219
-0.18557439
-0.0030487229
-0.1715645
-0.0028678255
-0.15859822
-0.002696732
-0.14655315
-0.0025352943
-0.13537383
-0.0023828595
-0.12503028
-0.0022394733
-0.11545317
-0.0021056245
-0.10659282
-0.0019811917
-0.098402733
-0.0018659688
-0.090819607
-0.0017593503
-0.083803923
-0.0016606211
-0.077325628
-0.0015696015
-0.071339229
-0.0014861927
-0.065804749
-0.0014101016
-0.060692678
-0.0013411322
-0.055973266
-0.001278732
-0.051613582
-0.0012214952
-0.04759041
-0.0011683038
-0.043881907
-0.00111854
-0.040458987
-0.0010719055
-0.037297727
-0.0010284448
-0.034382366
-0.00098843242
-0.031693656
-0.00094840657
-0.029215992
-0.00090478586
-0.026930367
-0.00086637266
-0.024820371
-0.00083314322
-0.022867766
-0.00078522759
-0.021006599
-0.00067198009
-0.018946598
-0.00054620531
-0.016549277
-0.00045797222
-0.014520489
-0.00038585208
-0.01285117
-0.00032438327
-0.011418683
-0.00027146646
-0.010172212
-0.00022581818
-0.0090804253
-0.00018650083
-0.0081186481
-0.00015272489
-0.0072685984
-0.00012377034
-0.006514985
-9.8977518e-05
-0.0058456993
-7.7758796e-05
-0.0052494669
-5.9613635e-05
-0.0047181263
-4.413278e-05
-0.0042435218
-3.0987598e-05
-0.0038182331
-1.9910212e-05
-0.0034372549
-1.067533e-05
-0.0030954613
-3.0876493e-06
-0.0027885695
3.0285844e-06
-0.0025128009
7.8347208e-06
-0.0022647125
1.1486928e-05
-0.0020410421
1.4144753e-05
-0.0018397116
1.5965319e-05
-0.0016577053
1.7097557e-05
-0.0014935667
1.7672822e-05
-0.0013452573
1.7792494e-05
-0.0012107959
1.7540631e-05
-0.0010894227
1.6988777e-05
-0.00097945615
1.6196965e-05
-0.0008792132
1.5213186e-05
-0.00078815416
1.4078378e-05
-0.00070544451
1.2829502e-05
-0.00063008621
1.1500477e-05
-0.00056116716
1.0124561e-05
-0.00049786367
8.731852e-06
-0.00043918861
7.3533648e-06
-0.00038463093
6.0156212e-06
-0.00033360254
4.747926e-06
-0.00028474411
3.5787606e-06
-0.00023709572
2.538025e-06
-0.00018992776
1.6510035e-06
-0.00014342473
9.3677645e-07
-0.00010028778
4.1665931e-07
-6.3386203e-05
1.0421506e-07
-3.3498395e-05
-9.9487143e-06
-0.0039544801
-1.6519819
-0.0043402075
-1.5404872
-0.0047310917
-1.4369953
-0.0051084096
-1.340093
-0.0054377461
-1.2500854
-0.0057223259
-1.1659496
-0.0059787555
-1.0877453
-0.0061883146
-1.0145702
-0.0063590801
-0.94612939
-0.0064866445
-0.88210623
-0.0065813214
-0.82229077
-0.0066309189
-0.76629578
-0.0066451931
-0.71389003
-0.00662096
-0.66485601
-0.006563535
-0.61892881
-0.0064721134
-0.5759498
-0.0063545746
-0.53574659
-0.0062183315
-0.49811662
-0.0060608417
-0.46294736
-0.005882718
-0.43006029
-0.0056893913
-0.39932458
-0.0054849596
-0.37058743
-0.0052711111
-0.3438203
-0.0050516053
-0.31876304
-0.0048295052
-0.29546844
-0.0046056486
-0.27374317
-0.0043823495
-0.25349391
-0.0041622985
-0.23467436
-0.0039478001
-0.2171493
-0.0037397736
-0.20088274
-0.0035394299
-0.18577383
-0.003348233
-0.1717559
-0.0031666608
-0.15877936
-0.0029942944
-0.14672389
-0.0028310586
-0.13553445
-0.0026768568
-0.12518171
-0.002532007
-0.11559555
-0.002396565
-0.10672615
-0.0022699027
-0.0985277
-0.0021518072
-0.090936146
-0.0020419914
-0.083912187
-0.0019401938
-0.077426134
-0.0018457948
-0.071432532
-0.0017580507
-0.065891463
-0.0016762671
-0.060773467
-0.0015993865
-0.056049337
-0.0015271251
-0.051685266
-0.00146005
-0.047657008
-0.0013982099
-0.043943236
-0.0013410982
-0.040515518
-0.0012879615
-0.037350414
-0.0012384664
-0.034431605
-0.0011925234
-0.031739374
-0.0011523953
-0.029255826
-0.0011183198
-0.026964117
-0.0010848877
-0.024853514
-0.0010483434
-0.022904068
-0.00099689343
-0.02105786
-0.00088496805
-0.019058379
-0.00073771337
-0.016696386
-0.00063179413
-0.014626251
-0.00054452649
-0.012938279
-0.00046988106
-0.011493174
-0.00040548805
-0.010236457
-0.00034963977
-0.0091361343
-0.00030100408
-0.0081671531
-0.00025852287
-0.0073109575
-0.00022136102
-0.0065520331
-0.00018884604
-0.0058781086
-0.0001604306
-0.0052777842
-0.00013563937
-0.0047428266
-0.00011406012
-0.0042650168
-9.5331751e-05
-0.0038368836
-7.9127121e-05
-0.0034533875
-6.5155603e-05
-0.0031093662
-5.3155378e-05
-0.0028005081
-4.2895915e-05
-0.0025230034
-3.4170556e-05
-0.0022733853
-2.6800023e-05
-0.0020483641
-2.0620686e-05
-0.0018458462
-1.5491053e-05
-0.0016627937
-1.1283035e-05
-0.0014977367
-7.8789438e-06
-0.0013486263
-5.1745588e-06
-0.0012134681
-3.0703217e-06
-0.0010914973
-1.4722739e-06
-0.00098102695
-2.9463269e-07
-0.00088036585
5.4211562e-07
-0.00078896799
1.1089655e-06
-0.00070599039
1.4632226e-06
-0.00063042129
1.6517245e-06
-0.00056133813
1.710289e-06
-0.00049790629
1.6696456e-06
-0.00043913354
1.5535072e-06
-0.00038450176
1.3845342e-06
-0.00033342182
1.183138e-06
-0.0002845322
9.6783327e-07
-0.0002368709
7.5389528e-07
-0.00018970514
5.4363881e-07
-0.00014320636
3.37856e-07
-0.00010007448
1.5930202e-07
-6.3200801e-05
4.0054365e-08
-3.3372918e-05
-9.9029207e-06
-0.0040473985
-1.6515778
-0.0044430007
-1.5401224
-0.0048458992
-1.436639
-0.0052312169
-1.339731
-0.0055686
-1.249763
-0.0058613765
-1.165669
-0.0061261303
-1.0874867
-0.0063445429
-1.0143447
-0.0065220717
-0.94589759
-0.0066572416
-0.88191211
-0.0067599924
-0.82212503
-0.0068178561
-0.76617574
-0.006840287
-0.71380888
-0.0068236688
-0.66482378
-0.0067739802
-0.61894119
-0.0066916898
-0.57600605
-0.0065775975
-0.53584268
-0.0064471626
-0.49823515
-0.0062950211
-0.46309138
-0.006121413
-0.43022813
-0.0059323412
-0.39950805
-0.0057308096
-0.37078293
-0.0055197161
-0.34402553
-0.0053027399
-0.31897337
-0.0050820187
-0.29568336
-0.0048585676
-0.27396365
-0.0046360763
-0.25371328
-0.0044170814
-0.23488818
-0.0042023193
-0.21735918
-0.0039928034
-0.20108992
-0.0037906989
-0.18597589
-0.0035979205
-0.17194923
-0.0034147084
-0.15896214
-0.0032402451
-0.14689665
-0.003074295
-0.13569788
-0.0029165559
-0.125337
-0.0027672577
-0.11574284
-0.0026270243
-0.10686475
-0.0024957415
-0.098657626
-0.0023727325
-0.091057796
-0.0022572655
-0.084026378
-0.0021489072
-0.077533555
-0.0020475126
-0.07153313
-0.0019531322
-0.065985006
-0.0018656275
-0.060859981
-0.0017845065
-0.056129444
-0.0017089886
-0.051759909
-0.0016381567
-0.047727162
-0.0015716668
-0.044009179
-0.0015093035
-0.040577337
-0.0014509452
-0.037408123
-0.0013959293
-0.034485969
-0.0013432584
-0.031791574
-0.0012908843
-0.029307902
-0.0012381511
-0.027016615
-0.001191633
-0.02489981
-0.0011506015
-0.022944897
-0.0011023951
-0.021105902
-0.00099514723
-0.019165503
-0.00084134176
-0.016850075
-0.00072994315
-0.014737521
-0.00063762533
-0.013030464
-0.00055775194
-0.011572915
-0.00048804992
-0.01030603
-0.00042694209
-0.0091971179
-0.00037323515
-0.0082207419
-0.00032594696
-0.0073581341
-0.00028424997
-0.0065936253
-0.00024743827
-0.0059148223
-0.00021491436
-0.0053102167
-0.00018617424
-0.0047714816
-0.0001607891
-0.0042903228
-0.00013839886
-0.0038592003
-0.0001186879
-0.0034730303
-0.00010137988
-0.0031266111
-8.6227992e-05
-0.0028156016
-7.3008725e-05
-0.0025361687
-6.1517386e-05
-0.0022848267
-5.1568649e-05
-0.0020582667
-4.2990772e-05
-0.0018543815
-3.56291e-05
-0.0016701161
-2.9338739e-05
-0.0015039909
-2.3991061e-05
-0.0013539407
-1.9470673e-05
-0.0012179578
-1.5671036e-05
-0.0010952688
-1.2498099e-05
-0.000984174
-9.8705601e-06
-0.00088296968
-7.7120696e-06
-0.00079110477
-5.956571e-06
-0.00070772606
-4.5436312e-06
-0.00063181616
-3.4213872e-06
-0.00056244391
-2.5396489e-06
-0.0004987731
-1.8559523e-06
-0.00043980371
-1.3296256e-06
-0.00038501593
-9.2312824e-07
-0.0003338174
-6.0385438e-07
-0.00028484175
-3.4432387e-07
-0.00023712165
-1.3709429e-07
-0.00018990447
3.1311893e-09
-0.00014333919
5.8548778e-08