/*--------------------------------*- C++ -*----------------------------------*\
| =========                 |                                                 |
| \\      /  F ield         | OpenFOAM: The Open Source CFD Toolbox           |
|  \\    /   O peration     | Version:  2506                                  |
|   \\  /    A nd           | Website:  www.openfoam.com                      |
|    \\/     M anipulation  |                                                 |
\*---------------------------------------------------------------------------*/
FoamFile
{
    version     2.0;
    format      ascii;
    arch        "LSB;label=32;scalar=64";
    class       volScalarField;
    location    "0.9";
    object      nut;
}
// * * * * * * * * * * * * * * * * * * * * * * * * * * * * * * * * * * * * * //

dimensions      [0 2 -1 0 0 0 0];

internalField   nonuniform List<scalar> 
1375
(
0.19225447
0.19218392
0.19212241
0.1920687
0.19202532
0.19199386
0.19198095
0.19197893
0.19202927
0.19199728
0.19226425
0.15639847
0.125381
0.10076314
0.079809364
0.061865241
0.047228803
0.035897707
0.027123479
0.020148731
0.014559538
0.01007882
0.0066055888
0.0039847999
0.0023508693
0.00088463856
0.1989149
0.19817567
0.1975133
0.19693726
0.19642793
0.19597038
0.1955568
0.19518137
0.19484051
0.19453233
0.19425389
0.19400046
0.19376952
0.19355899
0.19336735
0.19319251
0.19303306
0.19288753
0.19275408
0.19263283
0.19252306
0.19242243
0.19233009
0.19224784
0.19217685
0.19211439
0.19205982
0.1920154
0.19198239
0.19196831
0.19196507
0.19201278
0.19197195
0.19223849
0.16013806
0.12837769
0.103473
0.08210807
0.063723851
0.048514455
0.036882885
0.027928719
0.020705489
0.01503857
0.01036643
0.0070017825
0.0040999035
0.0025178686
0.00093981237
0.19889256
0.19814728
0.19748136
0.19690345
0.19639306
0.19593486
0.19552166
0.19514738
0.19480775
0.19450065
0.19422332
0.19397125
0.1937421
0.19353364
0.1933438
0.19317055
0.19301275
0.19286862
0.19273627
0.19261623
0.19250762
0.1924077
0.19231586
0.19223431
0.19216386
0.19210149
0.19204716
0.19200253
0.19196867
0.1919535
0.19194829
0.19199339
0.19194737
0.19221169
0.1622143
0.13036981
0.10547497
0.084177247
0.064922897
0.049938095
0.037631396
0.028553894
0.021423081
0.015242643
0.011059439
0.0067486815
0.0046763422
0.0025992841
0.00090359796
0.19885759
0.19810211
0.19742987
0.19684804
0.19633512
0.19587612
0.19546295
0.19508959
0.19475202
0.1944476
0.19417291
0.19392372
0.19369759
0.19349203
0.1933048
0.19313399
0.19297872
0.19283669
0.19270633
0.1925884
0.19248185
0.19238349
0.19229325
0.19221355
0.19214477
0.19208378
0.19203116
0.19198809
0.19195608
0.19194308
0.19193969
0.19198569
0.19195037
0.19220639
0.1578122
0.12689508
0.1031808
0.081869144
0.064172867
0.048107295
0.037283378
0.028010986
0.020683491
0.015764776
0.010034119
0.007567773
0.0038313751
0.0027209994
0.00097089068
0.19881323
0.19804276
0.19736052
0.19677144
0.1962551
0.19579481
0.195382
0.19501024
0.19467566
0.19437498
0.19410448
0.19385954
0.19363742
0.19343545
0.19325154
0.19308398
0.19293195
0.19279262
0.19266501
0.19255007
0.1924464
0.19235024
0.19226241
0.19218529
0.19211882
0.19206002
0.19200982
0.19196905
0.19194009
0.19193041
0.19193076
0.19197848
0.19196417
0.19220591
0.15395516
0.12436985
0.10062453
0.080291185
0.062135875
0.047425385
0.035932092
0.027657447
0.020944487
0.01411008
0.010727314
0.0068610008
0.0045174714
0.0020870563
0.00084604698
0.19876268
0.19797192
0.19727573
0.19667686
0.19615553
0.19569418
0.19528248
0.19491322
0.19458224
0.19428567
0.19401975
0.19377972
0.19356231
0.19336471
0.1931851
0.19302184
0.19287388
0.192738
0.1926141
0.19250289
0.19240239
0.19230881
0.19222426
0.19215054
0.19208687
0.19203081
0.19198332
0.19194532
0.19191986
0.1919137
0.19191858
0.19196692
0.19198001
0.19152949
0.1520555
0.122745
0.099460062
0.080506827
0.059820454
0.047443044
0.036411554
0.026879451
0.020252314
0.014853393
0.011129375
0.0062236677
0.0038893145
0.0031312267
0.00098905315
0.19870809
0.19789252
0.19717902
0.19656842
0.19604126
0.19557797
0.19516759
0.19480123
0.19447465
0.19418305
0.19392218
0.19368724
0.19347522
0.19328276
0.1931082
0.19295002
0.19280673
0.19267483
0.19255532
0.19244847
0.19235153
0.19226113
0.19218038
0.19211011
0.19204923
0.19199612
0.1919514
0.1919167
0.19189529
0.1918928
0.19190247
0.19194987
0.19199632
0.1887237
0.14986243
0.12181633
0.099898889
0.076687059
0.061517036
0.048136992
0.033673335
0.028027221
0.019196157
0.015678932
0.010291752
0.0066561972
0.006304197
0.0018417762
0.00090581386
0.19865162
0.19780543
0.19707201
0.19644755
0.19591342
0.19544796
0.19503913
0.19467707
0.19435599
0.19406998
0.19381446
0.193585
0.19337902
0.19319203
0.19302318
0.19287062
0.19273233
0.19260508
0.19249087
0.19238888
0.19229537
0.19220876
0.19213217
0.1920656
0.1920081
0.1919585
0.19191692
0.19188573
0.19186832
0.19186987
0.19188581
0.19192861
0.19202421
0.18415596
0.14793081
0.12029429
0.096969099
0.076935205
0.063197486
0.042286494
0.037113415
0.02695522
0.021585768
0.015595998
0.0092410552
0.011946509
0.0032014207
0.0029209875
0.00088850593
0.19859536
0.1977153
0.19695977
0.19631816
0.19577472
0.19530688
0.19490019
0.19454342
0.19422849
0.19394855
0.19369904
0.19347561
0.19327613
0.19309496
0.19293241
0.1927858
0.19265293
0.19253094
0.19242208
0.19232494
0.19223516
0.19215308
0.19208088
0.19201819
0.19196441
0.19191839
0.19188036
0.19185378
0.19184126
0.19184614
0.19187259
0.19188922
0.19206667
0.180799
0.14539444
0.11850343
0.095819482
0.079024989
0.055124094
0.046374157
0.037525486
0.025096881
0.020847939
0.013128484
0.011943885
0.0056011716
0.0038603927
0.0025367029
0.0010214292
0.19853982
0.19761907
0.19683836
0.19618029
0.19562754
0.19515807
0.19475442
0.19440338
0.19409452
0.19382098
0.19357814
0.19336157
0.19316861
0.19299389
0.19283821
0.19269792
0.19257028
0.1924538
0.19235042
0.19225837
0.19217273
0.19209577
0.19202791
0.19196902
0.19191918
0.19187682
0.19184269
0.19182071
0.19181325
0.19182241
0.19185941
0.19187285
0.19206874
0.17684376
0.14195059
0.11705644
0.094531866
0.072462343
0.057668348
0.047726546
0.031648018
0.028288978
0.017581963
0.015243841
0.01085325
0.0056773364
0.0062975761
0.0013105221
0.00085566247
0.19848808
0.19751344
0.19670546
0.19603404
0.19547419
0.19500469
0.19460487
0.19425947
0.19395652
0.19368973
0.19345354
0.19324447
0.19305807
0.19289075
0.19274188
0.1926083
0.19248624
0.19237596
0.19227838
0.19219107
0.19210994
0.19203763
0.19197356
0.19191892
0.19187314
0.19183433
0.19180417
0.19178674
0.19178421
0.19179719
0.19184343
0.19187389
0.19205657
0.17224837
0.14057413
0.11373544
0.091956029
0.072689764
0.058447181
0.04385967
0.03491655
0.025338393
0.021404808
0.015138
0.010232974
0.0096038279
0.0038081616
0.0030704908
0.00086193129
0.19843396
0.19740575
0.19656991
0.19588345
0.19531834
0.19484969
0.19445376
0.19411362
0.193817
0.19355696
0.19332778
0.19312633
0.19294683
0.19278729
0.19264556
0.19251834
0.19240229
0.19229842
0.19220669
0.19212349
0.19204714
0.19197942
0.1919192
0.19186899
0.19182766
0.19179287
0.1917673
0.191755
0.19175786
0.19177548
0.19182575
0.19189071
0.19204056
0.16850394
0.13781301
0.11205476
0.091047858
0.072885632
0.054457879
0.043568595
0.033351839
0.024786269
0.019817271
0.015175734
0.0080744045
0.0072169417
0.0028240569
0.0033516612
0.00086223932
0.19837962
0.19729657
0.19643246
0.1957309
0.19516156
0.19469417
0.19430342
0.19396858
0.19367815
0.19342473
0.19320324
0.19300907
0.19283717
0.19268521
0.1925503
0.19242954
0.19232017
0.19222265
0.1921359
0.19205717
0.19198618
0.19192319
0.19186663
0.19181965
0.19178209
0.19175226
0.19173223
0.1917243
0.19173124
0.1917553
0.19180273
0.19191823
0.19204111
0.16767386
0.13508937
0.10990929
0.090779658
0.064412675
0.062024485
0.039003802
0.034824483
0.027725472
0.019814543
0.012758342
0.015473797
0.0055400629
0.0036478248
0.0024513923
0.00099791428
0.19832798
0.19718282
0.19629094
0.19557789
0.19500592
0.19454049
0.19415503
0.19382597
0.19354186
0.1932953
0.19308169
0.19289488
0.19273044
0.19258609
0.19245856
0.19234367
0.19224022
0.19214903
0.19206755
0.19199343
0.19192693
0.19186787
0.19181649
0.19177364
0.19173901
0.19171176
0.19169644
0.19169516
0.19170796
0.19173851
0.19178841
0.19192318
0.19206204
0.16148886
0.13095426
0.11086883
0.08265896
0.075991244
0.052775825
0.039258274
0.036115389
0.02479167
0.018452108
0.015646079
0.010104812
0.0057856273
0.0079611345
0.0028480798
0.00077693478
0.19826883
0.1970607
0.19614394
0.19542351
0.19485139
0.19438988
0.19400995
0.19368727
0.19340977
0.19317029
0.19296434
0.19278488
0.19262805
0.19249124
0.19237045
0.19226136
0.19216405
0.19207899
0.19200218
0.19193203
0.19186976
0.19181455
0.19176692
0.19172816
0.1916972
0.19167387
0.19166222
0.19166495
0.1916844
0.19172373
0.19178972
0.19191857
0.19209076
0.15962855
0.1324384
0.10772962
0.082386932
0.075096078
0.041383588
0.050595594
0.031722315
0.025055165
0.021153438
0.016941233
0.0096609834
0.0093914435
0.0061087671
0.0031295816
0.00076533801
0.19819983
0.19693224
0.19599336
0.19526882
0.1946992
0.1942433
0.19386944
0.19355377
0.19328289
0.19305101
0.19285244
0.19267988
0.19253054
0.19240099
0.19228616
0.19218305
0.192092
0.19201199
0.1919396
0.1918746
0.19181514
0.19176334
0.19172055
0.19168544
0.1916581
0.19163865
0.19162985
0.19163717
0.19166526
0.19170603
0.19179888
0.19191484
0.19211837
0.15670634
0.1309114
0.099164963
0.091942897
0.061933858
0.053992063
0.049440535
0.026237342
0.027755487
0.018886281
0.013271778
0.008757854
0.0092108928
0.0075070455
0.0035374277
0.00086412408
0.19813041
0.19680127
0.19584166
0.19511587
0.1945507
0.19410192
0.19373486
0.19342578
0.19316186
0.19293781
0.1927464
0.19258059
0.19243859
0.19231585
0.19220661
0.1921088
0.19202394
0.19194812
0.19187974
0.19181933
0.19176403
0.19171632
0.19167669
0.19164449
0.19162163
0.19160474
0.19159879
0.19160988
0.19164392
0.19169287
0.19180461
0.19192312
0.19052524
0.15409837
0.12564956
0.10377617
0.087755977
0.057573962
0.065861012
0.034824993
0.031350971
0.02851932
0.021577719
0.014628117
0.015443082
0.0079791974
0.0056935844
0.0039379044
0.00071310769
0.19807483
0.19668181
0.19569775
0.19496945
0.19440977
0.19396835
0.19360808
0.19330501
0.19304851
0.19283177
0.19264709
0.19248792
0.19235261
0.19223587
0.1921324
0.19203966
0.19195963
0.19188798
0.19182329
0.19176701
0.19171496
0.19167165
0.19163533
0.19160637
0.19158748
0.19157206
0.19156969
0.19158861
0.19162586
0.19168182
0.19179663
0.19194132
0.18039517
0.15534224
0.12297959
0.1043117
0.078345265
0.063537668
0.064416376
0.034913519
0.041145449
0.021993547
0.018502854
0.0156591
0.010221585
0.011404686
0.0040662099
0.0035567516
0.00072585404
0.19796859
0.19652507
0.19554171
0.19481956
0.19426908
0.19383633
0.19348347
0.19318777
0.19293943
0.19272972
0.19255213
0.19239972
0.19227095
0.19215987
0.19206199
0.1919748
0.19189838
0.19183046
0.19177065
0.19171763
0.19166828
0.19162801
0.19159541
0.19157026
0.19155475
0.19154316
0.19154326
0.19156752
0.19160971
0.19168174
0.19179271
0.19196289
0.19220917
0.15021362
0.12335137
0.096968787
0.080587974
0.07353428
0.049400605
0.034122022
0.026360088
0.024836609
0.021757288
0.016082515
0.01580884
0.0059149679
0.0079285984
0.0043602875
0.00075580813
0.19799496
0.19647647
0.19544843
0.1947159
0.19416449
0.19373464
0.19338435
0.19309298
0.19284962
0.19264485
0.19247205
0.19232445
0.1922007
0.1920943
0.19200064
0.19191716
0.1918447
0.19177985
0.19172321
0.19167241
0.19162631
0.19158821
0.19155773
0.19153546
0.19152136
0.19151647
0.19151851
0.19154458
0.19158959
0.19167724
0.19179438
0.19198281
0.17811641
0.15067574
0.11654199
0.10055407
0.07808317
0.0595076
0.050854037
0.043926369
0.049993362
0.026275311
0.0163104
0.015140919
0.0065940303
0.0053750677
0.008752382
0.0071442707
0.00073120981
0.00074144979
0.005617491
0.0067570303
0.0074150887
0.0098539489
0.019558993
0.026701902
0.024541705
0.020540754
0.043749261
0.047972973
0.070254823
0.084485093
0.091007965
0.11984591
0.14022102
0.18097069
0.19200951
0.19181154
0.1916826
0.19158421
0.19153166
0.1914991
0.1914862
0.19148637
0.19150155
0.19151859
0.19154617
0.19158011
0.19162376
0.19167112
0.19172458
0.19178314
0.19185008
0.19192862
0.19201692
0.19211717
0.19223361
0.19237221
0.19253586
0.19273019
0.19296265
0.19324233
0.19357975
0.19399354
0.19452495
0.19523346
0.1962403
0.1977279
0.00072969254
0.010779122
0.0058469272
0.011802938
0.0083593676
0.014317031
0.013192173
0.021642169
0.037938249
0.04667445
0.043567719
0.060462352
0.068600173
0.10251595
0.11863007
0.14605377
0.18228621
0.19205677
0.1918428
0.19169243
0.19157703
0.19151508
0.191481
0.19145999
0.19145531
0.19146761
0.19148105
0.19150481
0.19153608
0.19157483
0.19161788
0.19166714
0.19172154
0.19178302
0.19185571
0.19193917
0.19203376
0.19214261
0.19227182
0.19242624
0.19260983
0.19283066
0.19309818
0.19342245
0.19382049
0.19433114
0.1950145
0.19599382
0.19742955
0.00074155335
0.0099141223
0.016156275
0.0047717709
0.015233679
0.015763531
0.026190958
0.024643082
0.025768166
0.040285292
0.057933134
0.063928916
0.087373691
0.08504002
0.10707379
0.1336146
0.16409418
0.19209894
0.19186272
0.19169597
0.19157284
0.19150526
0.19146324
0.19143326
0.19142513
0.19143358
0.19144414
0.19146379
0.19149223
0.19152463
0.19156479
0.19161124
0.19166222
0.19171884
0.19178564
0.19186379
0.19195277
0.19205464
0.19217586
0.19232085
0.19249411
0.19270355
0.19295902
0.19327103
0.19365444
0.19414535
0.19480441
0.19575223
0.1971453
0.0007604852
0.016825893
0.015032797
0.013023996
0.011980496
0.018228684
0.013844952
0.017062267
0.023327383
0.043466158
0.04122962
0.062125387
0.067807481
0.097686086
0.12049589
0.12644514
0.17202322
0.19214932
0.19189143
0.19171471
0.19158588
0.19150068
0.19144638
0.1914102
0.19140035
0.19139836
0.191406
0.19142497
0.1914484
0.19147903
0.19151609
0.1915597
0.19160492
0.19165763
0.19171909
0.19179135
0.19187431
0.19196943
0.19208405
0.19221988
0.19238347
0.19258189
0.19282569
0.19312577
0.1934961
0.19396957
0.19460605
0.19552678
0.1968815
0.00075365909
0.016489081
0.009261233
0.014201498
0.014921663
0.0077465446
0.022859814
0.017102993
0.035149474
0.025922912
0.05193847
0.058454257
0.073322892
0.087205807
0.10581747
0.15859284
0.16975095
0.19221949
0.19192805
0.19173063
0.19158571
0.19149091
0.19142514
0.19138578
0.19136835
0.19136316
0.19137285
0.19138682
0.19141026
0.19143544
0.19146829
0.19150803
0.19154987
0.19159866
0.19165466
0.19172276
0.19179948
0.19188946
0.19199602
0.19212312
0.1922778
0.19246555
0.19269806
0.19298681
0.19334512
0.19380321
0.19441714
0.19530951
0.1966328
0.00076466243
0.013717913
0.014102906
0.013944164
0.016582888
0.02530957
0.047104517
0.030606091
0.037677837
0.068018086
0.0704213
0.06897923
0.075001138
0.072564667
0.10856713
0.10557424
0.14522538
0.19228375
0.19195365
0.19174039
0.19158426
0.19147158
0.19140221
0.19136792
0.19134753
0.19133844
0.19134265
0.19134922
0.19136858
0.19138863
0.19142038
0.19145615
0.19149611
0.19154033
0.19159311
0.19165647
0.19172853
0.19181314
0.19191122
0.19203131
0.1921768
0.19235463
0.19257611
0.19285383
0.19320085
0.19364474
0.19423676
0.19510109
0.19639701
0.02326795
0.026590934
0.052198616
0.038694293
0.040258372
0.050191654
0.052208108
0.065046385
0.066259083
0.10613205
0.090579737
0.14029983
0.16679007
0.17583779
0.19201277
0.19179088
0.19161734
0.19148158
0.19140789
0.19136472
0.19133505
0.19130772
0.19130974
0.19131436
0.19132559
0.19134626
0.19137566
0.19140719
0.19144321
0.1914849
0.191535
0.19159142
0.19165946
0.19173819
0.19183046
0.19194342
0.19208031
0.19224868
0.19245951
0.19272668
0.19306287
0.19349329
0.19406556
0.1949029
0.19617322
0.071678664
0.073280362
0.11232464
0.16251048
0.14166024
0.19241342
0.19203259
0.19180825
0.19162672
0.19148305
0.19138381
0.19132893
0.19128954
0.19127945
0.19127366
0.19127768
0.19129032
0.19130935
0.19133498
0.19136313
0.19139395
0.19143193
0.19147771
0.19152928
0.19159258
0.19166552
0.19175257
0.19185892
0.19198823
0.19214734
0.19234842
0.19260531
0.19293064
0.19334865
0.193903
0.19471416
0.19596145
0.19137495
0.1913151
0.19128087
0.19124653
0.19123986
0.19124177
0.1912537
0.19127004
0.19129225
0.1913199
0.19134552
0.19138007
0.19142204
0.19146928
0.19152847
0.1915959
0.19167773
0.19177769
0.19190003
0.19205088
0.19224242
0.19248896
0.19280408
0.19321048
0.19374855
0.19453537
0.19576029
0.19136682
0.19141131
0.1914666
0.19152944
0.19160616
0.19169996
0.19181556
0.19195875
0.19214102
0.19237754
0.19268268
0.19307785
0.19360135
0.19436513
0.19556736
)
;

boundaryField
{
    Side
    {
        type            empty;
    }
    Inlet
    {
        type            calculated;
        value           nonuniform List<scalar> 
29
(
0.19925767
0.19923992
0.19921267
0.19917889
0.19914147
0.1991047
0.19907337
0.19904969
0.19903465
0.19902272
0.19902438
0.19902925
0.19902855
0.19900636
0.19898441
0.19899177
0.19901956
0.19902271
0.19903749
0.19908663
0.19932154
0.19948725
0.19956607
0.19958612
0.19958581
0.19957945
0.1995854
0.1996052
0.19963103
)
;
    }
    Airfoil
    {
        type            nutkWallFunction;
        blending        stepwise;
        value           nonuniform List<scalar> 
26
(
0.0008902939
0.000889247
0.00088672334
0.00088298979
0.0008783116
0.00087295481
0.00086697081
0.0008608656
0.00085465635
0.00084873685
0.00084347795
0.00083910865
0.00083582398
0.00083385037
0.00083329047
0.00083446223
0.00083716927
0.00084267397
0.00085067449
0.00086011942
0.00086956035
0.00087313479
0.00087883232
0.00088602664
0.00089448164
0.00090487981
)
;
    }
    Outlet
    {
        type            calculated;
        value           nonuniform List<scalar> 0();
    }
    procBoundary0to1
    {
        type            processor;
        value           nonuniform List<scalar> 
53
(
0.00081015678
0.015648189
0.021662074
0.020287292
0.020287292
0.026437638
0.016038617
0.050429169
0.020282972
0.032731775
0.015813722
0.037355938
0.045847911
0.045847911
0.060874782
0.06335129
0.093056061
0.09065814
0.17505306
0.17351809
0.19207455
0.19180538
0.19159575
0.19143379
0.19143379
0.19139007
0.19133056
0.19128654
0.19125018
0.19122763
0.19121468
0.19121993
0.19122939
0.19124875
0.1912748
0.19129604
0.19132734
0.19132734
0.1913132
0.19135478
0.19140654
0.1914655
0.19153721
0.19162534
0.1917344
0.19187043
0.19204399
0.19227079
0.19256577
0.19295051
0.19346126
0.1942061
0.1953809
)
;
    }
    procBoundary0to7
    {
        type            processor;
        value           nonuniform List<scalar> 
50
(
0.19224977
0.19217894
0.192117
0.19206228
0.19201757
0.19198494
0.1919705
0.19196618
0.19201384
0.19197378
0.19223969
0.16077446
0.12898306
0.10358279
0.08192861
0.063545069
0.048484705
0.036852461
0.027887652
0.020738101
0.014949282
0.010467634
0.0068568396
0.0042429226
0.0024412288
0.00088819623
0.19892238
0.19818464
0.19752273
0.1969466
0.19643766
0.19598021
0.19556599
0.19519096
0.1948505
0.19454184
0.19426259
0.19400869
0.19377721
0.19356595
0.19337379
0.1931987
0.19303909
0.19289342
0.19275999
0.19263874
0.19252894
0.19242847
0.19233644
0.19233644
)
;
    }
}


// ************************************************************************* //
