/*--------------------------------*- C++ -*----------------------------------*\
| =========                 |                                                 |
| \\      /  F ield         | OpenFOAM: The Open Source CFD Toolbox           |
|  \\    /   O peration     | Version:  2506                                  |
|   \\  /    A nd           | Website:  www.openfoam.com                      |
|    \\/     M anipulation  |                                                 |
\*---------------------------------------------------------------------------*/
FoamFile
{
    version     2.0;
    format      ascii;
    arch        "LSB;label=32;scalar=64";
    class       volVectorField;
    location    "0.0003";
    object      U;
}
// * * * * * * * * * * * * * * * * * * * * * * * * * * * * * * * * * * * * * //

dimensions      [0 1 -1 0 0 0 0];

internalField   nonuniform List<vector> 
3455
(
(91.030002 24.39 3.0085995e-21)
(91.03 24.39 -4.3793799e-22)
(91.03 24.39 0)
(91.03 24.390001 0)
(91.03 24.390001 3.4407507e-22)
(91.029999 24.39 2.9230571e-21)
(91.029997 24.390001 3.0136678e-21)
(91.029998 24.390001 -2.3462278e-22)
(91.03 24.39 0)
(91.030003 24.39 2.8743088e-21)
(91.030002 24.39 0)
(91.03 24.39 -1.7340733e-21)
(91.03 24.39 -2.0180038e-21)
(91.03 24.390001 -2.9331124e-22)
(91.03 24.390001 -2.385294e-21)
(91.03 24.390001 0)
(91.03 24.39 2.4884623e-22)
(91.03 24.39 -1.4554664e-22)
(91.029999 24.39 1.7017188e-22)
(91.029997 24.390001 -6.3634597e-21)
(91.029997 24.390001 -2.0902311e-21)
(91.03 24.39 2.7108131e-22)
(91.030002 24.39 -2.3715164e-21)
(91.030002 24.39 -1.8429148e-22)
(91.03 24.39 1.7173107e-21)
(91.03 24.39 0)
(91.03 24.390001 2.324448e-21)
(91.03 24.390001 -2.5320445e-21)
(91.03 24.390001 0)
(91.03 24.390001 -2.0453149e-21)
(91.03 24.39 0)
(91.03 24.39 1.9708849e-21)
(91.03 24.39 -1.4410366e-22)
(91.029999 24.39 2.6959698e-21)
(91.029997 24.390001 6.4983265e-21)
(91.029997 24.390001 1.8400422e-21)
(91.029999 24.39 2.1479209e-21)
(91.030003 24.39 -2.5057037e-21)
(91.030002 24.39 0)
(91.03 24.39 1.701463e-21)
(91.03 24.39 0)
(91.03 24.390001 -2.303592e-21)
(91.03 24.390001 2.6769921e-21)
(91.03 24.390001 0)
(91.03 24.390001 -2.2531771e-22)
(91.030001 24.390001 -1.8276027e-21)
(91.03 24.39 2.8486964e-21)
(91.03 24.39 -1.667854e-21)
(91.03 24.39 -1.9521714e-21)
(91.03 24.39 2.2839246e-21)
(91.029999 24.39 -2.8376806e-21)
(91.029997 24.39 -1.3656493e-21)
(91.029997 24.390001 -1.8231392e-21)
(91.029999 24.39 0)
(91.030002 24.39 2.3279685e-21)
(91.030002 24.39 3.076068e-21)
(91.03 24.39 -1.6865175e-21)
(91.03 24.39 0)
(91.03 24.390001 1.4274461e-22)
(91.03 24.390001 -1.6590474e-22)
(91.03 24.390001 -1.5411749e-21)
(91.03 24.390001 0)
(91.030001 24.390001 2.331042e-21)
(91.030001 24.390001 2.2488615e-21)
(91.03 24.39 1.5059587e-22)
(91.03 24.39 -2.9991517e-21)
(91.03 24.39 1.6527478e-21)
(91.03 24.39 0)
(91.03 24.39 -2.2635262e-21)
(91.029999 24.39 0)
(91.029997 24.39 -1.3536531e-21)
(91.029997 24.390001 1.3554462e-21)
(91.029999 24.39 -1.7143996e-21)
(91.030002 24.39 2.3081101e-21)
(91.030002 24.39 -4.3060594e-21)
(91.03 24.39 1.6724678e-21)
(91.03 24.39 1.9472649e-21)
(91.03 24.390001 0)
(91.03 24.390001 0)
(91.03 24.390001 1.7202095e-21)
(91.03 24.390001 -2.2176221e-22)
(91.030001 24.390001 0)
(91.030001 24.390001 -2.2321761e-21)
(91.030001 24.390001 -1.7211292e-22)
(91.03 24.39 -2.2929749e-21)
(91.03 24.39 2.2393971e-21)
(91.03 24.39 0)
(91.03 24.39 2.0482796e-22)
(91.03 24.39 -1.7982972e-21)
(91.03 24.39 -2.3847226e-21)
(91.029999 24.39 0)
(91.029997 24.39 0)
(91.029997 24.39 1.5683536e-21)
(91.029999 24.39 2.3544578e-21)
(91.030002 24.39 -2.5947791e-21)
(91.030002 24.39 1.6019086e-21)
(91.030001 24.39 -1.6592994e-21)
(91.03 24.39 -2.1736588e-21)
(91.03 24.390001 -1.9670536e-21)
(91.03 24.390001 -1.633394e-22)
(91.03 24.390001 1.8971622e-22)
(91.03 24.390001 1.7611625e-21)
(91.03 24.390001 -2.5520182e-22)
(91.030001 24.390001 -2.0687297e-21)
(91.030001 24.390001 0)
(91.030001 24.390001 0)
(91.030001 24.390002 -2.0513218e-21)
(91.03 24.390002 2.627082e-22)
(91.03 24.390002 1.2096197e-21)
(91.03 24.390003 0)
(91.03 24.390003 -1.5962402e-21)
(91.03 24.39 0)
(91.03 24.39 -2.1479022e-21)
(91.03 24.39 -4.5904843e-21)
(91.03 24.39 1.3879231e-21)
(91.03 24.39 1.6254607e-21)
(91.03 24.39 1.9028772e-21)
(91.03 24.39 2.3658264e-21)
(91.029999 24.39 -1.6276957e-22)
(91.029997 24.39 -1.9027977e-22)
(91.029997 24.39 2.2231919e-22)
(91.029999 24.39 -2.2066363e-21)
(91.030002 24.39 -2.2721622e-21)
(91.030002 24.39 -1.4132471e-21)
(91.030001 24.39 0)
(91.03 24.39 1.1987577e-22)
(91.03 24.39 -1.394903e-22)
(91.03 24.390001 1.6217851e-22)
(91.03 24.390001 1.3187273e-21)
(91.03 24.390001 -1.9676909e-21)
(91.03 24.390001 -1.5208811e-21)
(91.030001 24.390001 2.0550425e-21)
(91.030001 24.390001 0)
(91.030001 24.390001 -1.5699846e-21)
(91.030001 24.390002 1.8121193e-21)
(91.03 24.390002 0)
(91.03 24.390002 0)
(91.03 24.390003 1.3825813e-21)
(91.03 24.390003 0)
(91.03 24.39 1.8237001e-22)
(91.03 24.39 -1.0694174e-22)
(91.03 24.39 4.0122484e-21)
(91.03 24.39 4.4086765e-21)
(91.03 24.39 -1.20526e-21)
(91.03 24.39 -1.8149172e-21)
(91.03 24.39 -1.6526003e-21)
(91.03 24.39 -2.210166e-21)
(91.029999 24.39 1.6157313e-22)
(91.029997 24.39 -1.7000321e-21)
(91.029997 24.39 -3.421043e-21)
(91.029999 24.39 -1.2887265e-22)
(91.030001 24.39 2.4064707e-21)
(91.030002 24.39 0)
(91.030001 24.39 -1.8400534e-21)
(91.03 24.39 1.1905595e-22)
(91.03 24.39 2.4938764e-21)
(91.03 24.390001 -1.6110022e-22)
(91.03 24.390001 -1.4972528e-21)
(91.03 24.390001 1.7377997e-21)
(91.03 24.390001 2.1409657e-21)
(91.030001 24.390001 -2.9175777e-22)
(91.030001 24.390001 1.6879351e-22)
(91.030001 24.390001 1.365584e-21)
(91.030001 24.390002 2.25202e-22)
(91.03 24.390002 1.0385942e-21)
(91.03 24.390002 0)
(91.03 24.390003 -1.375205e-21)
(91.03 24.390003 1.7766039e-21)
(91.03 24.390003 1.5845036e-21)
(91.030002 24.390003 2.5917537e-22)
(91.029913 24.390023 5.926224e-22)
(89.727533 25.10739 1.6911783e-21)
(91.03 24.39 1.0803752e-21)
(91.03 24.39 1.8106483e-22)
(91.03 24.39 0)
(91.03 24.39 -1.9918952e-21)
(91.03 24.39 -2.3347042e-21)
(91.03 24.39 0)
(91.03 24.39 0)
(91.03 24.39 1.9928242e-21)
(91.03 24.39 0)
(91.029999 24.39 -1.4442236e-21)
(91.029997 24.39 1.5009004e-21)
(91.029997 24.39 1.8634544e-21)
(91.029998 24.39 0)
(91.030001 24.39 -2.9882689e-22)
(91.030002 24.39 1.5684775e-21)
(91.030001 24.39 0)
(91.03 24.39 0)
(91.03 24.39 1.1014347e-21)
(91.03 24.390001 0)
(91.03 24.390001 -1.8601795e-22)
(91.03 24.390001 -1.5114722e-21)
(91.03 24.390001 1.0015892e-21)
(91.030001 24.390001 -1.1603002e-21)
(91.030001 24.390001 -1.5105518e-21)
(91.030001 24.390001 0)
(91.030001 24.390002 2.015879e-21)
(91.030001 24.390002 -1.2914037e-22)
(91.03 24.390002 -8.9233842e-22)
(91.03 24.390003 -1.7104622e-22)
(91.03 24.390003 -1.5715808e-21)
(91.03 24.390003 0)
(91.030002 24.390003 -1.2900335e-21)
(91.029901 24.390002 -2.0651534e-21)
(91.016608 24.384255 -1.1788838e-21)
(-59.391093 83.397469 -1.919672e-22)
(-630.99174 368.16024 1.7478144e-21)
(91.03 24.39 1.3064866e-22)
(91.03 24.39 -1.2265278e-21)
(91.03 24.39 0)
(91.03 24.39 1.6877052e-21)
(91.03 24.39 0)
(91.03 24.39 -1.1597498e-21)
(91.03 24.39 1.3589168e-21)
(91.03 24.39 9.9480866e-23)
(91.03 24.39 0)
(91.03 24.39 8.1787978e-22)
(91.029999 24.39 2.7107714e-21)
(91.029997 24.39 -1.3982897e-21)
(91.029997 24.39 -1.0893498e-22)
(91.029998 24.39 1.2722836e-22)
(91.030001 24.39 -1.4850425e-22)
(91.030002 24.39 0)
(91.030002 24.39 1.6153998e-21)
(91.03 24.39 0)
(91.03 24.39 -1.095053e-21)
(91.03 24.390001 0)
(91.03 24.390001 1.4797732e-21)
(91.03 24.390001 1.0736526e-22)
(91.03 24.390001 -1.2451819e-21)
(91.030001 24.390001 1.1541138e-21)
(91.030001 24.390001 1.3356955e-21)
(91.030001 24.390002 1.9301473e-22)
(91.030001 24.390002 -2.6744222e-21)
(91.030001 24.390002 -1.0280948e-21)
(91.03 24.390002 1.1841461e-21)
(91.03 24.390003 -1.7025813e-22)
(91.03 24.390003 0)
(91.03 24.390003 2.2432348e-22)
(91.030001 24.390003 -2.5693032e-22)
(91.029255 24.389754 1.4691622e-21)
(90.899007 24.343574 1.6775884e-22)
(-59.108506 50.288066 -9.562718e-22)
(-558.92809 217.18027 -1.7415822e-21)
(-632.89483 473.1591 1.9791988e-21)
(91.03 24.39 -1.2985244e-22)
(91.03 24.39 1.523851e-22)
(91.03 24.39 0)
(91.03 24.39 -1.7823889e-21)
(91.03 24.39 1.2293752e-22)
(91.03 24.39 1.4410412e-22)
(91.03 24.39 -1.5197128e-21)
(91.03 24.39 0)
(91.03 24.39 -1.9684674e-21)
(91.03 24.39 1.2196791e-21)
(91.029999 24.39 1.5853583e-22)
(91.029997 24.39 1.2049046e-21)
(91.029997 24.39 2.1663173e-22)
(91.029998 24.39 -1.1386073e-21)
(91.030001 24.39 1.4767628e-22)
(91.030003 24.39 0)
(91.030002 24.39 -1.0041199e-22)
(91.03 24.39 9.357643e-22)
(91.03 24.39 8.1692579e-22)
(91.03 24.39 1.5835496e-22)
(91.03 24.390001 -3.1282828e-21)
(91.03 24.390001 3.204621e-22)
(91.03 24.390001 -1.1150768e-21)
(91.030001 24.390001 0)
(91.030001 24.390001 -1.4954565e-21)
(91.030001 24.390002 0)
(91.030001 24.390002 1.1092364e-21)
(91.030001 24.390002 0)
(91.03 24.390002 -1.0316187e-21)
(91.03 24.390003 -1.3563025e-21)
(91.03 24.390003 -1.9476656e-22)
(91.03 24.390003 8.9372111e-22)
(91.029986 24.389999 2.047532e-21)
(91.020959 24.386399 0)
(88.852422 23.913903 6.6864122e-22)
(-132.81866 23.790001 -1.9059975e-22)
(-526.31643 126.68915 8.6793302e-22)
(-542.69618 383.96773 -9.8649519e-22)
(-576.56127 577.75942 8.3949787e-22)
(-822.81997 764.46148 1.2678537e-21)
(91.03 24.39 0)
(91.03 24.39 1.5154577e-22)
(91.03 24.39 0)
(91.03 24.39 0)
(91.03 24.39 -1.2226896e-22)
(91.03 24.39 1.4332435e-21)
(91.03 24.39 -1.6794808e-22)
(91.03 24.39 9.8364922e-23)
(91.03 24.39 8.0623622e-22)
(91.03 24.39 0)
(91.029999 24.39 -1.3404883e-21)
(91.029997 24.39 1.8440553e-22)
(91.029997 24.39 0)
(91.029998 24.39 -1.2586524e-22)
(91.030001 24.39 1.1754313e-21)
(91.030003 24.39 1.371261e-21)
(91.030002 24.39 -7.9932025e-22)
(91.03 24.39 -9.3118563e-22)
(91.03 24.39 -1.0839742e-21)
(91.03 24.39 0)
(91.03 24.390001 0)
(91.03 24.390001 0)
(91.03 24.390001 1.9733819e-21)
(91.030001 24.390001 0)
(91.030001 24.390001 1.3235084e-21)
(91.030001 24.390002 1.912902e-22)
(91.030001 24.390002 6.6276947e-22)
(91.030001 24.390002 -1.2741809e-22)
(91.03 24.390002 1.4679076e-22)
(91.03 24.390003 6.7554131e-22)
(91.03 24.390003 0)
(91.03 24.390003 -1.1131197e-21)
(91.029702 24.389896 -6.3761558e-22)
(90.92366 24.346061 -1.4587787e-22)
(72.141519 19.208669 -1.1663213e-21)
(-237.39626 -21.946033 7.6002434e-22)
(-505.79889 57.434325 -4.3266445e-22)
(-488.48274 330.28539 0)
(-511.62417 445.15024 1.3954277e-21)
(-751.1694 669.58635 -1.2647027e-21)
(-837.99831 791.58391 7.1516304e-22)
(-853.6239 805.35884 8.0763994e-22)
(-832.85303 789.87288 0)
(-755.78424 721.43421 0)
(91.03 24.39 -1.2849458e-22)
(91.03 24.39 -1.2063774e-21)
(91.03 24.39 0)
(91.03 24.39 1.0376263e-22)
(91.03 24.39 0)
(91.03 24.39 9.9840148e-22)
(91.03 24.39 -8.356861e-23)
(91.03 24.39 9.7892763e-22)
(91.03 24.39 1.7194052e-21)
(91.03 24.39 1.0733207e-21)
(91.029999 24.39 0)
(91.029997 24.39 -1.3765854e-21)
(91.029997 24.39 7.5080816e-22)
(91.029998 24.39 1.0023031e-21)
(91.030001 24.39 0)
(91.030003 24.39 -2.730197e-21)
(91.030002 24.39 7.9576741e-22)
(91.03 24.39 0)
(91.03 24.39 -9.4437093e-22)
(91.03 24.39 -7.8463812e-23)
(91.03 24.390001 1.4590675e-21)
(91.03 24.390001 -1.0588778e-22)
(91.03 24.390001 -9.8267468e-22)
(91.030001 24.390001 1.4234965e-22)
(91.030001 24.390001 -8.2395617e-22)
(91.030001 24.390002 9.5278738e-23)
(91.030001 24.390002 -1.1004804e-21)
(91.030001 24.390002 1.2695266e-21)
(91.03 24.390002 2.1940263e-21)
(91.03 24.390003 8.4150445e-22)
(91.03 24.390003 -1.9338544e-22)
(91.029995 24.390003 -7.7664313e-22)
(91.024202 24.387645 7.6273057e-22)
(89.873471 23.914982 2.9086989e-22)
(5.1375342 -3.0784572 4.9839111e-22)
(-344.69542 -64.951396 -7.5789405e-22)
(-500.68323 90.521477 0)
(-435.65821 283.67962 2.4528044e-22)
(-462.19803 330.47904 -8.352004e-22)
(-617.28442 522.00908 4.7317337e-22)
(-799.26335 744.3409 -3.5680388e-22)
(-846.13359 791.19191 2.0148871e-22)
(-843.02615 791.53577 4.5434727e-22)
(-798.50515 744.30872 0)
(91.03 24.39 0)
(91.03 24.39 2.4772838e-21)
(91.03 24.39 -1.7615597e-22)
(91.03 24.39 -7.2319098e-22)
(91.03 24.39 0)
(91.03 24.39 0)
(91.03 24.39 6.6569398e-22)
(91.03 24.39 -8.7729391e-22)
(91.03 24.39 -6.8485972e-22)
(91.03 24.39 -1.2024242e-21)
(91.029999 24.39 -1.2504737e-21)
(91.029997 24.39 2.1934409e-21)
(91.029997 24.39 -8.5455216e-22)
(91.029998 24.39 0)
(91.030001 24.39 -1.1653892e-21)
(91.030003 24.39 1.3596663e-21)
(91.030002 24.39 -9.9079566e-23)
(91.03 24.39 0)
(91.03 24.39 1.2095354e-21)
(91.03 24.39 0)
(91.03 24.390001 0)
(91.03 24.390001 0)
(91.03 24.390001 1.2239185e-22)
(91.030001 24.390001 0)
(91.030001 24.390001 4.9265839e-22)
(91.030001 24.390002 6.6468694e-22)
(91.030001 24.390002 2.1936616e-22)
(91.030001 24.390002 -2.5308272e-22)
(91.03 24.390002 -2.9161384e-22)
(91.03 24.390003 -1.6778391e-22)
(91.03 24.390003 0)
(91.029887 24.389978 7.7440143e-22)
(90.922371 24.344854 -1.3944359e-21)
(78.092531 19.341399 -1.4504347e-22)
(-164.96361 -59.628249 1.6569819e-22)
(-423.22691 -59.148686 7.5596678e-22)
(-466.91466 193.36285 0)
(-416.33496 248.1651 0)
(-422.20065 264.21352 -6.9448328e-22)
(-496.87867 385.82282 1.5740473e-22)
(-720.24044 642.41969 0)
(-831.00536 769.58581 -6.0328828e-22)
(-843.6653 785.1399 -6.803317e-22)
(-823.46693 761.60461 2.5529253e-22)
(-744.61889 670.04084 2.8696012e-22)
(-660.66384 597.3231 0)
(91.03 24.39 1.0832758e-21)
(91.03 24.39 -1.2713351e-21)
(91.03 24.39 -7.8970614e-22)
(91.03 24.39 1.0292418e-22)
(91.03 24.39 0)
(91.03 24.39 -1.6270997e-21)
(91.03 24.39 -8.290312e-22)
(91.03 24.39 9.7117558e-23)
(91.03 24.39 0)
(91.03 24.39 -1.0649311e-21)
(91.029999 24.39 1.2459542e-21)
(91.029997 24.39 -7.2852399e-22)
(91.029997 24.39 -8.5151146e-22)
(91.029998 24.39 9.3254437e-22)
(91.030001 24.39 0)
(91.030003 24.39 7.6216936e-22)
(91.030002 24.39 7.8992838e-22)
(91.03 24.39 -9.2038047e-22)
(91.03 24.39 0)
(91.03 24.39 0)
(91.03 24.390001 -7.2446215e-22)
(91.03 24.390001 0)
(91.03 24.390001 0)
(91.030001 24.390001 -4.9493596e-22)
(91.030001 24.390001 -7.3676319e-22)
(91.030001 24.390002 0)
(91.030001 24.390002 0)
(91.030001 24.390002 -8.8329557e-22)
(91.03 24.390002 -7.2703403e-22)
(91.03 24.390002 0)
(91.029997 24.390003 9.615498e-23)
(91.027116 24.389016 0)
(89.225539 23.645983 -1.2645889e-22)
(-38.164559 -25.125221 4.3410831e-22)
(-350.44018 -105.0123 0)
(-487.73443 103.10581 1.8857547e-22)
(-442.07773 236.30488 4.2954146e-22)
(-409.33907 230.13975 1.2211421e-22)
(-407.85842 234.79543 9.7043405e-22)
(-451.37679 311.05419 -1.5712052e-22)
(-612.22293 513.88544 1.7776892e-22)
(-795.96646 727.19089 6.0233371e-22)
(-837.03103 774.76065 0)
(-832.38989 771.39478 -1.0195675e-21)
(-784.14736 713.59848 -2.8657391e-22)
(-681.76916 594.7122 0)
(-632.53952 557.70439 0)
(91.03 24.39 -5.7164807e-22)
(91.03 24.39 0)
(91.03 24.39 6.5598029e-22)
(91.03 24.39 8.7206452e-22)
(91.03 24.39 -6.0155241e-23)
(91.03 24.39 7.0519858e-22)
(91.03 24.39 -8.2642448e-23)
(91.03 24.39 -8.2291777e-22)
(91.03 24.39 5.6685734e-23)
(91.03 24.39 4.6446895e-22)
(91.029999 24.39 7.7633442e-23)
(91.029997 24.39 4.5394242e-23)
(91.029997 24.39 1.6448254e-21)
(91.029997 24.39 -9.2975564e-22)
(91.03 24.39 -7.2367401e-23)
(91.030003 24.39 -6.7549829e-22)
(91.030002 24.39 -7.876392e-22)
(91.03 24.39 4.0151326e-22)
(91.03 24.39 1.3356625e-22)
(91.03 24.39 -1.5538648e-22)
(91.03 24.390001 7.2247225e-22)
(91.03 24.390001 1.0487962e-22)
(91.03 24.390001 0)
(91.030001 24.390001 4.9364473e-22)
(91.030001 24.390001 1.3064507e-21)
(91.030001 24.390001 -6.6106461e-22)
(91.030001 24.390002 0)
(91.030001 24.390002 0)
(91.03 24.390002 -5.8027136e-22)
(91.03 24.390002 5.8434444e-22)
(91.029958 24.390009 5.7565818e-22)
(90.95284 24.360862 4.404604e-22)
(59.001638 12.086966 8.8338218e-22)
(-248.93067 -80.835481 -1.0830938e-21)
(-473.05021 24.938395 -4.9498453e-22)
(-471.6315 227.14404 5.646949e-22)
(-436.98761 235.27172 -4.2881682e-22)
(-413.52969 209.61254 0)
(-406.61023 210.06818 -6.9201325e-22)
(-418.48722 249.97108 3.1375764e-22)
(-509.11605 376.97485 0)
(-718.32088 634.24174 4.0104057e-22)
(-825.37419 753.1843 2.2611404e-22)
(-836.13389 767.94982 6.3644583e-22)
(-814.01168 738.89413 -2.862108e-22)
(-728.39747 631.29001 1.6062077e-22)
(-639.9894 542.59111 -3.5991405e-22)
(-599.38753 529.81589 2.013467e-22)
(-569.63001 554.98184 -4.4979849e-22)
(-561.86662 577.02897 7.5249133e-22)
(-547.91638 582.96715 -5.5866167e-22)
(-512.32186 572.22057 4.6605183e-22)
(-489.16342 573.16028 -3.449455e-22)
(-475.93233 581.23218 0)
(-458.87325 577.75322 0)
(91.03 24.39 -5.0678767e-22)
(91.03 24.39 -5.5760631e-22)
(91.03 24.39 6.542583e-22)
(91.03 24.39 0)
(91.03 24.39 -5.9998676e-23)
(91.03 24.39 1.0550582e-22)
(91.03 24.39 0)
(91.03 24.39 6.7596141e-22)
(91.03 24.39 1.1308271e-22)
(91.03 24.39 3.9710859e-22)
(91.029999 24.39 3.8719167e-23)
(91.029997 24.39 -3.1696698e-22)
(91.029997 24.39 -8.4684309e-22)
(91.029997 24.39 6.1831851e-23)
(91.03 24.39 -5.7753423e-22)
(91.030003 24.39 2.5270352e-22)
(91.030002 24.39 0)
(91.03 24.39 4.0057036e-22)
(91.03 24.39 1.3325664e-22)
(91.03 24.39 -6.9764019e-22)
(91.03 24.390001 0)
(91.03 24.390001 5.2323546e-23)
(91.03 24.390001 0)
(91.030001 24.390001 -1.4073941e-22)
(91.030001 24.390001 -8.9629802e-22)
(91.030001 24.390001 0)
(91.030001 24.390002 -5.4439434e-23)
(91.030001 24.390002 6.2818103e-23)
(91.030001 24.390002 5.7915659e-22)
(91.029999 24.390003 -6.6658001e-22)
(91.029487 24.389973 -3.8307797e-22)
(89.000425 23.656206 5.4961033e-23)
(-102.6671 -38.882089 -6.299114e-22)
(-419.25127 -43.974716 7.2085023e-22)
(-491.77943 188.54446 2.4709694e-22)
(-451.97624 233.22051 -3.7590339e-22)
(-436.36993 222.40233 -1.0705109e-22)
(-417.80765 200.76165 -2.4347287e-22)
(-395.77377 190.32914 1.3821868e-22)
(-392.0877 203.67736 -6.2672074e-22)
(-433.18571 287.7719 0)
(-609.91566 504.66409 -4.0059749e-22)
(-791.98309 711.39299 -3.3882049e-22)
(-827.8188 758.13897 1.2717877e-22)
(-823.50484 753.18873 -1.4294409e-22)
(-774.07802 689.15156 3.2096094e-22)
(-662.50279 549.52312 1.8259332e-30)
(-605.66937 507.48638 0)
(-566.2967 516.38029 0)
(-546.3372 538.94899 -1.2532821e-22)
(-538.89337 545.10532 0)
(-523.77859 541.34408 3.1046345e-22)
(-501.00365 529.7743 0)
(-483.51282 532.90261 -2.9853939e-24)
(-459.70631 542.45924 1.0438867e-22)
(91.03 24.39 0)
(91.03 24.39 2.9677954e-22)
(91.03 24.39 -1.0446724e-21)
(91.03 24.39 -4.0847659e-22)
(91.03 24.39 0)
(91.03 24.39 2.8078123e-22)
(91.03 24.39 0)
(91.03 24.39 0)
(91.03 24.39 0)
(91.029999 24.39 2.9724407e-22)
(91.029999 24.39 -3.8643345e-23)
(91.029997 24.39 3.6154419e-22)
(91.029997 24.39 5.2825761e-23)
(91.029997 24.39 -6.1713768e-23)
(91.03 24.39 8.6466141e-22)
(91.030002 24.39 -3.3630723e-22)
(91.030002 24.39 0)
(91.03 24.39 -5.1407668e-22)
(91.03 24.39 -1.9952348e-22)
(91.03 24.39 9.2852946e-22)
(91.03 24.390001 -4.4973775e-23)
(91.03 24.390001 5.2233012e-23)
(91.03 24.390001 6.0606464e-23)
(91.030001 24.390001 2.4588329e-22)
(91.030001 24.390001 2.847191e-22)
(91.030001 24.390002 -4.7046277e-23)
(91.030001 24.390002 0)
(91.030001 24.390002 6.2721937e-23)
(91.030001 24.390002 0)
(91.029973 24.390005 3.3280378e-22)
(91.011713 24.384706 1.9126863e-22)
(42.274197 8.8601171 -3.8419896e-22)
(-318.17554 -67.148349 -6.2906941e-23)
(-492.01584 67.359218 3.5995816e-22)
(-454.10104 209.97686 2.4679693e-22)
(-436.13712 210.33427 1.8772293e-22)
(-439.57144 211.42285 0)
(-421.19497 198.42982 1.8240891e-22)
(-391.80874 176.00145 0)
(-384.52962 180.65551 3.9131325e-22)
(-405.01362 234.00971 0)
(-514.04524 376.01272 -1.0006577e-22)
(-720.17229 624.3023 2.257147e-22)
(-816.65687 738.30197 -2.5413135e-22)
(-825.93968 753.08766 0)
(-802.16067 719.59479 0)
(-711.96156 599.32352 1.7970472e-22)
(-621.59274 498.03746 1.0052967e-22)
(-570.5253 492.45539 1.1230564e-22)
(-537.67299 519.49501 -1.2526375e-22)
(-525.63747 530.40673 1.3951905e-22)
(-511.83688 524.60351 -3.103461e-22)
(-494.42579 511.58449 -8.6186086e-23)
(-477.538 511.94845 -2.9020008e-22)
(-461.1681 524.2548 2.1164679e-22)
(91.03 24.39 -2.5249962e-22)
(91.03 24.39 6.1120943e-22)
(91.03 24.39 5.2157248e-22)
(91.03 24.39 1.7844825e-22)
(91.03 24.39 0)
(91.03 24.39 -3.1542307e-22)
(91.03 24.39 4.1073006e-23)
(91.03 24.39 1.9247109e-22)
(91.03 24.39 -1.9722179e-22)
(91.03 24.39 -2.9682542e-22)
(91.029999 24.39 0)
(91.029997 24.39 -2.2565155e-23)
(91.029997 24.39 5.2752968e-23)
(91.029997 24.39 2.1570316e-22)
(91.029999 24.39 -5.7566095e-22)
(91.030002 24.39 0)
(91.030002 24.39 -2.4477278e-23)
(91.03 24.39 7.1305933e-22)
(91.03 24.39 2.9889828e-22)
(91.03 24.39 -5.0231269e-22)
(91.03 24.390001 0)
(91.03 24.390001 2.6084212e-23)
(91.03 24.390001 -2.4213102e-22)
(91.030001 24.390001 -3.1575888e-22)
(91.030001 24.390001 0)
(91.030001 24.390002 1.8796905e-22)
(91.030001 24.390002 2.7146577e-23)
(91.030001 24.390002 0)
(91.030001 24.390002 -1.8052371e-22)
(91.029874 24.39003 -3.3245626e-22)
(89.931067 24.069493 -1.9107516e-22)
(-116.30676 -30.537761 2.74156e-23)
(-442.90003 -39.506834 -1.5711429e-22)
(-488.13849 143.95481 -2.8770322e-22)
(-427.09614 187.50289 -1.6439447e-22)
(-432.82188 196.10647 -1.8757069e-22)
(-435.82294 203.87715 5.3418596e-23)
(-424.88183 191.99308 0)
(-395.59869 165.32509 -1.379693e-22)
(-381.84152 160.91103 2.3460938e-22)
(-380.6734 185.31512 4.4254699e-23)
(-432.30087 277.79614 -5.0000879e-23)
(-611.18696 490.81059 1.6918946e-22)
(-784.2559 696.38981 0)
(-817.06043 741.98628 1.4278624e-22)
(-812.66786 734.18366 0)
(-761.49334 654.76366 0)
(-650.10053 505.11568 -1.0048473e-22)
(-597.62568 463.45537 1.1225238e-22)
(-551.3133 482.80477 -3.130512e-22)
(-529.36707 509.15363 1.5341529e-28)
(-514.19007 511.63784 2.603826e-28)
(-497.83736 498.72505 8.6163802e-23)
(-488.81397 489.46157 -9.5737116e-23)
(-475.43315 491.63992 5.363818e-23)
(91.03 24.39 -3.5159838e-22)
(91.03 24.39 -2.4970074e-22)
(91.03 24.39 1.9102749e-22)
(91.03 24.39 0)
(91.03 24.39 1.7508309e-23)
(91.03 24.39 0)
(91.03 24.39 -1.923061e-22)
(91.03 24.39 2.1112915e-22)
(91.03 24.39 -6.5905392e-23)
(91.029999 24.39 4.8196052e-23)
(91.029997 24.39 -1.1273153e-23)
(91.029997 24.39 2.6354626e-23)
(91.029997 24.39 -2.0013128e-22)
(91.029999 24.39 3.0557135e-22)
(91.030002 24.39 -6.292249e-23)
(91.030002 24.39 -2.4457803e-23)
(91.03 24.39 -2.4224993e-22)
(91.03 24.39 -1.6592583e-23)
(91.03 24.390001 1.3513441e-22)
(91.03 24.390001 -2.2441713e-23)
(91.03 24.390001 1.3032427e-23)
(91.03 24.390001 1.6634367e-22)
(91.030001 24.390001 -1.7529562e-23)
(91.030001 24.390001 4.0597876e-23)
(91.030001 24.390002 -2.7001926e-22)
(91.030001 24.390002 2.7128237e-23)
(91.030001 24.390002 -1.5652896e-23)
(91.029994 24.390002 1.4432595e-22)
(91.029576 24.390078 0)
(62.659208 16.75906 -9.5479097e-23)
(-305.11375 -57.955866 9.5897126e-23)
(-482.70408 6.4466457 4.7107194e-23)
(-451.8913 153.20884 -7.1887297e-23)
(-414.4829 157.79072 -1.8484406e-22)
(-423.20958 184.65439 1.1717083e-22)
(-427.62717 193.65908 0)
(-426.15522 187.60533 0)
(-399.4517 162.27815 -3.4477777e-23)
(-371.61585 144.2054 -1.5634049e-22)
(-362.29323 154.81799 -4.4236659e-23)
(-386.43592 215.90992 1.4994491e-22)
(-510.52381 363.36145 -1.1275723e-22)
(-720.52463 615.31103 -3.174201e-23)
(-804.22384 724.77179 -7.1362969e-23)
(-812.86051 737.49393 -4.0046624e-23)
(-788.55083 695.49422 -2.2445884e-23)
(-694.51607 550.54559 -5.0229183e-23)
(-609.85655 446.52405 1.1222077e-22)
(-569.30292 433.98547 3.1299227e-23)
(-534.86701 463.44762 -6.9722478e-23)
(-522.48652 479.9179 9.6935418e-23)
(-504.94542 476.38049 2.1657565e-23)
(-484.05066 459.5464 -4.7733032e-23)
(-467.12619 458.91041 2.6802172e-23)
(91.03 24.39 1.4799788e-22)
(91.03 24.39 1.7365395e-22)
(91.03 24.39 0)
(91.03 24.39 0)
(91.03 24.39 7.0012967e-23)
(91.03 24.39 -8.2051577e-23)
(91.03 24.39 -9.6125494e-23)
(91.03 24.39 5.6285094e-23)
(91.03 24.39 0)
(91.029999 24.39 -7.7092024e-23)
(91.029997 24.39 9.0160048e-23)
(91.029996 24.39 -5.2694698e-23)
(91.029997 24.39 -1.2312402e-22)
(91.03 24.39 7.187967e-23)
(91.030002 24.39 1.6774808e-22)
(91.030002 24.39 0)
(91.03 24.39 5.6985102e-23)
(91.03 24.39 6.6353256e-23)
(91.03 24.39 0)
(91.03 24.390001 0)
(91.03 24.390001 0)
(91.03 24.390001 1.4418147e-29)
(91.030001 24.390001 -3.3426961e-29)
(91.030001 24.390001 8.1176921e-23)
(91.030001 24.390002 4.6949084e-23)
(91.030001 24.390002 5.4244268e-23)
(91.030001 24.390002 0)
(91.029964 24.390002 0)
(91.021361 24.388163 8.3045364e-23)
(-22.848758 -3.3277334 0)
(-417.28264 -64.13548 0)
(-493.52383 43.658067 6.2798491e-23)
(-423.0075 137.60968 3.5937249e-23)
(-403.11587 134.87294 4.1069473e-23)
(-410.12036 166.58399 -9.3721604e-23)
(-421.36505 182.68769 0)
(-423.45183 179.98981 0)
(-404.61568 159.37093 0)
(-372.53773 132.94744 0)
(-363.15472 135.07535 -4.4230084e-23)
(-368.77159 173.34587 0)
(-442.36296 280.11121 0)
(-621.11217 489.10143 0)
(-775.26626 684.43009 7.1358413e-23)
(-803.68717 727.22897 4.005096e-23)
(-799.45364 715.58896 -3.2099093e-29)
(-741.33863 617.27688 2.5112621e-23)
(-627.05802 452.22816 2.8054113e-23)
(-578.77437 410.13476 -3.1294746e-23)
(-542.68951 417.62829 1.6622195e-29)
(-512.95601 447.83121 -1.9386076e-23)
(-496.14111 455.134 3.5198742e-28)
(-474.346 447.34841 2.392468e-23)
(-455.32905 443.17948 2.6778674e-23)
(91.03 24.39 2.2206211e-22)
(91.03 24.39 -5.4282779e-23)
(91.03 24.39 -2.5470321e-23)
(91.03 24.39 2.2401814e-22)
(91.03 24.39 -3.5016616e-23)
(91.03 24.39 -9.2334566e-23)
(91.03 24.39 3.0047813e-22)
(91.03 24.39 1.9705382e-22)
(91.03 24.39 3.2952686e-23)
(91.029999 24.39 -1.9278415e-23)
(91.029997 24.39 -2.4800939e-22)
(91.029996 24.39 3.9531977e-23)
(91.029997 24.39 3.2328931e-22)
(91.029999 24.39 -5.3924442e-23)
(91.030002 24.39 -1.0487072e-22)
(91.030002 24.39 0)
(91.03 24.39 1.5675015e-22)
(91.03 24.39 4.977782e-23)
(91.03 24.39 -7.7219629e-23)
(91.03 24.39 1.1220846e-23)
(91.03 24.390001 -1.8245415e-22)
(91.03 24.390001 7.5610928e-23)
(91.030001 24.390001 -1.5776631e-22)
(91.030001 24.390001 -4.0598007e-23)
(91.030001 24.390001 1.7609967e-22)
(91.030001 24.390001 -8.13848e-23)
(91.030001 24.390002 3.1305998e-23)
(91.029905 24.390004 -3.6081277e-23)
(89.793479 24.08725 -4.1531284e-23)
(-144.15582 -29.935621 4.7738809e-23)
(-468.75218 -60.178754 2.0549151e-22)
(-485.63519 74.24354 -4.7108051e-23)
(-404.07195 119.60913 5.3915987e-23)
(-392.87382 116.78569 -6.161523e-23)
(-398.23668 147.52991 -1.4060797e-22)
(-415.11062 170.43408 2.6695558e-23)
(-420.37484 170.79704 3.0363097e-23)
(-408.46254 158.31037 -3.4478386e-23)
(-370.45293 123.38854 3.9083876e-23)
(-352.42358 117.04922 8.8469238e-23)
(-346.80007 139.70085 2.499083e-23)
(-392.25493 214.55969 -1.4094799e-22)
(-530.16332 371.71568 3.1744919e-23)
(-719.69298 611.9063 -3.5686673e-23)
(-791.08655 712.69643 -4.0050885e-23)
(-800.24296 722.22592 -2.2438867e-23)
(-774.78555 671.0176 -2.5115216e-23)
(-667.6249 500.18867 8.4170184e-23)
(-585.91619 398.62668 1.2518369e-22)
(-545.06781 390.48859 3.4862197e-23)
(-512.95721 415.64392 8.5672504e-27)
(-495.68198 433.21875 1.0780362e-22)
(-480.25201 429.34883 -1.2019353e-22)
(-460.78567 417.24124 1.0964896e-22)
(91.03 24.39 -3.7042997e-23)
(91.03 24.39 3.477152e-22)
(91.03 24.39 -4.3337461e-22)
(91.03 24.39 -2.0926581e-22)
(91.03 24.39 -3.5047e-23)
(91.03 24.39 2.0536495e-22)
(91.03 24.39 1.9247109e-22)
(91.03 24.39 -6.7618916e-22)
(91.03 24.39 -3.2980599e-23)
(91.029999 24.39 3.4730377e-22)
(91.029997 24.39 1.8052124e-22)
(91.029996 24.39 4.2202356e-22)
(91.029997 24.39 -2.7733242e-22)
(91.029999 24.39 0)
(91.030002 24.39 -3.1486557e-22)
(91.030002 24.39 -3.6715975e-22)
(91.03 24.39 2.2817977e-22)
(91.03 24.39 3.3211046e-23)
(91.03 24.39 -3.8639538e-23)
(91.03 24.39 0)
(91.03 24.390001 1.8258919e-22)
(91.03 24.390001 0)
(91.030001 24.390001 1.7542183e-22)
(91.030001 24.390001 -4.0626534e-23)
(91.030001 24.390001 -1.4097703e-22)
(91.030001 24.390001 -2.7146576e-23)
(91.03 24.390001 6.2653099e-23)
(91.029807 24.390012 0)
(78.885012 21.337166 -8.3114331e-23)
(-260.91288 -53.981476 1.9107025e-22)
(-488.93822 -49.966153 -3.5639398e-22)
(-465.20466 84.91347 2.5138736e-22)
(-389.7438 100.39393 -3.2367547e-22)
(-381.4531 98.357659 0)
(-381.16012 126.3376 2.3446965e-22)
(-403.83154 156.48085 1.0683644e-22)
(-414.07056 162.26584 0)
(-409.02027 155.20087 0)
(-378.10582 119.86441 -7.8203923e-23)
(-354.04892 104.66293 8.8505194e-23)
(-344.00313 120.26765 -2.0000388e-22)
(-368.85031 173.74333 1.6919895e-22)
(-465.15355 289.59061 -1.2702489e-22)
(-634.99685 496.02175 -7.1400275e-23)
(-765.19862 675.89511 -1.6026008e-22)
(-792.6267 715.64085 0)
(-788.95359 699.16426 0)
(-717.68286 572.70275 -1.1225399e-22)
(-599.01565 400.18952 -6.260486e-23)
(-554.94259 363.5007 -2.0919247e-22)
(-520.59672 376.6446 7.7563553e-23)
(-503.52933 400.43535 -8.6159765e-23)
(-488.46821 403.2253 -9.7068239e-23)
(-462.05573 391.60756 2.1932768e-22)
(91.03 24.39 -2.9677958e-22)
(91.03 24.39 -3.4822426e-22)
(91.03 24.39 3.5741727e-22)
(91.03 24.39 5.9877026e-23)
(91.03 24.39 -3.5097645e-23)
(91.03 24.39 -6.1698041e-22)
(91.03 24.39 4.8186546e-23)
(91.03 24.39 3.9500393e-22)
(91.03 24.39 0)
(91.029999 24.39 -3.0914717e-22)
(91.029997 24.39 0)
(91.029996 24.39 -4.226056e-22)
(91.029997 24.39 -3.0856862e-23)
(91.029999 24.39 3.6027618e-23)
(91.030002 24.39 3.3630741e-22)
(91.030002 24.39 3.9215648e-22)
(91.03 24.39 -4.5695767e-22)
(91.03 24.39 5.3206448e-22)
(91.03 24.39 -3.86888e-23)
(91.03 24.39 4.4973706e-23)
(91.03 24.390001 0)
(91.03 24.390001 4.8485472e-22)
(91.030001 24.390001 5.2689471e-22)
(91.030001 24.390001 4.0674258e-23)
(91.030001 24.390001 0)
(91.030001 24.390001 4.3483337e-22)
(91.029994 24.390001 6.2721834e-23)
(91.02963 24.390026 -2.8914513e-22)
(51.223329 14.147951 -4.1600262e-22)
(-361.76471 -74.345967 2.3907795e-22)
(-498.2647 -42.56336 1.6465099e-22)
(-445.37615 80.920356 -5.0325409e-22)
(-380.41487 79.929465 2.1598608e-22)
(-372.91731 79.457093 4.1136001e-22)
(-368.92484 106.08731 0)
(-390.68011 135.78662 -2.1385083e-22)
(-406.23864 153.04967 0)
(-405.86231 150.33495 -6.9040509e-23)
(-382.02129 118.63084 1.5652098e-22)
(-347.12715 91.490382 0)
(-335.93892 95.75214 3.0019829e-22)
(-343.08003 132.25301 0)