/*--------------------------------*- C++ -*----------------------------------*\
| =========                 |                                                 |
| \\      /  F ield         | OpenFOAM: The Open Source CFD Toolbox           |
|  \\    /   O peration     | Version:  2506                                  |
|   \\  /    A nd           | Website:  www.openfoam.com                      |
|    \\/     M anipulation  |                                                 |
\*---------------------------------------------------------------------------*/
FoamFile
{
    version     2.0;
    format      ascii;
    arch        "LSB;label=32;scalar=64";
    class       volScalarField;
    location    "0.0015";
    object      nut;
}
// * * * * * * * * * * * * * * * * * * * * * * * * * * * * * * * * * * * * * //

dimensions      [0 2 -1 0 0 0 0];

internalField   nonuniform List<scalar> 
13761
(
3.0655566e-05
3.0610341e-05
3.0764093e-05
3.074996e-05
3.0684374e-05
3.0670591e-05
3.0639872e-05
3.0642349e-05
3.0675174e-05
3.0707389e-05
3.0729452e-05
3.0744472e-05
3.07588e-05
3.0769953e-05
3.0768399e-05
3.0730163e-05
3.0647684e-05
3.0352898e-05
3.0058167e-05
3.0449898e-05
3.1474014e-05
3.2689397e-05
3.2557836e-05
3.1657236e-05
3.094414e-05
3.0967322e-05
3.1097583e-05
3.1233607e-05
3.1331252e-05
3.1402778e-05
3.1477931e-05
3.1600846e-05
3.1759808e-05
3.1896625e-05
3.1990014e-05
3.2091776e-05
3.2242247e-05
3.2430597e-05
3.2630851e-05
3.2849451e-05
3.3095891e-05
3.3359602e-05
3.3644019e-05
3.3926797e-05
3.4165691e-05
3.4349001e-05
3.4499547e-05
3.4673559e-05
3.4910374e-05
3.5212379e-05
3.5563612e-05
3.5954438e-05
3.6372916e-05
3.6803283e-05
3.723885e-05
3.7674595e-05
3.8105579e-05
3.8538958e-05
3.8982484e-05
3.9463731e-05
3.9978168e-05
4.0487731e-05
4.1805404e-05
5.950784e-05
0.00015866027
0.00030965646
0.00043638783
0.00053046166
0.00059848466
0.00064608143
0.00067718307
0.00069469668
0.00070091489
0.00069770474
0.00068669809
0.00066912333
0.00064551747
0.00061730783
0.00058581931
0.00055202636
0.00051669802
0.00048046961
0.00044387375
0.00040736601
0.00037132072
0.00033605493
0.0003018117
0.00026879322
0.00023715856
0.0002070561
0.00017853303
0.00015160836
0.00012634673
0.00010285156
8.1230171e-05
6.1616214e-05
4.4214686e-05
2.9311975e-05
1.7255882e-05
8.4125137e-06
3.0245473e-06
6.8815395e-07
8.2091278e-08
4.6935944e-09
1.636933e-09
3.0657121e-05
3.0610137e-05
3.0763817e-05
3.0751286e-05
3.0684891e-05
3.0671348e-05
3.0641452e-05
3.0643662e-05
3.0675325e-05
3.0707388e-05
3.0730354e-05
3.0745586e-05
3.076022e-05
3.077165e-05
3.0770875e-05
3.0734247e-05
3.0654234e-05
3.0372618e-05
3.0056858e-05
3.0415588e-05
3.1405975e-05
3.2656795e-05
3.2600174e-05
3.1755819e-05
3.0993119e-05
3.0980245e-05
3.1094664e-05
3.1225905e-05
3.1332355e-05
3.1409174e-05
3.148469e-05
3.1609242e-05
3.1770455e-05
3.1911124e-05
3.2008844e-05
3.2114438e-05
3.226853e-05
3.2459399e-05
3.2661184e-05
3.2880171e-05
3.3131282e-05
3.3404564e-05
3.3698202e-05
3.3991327e-05
3.4243495e-05
3.4439049e-05
3.4599151e-05
3.4780843e-05
3.5024208e-05
3.533414e-05
3.5698234e-05
3.6106136e-05
3.6540505e-05
3.6982701e-05
3.7428425e-05
3.7875539e-05
3.8320319e-05
3.8769667e-05
3.9242009e-05
3.9747612e-05
4.0271154e-05
4.0866535e-05
4.3467347e-05
7.0744559e-05
0.00018551211
0.00033868647
0.00045885267
0.00054637274
0.00060889167
0.00065169299
0.00067855347
0.00069216344
0.00069469411
0.00068794848
0.00067356354
0.00065304822
0.00062753681
0.00059806211
0.00056557557
0.0005309106
0.00049479974
0.00045788761
0.00042073501
0.00038382911
0.00034757596
0.00031231537
0.00027833122
0.00024581948
0.00021493431
0.00018579605
0.00015853286
0.0001332749
0.00011009653
8.9004515e-05
6.99966e-05
5.3070541e-05
3.8188658e-05
2.539375e-05
1.4890529e-05
7.1015923e-06
2.4480343e-06
5.3179889e-07
6.1377644e-08
3.2413358e-09
9.274971e-10
3.0610395e-05
3.0763588e-05
3.0753002e-05
3.0685803e-05
3.067239e-05
3.0643322e-05
3.0645021e-05
3.0675427e-05
3.0707491e-05
3.0731288e-05
3.0746706e-05
3.0761539e-05
3.07731e-05
3.0773308e-05
3.0738421e-05
3.0661287e-05
3.0394483e-05
3.0057767e-05
3.0376502e-05
3.1327754e-05
3.2611985e-05
3.2642445e-05
3.186378e-05
3.1053814e-05
3.0992233e-05
3.1090935e-05
3.1217666e-05
3.1332071e-05
3.1414697e-05
3.1490105e-05
3.1615093e-05
3.1777651e-05
3.1922871e-05
3.2025904e-05
3.2134192e-05
3.2290083e-05
3.2482508e-05
3.2685407e-05
3.2903166e-05
3.3155936e-05
3.3435781e-05
3.3737052e-05
3.4040569e-05
3.4308343e-05
3.4519188e-05
3.4689715e-05
3.487538e-05
3.5118075e-05
3.5428368e-05
3.5798446e-05
3.6217105e-05
3.6662642e-05
3.7113204e-05
3.756544e-05
3.8020087e-05
3.8475239e-05
3.8936772e-05
3.942016e-05
3.9934857e-05
4.0471383e-05
4.1067975e-05
4.3361409e-05
6.8635522e-05
0.00018242885
0.00033732628
0.00045647842
0.00054284024
0.00060439665
0.00064628982
0.00067240682
0.00068535524
0.00068731894
0.00068027295
0.00066577163
0.00064522782
0.00061973297
0.00059032025
0.00055798975
0.00052355386
0.00048772848
0.00045114603
0.00041435615
0.00037783997
0.00034200983
0.0003072269
0.00027375798
0.00024177667
0.0002114381
0.00018286855
0.00015613613
0.0001312744
0.00010830673
8.7299112e-05
6.8311974e-05
5.1389597e-05
3.65866e-05
2.4004757e-05
1.3862695e-05
6.5173979e-06
2.2243313e-06
4.8143991e-07
5.565452e-08
3.0413446e-09
9.6446386e-10
3.0611074e-05
3.0763691e-05
3.0754921e-05
3.0686999e-05
3.0673601e-05
3.0645284e-05
3.0646429e-05
3.067558e-05
3.0707687e-05
3.0732289e-05
3.0747803e-05
3.0762606e-05
3.0774371e-05
3.0775565e-05
3.074225e-05
3.0667704e-05
3.041554e-05
3.0061558e-05
3.0339396e-05
3.1252226e-05
3.2560569e-05
3.2677061e-05
3.1967613e-05
3.1123757e-05
3.100612e-05
3.1089728e-05
3.1211223e-05
3.1329482e-05
3.1419802e-05
3.1496161e-05
3.1621504e-05
3.1784401e-05
3.1933628e-05
3.204237e-05
3.2153813e-05
3.2311753e-05
3.2506022e-05
3.2710718e-05
3.2927527e-05
3.3180412e-05
3.3465216e-05
3.3774547e-05
3.4088268e-05
3.4372303e-05
3.4600248e-05
3.478362e-05
3.4975143e-05
3.5217969e-05
3.552849e-05
3.5904079e-05
3.6333673e-05
3.6791848e-05
3.7253589e-05
3.7714433e-05
3.8177251e-05
3.864263e-05
3.9116882e-05
3.9611236e-05
4.0132298e-05
4.0672349e-05
4.126418e-05
4.3253273e-05
6.4628639e-05
0.00016871467
0.00032094674
0.00044114677
0.00052884527
0.00059167735
0.00063472153
0.00066194715
0.00067596034
0.00067900567
0.00067294854
0.00065930953
0.00063924877
0.00061423119
0.00058544563
0.0005538317
0.00052012034
0.00048499288
0.00044906309
0.00041286168
0.00037685482
0.00034143467
0.00030693844
0.00027364632
0.00024179622
0.00021155691
0.0001830764
0.00015645088
0.00013173568
0.00010895362
8.8103954e-05
6.917228e-05
5.2172764e-05
3.719646e-05
2.4396109e-05
1.4048152e-05
6.5640236e-06
2.2214708e-06
4.7714914e-07
5.4878174e-08
2.9361031e-09
8.7741258e-10
3.0612112e-05
3.0764055e-05
3.0756918e-05
3.0688454e-05
3.067497e-05
3.0647317e-05
3.0647853e-05
3.0675839e-05
3.0707958e-05
3.0733332e-05
3.0748765e-05
3.0763571e-05
3.0775614e-05
3.0777676e-05
3.074605e-05
3.0673989e-05
3.0436326e-05
3.0069105e-05
3.0302218e-05
3.1176298e-05
3.2500313e-05
3.2707964e-05
3.2069818e-05
3.1203929e-05
3.1021711e-05
3.1090229e-05
3.1206524e-05
3.1326328e-05
3.142404e-05
3.150243e-05
3.1627742e-05
3.1789934e-05
3.1942699e-05
3.2057342e-05
3.2172349e-05
3.2332688e-05
3.2529174e-05
3.2736127e-05
3.2952134e-05
3.3203333e-05
3.3491189e-05
3.3807634e-05
3.4131391e-05
3.4432344e-05
3.4679364e-05
3.4877634e-05
3.5075577e-05
3.5317966e-05
3.5627336e-05
3.6006508e-05
3.6444753e-05
3.6914668e-05
3.7388973e-05
3.7860129e-05
3.8331795e-05
3.880755e-05
3.9293318e-05
3.9797663e-05
4.0327083e-05
4.0878225e-05
4.1472034e-05
4.3163659e-05
6.0916618e-05
0.00015666632
0.00030810375
0.00042912796
0.00051722565
0.00058034079
0.0006242561
0.00065185352
0.00066622472
0.00066962331
0.00066393792
0.00065074168
0.00063141541
0.00060714005
0.00057895779
0.00054777154
0.00051456123
0.00047996836
0.00044456153
0.0004088625
0.00037335445
0.00033842968
0.00030441688
0.00027158489
0.0002401501
0.00021026884
0.00018205585
0.00015559003
0.00013093212
0.00010813543
8.7248003e-05
6.8334871e-05
5.1443913e-05
3.6625175e-05
2.3992647e-05
1.3795181e-05
6.4317122e-06
2.1706014e-06
4.6509203e-07
5.3415546e-08
2.8507147e-09
8.462645e-10
3.0613105e-05
3.0764519e-05
3.0758987e-05
3.0690121e-05
3.0676397e-05
3.0649362e-05
3.0649295e-05
3.0676144e-05
3.0708378e-05
3.0734286e-05
3.0749597e-05
3.0764463e-05
3.0776737e-05
3.0779838e-05
3.0749864e-05
3.0680161e-05
3.0456863e-05
3.0080451e-05
3.0265666e-05
3.1100876e-05
3.2431059e-05
3.2735147e-05
3.2167063e-05
3.1292459e-05
3.1040816e-05
3.10937e-05
3.1203478e-05
3.1323002e-05
3.1426718e-05
3.1508712e-05
3.1633801e-05
3.1794559e-05
3.1950537e-05
3.2070832e-05
3.2189434e-05
3.2352245e-05
3.2551518e-05
3.2761439e-05
3.2977266e-05
3.3225362e-05
3.3514367e-05
3.3836349e-05
3.4170252e-05
3.4488453e-05
3.4756417e-05
3.4971942e-05
3.5177961e-05
3.5420377e-05
3.5727911e-05
3.6108926e-05
3.6553768e-05
3.7034633e-05
3.7522649e-05
3.8006114e-05
3.8487607e-05
3.8973418e-05
3.9469819e-05
3.9983227e-05
4.0518555e-05
4.1073131e-05
4.1665007e-05
4.3066345e-05
5.7033631e-05
0.00014119553
0.00028972647
0.00041285263
0.0005026218
0.00056709897
0.00061173268
0.00064038878
0.00065588372
0.00066029978
0.00065557571
0.00064326015
0.00062475497
0.00060128444
0.00057390396
0.0005435032
0.00051082462
0.00047669268
0.00044179499
0.00040662728
0.0003715979
0.00033708663
0.00030342001
0.0002708673
0.00023964558
0.00020992958
0.00018186151
0.00015553558
0.00013101288
0.00010833513
8.7530619e-05
6.8621734e-05
5.1669113e-05
3.6756913e-05
2.4033802e-05
1.3778103e-05
6.3984304e-06
2.1499488e-06
4.5905451e-07
5.2615511e-08
2.790969e-09
8.1394323e-10
3.0613479e-05
3.0764995e-05
3.076108e-05
3.0691983e-05
3.0677832e-05
3.0651334e-05
3.0650728e-05
3.0676516e-05
3.0708861e-05
3.0735159e-05
3.0750377e-05
3.0765339e-05
3.0777919e-05
3.0782115e-05
3.0753778e-05
3.0686505e-05
3.0477035e-05
3.009519e-05
3.0230089e-05
3.1026144e-05
3.2353682e-05
3.2757787e-05
3.2258393e-05
3.1388627e-05
3.1064892e-05
3.1100255e-05
3.1201072e-05
3.1319956e-05
3.1428062e-05
3.1515218e-05
3.1639858e-05
3.1798568e-05
3.195712e-05
3.208249e-05
3.2204674e-05
3.2369795e-05
3.2572174e-05
3.2785508e-05
3.3001865e-05
3.3246357e-05
3.3534977e-05
3.3860273e-05
3.4204348e-05
3.4539902e-05
3.4830377e-05
3.5065664e-05
3.5281964e-05
3.5525215e-05
3.5830259e-05
3.621122e-05
3.6660385e-05
3.7150924e-05
3.7653197e-05
3.8150641e-05
3.8642961e-05
3.9138634e-05
3.9645474e-05
4.016886e-05
4.071274e-05
4.1277182e-05
4.1871532e-05
4.3053377e-05
5.3935493e-05
0.00012688048
0.00027128612
0.00039639349
0.00048767648
0.00055343544
0.00059922007
0.00062884688
0.00064515455
0.00065052157
0.00064660178
0.00063501906
0.00061721432
0.00059441247
0.00056767963
0.00053794991
0.00050602772
0.00047261005
0.00043830194
0.00040368025
0.00036916149
0.00033510767
0.00030184728
0.0002696476
0.00023872126
0.00020924564
0.00018136256
0.00015517047
0.00013073915
0.00010812251
8.7364732e-05
6.8513068e-05
5.1616057e-05
3.6744538e-05
2.4040401e-05
1.3784239e-05
6.3976906e-06
2.1472081e-06
4.5790921e-07
5.2435277e-08
2.7677621e-09
7.9498206e-10
3.0765466e-05
3.0763223e-05
3.069394e-05
3.0679261e-05
3.0653186e-05
3.0652084e-05
3.0677041e-05
3.0709328e-05
3.0735952e-05
3.0751149e-05
3.076628e-05
3.0779279e-05
3.0784467e-05
3.0758116e-05
3.0693126e-05
3.049681e-05
3.0113015e-05
3.0196306e-05
3.0952018e-05
3.226987e-05
3.2773622e-05
3.2343097e-05
3.1491213e-05
3.1094126e-05
3.1109024e-05
3.1198725e-05
3.1317765e-05
3.1428829e-05
3.1522067e-05
3.1646086e-05
3.1802277e-05
3.1962479e-05
3.2092248e-05
3.2218145e-05
3.2385745e-05
3.2591826e-05
3.2809196e-05
3.3026724e-05
3.3267457e-05
3.3554264e-05
3.3880915e-05
3.423405e-05
3.4586155e-05
3.4899967e-05
3.5157734e-05
3.5387147e-05
3.5632566e-05
3.593465e-05
3.6313819e-05
3.6765251e-05
3.7264203e-05
3.7780895e-05
3.82934e-05
3.8797757e-05
3.9303276e-05
3.9819722e-05
4.0352628e-05
4.0904912e-05
4.147702e-05
4.2074258e-05
4.3104097e-05
5.1317743e-05
0.00011250984
0.00025077139
0.00037827282
0.00047156392
0.00053893462
0.00058607605
0.00061692254
0.00063436363
0.00064066922
0.00063774792
0.0006270858
0.00061015477
0.00058816294
0.00056218248
0.00053316427
0.00050192498
0.00046916543
0.00043546214
0.000401331
0.00036728348
0.00033365911
0.00030077256
0.00026889166
0.00023823058
0.00020897077
0.00018125584
0.00015518695
0.0001308384
0.00010826799
8.7522499e-05
6.8651418e-05
5.1716534e-05
3.6799456e-05
2.4055522e-05
1.3774649e-05
6.3818541e-06
2.137574e-06
4.550965e-07
5.2060492e-08
2.7384817e-09
7.7826436e-10
3.0765682e-05
3.0765522e-05
3.0695852e-05
3.0680609e-05
3.065491e-05
3.0653461e-05
3.0677628e-05
3.070983e-05
3.0736619e-05
3.075198e-05
3.0767292e-05
3.0780813e-05
3.0787071e-05
3.0762774e-05
3.0699921e-05
3.0516238e-05
3.013345e-05
3.016515e-05
3.0878977e-05
3.2180903e-05
3.2781514e-05
3.2420273e-05
3.1598446e-05
3.1129402e-05
3.1118731e-05
3.1196908e-05
3.1316365e-05
3.142945e-05
3.152904e-05
3.1652511e-05
3.1806062e-05
3.1967137e-05
3.2100616e-05
3.2229929e-05
3.2399679e-05
3.260973e-05
3.2831822e-05
3.3051439e-05
3.328885e-05
3.3572547e-05
3.3898581e-05
3.4259228e-05
3.462687e-05
3.4963873e-05
3.5247034e-05
3.5493027e-05
3.5742634e-05
3.6041582e-05
3.6417311e-05
3.6868971e-05
3.737486e-05
3.790533e-05
3.8433965e-05
3.8951355e-05
3.9466899e-05
3.9992888e-05
4.0535912e-05
4.1098388e-05
4.1680937e-05
4.2283497e-05
4.3194911e-05
4.9326084e-05
9.9460542e-05
0.00022989485
0.00035951063
0.00045493807
0.00052401529
0.00057258206
0.00060467432
0.00062323738
0.00063057713
0.00062860798
0.00061905206
0.00060308231
0.00058190541
0.00055666298
0.00052831461
0.00049767881
0.00046546292
0.00043228002
0.00039866318
0.00036507912
0.00033188252
0.00029936664
0.00026781097
0.00023742322
0.00020838283
0.00018083948
0.00015490334
0.0001306557
0.00010815985
8.7467214e-05
6.8631361e-05
5.1718294e-05
3.6811809e-05
2.406894e-05
1.3783334e-05
6.3848213e-06
2.13763e-06
4.5487989e-07
5.2014313e-08
2.7293282e-09
7.6955035e-10
3.0765615e-05
3.0767914e-05
3.0697615e-05
3.0681913e-05
3.0656445e-05
3.065483e-05
3.0678275e-05
3.0710303e-05
3.0737228e-05
3.075292e-05
3.0768429e-05
3.0782603e-05
3.0789856e-05
3.0767519e-05
3.0707187e-05
3.053527e-05
3.0155891e-05
3.0137683e-05
3.0807773e-05
3.2087193e-05
3.2781384e-05
3.2488921e-05
3.1708877e-05
3.1172813e-05
3.1128589e-05
3.1196402e-05
3.131524e-05
3.1430151e-05
3.1535753e-05
3.1659327e-05
3.1810371e-05
3.1971461e-05
3.210811e-05
3.2240467e-05
3.2411853e-05
3.2625732e-05
3.2852913e-05
3.3075488e-05
3.3310471e-05
3.3590509e-05
3.3914446e-05
3.428017e-05
3.4661978e-05
3.5021312e-05
3.5331917e-05
3.5598272e-05
3.5854846e-05
3.6151181e-05
3.6522057e-05
3.6972121e-05
3.7483184e-05
3.8026534e-05
3.8571732e-05
3.9103736e-05
3.9630254e-05
4.0165612e-05
4.071785e-05
4.1289845e-05
4.1881303e-05
4.2490466e-05
4.3313011e-05
4.7802494e-05
8.7577133e-05
0.00020843365
0.00033988281
0.0004377738
0.00050877695
0.00055892134
0.00059236789
0.00061212694
0.00062053828
0.00061952956
0.00061075181
0.00059565432
0.00057533415
0.00055090158
0.00052331882
0.00049342009
0.00046190769
0.00042938797
0.00039636102
0.00036322978
0.0003304331
0.00029830861
0.00026708315
0.00023696779
0.0002081485
0.00018078034
0.00015497553
0.00013081877
0.00010837912
8.770847e-05
6.886484e-05
5.1918927e-05
3.6968593e-05
2.417956e-05
1.3851135e-05
6.4180114e-06
2.1490801e-06
4.5731028e-07
5.228303e-08
2.7361629e-09
7.6466288e-10
3.0765222e-05
3.0770288e-05
3.0699183e-05
3.0683101e-05
3.065786e-05
3.0656143e-05
3.0679012e-05
3.0710676e-05
3.0737821e-05
3.0753969e-05
3.076973e-05
3.0784555e-05
3.0792641e-05
3.0772544e-05
3.0714714e-05
3.0553789e-05
3.017998e-05
3.0114501e-05
3.0738842e-05
3.1989576e-05
3.2773463e-05
3.254791e-05
3.1820694e-05
3.1225257e-05
3.1139106e-05
3.1197799e-05
3.1314158e-05
3.1431071e-05
3.1541798e-05
3.1666472e-05
3.1815387e-05
3.1975572e-05
3.2114891e-05
3.2249925e-05
3.2422615e-05
3.2640108e-05
3.2872739e-05
3.3099155e-05
3.3332612e-05
3.360871e-05
3.3929403e-05
3.4297913e-05
3.4691483e-05
3.507143e-05
3.541063e-05
3.5701027e-05
3.596788e-05
3.6263049e-05
3.6628238e-05
3.7074947e-05
3.7589014e-05
3.8143307e-05
3.8705251e-05
3.9254166e-05
3.9793676e-05
4.0339453e-05
4.090113e-05
4.1482092e-05
4.2082803e-05
4.2699066e-05
4.3463426e-05
4.6761688e-05
7.7485126e-05
0.00018704988
0.00031948861
0.00042004158
0.00049310436
0.00054493644
0.00057983817
0.00060088552
0.00061044247
0.00061044105
0.00060254071
0.00058822151
0.0005688625
0.0005453333
0.00051848375
0.0004891848
0.00045821004
0.00042619938
0.00039366627
0.00036105436
0.00032873068
0.00029700831
0.00026615332
0.00023636308
0.00020781964
0.00018067784
0.00015504203
0.00013099264
0.00010860081
8.7939275e-05
6.9080455e-05
5.2106251e-05
3.7118313e-05
2.4287317e-05
1.3918081e-05
6.4511064e-06
2.1605568e-06
4.5975377e-07
5.2554148e-08
2.7439144e-09
7.6079002e-10
3.0772637e-05
3.0700566e-05
3.0684146e-05
3.0659273e-05
3.0657447e-05
3.0679681e-05
3.0711068e-05
3.0738358e-05
3.0755125e-05
3.0771072e-05
3.078657e-05
3.079553e-05
3.0777565e-05
3.072219e-05
3.0571833e-05
3.0205176e-05
3.0095218e-05
3.0672767e-05
3.1889692e-05
3.275767e-05
3.2596943e-05
3.1932164e-05
3.1287456e-05
3.1152159e-05
3.1201949e-05
3.1314104e-05
3.1432388e-05
3.1547337e-05
3.1673815e-05
3.1821125e-05
3.1979848e-05
3.212147e-05
3.2258563e-05
3.2432034e-05
3.2652498e-05
3.2890625e-05
3.3121973e-05
3.3355121e-05
3.362728e-05
3.3943985e-05
3.4313096e-05
3.4715765e-05
3.5114281e-05
3.548198e-05
3.5799711e-05
3.608086e-05
3.6377422e-05
3.6736969e-05
3.717861e-05
3.769304e-05
3.8255783e-05
3.8834052e-05
3.9401957e-05
3.9957993e-05
4.0515625e-05
4.1086159e-05
4.1673759e-05
4.2280903e-05
4.2903925e-05
4.3627011e-05
4.6055275e-05
6.9005259e-05
0.00016587942
0.00029824733
0.00040176149
0.00047707429
0.00053071876
0.00056715932
0.00058956052
0.00060033343
0.00060143338
0.00059452229
0.00058104932
0.0005622998
0.00053944548
0.0005133746
0.00048485153
0.00045457221
0.00042314188
0.00039112244
0.00035897034
0.0003270611
0.00029570664
0.00026518432
0.00023568463
0.00020738081
0.0001804179
0.00015491694
0.00013097253
0.00010866338
8.8058701e-05
6.9230496e-05
5.2262775e-05
3.7261402e-05
2.4402539e-05
1.3997415e-05
6.4943212e-06
2.176873e-06
4.6345058e-07
5.2981378e-08
2.7607958e-09
7.6021051e-10
3.0774916e-05
3.0701893e-05
3.0685095e-05
3.0660649e-05
3.0658717e-05
3.0680312e-05
3.0711425e-05
3.0738961e-05
3.0756352e-05
3.0772414e-05
3.0788656e-05
3.0798269e-05
3.078233e-05
3.0729804e-05
3.0589276e-05
3.0230854e-05
3.0078866e-05
3.0609739e-05
3.1787819e-05
3.2733991e-05
3.2637551e-05
3.2041895e-05
3.1359438e-05
3.1169491e-05
3.1208504e-05
3.1314727e-05
3.1433982e-05
3.1552363e-05
3.1681048e-05
3.1827361e-05
3.198439e-05
3.2128163e-05
3.2266801e-05
3.2440739e-05
3.2663434e-05
3.2906642e-05
3.3143807e-05
3.3378051e-05
3.364656e-05
3.3959094e-05
3.4326918e-05
3.473546e-05
3.5150265e-05
3.5545082e-05
3.5892178e-05
3.619195e-05
3.6493428e-05
3.6848427e-05
3.7283255e-05
3.7794893e-05
3.8363047e-05
3.8956229e-05
3.9545615e-05
4.012246e-05
4.0695598e-05
4.1275965e-05
4.1869511e-05
4.2481139e-05
4.3109382e-05
4.3807321e-05
4.5648788e-05
6.243551e-05
0.00014587837
0.00027655448
0.00038312348
0.00046079358
0.00051634274
0.00055439945
0.00057821568
0.00059024179
0.00059244841
0.00058650566
0.0005738733
0.00055585221
0.00053360332
0.0005081922
0.00048034483
0.00045069251
0.00041986821
0.00038840591
0.00035675336
0.00032528496
0.00029431464
0.00026409932
0.00023487652
0.00020680766
0.00018004845
0.0001547157
0.00013090188
0.00010868692
8.8143249e-05
6.9347415e-05
5.2388711e-05
3.7378507e-05
2.4498374e-05
1.4064778e-05
6.5319755e-06
2.1914679e-06
4.6682228e-07
5.3375447e-08
2.7774214e-09
7.6092539e-10
3.0777164e-05
3.0703291e-05
3.0685974e-05
3.0662095e-05
3.0659899e-05
3.0680857e-05
3.0711773e-05
3.0739681e-05
3.0757555e-05
3.0773804e-05
3.0790664e-05
3.080079e-05
3.0787093e-05
3.0737238e-05
3.0605976e-05
3.0257081e-05
3.0065348e-05
3.0549936e-05
3.1684402e-05
3.2702623e-05
3.2672459e-05
3.2147811e-05
3.1441002e-05
3.1191939e-05
3.1217415e-05
3.1315679e-05
3.1435646e-05
3.1556929e-05
3.1687905e-05
3.1833895e-05
3.1989464e-05
3.2135205e-05
3.2274913e-05
3.2449146e-05
3.2673455e-05
3.2921203e-05
3.316485e-05
3.3401513e-05
3.3666666e-05
3.3975113e-05
3.4339923e-05
3.475153e-05
3.5179897e-05
3.5599412e-05
3.597657e-05
3.6299383e-05
3.6610194e-05
3.6962794e-05
3.738942e-05
3.7894795e-05
3.8464729e-05
3.907078e-05
3.9682996e-05
4.0284997e-05
4.0877942e-05
4.1469634e-05
4.2068071e-05
4.2681371e-05
4.3313141e-05
4.3994504e-05
4.5433774e-05
5.7396356e-05
0.0001271526
0.00025428759
0.00036397832
0.00044415919
0.00050172142
0.00054146856
0.00056676134
0.00058010583
0.00058349816
0.00057861854
0.00056692813
0.00054972208
0.00052814288
0.0005032067
0.0004758244
0.00044672437
0.00041643179
0.00038547075
0.00035428516
0.00032324916
0.00029267683
0.00026282896
0.00023391055
0.00020612146
0.00017959757
0.00015445826
0.00013079735
0.00010869675
8.8231731e-05
6.9482484e-05
5.2542577e-05
3.7528181e-05
2.4625927e-05
1.4157873e-05
6.5858073e-06
2.2129264e-06
4.718797e-07
5.3974582e-08
2.8050939e-09
7.6486785e-10
3.077911e-05
3.0704793e-05
3.0686859e-05
3.0663555e-05
3.0661086e-05
3.0681361e-05
3.0712203e-05
3.0740411e-05
3.0758805e-05
3.077512e-05
3.0792519e-05
3.0803308e-05
3.0791565e-05
3.0744494e-05
3.0622153e-05
3.0283684e-05
3.0055678e-05
3.0493833e-05
3.1579472e-05
3.266296e-05
3.2703597e-05
3.2247916e-05
3.1531818e-05
3.1219525e-05
3.1228753e-05
3.1317419e-05
3.1437644e-05
3.1561221e-05
3.1694158e-05
3.1840552e-05
3.1995461e-05
3.2143058e-05
3.228343e-05
3.2457658e-05
3.2682741e-05
3.2934243e-05
3.3184802e-05
3.3425376e-05
3.3687777e-05
3.3992341e-05
3.4353043e-05
3.4765168e-05
3.5204217e-05
3.5645421e-05
3.6051984e-05
3.640142e-05
3.6726931e-05
3.7080294e-05
3.749797e-05
3.799385e-05
3.8561488e-05
3.9177465e-05
3.9812536e-05
4.0443688e-05
4.1061579e-05
4.166864e-05
4.2273007e-05
4.288718e-05
4.3520173e-05
4.4191427e-05
4.5371754e-05
5.38034e-05
0.000110473
0.00023197526
0.00034456445
0.00042734787
0.0004870037
0.000528502
0.00055531683
0.00057001029
0.00057460223
0.00057078104
0.00056001184
0.00054359797
0.00052269699
0.00049834257
0.00047143896
0.00044278897
0.00041301134
0.00038253262
0.00035179243
0.00032116981
0.00029097961
0.00026148219
0.00023288339
0.00020536149
0.00017907384
0.00015413268
0.00013063148
0.00010865308
8.827494e-05
6.9580442e-05
5.2667278e-05
3.7656297e-05
2.4739065e-05
1.4242811e-05
6.6361561e-06
2.2334121e-06
4.7677253e-07
5.4558281e-08
2.8328608e-09
7.696537e-10
3.0780131e-05
3.0706388e-05
3.0687813e-05
3.0665012e-05
3.0662436e-05
3.0681898e-05
3.0712685e-05
3.0741251e-05
3.076007e-05
3.0776354e-05
3.0794298e-05
3.0805549e-05
3.0795771e-05
3.0751687e-05
3.0637566e-05
3.0310151e-05
3.0050576e-05
3.044188e-05
3.1473628e-05
3.2611239e-05
3.2732548e-05
3.2341107e-05
3.1631061e-05
3.1252471e-05
3.1241905e-05
3.1319808e-05
3.1439704e-05
3.1565292e-05
3.1699545e-05
3.1846985e-05
3.2002258e-05
3.2151668e-05
3.2292607e-05
3.2466782e-05
3.2692075e-05
3.2946599e-05
3.3203949e-05
3.3449866e-05
3.3710464e-05
3.40113e-05
3.4367347e-05
3.4777787e-05
3.5224189e-05
3.5683787e-05
3.6117754e-05
3.6496478e-05
3.6841953e-05
3.7200069e-05
3.7609418e-05
3.8093181e-05
3.8654344e-05
3.9276411e-05
3.9932542e-05
4.0594656e-05
4.124217e-05
4.186882e-05
4.2481629e-05
4.3097142e-05
4.373042e-05
4.4395648e-05
4.5391644e-05
5.130192e-05
9.5995144e-05
0.0002098443
0.00032493281
0.00041043295
0.00047226018
0.00051556141
0.00054394255
0.00056003319
0.00056588423
0.00056319471
0.00055343187
0.00053789566
0.00051774078
0.00049399832
0.00046757279
0.00043926204
0.00040975647
0.00037964668
0.00034930486
0.00031906064
0.00028922587
0.00026005939
0.00023176422
0.00020452215
0.00017847811
0.00015374415
0.00013041429
0.00010857135
8.8293755e-05
6.96669e-05
5.2791411e-05
3.7791828e-05
2.4863896e-05
1.4339689e-05
6.695153e-06
2.2579191e-06
4.8270616e-07
5.527193e-08
2.8681978e-09
7.7714683e-10
3.0708082e-05
3.0688899e-05
3.0666488e-05
3.0663967e-05
3.0682601e-05
3.0713266e-05
3.074211e-05
3.0761291e-05
3.0777631e-05
3.0795856e-05
3.0807659e-05
3.0799919e-05
3.0758521e-05
3.0652136e-05
3.0336876e-05
3.0049416e-05
3.0394196e-05
3.136789e-05
3.2546145e-05
3.2759249e-05
3.2427113e-05
3.1737253e-05
3.1294077e-05
3.1256832e-05
3.1323588e-05
3.1441909e-05
3.1569155e-05
3.1704313e-05
3.1853126e-05
3.2009899e-05
3.2161173e-05
3.2302747e-05
3.247661e-05
3.2701653e-05
3.295867e-05
3.3222293e-05
3.3474674e-05
3.3734609e-05
3.4031771e-05
3.4382999e-05
3.478989e-05
3.5240691e-05
3.571503e-05
3.6173655e-05
3.6583004e-05
3.6953169e-05
3.7320901e-05
3.7724063e-05
3.8194408e-05
3.8745299e-05
3.9368844e-05
4.0042362e-05
4.073505e-05
4.1415904e-05
4.2067683e-05
4.2694026e-05
4.3313639e-05
4.3947069e-05
4.4608835e-05
4.5497075e-05
4.9647426e-05
8.384869e-05
0.00018807559
0.00030494769
0.00039328307
0.00045736972
0.00050253441
0.00053252554
0.00055004544
0.00055717914
0.00055563542
0.00054688951
0.00053223901
0.00051284798
0.0004897484
0.00046386092
0.00043598593
0.00040682068
0.00037695406
0.00034689392
0.00031698486
0.00028746933
0.00025860366
0.00023059039
0.00020360831
0.00017779816
0.0001532749
0.000130123
0.00010842398
8.8256505e-05
6.9706768e-05
5.2878078e-05
3.7898437e-05
2.4967927e-05
1.4423345e-05
6.7474233e-06
2.280049e-06
4.8812635e-07
5.5927391e-08
2.9015703e-09
7.8513085e-10
3.0709767e-05
3.0690133e-05
3.0668038e-05
3.0665818e-05
3.0683518e-05
3.0713841e-05
3.0742918e-05
3.0762606e-05
3.0778874e-05
3.0797261e-05
3.0809853e-05
3.0803715e-05
3.0765195e-05
3.0666116e-05
3.0363474e-05
3.0051539e-05
3.0351287e-05
3.1262886e-05
3.2468332e-05
3.2782154e-05
3.25057e-05
3.1848422e-05
3.1347161e-05
3.1274024e-05
3.13295e-05
3.1444137e-05
3.1572717e-05
3.1708637e-05
3.1859071e-05
3.2018244e-05
3.2171566e-05
3.2314172e-05
3.2487152e-05
3.2711139e-05
3.2970089e-05
3.3239332e-05
3.3499197e-05
3.3760159e-05
3.4053796e-05
3.4400294e-05
3.4802759e-05
3.5255005e-05
3.5740242e-05
3.6220501e-05
3.6660442e-05
3.7059053e-05
3.7441501e-05
3.7842329e-05
3.8299738e-05
3.8837621e-05
3.9457446e-05
4.0142929e-05
4.0863063e-05
4.1578543e-05
4.22604e-05
4.2905709e-05
4.3533428e-05
4.4169677e-05
4.4831201e-05
4.5644318e-05
4.8599053e-05
7.4029165e-05
0.00016707627
0.00028474804
0.00037603695
0.00044246067
0.00048953518
0.00052116719
0.0005401454
0.00054859377
0.00054823522
0.00054054769
0.00052682909
0.00050824307
0.000485824
0.00046049638
0.00043306895
0.00040424869
0.00037463436
0.00034473859
0.00031498142
0.00028570561
0.00025710061
0.00022933845
0.00020259472
0.00017701038
0.00015269074
0.00012972975
0.00010819214
8.8155579e-05
6.970522e-05
5.294413e-05
3.8001367e-05
2.5079253e-05
1.4518491e-05
6.8092706e-06
2.3069104e-06
4.948088e-07
5.6743209e-08
2.9441691e-09
7.9623256e-10
3.0711322e-05
3.0691528e-05
3.0669742e-05
3.0667878e-05
3.0684568e-05
3.0714424e-05
3.0743717e-05
3.0763952e-05
3.0780133e-05
3.079865e-05
3.081178e-05
3.0807404e-05
3.07718e-05
3.0679274e-05
3.0389794e-05
3.0056986e-05
3.0313328e-05
3.1159221e-05
3.2379415e-05
3.2799326e-05
3.2575779e-05
3.1962361e-05
3.1413403e-05
3.1294697e-05
3.133759e-05
3.1446189e-05
3.1575835e-05
3.1712845e-05
3.1864675e-05
3.2026649e-05
3.2182305e-05
3.2326619e-05
3.2498256e-05
3.2720453e-05
3.298104e-05
3.3255178e-05
3.3523136e-05
3.3787096e-05
3.4077574e-05
3.4419344e-05
3.4816975e-05
3.5267961e-05
3.5760168e-05
3.6258714e-05
3.672781e-05
3.7157197e-05
3.7559312e-05
3.7963095e-05
3.8410104e-05
3.893356e-05
3.9544532e-05
4.0235399e-05
4.0977809e-05
4.1727096e-05
4.2443304e-05
4.3114473e-05
4.3757533e-05
4.4399852e-05
4.5062615e-05
4.5829849e-05
4.799495e-05
6.6427564e-05
0.00014717064
0.00026426858
0.0003585978
0.00042745232
0.00047650634
0.00050982722
0.00053029836
0.00054008957
0.00054094054
0.00053433202
0.00052156009
0.0005037886
0.00048205713
0.00045730028
0.00043034047
0.00040189942
0.00037258966
0.00034293296
0.00031335136
0.00028419675
0.00025574704
0.00022818256
0.00020163257
0.00017623751
0.00015209488
0.00012929033
0.00010789765
8.7984578e-05
6.9633174e-05
5.2944873e-05
3.8048565e-05
2.5147599e-05
1.4584872e-05
6.8557335e-06
2.3280131e-06
5.0018263e-07
5.740599e-08
2.980433e-09
8.0723688e-10
3.0712136e-05
3.0693142e-05
3.067159e-05
3.0669921e-05
3.0685744e-05
3.0714932e-05
3.0744463e-05
3.0765369e-05
3.0781485e-05
3.0799868e-05
3.0813742e-05
3.0810997e-05
3.0778003e-05
3.0691808e-05
3.0416223e-05
3.0065727e-05
3.0279324e-05
3.1058326e-05
3.2280269e-05
3.2808088e-05
3.2635731e-05
3.2076673e-05
3.1492954e-05
3.1319959e-05
3.1348263e-05
3.1448597e-05
3.1578717e-05
3.1716976e-05
3.1869644e-05
3.2034641e-05
3.2193288e-05
3.2340162e-05
3.2509939e-05
3.272947e-05
3.2991384e-05
3.3269827e-05
3.3545956e-05
3.3814828e-05
3.4102924e-05
3.4440003e-05
3.4832778e-05
3.5280379e-05
3.5776032e-05
3.6289227e-05
3.6785128e-05
3.7246062e-05
3.7672362e-05
3.8085494e-05
3.8526743e-05
3.9035837e-05
3.9633893e-05
4.0323027e-05
4.1080664e-05
4.1860142e-05
4.2612578e-05
4.331512e-05
4.3979102e-05
4.4633108e-05
4.5302147e-05
4.6041705e-05
4.7683569e-05
6.0725466e-05
0.00012864428
0.00024347321
0.00034086376
0.00041223634
0.00046333464
0.00049838995
0.0005203913
0.00053156302
0.00053367026
0.00052820211
0.00051645231
0.00049957576
0.00047860428
0.00045446952
0.000427999
0.00039992672
0.00037088466
0.000341418
0.00031197352
0.00028292301
0.00025455769
0.00022709844
0.00020070973
0.0001754885
0.00015150912
0.00012885752
0.00010761472
8.783567e-05
6.9590383e-05
5.298007e-05
3.8132923e-05
2.5251917e-05
1.4681175e-05
6.9217371e-06
2.3577272e-06
5.0773566e-07
5.8338987e-08
3.0311272e-09
8.2226594e-10
3.0694929e-05
3.0673631e-05
3.067176e-05
3.0686841e-05
3.0715405e-05
3.0745202e-05
3.07668e-05
3.0782857e-05
3.0801115e-05
3.0815784e-05
3.0814319e-05
3.078421e-05
3.0703892e-05
3.0442436e-05
3.0078084e-05
3.0248532e-05
3.0961683e-05
3.2171685e-05
3.280606e-05
3.268469e-05
3.2188806e-05
3.1584717e-05
3.1350284e-05
3.1361671e-05
3.1451571e-05
3.1581262e-05
3.1721079e-05
3.1874203e-05
3.2042169e-05
3.2204384e-05
3.2354734e-05
3.2522214e-05
3.2737865e-05
3.3000369e-05
3.3282782e-05
3.3567038e-05
3.3842808e-05
3.4129987e-05
3.4462503e-05
3.485051e-05