/*--------------------------------*- C++ -*----------------------------------*\
| =========                 |                                                 |
| \\      /  F ield         | OpenFOAM: The Open Source CFD Toolbox           |
|  \\    /   O peration     | Version:  2506                                  |
|   \\  /    A nd           | Website:  www.openfoam.com                      |
|    \\/     M anipulation  |                                                 |
\*---------------------------------------------------------------------------*/
FoamFile
{
    version     2.0;
    format      ascii;
    arch        "LSB;label=32;scalar=64";
    class       volVectorField;
    location    "0.0015";
    object      wallShearStress;
}
// * * * * * * * * * * * * * * * * * * * * * * * * * * * * * * * * * * * * * //

dimensions      [1 -1 -2 0 0 0 0];

internalField   uniform (0 0 0);

boundaryField
{
    Side
    {
        type            empty;
    }
    Inlet
    {
        type            calculated;
        value           uniform (0 0 0);
    }
    Airfoil
    {
        type            calculated;
        value           nonuniform List<vector> 
142
(
(-29.276747 -9.3517047 -2.7052937e-21)
(-23.94233 -7.5918233 8.9618854e-17)
(-23.883133 -7.5178038 8.9960731e-17)
(-22.717196 -7.1087349 -1.8082451e-16)
(-22.413786 -6.9791348 0)
(-21.995549 -6.823176 9.1201209e-17)
(-21.787851 -6.7406226 1.3974412e-21)
(-21.610301 -6.6750517 9.1971439e-17)
(-21.512135 -6.6413346 2.3111159e-33)
(-21.457601 -6.6281656 -1.8544405e-16)
(-21.448567 -6.6360254 1.4206725e-21)
(-21.473976 -6.6615554 9.3455876e-17)
(-21.53172 -6.7042515 -1.4312006e-21)
(-21.61804 -6.7632034 -1.8835635e-16)
(-21.731033 -6.8381606 9.4538728e-17)
(-21.868962 -6.9290398 -1.448385e-21)
(-22.03089 -7.0360884 0)
(-22.215752 -7.1596399 -9.5606346e-17)
(-22.423762 -7.3005565 0)
(-22.654682 -7.4596997 9.6317428e-17)
(-22.909767 -7.6385738 2.9513408e-21)
(-23.18983 -7.8387354 9.7047859e-17)
(-23.497931 -8.0627333 -2.981864e-21)
(-23.83277 -8.3119121 -9.7790031e-17)
(-24.220592 -8.5972978 -2.4074124e-35)
(-24.453932 -8.8466619 1.9715555e-16)
(-24.363902 -8.950729 9.89921e-17)
(-24.26296 -9.0083189 -1.2037062e-35)
(-24.268842 -9.106437 -9.9782238e-17)
(-24.281064 -9.2085089 0)
(-24.315949 -9.32089 -2.9762364e-33)
(-24.35791 -9.4379248 0)
(-24.408388 -9.5603286 -1.01359e-16)
(-24.463531 -9.6867639 -1.0175226e-16)
(-24.523077 -9.8172714 2.0428895e-16)
(-24.585565 -9.9513942 -1.0253954e-16)
(-24.650801 -10.089188 3.1415309e-21)
(-24.71798 -10.230446 -2.0665333e-16)
(-24.787086 -10.375296 0)
(-24.85756 -10.523622 -1.0411378e-16)
(-24.929535 -10.675624 1.0450775e-16)
(-25.002581 -10.831241 3.2010222e-21)
(-25.076919 -10.990725 1.0529186e-16)
(-25.152188 -11.154055 1.0568858e-16)
(-25.228656 -11.321515 -3.2370454e-21)
(-25.306018 -11.493119 1.0647916e-16)
(-25.384474 -11.669149 1.2037062e-35)
(-25.463937 -11.849734 3.2730574e-21)
(-25.544428 -12.035087 -3.2839917e-21)
(-25.626139 -12.225508 1.0804754e-16)
(-25.713356 -12.423403 3.3098363e-21)
(-25.803228 -12.62852 1.0883823e-16)
(-25.890585 -12.837669 -1.0923245e-16)
(-25.977376 -13.05174 0)
(-26.063727 -13.271016 -3.357203e-21)
(-26.149934 -13.495884 -1.1041502e-16)
(-26.23602 -13.726612 7.2426768e-25)
(-26.322031 -13.963499 3.3918855e-21)
(-26.407934 -14.206821 -1.2037062e-35)
(-26.493688 -14.456868 -1.1199357e-16)
(-26.579204 -14.713922 1.1239249e-16)
(-26.664382 -14.978284 -1.1278843e-16)
(-26.749086 -15.250254 -2.5299699e-24)
(-26.833176 -15.530148 1.1357871e-16)
(-26.916474 -15.818294 -3.4779575e-21)
(-26.998805 -16.11504 6.5145974e-25)
(-27.07994 -16.420733 3.5029784e-21)
(-27.159665 -16.735759 1.1517614e-16)
(-27.237734 -17.060514 -1.2037062e-35)
(-27.313902 -17.395437 1.2277803e-33)
(-27.387903 -17.740987 1.1638408e-16)
(-27.459491 -18.097679 1.167985e-16)
(-27.528072 -18.465844 1.2037062e-35)
(-27.591096 -18.844394 -3.5891944e-21)
(-27.646785 -19.232238 2.16551e-25)
(-27.695468 -19.630074 7.2292867e-21)
(-27.736895 -20.038414 -3.6274109e-21)
(-27.770666 -20.457711 -3.4185257e-33)
(-27.796199 -20.888331 -1.1970407e-16)
(-27.812866 -21.330646 -4.8148249e-35)
(-27.819904 -21.78497 2.411173e-16)
(-27.816524 -22.251638 -7.3845346e-21)
(-27.801791 -22.730914 -7.1445805e-25)
(-27.774755 -23.22309 3.7183079e-21)
(-27.734337 -23.728397 -3.7326585e-21)
(-27.679409 -24.247072 3.744903e-21)
(-27.608727 -24.779289 1.2317419e-16)
(-27.52103 -25.325266 -1.2361796e-16)
(-27.414976 -25.885192 1.2406338e-16)
(-27.289159 -26.459285 0)
(-27.142053 -27.047672 -2.4991731e-16)
(-26.971203 -27.649284 3.133381e-24)
(-26.765777 -28.253762 1.2585475e-16)
(-26.52593 -28.858374 3.8567398e-21)
(-26.257107 -29.471654 -7.7370401e-21)
(-25.95545 -30.091089 -1.2720525e-16)
(-25.618282 -30.71453 1.1074097e-33)
(-25.242994 -31.339622 3.8804714e-33)
(-24.827015 -31.963689 1.9450905e-33)
(-24.367735 -32.583609 -3.9826973e-21)
(-23.862624 -33.195825 2.5883226e-16)
(-23.309019 -33.796277 3.9584866e-21)
(-22.70452 -34.380215 -3.9802953e-21)
(-22.046876 -34.942047 3.9834193e-21)
(-21.334278 -35.475944 6.0185311e-36)
(-20.565132 -35.975162 -6.5747079e-17)
(-19.738521 -36.432558 -4.0192433e-21)
(-18.855361 -36.843245 -1.3228548e-16)
(-17.925793 -37.219724 -8.0980514e-21)
(-16.960797 -37.591826 6.6525184e-17)
(-15.920205 -37.878538 -4.0796108e-21)
(-14.803649 -37.993558 6.688873e-17)
(-13.64137 -37.975411 1.3413133e-16)
(-12.446958 -37.831634 6.7244377e-17)
(-11.232368 -37.569562 6.7422378e-17)
(-10.00768 -37.192363 9.7028486e-24)
(-8.7821746 -36.70334 3.3880003e-17)
(-7.5653606 -36.106405 -6.7923737e-17)
(-6.3664528 -35.405736 -3.1141105e-21)
(-5.1939957 -34.604572 1.01722e-21)
(-4.0566083 -33.710143 0)
(-2.9624825 -32.730726 -3.4263528e-17)
(-1.919193 -31.678696 -4.9288031e-24)
(-21.477101 -5.3464989 1.5858829e-33)
(-21.454903 -5.4017344 1.3206803e-37)
(-21.411269 -5.4442855 4.4096702e-41)
(-21.349539 -5.4748177 -5.7657528e-33)
(-21.272525 -5.493972 -7.5886089e-17)
(-21.182896 -5.5024863 -1.1760576e-21)
(-21.083349 -5.5011704 1.56603e-16)
(-20.976044 -5.4908056 -6.0185311e-36)
(-20.863261 -5.4722305 1.2329682e-21)
(-20.746609 -5.4462052 -1.2525711e-21)
(-20.627575 -5.4134405 8.8745728e-34)
(-20.506366 -5.3743939 1.2923479e-21)
(-20.382248 -5.3292336 -1.3132868e-21)
(-20.250401 -5.2771175 -8.7406127e-17)
(-20.107647 -5.2176301 -5.7145953e-33)
(-19.905756 -5.1387196 -3.0539941e-24)
(-19.889488 -5.1027476 1.3955445e-21)
(-18.418958 -4.6939783 -1.4192622e-21)
(-26.240203 -6.6686949 -9.420151e-17)
)
;
    }
    Outlet
    {
        type            calculated;
        value           nonuniform List<vector> 0();
    }
    procBoundary8to0
    {
        type            processor;
        value           uniform (0 0 0);
    }
    procBoundary8to1
    {
        type            processor;
        value           uniform (0 0 0);
    }
    procBoundary8to2
    {
        type            processor;
        value           uniform (0 0 0);
    }
    procBoundary8to7
    {
        type            processor;
        value           uniform (0 0 0);
    }
    procBoundary8to9
    {
        type            processor;
        value           uniform (0 0 0);
    }
}


// ************************************************************************* //
