/*--------------------------------*- C++ -*----------------------------------*\
| =========                 |                                                 |
| \\      /  F ield         | OpenFOAM: The Open Source CFD Toolbox           |
|  \\    /   O peration     | Version:  2506                                  |
|   \\  /    A nd           | Website:  www.openfoam.com                      |
|    \\/     M anipulation  |                                                 |
\*---------------------------------------------------------------------------*/
FoamFile
{
    version     2.0;
    format      ascii;
    arch        "LSB;label=32;scalar=64";
    class       volScalarField;
    location    "0.1";
    object      omega;
}
// * * * * * * * * * * * * * * * * * * * * * * * * * * * * * * * * * * * * * //

dimensions      [0 0 -1 0 0 0 0];

internalField   nonuniform List<scalar> 
1375
(
40.20853
40.210162
40.208554
40.207854
40.207775
40.207896
40.209972
40.208324
40.207605
40.207482
40.207478
40.207324
40.207228
40.207285
40.207391
40.207633
40.21016
40.208435
40.207669
40.207489
40.207361
40.207156
40.206975
40.206947
40.206957
40.206989
40.206834
40.206868
40.207107
40.207508
40.208147
40.210605
40.20881
40.20801
40.207794
40.207602
40.207366
40.207113
40.207001
40.206911
40.206747
40.206547
40.206485
40.206633
40.206944
40.207388
40.207756
40.208515
40.209544
40.210781
40.212083
40.211256
40.209428
40.208595
40.208312
40.208083
40.207858
40.207548
40.207361
40.207177
40.206924
40.206691
40.20653
40.206575
40.20675
40.206987
40.207399
40.2081
40.209081
40.210229
40.211345
40.212115
40.213027
40.213824
40.214494
40.214984
40.211635
40.209896
40.209133
40.208885
40.208685
40.208508
40.208173
40.20793
40.207674
40.207394
40.207169
40.206931
40.206886
40.206964
40.207141
40.207543
40.208157
40.209049
40.210056
40.210974
40.211831
40.21266
40.213399
40.213988
40.214241
40.214099
40.214222
40.214289
40.21432
40.211457
40.209857
40.209195
40.209042
40.208953
40.208874
40.208624
40.208426
40.208205
40.20798
40.207795
40.207547
40.207459
40.207485
40.207676
40.208106
40.208649
40.209447
40.210337
40.211179
40.21201
40.212702
40.213308
40.213722
40.213818
40.213808
40.213889
40.213867
40.213638
40.213476
40.213317
40.213059
40.212698
40.210457
40.209067
40.208566
40.208563
40.208618
40.208643
40.2085
40.208388
40.208257
40.208135
40.208028
40.20787
40.207853
40.207953
40.208239
40.208737
40.209304
40.210074
40.210903
40.211728
40.21251
40.21304
40.21347
40.213732
40.213818
40.213877
40.213884
40.21379
40.213477
40.21333
40.213204
40.212943
40.212267
40.211769
40.211573
40.211608
40.208463
40.207228
40.206881
40.207048
40.207259
40.207433
40.207452
40.207482
40.207507
40.207537
40.207541
40.207514
40.207615
40.207839
40.208243
40.208831
40.209516
40.210372
40.211256
40.212114
40.21286
40.213315
40.213645
40.213823
40.213916
40.214001
40.213963
40.213874
40.213659
40.213536
40.213397
40.213164
40.212514
40.212185
40.212088
40.211801
40.211152
40.211133
40.211201
40.205705
40.204481
40.204244
40.204518
40.204826
40.205093
40.205244
40.205403
40.20557
40.205747
40.205889
40.206031
40.206301
40.206713
40.207298
40.208033
40.208894
40.209891
40.210885
40.211801
40.212547
40.213034
40.213372
40.213562
40.213699
40.21382
40.213822
40.213793
40.213697
40.213655
40.213554
40.213437
40.213144
40.212999
40.212965
40.212652
40.212229
40.212427
40.212367
40.211548
40.211614
40.211626
40.203069
40.201725
40.201433
40.201654
40.20191
40.202143
40.202308
40.202494
40.202703
40.202927
40.203138
40.203383
40.203773
40.20433
40.205066
40.205952
40.20699
40.208151
40.209293
40.210304
40.211097
40.21167
40.212084
40.212358
40.212567
40.212732
40.212822
40.212893
40.212941
40.213003
40.213019
40.213064
40.213081
40.213177
40.213249
40.21324
40.213221
40.213578
40.213666
40.213206
40.213666
40.213871
40.213175
40.213436
40.201234
40.199751
40.199329
40.199435
40.199536
40.199622
40.199667
40.199737
40.199828
40.199937
40.200061
40.200263
40.200631
40.201193
40.201958
40.202899
40.204011
40.205241
40.206448
40.207511
40.208337
40.208956
40.20943
40.209793
40.210088
40.210323
40.210514
40.21067
40.210791
40.210917
40.211069
40.211291
40.211587
40.21193
40.212204
40.212513
40.212916
40.213378
40.213739
40.214028
40.2148
40.215306
40.215261
40.215839
40.215401
40.215802
40.217537
40.200191
40.198632
40.19808
40.198082
40.198044
40.197995
40.197912
40.197843
40.197781
40.197725
40.197695
40.197765
40.198008
40.198452
40.19911
40.199969
40.20101
40.202151
40.203267
40.204236
40.204963
40.205485
40.205885
40.206211
40.206485
40.206704
40.206897
40.207082
40.20726
40.207454
40.2077
40.208003
40.208352
40.208727
40.209111
40.209607
40.210255
40.210865
40.211602
40.212579
40.213543
40.214487
40.215445
40.216399
40.216308
40.216733
40.220029
40.310577
42.782684
40.199886
40.198252
40.1976
40.197508
40.197355
40.197196
40.197007
40.196823
40.196632
40.196439
40.196281
40.196235
40.196358
40.196684
40.197229
40.197988
40.19892
40.199927
40.200876
40.201652
40.202186
40.202509
40.202711
40.202865
40.202984
40.203054
40.203107
40.203177
40.203277
40.203409
40.203593
40.203844
40.204143
40.204467
40.204833
40.205283
40.205787
40.206289
40.206951
40.207917
40.208942
40.210149
40.21161
40.212841
40.214115
40.216196
40.221317
40.32333
42.965416
40.20013
40.198461
40.197746
40.197589
40.197363
40.197133
40.196868
40.196594
40.196298
40.195994
40.195728
40.195579
40.195599
40.195825
40.196286
40.196975
40.197824
40.198714
40.199511
40.200112
40.200466
40.200607
40.200625
40.200603
40.200555
40.200456
40.200332
40.200241
40.200197
40.200186
40.200205
40.200286
40.200422
40.200578
40.200761
40.201013
40.20129
40.201557
40.2019
40.202343
40.202838
40.203465
40.204392
40.205523
40.207443
40.210246
40.216055
40.318302
42.916106
40.200821
40.199157
40.198408
40.198207
40.197918
40.197625
40.197296
40.196952
40.19658
40.196201
40.195866
40.195646
40.195598
40.195759
40.196168
40.19681
40.197597
40.198388
40.199043
40.199468
40.199641
40.199618
40.199483
40.199318
40.199139
40.198917
40.198662
40.198418
40.198218
40.198065
40.197942
40.197861
40.197819
40.197783
40.19776
40.197779
40.197795
40.197773
40.197767
40.197763
40.197707
40.197628
40.197604
40.197732
40.198587
40.201184
40.208604
40.328573
43.105829
40.201521
40.199923
40.199194
40.199003
40.198713
40.198412
40.198072
40.197705
40.197298
40.19688
40.196503
40.196235
40.196135
40.196249
40.196624
40.197236
40.197976
40.198688
40.199229
40.199515
40.19955
40.199399
40.199144
40.198854
40.198538
40.198186
40.197807
40.197443
40.19712
40.196844
40.196586
40.196341
40.19611
40.195878
40.195652
40.195439
40.195203
40.194926
40.194633
40.194307
40.193885
40.193356
40.192734
40.192297
40.192744
40.195325
40.202312
40.322446
43.097697
40.201896
40.200388
40.199709
40.19956
40.199305
40.199031
40.198713
40.198364
40.197968
40.197556
40.197184
40.196918
40.196821
40.196943
40.197328
40.197941
40.198663
40.199326
40.199778
40.199948
40.199867
40.199606
40.199255
40.198876
40.198475
40.19803
40.197549
40.197071
40.196639
40.196234
40.19583
40.195422
40.195015
40.194615
40.194233
40.193869
40.193504
40.193148
40.192808
40.192458
40.192062
40.19164
40.191264
40.191301
40.192112
40.194303
40.200689
40.340632
43.332576
40.201928
40.200496
40.199853
40.199743
40.199523
40.199276
40.19898
40.198651
40.19827
40.197863
40.197495
40.197241
40.19716
40.197303
40.197707
40.198332
40.199047
40.199678
40.200068
40.200145
40.199961
40.199622
40.199213
40.198764
40.198271
40.197729
40.197163
40.196608
40.196091
40.195601
40.195122
40.194661
40.194245
40.19393
40.193737
40.193641
40.193607
40.193612
40.193646
40.193669
40.193653
40.193722
40.193908
40.194294
40.194762
40.195916
40.201708
40.339777
43.32055
40.201687
40.200322
40.199707
40.19963
40.199438
40.199209
40.198925
40.198609
40.198235
40.197826
40.197455
40.197205
40.197132
40.197282
40.197691
40.198313
40.199012
40.199604
40.199928
40.199932
40.19967
40.199245
40.198739
40.198184
40.197575
40.196936
40.196319
40.195759
40.195267
40.194843
40.194524
40.194394
40.194484
40.194733
40.195063
40.19536
40.195634
40.195933
40.196238
40.196472
40.196747
40.197042
40.197184
40.197164
40.197111
40.197923
40.20412
40.363921
43.574466
40.201086
40.199783
40.19919
40.199153
40.198997
40.198788
40.198518
40.198222
40.19786
40.197443
40.197061
40.196811
40.196742
40.19689
40.197291
40.197903
40.198576
40.199108
40.19933
40.199219
40.198838
40.198286
40.197662
40.197015
40.196362
40.195736
40.195206
40.194818
40.194636
40.19474
40.195116
40.195645
40.1962
40.196726
40.197141
40.197511
40.197868
40.198161
40.198441
40.198773
40.199003
40.199106
40.199471
40.20001
40.200285
40.20066
40.206921
40.369977
43.596595
40.200183
40.198925
40.198339
40.198334
40.198203
40.197998
40.197727
40.197444
40.197084
40.196648
40.196244
40.195982
40.195902
40.196024
40.196391
40.19698
40.197624
40.198082
40.198186
40.197928
40.197407
40.196757
40.196099
40.195504
40.195003
40.194629
40.19449
40.194704
40.195248
40.195954
40.196621
40.19714
40.197562
40.198033
40.198553
40.199118
40.199635
40.200033
40.200295
40.20051
40.200719
40.200908
40.201096
40.201376
40.20174
40.202376
40.209571
40.395562
43.78287
40.199051
40.197828
40.197246
40.197261
40.197143
40.19693
40.196644
40.196358
40.195983
40.195512
40.195069
40.194778
40.194664
40.194739
40.195069
40.19563
40.196224
40.196575
40.196539
40.196145
40.195541
40.194919
40.194423
40.194131
40.194093
40.194349
40.194847
40.19552
40.196368
40.196991
40.197423
40.198043
40.198775
40.199436
40.200052
40.200599
40.201006
40.201204
40.201199
40.201067
40.200975
40.201128
40.201533
40.201932
40.202262
40.202917
40.211265
40.41049
43.927408
40.197811
40.196619
40.196043
40.19606
40.195932
40.195699
40.195386
40.195072
40.194659
40.194135
40.193637
40.193292
40.193121
40.193141
40.193418
40.19393
40.194457
40.194702
40.194551
40.194097
40.193571
40.193196
40.193132
40.193466
40.194117
40.194809
40.195552
40.196271
40.19685
40.197617
40.19853
40.199368
40.200142
40.200705
40.200974
40.200966
40.200828
40.200731
40.200755
40.200904
40.20103
40.201125
40.201382
40.201789
40.202145
40.202869
40.212498
40.434039
44.17763
40.196626
40.195469
40.1949
40.194892
40.194728
40.194464
40.194112
40.193742
40.193266
40.192676
40.192107
40.191684
40.191432
40.191383
40.191597
40.192045
40.192499
40.192677
40.192512
40.192169
40.19195
40.192091
40.192731
40.193761
40.194748
40.195465
40.195963
40.196586
40.197595
40.198772
40.199622
40.199939
40.199948
40.199945
40.200018
40.200174
40.200304
40.200281
40.200209
40.200241
40.200351
40.200534
40.200947
40.201525
40.201986
40.202913
40.213684
40.455844
44.255146
40.19563
40.19451
40.193957
40.193906
40.193686
40.193389
40.192995
40.192551
40.191995
40.191335
40.190687
40.190167
40.189821
40.189699
40.189857
40.190255
40.190675
40.190896
40.190934
40.190991
40.191297
40.192055
40.19321
40.194374
40.195299
40.195952
40.196602
40.197482
40.198221
40.198517
40.198672
40.198927
40.199177
40.199243
40.199197
40.1992
40.199268
40.199297
40.199272
40.199317
40.199509
40.199837
40.20031
40.200927
40.201569
40.202797
40.215964
40.483615
44.496144
40.194872
40.193787
40.193243
40.193148
40.192873
40.192547
40.192113
40.191595
40.190965
40.190242
40.189521
40.18891
40.188484
40.188319
40.188467
40.188882
40.189427
40.18996
40.190435
40.190937
40.191725
40.192953
40.194249
40.195098
40.195564
40.196075
40.196754
40.197389
40.19787
40.198122
40.19816
40.198096
40.197992
40.197906
40.197814
40.197748
40.197766
40.197817
40.197893
40.198105
40.198444
40.198867
40.199477
40.200258
40.200905
40.202455
40.217484
40.518061
44.778096
40.194296
40.193232
40.192695
40.192565
40.192249
40.191898
40.191434
40.190862
40.190182
40.189425
40.188666
40.188005
40.187557
40.187436
40.187699
40.188338
40.189206
40.190086
40.190885
40.191797
40.192911
40.194007
40.194938
40.195692
40.196177
40.196483
40.196778
40.197042
40.197168
40.197092
40.196836
40.196509
40.196259
40.19615
40.196142
40.196207
40.196322
40.196463
40.196676
40.196972
40.197316
40.197767
40.198433
40.199274
40.199954
40.201977
40.219719
40.555242
45.037494
40.1938
40.192745
40.192212
40.192061
40.191722
40.191355
40.190875
40.190286
40.189602
40.188861
40.188127
40.187509
40.187178
40.187253
40.187749
40.188573
40.189626
40.190822
40.192023
40.193072
40.194005
40.194937
40.195734
40.196171
40.196256
40.196209
40.196185
40.196127
40.195962
40.195691
40.19534
40.194993
40.194778
40.194737
40.194822
40.194994
40.195197
40.195412
40.195647
40.195907
40.196219
40.19668
40.197368
40.198296
40.199246
40.201731
40.222896
40.603701
45.333814
40.193356
40.192306
40.19178
40.191624
40.191283
40.190921
40.190459
40.189906
40.189284
40.188638
40.188055
40.187637
40.187452
40.187591
40.188182
40.189268
40.190664
40.192033
40.193152
40.194036
40.194796
40.195466
40.195957
40.196117
40.195906
40.195438
40.194917
40.194486
40.194178
40.193989
40.193858
40.193736
40.193667
40.193704
40.193831
40.193987
40.194168
40.19438
40.194602
40.19485
40.195184
40.195692
40.196472
40.197733
40.198877
40.202274
40.228074
40.655013
45.664153
40.192851
40.191802
40.191296
40.191148
40.190833
40.190508
40.190103
40.189646
40.189171
40.188717
40.188291
40.18798
40.187951
40.188319
40.18913
40.190326
40.191688
40.192931
40.19387
40.19447
40.194862
40.195166
40.195285
40.195049
40.194494
40.193811
40.193174
40.192703
40.192428
40.192344
40.192412
40.192534
40.192644
40.192767
40.192911
40.193042
40.193177
40.19333
40.193488
40.193659
40.193891
40.194337
40.195244
40.197017
40.198338
40.203742
40.236838
40.747135
46.179177
40.192499
40.191473
40.191002
40.190899
40.190651
40.190421
40.190151
40.189855
40.189531
40.189209
40.188977
40.188904
40.189036
40.18945
40.190164
40.191122
40.192197
40.193129
40.19373
40.193949
40.193845
40.19362
40.193396
40.193106
40.192679
40.192199
40.19183
40.191616
40.191477
40.191457
40.191601
40.191813
40.192019
40.192224
40.19244
40.192641
40.19284
40.193063
40.193298
40.193572
40.193949
40.194584
40.195774
40.198839
40.199541
40.209251
40.246433
40.828825
46.622651
40.191721
40.19071
40.190335
40.190311
40.190198
40.190138
40.190078
40.190024
40.189987
40.189987
40.19004
40.190165
40.190391
40.190748
40.19121
40.191705
40.192097
40.192207
40.191949
40.191405
40.190831
40.190451
40.190318
40.190312
40.190276
40.190168
40.190053
40.189976
40.189938
40.189944
40.190003
40.190105
40.190255
40.190434
40.190584
40.190732
40.190905
40.191072
40.191257
40.191507
40.191906
40.192668
40.193914
40.198434
40.19782
40.222983
40.275711
41.14877
47.910057
)
;

boundaryField
{
    Side
    {
        type            empty;
    }
    Inlet
    {
        type            fixedValue;
        value           uniform 60.24606;
    }
    Airfoil
    {
        type            omegaWallFunction;
        blending        binomial;
        n               2;
        value           nonuniform List<scalar> 0();
    }
    Outlet
    {
        type            inletOutlet;
        inletValue      uniform 60.24606;
        value           nonuniform List<scalar> 
49
(
40.191721
40.19071
40.190335
40.190311
40.190198
40.190138
40.190078
40.190024
40.189987
40.189987
40.19004
40.190165
40.190391
40.190748
40.19121
40.191705
40.192097
40.192207
40.191949
40.191405
40.190831
40.190451
40.190318
40.190312
40.190276
40.190168
40.190053
40.189976
40.189938
40.189944
40.190003
40.190105
40.190255
40.190434
40.190584
40.190732
40.190905
40.191072
40.191257
40.191507
40.191906
40.192668
40.193914
40.198434
40.19782
40.222983
40.275711
41.14877
47.910057
)
;
    }
    procBoundary6to5
    {
        type            processor;
        value           nonuniform List<scalar> 
61
(
40.207557
40.205762
40.205059
40.204988
40.205051
40.204669
40.204669
40.204596
40.204694
40.204817
40.204978
40.204385
40.204385
40.204428
40.204675
40.205024
40.205555
40.205333
40.205333
40.206067
40.207063
40.20816
40.209332
40.209721
40.209721
40.210636
40.211398
40.211907
40.212231
40.211762
40.211762
40.211734
40.211659
40.211554
40.210881
40.210881
40.210606
40.21024
40.209817
40.209143
40.209143
40.208716
40.208386
40.208208
40.208208
40.207844
40.207692
40.208088
40.208088
40.207818
40.207826
40.208751
40.208751
40.208897
40.210382
40.210382
40.210233
40.212412
40.299647
40.299647
42.702922
)
;
    }
    procBoundary6to12
    {
        type            processor;
        value           uniform 40.207426;
    }
    procBoundary6to13
    {
        type            processor;
        value           nonuniform List<scalar> 
34
(
40.208618
40.2108
40.2108
40.211184
40.211751
40.21245
40.212735
40.212426
40.211318
40.2093
40.206515
40.203818
40.201913
40.20081
40.20046
40.200662
40.201308
40.201961
40.202286
40.202278
40.201979
40.201316
40.200348
40.199152
40.19786
40.196642
40.195633
40.194871
40.194297
40.193806
40.193365
40.192857
40.192499
40.19172
)
;
    }
}


// ************************************************************************* //
