/*--------------------------------*- C++ -*----------------------------------*\
| =========                 |                                                 |
| \\      /  F ield         | OpenFOAM: The Open Source CFD Toolbox           |
|  \\    /   O peration     | Version:  2506                                  |
|   \\  /    A nd           | Website:  www.openfoam.com                      |
|    \\/     M anipulation  |                                                 |
\*---------------------------------------------------------------------------*/
FoamFile
{
    version     2.0;
    format      ascii;
    arch        "LSB;label=32;scalar=64";
    class       volScalarField;
    location    "0.008";
    object      k;
}
// * * * * * * * * * * * * * * * * * * * * * * * * * * * * * * * * * * * * * //

dimensions      [0 2 -2 0 0 0 0];

internalField   nonuniform List<scalar> 
13761
(
0.069906903
0.063336806
0.063331936
0.063331981
0.063331801
0.063331793
0.063331787
0.063331786
0.063331786
0.063331786
0.063331786
0.063331786
0.063331786
0.063331786
0.063331786
0.063331786
0.063331788
0.063331793
0.063331805
0.06333182
0.0633318
0.063331682
0.063331519
0.063331624
0.063332251
0.063332702
0.06333137
0.063332085
0.063341425
0.063348308
0.063306903
0.063208535
0.06315668
0.063214979
0.063279374
0.063243914
0.063230108
0.063356251
0.063550164
0.063807812
0.064106058
0.064006154
0.063509644
0.06315148
0.069503228
0.063336768
0.063331941
0.063331981
0.063331801
0.063331793
0.063331787
0.063331786
0.063331786
0.063331786
0.063331786
0.063331786
0.063331786
0.063331786
0.063331786
0.063331786
0.063331788
0.063331793
0.063331805
0.06333182
0.063331802
0.063331687
0.063331528
0.063331631
0.063332267
0.063332743
0.06333147
0.063332105
0.063341587
0.0633488
0.063308167
0.063209482
0.063156675
0.063214254
0.063279641
0.063244716
0.063229769
0.063355489
0.063550322
0.063808444
0.064109637
0.064016237
0.063519351
0.063157947
0.070753514
0.063336717
0.063331946
0.063331975
0.063331801
0.063331793
0.063331787
0.063331786
0.063331786
0.063331786
0.063331786
0.063331786
0.063331786
0.063331786
0.063331786
0.063331786
0.063331788
0.063331793
0.063331805
0.063331821
0.063331804
0.063331691
0.063331532
0.063331632
0.063332276
0.063332769
0.063331531
0.063332132
0.063341724
0.063349238
0.063309381
0.063210341
0.063156569
0.063213331
0.063279742
0.063245399
0.063229209
0.063354317
0.063550092
0.063808663
0.064112859
0.064026634
0.063529878
0.063164626
0.063252251
0.07134691
0.063336662
0.06333195
0.063331974
0.063331802
0.063331793
0.063331787
0.063331786
0.063331786
0.063331786
0.063331786
0.063331786
0.063331786
0.063331786
0.063331786
0.063331786
0.063331788
0.063331793
0.063331805
0.063331822
0.063331806
0.063331696
0.063331539
0.063331638
0.063332295
0.063332818
0.063331656
0.063332171
0.06334188
0.06334974
0.063310666
0.063211294
0.063156472
0.063212485
0.063279854
0.063246167
0.06322878
0.063353273
0.063549892
0.063808811
0.064116134
0.064037136
0.063540676
0.063171636
0.063257378
0.072239737
0.063336597
0.063331954
0.063331973
0.063331802
0.063331793
0.063331787
0.063331786
0.063331786
0.063331786
0.063331786
0.063331786
0.063331786
0.063331786
0.063331786
0.063331786
0.063331788
0.063331793
0.063331805
0.063331822
0.063331809
0.063331702
0.063331547
0.063331644
0.063332313
0.063332861
0.063331776
0.063332207
0.063342034
0.063350218
0.06331196
0.063212268
0.063156378
0.06321159
0.063279904
0.063246915
0.063228323
0.063352118
0.063549595
0.063808916
0.064119276
0.06404769
0.063551794
0.06317883
0.063260152
0.07302895
0.063336525
0.063331958
0.063331972
0.063331802
0.063331793
0.063331787
0.063331786
0.063331786
0.063331786
0.063331786
0.063331786
0.063331786
0.063331786
0.063331786
0.063331786
0.063331788
0.063331793
0.063331806
0.063331823
0.063331812
0.063331707
0.063331555
0.06333165
0.063332332
0.063332907
0.063331904
0.06333224
0.063342185
0.063350685
0.063313288
0.063213283
0.06315628
0.063210668
0.063279917
0.063247666
0.063227863
0.063350905
0.063549202
0.063809031
0.064122316
0.064058292
0.063563212
0.063186203
0.06326326
0.073903865
0.063336444
0.063331962
0.063331971
0.063331802
0.063331793
0.063331787
0.063331786
0.063331786
0.063331786
0.063331786
0.063331786
0.063331786
0.063331786
0.063331786
0.063331786
0.063331788
0.063331793
0.063331806
0.063331824
0.063331815
0.063331712
0.063331562
0.063331656
0.06333235
0.063332958
0.063332035
0.063332273
0.063342333
0.063351159
0.063314638
0.063214352
0.063156179
0.063209721
0.063279904
0.063248419
0.063227398
0.06334963
0.063548627
0.063809218
0.064125253
0.06406894
0.063574918
0.063193709
0.06326627
0.074782171
0.063336354
0.063331967
0.06333197
0.063331803
0.063331793
0.063331787
0.063331786
0.063331786
0.063331786
0.063331786
0.063331786
0.063331786
0.063331786
0.063331786
0.063331786
0.063331788
0.063331793
0.063331806
0.063331825
0.063331817
0.063331718
0.063331569
0.063331663
0.063332367
0.06333301
0.063332165
0.06333231
0.063342483
0.063351648
0.06331599
0.063215483
0.063156071
0.063208762
0.063279806
0.063249176
0.063226932
0.063348304
0.063547819
0.063809533
0.064128096
0.064079639
0.063586888
0.063201311
0.063269348
0.063427756
0.075702519
0.063336253
0.06333197
0.063331969
0.063331803
0.063331793
0.063331787
0.063331786
0.063331786
0.063331786
0.063331786
0.063331786
0.063331786
0.063331786
0.063331786
0.063331786
0.063331788
0.063331793
0.063331806
0.063331825
0.06333182
0.063331724
0.063331575
0.063331671
0.063332385
0.063333062
0.063332284
0.063332362
0.063342629
0.063352143
0.063317329
0.063216694
0.063155965
0.063207792
0.06327965
0.063249945
0.063226474
0.063346927
0.063546766
0.063809968
0.064130847
0.064090398
0.06359911
0.063208986
0.063272494
0.063438458
0.076648505
0.063336141
0.063331974
0.063331968
0.063331803
0.063331793
0.063331787
0.063331786
0.063331786
0.063331786
0.063331786
0.063331786
0.063331786
0.063331786
0.063331786
0.063331786
0.063331788
0.063331793
0.063331806
0.063331826
0.063331823
0.063331729
0.063331582
0.06333168
0.063332403
0.063333113
0.063332395
0.063332438
0.063342768
0.063352644
0.063318648
0.063217992
0.063155869
0.063206807
0.063279421
0.063250735
0.063226033
0.063345492
0.063545534
0.063810454
0.064133495
0.06410122
0.063611574
0.063216731
0.06327571
0.063444538
0.077629672
0.063336017
0.063331978
0.063331966
0.063331804
0.063331792
0.063331787
0.063331786
0.063331786
0.063331786
0.063331786
0.063331786
0.063331786
0.063331786
0.063331786
0.063331786
0.063331788
0.063331793
0.063331806
0.063331827
0.063331825
0.063331735
0.06333159
0.063331689
0.063332421
0.063333164
0.063332509
0.063332525
0.063342901
0.063353153
0.063319957
0.063219372
0.063155786
0.063205796
0.063279129
0.063251551
0.063225618
0.063343988
0.063544213
0.063810921
0.064136023
0.064112105
0.063624277
0.063224567
0.063278982
0.063451375
0.078642591
0.06333588
0.063331984
0.063331965
0.063331804
0.063331792
0.063331787
0.063331786
0.063331786
0.063331786
0.063331786
0.063331786
0.063331786
0.063331786
0.063331786
0.063331786
0.063331788
0.063331793
0.063331806
0.063331828
0.063331828
0.06333174
0.063331598
0.063331697
0.06333244
0.063333215
0.063332627
0.063332612
0.063343028
0.06335367
0.063321254
0.063220831
0.063155702
0.063204757
0.063278786
0.063252394
0.063225244
0.063342412
0.063542862
0.06381134
0.064138412
0.064123053
0.06363722
0.063232533
0.063282309
0.063457925
0.063283283
0.07969064
0.063335729
0.063331988
0.063331964
0.063331804
0.063331792
0.063331787
0.063331786
0.063331786
0.063331786
0.063331786
0.063331786
0.063331786
0.063331786
0.063331786
0.063331786
0.063331788
0.063331793
0.063331806
0.063331829
0.063331831
0.063331746
0.063331606
0.063331705
0.063332458
0.063333269
0.063332747
0.063332698
0.063343152
0.063354195
0.063322536
0.063222379
0.063155602
0.063203696
0.063278404
0.063253266
0.063224919
0.063340766
0.063541492
0.063811712
0.064140652
0.064134069
0.063650405
0.063240661
0.063285693
0.063464424
0.063314631
0.080773511
0.063335564
0.063331993
0.063331963
0.063331804
0.063331792
0.063331787
0.063331786
0.063331786
0.063331786
0.063331786
0.063331786
0.063331786
0.063331786
0.063331786
0.063331786
0.063331788
0.063331793
0.063331806
0.06333183
0.063331834
0.063331751
0.063331616
0.063331713
0.063332476
0.063333325
0.063332866
0.063332789
0.063343276
0.063354723
0.063323809
0.06322402
0.063155483
0.063202626
0.063277984
0.06325417
0.063224643
0.063339057
0.063540079
0.063812026
0.064142739
0.064145153
0.063663836
0.063248965
0.063289156
0.06347077
0.063323346
0.081893625
0.063335382
0.063331997
0.063331962
0.063331805
0.063331792
0.063331787
0.063331786
0.063331786
0.063331786
0.063331786
0.063331786
0.063331786
0.063331786
0.063331786
0.063331786
0.063331788
0.063331793
0.063331807
0.06333183
0.063331837
0.063331757
0.063331625
0.06333172
0.063332493
0.063333382
0.063332987
0.063332887
0.063343405
0.063355246
0.063325087
0.06322575
0.063155371
0.063201547
0.063277521
0.063255103
0.063224411
0.063337297
0.063538592
0.063812232
0.064144678
0.064156278
0.063677538
0.063257449
0.063292726
0.063476974
0.063334552
0.08305099
0.063335184
0.063332002
0.063331961
0.063331805
0.063331792
0.063331787
0.063331786
0.063331786
0.063331786
0.063331786
0.063331786
0.063331786
0.063331786
0.063331786
0.063331786
0.063331788
0.063331793
0.063331807
0.063331831
0.06333184
0.063331763
0.063331634
0.063331727
0.063332511
0.063333442
0.063333106
0.063332997
0.063343545
0.063355758
0.063326381
0.063227551
0.06315529
0.063200443
0.063277005
0.063256063
0.063224222
0.06333549
0.063537014
0.063812325
0.0641465
0.064167386
0.063691545
0.063266121
0.063296435
0.063483035
0.063345203
0.084247566
0.063334967
0.063332006
0.06333196
0.063331806
0.063331792
0.063331787
0.063331786
0.063331786
0.063331786
0.063331786
0.063331786
0.063331786
0.063331786
0.063331786
0.063331786
0.063331788
0.063331793
0.063331807
0.063331832
0.063331842
0.06333177
0.063331643
0.063331735
0.06333253
0.063333501
0.063333221
0.063333124
0.063343696
0.063356249
0.063327696
0.063229414
0.063155243
0.063199308
0.063276426
0.063257053
0.063224075
0.063333626
0.063535341
0.063812355
0.064148254
0.064178435
0.063705878
0.063274995
0.063300312
0.063488956
0.063356044
0.063200717
0.085484142
0.063334731
0.06333201
0.063331959
0.063331806
0.063331792
0.063331787
0.063331786
0.063331786
0.063331786
0.063331786
0.063331786
0.063331786
0.063331786
0.063331786
0.063331786
0.063331788
0.063331793
0.063331807
0.063331833
0.063331844
0.063331777
0.063331652
0.063331744
0.06333255
0.063333558
0.063333332
0.063333269
0.063343854
0.063356713
0.063329037
0.06323134
0.063155226
0.063198143
0.063275783
0.063258084
0.063223963
0.063331688
0.063533584
0.063812334
0.064150007
0.064189394
0.063720538
0.063284094
0.063304375
0.063494749
0.063366929
0.063231123
0.086761972
0.063334474
0.063332014
0.063331958
0.063331807
0.063331792
0.063331787
0.063331786
0.063331786
0.063331786
0.063331786
0.063331786
0.063331786
0.063331786
0.063331786
0.063331786
0.063331788
0.063331793
0.063331807
0.063331834
0.063331846
0.063331785
0.06333166
0.063331752
0.063332569
0.063333612
0.063333443
0.063333427
0.063344006
0.063357152
0.063330413
0.063233327
0.063155223
0.063196943
0.063275078
0.063259163
0.063223879
0.06332967
0.063531756
0.063812208
0.064151837
0.064200238
0.063735513
0.063293437
0.06330863
0.063500435
0.06337786
0.06323841
0.088082783
0.063334196
0.063332018
0.063331957
0.063331807
0.063331792
0.063331787
0.063331786
0.063331786
0.063331786
0.063331786
0.063331786
0.063331786
0.063331786
0.063331786
0.063331786
0.063331788
0.063331793
0.063331807
0.063331835
0.063331848
0.063331792
0.06333167
0.063331761
0.063332586
0.063333666
0.063333555
0.063333593
0.063344127
0.063357584
0.063331829
0.063235367
0.06315528
0.063195699
0.06327432
0.063260292
0.063223818
0.063327577
0.063529859
0.063811946
0.064153831
0.06421095
0.063750777
0.06330305
0.063313065
0.063506032
0.063388842
0.063248082
0.089447099
0.063333894
0.063332022
0.063331956
0.063331807
0.063331791
0.063331787
0.063331786
0.063331786
0.063331786
0.063331786
0.063331786
0.063331786
0.063331786
0.063331786
0.063331786
0.063331788
0.063331793
0.063331807
0.063331835
0.063331851
0.0633318
0.063331679
0.06333177
0.063332603
0.06333372
0.063333669
0.063333759
0.063344182
0.06335804
0.063333285
0.063237456
0.063155397
0.063194408
0.063273519
0.063261464
0.063223782
0.063325419
0.063527882
0.063811375
0.064156078
0.064221529
0.063766324
0.063312963
0.063317645
0.063511569
0.063399873
0.06325734
0.063263922
0.090857179
0.063333567
0.063332027
0.063331955
0.063331807
0.063331791
0.063331787
0.063331786
0.063331786
0.063331786
0.063331786
0.063331786
0.063331786
0.063331786
0.063331786
0.063331786
0.063331788
0.063331793
0.063331807
0.063331835
0.063331853
0.063331807
0.063331688
0.063331778
0.063332619
0.063333776
0.063333787
0.063333922
0.063344181
0.063358554
0.063334792
0.063239579
0.063155544
0.063193091
0.063272682
0.06326267
0.063223772
0.063323208
0.063525808
0.063810185
0.064158666
0.064231979
0.063782155
0.063323198
0.06332232
0.063517069
0.063410942
0.063266909
0.063294367
0.09231374
0.063333213
0.063332031
0.063331955
0.063331808
0.063331791
0.063331787
0.063331786
0.063331786
0.063331786
0.063331786
0.063331786
0.063331786
0.063331786
0.063331786
0.063331786
0.063331788
0.063331793
0.063331807
0.063331836
0.063331856
0.063331814
0.063331697
0.063331788
0.063332636
0.063333832
0.063333909
0.063334078
0.063344163
0.063359128
0.06333636
0.063241724
0.063155723
0.063191769
0.063271812
0.063263902
0.063223784
0.063320952
0.063523624
0.063808329
0.064161651
0.064242302
0.063798273
0.06333378
0.063327049
0.063522535
0.063422045
0.063276588
0.063301663
0.093818149
0.063332829
0.063332036
0.063331954
0.063331808
0.063331791
0.063331787
0.063331786
0.063331786
0.063331786
0.063331786
0.063331786
0.063331786
0.063331786
0.063331786
0.063331786
0.063331787
0.063331793
0.063331807
0.063331836
0.063331859
0.063331822
0.063331706
0.063331798
0.063332651
0.063333888
0.063334031
0.063334223
0.063344167
0.063359725
0.06333799
0.063243874
0.06315595
0.063190453
0.063270911
0.06326515
0.063223816
0.063318657
0.063521323
0.063806104
0.064165021
0.06425249
0.063814679
0.063344714
0.063331842
0.063527948
0.063433181
0.063286431
0.06331126
0.06311632
0.095372354
0.063332413
0.06333204
0.063331953
0.063331808
0.063331791
0.063331787
0.063331786
0.063331786
0.063331786
0.063331786
0.063331786
0.063331786
0.063331786
0.063331786
0.063331786
0.063331787
0.063331792
0.063331807
0.063331836
0.063331862
0.063331829
0.063331716
0.063331809
0.063332662
0.063333942
0.063334149
0.063334361
0.063344191
0.063360318
0.063339675
0.063246021
0.063156259
0.063189129
0.063269978
0.063266403
0.063223862
0.063316332
0.0635189
0.063803689
0.064168685
0.064262538
0.063831374
0.063355997
0.063336727
0.06353328
0.063444358
0.063296437
0.063320384
0.063150594
0.096977231
0.063331963
0.063332045
0.063331952
0.063331808
0.063331791
0.063331787
0.063331786
0.063331786
0.063331786
0.063331786
0.063331786
0.063331786
0.063331786
0.063331786
0.063331786
0.063331787
0.063331792
0.063331807
0.063331837
0.063331865
0.063331835
0.063331726
0.063331821
0.063332672
0.063333999
0.063334267
0.063334501
0.063344223
0.063360904
0.06334141
0.063248155
0.06315667
0.063187785
0.063269013
0.063267651
0.063223924
0.063313986
0.063516352
0.063801148
0.064172497
0.064272446
0.063848354
0.063367636
0.063341722
0.063538528
0.063455593
0.063306619
0.063329694
0.063163435
0.098634827
0.063331477
0.06333205
0.063331951
0.063331808
0.063331791
0.063331787
0.063331786
0.063331786
0.063331786
0.063331786
0.063331786
0.063331786
0.063331786
0.063331786
0.063331786
0.063331787
0.063331792
0.063331807
0.063331837
0.063331868
0.063331842
0.063331738
0.063331833
0.063332682
0.063334057
0.063334395
0.063334647
0.063344262
0.063361491
0.063343194
0.063250269
0.063157197
0.06318641
0.063268012
0.063268886
0.063224012
0.063311628
0.063513674
0.063798591
0.064176315
0.064282222
0.063865611
0.063379654
0.063346825
0.0635437
0.063466883
0.063316983
0.06333903
0.063179094
0.10034623
0.063330953
0.063332054
0.06333195
0.063331809
0.063331791
0.063331787
0.063331786
0.063331786
0.063331786
0.063331786
0.063331786
0.063331786
0.063331786
0.063331786
0.063331786
0.063331787
0.063331792
0.063331807
0.063331838
0.063331871
0.063331848
0.063331751
0.063331844
0.063332692
0.063334115
0.063334543
0.063334797
0.0633443
0.063362071
0.063345017
0.063252362
0.06315785
0.063184996
0.063266969
0.063270095
0.063224138
0.063309259
0.063510844
0.063796055
0.064180032
0.064291901
0.06388316
0.0633921
0.06335202
0.063548793
0.063478224
0.063327544
0.063348426
0.063194142
0.06292399
0.1021135
0.063330387
0.063332058
0.063331949
0.063331809
0.063331791
0.063331787
0.063331786
0.063331786
0.063331786
0.063331786
0.063331786
0.063331786
0.063331786
0.063331786
0.063331786
0.063331787
0.063331792
0.063331807
0.063331838
0.063331873
0.063331855
0.063331763
0.063331852
0.063332702
0.063334176
0.063334707
0.063334934
0.063344331
0.063362644
0.063346872
0.063254466
0.063158645
0.063183531
0.063265881
0.063271268
0.063224306
0.063306878
0.063507845
0.063793488
0.064183601
0.064301544
0.063901003
0.063405024
0.063357295
0.063553803
0.063489612
0.063338308
0.063357895
0.063209478
0.06295751
0.10393792
0.063329777
0.063332062
0.063331948
0.063331809
0.063331791
0.063331787
0.063331786
0.063331786
0.063331786
0.063331786
0.063331786
0.063331786
0.063331786
0.063331786
0.063331786
0.063331787
0.063331792
0.063331807
0.063331839
0.063331876
0.063331863
0.063331775
0.063331861
0.063332714
0.063334233
0.063334878
0.063335041
0.063344355
0.063363194
0.063348767
0.063256605
0.063159561
0.063182007
0.063264751
0.063272405
0.063224519
0.063304488
0.063504682
0.063790834
0.064186996
0.064311237
0.063919101
0.063418446
0.063362661
0.063558725
0.063501035
0.063349286
0.063367483
0.063224862
0.062969297
0.10582111
0.063329119
0.063332065
0.063331947
0.063331809
0.063331791
0.063331787
0.063331786
0.063331786
0.063331786
0.063331786
0.063331786
0.063331786
0.063331786
0.063331786
0.063331786
0.063331787
0.063331792
0.063331807
0.063331839
0.063331879
0.063331871
0.063331786
0.06333187
0.063332726
0.063334292
0.06333505
0.063335108
0.063344396
0.06336373
0.063350708
0.063258778
0.063160579
0.063180422
0.063263574
0.063273512
0.063224776
0.063302086
0.063501355
0.063788046
0.064190086
0.064321085
0.063937431
0.063432381
0.063368141
0.063563525
0.063512503
0.063360511
0.063377216
0.063240348
0.062984279
0.062941379
0.10776492
0.063328412
0.063332068
0.063331946
0.063331809
0.063331791
0.063331787
0.063331786
0.063331786
0.063331786
0.063331786
0.063331786
0.063331786
0.063331786
0.063331786
0.063331786
0.063331787
0.063331792
0.063331807
0.06333184
0.063331882
0.063331878
0.063331796
0.063331881
0.063332738
0.063334349
0.063335221
0.063335154
0.063344483
0.063364252
0.063352691
0.063260974
0.063161711
0.063178771
0.063262362
0.063274591
0.063225078
0.063299669
0.063497872
0.0637851
0.064192556
0.064331211
0.063955967
0.063446828
0.063373769
0.063568168
0.063524043
0.063372014
0.063387115
0.063255938
0.062998954
0.062971187
0.10977069
0.063327649
0.063332071
0.063331945
0.063331809
0.063331791
0.063331787
0.063331786
0.063331786
0.063331786
0.063331786
0.063331786
0.063331786
0.063331786
0.063331786
0.063331786
0.063331787
0.063331792
0.063331807
0.06333184
0.063331885
0.063331885
0.063331806
0.063331892
0.06333275
0.063334404
0.06333539
0.063335197
0.06334461
0.063364763
0.063354708
0.063263188
0.063162987
0.063177048
0.06326113
0.063275644
0.063225429
0.063297243
0.063494233
0.063781987
0.064194051
0.064341756
0.063974676
0.063461797
0.06337958
0.063572637
0.06353567
0.063383826
0.0633972
0.063271646
0.063014194
0.062977335
0.11184058
0.06332683
0.063332074
0.063331944
0.063331809
0.063331791
0.063331787
0.063331786
0.063331786
0.063331786
0.063331786
0.063331786
0.063331786
0.063331786
0.063331786
0.063331786
0.063331787
0.063331792
0.063331807
0.063331841
0.063331888
0.063331892
0.063331818
0.063331904
0.063332762
0.063334458
0.063335556
0.06333524
0.063344757
0.063365272
0.063356733
0.063265433
0.063164423
0.063175263
0.063259897
0.063276666
0.063225843
0.063294817
0.063490437
0.063778705
0.0641946
0.064352879
0.063993519
0.063477304
0.063385605
0.063576946
0.063547384
0.063395974
0.063407461
0.06328748
0.063029825
0.062985767
0.11397597
0.063325948
0.063332075
0.063331943
0.063331809
0.063331791
0.063331787
0.063331786
0.063331786
0.063331786
0.063331786
0.063331786
0.063331786
0.063331786
0.063331786
0.063331786
0.063331787
0.063331792
0.063331807
0.063331841
0.063331891
0.063331898
0.06333183
0.063331915
0.063332774
0.063334511
0.063335719
0.063335283
0.063344912
0.063365783
0.063358741
0.063267748
0.063166007
0.063173447
0.063258656
0.063277653
0.063226329
0.063292401
0.063486472
0.063775244
0.064194703
0.064364737
0.064012466
0.063493373
0.06339187
0.063581122
0.063559174
0.06340846
0.063417883
0.063303464
0.063045901
0.062993901
0.062981677
0.11617867
0.063325001
0.063332076
0.063331942
0.063331809
0.063331791
0.063331787
0.063331786
0.063331786
0.063331786
0.063331786
0.063331786
0.063331786
0.063331786
0.063331786
0.063331786
0.063331787
0.063331792
0.063331807
0.063331841
0.063331893
0.063331904
0.063331841
0.063331927
0.063332785
0.063334565
0.063335874
0.063335329
0.063345068
0.063366287
0.063360717
0.063270174
0.063167711
0.063171618
0.063257379
0.063278607
0.063226891
0.063289994
0.063482333
0.063771591
0.064194482
0.064377435
0.064031498
0.063510023
0.063398392
0.063585203
0.063571027
0.063421267
0.063428454
0.063319589
0.063062395
0.06300247
0.063012343
0.11845065
0.063323987
0.063332076
0.063331941
0.063331809
0.063331791
0.063331787
0.063331786
0.063331786
0.063331786
0.063331786
0.063331786
0.063331786
0.063331786
0.063331786
0.063331786
0.063331787
0.063331792
0.063331807
0.063331841
0.063331895
0.06333191
0.063331854
0.063331939
0.063332794
0.063334619
0.063336016
0.063335389
0.063345215
0.063366759
0.063362665
0.063272724
0.063169511
0.063169779
0.06325606
0.063279531
0.063227506
0.063287582
0.063478026
0.06376772
0.064193472
0.064390957
0.06405061
0.063527264
0.063405184
0.063589195
0.063582977
0.063434342
0.06343916
0.06333585
0.063079321
0.063011356
0.063020129
0.12079375
0.0633229
0.063332075
0.06333194
0.063331809
0.063331791
0.063331787
0.063331786
0.063331786
0.063331786
0.063331786
0.063331786
0.063331786
0.063331786
0.063331786
0.063331786
0.063331787
0.063331791
0.063331806
0.063331842
0.063331897
0.063331917
0.063331867
0.063331953
0.063332802
0.063334674
0.063336143
0.063335477
0.063345347
0.063367147
0.063364612
0.063275404
0.063171411
0.063167926
0.063254706
0.063280434
0.063228154
0.063285158
0.063473562
0.063763602
0.06419174
0.06440514
0.064069805
0.06354509
0.063412265
0.063593049
0.063595164
0.063447567
0.063450008
0.063352237
0.063096689
0.063020625
0.063030246
0.062965506
0.1232094
0.063321736
0.063332073
0.063331939
0.063331809
0.063331791
0.063331787
0.063331786
0.063331786
0.063331786
0.063331786
0.063331786
0.063331786
0.063331786
0.063331786
0.063331786
0.063331787
0.063331791
0.063331806
0.063331842
0.063331899
0.063331923
0.06333188
0.063331967
0.06333281
0.063334727
0.063336252
0.063335588
0.063345464
0.063367437
0.063366613
0.063278232
0.063173387
0.063166099
0.063253304
0.063281318
0.063228828
0.063282725
0.063468956
0.06375921
0.064189501
0.064419727
0.064089093
0.063563481
0.063419651
0.063596684
0.063607755
0.063460844
0.063460991
0.063368734
0.063114509
0.063030313
0.063039913
0.062997412
0.12570005
0.063320488
0.063332071
0.063331938
0.063331809
0.06333179
0.063331787
0.063331786
0.063331786
0.063331786
0.063331786
0.063331786
0.063331786
0.063331786
0.063331786
0.063331786
0.063331787
0.063331791
0.063331806
0.063331842
0.0633319
0.06333193
0.063331894
0.063331981
0.063332818
0.063334772
0.063336345
0.063335714
0.063345575
0.063367688
0.063368711
0.063281249
0.063175394
0.063164341
0.063251833
0.063282186
0.06322953
0.063280283
0.063464219
0.063754535
0.064187166
0.064434464
0.064108501
0.063582412
0.063427371
0.063600089
0.063620775
0.063474185
0.063472066
0.063385322
0.063132794
0.063040463
0.063049852
0.063007073
0.12826694
0.063319153
0.063332067
0.063331938
0.06333181
0.06333179
0.063331787
0.063331786
0.063331786
0.063331786
0.063331786
0.063331786
0.063331786
0.063331786
0.063331786
0.063331786
0.063331787
0.063331791
0.063331806
0.063331842
0.063331902
0.063331937
0.063331908
0.063331995
0.063332827
0.063334808
0.063336431
0.06333586
0.063345684
0.063367952
0.063370861
0.063284494
0.06317737
0.063162711
0.063250264
0.063283025
0.063230258
0.063277828
0.063459366
0.063749557
0.064184781
0.064449147
0.064128097
0.063601865
0.063435461
0.063603303
0.063634149
0.063487626
0.063483215
0.063401975
0.063151558
0.063051101
0.063059934
0.063019161
0.062975095
0.13091261
0.063317725
0.063332063
0.063331937
0.06333181
0.06333179
0.063331787
0.063331786
0.063331786
0.063331786
0.063331786
0.063331786
0.063331786
0.063331786
0.063331786
0.063331786
0.063331787
0.063331791
0.063331806
0.063331842
0.063331903
0.063331945
0.063331923
0.063332009
0.063332834
0.06333484
0.063336522
0.063336044
0.063345792
0.063368222
0.063372968
0.063287982
0.063179277
0.06316126
0.063248582
0.0632838
0.063231026
0.063275363
0.063454418
0.06374426
0.064182186
0.064463598
0.064148
0.06362184
0.063443948
0.063606397
0.063647765
0.0635012
0.063494449
0.063418674
0.063170818
0.063062246
0.063070237
0.063030589
0.063005927
0.13363839
0.063316199
0.063332057
0.063331936
0.06333181
0.06333179
0.063331787
0.063331786
0.063331786
0.063331786
0.063331786
0.063331786
0.063331786
0.063331786
0.063331786
0.063331786
0.063331787
0.063331791
0.063331805
0.063331842
0.063331905
0.063331953
0.063331938
0.063332024
0.063332837
0.063334871
0.063336623
0.063336267
0.063345882
0.063368474
0.063375016
0.06329169
0.063181129
0.063160011
0.06324679
0.063284456
0.06323185
0.063272898
0.063449386
0.06373862
0.064179207
0.064477578
0.064168394
0.063642361
0.063452846
0.06360945
0.063661508
0.063514941
0.063505771
0.063435427
0.063190578
0.063073927
0.063080798
0.063042101
0.06301368
0.063073465
0.13644647
0.063314568
0.06333205
0.063331935
0.06333181
0.06333179
0.063331787
0.063331786
0.063331786
0.063331786
0.063331786
0.063331786
0.063331786
0.063331786
0.063331786
0.063331786
0.063331787
0.063331791
0.063331805
0.063331842
0.063331906
0.06333196
0.063331953
0.063332039
0.063332838
0.063334901
0.063336732
0.063336504
0.063345933
0.063368704
0.063377034
0.06329559
0.063182991
0.063158943
0.06324486
0.063284944
0.063232765
0.063270453
0.063444271
0.063732637
0.064175788
0.064490765
0.064189523
0.06366347
0.063462158
0.06361254
0.063675281
0.063528889
0.063517196
0.063452262
0.063210814
0.063086189
0.063091644
0.063053551
0.063024114
0.063103319
0.1393388
0.063312828
0.063332041
0.063331934
0.06333181
0.06333179
0.063331787
0.063331786
0.063331786
0.063331786
0.063331786
0.063331786
0.063331786
0.063331786
0.063331786
0.063331786
0.063331787
0.06333179
0.063331805
0.063331842
0.063331908
0.063331967
0.063331967
0.063332051
0.063332837
0.06333493
0.063336843
0.063336742
0.063345927
0.063368906
0.063379032
0.063299676
0.063184897
0.063158009
0.063242752
0.063285244
0.063233789
0.063268053
0.063439078
0.06372633
0.064171943
0.064502854
0.064211668
0.06368522
0.063471888
0.063615733
0.063689009
0.063543079
0.06352876
0.063469191
0.063231506
0.063099083
0.063102775
0.063065031
0.063034294
0.063109563
0.14231709
0.063310971
0.063332031
0.063331934
0.06333181
0.06333179
0.063331787
0.063331786
0.063331786
0.063331786
0.063331786
0.063331786
0.063331786
0.063331786
0.063331786
0.063331786
0.063331787
0.06333179
0.063331804
0.063331841
0.063331909
0.063331974
0.06333198
0.063332064
0.063332837
0.063334957
0.063336959
0.063336977
0.06334584
0.063369086
0.063381005
0.063303952
0.063186827
0.063157197
0.063240427
0.063285392
0.063234939
0.063265737
0.063433818
0.063719721
0.064167651
0.06451372
0.064235102
0.063707643
0.063482046
0.063619091
0.063702637
0.063557539
0.06354051
0.063486219
0.063252644
0.063112661
0.063114166
0.063076599
0.063045
0.063118002
0.0631758
0.14538346
0.063308991
0.063332019
0.063331933
0.06333181
0.06333179
0.063331787
0.063331786
0.063331786
0.063331786
0.063331786
0.063331786
0.063331786
0.063331786
0.063331786
0.063331786
0.063331787
0.06333179
0.063331804
0.063331841
0.06333191
0.063331981
0.063331994
0.063332077
0.063332837
0.06333498
0.063337086
0.063337216
0.063345694
0.063369265
0.06338297
0.063308405
0.063188751
0.06315654
0.063237916
0.063285437
0.063236217
0.063263536
0.063428497
0.063712817
0.064162821
0.064523517
0.064260023
0.063730739
0.063492638
0.063622658
0.063716121
0.063572276
0.063552482
0.063503369
0.063274197
0.063127002
0.06312575
0.063088312
0.063056072
0.063126073
0.063206513
0.14853972
0.063306881
0.063332005
0.063331932
0.06333181
0.06333179
0.063331787
0.063331786
0.063331786
0.063331786
0.063331786
0.063331786
0.063331786
0.063331786
0.063331786
0.063331786
0.063331787
0.06333179
0.063331804
0.063331841
0.063331911
0.063331988
0.063332008
0.06333209
0.063332836
0.063334999
0.063337219
0.063337467
0.063345509
0.06336945
0.063384954
0.063312997
0.063190692
0.063156068
0.063235268
0.06328543
0.063237615
0.063261469
0.063423103
0.063705599
0.064157342
0.064532607
0.064286468
0.063754468
0.06350364
0.063626472
0.063729429
0.06358729
0.063564709
0.063520666
0.063296128
0.063142184
0.063137448
0.063100223
0.063067574
0.063134424
0.063213967
0.15178753
0.063304634
0.063331989
0.063331932
0.063331811
0.06333179
0.063331787
0.063331786
0.063331786
0.063331786
0.063331786
0.063331786
0.063331786
0.063331786
0.063331786
0.063331786
0.063331787
0.06333179
0.063331803
0.06333184
0.063331912
0.063331994
0.063332022
0.063332101
0.063332836
0.063335015
0.063337352
0.063337731
0.063345289
0.06336962
0.063386961
0.063317688
0.063192712
0.06315577
0.063232526
0.063285319
0.06323912
0.06325953
0.063417627
0.063698058
0.064151108
0.064541374
0.064314296
0.063778771