/*--------------------------------*- C++ -*----------------------------------*\
| =========                 |                                                 |
| \\      /  F ield         | OpenFOAM: The Open Source CFD Toolbox           |
|  \\    /   O peration     | Version:  2506                                  |
|   \\  /    A nd           | Website:  www.openfoam.com                      |
|    \\/     M anipulation  |                                                 |
\*---------------------------------------------------------------------------*/
FoamFile
{
    version     2.0;
    format      ascii;
    arch        "LSB;label=32;scalar=64";
    class       volScalarField;
    location    "0.008";
    object      Ma;
}
// * * * * * * * * * * * * * * * * * * * * * * * * * * * * * * * * * * * * * //

dimensions      [0 0 0 0 0 0 0];

internalField   nonuniform List<scalar> 
13761
(
0.30030691
0.29952001
0.29983201
0.29966085
0.29962369
0.2995999
0.29959201
0.29959031
0.29958985
0.29958973
0.2995897
0.29958969
0.29958969
0.29958969
0.2995897
0.29958896
0.29957564
0.2994876
0.2991305
0.29804721
0.29561135
0.29207216
0.2905421
0.29432888
0.29954153
0.30199241
0.30177548
0.30244427
0.30424208
0.30545262
0.30611926
0.30700932
0.30779362
0.30846988
0.30909242
0.30967625
0.31030481
0.3107867
0.31077124
0.3098072
0.30882909
0.3083102
0.30814734
0.3080753
0.30030655
0.29952169
0.29983113
0.29966146
0.2996237
0.29959992
0.29959201
0.29959031
0.29958985
0.29958973
0.2995897
0.29958969
0.29958969
0.29958969
0.2995897
0.29958902
0.29957605
0.2994894
0.29913677
0.29806314
0.29563749
0.29208639
0.29049809
0.29425006
0.29946605
0.30194641
0.3017404
0.30239146
0.30418249
0.30539749
0.30606402
0.30694963
0.30773024
0.30840051
0.30901755
0.30959288
0.31022134
0.31072581
0.31076035
0.30983693
0.30884041
0.30826695
0.30807357
0.30798617
0.30030626
0.29952206
0.29983038
0.29966229
0.29962393
0.29959997
0.29959205
0.29959031
0.29958985
0.29958973
0.2995897
0.29958969
0.29958969
0.29958969
0.2995897
0.29958906
0.29957629
0.29949046
0.29914031
0.29807176
0.29564973
0.29208484
0.29045528
0.29418832
0.29940843
0.30190458
0.30170572
0.30234545
0.30412847
0.30534603
0.30601202
0.30689305
0.30766831
0.30833325
0.30894513
0.30951238
0.31013689
0.31066036
0.31073845
0.30985461
0.30884277
0.30821649
0.307995
0.30789411
0.30784499
0.30030631
0.29952173
0.29982972
0.29966294
0.29962405
0.29959998
0.2995921
0.29959031
0.29958985
0.29958973
0.2995897
0.29958969
0.29958969
0.29958969
0.2995897
0.29958909
0.29957663
0.299492
0.29914546
0.29808467
0.29567032
0.29209272
0.29040669
0.29410909
0.29933633
0.30186092
0.3016721
0.30229395
0.30407035
0.30529222
0.30595751
0.30683299
0.30760473
0.30826491
0.30887162
0.30942934
0.31004858
0.31059132
0.3107142
0.30987563
0.30885426
0.3081762
0.30792008
0.3078019
0.30773926
0.30030727
0.29952138
0.29982941
0.29966376
0.29962432
0.29960001
0.29959214
0.29959031
0.29958985
0.29958973
0.2995897
0.29958969
0.29958969
0.29958969
0.2995897
0.29958912
0.29957686
0.29949298
0.29914858
0.29809188
0.29567958
0.2920864
0.29035834
0.29404548
0.29928079
0.30182159
0.3016376
0.30224898
0.30401723
0.30524113
0.30590616
0.30677597
0.30754459
0.30819868
0.30879908
0.30934665
0.3099613
0.31052091
0.31068443
0.30988801
0.30885821
0.30812965
0.30784017
0.30770721
0.30763471
0.300308
0.29952171
0.29982906
0.29966439
0.29962445
0.29960002
0.29959221
0.29959031
0.29958985
0.29958973
0.2995897
0.29958969
0.29958969
0.29958969
0.2995897
0.29958915
0.29957718
0.29949443
0.29915344
0.29810398
0.29569884
0.292093
0.2903073
0.29396285
0.29920727
0.3017775
0.3016046
0.30219788
0.30395897
0.30518696
0.30585181
0.30671604
0.30748187
0.30812959
0.30872363
0.30926178
0.30987112
0.31044504
0.31065191
0.30990373
0.30887275
0.30809465
0.30776631
0.30761528
0.30752787
0.30030885
0.29952246
0.29982927
0.29966512
0.29962471
0.29960008
0.29959225
0.29959032
0.29958985
0.29958973
0.2995897
0.29958969
0.29958969
0.29958969
0.29958969
0.29958917
0.29957742
0.29949544
0.29915662
0.29811114
0.2957077
0.29208508
0.29025458
0.29389553
0.29915044
0.30173857
0.30157033
0.30215208
0.30390535
0.30513561
0.30579956
0.30665908
0.30741949
0.30806039
0.30864864
0.30917901
0.30978257
0.31036629
0.31061467
0.3099139
0.30888104
0.30805535
0.3076857
0.30751797
0.30742205
0.30030952
0.29952331
0.29982938
0.29966565
0.29962484
0.2996001
0.29959233
0.29959033
0.29958985
0.29958973
0.2995897
0.29958969
0.29958969
0.29958969
0.29958969
0.29958919
0.29957774
0.29949687
0.29916144
0.29812317
0.29572709
0.29209208
0.29020262
0.29380871
0.29907292
0.30169279
0.30153749
0.30210048
0.30384556
0.30508029
0.30574355
0.3065978
0.30735317
0.30798875
0.30857161
0.30909455
0.30968949
0.3102812
0.31057366
0.30992497
0.30890034
0.30802617
0.30761441
0.30742365
0.30731362
0.3072385
0.30031062
0.29952413
0.29982962
0.29966635
0.29962506
0.29960017
0.29959239
0.29959034
0.29958985
0.29958973
0.2995897
0.29958969
0.29958969
0.29958969
0.29958969
0.2995892
0.299578
0.29949795
0.29916481
0.29813075
0.29573652
0.29208383
0.2901459
0.29373724
0.29901295
0.30165359
0.30150287
0.30205413
0.30379089
0.30502732
0.30568967
0.30653809
0.30728869
0.30791919
0.30849683
0.30901143
0.30959633
0.31019475
0.31052873
0.30993227
0.30891204
0.30799279
0.30753339
0.3073235
0.307203
0.30711572
0.30031143
0.29952516
0.29982961
0.29966693
0.29962519
0.29960027
0.29959244
0.29959034
0.29958985
0.29958973
0.2995897
0.29958969
0.29958969
0.29958969
0.29958969
0.29958922
0.29957831
0.29949939
0.29916965
0.29814295
0.29575653
0.29209182
0.2900937
0.29364614
0.29893047
0.3016052
0.30146965
0.30200217
0.30372896
0.30496989
0.30563219
0.30647428
0.30722197
0.30784736
0.30841958
0.30892497
0.30949891
0.31010274
0.3104773
0.30993689
0.30893262
0.30797077
0.30746271
0.30722786
0.30709265
0.30699299
0.30031155
0.29952601
0.29982971
0.29966773
0.29962543
0.29960042
0.29959248
0.29959035
0.29958985
0.29958973
0.2995897
0.29958969
0.29958969
0.29958969
0.29958969
0.29958924
0.29957857
0.29950055
0.29917325
0.29815115
0.29576695
0.29208385
0.29003321
0.29356964
0.29886682
0.30156562
0.30143494
0.30195394
0.30367228
0.30491556
0.30557676
0.30641359
0.3071569
0.30777622
0.3083427
0.3088393
0.30940359
0.31001085
0.31042222
0.30993512
0.30894625
0.30794471
0.30738649
0.30712664
0.30698038
0.3068699
0.30031174
0.29952598
0.29983004
0.29966838
0.29962559
0.29960059
0.29959252
0.29959036
0.29958985
0.29958973
0.2995897
0.29958969
0.29958969
0.29958969
0.2995897
0.29958925
0.29957887
0.29950199
0.29917815
0.29816362
0.29578775
0.29209304
0.28998102
0.29347473
0.29877838
0.30151478
0.30140153
0.30190028
0.30360776
0.30485623
0.30551783
0.30634931
0.30708724
0.30770108
0.30826226
0.30875179
0.30930569
0.30991229
0.31035847
0.30992648
0.3089648
0.30793009
0.30732098
0.3070324
0.30687115
0.30674678
0.3066561
0.30031312
0.29952553
0.29983058
0.29966917
0.29962586
0.29960075
0.29959255
0.29959036
0.29958985
0.29958973
0.2995897
0.29958969
0.29958969
0.29958969
0.2995897
0.29958927
0.29957914
0.29950321
0.29918202
0.29817252
0.2957994
0.29208574
0.28991684
0.29339217
0.29871069
0.30147544
0.30136599
0.30185068
0.30354887
0.30479975
0.30546081
0.30628664
0.30701847
0.30762671
0.30818367
0.30866657
0.30920794
0.30981231
0.31029182
0.30990943
0.30897998
0.30791153
0.30724873
0.30693096
0.30675467
0.30662261
0.30651478
0.30031519
0.29952518
0.29983164
0.29966969
0.29962606
0.2996009
0.29959258
0.29959036
0.29958985
0.29958973
0.2995897
0.29958969
0.29958969
0.29958969
0.2995897
0.29958929
0.29957943
0.29950465
0.29918699
0.29818528
0.29582103
0.29209624
0.28986474
0.29329357
0.29861629
0.30142214
0.30133122
0.30179592
0.30348183
0.30473715
0.30539982
0.30621859
0.30694662
0.30754955
0.30810284
0.30857864
0.30910615
0.30970633
0.31021781
0.30988417
0.30899414
0.30790493
0.3071875
0.30683624
0.30664251
0.30649735
0.30637078
0.300317
0.29952506
0.29983356
0.29967025
0.29962632
0.29960105
0.29959259
0.29959036
0.29958985
0.29958973
0.2995897
0.29958969
0.29958969
0.29958969
0.2995897
0.29958931
0.2995797
0.29950595
0.29919113
0.29819492
0.2958341
0.29208997
0.28979692
0.29320428
0.29854404
0.30138359
0.30129594
0.30174372
0.30342016
0.30467852
0.30534031
0.30615297
0.30687757
0.30747447
0.30802374
0.30849112
0.3090046
0.30960056
0.3101422
0.30985504
0.30900694
0.30789423
0.30712132
0.30673109
0.30652125
0.30636922
0.3062258
0.30031847
0.29952419
0.29983667
0.29967044
0.29962651
0.29960121
0.29959261
0.29959036
0.29958985
0.29958973
0.2995897
0.29958969
0.29958969
0.29958969
0.2995897
0.29958933
0.29957999
0.29950741
0.29919617
0.29820798
0.29585658
0.29210177
0.28974529
0.29310193
0.29844367
0.30132774
0.30126025
0.30168733
0.30335035
0.30461392
0.30527735
0.30608433
0.30680474
0.30739526
0.3079399
0.30840016
0.30890052
0.30948955
0.3100574
0.30981723
0.30901903
0.30789294
0.30706672
0.30663883
0.30640694
0.30624099
0.30608189
0.30031934
0.29952415
0.2998391
0.29967083
0.29962674
0.29960138
0.29959265
0.29959035
0.29958984
0.29958973
0.2995897
0.29958969
0.29958969
0.29958969
0.2995897
0.29958934
0.29958026
0.29950878
0.29920058
0.2982184
0.29587123
0.29209691
0.28967406
0.29300502
0.2983661
0.30129106
0.3012241
0.30163276
0.30328688
0.30455324
0.3052165
0.30601802
0.30673268
0.30731681
0.30785673
0.30831146
0.30879888
0.30937764
0.30996956
0.30977653
0.30902839
0.30789416
0.30700777
0.30653635
0.30628326
0.30610937
0.3059342
0.30583412
0.30032026
0.29952597
0.29983943
0.29967151
0.29962696
0.29960155
0.29959268
0.29959035
0.29958984
0.29958973
0.2995897
0.29958969
0.29958969
0.29958969
0.2995897
0.29958936
0.29958054
0.29951027
0.29920571
0.29823179
0.29589458
0.29211007
0.28962278
0.29289906
0.29825977
0.3012324
0.30118674
0.30157492
0.3032139
0.30448457
0.30515151
0.3059456
0.30665533
0.30723399
0.30777009
0.30822052
0.30869392
0.30925979
0.30987383
0.30972716
0.30903592
0.30789855
0.30696239
0.30644633
0.30616898
0.30598078
0.30578977
0.30566745
0.30032283
0.29952782
0.29983791
0.29967272
0.29962723
0.29960171
0.29959272
0.29959036
0.29958985
0.29958973
0.2995897
0.29958969
0.29958969
0.29958969
0.2995897
0.29958938
0.29958082
0.29951171
0.29921038
0.29824304
0.29591098
0.29210702
0.28954878
0.29279313
0.29817661
0.30119645
0.30115116
0.30151704
0.30314713
0.30442067
0.30508738
0.30587455
0.30658048
0.30715354
0.30768608
0.30813161
0.30858868
0.30914101
0.30977535
0.30967476
0.30904046
0.30790379
0.30691464
0.30634578
0.3060433
0.30584438
0.30563935
0.30550425
0.30032584
0.29952906
0.29983654
0.29967398
0.29962751
0.29960184
0.29959277
0.29959037
0.29958985
0.29958973
0.2995897
0.29958969
0.29958969
0.29958969
0.2995897
0.29958939
0.29958109
0.29951322
0.29921561
0.2982568
0.29593525
0.29212164
0.2894976
0.29268356
0.29806407
0.30113487
0.30111065
0.30145681
0.30307026
0.30434934
0.30501936
0.30580003
0.30650158
0.30706964
0.30759755
0.30803772
0.30847979
0.30901861
0.30966857
0.30961388
0.30903413
0.30790974
0.30687371
0.30625737
0.30592651
0.30571226
0.30549351
0.30533833
0.30032849
0.29953026
0.29983596
0.29967535
0.29962783
0.29960199
0.29959281
0.29959038
0.29958985
0.29958973
0.2995897
0.29958969
0.29958969
0.29958969
0.2995897
0.29958941
0.29958136
0.29951471
0.29922054
0.29826888
0.29595351
0.29212078
0.28942131
0.29256791
0.29797509
0.30109863
0.30107446
0.30139505
0.30300065
0.30428269
0.30495354
0.30572854
0.30642503
0.30698768
0.30750953
0.30794509
0.30837286
0.30889629
0.30955854
0.30954925
0.30902315
0.30791454
0.30683577
0.30616084
0.30579772
0.30556885
0.30533996
0.30517271
0.30504407
0.30032974
0.29953088
0.29983595
0.29967664
0.29962818
0.29960218
0.29959284
0.29959038
0.29958985
0.29958973
0.2995897
0.29958969
0.29958969
0.29958969
0.2995897
0.29958942
0.29958164
0.29951625
0.29922589
0.29828303
0.29597871
0.29213678
0.28936988
0.29245482
0.29785681
0.30103211
0.30103011
0.30133213
0.30292024
0.30420776
0.30488421
0.30565079
0.30634142
0.3069003
0.30741622
0.30784925
0.30826366
0.30876968
0.30943978
0.30947354
0.30899973
0.30791744
0.30680327
0.30607403
0.30567979
0.30543573
0.30518998
0.30500803
0.30485265
0.30033028
0.29953104
0.29983622
0.29967793
0.29962855
0.29960242
0.29959285
0.29959038
0.29958985
0.29958973
0.2995897
0.29958969
0.29958969
0.29958969
0.2995897
0.29958944
0.29958191
0.29951778
0.29923106
0.29829594
0.29599891
0.29213845
0.28929158
0.2923286
0.29776068
0.30099392
0.30099292
0.30126617
0.30284573
0.30413789
0.30481544
0.30557415
0.3062597
0.30681465
0.30732579
0.30775655
0.30815551
0.30864227
0.30931766
0.30939213
0.30897092
0.30792435
0.30677441
0.30598662
0.30555301
0.30528643
0.30503419
0.30483671
0.30465509
0.30033183
0.29953101
0.2998365
0.29967915
0.29962887
0.29960264
0.29959287
0.29959038
0.29958985
0.29958973
0.2995897
0.29958969
0.29958969
0.29958969
0.2995897
0.29958945
0.29958217
0.29951935
0.29923654
0.2983105
0.29602508
0.29215584
0.2892397
0.29221298
0.29763716
0.30092096
0.30094354
0.30119929
0.30276188
0.30405842
0.30474075
0.30549262
0.30617279
0.30672449
0.30723146
0.30765912
0.30804261
0.30851132
0.30918833
0.30930157
0.30893182
0.30792516
0.30675018
0.30590655
0.30543462
0.30515024
0.30488253
0.3046711
0.30445698
0.30438488
0.30033476
0.29953263
0.29983695
0.29968038
0.29962918
0.29960283
0.29959295
0.29959038
0.29958985
0.29958973
0.2995897
0.29958969
0.29958969
0.29958969
0.2995897
0.29958947
0.29958244
0.29952092
0.29924193
0.29832424
0.29604733
0.29216054
0.28916035
0.29207506
0.29753126
0.30087954
0.30090646
0.30112979
0.30268324
0.30398532
0.3046689
0.30541466
0.30609013
0.30663765
0.30713883
0.30756167
0.30793064
0.3083814
0.3090557
0.30920685
0.3088867
0.30792798
0.30673116
0.30582754
0.30530965
0.30499932
0.30472184
0.30449436
0.30425476
0.30415191
0.30033704
0.29953485
0.29983773
0.29968163
0.29962948
0.29960303
0.29959304
0.29959038
0.29958984
0.29958973
0.2995897
0.29958969
0.29958969
0.29958969
0.2995897
0.29958949
0.2995827
0.29952251
0.29924755
0.29833929
0.29607468
0.29217971
0.28910808
0.2919558
0.2974034
0.30080064
0.30085287
0.30105937
0.30259518
0.30390189
0.30459331
0.30533042
0.30600033
0.30654403
0.30703981
0.30745923
0.30781577
0.30824878
0.30891521
0.30910245
0.30882949
0.30792185
0.30670937
0.30575281
0.30519349
0.30485757
0.30456822
0.30432452
0.3040501
0.30392324
0.30033785
0.29953611
0.29983879
0.29968287
0.29962982
0.29960323
0.29959312
0.2995904
0.29958984
0.29958973
0.2995897
0.29958969
0.29958969
0.29958969
0.2995897
0.2995895
0.29958295
0.29952412
0.29925319
0.29835393
0.29609929
0.29218828
0.28902879
0.29180622
0.29728593
0.3007564
0.30081699
0.30098553
0.30251067
0.30382552
0.3045184
0.30524694
0.30591307
0.30645186
0.30694297
0.30735974
0.30770305
0.30811643
0.30877106
0.3089929
0.30876701
0.30791342
0.30669463
0.30568366
0.30507117
0.30470545
0.30440229
0.30413991
0.30384347
0.30368645
0.30033825
0.2995359
0.29984011
0.29968403
0.29963015
0.29960341
0.2995932
0.29959044
0.29958985
0.29958973
0.2995897
0.29958969
0.29958969
0.29958969
0.2995897
0.29958952
0.29958321
0.29952575
0.29925898
0.29836956
0.29612804
0.29220955
0.28897591
0.29168115
0.29715371
0.30067306
0.30075897
0.30091166
0.30241933
0.30373682
0.30443579
0.30515681
0.30581923
0.30635395
0.30684173
0.3072564
0.30758574
0.30797999
0.30862003
0.30887304
0.30869496
0.30789621
0.30667752
0.30561689
0.30495599
0.30456021
0.30424674
0.30396446
0.30363399
0.30345855
0.30324482
0.30034098
0.29953625
0.29984214
0.29968513
0.2996305
0.2996036
0.2995933
0.29959047
0.29958986
0.29958973
0.2995897
0.29958969
0.29958969
0.29958969
0.2995897
0.29958953
0.29958346
0.29952739
0.29926482
0.29838502
0.29615489
0.29222224
0.28889743
0.29152062
0.29702387
0.30062639
0.30072631
0.30083698
0.30233058
0.30365557
0.30435847
0.3050705
0.30573039
0.30626061
0.30674332
0.30715365
0.30746852
0.3078448
0.30846734
0.30874801
0.30861934
0.30787595
0.30666679
0.30556142
0.30484232
0.30440967
0.30407711
0.30377467
0.3034214
0.30322436
0.30299507
0.30034277
0.29953751
0.29984514
0.29968612
0.29963087
0.29960378
0.29959339
0.29959051
0.29958987
0.29958973
0.2995897
0.29958969
0.29958969
0.29958969
0.2995897
0.29958954
0.2995837
0.29952904
0.29927079
0.29840123
0.29618508
0.2922458
0.28884398
0.2913887
0.29688843
0.3005377
0.30066147
0.3007583
0.30223573
0.30356383
0.30427501
0.30497874
0.30563428
0.30616083
0.30663683
0.30704443
0.30734719
0.30770698
0.30830927
0.30861236
0.30853284
0.30784471
0.30665191
0.30550697
0.30473297
0.30426314
0.30391761
0.30359007
0.30321375
0.30299655
0.30274595
0.30034388
0.2995378
0.29984932
0.29968693
0.29963123
0.29960395
0.2995935
0.29959055
0.29958988
0.29958973
0.2995897
0.29958969
0.29958969
0.29958969
0.2995897
0.29958955
0.29958394
0.2995307
0.29927682
0.2984175
0.29621426
0.29226305
0.28876742
0.29121695
0.29674301
0.30048613
0.30062755
0.30068194
0.30214226
0.30348036
0.30419513
0.30488859
0.30554098
0.30606314
0.30653149
0.30693722
0.3072279
0.30757043
0.30814987
0.30847089
0.30843879
0.30780558
0.30663905
0.3054614
0.30462943
0.3041141
0.30374317
0.30339444
0.30299378
0.30276419
0.30249457
0.30244854
0.30034667
0.2995373
0.29985462
0.29968748
0.29963156
0.29960415
0.29959359
0.29959059
0.29958989
0.29958974
0.2995897
0.29958969
0.29958969
0.29958969
0.2995897
0.29958956
0.29958418
0.29953237
0.29928295
0.29843434
0.2962461
0.29228933
0.28871372
0.29107691
0.29660637
0.30039343
0.30055801
0.3005983
0.30204476
0.30338192
0.30410455
0.3047908
0.30543881
0.30595898
0.30642082
0.30682613
0.3071044
0.3074291
0.30798461
0.30831801
0.30833149
0.3077531
0.30661914
0.30541289
0.30452359
0.30396887
0.30358038
0.30320192
0.30278889
0.3025373
0.30224525
0.30216367
0.3003513
0.29953904
0.2998586
0.29968796
0.29963187
0.29960438
0.29959368
0.29959063
0.2995899
0.29958974
0.2995897
0.29958969
0.29958969
0.29958969
0.2995897
0.29958957
0.29958441
0.29953404
0.29928917
0.29845139
0.2962777
0.29231148
0.28864016
0.29089403
0.2964433
0.30033315
0.30052032
0.30052066
0.30194627
0.30329377
0.30402202
0.30469734
0.30534145
0.30586047
0.30631422
0.30671673
0.30698068
0.30728852
0.30781967
0.30816006
0.30821887
0.30769292
0.30659959
0.30537497
0.3044296
0.30382392
0.30340619
0.30300136
0.30256874
0.30230559
0.30198851
0.30187575
0.30035624
0.29954193
0.29985962
0.29968896
0.29963222
0.29960463
0.29959377
0.29959066
0.29958991
0.29958974
0.2995897
0.29958969
0.29958969
0.29958969
0.2995897
0.29958958
0.29958465
0.29953572
0.29929547
0.29846891
0.29631139
0.29234095
0.28858674
0.29074427
0.29630426
0.3002373
0.30044662
0.30043032
0.30184739
0.30319456
0.30392964
0.30459757
0.30523774
0.30575444
0.3062
0.30659954
0.30685092
0.30714438
0.30764991
0.3079932
0.30809419
0.3076204
0.30657517
0.30533632
0.30433284
0.30367932
0.30323417
0.3028042
0.30236481
0.30207662
0.30173766
0.30158229
0.30036118
0.29954309
0.29985898
0.29969055
0.29963265
0.29960488
0.29959387
0.2995907
0.29958992
0.29958974
0.2995897
0.29958969
0.29958969
0.29958969
0.2995897
0.29958959
0.29958488
0.2995374
0.29930186
0.29848671
0.29634545
0.2923683
0.28851767
0.29055078
0.29612517
0.30016719
0.30040571
0.30035354
0.30174467
0.30310262
0.30384428
0.30449968
0.30513796
0.30565031
0.30608703
0.30648334
0.30672327
0.30700258
0.3074817
0.30782287
0.3079637
0.30754139
0.30654789
0.30530521
0.30425018
0.3035404
0.30306172
0.30259757
0.30214793
0.30184107
0.30147149
0.30128298
0.30100033
0.30036628
0.29954361
0.29985956
0.29969245
0.29963318
0.29960514
0.29959399
0.29959073
0.29958993
0.29958974
0.2995897
0.29958969
0.29958969
0.29958969
0.2995897
0.2995896
0.2995851
0.29953907
0.29930832
0.29850492
0.29638119
0.2924015
0.28846523
0.29038972
0.29598052
0.30006876
0.30032814
0.30025408
0.30163914
0.3029966
0.3037449
0.30439319
0.30502902
0.30553747
0.30596782
0.306362
0.30659043
0.30685613
0.30730746
0.30764359
0.30781835
0.30744812
0.30651093
0.305272
0.30416725
0.3034011
0.30288411
0.30239882
0.30194161
0.30160752
0.30121223
0.30098275
0.3006666
0.30037173
0.29954546
0.29986077
0.29969433
0.29963377
0.29960541
0.29959411
0.29959076
0.29958994
0.29958975
0.2995897
0.29958969
0.29958969
0.29958969
0.2995897
0.29958961
0.29958533
0.29954075
0.29931486
0.29852345
0.2964177
0.29243431
0.28840177
0.29018653
0.29578702
0.29998374
0.30028323
0.30018098
0.30153555
0.30290044
0.30365711
0.30429055
0.30492565
0.3054305
0.30585436
0.30624344
0.30645738
0.30671123
0.30713416
0.30746159
0.30766448
0.3073493
0.30646617
0.30523849
0.30409204
0.30326974
0.30271272
0.30219123
0.30172874
0.30136402
0.30093968
0.30067224
0.30032769
0.30037748
0.29954704
0.29986136
0.29969634
0.2996344
0.29960571
0.29959424
0.2995908
0.29958995
0.29958975
0.2995897
0.2995897
0.29958969
0.29958969
0.2995897
0.29958962
0.29958556
0.29954241
0.29932147
0.29854235
0.29645564
0.29247181
0.28835134
0.29001266
0.2956344
0.2998884
0.30020242
0.30007458
0.30142841
0.30279462
0.30355513
0.30418201
0.30481531
0.30531496
0.305732
0.30611636
0.30631652
0.30656115
0.30695477
0.30727259
0.30749717
0.30723437
0.30640931
0.30520255
0.30401816
0.30313265
0.30253393
0.3019903
0.30151536
0.30112311
0.30066816
0.30036498
0.29998929
0.29983192
0.30038344
0.29954758
0.29986202
0.29969842
0.29963506
0.29960601
0.29959436
0.29959084
0.29958996
0.29958975
0.29958971
0.2995897
0.29958969
0.29958969
0.2995897
0.29958963
0.29958578
0.29954407
0.29932815
0.29856159
0.29649461
0.29251031
0.28829425
0.28980092
0.29542718
0.29978131
0.30015172
0.30000183
0.30132041
0.30269136
0.30346246
0.30407726
0.30470695
0.30520289
0.30561057
0.30599099
0.30617786
0.30641366
0.30677903
0.30708455
0.30732402
0.30711234
0.30634455
0.30516536
0.30395246
0.30301075
0.30236249
0.30178509
0.30130139
0.30086432
0.30038538
0.30004455
0.29964587
0.29945852
0.30038965
0.29954898
0.29986329
0.29970039
0.29963575
0.29960629
0.29959448
0.29959088
0.29958996
0.29958975
0.29958971
0.2995897
0.29958969
0.29958969
0.2995897
0.29958964
0.29958599
0.29954571
0.29933488
0.29858116
0.29653487
0.29255268
0.28824711
0.28961327
0.29526397
0.2996918
0.30006359
0.29989085
0.3012073
0.30258086
0.30335119
0.30396236
0.3045879
0.30508133
0.30548063
0.30585913
0.30603295
0.30626044
0.30659845
0.30688901
0.3071391
0.30697597
0.30626537
0.30512423
0.30388763
0.30288308
0.30218837
0.30158101
0.30108329
0.30061221
0.30010219
0.29972953
0.29930301
0.2990881
0.30039618
0.2995514
0.29986432
0.29970248
0.29963647
0.29960657
0.29959459
0.29959091
0.29958997
0.29958976
0.29958971
0.2995897
0.29958969
0.29958969
0.2995897
0.29958965
0.29958619
0.29954735
0.29934166
0.29860107
0.29657628
0.2925971
0.28819721
0.28939418
0.29504361
0.29956121
0.30001175
0.2998202
0.30110291
0.3024735
0.30325482
0.30385498
0.30447455
0.30496835
0.30535712
0.30573113
0.3058901
0.3061076
0.3064218
0.30669333
0.30694565
0.30683123
0.30617738
0.30508019
0.30382813
0.30276539
0.30201941
0.30138168
0.30086201
0.30034153
0.2998109
0.29940226
0.29895393
0.29870711
0.29840853
0.30040303
0.29955333
0.29986499
0.29970481
0.29963722
0.29960686
0.29959471
0.29959095
0.29958998
0.29958976
0.29958971
0.2995897
0.29958969
0.29958969
0.2995897
0.29958965
0.29958639
0.29954898
0.29934849
0.2986213
0.29661894
0.29264493
0.28815489
0.28919265
0.29486648
0.29947085
0.29991567
0.29970408
0.30098314
0.3023617
0.3031413
0.30373665
0.30435396
0.30484395
0.30522292
0.3055933
0.30573803
0.30594583
0.30624062
0.30648853
0.30674094
0.30666889
0.306069
0.30502552
0.30376865
0.30264912
0.30184989
0.30116922
0.30063218
0.30006998
0.29951784
0.29907899
0.29860746
0.29832702
0.29798515
0.30041028
0.29955473
0.29986606
0.29970703
0.29963803
0.29960718
0.29959482
0.29959098
0.29958999
0.29958976
0.29958971
0.2995897
0.29958969
0.29958969
0.2995897
0.29958966
0.29958658
0.29955061
0.29935536
0.29864183
0.2966628
0.29269548
0.28811307
0.28896663
0.29463373
0.29931932
0.29985893
0.29963063
0.30087682
0.30224449
0.30303827
0.30362305
0.30423613
0.30472227
0.30509196
0.30545785
0.30559016
0.30578584
0.30606353
0.30628697
0.30653328
0.30649689
0.30595259
0.30496449
0.30370857
0.3025373
0.30169024
0.30097378
0.30039644
0.29979008
0.29921595
0.29874554
0.29825152
0.2979378
0.29755034
0.29733206
0.300418
0.2995564
0.29986772
0.29970912
0.29963887
0.2996075
0.29959492
0.29959102
0.29959
0.29958976
0.29958971
0.2995897
0.29958969
0.29958969
0.2995897
0.29958966
0.29958677
0.29955222
0.29936226
0.29866266
0.29670787
0.2927493
0.28807753
0.28875083
0.29443905
0.29922224
0.29977294
0.29952272
0.30074977
0.30212693
0.3029143
0.30349447
0.304109
0.30458848
0.30495158
0.30531423
0.30543539
0.30561715
0.30588445
0.30607867
0.30631741
0.30631326
0.3058213
0.30488945
0.30364736
0.30243004
0.30152446
0.3007633
0.30015738
0.29950188
0.29891697
0.29841367
0.29790032
0.29754688
0.29711996
0.29687694
0.30042619
0.29955859
0.29986928
0.29971129
0.29963972
0.29960784
0.29959503
0.29959105
0.29959001
0.29958976
0.29958971
0.2995897
0.29958969
0.29958969
0.2995897
0.29958967
0.29958696
0.29955381
0.29936919
0.29868377
0.29675415
0.29280623
0.28804551
0.28851665
0.29419484
0.29905289
0.2997013
0.29944323
0.30065082
0.30201162
0.30280627
0.30338234
0.30398925
0.30446461
0.30481911
0.3051741
0.30528371
0.30545117
0.30570775
0.30587352
0.30610109
0.30611906
0.30568327
0.30480827
0.30358341
0.30232717
0.30137298
0.30055576
0.29990992
0.29921642
0.29860999
0.29807665
0.29753747
0.29714741
0.2966794
0.29641366
0.30043484
0.29956092
0.29987029
0.29971365
0.29964058
0.29960818
0.29959515
0.29959109
0.29959002
0.29958977
0.29958971
0.2995897
0.29958969
0.29958969
0.2995897
0.29958967
0.29958714
0.29955538
0.29937613
0.29870515
0.29680162
0.29286649
0.2880188
0.28828788
0.29397906
0.29894457
0.29964371
0.29933725
0.30050966
0.30188373
0.30267525
0.30325107
0.30385684
0.30432774
0.30467288
0.30502231
0.30512099
0.30527556
0.30552235
0.30566216
0.30587334
0.30590876
0.30552635
0.30470951
0.30351304
0.30222599
0.30122017
0.30034759
0.29965365
0.2989147
0.29830332
0.29773616
0.29717699
0.29674542
0.29624034
0.2959516
0.2957897
0.30044402
0.2995631
0.29987122
0.2997162
0.29964149
0.29960854
0.29959527
0.29959112
0.29959003
0.29958977
0.29958971
0.2995897
0.29958969
0.29958969
0.2995897
0.29958968
0.29958732
0.29955694
0.29938307
0.29872678
0.29685026
0.29293007
0.28799645
0.28804804
0.29372329
0.29876041
0.29955791
0.29926546
0.30041522
0.30175795
0.30255418
0.30313103
0.30372611
0.30419567
0.30453147
0.30487534
0.30496221
0.30510373
0.30533757
0.30545347
0.30564622
0.3056861
0.30535462
0.30459956
0.30344243
0.30212876
0.30107065
0.30013783
0.29940585
0.29862292
0.29799419
0.29739187
0.29680704
0.29633543
0.29579447
0.29547734
0.2952658
0.30045365
0.29956506
0.29987246
0.29971883
0.29964246
0.2996089
0.29959539
0.29959116
0.29959004
0.29958977
0.29958971
0.2995897
0.29958969
0.29958969
0.2995897
0.29958968
0.29958749
0.29955848
0.29939001
0.29874864
0.29690007
0.29299709
0.28797939
0.28780996
0.29348435
0.29863498
0.29951051
0.29915417
0.30026703
0.30162645
0.30242385
0.30299187
0.30358787
0.30405401
0.30437903
0.30471935
0.3047956
0.30492376
0.30514458
0.30524554
0.30540952
0.30545038
0.30516876
0.30446521
0.30335682
0.30203385
0.30092615
0.29992277
0.29913543
0.29832796
0.29768303
0.29704347
0.29643456
0.29592517
0.29534704
0.2950045
0.29473996
0.30046345
0.29956687
0.29987403
0.29972146
0.29964347
0.29960928
0.29959552
0.2995912
0.29959005
0.29958977
0.29958971
0.2995897
0.29958969
0.29958969
0.2995897
0.29958969
0.29958765
0.29956
0.29939695
0.29877071
0.29695101
0.2930676
0.28796765
0.28756547
0.29321575
0.29843843
0.29941657
0.29907224
0.30016499
0.30149969
0.30229299
0.30286882
0.30346044
0.30391982
0.30423386
0.30456661
0.30463356
0.3047473
0.30495451
0.30504197
0.3051777
0.3052133
0.30497128
0.30432363
0.30326804
0.30194025
0.30078195
0.29971504
0.29888009
0.29803211
0.29737382
0.29669039
0.29605788
0.29550296
0.29489286
0.29451861
0.29420132
0.29382283
0.300473
0.29956867
0.29987584
0.29972412
0.2996445
0.29960967
0.29959565
0.29959124
0.29959006
0.29958978
0.29958971
0.2995897
0.29958969
0.29958969
0.2995897
0.29958969
0.29958781
0.2995615
0.29940386
0.29879296
0.29700304
0.29314165
0.2879617
0.2873207
0.2929534
0.29829028
0.29936381
0.29897215
0.30001373
0.30134792
0.30214782
0.30271915
0.30331462
0.30376826
0.30407448
0.3043995
0.30446153
0.30455839
0.3047529
0.30483238
0.30493934
0.30496391
0.30475896
0.3041655
0.30316149
0.30184237
0.30064002
0.29950129
0.29862269
0.29774121
0.29705149
0.29633275
0.29567409
0.29508126
0.29443496
0.29403233
0.29366116
0.29323657
0.30048241
0.29957073
0.29987796
0.29972686
0.29964555
0.29961008
0.29959578
0.29959128
0.29959007
0.29958978
0.29958971
0.2995897
0.29958969
0.29958969
0.29958969
0.29958969
0.29958796
0.29956297
0.29941074
0.29881536
0.29705614
0.29321928
0.28796192
0.28707279
0.29267007
0.29808371
0.29926395
0.29886595
0.29989705
0.30122018
0.30201017
0.30259492
0.30317997
0.30362414
0.3039248
0.3042384
0.3042954
0.30436982
0.30455344
0.30462436
0.30469758
0.30471382
0.30453256
0.3039915
0.30305011
0.30174648
0.30049884
0.29929507
0.29836675
0.29745727
0.2967404
0.29596979
0.2952888
0.29464913
0.29397185
0.29353589
0.29310627
0.2926412
0.29243714
0.30049245
0.29957344
0.29988043
0.2997297
0.29964665
0.29961049
0.29959592
0.29959132
0.29959008
0.29958978
0.29958971
0.2995897
0.29958969
0.29958969
0.29958969
0.2995897
0.29958811
0.29956442
0.29941757
0.29883789
0.29711027
0.29330051
0.28796865
0.28682425
0.29238505
0.29790895
0.29920749
0.29878118
0.29973865
0.30104632
0.30186668
0.30244456
0.30302757
0.30347161
0.30376126
0.30406508
0.30412033
0.30417244
0.3043477
0.30440902
0.30445329
0.30444786
0.30428641
0.30379847
0.30291659
0.30163936
0.30035505
0.29909537
0.29811916
0.29716488
0.29641561
0.29560208
0.29489431
0.29421254
0.29350537
0.2930335
0.29255004
0.29204216
0.29180584
0.30050344
0.29957677
0.29988322
0.29973261
0.29964778
0.29961093
0.29959606
0.29959136
0.29959009
0.29958979
0.29958971
0.2995897
0.29958969
0.29958969
0.29958969
0.2995897
0.29958824
0.29956583
0.29942437
0.29886052
0.29716538
0.29338538
0.28798231
0.28657463
0.29208491
0.29769225
0.29910007
0.29866294
0.2996111
0.30091689
0.30171509
0.30230745
0.30288901
0.30332503
0.30360299
0.30389764
0.30395029
0.30398065
0.3041476
0.30419811
0.304216