/*--------------------------------*- C++ -*----------------------------------*\
| =========                 |                                                 |
| \\      /  F ield         | OpenFOAM: The Open Source CFD Toolbox           |
|  \\    /   O peration     | Version:  2506                                  |
|   \\  /    A nd           | Website:  www.openfoam.com                      |
|    \\/     M anipulation  |                                                 |
\*---------------------------------------------------------------------------*/
FoamFile
{
    version     2.0;
    format      ascii;
    arch        "LSB;label=32;scalar=64";
    class       volScalarField;
    location    "1";
    object      Ma;
}
// * * * * * * * * * * * * * * * * * * * * * * * * * * * * * * * * * * * * * //

dimensions      [0 0 0 0 0 0 0];

internalField   nonuniform List<scalar> 
1376
(
0.20881943
0.27134184
0.27834522
0.28291889
0.28450848
0.28644836
0.28819042
0.28980241
0.29106904
0.29228835
0.29339634
0.29449326
0.29537976
0.29603696
0.29700774
0.29775676
0.29823874
0.29856517
0.29897534
0.29943437
0.29972236
0.29989932
0.30001758
0.30009866
0.3001648
0.30019982
0.30019094
0.24199415
0.28612603
0.28724834
0.28915736
0.28970527
0.29087237
0.2918361
0.29300727
0.29377673
0.29453872
0.29523684
0.29599426
0.29659766
0.29735015
0.29794005
0.29843566
0.29889123
0.29933164
0.29970464
0.2999843
0.30012695
0.30023372
0.30032634
0.30038851
0.30041159
0.30040571
0.30036876
0.30033774
0.30029794
0.25439157
0.29387867
0.29372482
0.29485351
0.29465958
0.29546727
0.29574669
0.29641653
0.29673969
0.29716425
0.29738035
0.29775618
0.29812954
0.29859151
0.29906424
0.29948223
0.29985458
0.30013883
0.30033212
0.30046996
0.3005825
0.30066868
0.30071219
0.30070733
0.30065025
0.30059427
0.3005284
0.30046778
0.30040189
0.30030931
0.26239733
0.29982959
0.29935758
0.30025429
0.29967906
0.29979029
0.29945533
0.29966617
0.29962785
0.29977462
0.29966303
0.29983794
0.29997451
0.30016895
0.30041931
0.30059265
0.30076217
0.30088389
0.30100372
0.30107402
0.30111143
0.30111176
0.30106632
0.30097634
0.30087103
0.30078342
0.30068804
0.30060073
0.30050686
0.30039315
0.3003041
0.2705049
0.30548126
0.30425805
0.30518888
0.30410896
0.30384439
0.30294423
0.3028902
0.30252128
0.30240028
0.30199904
0.30196421
0.30184135
0.3017726
0.30173351
0.30173041
0.30173571
0.30171879
0.30173469
0.3017006
0.30160248
0.30150702
0.30141499
0.30126125
0.30111326
0.30098902
0.30085673
0.30073669
0.30061492
0.30047846
0.30036946
0.30027735
0.30019832
0.27441307
0.31002261
0.30801639
0.30930472
0.30780002
0.30763547
0.30632421
0.30598276
0.30524763
0.30492712
0.30430073
0.30407669
0.30363405
0.30330712
0.30308167
0.30298201
0.30281449
0.3025631
0.30239165
0.30229389
0.30212803
0.30191673
0.30175548
0.30155353
0.30135825
0.30118462
0.30102102
0.30086797
0.30071435
0.30056291
0.30043139
0.30032782
0.30023335
0.30013962
0.28061626
0.3150192
0.31127586
0.31276406
0.31075661
0.31093902
0.30925836
0.30876845
0.30763655
0.30732366
0.30652677
0.30602797
0.30535538
0.30493603
0.30443357
0.30409676
0.30379813
0.30348234
0.30308605
0.3028315
0.30266455
0.302362
0.30207023
0.30181654
0.30160251
0.30138148
0.30117878
0.30099673
0.30080821
0.30064374
0.30049367
0.30037887
0.30026761
0.30017213
0.30007857
0.28339634
0.31913814
0.31445015
0.31574147
0.31340547
0.31373371
0.3119607
0.31137092
0.30993425
0.30967223
0.30864689
0.30790704
0.30705881
0.30650653
0.30579213
0.30513883
0.30463967
0.30439159
0.30392091
0.30335473
0.30309139
0.30280616
0.30242648
0.30207156
0.30183245
0.30159271
0.30133526
0.3011182
0.30090292
0.30072008
0.30055731
0.30043073
0.30030229
0.30020216
0.30010217
0.3000141
0.28919595
0.322502
0.31781247
0.31853208
0.31638972
0.31619074
0.31450251
0.31391061
0.3122662
0.31191415
0.31058591
0.30963489
0.30859112
0.30791976
0.30716843
0.30631154
0.30540698
0.30503681
0.30469565
0.30403053
0.30347037
0.30316078
0.30280737
0.30236143
0.30202806
0.30178629
0.30149565
0.30122562
0.3009943
0.30079461
0.3006195
0.30048014
0.30033855
0.30022954
0.30012473
0.30003575
0.29173158
0.32376265
0.32063967
0.3212541
0.31925231
0.31854328
0.31682641
0.31626731
0.3145455
0.31391466
0.31239508
0.3114
0.31016549
0.30910973
0.30825841
0.30749547
0.30642847
0.30556005
0.30518288
0.30474332
0.30399301
0.30343255
0.30308903
0.30268372
0.30223528
0.30194333
0.30165413
0.30133154
0.3010785
0.30087137
0.3006819
0.30052447
0.30037641
0.30025599
0.30014524
0.30005883
0.29998218
0.29910667
0.32653031
0.32227109
0.32387126
0.32107813
0.32086032
0.31879205
0.31833884
0.31654007
0.31559664
0.31398809
0.31304271
0.31178531
0.31038452
0.30913734
0.30834601
0.30756335
0.30638888
0.30552481
0.30518628
0.30458848
0.30379356
0.30327881
0.30293983
0.30248944
0.30209038
0.30178841
0.30144513
0.30115865
0.30094593
0.30074617
0.3005645
0.30041214
0.30028311
0.30016534
0.300081
0.29999761
0.29991463
0.30155107
0.32938074
0.32432943
0.32558241
0.32280307
0.32339968
0.32092791
0.32037257
0.31840579
0.3172317
0.31547625
0.31434201
0.31309853
0.31178967
0.31020226
0.30894046
0.30826447
0.30736536
0.30619742
0.30546002
0.30496836
0.30428535
0.30351439
0.30309805
0.30271732
0.30225928
0.30189856
0.30155619
0.30124172
0.30101244
0.30080891
0.30060396
0.30044351
0.30030994
0.3001881
0.30010006
0.30001167
0.29992813
0.29985951
0.30766886
0.33347548
0.32712189
0.32685095
0.3247458
0.32583507
0.32305825
0.32217524
0.31993561
0.31885752
0.31712487
0.31553443
0.31394692
0.31281453
0.31145396
0.30979528
0.3086947
0.30796304
0.30707743
0.30592358
0.30517774
0.30465589
0.30387573
0.30325716
0.30286447
0.30242533
0.30200939
0.30165403
0.30132843
0.30107316
0.30086197
0.30064663
0.3004729
0.30033347
0.30021494
0.30011656
0.30002403
0.29994188
0.29986986
0.29980046
0.30968391
0.33509308
0.33006161
0.32948964
0.32607026
0.32715486
0.324804
0.32380389
0.32117346
0.32014895
0.31864527
0.3171099
0.31489508
0.31343385
0.3123185
0.31088205
0.30935638
0.3083098
0.30759368
0.30655888
0.30547831
0.30486724
0.30419778
0.30350182
0.30297714
0.30254587
0.30212496
0.30174219
0.30141315
0.30113186
0.30090273
0.30069233
0.30050415
0.3003535
0.30024247
0.30013312
0.30003563
0.29995473
0.29988002
0.29980939
0.29976151
0.31343745
0.33491147
0.33185993
0.33315325
0.32827127
0.32754693
0.32578504
0.32549775
0.322656
0.32111034
0.31938729
0.31837309
0.31631532
0.314224
0.31284839
0.31164061
0.31020275
0.30880004
0.30784951
0.30699341
0.30593486
0.30506496
0.3044016
0.30373595
0.30311339
0.30263572
0.30222562
0.30182634
0.30148987
0.30119155
0.30093797
0.30073293
0.30054042
0.30037313
0.30026539
0.30015044
0.30004795
0.29996619
0.29988957
0.299819
0.29976783
0.2997402
0.31152821
0.3409064
0.33319647
0.33555836
0.33137135
0.32889792
0.32623894
0.32660739
0.32440341
0.32243084
0.31981907
0.31888909
0.31731431
0.31534566
0.31349986
0.31215419
0.31082132
0.30939713
0.30812877
0.3072405
0.30629861
0.3053049
0.30455153
0.30389925
0.30325409
0.30273187
0.30230857
0.30190213
0.30155335
0.30125598
0.30097406
0.30076308
0.30057981
0.30039545
0.3002824
0.30016337
0.30006015
0.29997693
0.29989926
0.2998289
0.29977507
0.29974362
0.29973049
0.31668147
0.34254337
0.33389838
0.33724101
0.33268465
0.33147113
0.32838805
0.32722964
0.32539065
0.32367557
0.32120126
0.31927153
0.3176221
0.31610152
0.31425701
0.31263684
0.31124834
0.30981968
0.30847313
0.3074669
0.30651761
0.30550495
0.30469769
0.30401824
0.30338124
0.3028394
0.30238468
0.30196677
0.30160338
0.30131829
0.30101445
0.30078752
0.30061104
0.30042529
0.30029591
0.30016829
0.30007012
0.2999874
0.29991046
0.29983921
0.29978099
0.29974594
0.29973531
0.29970966
0.31937375
0.34335931
0.33467766
0.33814167
0.3335296
0.33315655
0.3311973
0.3285667
0.32597559
0.32427448
0.3226558
0.32013334
0.31791591
0.31648149
0.31478242
0.31298977
0.3115321
0.31011607
0.30876795
0.30768664
0.30665653
0.30567026
0.30483001
0.30412041
0.30350022
0.30294748
0.30245433
0.30202091
0.30164548
0.30136647
0.30106266
0.3008122
0.30062976
0.30046088
0.30030809
0.30016954
0.30007833
0.2999976
0.29992249
0.29984945
0.29978569
0.29974786
0.29974021
0.29971107
0.2997133
0.32449305
0.34563161
0.33740912
0.33845601
0.33405296
0.33451761
0.33217374
0.32963542
0.32704043
0.32491685
0.32331652
0.32057247
0.31850815
0.31678403
0.3150578
0.31320597
0.31167819
0.31036443
0.30905601
0.30781752
0.3067467
0.30581782
0.30495976
0.30421002
0.30358939
0.30303887
0.30250937
0.30206193
0.30168776
0.30140193
0.30110944
0.30084225
0.30064255
0.30048285
0.30032122
0.30017251
0.30008564
0.30000736
0.29993286
0.29985925
0.29979193
0.29975046
0.29974357
0.29971182
0.2997139
0.29967121
0.32576944
0.34775769
0.33913924
0.34005398
0.33425147
0.33543833
0.33271793
0.33016326
0.32810391
0.32562182
0.32377309
0.32076036
0.31890175
0.3169629
0.31521609
0.31341201
0.31177651
0.31050917
0.30931449
0.30792517
0.30680095
0.30590328
0.30507496
0.3042987
0.30364074
0.3030804
0.30254895
0.30209344
0.30173577
0.30143424
0.30114055
0.30087885
0.30065577
0.30048694
0.30033326
0.300183
0.30009332
0.3000152
0.29994079
0.29986899
0.29980123
0.29975473
0.29974516
0.29971171
0.29971241
0.29966543
0.29964487
0.328032
0.35141656
0.34035907
0.34141624
0.33583552
0.33580723
0.33313609
0.330773
0.32892225
0.32570526
0.32399842
0.32102727
0.31933848
0.31704047
0.3153781
0.31356753
0.31186794
0.31053041
0.30942926
0.30803658
0.30689258
0.30593628
0.30512788
0.30437378
0.30367713
0.30308326
0.30257828
0.30212676
0.30177912
0.30146102
0.30115741
0.30090571
0.30066973
0.3004838
0.30033842
0.30019427
0.30010165
0.30002004
0.29994693
0.29987801
0.29981205
0.29976174
0.29974633
0.29970318
0.29971301
0.29966547
0.29964722
0.29973341
0.30001382
0.33290728
0.35317685
0.34276522
0.34263529
0.33792638
0.33688059
0.33238554
0.33076482
0.32926513
0.3256839
0.32390774
0.32111952
0.31974707
0.31711281
0.31550585
0.31364139
0.31195068
0.31054472
0.30928555
0.30805784
0.30700909
0.30597617
0.30513653
0.30440409
0.30369707
0.30307993
0.30260009
0.30215616
0.30179644
0.30147181
0.30116664
0.30091439
0.30068186
0.3004854
0.3003383
0.30020345
0.30010877
0.30002336
0.29995063
0.2998844
0.29982377
0.29977095
0.29974744
0.29969451
0.29971995
0.29966356
0.29964577
0.29972399
0.3000209
0.33558189
0.3538355
0.3431134
0.34476968
0.33919521
0.33758919
0.33173384
0.33034151
0.32916981
0.32610024
0.32399396
0.32101065
0.31969236
0.31710221
0.31545951
0.3135921
0.31194176
0.31046228
0.30906926
0.30806713
0.30704642
0.30600014
0.30513923
0.30437071
0.30370134
0.30311004
0.30259382
0.30216332
0.301797
0.30146684
0.30116908
0.3009105
0.30069131
0.3004882
0.30033618
0.30021507
0.3001151
0.30002573
0.29995128
0.29988839
0.29983456
0.29977974
0.29974736
0.2996908
0.29972286
0.29964744
0.29964154
0.29971453
0.30001062
0.33455797
0.35492962
0.34263752
0.34620984
0.34054109
0.33757684
0.33256375
0.3306501
0.32854786
0.32558477
0.32387341
0.32077318
0.31902081
0.31693338
0.31497276
0.31326947
0.31184695
0.31042218
0.30908866
0.30799108
0.30679586
0.30588678
0.30507948
0.3043395
0.3037014
0.30311503
0.30255321
0.30216217
0.30179544
0.30146281
0.30116894
0.30090813
0.30070573
0.30049655
0.30033905
0.30022212
0.30012129
0.30002356
0.2999483
0.29989257
0.29984236
0.29978691
0.29974627
0.29969042
0.29972084
0.2996397
0.29964063
0.29970798
0.29999134
0.33774674
0.35434167
0.34383234
0.34631025
0.3416433
0.33751099
0.33506227
0.3306142
0.3276852
0.32442032
0.32335043
0.32059432
0.31893196
0.31691094
0.31484484
0.3131975
0.31184947
0.31039661
0.30906579
0.30770756
0.30669468
0.30582668
0.30504525
0.30436303
0.30371434
0.30304719
0.30253196
0.30216429
0.30180688
0.30147272
0.30117327
0.30091358
0.30071702
0.30051099
0.30034086
0.30021996
0.30012147
0.30001876
0.29994806
0.29989603
0.29984864
0.29979298
0.29974777
0.29968764
0.29971944
0.29963915
0.29963958
0.29968613
0.29997089
0.33923569
0.3556334
0.34473933
0.34496825
0.34187863
0.33687991
0.33630784
0.32969407
0.3274928
0.32423652
0.32319561
0.3205534
0.31888933
0.31647455
0.31472877
0.31306917
0.31136147
0.30985393
0.30868061
0.30761686
0.30676263
0.30584262
0.30503059
0.30432659
0.30363666
0.30300897
0.30252928
0.30211083
0.30177128
0.30142036
0.30116062
0.30090105
0.3006809
0.300508
0.30032941
0.30020702
0.30011181
0.30002098
0.29994578
0.29989452
0.29985532
0.29979875
0.29975257
0.29968604
0.29972142
0.29964125
0.29962941
0.29964644
0.29995768
0.34124138
0.35582914
0.34558323
0.34379417
0.34219691
0.33504627
0.33620539
0.3293479
0.32850399
0.32372286
0.32207769
0.3197739
0.31743402
0.31556795
0.31385683
0.31229488
0.31081978
0.30957514
0.30853606
0.30750861
0.30643259
0.30559231
0.30480771
0.30411372
0.30352828
0.30301568
0.30250929
0.30204427
0.30169698
0.30135885
0.30113833
0.30087628
0.30063385
0.30048761
0.30032538
0.3001998
0.30010978
0.30002558
0.29992973
0.29988546
0.29986169
0.29980355
0.29975536
0.29968813
0.29972144
0.29962628
0.29961531
0.29962783
0.29996061
0.34443778
0.35486067
0.34631375
0.34304694
0.34239289
0.33361062
0.33436361
0.32776476
0.32883273
0.32314327
0.3213335
0.31887394
0.31688771
0.31503707
0.31330378
0.31187701
0.31058697
0.30943766
0.30817773
0.30702015
0.30606926
0.30531871
0.30460321
0.30396912
0.30340945
0.30289955
0.30243465
0.30201782
0.30166104
0.30134487
0.30112231
0.30086435
0.30062451
0.30048398
0.30032872
0.30019763
0.30011334
0.30002342
0.29992177
0.29988054
0.29986349
0.29980643
0.29975255
0.29969305
0.29971282
0.29961278
0.29960604
0.29963021
0.29993899
0.34335884
0.35610838
0.34728014
0.34268761
0.34126237
0.33318146
0.3326757
0.32670105
0.3282723
0.32327352
0.32146666
0.31845138
0.31663289
0.31436914
0.31286849
0.31140275
0.30999309
0.30876205
0.30767784
0.30671243
0.30590778
0.30513071
0.30442722
0.30379964
0.30323468
0.30272707
0.30233255
0.30197996
0.30163257
0.30135401
0.30110687
0.30082829
0.30062547
0.30047841
0.30031616
0.30019503
0.30008107
0.30001375
0.29993566
0.29987887
0.29983968
0.29980443
0.29974999
0.29969612
0.29970981
0.29960498
0.29959701
0.2996034
0.29988661
0.34237439
0.35709754
0.34881362
0.34213505
0.34068867
0.33314733
0.33224231
0.32705829
0.32610709
0.32223041
0.31980139
0.31720974
0.31506692
0.31321349
0.31185352
0.31043732
0.30923984
0.30823669
0.30730979
0.30643379
0.30560758
0.30487964
0.30424549
0.30362608
0.30309084
0.30264776
0.30226586
0.30190796
0.30159252
0.30132361
0.3010375
0.30078445
0.30062554
0.30043886
0.34585505
0.35626431
0.34769174
0.33729956
0.34173943
0.33220734
0.33289693
0.32690949
0.32197162
0.31999357
0.31721159
0.31545172
0.31365891
0.3122927
0.31091102
0.30972846
0.30873682
0.30778826
0.30679492
0.30593208
0.30518775
0.34703346
0.35422861
0.34445669
0.33528939
0.3392505
0.33015373
0.33078705
0.32435057
0.32049346
0.31846349
0.31640659
0.34566093
0.35308855
0.23684475
0.22612882
0.21686346
0.21630541
0.22760144
0.23727837
0.2443061
0.2508748
0.25437353
0.26870163
0.27241561
0.27755921
0.28091671
0.28385203
0.28448835
0.27532798
0.27836143
0.28314856
0.2872839
0.28997243
0.29128187
0.27897757
0.28129991
0.28523532
0.28886541
0.29135159
0.29259705
0.28116134
0.28296268
0.28624952
0.28950218
0.29182519
0.2929839
0.28361772
0.28489515
0.28738257
0.2900716
0.29215748
0.29321915
0.28569698
0.2865814
0.2884766
0.29071472
0.29262477
0.29354352
0.28751937
0.28812804
0.28956444
0.29136571
0.29306515
0.29384717
0.28913776
0.28956018
0.29063179
0.29203502
0.29357488
0.29061537
0.29090104
0.29170373
0.29288612
0.29425552
0.29186474
0.29206042
0.29271764
0.29383164
0.29473294
0.29296041
0.29311268
0.29379578
0.29456547
0.29507741
0.29446275
0.29446896
0.29474997
0.29506733
0.29519665
0.29547077
0.29553774
0.29547409
0.29559791
0.29554097
0.29632278
0.29589098
0.29588014
0.29595236
0.29707729
0.29638339
0.29640349
0.29639096
0.29776842
0.29705306
0.29690825
0.29698265
0.29826163
0.29793346
0.29745864
0.29744482
0.29856897
0.2984485
0.29813362
0.29883355
0.29867517
0.29860231
0.29924535
0.29886021
0.29887401
0.29957304
0.29914005
0.29978726
0.29943623
0.29993382
0.29971198
0.30001629
0.30005621
)
;

boundaryField
{
    Side
    {
        type            empty;
    }
    Inlet
    {
        type            calculated;
        value           nonuniform List<scalar> 9(0.29976306 0.29976664 0.29976192 0.29975295 0.29974301 0.29973655 0.29973797 0.29972741 0.29970166);
    }
    Airfoil
    {
        type            calculated;
        value           uniform 0;
    }
    Outlet
    {
        type            calculated;
        value           nonuniform List<scalar> 0();
    }
    procBoundary8to1
    {
        type            processor;
        value           nonuniform List<scalar> 8(0.20857375 0.25364067 0.25080233 0.24642493 0.24642493 0.27724015 0.27220525 0.26919179);
    }
    procBoundary8to7
    {
        type            processor;
        value           nonuniform List<scalar> 
53
(
0.30026113
0.30016539
0.3000607
0.30000363
0.29995066
0.29988119
0.29982158
0.29979599
0.2997514
0.29970198
0.29971034
0.29958454
0.299587
0.2995612
0.29982985
0.30456278
0.30400508
0.30343963
0.30295753
0.30255501
0.30218268
0.30183058
0.30151074
0.30122834
0.30096822
0.30077536
0.30061334
0.30026113
0.30040322
0.31447589
0.31271547
0.31135803
0.31009026
0.30904299
0.30804606
0.3071163
0.30624237
0.3054786
0.30456278
0.30482238
0.34607893
0.33545461
0.33493264
0.32857934
0.32564475
0.32222098
0.32118844
0.31712888
0.31447589
0.31489742
0.35118232
0.34607893
0.35242026
)
;
    }
    procBoundary8to9
    {
        type            processor;
        value           nonuniform List<scalar> 
75
(
0.30019736
0.3000536
0.30019736
0.30018287
0.30022473
0.30022473
0.3002381
0.3002381
0.30022741
0.30022741
0.30016132
0.30010644
0.30010644
0.30005532
0.30005532
0.29999427
0.29999427
0.29994797
0.29996572
0.29996572
0.29990158
0.29990158
0.2998495
0.2998495
0.29979292
0.29979292
0.299757
0.299757
0.29973604
0.29973604
0.2997263
0.2997263
0.29970704
0.29970704
0.29971235
0.29971235
0.29968162
0.29968162
0.29964054
0.29964054
0.29973885
0.29973885
0.30000274
0.25647658
0.28430233
0.29204657
0.29350824
0.29371734
0.29394081
0.29411696
0.29427466
0.29415781
0.29415781
0.29434554
0.29452215
0.29498344
0.29523585
0.29555808
0.2960451
0.2960451
0.29647175
0.29694963
0.29739809
0.29784833
0.29784833
0.29832496
0.29877267
0.29903967
0.29903967
0.29919002
0.29937873
0.29987118
0.29987118
0.29993853
0.3000536
)
;
    }
}


// ************************************************************************* //
