/*--------------------------------*- C++ -*----------------------------------*\
| =========                 |                                                 |
| \\      /  F ield         | OpenFOAM: The Open Source CFD Toolbox           |
|  \\    /   O peration     | Version:  2506                                  |
|   \\  /    A nd           | Website:  www.openfoam.com                      |
|    \\/     M anipulation  |                                                 |
\*---------------------------------------------------------------------------*/
FoamFile
{
    version     2.0;
    format      ascii;
    arch        "LSB;label=32;scalar=64";
    class       volVectorField;
    location    "1";
    object      U;
}
// * * * * * * * * * * * * * * * * * * * * * * * * * * * * * * * * * * * * * //

dimensions      [0 1 -1 0 0 0 0];

internalField   nonuniform List<vector> 
1376
(
(64.845053 -13.302621 2.4344531e-17)
(85.138094 -5.9621091 -5.8743088e-17)
(86.257063 -15.554157 5.5858671e-17)
(89.111053 -6.5259974 -2.5567616e-17)
(88.850825 -10.488805 0)
(89.924335 -7.1761594 -1.0951837e-17)
(90.435686 -6.638943 0)
(90.990779 -6.1554116 1.1159643e-20)
(91.502691 -5.2009921 -1.7376368e-17)
(91.930238 -4.7300365 -8.0364611e-18)
(92.33277 -4.146609 -4.1750491e-22)
(92.694909 -3.3798668 0)
(92.921958 -2.9354787 0)
(93.249999 -2.2825246 0)
(93.513266 -2.543649 0)
(93.690523 -2.2382076 0)
(93.842514 -1.9179711 9.4113539e-18)
(93.988124 -1.7375892 3.3051628e-21)
(94.116039 -1.6945776 1.6186315e-17)
(94.222403 -1.62383 2.2388149e-17)
(94.30885 -1.4878254 -6.8802402e-18)
(94.383923 -1.2670685 3.1804156e-17)
(94.437928 -1.0227476 -5.8961451e-18)
(94.475902 -0.88906966 1.1580559e-22)
(94.493572 -0.78435257 5.0846329e-18)
(94.503913 -0.66622152 0)
(94.502044 -0.59870379 3.4832731e-17)
(76.604765 -3.8857779 -3.1005954e-17)
(88.693138 -11.969883 4.1038342e-17)
(90.607334 -2.6648165 0)
(91.119891 -7.5035781 0)
(91.231929 -4.096306 0)
(91.545859 -4.9529962 -1.1962928e-17)
(91.777086 -4.1681292 0)
(92.0763 -4.312828 3.0858594e-17)
(92.357475 -3.8375839 -3.8101722e-17)
(92.623092 -3.9626487 2.6468187e-17)
(92.873938 -3.4602133 0)
(93.150794 -3.8719395 -1.5101765e-17)
(93.450505 -3.6160301 1.3943524e-17)
(93.648606 -3.405727 1.2918145e-17)
(93.814327 -2.6637142 1.1964358e-17)
(93.925213 -2.4380735 2.2163599e-17)
(94.03115 -2.3296595 2.0509402e-17)
(94.161507 -2.1704298 -9.4775869e-18)
(94.314439 -1.9069058 1.0382729e-21)
(94.421982 -1.6601293 6.1929453e-22)
(94.476678 -1.4116781 3.2271589e-22)
(94.511886 -1.1990117 -2.7734848e-17)
(94.537449 -1.0747742 3.2089395e-17)
(94.549202 -0.92181787 0)
(94.555164 -0.8147053 -5.4911608e-18)
(94.556991 -0.73906767 -3.5449095e-17)
(94.551322 -0.6400897 -3.7385705e-17)
(94.536848 -0.54987996 0)
(94.52521 -0.47283716 6.3924985e-17)
(79.61973 -11.366872 0)
(91.864395 -9.775443 -2.6140101e-17)
(91.879184 -12.005489 6.4318897e-17)
(92.379637 -10.047726 -6.6986272e-17)
(92.345494 -9.9148017 3.4344299e-17)
(92.55393 -9.469599 5.0993031e-17)
(92.737887 -8.1078866 1.1783948e-17)
(92.943224 -7.7309151 -1.092964e-17)
(93.112008 -6.5650097 -2.0204492e-17)
(93.29758 -6.0523219 3.6689169e-21)
(93.463163 -5.1647006 5.1924233e-17)
(93.688623 -4.5903508 -1.6016097e-17)
(93.909327 -3.5470504 0)
(94.056828 -3.356171 0)
(94.167405 -3.2498063 -2.5278712e-17)
(94.260471 -2.9354184 -1.1685398e-17)
(94.350473 -2.4980186 -4.3180006e-17)
(94.424897 -2.1234434 2.9976919e-17)
(94.505447 -1.8817607 2.7762611e-17)
(94.566537 -1.6267478 3.4252925e-17)
(94.596597 -1.4579299 -7.9102271e-18)
(94.623581 -1.304976 5.8375817e-17)
(94.638493 -1.1519947 -2.0184186e-17)
(94.637073 -1.0393905 -6.2086318e-18)
(94.635475 -0.87519271 4.0089595e-17)
(94.622 -0.74517844 4.7596614e-17)
(94.603886 -0.62257762 -2.4424865e-18)
(94.578862 -0.54058312 4.5115123e-18)
(94.557659 -0.45205113 -2.0816458e-18)
(94.533593 -0.40459125 -1.9211763e-18)
(82.212482 -6.3786101 -2.009559e-17)
(93.805247 -11.077186 3.6722038e-17)
(93.825444 -7.10726 -8.4714738e-18)
(94.242428 -8.4979133 -1.5630618e-17)
(94.070585 -6.6040441 7.225313e-18)
(94.254107 -6.7217525 -1.1121852e-20)
(94.196094 -5.7790321 -1.2375827e-17)
(94.238243 -5.6904235 -1.1440535e-17)
(94.182532 -4.9926603 2.116998e-17)
(94.220531 -4.9263388 0)
(94.257653 -4.3537695 9.0760351e-18)
(94.331659 -4.1186283 -8.4023947e-18)
(94.377962 -4.2785442 -1.5555611e-17)
(94.491035 -3.7495994 0)
(94.555967 -3.1732998 -3.3217506e-17)
(94.608211 -2.8295142 6.1383337e-18)
(94.650079 -2.4987121 -5.6725833e-18)
(94.680236 -2.1728915 2.6194268e-17)
(94.702115 -1.9005416 -1.4533618e-17)
(94.720614 -1.7563348 -3.5811274e-17)
(94.740086 -1.5872927 4.8700415e-23)
(94.758806 -1.3756854 -3.8034459e-18)
(94.754314 -1.1464143 0)
(94.735148 -0.96154767 -4.849988e-17)
(94.710624 -0.81790817 -5.0737177e-17)
(94.679479 -0.70614352 2.7540501e-18)
(94.650755 -0.62012973 3.8063294e-17)
(94.619978 -0.54101261 0)
(94.590234 -0.46643694 6.8852147e-17)
(94.559703 -0.39036581 -1.2678421e-16)
(94.534661 -0.33148517 -1.8209711e-18)
(84.098759 -10.993799 2.1136793e-17)
(95.799265 -10.143569 -2.8971599e-17)
(94.968229 -10.243531 8.9334988e-18)
(95.447865 -10.206728 -8.2442003e-18)
(95.156205 -9.0902323 -1.5219378e-17)
(95.310492 -9.354951 1.4049261e-17)
(95.160781 -7.9509446 -1.3034137e-17)
(95.128333 -7.9490601 -1.202981e-17)
(95.007213 -6.7720606 -1.1140431e-17)
(94.978588 -6.4402949 -1.0308247e-17)
(94.958582 -5.4896184 -9.5494057e-18)
(94.958896 -5.0908458 -8.7899411e-18)
(94.94084 -3.9001255 1.6294992e-17)
(94.9364 -3.6191048 -7.5297879e-18)
(94.914366 -3.3699756 4.1608108e-17)
(94.935038 -2.999363 -6.388158e-18)
(94.93495 -2.7444185 -1.7691829e-17)
(94.946809 -2.4205782 -4.3523573e-17)
(94.943717 -2.1403834 1.5055413e-17)
(94.9213 -1.7871968 0)
(94.902449 -1.4614958 4.2889595e-18)
(94.888255 -1.2239832 -6.7178898e-17)
(94.8592 -1.1368403 -2.911809e-17)
(94.822427 -0.97712949 8.0469181e-17)
(94.779014 -0.8487012 4.6326922e-17)
(94.735795 -0.73433593 4.8360959e-17)
(94.698434 -0.62092331 -4.1883155e-17)
(94.661269 -0.53235473 -3.8472791e-17)
(94.623647 -0.44412131 -1.392572e-16)
(94.585353 -0.37696547 6.3020194e-17)
(94.556024 -0.33034362 -1.8661958e-18)
(94.523123 -0.26253381 5.6480545e-17)
(94.495765 -0.21668503 5.0244777e-17)
(86.147613 -4.8492485 -4.4156051e-17)
(97.040404 -10.909811 2.019965e-17)
(96.516667 -7.0111403 0)
(96.809212 -8.712718 -8.5957286e-18)
(96.501304 -6.6651084 7.9457383e-18)
(96.554289 -7.2383885 0)
(96.25826 -6.0332742 0)
(96.149906 -6.2871386 1.258598e-17)
(95.943085 -5.4165351 1.3022243e-20)
(95.838271 -5.4200086 -1.0748189e-17)
(95.738477 -4.8071685 -9.1134951e-21)
(95.639385 -4.5334393 1.8299629e-17)
(95.493207 -4.4429635 -8.4476054e-18)
(95.42559 -3.9106622 0)
(95.314211 -3.3792979 0)
(95.297226 -3.0323726 0)
(95.253241 -2.6737808 2.4522404e-17)
(95.21298 -2.3118868 2.2657351e-17)
(95.172991 -1.9829382 5.2127504e-18)
(95.118591 -1.7632777 3.3641883e-17)
(95.055943 -1.6196215 -3.5479268e-17)
(95.011787 -1.3967088 3.266917e-17)
(94.965729 -1.1460683 3.0045263e-17)
(94.909653 -0.99332404 -2.7641255e-17)
(94.850001 -0.84247748 -1.0173142e-16)
(94.795844 -0.71075634 -4.6770658e-17)
(94.746995 -0.59023722 -2.6864455e-18)
(94.700266 -0.51166353 4.4378342e-17)
(94.65597 -0.44850489 6.7816833e-17)
(94.611978 -0.36712282 2.0737739e-18)
(94.577358 -0.31485121 0)
(94.541604 -0.25824331 -5.5697741e-17)
(94.510401 -0.209455 5.0912622e-17)
(94.478682 -0.18429117 0)
(87.789086 -10.965662 0)
(98.409429 -9.806712 -1.0578668e-17)
(97.573301 -8.9505918 -1.9379708e-17)
(97.80112 -9.9105995 8.9468776e-18)
(97.457195 -7.9144988 2.4836702e-17)
(97.354822 -9.0151117 7.6560971e-18)
(97.07029 -7.2484844 -1.4160145e-17)
(96.867963 -7.70275 -1.3086391e-17)
(96.65279 -6.4075458 1.2092982e-17)
(96.5317 -6.3438245 1.1158909e-17)
(96.379476 -5.2995092 3.093179e-17)
(96.186875 -5.0879517 -5.7196398e-17)
(96.078588 -4.1239921 1.7515434e-17)
(95.965227 -3.8633612 1.6108499e-17)
(95.754211 -3.3712257 -7.4734455e-18)
(95.649055 -2.8446731 -3.4497736e-17)
(95.558583 -2.5724994 3.8059018e-17)
(95.469396 -2.3125629 -1.1691301e-17)
(95.380906 -2.0572083 -1.6184126e-17)
(95.313231 -1.7869723 -9.4511651e-21)
(95.22794 -1.4496739 7.6297021e-21)
(95.145866 -1.2379373 0)
(95.071063 -1.1152472 3.4734868e-17)
(94.994317 -0.94315342 -3.5493861e-18)
(94.917634 -0.81590984 4.9437274e-21)
(94.854383 -0.69458074 -2.9933993e-18)
(94.796474 -0.59094449 2.7438367e-18)
(94.738755 -0.49299972 0)
(94.687178 -0.43786628 0)
(94.638519 -0.36132146 -6.9585852e-17)
(94.599268 -0.30261733 -1.4374893e-22)
(94.559846 -0.25475068 -5.4632263e-17)
(94.52452 -0.19942566 0)
(94.487995 -0.17752552 0)
(94.466621 -0.14849543 8.5579489e-17)
(89.270718 -2.6529241 0)
(99.241966 -10.756251 3.30853e-17)
(98.808517 -6.0960182 -2.0126942e-17)
(98.822143 -8.8565416 0)
(98.54815 -6.114979 -1.7178486e-17)
(98.393745 -7.5950864 -5.4004526e-21)
(98.123548 -5.6604913 2.9314491e-17)
(97.816993 -6.315551 -1.354237e-17)
(97.500934 -5.1821459 0)
(97.338009 -5.3790499 -1.1515381e-17)
(97.065564 -4.622215 -1.0660044e-17)
(96.767789 -4.5112398 3.9526783e-17)
(96.565884 -4.0572594 1.8185464e-17)
(96.43231 -3.8679361 0)
(96.2148 -3.4597933 0)
(95.982446 -3.1469981 2.8492076e-17)
(95.83974 -2.6701437 -2.6274672e-17)
(95.738385 -2.3204534 0)
(95.604729 -2.0155239 0)
(95.497 -1.7124697 -3.5738188e-17)
(95.389117 -1.5816654 3.2808572e-17)
(95.272109 -1.3122467 3.4481839e-17)
(95.171856 -1.0922234 -5.9380162e-17)
(95.075799 -0.93882664 -3.6352921e-18)
(94.986781 -0.80886954 5.0022966e-17)
(94.9141 -0.68448172 6.1077047e-18)
(94.846665 -0.56094665 -2.7956996e-18)
(94.777586 -0.46008998 -3.838956e-17)
(94.717068 -0.4011015 7.2516253e-17)
(94.663935 -0.35348938 2.14125e-18)
(94.621345 -0.28190898 -1.9515357e-18)
(94.577868 -0.23601346 1.3036306e-21)
(94.537262 -0.19473127 5.1865333e-17)
(94.497989 -0.17143324 -9.3088315e-17)
(94.475599 -0.1407609 -8.7149198e-17)
(94.449744 -0.11656814 -7.8030214e-17)
(90.112555 -12.378022 -1.9027883e-17)
(100.87236 -9.0885329 3.436194e-17)
(99.448638 -7.9475722 1.0634543e-17)
(99.605498 -9.5510679 -1.9631472e-17)
(99.260346 -7.0222584 -4.2585143e-21)
(99.134372 -8.4772297 1.6692374e-17)
(98.879666 -6.5100907 -1.539685e-17)
(98.530055 -7.054317 -2.1354791e-17)
(98.154383 -5.738665 1.9737289e-17)
(97.963156 -5.8471306 0)
(97.684479 -4.9146609 0)
(97.371412 -4.833739 -2.0530879e-17)
(96.975071 -3.8589968 -3.8218836e-17)
(96.753523 -3.687967 4.3944809e-18)
(96.656715 -3.1922905 -3.9897096e-18)
(96.389305 -2.8572226 -3.6829757e-18)
(96.130123 -2.4490986 2.7339751e-17)
(95.97883 -2.1660588 -7.7111967e-22)
(95.829637 -1.8807087 2.5899723e-17)
(95.671766 -1.681282 4.2372713e-17)
(95.540632 -1.3679768 0)
(95.394898 -1.222508 -3.5706117e-17)
(95.268876 -1.0739434 6.7556042e-17)
(95.15993 -0.9141614 -1.874492e-18)
(95.059471 -0.78534684 -5.4905233e-17)
(94.974048 -0.64633423 0)
(94.89462 -0.554994 1.4346174e-18)
(94.815137 -0.45416815 -2.6213387e-18)
(94.745847 -0.38589624 -7.5336462e-17)
(94.689207 -0.33963555 1.3951767e-16)
(94.642671 -0.27747898 6.3537403e-17)
(94.595073 -0.2227867 1.3022697e-21)
(94.549031 -0.18750359 -5.2566019e-17)
(94.508323 -0.16288926 9.5526228e-17)
(94.483974 -0.1331345 6.7494983e-19)
(94.45371 -0.11448848 7.7944608e-17)
(91.90577 0.70355002 6.5895363e-18)
(101.83569 -10.675748 -5.7936244e-18)
(100.31121 -4.6493459 -2.2176456e-17)
(100.57646 -7.8262413 2.0310968e-17)
(100.01275 -5.2785615 0)
(99.981188 -6.7931129 0)
(99.63826 -5.1556421 0)
(99.252978 -5.9242001 2.950643e-17)
(98.794071 -4.6187198 -1.3655212e-17)
(98.461635 -4.9741195 1.2620536e-17)
(98.189879 -4.1940982 1.7286854e-17)
(98.046591 -4.2528004 2.337339e-21)
(97.490957 -3.5864177 -9.7276221e-18)
(96.99215 -3.5675849 4.5643223e-18)
(96.933405 -3.0588532 0)
(96.752219 -2.8918765 0)
(96.47531 -2.4825386 -2.780505e-17)
(96.204255 -2.1636942 2.5795019e-17)
(96.031263 -1.8781954 -2.3658724e-17)
(95.851575 -1.5794116 -4.603639e-17)
(95.680911 -1.4508716 2.4861097e-18)
(95.515906 -1.1837059 -3.8740106e-17)
(95.36484 -1.0207572 2.0834555e-18)
(95.242715 -0.86190691 0)
(95.130135 -0.74905771 5.5817222e-17)
(95.030558 -0.62950942 -5.0982698e-17)
(94.940956 -0.51726027 -4.79672e-17)
(94.851877 -0.42749249 4.3821895e-17)
(94.772746 -0.3563416 0)
(94.713723 -0.31079764 -7.0316161e-17)
(94.663138 -0.26239024 -6.3879236e-17)
(94.610595 -0.21029089 1.1605363e-16)
(94.560311 -0.17858245 0)
(94.518637 -0.15369441 7.4683322e-19)
(94.491439 -0.12639236 -8.758364e-17)
(94.457906 -0.11156639 1.2222429e-18)
(94.434554 -0.092450831 -2.7496844e-22)
(93.992563 -10.254633 1.2011736e-20)
(102.65275 -8.9099465 -2.9172197e-17)
(100.88487 -6.8227168 1.1532465e-17)
(101.30426 -8.5081276 -2.1123318e-17)
(100.60463 -5.3354647 -9.729904e-18)
(100.61149 -7.3418713 1.7823541e-17)
(100.21496 -5.3322458 -8.1494827e-18)
(99.91769 -6.4272301 -2.2678996e-17)
(99.448783 -4.9000823 -4.7505564e-21)
(98.887975 -5.2852381 6.4921946e-18)
(98.46383 -4.2437177 -2.4164033e-17)
(98.407976 -4.279895 2.1849542e-17)
(98.054933 -3.4637188 1.9797316e-17)
(97.458302 -3.2764165 -4.6209557e-18)
(97.135867 -2.8361232 4.3078628e-18)
(96.976187 -2.6391775 3.9342889e-18)
(96.798932 -2.2557087 -3.5479271e-18)
(96.478917 -1.9792903 -2.6198569e-17)
(96.219228 -1.7515599 3.0287252e-18)
(96.017589 -1.5251683 1.9385218e-17)
(95.821966 -1.282152 4.0562708e-17)
(95.633339 -1.1251781 5.8075047e-21)
(95.462036 -0.96555528 -6.7975632e-17)
(95.322278 -0.8237811 -1.9395715e-18)
(95.196884 -0.71457773 5.6604316e-17)
(95.082305 -0.59101725 1.6195379e-18)
(94.983695 -0.50536801 9.2698839e-17)
(94.888933 -0.40636799 -1.569642e-22)
(94.798617 -0.34508117 1.2213368e-18)
(94.735937 -0.29026134 0)
(94.682032 -0.24473759 1.0014058e-18)
(94.624486 -0.20162636 -1.172394e-16)
(94.571321 -0.17277577 -5.2742581e-17)
(94.529114 -0.14124749 0)
(94.497892 -0.1194465 8.5357512e-17)
(94.462644 -0.10872702 -7.7037579e-17)
(94.439511 -0.083665616 -6.9970693e-17)
(94.424516 -0.074743875 1.2517341e-16)
(95.450915 8.0128593 1.4287288e-17)
(102.26506 -10.209016 -6.0726963e-18)
(102.08352 -2.033573 2.3571906e-17)
(102.19849 -7.4956999 -1.0807556e-17)
(101.25837 -4.399627 1.0070818e-17)
(101.24436 -6.2509868 0)
(100.64504 -4.5523503 0)
(100.67822 -5.2722563 0)
(100.22805 -3.9670791 0)
(99.761618 -4.4196747 -1.3110212e-17)
(98.918429 -3.2520716 1.2314187e-17)
(98.548548 -3.9121793 -1.4026667e-20)
(98.358184 -3.2429751 5.2099927e-18)
(98.063112 -2.9537854 2.2554735e-21)
(97.527794 -2.4669872 -4.3495707e-18)
(97.14827 -2.3724234 1.2175437e-17)
(96.967144 -2.1664192 3.7032921e-18)
(96.728646 -1.8189807 0)
(96.422499 -1.609286 0)
(96.167635 -1.3943081 -2.548864e-17)
(95.952736 -1.2555108 -3.8802301e-17)
(95.747005 -1.0523116 3.7809984e-17)
(95.556306 -0.9124126 3.4556235e-17)
(95.396396 -0.75823747 -3.1554119e-17)
(95.257367 -0.66791207 -2.8718882e-17)
(95.130749 -0.55981776 2.8837073e-21)
(95.021861 -0.47871584 -4.6201354e-17)
(94.924714 -0.39319189 4.1845179e-17)
(94.826563 -0.319268 -3.9286498e-17)
(94.756093 -0.27101516 0)
(94.697828 -0.23199243 -1.0064083e-18)
(94.637112 -0.19023864 9.115639e-19)
(94.582155 -0.16978182 8.2467555e-19)
(94.539923 -0.1300983 -7.4263492e-19)
(94.503755 -0.10958508 0)
(94.467607 -0.10494487 7.7093001e-17)
(94.445092 -0.076648604 6.8595169e-17)
(94.426934 -0.069191425 4.8289735e-19)
(94.408692 -0.064500062 1.1090039e-16)
(93.174816 -23.095588 -2.2553882e-17)
(105.33568 -6.5267419 1.922839e-17)
(102.93328 -8.5683369 1.2177039e-17)
(103.1214 -8.345403 7.838907e-21)
(101.98347 -4.9349232 -2.1023813e-17)
(101.79626 -6.5860001 7.9237872e-21)
(100.9021 -4.589542 -9.1050675e-18)
(101.07611 -5.3769761 0)
(100.53658 -4.0529648 0)
(100.41938 -4.5277766 -1.3499777e-17)
(99.696141 -3.2276208 6.2337578e-18)
(98.902152 -3.3844018 -5.9284483e-18)
(98.498741 -3.0148032 -5.5141243e-18)
(98.358835 -2.8687998 4.9763447e-18)
(97.957466 -2.3690528 1.3508355e-17)
(97.499671 -1.8709138 -1.6551893e-17)
(97.09528 -1.876883 3.8599733e-18)
(96.876463 -1.7162485 0)
(96.617767 -1.4436343 0)
(96.314626 -1.2730675 0)
(96.070326 -1.1123076 0)
(95.851472 -0.96132075 -3.6442584e-17)
(95.64378 -0.84499093 -2.2165626e-18)
(95.463572 -0.70404045 3.2399808e-17)
(95.309444 -0.62054804 -2.9464815e-17)
(95.178051 -0.5119039 5.3460605e-17)
(95.05798 -0.43733305 4.7107997e-17)
(94.955156 -0.37667016 -4.2632032e-17)
(94.85485 -0.30747568 7.9561297e-17)
(94.776037 -0.2471927 0)
(94.710711 -0.22079617 -6.4220478e-17)
(94.648221 -0.17576967 1.1678249e-16)
(94.592821 -0.16275352 5.3009605e-17)
(94.550771 -0.12565965 -4.7586371e-17)
(94.509755 -0.098931217 -6.692767e-19)
(94.472553 -0.098792871 -7.5780048e-17)
(94.45082 -0.069550542 -6.9668712e-17)
(94.428903 -0.065152118 -6.0338944e-17)
(94.410131 -0.057486016 -4.2851323e-19)
(94.396823 -0.054792543 3.7308491e-19)
(96.905762 10.02302 -7.4246286e-18)
(105.48838 -10.757918 0)
(104.13383 0.69078136 0)
(103.73361 -6.7199675 -2.3874591e-17)
(102.89182 -2.7210499 1.0794643e-17)
(102.741 -5.2184476 9.3256926e-21)
(101.70531 -2.7098132 0)
(101.49054 -4.1536046 4.2751614e-18)
(100.57809 -3.1421802 -4.0610127e-18)
(100.61269 -4.1732776 2.528992e-17)
(100.13369 -2.9737166 -9.8165986e-18)
(99.609364 -3.0733133 -1.4878914e-17)
(98.974588 -2.1946911 5.4856843e-18)
(98.546166 -2.4471201 -2.5622705e-18)
(98.163512 -2.3100375 -1.6435195e-17)
(97.830126 -1.9308078 -2.1096049e-18)
(97.363179 -1.5157429 0)
(97.001838 -1.4820856 0)
(96.753606 -1.3198579 1.6284032e-18)
(96.450947 -1.1156008 -2.5171095e-17)
(96.177076 -1.0156144 0)
(95.938961 -0.86619214 3.9509383e-17)
(95.721011 -0.78133278 0)
(95.529458 -0.64754315 0)
(95.356272 -0.56659704 -1.863537e-18)
(95.22102 -0.48171346 1.6853242e-18)
(95.094688 -0.39054738 -4.8847259e-17)
(94.981148 -0.34050321 4.4284777e-17)
(94.879038 -0.29887126 -1.0888074e-21)
(94.795131 -0.23495984 0)
(94.723114 -0.21231519 6.6194948e-17)
(94.658572 -0.16860185 -5.970098e-17)
(94.60342 -0.14957625 0)
(94.560882 -0.12220139 9.4502475e-17)
(94.516119 -0.092977637 -8.4710294e-17)
(94.477888 -0.089058291 7.6112961e-17)
(94.4558 -0.062763997 0)
(94.430496 -0.063435486 -6.0434216e-17)
(94.411396 -0.049876859 5.3655255e-17)
(94.397025 -0.053753027 1.8725894e-19)
(94.381337 -0.04387646 0)
(99.358843 -4.9911728 7.3406871e-18)
(103.919 -6.9656376 -6.920946e-18)
(104.31077 -5.3141243 6.6698589e-18)
(104.00841 -6.9814759 6.2399255e-18)
(103.41532 -3.3580739 0)
(103.37194 -5.6248389 1.0228574e-17)
(102.57877 -2.767315 -4.5324916e-18)
(102.26657 -4.3116466 8.5405057e-18)
(101.01524 -2.1508104 -4.0284915e-18)
(100.71368 -3.3272252 -1.5130005e-17)
(100.20708 -2.674825 6.8201411e-21)
(99.982489 -3.1063598 -3.0493109e-21)
(99.458405 -2.1956224 -1.9552782e-17)
(98.927125 -1.982281 1.788168e-17)
(98.365061 -1.7210461 2.3904969e-18)
(97.9853 -1.8651619 1.3136522e-21)
(97.602595 -1.5327541 9.9769875e-22)
(97.206957 -1.1975729 -1.8056856e-18)
(96.858694 -1.1620557 2.6631533e-17)
(96.55485 -1.0084526 2.4222737e-17)
(96.279319 -0.87425267 1.3741116e-18)
(96.012193 -0.77355608 -4.2643066e-17)
(95.786393 -0.70007491 -3.5344741e-17)
(95.592925 -0.59235089 0)
(95.404692 -0.49689268 3.0023003e-17)
(95.258632 -0.42988822 0)
(95.129108 -0.36175513 0)
(95.006371 -0.29626128 -4.5082311e-17)
(94.898844 -0.27070681 -3.9499266e-17)
(94.810627 -0.22818979 0)
(94.736195 -0.19994956 -6.4428821e-17)
(94.669968 -0.1618227 4.1964141e-23)
(94.614222 -0.13530973 -5.2885776e-17)
(94.569782 -0.11443954 -9.3912133e-17)
(94.522234 -0.091587014 1.6753582e-16)
(94.484114 -0.080911313 -7.4688576e-17)
(94.459824 -0.054147786 -6.7132016e-17)
(94.431778 -0.061627857 5.970924e-17)
(94.412545 -0.043715267 2.1653519e-22)
(94.397006 -0.050955916 0)
(94.381492 -0.045179601 0)
(94.369897 -0.035336759 7.3690418e-17)
(98.692272 -2.5740359 -7.8639403e-18)
(106.05669 -6.9790853 1.2247492e-20)
(105.0266 -0.41523019 1.349711e-17)
(105.04282 -5.2576306 -6.2250852e-18)
(103.88456 -2.0602598 1.1639794e-17)
(103.66174 -4.9991808 0)
(102.87564 -2.4270572 4.6113579e-18)
(102.80797 -4.159858 -1.3353484e-17)
(101.85009 -2.0161234 1.6277238e-17)
(101.46077 -2.6113654 0)
(100.47487 -1.5594362 1.4032153e-17)
(100.19957 -2.2799773 -1.2834373e-17)
(99.611413 -1.9997455 2.3740741e-17)
(99.191656 -2.0080213 -4.2704635e-17)
(98.693796 -1.3178304 -1.9184236e-17)
(98.139012 -1.2946843 0)
(97.72681 -1.3924439 2.0423947e-18)
(97.396505 -1.0853457 2.5607646e-17)
(96.972317 -0.9605727 -2.5478633e-17)
(96.63901 -0.8788661 1.5540497e-18)
(96.368694 -0.74970116 -1.3976439e-18)
(96.079804 -0.6604424 4.0827374e-17)
(95.84478 -0.59364293 2.7761267e-21)
(95.645573 -0.53470267 0)
(95.453066 -0.44200588 -2.9380826e-17)
(95.293993 -0.36701089 -8.5659962e-19)
(95.157622 -0.32379542 0)
(95.030336 -0.27262476 0)
(94.91753 -0.2297084 0)
(94.823104 -0.21086904 0)
(94.748461 -0.18644855 1.2945342e-16)
(94.68233 -0.15403347 4.5374414e-19)
(94.625764 -0.12611108 5.2125937e-17)
(94.57811 -0.10136107 9.3334173e-17)
(94.527475 -0.086521818 -8.2838634e-17)
(94.490797 -0.07756281 7.3364736e-17)
(94.463539 -0.047588728 6.6183659e-17)
(94.43305 -0.055758803 0)
(94.413536 -0.040202684 -5.1419038e-17)
(94.39662 -0.043259376 0)
(94.380898 -0.047847923 8.0911489e-17)
(94.370742 -0.034114068 1.393944e-19)
(94.364832 -0.036078037 -6.2436214e-17)
(100.04216 -2.3196323 3.0053943e-21)
(107.55887 -5.7071112 -3.8575258e-18)
(105.36972 -2.8717834 0)
(106.0508 -4.9990604 -6.2592753e-18)
(104.4149 -1.295195 -1.1966956e-17)
(104.11833 -3.7609866 0)
(102.87592 -1.7589692 0)
(102.97935 -3.8400418 3.8480995e-21)
(102.26483 -1.8121106 -1.7162628e-17)
(102.00034 -2.9684926 1.504663e-17)
(101.03575 -1.1318014 3.5567134e-18)
(100.5107 -1.7061722 -3.2442753e-18)
(99.752556 -0.84254856 0)
(99.269884 -1.6765682 2.5465384e-17)
(98.865645 -1.3275418 1.7611767e-17)
(98.331723 -1.0291861 2.2736807e-18)
(97.833517 -0.99500294 -4.2136454e-18)
(97.497821 -0.93254553 -4.9071954e-21)
(97.084669 -0.83830076 3.4655042e-18)
(96.733316 -0.69987462 -2.6907972e-17)
(96.436323 -0.64007039 -1.4341922e-18)
(96.143701 -0.55995696 1.3011332e-18)
(95.90273 -0.46729086 2.3543762e-21)
(95.690321 -0.43503513 1.0613983e-18)
(95.49426 -0.38210997 -9.6153304e-19)
(95.325898 -0.31496843 0)
(95.180149 -0.27258647 0)
(95.050486 -0.25578111 -4.4935389e-17)
(94.936848 -0.20241362 0)
(94.83628 -0.17711567 5.677092e-19)
(94.759519 -0.16319065 -3.3066898e-17)
(94.693088 -0.13951078 5.8572218e-17)
(94.637722 -0.11748128 2.7733226e-23)
(94.587187 -0.091224971 -4.6510634e-17)
(94.532143 -0.07538767 4.1340365e-17)
(94.496777 -0.073311343 -7.3169674e-17)
(94.467537 -0.047662993 6.4683067e-17)
(94.434874 -0.046001629 -5.7991321e-17)
(94.414011 -0.037310889 2.0012454e-19)
(94.395465 -0.036720439 -4.4262538e-17)
(94.380561 -0.047215827 -8.0482072e-17)
(94.371376 -0.032483058 -6.8571029e-17)
(94.365063 -0.03710859 6.14041e-17)
(94.351447 -0.013195849 -1.5905943e-19)
(100.2867 -2.4442178 4.6138558e-18)
(108.78848 -5.3308474 3.9629867e-18)
(105.59237 -0.097298973 1.1342062e-17)
(106.37373 -4.3817199 6.3313527e-18)
(104.81885 -0.36090544 0)
(104.80668 -3.608568 -8.4520181e-18)
(103.40399 0.4212518 -2.6170919e-18)
(103.24038 -2.5216239 -2.4367551e-18)
(102.47797 -0.23370065 2.2453411e-18)
(102.13461 -2.2873217 -3.2084097e-17)
(101.25579 -0.84739012 0)
(100.69769 -1.7384888 0)
(100.06854 -0.70831221 0)
(99.452368 -0.71881018 0)
(98.927951 -0.87864143 2.0916344e-17)
(98.432913 -0.96153111 0)
(97.944388 -0.69918224 -1.7157916e-17)
(97.543865 -0.7569489 -6.3573859e-17)
(97.187322 -0.69502733 -4.3948073e-22)
(96.840311 -0.5251907 2.5288044e-17)
(96.489477 -0.50747294 7.2912402e-19)
(96.200403 -0.44768115 0)
(95.950972 -0.37735953 1.8103185e-21)
(95.730673 -0.33387044 3.3404336e-17)
(95.530023 -0.29255263 -2.9885444e-17)
(95.352197 -0.26083293 -4.3506491e-19)
(95.196506 -0.22341036 -3.9076815e-19)
(95.066893 -0.21746656 4.5363013e-17)
(94.955581 -0.18432796 0)
(94.851076 -0.14933546 -3.6035979e-17)
(94.77102 -0.12812648 -3.247879e-17)
(94.701819 -0.11871156 -1.1542557e-16)
(94.648302 -0.10187279 -5.1146906e-17)
(94.596498 -0.084347135 -3.5228836e-19)
(94.537259 -0.062714328 -8.1161062e-17)
(94.501812 -0.060194989 7.2388396e-17)
(94.471099 -0.049033624 -2.4663848e-19)
(94.437267 -0.039458968 5.6199095e-17)
(94.414231 -0.033134141 1.9745919e-19)
(94.394664 -0.034067246 8.5678298e-17)
(94.38035 -0.045586122 1.5327826e-19)
(94.371652 -0.030805506 6.7612104e-17)
(94.365009 -0.036786678 0)
(94.351603 -0.011971661 -5.2668026e-17)
(94.354452 -0.03924423 -9.1855199e-17)
(100.97162 1.8037997 4.775085e-18)
(109.26634 -4.8969564 -8.4775427e-18)
(105.89316 0.34141665 2.3443069e-21)
(106.33039 -4.420135 3.3660876e-18)
(104.99471 -0.23450441 -3.325434e-18)
(105.03101 -3.8953895 2.5717234e-21)
(104.01586 -0.2753555 2.7061217e-18)
(103.84589 -2.4797751 9.5114887e-18)
(102.71732 0.22947016 0)
(102.14839 -1.8605416 1.734775e-17)
(101.40001 -0.067719719 -1.9240326e-18)
(100.77348 -1.31607 1.582233e-17)
(100.25609 -0.6637745 -1.2572912e-17)
(99.67078 -0.80487278 1.3778033e-18)
(99.031486 -0.22515601 -2.2437657e-17)
(98.499841 -0.59374923 -1.9172513e-17)
(98.045703 -0.391858 3.4512431e-17)
(97.575903 -0.48797031 3.2138162e-17)
(97.253203 -0.5027197 2.7072297e-17)
(96.917805 -0.37185321 -2.4439801e-17)
(96.542242 -0.34921223 7.3448305e-19)
(96.252081 -0.2899258 -6.5799512e-19)
(95.982566 -0.27080547 1.7669219e-21)
(95.756188 -0.26916662 -3.4317674e-17)
(95.56152 -0.21698682 6.1445816e-17)
(95.376554 -0.18554395 0)
(95.208091 -0.17568499 -2.4782772e-17)
(95.08131 -0.16909359 4.4602733e-17)
(94.97202 -0.14732966 -3.1218294e-19)
(94.863755 -0.13082277 3.6198705e-17)
(94.782526 -0.10336634 3.1583594e-17)
(94.711421 -0.086650235 5.7400269e-17)
(94.656236 -0.078443771 5.0376305e-17)
(94.602484 -0.073320614 4.4099772e-17)
(94.54359 -0.0582454 3.9821397e-17)
(94.506764 -0.039436877 3.5398284e-17)
(94.473057 -0.045170994 -1.2403795e-16)
(94.439608 -0.035751066 5.5134857e-17)
(94.415359 -0.033988864 0)
(94.394612 -0.028480879 -4.28058e-17)
(94.378843 -0.037849302 0)
(94.371346 -0.024861041 6.5213325e-20)
(94.364744 -0.036083962 -5.694134e-20)
(94.35187 -0.010671779 1.0057575e-16)
(94.3538 -0.036774335 -4.4610659e-17)
(94.338066 -0.0056683021 -7.7764671e-17)
(101.48141 4.152709 -7.4611048e-18)
(109.58396 -3.3666721 -8.5368119e-18)
(106.29109 1.5230204 2.0128305e-18)
(107.27391 -2.7968307 -8.7250017e-18)
(105.52954 1.6703238 -1.6731324e-18)
(105.31469 -2.2510417 1.5468622e-18)
(104.22946 0.84043409 1.2874114e-17)
(104.10201 -2.0806401 -1.1231748e-17)
(103.01921 0.86648164 1.1171592e-18)
(102.19265 -1.2782884 -1.9922931e-17)
(101.55476 0.33217116 9.9803585e-19)
(100.91649 -0.56982743 -1.3998954e-17)
(100.35128 0.21669253 1.7841676e-21)
(99.714626 -0.59544046 1.162415e-17)
(99.128025 -0.20356243 -6.7535331e-19)
(98.575749 -0.30768631 1.9486299e-17)
(98.139936 -0.15545799 -3.3634673e-17)
(97.632708 -0.079698881 -4.9498691e-19)
(97.272391 -0.23104418 -2.8834675e-17)
(96.945814 -0.25313923 5.010266e-17)
(96.598066 -0.18106686 3.6161734e-19)
(96.293167 -0.17296386 2.0800528e-17)
(96.005063 -0.13745493 3.8176944e-17)
(95.768873 -0.1840764 2.7277921e-19)
(95.582491 -0.16838448 -2.39128e-19)
(95.395218 -0.13404747 2.737296e-17)
(95.219394 -0.12240681 4.7652071e-22)
(95.094926 -0.11147692 -4.465272e-17)
(94.984174 -0.10406944 0)
(94.873764 -0.090200336 0)
(94.790547 -0.084797998 -3.1614589e-17)
(94.721967 -0.060644189 1.0444882e-23)
(94.662284 -0.047984845 -9.7109275e-20)
(94.604125 -0.062398958 -4.4464331e-17)
(94.55036 -0.056408083 3.920757e-17)
(94.511914 -0.021403671 -6.9415946e-17)
(94.473829 -0.037584864 6.1424713e-17)
(94.441741 -0.030110575 -1.0733365e-16)
(94.417344 -0.034774225 -4.760243e-17)
(94.394623 -0.0074275053 4.2755137e-17)
(94.376662 -0.032362129 -3.5958551e-17)
(94.37054 -0.023686818 0)
(94.364516 -0.034146087 0)
(94.35214 -0.0079181802 -9.7821094e-17)
(94.353213 -0.034056638 -1.1121912e-22)
(94.335817 -0.0029156146 1.4992208e-16)
(94.320156 -0.065123859 1.3106303e-16)
(102.98767 -1.8938509 1.2674132e-18)
(110.14722 -4.0809629 0)
(106.61444 0.80905654 0)
(107.77613 -3.0476531 7.9438049e-18)
(106.12291 2.1544951 -8.6371962e-19)
(105.96287 -1.8766222 1.1319112e-17)
(104.54034 2.6044301 -1.0026857e-17)
(103.95893 -1.0082502 1.0396207e-17)
(103.08578 1.2854741 -1.1423183e-18)
(102.27586 -0.60153443 1.8771617e-17)
(101.69808 0.98410075 -5.1474996e-19)
(100.99433 -0.33444475 0)
(100.41967 0.62596958 1.2869194e-17)
(99.717306 -0.15931216 -9.1483059e-22)
(99.211036 0.28396568 -3.3767662e-19)
(98.61951 0.10700812 6.1145279e-19)
(98.174624 -0.062895821 -2.8297254e-19)
(97.693603 0.057050097 2.4524466e-19)
(97.280244 0.2355787 -1.4990874e-17)
(96.951768 -0.16724873 -2.7007797e-17)
(96.633411 -0.090082955 -1.8929916e-19)
(96.312279 -0.11731302 -2.1586177e-17)
(96.021211 -0.077751797 0)
(95.781005 -0.063606003 0)
(95.590672 -0.095425075 -3.1315887e-17)
(95.401356 -0.10452056 -4.0927251e-22)
(95.23238 -0.083627779 2.5291281e-17)
(95.106332 -0.047575805 0)
(94.991501 -0.070583742 0)
(94.884037 -0.036742724 3.5408966e-17)
(94.795508 -0.048535715 3.1672398e-17)
(94.728053 -0.044237707 5.0532104e-24)
(94.66671 -0.030797161 2.445192e-17)
(94.604567 -0.031006786 -4.4631672e-17)
(94.556008 -0.044165009 -1.561725e-22)
(94.516423 -0.010836275 6.8320284e-17)
(94.474511 -0.025992458 3.0312103e-17)
(94.443395 -0.022682962 1.0374548e-16)
(94.419556 -0.02894057 4.6388786e-17)
(94.394848 -0.014918375 -6.789766e-23)
(94.376024 -0.026660904 3.5056336e-17)
(94.369206 -0.013780837 0)
(94.363901 -0.027776415 0)
(94.351164 -0.0036583142 9.5855449e-17)
(94.352246 -0.032111009 4.1666307e-17)
(94.333488 0.0027573577 -7.2329552e-17)
(94.32149 -0.062551971 -6.2999339e-17)
(94.339499 0.021477125 5.4186273e-17)
(94.43191 -0.04587634 -1.4292979e-21)
(104.35687 10.755946 0)
(110.12926 -3.0037947 0)
(106.93597 6.7967073 1.3723786e-19)
(107.7051 -2.1526055 -7.8510537e-18)
(106.40321 3.5449583 7.1250572e-18)
(106.09993 -1.2684705 0)
(104.86577 2.739685 -1.13278e-17)
(103.81687 -0.53721245 8.4170679e-20)
(102.99027 1.7391717 -7.7791497e-20)
(102.37506 -0.29442033 0)
(101.9461 1.6354064 -6.3038962e-20)
(101.01801 -0.087947146 5.8944695e-20)
(100.44584 0.88498095 0)
(99.725004 0.34226666 1.1379122e-23)
(99.279478 0.5623937 0)