/*--------------------------------*- C++ -*----------------------------------*\
| =========                 |                                                 |
| \\      /  F ield         | OpenFOAM: The Open Source CFD Toolbox           |
|  \\    /   O peration     | Version:  2506                                  |
|   \\  /    A nd           | Website:  www.openfoam.com                      |
|    \\/     M anipulation  |                                                 |
\*---------------------------------------------------------------------------*/
FoamFile
{
    version     2.0;
    format      ascii;
    arch        "LSB;label=32;scalar=64";
    class       volScalarField;
    location    "0.0045";
    object      omega;
}
// * * * * * * * * * * * * * * * * * * * * * * * * * * * * * * * * * * * * * //

dimensions      [0 0 -1 0 0 0 0];

internalField   nonuniform List<scalar> 
13761
(
16651.692
16651.691
16651.692
16651.694
16651.693
16651.694
16651.694
16651.695
16646.42
16651.694
16646.42
16651.695
16646.42
16651.697
16646.42
16651.697
16646.42
16651.7
16646.419
16651.702
16646.418
16651.707
16646.417
16651.717
16646.142
16646.416
16651.737
16646.142
16646.416
16651.774
16646.142
16646.416
16651.835
16646.141
16646.416
16651.934
16646.14
16646.417
16652.076
16646.139
16646.418
16652.264
16646.137
16646.421
16652.488
16646.159
16646.134
16646.427
16652.739
16646.159
16646.134
16646.439
16653.013
16646.158
16646.134
16646.463
16653.335
16646.158
16646.134
16646.507
16653.764
16646.157
16646.134
16646.579
16654.37
16646.155
16646.134
16646.69
16655.203
16646.153
16646.135
16646.844
16646.15
16646.137
16647.039
16646.144
16646.146
16646.141
16647.265
16646.144
16646.146
16646.149
16647.511
16646.143
16646.146
16646.165
16647.779
16646.142
16646.146
16646.195
16648.099
16646.141
16646.146
16646.248
16648.53
16646.139
16646.146
16646.332
16649.139
16646.136
16646.147
16646.454
16649.964
16646.132
16646.148
16646.619
16646.149
16646.127
16646.15
16646.82
16646.148
16646.127
16646.156
16647.046
16646.147
16646.127
16646.166
16647.288
16646.145
16646.127
16646.187
16647.551
16646.142
16646.127
16646.224
16647.871
16646.139
16646.127
16646.286
16648.307
16646.134
16646.128
16646.381
16648.918
16646.155
16646.127
16646.129
16646.515
16649.738
16646.153
16646.127
16646.133
16646.688
16646.151
16646.127
16646.14
16646.893
16646.149
16646.127
16646.153
16647.117
16646.145
16646.127
16646.179
16647.352
16646.141
16646.127
16646.224
16647.609
16646.135
16646.127
16646.295
16647.925
16646.161
16646.126
16646.127
16646.401
16648.357
16646.159
16646.126
16646.128
16646.545
16648.956
16646.157
16646.126
16646.13
16646.725
16649.746
16646.154
16646.126
16646.135
16646.932
16646.15
16646.126
16646.144
16647.152
16646.144
16646.126
16646.161
16647.381
16646.137
16646.126
16646.193
16647.633
16646.168
16646.126
16646.126
16646.245
16647.947
16646.166
16646.126
16646.126
16646.326
16648.376
16646.163
16646.126
16646.127
16646.442
16648.965
16646.159
16646.126
16646.128
16646.596
16649.73
16646.154
16646.126
16646.131
16646.781
16646.147
16646.126
16646.137
16646.988
16646.139
16646.126
16646.149
16647.204
16646.176
16646.126
16646.126
16646.17
16647.428
16646.173
16646.126
16646.126
16646.208
16647.677
16646.17
16646.126
16646.127
16646.268
16647.992
16646.165
16646.126
16646.127
16646.359
16648.425
16646.159
16646.126
16646.129
16646.485
16649.015
16646.151
16646.126
16646.133
16646.646
16649.773
16646.141
16646.126
16646.141
16646.836
16646.181
16646.126
16646.126
16646.155
16647.041
16646.177
16646.126
16646.126
16646.182
16647.253
16646.171
16646.126
16646.126
16646.226
16647.471
16646.164
16646.126
16646.127
16646.295
16647.719
16646.155
16646.126
16646.128
16646.395
16648.037
16646.143
16646.126
16646.13
16646.53
16648.475
16646.193
16646.126
16646.126
16646.135
16646.698
16649.065
16646.189
16646.126
16646.126
16646.145
16646.89
16649.817
16646.184
16646.126
16646.126
16646.163
16647.093
16646.178
16646.126
16646.126
16646.195
16647.299
16646.17
16646.126
16646.126
16646.246
16647.512
16646.159
16646.126
16646.127
16646.324
16647.756
16646.145
16646.126
16646.129
16646.434
16648.075
16646.199
16646.127
16646.126
16646.132
16646.578
16648.51
16646.192
16646.126
16646.126
16646.139
16646.751
16649.09
16646.185
16646.126
16646.126
16646.151
16646.943
16649.818
16646.176
16646.126
16646.126
16646.173
16647.143
16646.164
16646.126
16646.126
16646.21
16647.343
16646.148
16646.126
16646.127
16646.269
16647.552
16646.208
16646.127
16646.126
16646.128
16646.356
16647.796
16646.201
16646.127
16646.126
16646.13
16646.476
16648.119
16646.193
16646.126
16646.126
16646.134
16646.627
16648.558
16646.182
16646.126
16646.126
16646.143
16646.804
16649.138
16646.169
16646.126
16646.126
16646.158
16646.996
16649.86
16646.151
16646.126
16646.126
16646.185
16647.19
16646.211
16646.127
16646.126
16646.127
16646.229
16647.384
16646.201
16646.127
16646.126
16646.128
16646.296
16647.589
16646.189
16646.126
16646.126
16646.131
16646.392
16647.833
16646.174
16646.126
16646.126
16646.137
16646.52
16648.156
16646.154
16646.126
16646.126
16646.147
16646.678
16648.595
16646.23
16646.127
16646.126
16646.126
16646.166
16646.858
16649.165
16646.22
16646.127
16646.126
16646.126
16646.199
16647.048
16649.865
16646.21
16646.127
16646.126
16646.127
16646.249
16647.237
16646.197
16646.126
16646.126
16646.128
16646.325
16647.426
16646.179
16646.126
16646.126
16646.129
16646.431
16647.628
16646.157
16646.126
16646.126
16646.133
16646.567
16647.874
16646.232
16646.127
16646.126
16646.126
16646.14
16646.73
16648.202
16646.219
16646.127
16646.126
16646.126
16646.154
16646.91
16648.644
16646.204
16646.127
16646.126
16646.126
16646.177
16647.097
16649.212
16646.185
16646.126
16646.126
16646.127
16646.215
16647.28
16649.904
16646.16
16646.126
16646.126
16646.128
16646.274
16647.463
16646.243
16646.127
16646.126
16646.126
16646.131
16646.359
16647.663
16646.229
16646.127
16646.126
16646.126
16646.136
16646.473
16647.909
16646.212
16646.127
16646.126
16646.126
16646.145
16646.617
16648.239
16646.191
16646.126
16646.126
16646.126
16646.162
16646.784
16648.68
16646.163
16646.126
16646.126
16646.127
16646.19
16646.965
16649.239
16646.241
16646.127
16646.126
16646.126
16646.127
16646.234
16647.147
16649.913
16646.222
16646.127
16646.126
16646.126
16646.129
16646.301
16647.325
16646.198
16646.127
16646.126
16646.126
16646.133
16646.395
16647.504
16646.168
16646.126
16646.126
16646.126
16646.139
16646.518
16647.702
16646.267
16646.128
16646.126
16646.126
16646.126
16646.151
16646.669
16647.952
16646.25
16646.127
16646.126
16646.126
16646.126
16646.171
16646.838
16648.287
16646.23
16646.127
16646.126
16646.126
16646.127
16646.205
16647.017
16648.73
16646.204
16646.127
16646.126
16646.126
16646.128
16646.257
16647.195
16649.286
16646.171
16646.126
16646.126
16646.126
16646.13
16646.333
16647.367
16649.951
16646.259
16646.127
16646.126
16646.126
16646.126
16646.135
16646.436
16647.542
16646.236
16646.127
16646.126
16646.126
16646.126
16646.143
16646.567
16647.74
16646.208
16646.126
16646.126
16646.126
16646.127
16646.158
16646.723
16647.994
16646.171
16646.126
16646.126
16646.126
16646.127
16646.184
16646.894
16648.334
16646.25
16646.124
16646.126
16646.126
16646.126
16646.129
16646.224
16647.07
16648.78
16646.226
16646.123
16646.126
16646.126
16646.126
16646.132
16646.284
16647.241
16649.334
16646.195
16646.123
16646.126
16646.126
16646.126
16646.138
16646.369
16647.407
16649.992
16646.155
16646.122
16646.126
16646.126
16646.126
16646.149
16646.481
16647.578
16646.165
16646.104
16646.122
16646.126
16646.126
16646.127
16646.168
16646.62
16647.777
16646.141
16646.104
16646.122
16646.126
16646.126
16646.127
16646.198
16646.78
16648.034
16646.11
16646.104
16646.122
16646.126
16646.126
16646.128
16646.245
16646.951
16648.376
16646.069
16646.104
16646.123
16646.126
16646.126
16646.13
16646.313
16647.123
16648.818
16645.821
16646.016
16646.105
16646.123
16646.126
16646.126
16646.135
16646.407
16647.29
16649.362
16645.803
16646.018
16646.105
16646.123
16646.126
16646.126
16646.143
16646.527
16647.45
16650
16645.777
16646.02
16646.106
16646.123
16646.126
16646.127
16646.156
16646.672
16647.619
16645.741
16646.022
16646.106
16646.123
16646.126
16646.127
16646.18
16646.834
16647.819
16644.791
16645.692
16646.025
16646.107
16646.123
16646.126
16646.129
16646.216
16647.004
16648.08
16644.793
16645.702
16646.028
16646.107
16646.123
16646.126
16646.132
16646.271
16647.17
16648.426
16644.787
16645.712
16646.031
16646.108
16646.123
16646.126
16646.138
16646.349
16647.329
16648.869
16644.77
16645.722
16646.033
16646.109
16646.123
16646.126
16646.148
16646.452
16647.485
16649.407
16642.493
16644.739
16645.733
16646.036
16646.109
16646.123
16646.127
16646.165
16646.581
16647.651
16650.037
16642.524
16644.771
16645.743
16646.039
16646.11
16646.124
16646.128
16646.194
16646.732
16647.854
16642.543
16644.803
16645.754
16646.041
16646.11
16646.124
16646.13
16646.237
16646.895
16648.119
16638.555
16642.549
16644.835
16645.764
16646.044
16646.111
16646.124
16646.134
16646.3
16647.062
16648.468
16638.637
16642.621
16644.867
16645.774
16646.046
16646.111
16646.124
16646.142
16646.387
16647.224
16648.909
16638.706
16642.693
16644.899
16645.784
16646.049
16646.112
16646.125
16646.155
16646.5
16647.377
16649.438
16633.139
16638.763
16642.764
16644.931
16645.794
16646.051
16646.112
16646.125
16646.177
16646.636
16647.528
16650.051
16633.264
16638.887
16642.836
16644.962
16645.804
16646.054
16646.113
16646.127
16646.211
16646.79
16647.694
16633.377
16639.011
16642.906
16644.992
16645.814
16646.056
16646.113
16646.13
16646.262
16646.953
16647.899
16627.344
16633.48
16639.134
16642.977
16645.023
16645.823
16646.058
16646.114
16646.136
16646.334
16647.116
16648.169
16627.468
16633.649
16639.258
16643.047
16645.052
16645.832
16646.061
16646.115
16646.146
16646.431
16647.271
16648.52
16627.581
16633.819
16639.38
16643.116
16645.082
16645.841
16646.063
16646.117
16646.163
16646.552
16647.418
16648.96
16623.092
16627.685
16633.988
16639.502
16643.184
16645.111
16645.85
16646.065
16646.119
16646.19
16646.694
16647.565
16649.484
16623.137
16627.856
16634.158
16639.624
16643.252
16645.14
16645.859
16646.067
16646.124
16646.231
16646.85
16647.731
16650.087
16622.393
16623.173
16628.027
16634.327
16639.744
16643.32
16645.168
16645.868
16646.07
16646.132
16646.291
16647.012
16647.94
16622.336
16623.274
16628.199
16634.495
16639.864
16643.387
16645.196
16645.876
16646.072
16646.145
16646.373
16647.169
16648.213
16622.273
16623.376
16628.371
16634.663
16639.983
16643.453
16645.223
16645.885
16646.075
16646.166
16646.48
16647.317
16648.565
16625.271
16622.204
16623.48
16628.544
16634.83
16640.101
16643.519
16645.25
16645.893
16646.079
16646.199
16646.609
16647.458
16649
16625.149
16622.199
16623.585
16628.716
16634.997
16640.219
16643.584
16645.277
16645.901
16646.084
16646.248
16646.756
16647.603
16649.512
16629.056
16625.019
16622.195
16623.692
16628.889
16635.163
16640.336
16643.648
16645.303
16645.909
16646.091
16646.316
16646.915
16647.77
16650.098
16628.971
16624.953
16622.194
16623.799
16629.061
16635.328
16640.452
16643.712
16645.329
16645.917
16646.103
16646.408
16647.074
16647.982
16628.879
16624.889
16622.194
16623.908
16629.234
16635.493
16640.567
16643.775
16645.354
16645.926
16646.121
16646.522
16647.226
16648.258
16629.696
16628.779
16624.826
16622.195
16624.018
16629.407
16635.658
16640.682
16643.838
16645.379
16645.936
16646.15
16646.657
16647.367
16648.612
16629.649
16628.744
16624.764
16622.198
16624.128
16629.58
16635.821
16640.796
16643.899
16645.404
16645.947
16646.191
16646.807
16647.502
16649.042
16628.066
16629.593
16628.709
16624.702
16622.202
16624.24
16629.753
16635.984
16640.909
16643.961
16645.429
16645.962
16646.25
16646.964
16647.644
16649.543
16628.01
16629.606
16628.675
16624.642
16622.208
16624.353
16629.927
16636.147
16641.021
16644.021
16645.453
16645.982
16646.33
16647.118
16647.811
16650.112
16627.32
16627.945
16629.619
16628.64
16624.582
16622.215
16624.466
16630.1
16636.309
16641.132
16644.081
16645.478
16646.01
16646.433
16647.263
16648.026
16627.242
16627.951
16629.634
16628.606
16624.523
16622.223
16624.581
16630.273
16636.47
16641.243
16644.14
16645.504
16646.049
16646.558
16647.398
16648.306
16627.524
16627.156
16627.956
16629.649
16628.571
16624.465
16622.233
16624.697
16630.447
16636.63
16641.353
16644.199
16645.533
16646.103
16646.7
16647.529
16648.659
16626.622
16627.443
16627.143
16627.963
16629.664
16628.536
16624.407
16622.244
16624.814
16630.621
16636.79
16641.462
16644.258
16645.565
16646.175
16646.854
16647.672
16649.086
16626.565
16627.439
16627.131
16627.969
16629.679
16628.501
16624.35
16622.256
16624.932
16630.794
16636.949
16641.57
16644.316
16645.603
16646.269
16647.01
16647.843
16649.581
16625.324
16626.497
16627.435
16627.12
16627.976
16629.695
16628.467
16624.293
16622.27
16625.051
16630.968
16637.108
16641.678
16644.375
16645.65
16646.385
16647.16
16648.064
16650.142
16624.515
16625.243
16626.508
16627.431
16627.11
16627.983
16629.71
16628.432
16624.237
16622.286
16625.171
16631.142
16637.266
16641.785
16644.435
16645.71
16646.522
16647.299
16648.349
16624.449
16625.246
16626.521
16627.428
16627.099
16627.99
16629.726
16628.397
16624.182
16622.302
16625.292
16631.316
16637.423
16641.892
16644.498
16645.786
16646.672
16647.428
16648.703
16623.134
16624.372
16625.249
16626.534
16627.424
16627.09
16627.998
16629.742
16628.362
16624.127
16622.321
16625.414
16631.49
16637.58
16641.998
16644.566
16645.882
16646.83
16647.556
16649.124
16621.75
16623.066
16624.381
16625.254
16626.547
16627.42
16627.08
16628.006
16629.758
16628.327
16624.073
16622.34
16625.537
16631.664
16637.736
16642.104
16644.64
16645.999
16646.986
16647.698
16649.604
16621.189
16621.679
16623.086
16624.39
16625.258
16626.561
16627.416
16627.071
16628.015
16629.774
16628.291
16624.019
16622.362
16625.661
16631.838
16637.891
16642.211
16644.725
16646.136
16647.133
16647.872
16650.143
16621.131
16621.702
16623.109
16624.399
16625.263
16626.575
16627.412
16627.062
16628.025
16629.791
16628.256
16623.966
16622.384
16625.787
16632.013
16638.047
16642.32
16644.824
16646.291
16647.269
16648.096
16621.708
16621.061
16621.725
16623.132
16624.409
16625.268
16626.589
16627.408
16627.053
16628.035
16629.807
16628.221
16623.914
16622.408
16625.913
16632.187
16638.202
16642.433
16644.941
16646.457
16647.396
16648.383
16624.179
16621.623
16621.087
16621.75
16623.155
16624.418
16625.273
16626.603
16627.404
16627.044
16628.045
16629.823
16628.186
16623.862
16622.433
16626.04
16632.361
16638.358
16642.552
16645.077
16646.625
16647.525
16648.736
16628.294
16624.051
16621.636
16621.115
16621.776
16623.179
16624.428
16625.278
16626.618
16627.401
16627.036
16628.057
16629.839
16628.15
16623.812
16622.46
16626.169
16632.536
16638.515
16642.679
16645.233
16646.787
16647.671
16649.153
16634.074
16632.278
16628.101
16624.022
16621.65
16621.142
16621.801
16623.203
16624.438
16625.284
16626.633
16627.397
16627.027
16628.069
16629.855
16628.115
16623.761
16622.488
16626.298
16632.711
16638.675
16642.819
16645.408
16646.939
16647.852
16649.627
16631.182
16633.751
16632.118
16628.01
16623.992
16621.664
16621.17
16621.828
16623.227
16624.447
16625.29
16626.648
16627.394
16627.019
16628.083
16629.871
16628.079
16623.712
16622.518
16626.429
16632.886
16638.84
16642.973
16645.596
16647.079
16648.084
16650.157
16624.268
16630.841
16633.53
16631.955
16627.917
16623.961
16621.677
16621.198
16621.854
16623.251
16624.457
16625.296
16626.664
16627.39
16627.011
16628.097
16629.887
16628.043
16623.663
16622.549
16626.56
16633.062
16639.012
16643.147
16645.791
16647.212
16648.377
16604.495
16615.384
16623.957
16630.603
16633.305
16631.789
16627.821
16623.929
16621.689
16621.226
16621.881
16623.276
16624.466
16625.302
16626.68
16627.387
16627.003
16628.112
16629.903
16628.007
16623.614
16622.581
16626.693
16633.241
16639.195
16643.34
16645.984
16647.35
16648.733
16589.288
16604.301
16615.232
16623.749
16630.359
16633.073
16631.617
16627.722
16623.895
16621.701
16621.254
16621.908
16623.301
16624.476
16625.309
16626.696
16627.384
16626.995
16628.128
16629.919
16627.971
16623.567
16622.615
16626.827
16633.422
16639.391
16643.553
16646.168
16647.509
16649.148
16551.883
16571.321
16589.238
16604.221
16615.073
16623.533
16630.106
16632.834
16631.441
16627.621
16623.86
16621.712
16621.282
16621.935
16623.326
16624.486
16625.316
16626.712
16627.382
16626.987
16628.145
16629.934
16627.934
16623.52
16622.65
16626.963
16633.608
16639.604
16643.781
16646.339
16647.705
16649.614
16456.203
16502.194
16530.757
16552.24
16571.599
16589.315
16604.144
16614.909
16623.307
16629.844
16632.589
16631.261
16627.517
16623.823
16621.722
16621.31
16621.962
16623.351
16624.496
16625.323
16626.728
16627.38
16626.98
16628.163
16629.95
16627.898
16623.474
16622.687
16627.102
16633.8
16639.835
16644.019
16646.499
16647.952
16650.133
16330.966
16357.58
16399.353
16457.443
16503.178
16531.493
16552.74
16571.896
16589.403
16604.069
16614.739
16623.073
16629.573
16632.336
16631.075
16627.411
16623.784
16621.733
16621.338
16621.99
16623.376
16624.507
16625.331
16626.745
16627.378
16626.972
16628.182
16629.965
16627.86
16623.429
16622.726
16627.244
16634.003
16640.086
16644.26
16646.655
16648.257
16215.554
16202.277
16273.043
16333.349
16360.024
16401.328
16458.832
16504.191
16532.253
16553.264
16572.215
16589.505
16604
16614.567
16622.831
16629.294
16632.077
16630.884
16627.301
16623.744
16621.742
16621.365
16622.017
16623.402
16624.517
16625.339
16626.762
16627.376
16626.965
16628.202
16629.98
16627.823
16623.384
16622.767
16627.392
16634.218
16640.354
16644.494
16646.819
16648.621
16546.717
16542.138
16470.775
16421.231
16394.372
16317.255
16219.225
16205.911
16275.863
16335.879
16362.499
16403.334
16460.254
16505.231
16533.04
16553.814
16572.556
16589.625
16603.939
16614.393
16622.581
16629.006
16631.81
16630.687
16627.189
16623.702
16621.751
16621.393
16622.045
16623.427
16624.528
16625.348
16626.779
16627.374
16626.958
16628.223
16629.995
16627.785
16623.341
16622.811
16627.546
16634.449
16640.635
16644.716
16647.006
16649.04
16364.238
16458.572
16551.552
16599.796
16596.516
16575.211
16534.711
16474.573
16481.954
16547.173
16542.944
16472.29
16423.074
16396.451
16320.177
16223.059
16209.582
16278.712
16338.444
16365.01
16405.376
16461.707
16506.298
16533.852
16554.388
16572.92
16589.764
16603.889
16614.22
16622.326
16628.71
16631.536
16630.485
16627.073
16623.659
16621.76
16621.42
16622.072
16623.453
16624.539
16625.356
16626.797
16627.373
16626.951
16628.244
16630.01
16627.747
16623.298
16622.859
16627.709
16634.699
16640.923
16644.924
16647.232
16649.505
3.276012e+08
54815959
17537988
7909722
4446457.5
2912697.3
2099118.9
1594391.2
1248735.9
999521.54
814209.33
673194.51
563800.05
477449.24
408204.02
351885.91
305501.32
266873.77
234401.11
206869.62
183342.15
163098.39
145573.95
130317.46
116968.71
105234.67
94875.793
85695.343
77530.147
70245.167
63728.702
57888.311
52648.219
47946.09
43730.73
39961.123
36604.393
33634.262
31029.856
28774.678
26855.978
25265.046
23998.701
23063.873
22490.538
22367.953
22954.476
25040.487
31213.374
46416.023
49217.148
33225.342
22724.161
18259.683
16790.723
16460.066
16425.395
16429.039
16454.056
16546.479
16578.178
16498.816
16489.633
16585.282
16591.168
16439.865
16258.316
16185.772
16225.758
16295.807
16366.495
16459.921
16552.154
16600.285
16597.076
16575.944
16535.931
16476.321
16483.31
16547.778
16543.768
16473.824
16424.943
16398.553
16323.126
16226.935
16213.293
16281.599
16341.042
16367.555
16407.452
16463.189
16507.391
16534.688
16554.986
16573.307
16589.924
16603.853
16614.051
16622.065
16628.406
16631.254
16630.277
16626.955
16623.615
16621.767
16621.447
16622.1
16623.479
16624.55
16625.365
16626.815
16627.372
16626.944
16628.266
16630.025
16627.709
16623.257
16622.911
16627.885
16634.968
16641.209
16645.121
16647.508
16650.02
3.2754593e+08
54807061
17536168
7910582.8
4448319.2
2914636.4
2100757.1
1595668
1249716.3
1000286.2
814820
673693.22
564214.78
477799.15
408502.6
352142.97
305724.23
267068.21
234571.61
207019.86
183475.15
163216.71
145679.75
130412.6
117054.78
105313.06
94947.674
85761.718
77591.849
70302.877
63782.956
57939.51
52696.636
47991.885
43773.96
40001.752
36642.306
33669.274
31061.715
28803.058
26880.446
25284.993
24013.167
23071.152
22487.181
22346.051
22893.349
24877.672
30738.036
45375.844
48734.333
33576.864
23092.95
18438.633
16845.785
16472.52
16428.613
16430.803
16455.061
16546.845
16579.083
16500.34
16490.489
16585.55
16592.422
16442.829
16262.372
16189.928
16229.381
16299.06
16368.899
16461.308
16552.788
16600.807
16597.681
16576.713
16537.179
16478.11
16484.705
16548.395
16544.6
16475.373
16426.838
16400.678
16326.104
16230.849
16217.042
16284.522
16343.675
16370.136
16409.562
16464.7
16508.509
16535.548
16555.607
16573.717
16590.105
16603.833
16613.887
16621.8
16628.093
16630.965
16630.062
16626.833
16623.569
16621.775
16621.473
16622.127
16623.505
16624.562
16625.374
16626.833
16627.372
16626.938
16628.288
16630.04
16627.67
16623.218
16622.969
16628.076
16635.256
16641.487
16645.317
16647.84
3.2747173e+08
54794988
17533430
7911184.1
4450189.5
2916680.4
2102512.6
1597046.9
1250781.6
1001122.2
815491.65
674244.72
564675.72
478189.79
408837.25
352432.13
305975.79
267288.36
234765.27
207191.04
183627.19
163352.39
145801.47
130522.39
117154.39
105403.98
95031.186
85838.898
77663.591
70369.907
63845.845
57998.685
52752.394
48044.407
43823.321
40047.938
36685.225
33708.769
31097.564
28834.969
26908.026
25307.671
24030.029
23080.543
22485.734
22326.027
22834.6
24719.876
30279.551
44348.064
48223.354
33901.826
23457.019
18623.744
16905.476
16486.551
16432.205
16432.701
16456.15
16547.215
16580.027
16502.008
16491.442
16585.822
16593.728
16445.937
16266.598
16194.21
16233.07
16302.369
16371.341
16462.718
16553.44
16601.346
16598.316
16577.504
16538.441
16479.925
16486.127
16549.018
16545.437
16476.935
16428.756
16402.825
16329.106
16234.801
16220.829
16287.484
16346.343
16372.751
16411.705
16466.238
16509.65
16536.43
16556.25
16574.148
16590.308
16603.83
16613.732
16621.534
16627.774
16630.668
16629.843
16626.707
16623.522
16621.781
16621.5
16622.155
16623.532
16624.574
16625.383
16626.851
16627.371
16626.931
16628.311
16630.055
16627.632
16623.181
16623.037
16628.285
16635.559
16641.752
16645.523
16648.227
3.2737985e+08
54779963
17529832
7911534.3
4452056
2918813
2104371.7
1598517.5
1251923.8
1002023.3
816219.36
674845.18
565179.8
478618.67
409205.95
352751.77
306254.83
267533.39
234981.61
207383.04
183798.44
163505.92
145939.82
130647.73
117268.57
105508.56
95127.507
85928.066
77746.525
70447.348
63918.377
58066.746
52816.296
48104.346
43879.395
40100.162
36733.544
33753.063
31137.658
28870.619
26938.887
25333.228
24049.422
23092.189
22486.367
22308.129
22778.657
24567.939
29839.662
43339.279
47691.729
34200.237
23812.447
18812.252
16968.974
16502.048
16436.174
16434.736
16457.323
16547.585
16581.003
16503.806
16492.484
16586.089
16595.069
16449.168
16270.977
16198.6
16236.812
16305.72
16373.821
16464.151
16554.106
16601.896
16598.973
16578.309
16539.711
16481.763
16487.571
16549.644
16546.274
16478.51
16430.697
16404.993
16332.132
16238.79
16224.655
16290.485
16349.045
16375.401
16413.879
16467.803
16510.814
16537.333
16556.913
16574.599
16590.533
16603.847
16613.588
16621.266
16627.448
16630.365
16629.617
16626.579
16623.473
16621.787
16621.527
16622.182
16623.558
16624.586
16625.393
16626.87
16627.371
16626.925
16628.334
16630.07
16627.593
16623.149
16623.116
16628.515
16635.872
16642.005
16645.756
16648.662
3.2727326e+08
54762474
17525511
7911673.6
4453926.5
2921031.9
2106328.9
1600073
1253135.6
1002981.7
816995.27
675486.91
565719.78
479079.22
409603.05
353097.2
306557.57
267800.5
235218.71
207594.7
183988.42
163677.33
146095.27
130789.41
117398.33
105627.95
95237.823
86030.395
77841.758
70536.21
64001.441
58144.455
52888.974
48172.216
43942.59
40158.742
36787.502
33802.339
31182.133
28910.111
26973.116
25361.739
24071.425
23106.18
22489.205
22292.553
22725.874
24422.571
29419.85
42356.036
47145.988
34472.192
24156.32
19001.557
17035.309
16518.822
16440.504
16436.909
16458.576
16547.954
16582.003
16505.724
16493.608
16586.349
16596.435
16452.511
16275.497
16203.088
16240.605
16309.111
16376.334
16465.6
16554.778
16602.45
16599.645
16579.122
16540.984
16483.615
16489.033
16550.267
16547.108
16480.096
16432.658
16407.179
16335.182
16242.815
16228.521
16293.527
16351.783
16378.085
16416.085
16469.394
16511.999
16538.256
16557.595
16575.07
16590.778
16603.884
16613.456
16621
16627.117
16630.053
16629.385
16626.446
16623.423
16621.792
16621.553
16622.21
16623.585
16624.599
16625.402
16626.889
16627.371
16626.918
16628.357
16630.086
16627.556
16623.121
16623.21
16628.764
16636.187
16642.25
16646.03
16649.141
3.2715429e+08
54742999
17520607
7911622
4455781.6
2923307.1
2108352.2
1601683.9
1254390.9
1003975.1
817800.68
676154.61
566283.5
479562.16
410021.67
353463.66
306881.07
268088.19
235476.23
207826.58
184198.33
163868.29
146269.75
130949.48
117545.7
105764.07
95363.908
86147.457
77950.647
70637.629
64095.967
58232.551
52971.002
48248.45
44013.227
40223.907
36847.264
33856.711
31231.073
28953.51
27010.762
25393.249
24096.084
23122.573
22494.329
22279.433
22676.507
24284.293
29021.161
41404.124
46592.02
34718.228
24486.625
19189.348
17103.46
16536.642
16445.166
16439.212
16459.907
16548.323
16583.022
16507.745
16494.805
16586.6
16597.816
16455.948
16280.142
16207.662
16244.447
16312.536
16378.876
16467.061
16555.45
16602.999
16600.321
16579.933
16542.255
16485.478
16490.505
16550.884
16547.94
16481.694
16434.637
16409.384
16338.256
16246.877
16232.431
16296.611
16354.555
16380.803
16418.323
16471.009
16513.204
16539.198
16558.296
16575.559
16591.043
16603.942
16613.339
16620.737
16626.781
16629.735
16629.147
16626.311
16623.372
16621.797
16621.58
16622.237
16623.612
16624.611
16625.411
16626.908
16627.372
16626.911
16628.381
16630.102
16627.52
16623.101
16623.321
16629.031
16636.497
16642.498
16646.353
16649.665
3.2702632e+08
54722063
17515263
7911410.2
4457600.3
2925600.4
2110401.8
1603313.8
1255659.1
1004979.1
818617.2
676835.34
566862.67
480063.01
410460.45
353852.14
307228.01
268400.26
235758.64
208083.45
184432.95
164083.34
146467.46
131131.68
117713.96
105919.72
95508.085
86281.151
78074.71
70752.798
64202.873
58331.729
53062.9
48333.434
44091.588
40295.869
36912.987
33916.299
31284.57
29000.885
27051.883
25427.808
24123.44
23141.409
22501.79
22268.854
22630.713
24153.413
28644.128
40488.099
46035.185
34939.388
24802.102
19373.687
17172.421
16555.237
16450.114
16441.636
16461.308
16548.687
16584.05
16509.852
16496.064
16586.839
16599.2
16459.461
16284.895
16212.31
16248.332
16315.99
16381.444
16468.53
16556.116
16603.539
16600.995
16580.738
16543.52
16487.346
16491.984
16551.495
16548.767
16483.302
16436.634
16411.607
16341.356
16250.979
16236.385
16299.738
16357.363
16383.556
16420.591
16472.648
16514.428
16540.158
16559.014
16576.063
16591.326
16604.019
16613.238
16620.479
16626.441
16629.411
16628.904
16626.172
16623.32
16621.801
16621.606
16622.265
16623.64
16624.624
16625.421
16626.927
16627.373
16626.905
16628.405
16630.119
16627.486
16623.09
16623.452
16629.311
16636.795
16642.76
16646.73
3.2689494e+08
54700477
17509692
7911067.4
4459344.7
2927861.1
2112440.2
1604943.4
1256937
1006002.7
819461.71
677550.51
567480.74
480605.44
410942.08
354283.62
307617.25
268753.31
236080.24
208377.42
184702.39
164330.82
146695.14
131341.43
117907.38
106098.23
95672.929
86433.441
78215.436
70882.836
64322.997
58442.617
53165.138
48427.522
44177.942
40374.829
36984.826
33981.22
31342.708
29052.298
27096.517
25465.43
24153.495
23162.678
22511.574
22260.807
22588.513
24029.98
28288.677
39610.92
45480.024
35137.268
25102.216
19553.079
17241.271
16574.319
16455.283
16444.157
16462.765
16549.04
16585.073
16512.024
16497.37
16587.059
16600.574
16463.033
16289.739
16217.022
16252.258
16319.472
16384.032
16470.003
16556.77
16604.061
16601.657
16581.531
16544.778
16489.217
16493.464
16552.098
16549.59
16484.923
16438.647
16413.847
16344.483
16255.121
16240.388
16302.91
16360.206
16386.341
16422.89
16474.309
16515.67
16541.135
16559.748
16576.583
16591.626
16604.117
16613.155
16620.226
16626.098
16629.08
16628.656
16626.029
16623.266
16621.805
16621.632
16622.292
16623.667
16624.638
16625.43
16626.947
16627.374
16626.898
16628.43
16630.136
16627.456
16623.092
16623.602
16629.598
16637.08
16643.052
16647.158
3.2677183e+08
54680274
17504552
7910897.5
4461205.7
2930237
2114588.2
1606672.1
1258304.6
1007108.6
820382.28
678336.05
568163.9
481207.97
411479.06
354765.96
308053.12
269149.03
236440.83
208706.94
185004.18
164607.67
146949.44
131575.23
118122.5
106296.25
95855.264
86601.369
78370.098
71025.257
64454.092
58563.195
53275.912
48529.108
44270.866
40459.534
37061.676
34050.504
31404.641
29107.008
27144.019
25505.561
24185.771
23185.976
22523.35
22255.043
22549.75
23913.935
27954.711
38775.424
44930.771
35312.858
25386.11
19725.984
17309.038
16593.552
16460.589
16446.75
16464.267
16549.381
16586.081
16514.238
16498.709
16587.263
16601.926
16466.637
16294.649
16221.782
16256.221
16322.979
16386.641
16471.479
16557.412
16604.564
16602.303
16582.308
16546.029
16491.087
16494.942
16552.695
16550.41
16486.555
16440.676
16416.104
16347.639
16259.304
16244.441
16306.128
16363.085
16389.161
16425.22
16475.993
16516.929
16542.129
16560.499
16577.117
16591.941
16604.233
16613.09
16619.983
16625.755
16628.743
16628.402
16625.883
16623.21
16621.808
16621.658
16622.32
16623.695
16624.651
16625.44
16626.967
16627.375
16626.891
16628.455
16630.156
16627.432
16623.11
16623.772
16629.883
16637.353
16643.385
16647.631
3.2665288e+08
54660784
17499657
7910837.3
4463172.5
2932733.8
2116849
1608494.6
1259749
1008279
821358.24
679170.11
568890.13
481849.07
412050.81
355279.8
308517.63
269570.87
236825.28
209058.27
185325.91
164902.75
147220.37
131824.17
118351.34
106506.67
96048.763
86779.298
78533.675
71175.587
64592.167
58689.908
53392.053