/*--------------------------------*- C++ -*----------------------------------*\
| =========                 |                                                 |
| \\      /  F ield         | OpenFOAM: The Open Source CFD Toolbox           |
|  \\    /   O peration     | Version:  2506                                  |
|   \\  /    A nd           | Website:  www.openfoam.com                      |
|    \\/     M anipulation  |                                                 |
\*---------------------------------------------------------------------------*/
FoamFile
{
    version     2.0;
    format      ascii;
    arch        "LSB;label=32;scalar=64";
    class       volScalarField;
    location    "0.0025";
    object      k;
}
// * * * * * * * * * * * * * * * * * * * * * * * * * * * * * * * * * * * * * //

dimensions      [0 2 -2 0 0 0 0];

internalField   nonuniform List<scalar> 
13763
(
0.068609188
0.068573033
0.068546944
0.06852701
0.068507212
0.068484214
0.068455469
0.068419144
0.068376614
0.068336501
0.068306329
0.068286265
0.068272914
0.068264879
0.068262756
0.068262922
0.068265648
0.068270833
0.068278763
0.068289122
0.068302454
0.068319528
0.068342318
0.068378391
0.068431216
0.068497352
0.068555898
0.068586066
0.068596588
0.068599682
0.06860059
0.068600909
0.068601073
0.068601231
0.068600988
0.068601202
0.068601386
0.06860154
0.068601702
0.068601874
0.068602057
0.068602252
0.068602461
0.068602683
0.068602918
0.06860316
0.068603378
0.068603591
0.068611393
0.068575012
0.068548729
0.068528633
0.068508668
0.068485513
0.068456645
0.068420269
0.068377811
0.068338423
0.068307124
0.068287241
0.068273847
0.068265752
0.068263606
0.068263692
0.068266359
0.068271497
0.068279375
0.068289682
0.068302969
0.068320005
0.068342774
0.068378816
0.068431616
0.068497735
0.068556251
0.068586384
0.068596876
0.068599646
0.068600545
0.068600855
0.068601008
0.068601156
0.068600908
0.068601105
0.068601276
0.068601415
0.06860156
0.068601713
0.068601876
0.068602049
0.068602234
0.068602431
0.068602641
0.068602864
0.068603089
0.068603221
0.068603523
0.068603413
0.068611976
0.068575208
0.068548939
0.068528829
0.068508837
0.068485663
0.068456751
0.068420294
0.068377767
0.068338346
0.068307051
0.068287143
0.06827375
0.068265657
0.068263509
0.068263593
0.068266254
0.068271395
0.068279272
0.068289564
0.068302851
0.068319898
0.068342683
0.068378727
0.068431527
0.068497661
0.068556168
0.06858629
0.068596776
0.068599527
0.068600413
0.068600712
0.068600855
0.068600993
0.068600741
0.06860092
0.06860108
0.068601206
0.068601336
0.068601473
0.068601619
0.068601773
0.068601937
0.068602111
0.068602298
0.068602498
0.068602709
0.068602806
0.068603135
0.068603017
0.068603516
0.068612428
0.068575363
0.068549111
0.06852899
0.068508984
0.068485798
0.06845685
0.068420341
0.068377751
0.068338295
0.068306974
0.068287038
0.068273645
0.068265552
0.068263398
0.068263475
0.068266129
0.068271275
0.068279149
0.068289415
0.0683027
0.068319762
0.068342568
0.068378611
0.068431411
0.068497572
0.068556065
0.068586167
0.068596643
0.068599381
0.068600254
0.068600542
0.068600674
0.068600801
0.068600547
0.068600709
0.068600856
0.06860097
0.068601085
0.068601208
0.068601338
0.068601475
0.068601619
0.068601773
0.068601936
0.068602112
0.068602299
0.068602371
0.068602685
0.068602554
0.068603091
0.06860352
0.068603424
0.068612864
0.068575517
0.068549291
0.068529159
0.068509143
0.068485947
0.068456962
0.068420403
0.068377752
0.068338252
0.068306915
0.068286946
0.068273549
0.068265455
0.068263293
0.068263363
0.068266008
0.068271158
0.068279029
0.068289256
0.068302539
0.068319617
0.068342444
0.068378484
0.068431284
0.068497486
0.068555963
0.068586037
0.068596502
0.068599228
0.068600089
0.068600366
0.068600486
0.068600601
0.068600347
0.06860049
0.068600624
0.068600723
0.068600824
0.068600931
0.068601045
0.068601165
0.068601292
0.068601425
0.068601567
0.068601718
0.06860188
0.068601929
0.068602212
0.068602068
0.068602579
0.068603072
0.068602963
0.068603467
0.068603305
0.068613336
0.068575699
0.068549497
0.068529353
0.068509323
0.068486115
0.06845709
0.06842048
0.06837777
0.068338221
0.068306869
0.068286862
0.06827346
0.068265364
0.068263194
0.068263254
0.068265891
0.068271042
0.068278907
0.068289086
0.068302368
0.068319465
0.068342312
0.068378349
0.068431148
0.068497401
0.068555863
0.068585903
0.068596358
0.068599075
0.068599924
0.068600191
0.068600298
0.0686004
0.068600149
0.068600273
0.068600393
0.068600476
0.06860056
0.06860065
0.068600747
0.068600849
0.068600957
0.068601071
0.068601191
0.06860132
0.068601457
0.068601483
0.068601732
0.068601574
0.068602041
0.068602523
0.068602395
0.068602971
0.068602806
0.068603319
0.068603142
0.068613861
0.068575911
0.068549729
0.068529576
0.068509525
0.068486301
0.068457234
0.068420569
0.068377801
0.068338202
0.068306826
0.06828678
0.068273371
0.068265274
0.068263095
0.068263146
0.068265772
0.068270921
0.068278779
0.068288906
0.068302185
0.068319305
0.06834217
0.068378203
0.068431003
0.068497307
0.068555759
0.068585763
0.068596207
0.068598917
0.068599758
0.068600014
0.068600112
0.068600202
0.068599952
0.068600058
0.068600165
0.068600234
0.068600301
0.068600373
0.068600451
0.068600533
0.068600621
0.068600714
0.068600813
0.068600918
0.06860103
0.068601035
0.06860125
0.06860108
0.068601497
0.068601945
0.068601797
0.068602347
0.068602174
0.06860277
0.068602579
0.068603154
0.068603015
0.068602991
0.068614445
0.068576158
0.068549987
0.068529824
0.068509747
0.0684865
0.068457389
0.068420665
0.068377836
0.06833819
0.068306782
0.068286698
0.068273281
0.068265183
0.068262993
0.068263033
0.068265647
0.068270792
0.068278643
0.068288715
0.068301993
0.068319138
0.068342017
0.068378047
0.068430847
0.068497194
0.06855564
0.068585612
0.068596045
0.068598752
0.068599584
0.068599833
0.068599922
0.068600003
0.06859975
0.068599839
0.068599936
0.068599992
0.068600045
0.068600101
0.068600161
0.068600225
0.068600292
0.068600364
0.06860044
0.068600521
0.068600607
0.068600592
0.068600771
0.068600591
0.068600957
0.068601367
0.068601199
0.068601693
0.068601508
0.068602067
0.068601857
0.068602545
0.068602395
0.068602352
0.068602962
0.068602639
0.068615082
0.068576433
0.068550266
0.068530095
0.068509987
0.06848671
0.068457553
0.068420769
0.068377875
0.068338183
0.068306737
0.068286614
0.06827319
0.06826509
0.068262886
0.068262915
0.068265515
0.068270654
0.068278498
0.06828852
0.068301798
0.068318964
0.068341854
0.068377881
0.068430683
0.06849705
0.068555498
0.068585448
0.068595871
0.068598576
0.0685994
0.06859964
0.068599723
0.068599796
0.068599536
0.068599608
0.068599695
0.068599742
0.068599783
0.068599826
0.068599871
0.068599918
0.068599967
0.06860002
0.068600075
0.068600134
0.068600197
0.068600159
0.068600302
0.068600115
0.06860043
0.068600799
0.068600615
0.068601045
0.068600845
0.068601336
0.06860111
0.068601761
0.068601596
0.068601521
0.068602269
0.068601942
0.068615768
0.068576737
0.068550567
0.068530384
0.068510243
0.068486933
0.068457727
0.068420883
0.06837792
0.068338179
0.068306694
0.068286529
0.068273098
0.068264994
0.068262772
0.068262789
0.068265374
0.068270506
0.068278341
0.068288326
0.068301606
0.068318783
0.068341681
0.068377705
0.068430512
0.068496871
0.06855533
0.068585271
0.068595684
0.068598386
0.068599202
0.068599434
0.068599508
0.068599574
0.068599305
0.06859936
0.068599437
0.068599475
0.068599505
0.068599535
0.068599568
0.068599601
0.068599635
0.068599671
0.068599708
0.068599747
0.068599791
0.06859973
0.068599843
0.068599645
0.068599916
0.068600245
0.068600047
0.068600416
0.0686002
0.068600624
0.068600389
0.068600959
0.068600781
0.068600669
0.068601362
0.068601033
0.068616496
0.068577063
0.068550886
0.06853069
0.068510514
0.068487172
0.068457914
0.068421007
0.068377971
0.068338177
0.068306658
0.068286445
0.068273005
0.068264893
0.06826265
0.068262654
0.068265223
0.068270347
0.068278172
0.068288136
0.068301419
0.068318593
0.068341498
0.06837752
0.068430332
0.068496665
0.068555142
0.068585083
0.068595488
0.068598185
0.06859899
0.068599214
0.068599278
0.068599334
0.068599058
0.068599095
0.068599161
0.068599188
0.068599206
0.068599224
0.068599244
0.068599264
0.068599284
0.068599304
0.068599325
0.068599347
0.068599372
0.068599292
0.068599379
0.068599167
0.0685994
0.068599695
0.068599481
0.0685998
0.068599567
0.068599938
0.068599698
0.068600187
0.068599991
0.068599838
0.068600434
0.068600109
0.068617266
0.068577413
0.068551223
0.068531013
0.068510801
0.068487427
0.068458116
0.068421143
0.068378031
0.068338172
0.068306622
0.06828636
0.068272908
0.068264785
0.068262519
0.06826251
0.06826506
0.068270178
0.068277991
0.06828795
0.068301232
0.068318394
0.068341306
0.068377326
0.068430145
0.068496446
0.068554943
0.068584886
0.068595281
0.068597973
0.068598767
0.06859898
0.068599034
0.068599079
0.068598797
0.068598815
0.068598868
0.068598884
0.068598889
0.068598894
0.068598899
0.068598904
0.068598909
0.068598913
0.068598917
0.068598921
0.068598928
0.068598831
0.068598896
0.068598666
0.068598865
0.068599133
0.0685989
0.068599179
0.068598927
0.068599256
0.068599009
0.06859943
0.06859921
0.068599011
0.068599529
0.068599207
0.068618078
0.068577784
0.068551577
0.068531354
0.068511106
0.0684877
0.068458333
0.068421291
0.068378101
0.068338172
0.068306592
0.068286272
0.068272807
0.068264671
0.068262376
0.068262355
0.068264887
0.06827
0.068277798
0.068287761
0.068301037
0.068318185
0.068341106
0.068377123
0.068429952
0.068496225
0.068554737
0.06858468
0.068595064
0.068597751
0.068598532
0.068598735
0.068598778
0.06859881
0.068598524
0.068598524
0.068598562
0.068598565
0.068598555
0.068598546
0.068598535
0.068598524
0.068598512
0.068598499
0.068598484
0.06859847
0.068598457
0.068598343
0.068598385
0.068598137
0.068598302
0.068598546
0.068598292
0.068598533
0.068598264
0.068598554
0.068598294
0.068598657
0.06859841
0.068598162
0.068598626
0.068598302
0.068618938
0.06857818
0.06855195
0.068531716
0.06851143
0.068487993
0.068458568
0.06842145
0.068378179
0.06833817
0.068306566
0.06828618
0.0682727
0.068264548
0.068262223
0.06826219
0.068264704
0.068269811
0.068277594
0.068287562
0.068300828
0.068317964
0.068340897
0.06837691
0.068429754
0.068496008
0.068554525
0.068584464
0.068594837
0.068597518
0.068598287
0.068598477
0.068598509
0.068598529
0.068598238
0.068598222
0.068598241
0.068598233
0.068598208
0.068598183
0.068598157
0.068598128
0.068598098
0.068598066
0.068598032
0.068597997
0.068597964
0.068597831
0.068597849
0.068597583
0.068597713
0.068597929
0.068597655
0.068597856
0.068597571
0.068597817
0.068597538
0.068597848
0.068597574
0.068597276
0.068597697
0.068597369
0.068619846
0.068578599
0.068552343
0.0685321
0.068511776
0.068488308
0.068458822
0.068421621
0.068378266
0.06833817
0.068306542
0.068286083
0.068272584
0.068264417
0.068262061
0.068262015
0.068264511
0.068269614
0.068277378
0.068287345
0.068300601
0.068317732
0.068340678
0.068376686
0.068429554
0.068495798
0.06855431
0.068584241
0.068594599
0.068597274
0.068598029
0.068598208
0.068598227
0.068598235
0.068597938
0.068597907
0.068597909
0.068597887
0.068597847
0.068597806
0.068597762
0.068597716
0.068597667
0.068597616
0.068597563
0.068597506
0.068597451
0.068597298
0.06859729
0.068597007
0.068597098
0.068597285
0.068596991
0.068597149
0.068596846
0.068597044
0.068596741
0.068596999
0.0685967
0.068596354
0.068596728
0.068596399
0.068620809
0.068579048
0.06855276
0.068532509
0.068512147
0.068488646
0.068459093
0.068421803
0.068378359
0.068338173
0.068306523
0.068285979
0.068272458
0.068264278
0.068261889
0.068261832
0.06826431
0.068269407
0.068277147
0.0682871
0.068300353
0.068317487
0.068340447
0.068376447
0.068429358
0.068495598
0.068554092
0.068584009
0.06859435
0.068597018
0.068597759
0.068597928
0.068597933
0.06859793
0.068597626
0.068597578
0.068597564
0.068597526
0.06859747
0.068597413
0.068597352
0.068597288
0.06859722
0.068597148
0.068597074
0.068596995
0.068596917
0.068596742
0.068596709
0.068596406
0.068596459
0.068596613
0.068596299
0.068596412
0.068596088
0.068596237
0.068595908
0.068596112
0.06859579
0.068595402
0.068595716
0.06859539
0.068621828
0.068579526
0.068553202
0.068532947
0.068512544
0.068489009
0.068459384
0.068421996
0.068378461
0.068338173
0.068306499
0.068285868
0.068272324
0.068264131
0.068261707
0.06826164
0.068264099
0.06826919
0.068276896
0.068286823
0.068300084
0.06831723
0.068340203
0.068376193
0.068429164
0.0684954
0.06855387
0.06858377
0.06859409
0.06859675
0.068597476
0.068597636
0.068597626
0.068597612
0.0685973
0.068597234
0.068597203
0.06859715
0.068597078
0.068597003
0.068596924
0.06859684
0.068596752
0.06859666
0.068596563
0.068596461
0.06859636
0.068596163
0.068596103
0.068595779
0.068595793
0.068595912
0.068595577
0.068595645
0.068595298
0.068595396
0.068595041
0.068595191
0.068594846
0.068594423
0.068594668
0.06859435
0.068622908
0.068580041
0.068553675
0.068533415
0.068512971
0.068489399
0.068459694
0.068422199
0.068378573
0.068338171
0.068306465
0.068285751
0.068272181
0.068263977
0.068261517
0.068261438
0.068263876
0.068268964
0.068276621
0.068286512
0.068299797
0.068316959
0.068339946
0.068375924
0.068428959
0.068495191
0.068553641
0.068583524
0.06859382
0.068596471
0.068597181
0.068597331
0.068597306
0.068597279
0.068596961
0.068596874
0.068596827
0.068596756
0.068596667
0.068596574
0.068596475
0.068596371
0.068596262
0.068596148
0.068596028
0.068595902
0.068595776
0.068595557
0.068595471
0.068595126
0.0685951
0.06859518
0.068594824
0.068594847
0.068594477
0.068594524
0.068594145
0.068594241
0.068593878
0.068593433
0.068593607
0.068593299
0.068624053
0.068580593
0.068554181
0.068533918
0.068513431
0.068489818
0.068460023
0.068422414
0.068378695
0.068338156
0.068306412
0.068285627
0.068272031
0.068263816
0.068261317
0.068261225
0.068263642
0.068268727
0.068276319
0.068286176
0.068299496
0.068316676
0.068339675
0.068375641
0.068428727
0.068494953
0.068553398
0.068583268
0.068593537
0.06859618
0.068596874
0.06859701
0.068596972
0.068596932
0.068596605
0.068596496
0.068596431
0.068596342
0.068596235
0.068596122
0.068596004
0.068595879
0.068595749
0.068595612
0.068595469
0.068595318
0.068595166
0.068594926
0.068594812
0.068594445
0.06859438
0.068594421
0.068594045
0.068594023
0.068593634
0.06859363
0.068593237
0.068593285
0.068592919
0.068592482
0.068592591
0.068592303
0.068625269
0.068581192
0.068554724
0.068534459
0.068513926
0.068490267
0.068460372
0.06842264
0.068378831
0.068338086
0.068306323
0.068285495
0.068271874
0.06826365
0.068261107
0.068260998
0.068263394
0.06826848
0.068275995
0.06828583
0.06829919
0.068316382
0.06833939
0.068375348
0.068428457
0.068494675
0.068553138
0.068583002
0.068593239
0.068595875
0.068596554
0.068596671
0.068596621
0.068596567
0.068596231
0.068596098
0.068596014
0.068595907
0.068595782
0.068595649
0.068595511
0.068595365
0.068595213
0.068595053
0.068594886
0.068594711
0.068594531
0.068594269
0.068594127
0.068593739
0.068593636
0.068593642
0.068593252
0.06859319
0.068592789
0.068592747
0.06859237
0.068592381
0.068592047
0.068591674
0.068591733
0.068591498
0.068626559
0.068581839
0.068555308
0.068535039
0.06851446
0.068490746
0.06846074
0.068422877
0.068378988
0.068337894
0.068306188
0.068285356
0.068271709
0.068263478
0.068260884
0.068260758
0.068263131
0.068268218
0.068275661
0.068285488
0.068298881
0.068316077
0.068339092
0.068375046
0.068428152
0.068494364
0.068552861
0.068582722
0.068592924
0.068595554
0.068596221
0.068596314
0.068596253
0.068596183
0.068595837
0.06859568
0.068595578
0.068595453
0.068595308
0.068595156
0.068594997
0.06859483
0.068594655
0.068594472
0.06859428
0.068594079
0.068593873
0.068593589
0.06859342
0.068593017
0.068592884
0.06859286
0.068592476
0.068592387
0.068592006
0.068591951
0.068591639
0.068591632
0.068591381
0.068591137
0.068591167
0.068591015
0.06862793
0.068582544
0.068555938
0.068535663
0.068515032
0.068491256
0.068461128
0.068423126
0.06837918
0.068337579
0.068306026
0.068285209
0.068271537
0.068263301
0.068260649
0.068260503
0.068262854
0.068267938
0.068275325
0.068285151
0.068298567
0.06831576
0.068338778
0.068374738
0.068427834
0.068494042
0.06855257
0.068582429
0.068592591
0.068595213
0.068595867
0.06859594
0.068595865
0.068595778
0.068595424
0.068595244
0.068595124
0.06859498
0.068594816
0.068594643
0.068594462
0.068594273
0.068594075
0.068593868
0.068593651
0.068593426
0.068593196
0.068592894
0.068592704
0.068592305
0.06859216
0.068592122
0.068591783
0.068591696
0.068591388
0.068591354
0.068591156
0.068591151
0.068590996
0.068590835
0.068590849
0.068590748
0.068629386
0.06858331
0.068556614
0.06853633
0.068515646
0.068491798
0.068461536
0.068423387
0.068379405
0.068337339
0.068305891
0.068285056
0.068271354
0.068263119
0.068260403
0.068260235
0.068262561
0.068267634
0.068274977
0.068284807
0.068298242
0.068315428
0.068338446
0.068374426
0.068427525
0.068493721
0.068552265
0.06858212
0.06859224
0.068594854
0.068595489
0.068595547
0.068595459
0.068595356
0.068594995
0.068594791
0.068594651
0.068594487
0.068594303
0.068594109
0.068593906
0.068593694
0.068593472
0.068593242
0.068593004
0.06859276
0.068592518
0.068592214
0.068592022
0.068591666
0.068591541
0.068591514
0.068591273
0.068591221
0.068591028
0.068591019
0.068590888
0.068590876
0.068590751
0.068590604
0.068590606
0.068590538
0.068630933
0.068584146
0.068557338
0.068537042
0.068516303
0.068492373
0.068461967
0.068423664
0.068379647
0.068337298
0.068305794
0.068284895
0.068271158
0.068262931
0.068260147
0.068259955
0.068262255
0.068267301
0.068274599
0.06828444
0.068297898
0.068315078
0.06833809
0.068374108
0.068427226
0.068493402
0.068551948
0.068581794
0.068591875
0.068594478
0.068595091
0.06859514
0.068595037
0.068594917
0.068594548
0.068594318
0.068594157
0.068593973
0.068593768
0.068593552
0.068593327
0.068593094
0.068592854
0.068592609
0.068592362
0.068592118
0.068591889
0.068591615
0.06859145
0.068591188
0.068591121
0.068591127
0.068590984
0.068590958
0.06859082
0.068590805
0.068590679
0.068590655
0.06859053
0.06859038
0.068590371
0.068590335
0.068632576
0.068585049
0.068558106
0.0685378
0.068517005
0.068492983
0.068462421
0.068423957
0.068379887
0.068337311
0.068305705
0.068284724
0.068270948
0.068262731
0.068259882
0.068259662
0.068261937
0.068266937
0.068274181
0.068284045
0.068297534
0.068314707
0.068337709
0.068373774
0.068426913
0.068493073
0.068551616
0.068581452
0.068591501
0.068594089
0.068594676
0.068594717
0.068594596
0.068594459
0.06859408
0.068593824
0.068593641
0.068593437
0.068593212
0.068592977
0.068592736
0.06859249
0.068592245
0.068592004
0.068591776
0.068591564
0.068591386
0.068591184
0.068591076
0.068590916
0.068590889
0.068590904
0.06859079
0.068590764
0.068590638
0.068590606
0.068590471
0.068590435
0.068590305
0.068590138
0.068590104
0.068590064
0.06863432
0.068586021
0.068558919
0.068538605
0.068517755
0.068493629
0.068462903
0.068424271
0.068380118
0.068337367
0.068305613
0.068284543
0.068270722
0.068262517
0.068259608
0.068259358
0.068261608
0.068266547
0.068273735
0.068283634
0.068297151
0.068314314
0.068337304
0.068373408
0.06842656
0.068492724
0.068551268
0.068581096
0.068591114
0.068593683
0.068594246
0.068594275
0.068594136
0.06859398
0.068593591
0.068593309
0.068593105
0.068592884
0.068592644
0.068592399
0.068592156
0.068591919
0.068591696
0.068591494
0.068591322
0.068591182
0.068591081
0.068590944
0.068590868
0.06859074
0.068590714
0.068590722
0.068590609
0.068590573
0.068590444
0.068590396
0.06859025
0.068590201
0.06859005
0.06858982
0.068589711
0.068589559
0.06863617
0.068587055
0.06855977
0.068539464
0.068518556
0.068494313
0.068463413
0.068424608
0.068380344
0.068337455
0.06830552
0.068284353
0.068270481
0.068262289
0.068259322
0.06825904
0.068261265
0.068266139
0.06827329
0.068283219
0.068296749
0.068313897
0.06833688
0.068373006
0.068426163
0.068492355
0.068550904
0.068580723
0.06859071
0.068593255
0.068593799
0.068593812
0.068593653
0.068593479
0.068593082
0.068592779
0.068592559
0.068592331
0.068592091
0.068591857
0.068591639
0.068591444
0.068591281
0.068591153
0.068591054
0.06859097
0.068590902
0.068590782
0.068590706
0.068590578
0.068590542
0.068590539
0.068590419
0.068590371
0.068590231
0.068590167
0.068589997
0.06858991
0.068589682
0.068589292
0.068589049
0.068588718
0.068638128
0.068588148
0.068560667
0.068540382
0.06851941
0.068495036
0.068463956
0.068424969
0.068380564
0.068337542
0.06830543
0.068284157
0.068270226
0.068262046
0.068259023
0.068258706
0.068260904
0.068265728
0.06827286
0.068282801
0.068296327
0.068313456
0.068336447
0.068372587
0.068425744
0.068491969
0.068550521
0.068580334
0.068590286
0.068592804
0.068593332
0.068593329
0.068593151
0.06859296
0.068592562
0.06859225
0.068592029
0.068591813
0.068591601
0.068591411
0.068591255
0.068591134
0.068591042
0.068590963
0.068590891
0.068590817
0.06859075
0.068590628
0.068590545
0.06859041
0.068590359
0.068590345
0.068590214
0.06859015
0.068589987
0.068589883
0.068589636
0.068589446
0.068589059
0.068588549
0.068588383
0.068588202
0.068640199
0.068589289
0.068561614
0.06854137
0.068520322
0.0684958
0.068464533
0.068425357
0.068380779
0.068337618
0.06830534
0.068283952
0.06826996
0.068261789
0.068258708
0.068258357
0.06826052
0.068265315
0.068272438
0.068282371
0.068295885
0.068312992
0.068336009
0.068372168
0.068425325
0.068491571
0.068550119
0.068579925
0.068589839
0.068592333
0.068592848
0.068592829
0.068592636
0.068592435
0.068592051
0.068591755
0.068591562
0.068591391
0.068591241
0.068591125
0.068591036
0.06859096
0.068590889
0.068590819
0.068590746
0.068590668
0.068590595
0.068590467
0.068590374
0.068590229
0.068590161
0.068590133
0.068589983
0.068589882
0.06858965
0.068589443
0.068589033
0.068588721
0.068588359
0.068588224
0.068588296
0.068588241
0.068642383
0.068590489
0.068562639
0.068542441
0.06852129
0.068496607
0.068465148
0.068425773
0.068380987
0.068337688
0.068305246
0.068283735
0.068269685
0.068261516
0.068258378
0.06825799
0.06826011
0.068264893
0.068272005
0.068281919
0.06829542
0.068312502
0.068335556
0.068371742
0.068424904
0.068491159
0.068549694
0.068579496
0.068589372
0.068591848
0.068592353
0.068592324
0.068592127
0.068591932
0.06859159
0.068591349
0.06859122
0.068591121
0.068591036
0.068590962
0.068590892
0.068590823
0.068590752
0.068590677
0.068590597
0.068590511
0.068590429
0.068590294
0.068590189
0.068590031
0.068589939
0.068589882
0.068589678
0.068589481
0.068589094
0.068588743
0.06858833
0.068588227
0.068588218
0.068588307
0.068588528
0.06858873
0.068644692
0.068591762
0.068563768
0.068543603
0.068522318
0.068497457
0.068465801
0.068426219
0.068381195
0.068337761
0.068305146
0.068283505
0.068269401
0.068261228
0.068258032
0.068257605
0.068259678
0.068264453
0.068271548
0.06828144
0.06829493
0.068311984
0.068335069
0.068371277
0.068424461
0.068490732
0.068549247
0.068579048
0.068588894
0.06859136
0.068591863
0.068591839
0.068591661
0.068591499
0.068591239
0.068591088
0.068591025
0.068590966
0.068590899
0.068590831
0.068590761
0.068590687
0.068590609
0.068590526
0.068590437
0.068590342
0.06859025
0.068590105
0.068589982
0.068589798
0.068589655
0.068589524
0.068589188
0.06858883
0.068588374
0.068588191
0.068588159
0.068588241
0.068588402
0.06858886
0.068589281
0.06858968
0.068647132
0.06859316
0.068565044
0.06854486
0.068523403
0.068498351
0.068466496
0.068426693
0.068381418
0.068337845
0.068305043
0.068283265
0.068269108
0.068260923
0.068257669
0.068257201
0.068259225
0.068263988
0.068271062
0.068280931
0.068294412
0.068311438
0.068334534
0.068370751
0.068423984
0.068490288
0.068548784
0.06857859
0.068588419
0.068590891
0.068591415
0.068591421
0.068591295
0.068591197
0.068591032
0.068590936
0.068590893
0.06859084
0.068590773
0.068590701
0.068590624
0.068590542
0.068590455
0.068590363
0.068590265
0.068590158
0.068590051
0.068589886
0.068589728
0.068589477
0.068589213
0.068588939
0.068588479
0.068588202
0.068588115
0.068588175
0.068588315
0.068588637
0.068589152
0.068589618
0.068589619
0.068589918
0.068649732
0.06859474
0.068566488
0.06854621
0.068524549
0.068499294
0.068467235
0.068427197
0.068381676
0.068337952
0.068304942
0.068283016
0.068268804
0.068260601
0.068257286
0.068256776
0.068258752
0.068263493
0.068270542
0.068280392
0.068293866
0.068310868
0.068333947
0.068370168
0.068423481
0.068489834
0.068548314
0.068578137
0.068587975
0.068590486
0.068591063
0.06859113
0.068591072
0.068591026
0.068590901
0.068590815
0.068590771
0.068590714
0.068590641
0.068590561
0.068590476
0.068590385
0.068590289
0.068590186
0.068590075
0.068589949
0.068589812
0.068589598
0.068589354
0.068588956
0.068588539
0.068588256
0.068588094
0.068588123
0.068588217
0.068588494
0.068589039
0.068589541
0.068589734
0.068589624
0.068589335
0.068589486
0.068652513
0.068596583
0.068568112
0.068547651
0.06852576
0.06850029
0.068468022
0.068427725
0.068381985
0.068338094
0.068304847
0.068282761
0.068268492
0.068260258
0.068256879
0.068256327
0.068258252
0.068262958
0.068269982
0.068279822
0.068293291
0.068310274
0.068333322
0.068369558
0.068422972
0.068489381
0.068547862
0.06857773
0.068587613
0.068590204
0.068590851
0.068590961
0.068590935
0.068590902
0.068590785
0.068590696
0.068590644
0.06859058
0.068590499
0.06859041
0.068590316
0.068590215
0.068590108
0.068589988
0.068589852
0.068589684
0.068589476
0.068589145
0.068588752
0.068588273
0.068588051
0.068588073
0.068588136
0.068588342
0.068588829
0.068589429
0.068589804
0.068589788
0.068589594
0.068588928
0.068587936
0.06858757
0.068655532
0.068598736
0.068569894
0.068549183
0.068527045
0.068501351
0.068468861
0.068428275
0.068382344
0.068338269
0.068304753
0.068282497
0.068268171
0.068259891
0.068256443
0.068255848
0.068257713
0.068262367
0.068269376
0.068279225
0.068292688
0.068309659
0.068332685
0.068368955
0.068422487
0.068488965
0.068547475
0.068577424
0.068587381
0.068590045
0.06859072
0.068590838
0.068590818
0.068590784
0.068590668
0.068590569
0.068590506
0.068590434
0.068590344
0.068590247
0.068590142
0.068590027
0.068589898
0.068589746
0.068589553
0.068589289
0.068588937
0.068588472
0.068588126
0.068587995
0.068588046
0.068588206
0.068588585
0.068589198
0.068589791
0.068589903
0.068589761
0.0685894
0.068588525
0.068586843
0.068585363
0.068584688
0.068658836
0.068601207
0.06857182
0.068550815
0.068528419
0.068502489
0.068469753
0.068428842
0.068382728
0.068338449
0.068304649
0.068282222
0.068267843
0.068259497
0.06825598
0.068255339
0.068257124
0.068261714
0.068268734
0.068278605
0.068292061
0.068309036
0.068332068
0.0683684
0.068422067
0.068488644
0.068547211
0.06857725
0.068587241
0.068589934
0.068590608
0.068590724
0.068590701
0.068590661
0.068590541
0.068590431
0.068590357
0.068590276
0.068590177
0.068590067
0.068589945
0.068589803
0.06858963
0.068589402
0.068589086
0.068588668
0.068588257
0.068588025
0.068588009
0.068588069
0.068588357
0.068588903
0.068589625
0.068589965
0.068589905
0.068589666
0.06858892
0.068587757
0.068586091
0.068584284
0.068583437
0.068583165
0.068662509
0.068603949
0.068573867
0.068552557
0.068529893
0.068503716
0.068470701
0.068429432
0.068383092
0.06833857
0.068304518
0.068281932
0.068267508
0.068259079
0.068255492
0.0682548
0.068256486
0.068261015
0.068268068
0.068277966
0.068291422
0.068308434
0.068331514
0.068367943
0.068421768
0.068488453
0.068547057
0.068577139
0.068587131
0.068589829
0.068590495
0.068590607
0.068590576
0.068590528
0.068590403
0.068590281
0.068590195
0.068590103
0.06858999
0.068589858
0.0685897
0.0685895
0.068589228
0.068588855
0.068588413
0.06858808
0.068588004
0.068588032
0.068588171
0.068588595
0.068589344
0.068589924
0.06859003
0.068589891
0.068589364
0.068588344
0.068586656
0.068585068
0.068583777
0.068583097
0.06858296
0.068582936
0.068666573
0.068606923
0.068576053
0.068554418
0.068531474
0.068505042
0.068471707
0.068430052
0.068383408
0.068338594
0.068304344
0.068281629
0.068267164
0.068258641
0.068254987
0.068254235
0.068255813
0.068260296
0.068267397
0.068277325
0.068290806
0.068307899
0.068331069
0.068367616
0.068421576
0.068488331
0.06854694
0.068577042
0.068587027
0.068589718
0.068590376
0.06859048
0.068590439
0.068590382
0.068590252
0.068590118
0.068590016
0.068589906
0.068589765
0.068589587
0.068589353
0.068589029
0.068588607
0.068588194
0.068587998
0.068587999
0.068588087
0.068588367
0.068588936
0.068589714
0.068590073
0.068590033
0.068589739
0.068588961
0.068587442
0.06858572
0.068584114
0.068583313
0.068583002
0.068582934
0.068582929
0.068582927
0.068671061
0.068610121
0.068578382
0.068556381
0.068533163
0.068506474
0.068472772
0.068430722
0.068383692
0.068338574
0.06830412
0.068281316
0.068266806
0.068258185
0.068254465
0.068253644
0.06825512
0.068259578
0.068266747
0.068276724
0.068290275
0.068307469
0.068330728
0.068367365
0.068421419
0.068488225
0.068546827
0.068576944
0.068586919
0.068589596
0.068590246
0.068590342
0.068590291
0.068590224
0.068590088
0.068589936
0.068589807
0.06858966
0.06858946
0.068589183
0.068588806
0.068588364
0.068588041
0.06858797
0.068588011
0.06858818
0.06858864
0.068589406
0.068590026
0.068590124
0.068589958
0.068589472
0.068588289
0.06858659
0.068584716
0.06858357
0.068583058
0.068582948
0.06858293
0.068582928
0.068582929
0.068582927
0.068675921
0.068613581
0.068580837
0.068558414
0.068534962
0.068508014
0.068473897
0.068431458
0.068383988
0.068338562
0.068303891
0.068281001
0.068266432
0.068257709
0.06825392
0.068253026
0.06825442
0.068258891
0.068266167
0.068276221
0.068289848
0.0683071
0.068330422
0.068367135
0.068421266
0.06848812
0.06854671
0.06857684
0.068586802
0.06858946
0.068590103
0.068590192
0.06859013
0.068590051
0.0685899
0.068589716
0.068589534
0.068589309
0.068588989
0.068588567
0.068588158
0.068587966
0.068587969
0.068588055
0.068588353
0.068588992
0.068589831
0.068590231
0.068590155
0.068589824
0.068588924
0.068587502
0.068585586
0.068584043
0.068583201
0.068582973
0.068582932
0.068582928
0.068582928
0.068582928
0.06858293
0.068582927
0.068681197
0.068617305
0.068583327
0.068560481
0.068536881
0.068509664
0.068475081
0.06843226
0.068384349
0.068338585
0.068303684
0.068280695
0.068266041
0.068257216
0.068253355
0.068252397
0.068253751
0.068258291
0.068265693
0.068275802
0.068289465
0.068306729
0.068330111
0.068366912
0.068421111
0.06848801
0.068546583
0.068576729