/*--------------------------------*- C++ -*----------------------------------*\
| =========                 |                                                 |
| \\      /  F ield         | OpenFOAM: The Open Source CFD Toolbox           |
|  \\    /   O peration     | Version:  2506                                  |
|   \\  /    A nd           | Website:  www.openfoam.com                      |
|    \\/     M anipulation  |                                                 |
\*---------------------------------------------------------------------------*/
FoamFile
{
    version     2.0;
    format      ascii;
    arch        "LSB;label=32;scalar=64";
    class       volScalarField;
    location    "1.8";
    object      Co;
}
// * * * * * * * * * * * * * * * * * * * * * * * * * * * * * * * * * * * * * //

dimensions      [0 0 0 0 0 0 0];

internalField   nonuniform List<scalar> 
1376
(
0.034700852
0.03455126
0.034412967
0.034279809
0.034153712
0.034038541
0.033931538
0.033831029
0.03373996
0.033656802
0.033580532
0.033515113
0.033454684
0.033399176
0.033350891
0.033312341
0.033271134
0.033245659
0.033215309
0.033199713
0.033174851
0.033197855
0.03659355
0.036377992
0.036158982
0.035942715
0.035730385
0.035514328
0.0352989
0.035081464
0.034860139
0.034639953
0.034414076
0.034179797
0.03394047
0.033697286
0.033437269
0.033177233
0.032897233
0.03261481
0.032306754
0.032025321
0.037569662
0.037271455
0.0369698
0.036669375
0.036358469
0.036041684
0.035715833
0.035379573
0.035038138
0.034685219
0.034316221
0.033935144
0.033543825
0.033128747
0.032706452
0.032258363
0.031801066
0.031313284
0.030843722
0.038185637
0.037796532
0.03740589
0.036999205
0.036581219
0.036148884
0.035701709
0.035244541
0.034772071
0.034278661
0.033768325
0.033244392
0.032693339
0.03213147
0.031541859
0.03094042
0.030308573
0.029691333
0.037954908
0.037454485
0.036938887
0.036404025
0.035851487
0.035285528
0.034701963
0.034095267
0.033468626
0.032827303
0.032158295
0.03147745
0.03076955
0.030050319
0.029303707
0.028570986
0.037751031
0.037140397
0.036507537
0.035855791
0.035188336
0.034502381
0.033793307
0.033062898
0.032318439
0.031547631
0.030766061
0.029959849
0.029144884
0.02830702
0.027484523
0.037209557
0.036484133
0.035739549
0.034977856
0.034198306
0.033397018
0.032574424
0.031739593
0.030881293
0.030014863
0.029127292
0.028234824
0.02732488
0.026432962
0.036373875
0.035541045
0.034690529
0.033823939
0.032937975
0.032032332
0.03111701
0.030182315
0.029243151
0.028287225
0.02733108
0.026363412
0.025417238
0.036391508
0.03545564
0.034502738
0.033536621
0.032554894
0.031557019
0.030553307
0.029535645
0.028518737
0.027491026
0.02646902
0.025442568
0.024442623
0.03509299
0.034065047
0.033027115
0.031977943
0.03091677
0.029853526
0.028781476
0.027715402
0.026643966
0.025583197
0.024524222
0.023495985
0.033574589
0.032471821
0.03136281
0.030246869
0.029132834
0.028015365
0.026909377
0.025803513
0.024713257
0.023630869
0.022583413
0.031896738
0.030732648
0.029567192
0.028408147
0.02725145
0.026111824
0.024977965
0.02386465
0.02276512
0.02170471
0.030190352
0.028964767
0.027751823
0.026547832
0.025367534
0.0242001
0.023059114
0.021938734
0.020862506
0.028236336
0.026996069
0.02576994
0.024571988
0.023393084
0.022244682
0.021121869
0.020046595
0.026241453
0.02499886
0.023788695
0.022603575
0.021452539
0.020331636
0.019261382
0.024255132
0.02303314
0.021842111
0.020689467
0.019571396
0.018506976
0.022301295
0.021105556
0.019952867
0.018839187
0.017781936
0.020367373
0.019224905
0.018124635
0.017082351
0.018519683
0.017435102
0.01640967
0.016771046
0.015763305
0.025827239
0.024743225
0.023826228
0.022946471
0.022145014
0.021068909
0.020136877
0.019276198
0.018461737
0.017675296
0.016906243
0.016162592
0.015450338
0.014763944
0.014112691
0.013476514
0.012879659
0.012309327
0.011759877
0.011242002
0.010720043
0.010227456
0.0097612143
0.028697937
0.027233294
0.025885
0.024947553
0.023827376
0.022520048
0.02137722
0.020403293
0.019445303
0.018541595
0.017649158
0.01677228
0.015997327
0.015231039
0.014482998
0.013802656
0.013189511
0.012586816
0.012005843
0.011452051
0.010901587
0.010382519
0.009899022
0.029342957
0.028026903
0.0267224
0.025727959
0.024516392
0.023180824
0.022038996
0.02104688
0.0200527
0.019104894
0.018176066
0.017267644
0.016458946
0.015655966
0.014884295
0.014169297
0.013525034
0.012888815
0.012273613
0.011688923
0.011114465
0.010575561
0.010073827
0.029683874
0.028347602
0.026976515
0.025902767
0.024656888
0.023340675
0.02222641
0.021238015
0.020239608
0.019288536
0.018365382
0.017461386
0.016652331
0.015845158
0.015090748
0.014359351
0.01370604
0.013059467
0.012434003
0.011840044
0.011258837
0.010713499
0.010204173
0.029832207
0.028467787
0.027059594
0.025935338
0.024679267
0.02339577
0.022293357
0.021299082
0.020289692
0.019340178
0.018424648
0.017526165
0.016718076
0.015908188
0.015162335
0.014431817
0.013777018
0.013129291
0.012503724
0.011910132
0.011330008
0.01078492
0.010274464
0.029944567
0.02855975
0.027126232
0.025949544
0.024687469
0.023431249
0.022337195
0.021336811
0.020316557
0.019364948
0.018452276
0.017556852
0.016746614
0.015934584
0.015189357
0.014466362
0.013809481
0.013160718
0.012536357
0.011944266
0.011365526
0.010821056
0.010310599
0.029992975
0.028635358
0.027171625
0.025947869
0.024692197
0.023460285
0.022375175
0.021363583
0.020335092
0.019383002
0.018471971
0.017578034
0.016765775
0.015953199
0.01520359
0.014490793
0.013830782
0.013180423
0.012556893
0.011965545
0.011387322
0.010843392
0.010333154
0.030049008
0.028719396
0.027201859
0.025946455
0.02470095
0.023490346
0.022410493
0.02138466
0.020348779
0.019397962
0.018488174
0.017595728
0.016782524
0.015970306
0.01521378
0.014512031
0.013848053
0.013196304
0.012573554
0.011982603
0.011404639
0.010860982
0.01035072
0.031426545
0.030089517
0.028762543
0.027208295
0.025941379
0.024708603
0.023518265
0.022441645
0.021400157
0.020358311
0.019410579
0.018502722
0.017612509
0.016799207
0.015987849
0.015226554
0.014531764
0.013863824
0.01321118
0.012589369
0.011998608
0.011420678
0.010877142
0.01036679
0.031482879
0.030142998
0.028766304
0.027206763
0.02594638
0.024724506
0.023548733
0.022469766
0.021411908
0.020366369
0.019423785
0.018517673
0.017629891
0.016816658
0.016005993
0.015245069
0.014550702
0.013879314
0.013226383
0.012605607
0.012014769
0.011436672
0.010893291
0.010382852
0.031500163
0.030177507
0.02873377
0.027208154
0.025960105
0.024743183
0.023575529
0.022490964
0.021420941
0.020375584
0.019439354
0.01853326
0.017647913
0.016834838
0.016024802
0.015265961
0.01456958
0.01389546
0.013242687
0.012622843
0.0120315
0.011453144
0.010910151
0.010399801
0.031538164
0.030188284
0.028694638
0.027218227
0.02597843
0.024761197
0.023598278
0.022507242
0.021430306
0.020388683
0.019457717
0.018549008
0.017666276
0.016853742
0.016044677
0.015287474
0.014589261
0.013912962
0.013260546
0.01264129
0.012048958
0.011470471
0.010928252
0.03158213
0.030183135
0.028667723
0.027231249
0.025995566
0.024772792
0.023613661
0.022516998
0.021439079
0.020406239
0.019477874
0.018564301
0.017684769
0.016873483
0.016065993
0.015310274
0.014610464
0.013932256
0.013280193
0.012661043
0.012067376
0.011489101
0.010948091
0.031587774
0.030151971
0.028638837
0.027256201
0.026017686
0.024786444
0.023625787
0.02252271
0.021448732
0.020429169
0.019499127
0.018580115
0.017704793
0.016895006
0.016089009
0.015334749
0.014633656
0.013953607
0.013301792
0.012682271
0.012087187
0.011509578
0.010970175
0.033149604
0.031591388
0.030118457
0.028622786
0.027286116
0.026034582
0.024794838
0.023635009
0.022530445
0.021462276
0.020454793
0.019519277
0.018597484
0.017727919
0.016919002
0.016113606
0.015361106
0.014659115
0.013977106
0.013325426
0.012705242
0.012108975
0.011532455
0.010994969
0.03312475
0.031571986
0.030082902
0.028624269
0.027306268
0.026029855
0.024791725
0.023647245
0.022543643
0.021481497
0.020480896
0.019539057
0.018618429
0.01775504
0.016945074
0.016139455
0.015389611
0.014687141
0.014002917
0.013351267
0.012730349
0.012133332
0.011558254
0.011022792
0.033080202
0.03154142
0.030057
0.028638884
0.027313311
0.026019974
0.024797522
0.023664454
0.022556731
0.021503297
0.020508388
0.019562785
0.018644246
0.017783628
0.01697069
0.01616599
0.015420835
0.014718167
0.014031313
0.013379578
0.012758056
0.012160761
0.011587454
0.011053692
0.033038012
0.031522571
0.030039262
0.028638079
0.027296057
0.02601662
0.02482234
0.023686304
0.022572421
0.021528556
0.02053638
0.019587649
0.018671609
0.017812732
0.016998093
0.016196254
0.015456485
0.01475206
0.014062174
0.013410605
0.012788841
0.012191674
0.011620311
0.011087622
0.034630194
0.033000969
0.031505067
0.030015557
0.028625226
0.027288905
0.026031498
0.024842116
0.023692236
0.022588856
0.021556279
0.02056265
0.019612737
0.018700325
0.017844022
0.017028711
0.016230711
0.015495429
0.01478685
0.014094967
0.013444573
0.012823015
0.012226278
0.011656774
0.011124498
0.034555171
0.032960289
0.031469536
0.029983966
0.028605393
0.027290047
0.026040183
0.024845796
0.023705097
0.022617502
0.02158185
0.020585307
0.019639674
0.018730773
0.017878008
0.017062381
0.016269346
0.01553603
0.014821321
0.014129867
0.013481605
0.012860523
0.012264439
0.011696722
0.011163665
0.034495944
0.0328983
0.031408847
0.029954925
0.028582894
0.027288414
0.026038453
0.024854047
0.023726969
0.022638999
0.021598549
0.020611029
0.019668842
0.01876341
0.01791602
0.017098252
0.016309791
0.015574972
0.014855904
0.014168337
0.01352233
0.012901332
0.012305796
0.011739486
0.011204556
0.036045463
0.034411681
0.032831081
0.031351876
0.029934205
0.028558329
0.027277899
0.026039459
0.024865549
0.023735471
0.022650841
0.021620914
0.02064211
0.01969893
0.018801676
0.017953854
0.01713291
0.016351394
0.015613424
0.014894805
0.014211525
0.013566811
0.012944846
0.012350003
0.011784354
0.011247321
0.035922095
0.034320254
0.03276607
0.031299937
0.029900206
0.028531505
0.027265259
0.02604318
0.02486686
0.023741624
0.022668536
0.021649265
0.020669434
0.019732941
0.018841736
0.017990036
0.017174431
0.016398222
0.015655237
0.014939283
0.014258276
0.013614415
0.012991192
0.012397694
0.01183289
0.011293802
0.035803079
0.034231392
0.032700627
0.031248224
0.029855276
0.028511903
0.027251676
0.026038411
0.024866838
0.023758314
0.022690912
0.021675926
0.020698248
0.019769113
0.018877876
0.018029761
0.017219431
0.01644243
0.015699472
0.014987306
0.014309128
0.013665613
0.013041747
0.012450027
0.01188567
0.011343905
0.037332112
0.03567785
0.034135625
0.032620914
0.031196212
0.029813298
0.028494515
0.027242527
0.026034295
0.024874258
0.023775055
0.022709627
0.021699641
0.020729893
0.019805811
0.01891873
0.018074922
0.017264523
0.016489272
0.015749705
0.015038994
0.014365396
0.013720695
0.013096872
0.01250688
0.011941294
0.011398195
0.037180457
0.035557562
0.034034437
0.032538918
0.031141509
0.029770945
0.028470289
0.027226529
0.026023619
0.02487882
0.023784146
0.022730847
0.021728202
0.020765818
0.019845797
0.018963955
0.018121258
0.017314045
0.016542509
0.01580463
0.015096329
0.014425253
0.013777527
0.01315666
0.012568967
0.012001576
0.038670173
0.037021458
0.035432935
0.033924912
0.032457892
0.031066205
0.02971606
0.028431647
0.027199218
0.026013555
0.024882944
0.02379556
0.022756944
0.02175883
0.020802593
0.019887573
0.019010293
0.018171499
0.017369365
0.016600178
0.015864005
0.01515987
0.014487956
0.013840969
0.013223923
0.012634924
0.012066278
0.038476269
0.036859065
0.035302563
0.033812095
0.03237377
0.030995681
0.029672557
0.028404267
0.027183787
0.026013114
0.024890655
0.023809756
0.022779067
0.02179154
0.020842484
0.019933133
0.019060506
0.018226759
0.017428105
0.016661812
0.015928969
0.015227814
0.014555689
0.013913895
0.01329735
0.012705787
0.012139125
0.038279482
0.03669145
0.035164402
0.03369591
0.032281005
0.030922702
0.029616492
0.028364278
0.027155335
0.02599958
0.024890624
0.023823344
0.022804854
0.021828334
0.020884148
0.019979969
0.019115184
0.01828717
0.017491328
0.016728718
0.015999627
0.015300956
0.014632207
0.013992637
0.013374331
0.012783447
0.012219583
0.038075258
0.036515745
0.035015983
0.033570989
0.032178924
0.030842872
0.029555579
0.028321951
0.027134255
0.025992101
0.02489959
0.023844134
0.022832226
0.021863205
0.020928357
0.02003075
0.019174084
0.018350807
0.01755977
0.016802831
0.016077889
0.015382162
0.014716291
0.014075635
0.013458501
0.012870101
0.012306472
0.037852272
0.03632483
0.034855056
0.033438186
0.032073061
0.030761453
0.029496501
0.028280742
0.027113166
0.025982263
0.024906053
0.023861606
0.022860243
0.021901723
0.020976985
0.020087251
0.019237471
0.018420141
0.017635482
0.01688375
0.016162497
0.015470343
0.014805944
0.014166004
0.013552258
0.012964942
0.012401119
0.037618638
0.03612653
0.034689513
0.03330181
0.031963305
0.030676012
0.029431886
0.028237204
0.027086115
0.025973117
0.024909387
0.02387938
0.022890033
0.021941842
0.021029281
0.020149219
0.01930784
0.01849787
0.017719381
0.016972599
0.016255652
0.015566285
0.014903328
0.014265661
0.013654699
0.013067625
0.037377109
0.035919946
0.034515155
0.033155796
0.03184503
0.030582028
0.029361161
0.02818875
0.027055287
0.0259643
0.024914895
0.023902864
0.022926965
0.021990687
0.021089494
0.020218554
0.019385604
0.01858227
0.017810482
0.017068031
0.016355535
0.015669418
0.015009823
0.014375166
0.013766736
0.013180465
0.037118218
0.035697032
0.034326103
0.032998865
0.031718873
0.030483125
0.029288631
0.028138322
0.027026298
0.025954121
0.024921781
0.023924765
0.022963941
0.022041538
0.021151228
0.020293202
0.019469479
0.018673673
0.017909151
0.017172282
0.016465211
0.015783392
0.015127071
0.014494965
0.013887879
0.013303987
0.036843147
0.035461565
0.03412608
0.032833567
0.03158479
0.030378112
0.0292114
0.028084982
0.026997144
0.025945219
0.024932295
0.023952068
0.023007825
0.02209931
0.021220039
0.02037419
0.019560105
0.018773877
0.018017203
0.017287661
0.016584761
0.015907092
0.015254864
0.014626474
0.014022033
0.036555085
0.035214993
0.033917026
0.032661252
0.031444838
0.03026905
0.029130617
0.028029864
0.026966659
0.02593661
0.024943942
0.023983076
0.023056074
0.022162459
0.021297501
0.020464411
0.01966078
0.018882837
0.018133126
0.017410893
0.016713839
0.01604265
0.015395426
0.014771149
0.014169936
0.036252409
0.034955363
0.033697682
0.032479176
0.031297456
0.030153815
0.02904524
0.02797216
0.026934012
0.025928018
0.024956855
0.024017114
0.023108622
0.022231327
0.021382488
0.020561932
0.019768951
0.019002073
0.018261666
0.017547202
0.016857466
0.016192486
0.015549266
0.014929917
0.014332908
0.035935045
0.034683344
0.033468295
0.032289024
0.031144377
0.03003454
0.028957726
0.027914022
0.026903017
0.025923061
0.024975052
0.024056769
0.023167507
0.022306956
0.021473316
0.020666259
0.019885709
0.019131203
0.018400859
0.017695285
0.017013976
0.016355904
0.015719527
0.015106977
0.035603542
0.034398
0.033226201
0.032087529
0.030981147
0.029907078
0.028864038
0.027852108
0.026870237
0.025917879
0.024993865
0.024098344
0.023229463
0.022386908
0.021571535
0.020780722
0.020013818
0.019272596
0.018553903
0.017858847
0.017187927
0.016539216
0.015911041
0.015304287
0.035249998
0.034092766
0.032966599
0.031871298
0.030805989
0.029770591
0.028763835
0.027785705
0.026834904
0.02591157
0.025013874
0.024143333
0.023296264
0.022474935
0.021678954
0.020904018
0.020153659
0.019427696
0.018722782
0.018040858
0.017381426
0.016741599
0.016121093
0.034876645
0.033770682
0.032693153
0.031643773
0.030621696
0.029626638
0.028657748
0.027714906
0.02679719
0.025904522
0.025035755
0.024191217
0.023369188
0.022571156
0.021795347
0.021040591
0.020309575
0.019599858
0.018910622
0.018241975
0.017593774
0.016964347
0.034484196
0.033431033
0.032403501
0.03140133
0.030423863
0.029470784
0.028541569
0.027635944
0.026753172
0.025893218
0.025055422
0.0242396
0.023445722
0.022673173
0.021921522
0.021190768
0.020480194
0.019789001
0.019117123
0.018463619
0.017829406
0.017213212
0.034074323
0.033074973
0.032098705
0.03114532
0.030214324
0.029305411
0.028418267
0.02755251
0.026707715
0.025883875
0.025080428
0.024296942
0.023533475
0.022789061
0.022063655
0.021357188
0.020668598
0.019998188
0.019345619
0.018710499
0.018092511
0.033634004
0.032691515
0.031769723
0.030868408
0.029987246
0.02912597
0.02828434
0.027461915
0.02665848
0.025873701
0.025107123
0.024358421
0.023627446
0.02291378
0.022217259
0.021537674
0.020874627
0.020228035
0.019597549
0.018982734
0.033182695
0.032298445
0.031432642
0.030585181
0.029755747
0.028943999
0.028149639
0.027372357
0.026611947
0.025868015
0.025140432
0.02442898
0.023733298
0.023053465
0.022388872
0.021739363
0.021104876
0.020484803
0.019879142
0.032698134
0.031873724
0.031065801
0.030274209
0.029498666
0.028738929
0.027994682
0.027265755
0.026551876
0.025852762
0.025168324
0.024498165
0.023842068
0.023199926
0.022571253
0.021956016
0.02135403
0.032200494
0.031437122
0.030688654
0.029954833
0.029235362
0.028530006
0.027838482
0.027160611
0.026496093
0.025844708
0.025206276
0.024580477
0.023967153
0.023366129
0.022777222
0.022200211
0.031665155
0.030964493
0.030277285
0.029603261
0.028942148
0.02829386
0.027658025
0.027034651
0.026423231
0.025823842
0.025236108
0.024659851
0.024094908
0.023541204
0.031148327
0.030511388
0.02988672
0.029274091
0.028673248
0.028084101
0.027506214
0.026939686
0.026383815
0.02583896
0.025304473
0.02478034
)
;

boundaryField
{
    Side
    {
        type            empty;
    }
    Inlet
    {
        type            zeroGradient;
    }
    Airfoil
    {
        type            zeroGradient;
    }
    Outlet
    {
        type            zeroGradient;
    }
    procBoundary9to2
    {
        type            processor;
        value           nonuniform List<scalar> 
23
(
0.0097647116
0.010231706
0.010716752
0.011227909
0.011759841
0.012319317
0.012901878
0.013533056
0.014173967
0.014795761
0.015478484
0.016214255
0.016917709
0.01768188
0.018508415
0.019341169
0.020229553
0.021058082
0.021948252
0.022904651
0.024113848
0.024913178
0.025827253
)
;
    }
    procBoundary9to8
    {
        type            processor;
        value           nonuniform List<scalar> 
75
(
0.034863631
0.034863631
0.037031387
0.036809811
0.036809811
0.037858917
0.037858917
0.038564557
0.038564557
0.038912473
0.038436343
0.038436343
0.03834388
0.03834388
0.037910585
0.037910585
0.037188408
0.037188408
0.037310753
0.036105308
0.036105308
0.034670931
0.034670931
0.03306013
0.03306013
0.031421625
0.031421625
0.029494473
0.029494473
0.027503971
0.027503971
0.0255137
0.0255137
0.02353331
0.02353331
0.021556435
0.021556435
0.019649459
0.019649459
0.017839123
0.017839123
0.016132623
0.015142568
0.026867981
0.030057582
0.03058037
0.030858329
0.030988801
0.031126741
0.031239789
0.031355571
0.031355571
0.033471811
0.033426415
0.033346043
0.033254511
0.033214154
0.033185446
0.033185446
0.034951726
0.034877652
0.034807121
0.034725701
0.034725701
0.036349879
0.036255708
0.03616345
0.03616345
0.037727573
0.037598055
0.037473872
0.037473872
0.039036951
0.038857503
0.038857503
)
;
    }
    procBoundary9to10
    {
        type            processor;
        value           nonuniform List<scalar> 
66
(
0.009317049
0.0094352814
0.0095923459
0.0097139141
0.0097823523
0.0098184351
0.0098409636
0.0098584064
0.009874255
0.0098900803
0.0099068386
0.010418147
0.010418147
0.010438326
0.010460627
0.010485176
0.010512179
0.010541645
0.010573342
0.010607093
0.010643166
0.010682028
0.010724289
0.010771065
0.010822436
0.010878752
0.011458776
0.011458776
0.011525283
0.01159881
0.01167817
0.011764336
0.011859297
0.012504671
0.012504671
0.012618386
0.012743017
0.013441463
0.013441463
0.013591544
0.013757785
0.014515202
0.014515202
0.014716894
0.015520886
0.015520886
0.016353958
0.016353958
0.0166145
0.017491205
0.017491205
0.018383019
0.018383019
0.019287675
0.020764917
0.019287675
0.02018867
0.020764917
0.021634905
0.022998198
0.021634905
0.022465691
0.024266327
0.022998198
0.023762257
0.024266327
)
;
    }
}


// ************************************************************************* //
