/*--------------------------------*- C++ -*----------------------------------*\
| =========                 |                                                 |
| \\      /  F ield         | OpenFOAM: The Open Source CFD Toolbox           |
|  \\    /   O peration     | Version:  2506                                  |
|   \\  /    A nd           | Website:  www.openfoam.com                      |
|    \\/     M anipulation  |                                                 |
\*---------------------------------------------------------------------------*/
FoamFile
{
    version     2.0;
    format      ascii;
    arch        "LSB;label=32;scalar=64";
    class       volScalarField;
    location    "0.005";
    object      k;
}
// * * * * * * * * * * * * * * * * * * * * * * * * * * * * * * * * * * * * * //

dimensions      [0 2 -2 0 0 0 0];

internalField   nonuniform List<scalar> 
13761
(
0.107298
0.11177121
0.11613456
0.087290078
0.090657134
0.094342693
0.098294879
0.10248204
0.10684879
0.11128274
0.11562487
0.119612
0.079072326
0.081422996
0.084062931
0.087042697
0.090368449
0.094007917
0.09791521
0.10205863
0.10637706
0.11077281
0.11509503
0.11906976
0.12232649
0.072015797
0.07343717
0.075048448
0.0768653
0.078928995
0.081246892
0.083850525
0.086782164
0.090064649
0.093658807
0.09752067
0.10161769
0.10588937
0.11023907
0.11453249
0.11850605
0.12174279
0.068744585
0.069666473
0.070730642
0.071966043
0.073370263
0.074957229
0.076747998
0.078770978
0.081052938
0.083620282
0.086518959
0.089759229
0.093304876
0.09711871
0.10116675
0.10538431
0.10968497
0.11394419
0.11789879
0.12113041
0.12341191
0.066706811
0.067273348
0.067941182
0.068737997
0.06965049
0.070697965
0.071901187
0.073282449
0.074846648
0.076613061
0.078612334
0.080862312
0.083394565
0.086253564
0.089448796
0.092945301
0.096708703
0.10070307
0.10486372
0.10911167
0.11333175
0.11725938
0.12046548
0.12269848
0.12428999
0.065550073
0.065856469
0.066241047
0.066719376
0.06728053
0.067945069
0.068711731
0.069606618
0.070642536
0.071837531
0.073200123
0.074739754
0.0764809
0.078449282
0.08066423
0.083161199
0.085983025
0.08913278
0.092578316
0.096290073
0.10022932
0.10433057
0.10852327
0.11269795
0.11658563
0.11975267
0.12196027
0.1235037
0.12497366
0.065048002
0.065165067
0.065338505
0.065583373
0.065886843
0.06626536
0.066727377
0.067279861
0.067927834
0.068691659
0.06957644
0.070597226
0.071771264
0.073111102
0.074627901
0.076344257
0.078283617
0.080466368
0.082929584
0.085712449
0.088815368
0.092209268
0.095866962
0.099747086
0.10378559
0.10792015
0.11204416
0.11588225
0.11899758
0.1211564
0.1226621
0.12406408
0.12586687
0.06523535
0.065054136
0.065021547
0.065086103
0.065206835
0.0653771
0.065607046
0.065903321
0.066277403
0.066733122
0.067277885
0.067919739
0.068668989
0.069537765
0.070543912
0.071701718
0.073020851
0.074513851
0.076204894
0.078114822
0.08026456
0.082693624
0.085437513
0.088492503
0.091834004
0.095437382
0.099257253
0.10323138
0.10730493
0.1113713
0.11514713
0.11819631
0.12030278
0.1217726
0.12314067
0.12485293
0.066180268
0.065964041
0.065612054
0.065293264
0.065109174
0.065066419
0.065118379
0.065232391
0.065400159
0.065628004
0.065920111
0.066289216
0.066738097
0.067274312
0.06790698
0.068645578
0.069502023
0.07049263
0.071631317
0.07292844
0.074398645
0.076064858
0.077945431
0.080063235
0.08245843
0.085161682
0.088168111
0.091457395
0.095004658
0.098761156
0.10266852
0.10667877
0.110682
0.11438564
0.11735645
0.11939504
0.12080913
0.12212443
0.12380022
0.12613295
0.066035291
0.066111312
0.066235401
0.06626655
0.066225105
0.066024581
0.065676793
0.065340302
0.065146906
0.065094889
0.065146607
0.065259082
0.06542489
0.065648744
0.065935726
0.066299911
0.066741363
0.067269681
0.067894371
0.068620766
0.069463704
0.070438436
0.071558742
0.072833961
0.074281753
0.075923093
0.07777328
0.079858443
0.082219549
0.084881877
0.087839878
0.091077825
0.094568979
0.098260506
0.1020992
0.10604267
0.10997537
0.11359464
0.1164728
0.11843547
0.11980134
0.12107785
0.12269095
0.12492856
0.066296807
0.066185792
0.06607128
0.066036184
0.066072196
0.066154174
0.06627869
0.066314769
0.066266685
0.06606823
0.06572301
0.065384412
0.065185343
0.065125448
0.065175074
0.065284623
0.065448246
0.06566816
0.065950356
0.066308915
0.06674317
0.067264251
0.067879231
0.068594865
0.069424123
0.070383224
0.071484514
0.072738659
0.074164543
0.075779197
0.077599056
0.079653345
0.081980252
0.08460091
0.087511752
0.090698931
0.094131366
0.097755191
0.10152447
0.10539984
0.10925595
0.11278019
0.11555498
0.1174308
0.11872891
0.11994751
0.12152215
0.12373758
0.12663865
0.066328692
0.066462461
0.06647643
0.066490751
0.066479419
0.06642242
0.066334879
0.066232193
0.066114723
0.066086652
0.066107935
0.066180998
0.066304499
0.066346847
0.066302464
0.066112766
0.065770557
0.065428286
0.065220988
0.065154991
0.065202636
0.065309406
0.065470867
0.065686388
0.065964155
0.066316154
0.06674398
0.067257585
0.067863113
0.06856675
0.069382119
0.070326023
0.071407893
0.072641519
0.074045909
0.075634532
0.077424915
0.079448323
0.081740845
0.084320458
0.087184951
0.09032106
0.093693563
0.097248737
0.10094745
0.10475032
0.10852099
0.11193839
0.11459788
0.11637881
0.11761558
0.1187936
0.12031663
0.12245739
0.12528775
0.064534796
0.064576774
0.064830833
0.065477729
0.066760931
0.067716088
0.067371937
0.066503606
0.066201559
0.066350019
0.066499749
0.066517175
0.066532404
0.066522341
0.066465195
0.066368577
0.06626223
0.066144842
0.066117099
0.066136017
0.066211512
0.066332231
0.066380982
0.066338672
0.06615506
0.065814528
0.065469822
0.065254328
0.065184194
0.065229479
0.065333251
0.06549229
0.065703061
0.065976905
0.066322423
0.066743889
0.067250127
0.067846331
0.068536814
0.069339068
0.070266943
0.071329975
0.072545375
0.073927485
0.075488775
0.077250293
0.079243454
0.081501525
0.084040733
0.086860288
0.089945266
0.093256098
0.096741834
0.10037008
0.10409833
0.1077766
0.11107701
0.11361242
0.11529103
0.11645064
0.11756578
0.11904992
0.12117698
0.12397251
0.59011066
0.063724945
0.064486549
0.064523034
0.064522951
0.064522924
0.064522919
0.064522918
0.064522918
0.064522918
0.064522917
0.064522917
0.064522917
0.064522917
0.064522917
0.064522917
0.064522917
0.064522917
0.064522917
0.064522917
0.064522917
0.064522917
0.064522917
0.064522917
0.064522919
0.064522952
0.064523197
0.064524163
0.064527184
0.064535286
0.064552046
0.064574518
0.064618759
0.064766883
0.064943661
0.064711254
0.064292162
0.064313359
0.064458664
0.064559536
0.06453363
0.064576258
0.064829996
0.065472746
0.066746215
0.067761932
0.067429814
0.066555956
0.066237038
0.066375162
0.066524655
0.066543326
0.066559324
0.066549635
0.066492863
0.066397955
0.06629283
0.066179198
0.066146029
0.066167311
0.066241323
0.066356888
0.066413737
0.066373554
0.066195232
0.065856201
0.065509487
0.065285694
0.065212823
0.065255598
0.065356373
0.065512094
0.065718233
0.065988716
0.066328007
0.066742841
0.067242806
0.067827777
0.068505478
0.069294453
0.070205578
0.071251116
0.072448035
0.07380735
0.075342845
0.077076403
0.079040362
0.081265306
0.083765397
0.086540728
0.089573862
0.092821722
0.096237267
0.099793374
0.10344167
0.10701908
0.11019317
0.112594
0.11415929
0.11524455
0.11631941
0.11776753
0.11983618
0.12256475
0.59296128
0.063718608
0.064486725
0.06452308
0.064522954
0.064522925
0.064522919
0.064522918
0.064522918
0.064522918
0.064522918
0.064522918
0.064522918
0.064522918
0.064522918
0.064522918
0.064522918
0.064522918
0.064522918
0.064522918
0.064522918
0.064522918
0.064522918
0.064522918
0.06452292
0.064522953
0.064523192
0.064524143
0.064527138
0.064535176
0.064552041
0.064575014
0.064617919
0.064765938
0.064948088
0.064728843
0.064295893
0.064309483
0.064457621
0.064561047
0.06453704
0.064576239
0.06482491
0.065460361
0.066725277
0.067793736
0.067472007
0.06659235
0.066258421
0.066394707
0.066550051
0.066571385
0.066588268
0.066578642
0.066522467
0.066427492
0.066322888
0.066210928
0.066174691
0.066197823
0.06626661
0.066386408
0.066444902
0.066406243
0.066232363
0.065895032
0.065546472
0.06531496
0.065240343
0.065280673
0.065378265
0.065529818
0.065732217
0.065999496
0.066332343
0.066741192
0.067233356
0.067806492
0.068472518
0.069248142
0.070143118
0.071172529
0.072350339
0.073686543
0.075196711
0.076903713
0.078839266
0.081031039
0.083493163
0.086225571
0.089206275
0.092389976
0.095735862
0.099220592
0.10278669
0.10625695
0.10929571
0.11155215
0.11299712
0.11399842
0.11501271
0.11642817
0.11849382
0.12120047
0.59554803
0.06371287
0.064486229
0.06452308
0.064522954
0.064522925
0.064522919
0.064522918
0.064522918
0.064522918
0.064522918
0.064522918
0.064522918
0.064522918
0.064522918
0.064522918
0.064522918
0.064522918
0.064522918
0.064522918
0.064522918
0.064522918
0.064522918
0.064522919
0.06452292
0.064522951
0.064523186
0.064524123
0.06452709
0.064535072
0.06455202
0.064575365
0.064617009
0.064764867
0.064952128
0.064743023
0.064298868
0.064305328
0.064456127
0.064562292
0.064540066
0.06457637
0.064821377
0.065451839
0.066711622
0.067826027
0.067514283
0.066630153
0.066282242
0.066416315
0.06657576
0.066598805
0.066616093
0.066606272
0.066550599
0.066455485
0.066352454
0.066240015
0.066204267
0.066226027
0.066292936
0.06642002
0.066470636
0.066436715
0.066268307
0.065932208
0.065580504
0.065342773
0.065266273
0.06530432
0.065398949
0.065546111
0.065745627
0.066008578
0.066334969
0.066738649
0.067221787
0.067783049
0.068437384
0.069199604
0.070079519
0.071092548
0.072251152
0.073565566
0.075050422
0.076731206
0.078639758
0.080800101
0.083225651
0.085915162
0.088841846
0.091960758
0.095238016
0.098650234
0.10212821
0.10548303
0.10837824
0.11048056
0.11179478
0.11271403
0.11369471
0.11509685
0.11712614
0.11976413
0.5978671
0.063707732
0.064485797
0.06452308
0.064522954
0.064522925
0.064522919
0.064522918
0.064522918
0.064522918
0.064522918
0.064522918
0.064522918
0.064522918
0.064522918
0.064522918
0.064522918
0.064522918
0.064522918
0.064522918
0.064522918
0.064522918
0.064522918
0.064522919
0.06452292
0.06452295
0.064523181
0.064524108
0.064527054
0.064534997
0.064552039
0.064575713
0.064616364
0.0647642
0.064956072
0.064755874
0.064301603
0.064301623
0.064454908
0.064563658
0.064543086
0.064576815
0.064818626
0.065445222
0.066701963
0.067856782
0.06755383
0.06666567
0.066305306
0.066437678
0.06660089
0.066625623
0.066643237
0.066633345
0.066577956
0.066483041
0.066380752
0.066267318
0.066233555
0.066253386
0.066321838
0.066446419
0.066498094
0.066469796
0.06630147
0.065966021
0.06561016
0.065370096
0.065289402
0.065325675
0.065418438
0.065561526
0.065758451
0.066015322
0.066335907
0.066733164
0.067206949
0.067757282
0.068401043
0.069149893
0.07001475
0.071011872
0.072151456
0.073442727
0.074903858
0.076562239
0.078444163
0.080572322
0.08296207
0.085608682
0.088480655
0.091536129
0.094746796
0.098085224
0.10147003
0.10470292
0.10744663
0.10938601
0.11056854
0.11140802
0.11234084
0.11372109
0.11575255
0.11837323
0.59991783
0.063703195
0.064485412
0.06452308
0.064522954
0.064522925
0.064522919
0.064522918
0.064522918
0.064522918
0.064522918
0.064522918
0.064522918
0.064522918
0.064522918
0.064522918
0.064522918
0.064522918
0.064522918
0.064522918
0.064522918
0.064522918
0.064522918
0.064522919
0.06452292
0.06452295
0.064523177
0.064524096
0.064527029
0.064534948
0.06455209
0.064576071
0.064615961
0.064763941
0.064960003
0.064767354
0.064304017
0.064298257
0.064454016
0.06456518
0.06454607
0.064577472
0.064816756
0.065440875
0.066696845
0.067886677
0.067591134
0.066699079
0.066328051
0.066459244
0.066625648
0.066651823
0.066669593
0.066659722
0.066604505
0.06650991
0.066407209
0.066294457
0.066261168
0.066280551
0.066350063
0.066469328
0.066532613
0.066500925
0.066328624
0.065998056
0.065635958
0.065398563
0.065309154
0.065344495
0.065436716
0.065576611
0.065770207
0.066020202
0.06633553
0.066726548
0.067190274
0.067730237
0.068363536
0.069098722
0.069948462
0.07092934
0.07204946
0.073318891
0.07475878
0.076393973
0.078247898
0.080345308
0.082700946
0.085304521
0.08812169
0.09111479
0.094258376
0.097518715
0.10080444
0.10391032
0.10649574
0.1082639
0.10931008
0.11007221
0.11098336
0.11237257
0.11438591
0.6017002
0.063699256
0.064485076
0.064523081
0.064522954
0.064522925
0.064522919
0.064522918
0.064522918
0.064522918
0.064522918
0.064522918
0.064522918
0.064522918
0.064522918
0.064522918
0.064522918
0.064522918
0.064522918
0.064522918
0.064522918
0.064522918
0.064522918
0.064522918
0.06452292
0.064522949
0.064523174
0.064524088
0.064527015
0.064534927
0.064552183
0.064576454
0.064615794
0.064764094
0.064963958
0.064777457
0.064306028
0.064295357
0.06445336
0.06456689
0.064548989
0.064578296
0.064815816
0.065439037
0.066696252
0.067915864
0.067626075
0.066729865
0.066350154
0.066480764
0.066649891
0.066677225
0.066695265
0.06668533
0.06663041
0.066535811
0.066432384
0.06632109
0.066287018
0.066307864
0.066377153
0.066496529
0.066562933
0.066526585
0.066357789
0.066028442
0.065656914
0.065426347
0.065325486
0.065360748
0.065453009
0.065590664
0.065779297
0.06602286
0.066333163
0.066718481
0.067171714
0.067702219
0.068324419
0.069045087
0.069880659
0.07084542
0.071945412
0.073194963
0.074615709
0.076227067
0.078053539
0.080123212
0.082446261
0.085005765
0.087767983
0.090700033
0.093776398
0.096955862
0.10013922
0.10311404
0.10553158
0.10711792
0.10803101
0.10872847
0.10961328
0.11099319
0.1130029
0.60321489
0.063695913
0.064484789
0.064523081
0.064522954
0.064522925
0.064522919
0.064522918
0.064522918
0.064522918
0.064522918
0.064522918
0.064522918
0.064522918
0.064522918
0.064522918
0.064522918
0.064522918
0.064522918
0.064522918
0.064522918
0.064522918
0.064522918
0.064522918
0.06452292
0.064522949
0.064523172
0.064524083
0.064527012
0.064534932
0.064552318
0.064576864
0.064615853
0.064764645
0.064967968
0.064786158
0.064307491
0.06429302
0.064452959
0.064568797
0.064551761
0.064579282
0.064815998
0.065439812
0.066700049
0.067944631
0.067658634
0.066757712
0.066371456
0.066502204
0.066673629
0.066701844
0.066720198
0.066710315
0.066655702
0.066560637
0.066456771
0.066346209
0.066312484
0.066335024
0.06640331
0.066526254
0.066588313
0.06655383
0.066389065
0.066049716
0.065677631
0.065449886
0.065339852
0.065375653
0.065466405
0.065601677
0.065785041
0.066023427
0.066329464
0.066707477
0.067150965
0.067672977
0.068282928
0.068988839
0.069810309
0.07075865
0.071840675
0.073072598
0.074472615
0.076059252
0.077861174
0.079904005
0.082192004
0.084706713
0.087416035
0.090288495
0.093295899
0.096390673
0.099468844
0.10230806
0.10454604
0.10594179
0.10672417
0.10735944
0.10823816
0.10964408
0.6044633
0.063693161
0.064484552
0.064523081
0.064522954
0.064522925
0.064522919
0.064522918
0.064522918
0.064522918
0.064522918
0.064522918
0.064522918
0.064522918
0.064522918
0.064522918
0.064522918
0.064522918
0.064522918
0.064522918
0.064522918
0.064522918
0.064522918
0.064522918
0.06452292
0.064522948
0.064523171
0.064524082
0.064527019
0.064534965
0.064552489
0.064577302
0.06461612
0.064765625
0.064972101
0.064793427
0.064308346
0.06429124
0.064452839
0.064570921
0.064554314
0.064580464
0.064817028
0.065442454
0.066708734
0.067973092
0.0676888
0.066782405
0.066391912
0.066523679
0.066696882
0.066725678
0.066744394
0.06673473
0.06668027
0.066584751
0.06648042
0.066369853
0.066338171
0.066360836
0.066429554
0.066555544
0.066613588
0.066582049
0.066412692
0.066066968
0.065706672
0.065462525
0.065354405
0.065390605
0.065476317
0.065608549
0.065788494
0.06602228
0.066325804
0.066694934
0.06712935
0.067642152
0.068238006
0.068930104
0.069738517
0.070670754
0.071735903
0.072950911
0.074329866
0.075892629
0.077670672
0.079687419
0.081943036
0.084415984
0.087073992
0.089886448
0.092822186
0.095829234
0.098799371
0.10149451
0.10353694
0.10473554
0.10539811
0.10599196
0.10687075
0.10827945
0.6054475
0.063690993
0.064484365
0.064523081
0.064522955
0.064522925
0.064522919
0.064522918
0.064522918
0.064522918
0.064522918
0.064522918
0.064522918
0.064522918
0.064522918
0.064522918
0.064522918
0.064522918
0.064522918
0.064522918
0.064522918
0.064522918
0.064522918
0.064522918
0.06452292
0.064522948
0.064523171
0.064524084
0.064527037
0.064535026
0.064552707
0.064577769
0.0646166
0.064767064
0.064976389
0.064799262
0.064308529
0.064290002
0.064453005
0.064573291
0.064556535
0.064581892
0.064818965
0.065447385
0.066722211
0.068001274
0.067716535
0.066803961
0.066411623
0.066545364
0.066719708
0.066748735
0.066767888
0.066758527
0.066704233
0.06660845
0.066503339
0.066392863
0.066363092
0.066385318
0.066456539
0.066582646
0.066639937
0.066607906
0.066432744
0.066091412
0.065726505
0.065465717
0.065374496
0.065405628
0.06548304
0.065612506
0.065790033
0.06602114
0.066318995
0.066678979
0.067105674
0.067607767
0.068189235
0.068869352
0.069665382
0.070582394
0.071631672
0.072828157
0.074184678
0.075725476
0.077483003
0.079475985
0.081699296
0.084129269
0.086734377
0.089484056
0.092344433
0.095261631
0.098122109
0.10066384
0.10249557
0.10349995
0.10405946
0.10461627
0.10550366
0.60617024
0.063689404
0.064484227
0.064523081
0.064522955
0.064522925
0.064522919
0.064522918
0.064522918
0.064522918
0.064522918
0.064522918
0.064522918
0.064522918
0.064522918
0.064522918
0.064522918
0.064522918
0.064522918
0.064522918
0.064522918
0.064522918
0.064522918
0.064522918
0.06452292
0.064522949
0.064523173
0.064524091
0.064527067
0.064535114
0.064552967
0.06457827
0.064617288
0.064768957
0.064980819
0.064803642
0.064308032
0.064289324
0.064453481
0.064575911
0.064558382
0.064583559
0.064821928
0.065454974
0.066740622
0.068029194
0.067741752
0.066822506
0.066430728
0.066567413
0.066742173
0.066771048
0.066790783
0.066781798
0.066727847
0.066631846
0.066525908
0.066415069
0.066386838
0.066409278
0.066482847
0.066607963
0.066666557
0.06663195
0.066453589
0.066111585
0.065734405
0.065479337
0.065389531
0.065413765
0.065488154
0.065616063
0.06578954
0.066019146
0.06631087
0.066661415
0.067079921
0.067569451
0.068138008
0.06880836
0.06959184
0.070493246
0.071526539
0.072704142
0.074039095
0.075560135
0.077299327
0.079269117
0.081458929
0.0838448
0.086397195
0.089084084
0.091869007
0.094696861
0.09744496
0.099818995
0.1014248
0.10224379
0.10271579
0.10325557
0.60663491
0.063688385
0.064484139
0.064523081
0.064522955
0.064522925
0.064522919
0.064522918
0.064522918
0.064522918
0.064522918
0.064522918
0.064522918
0.064522918
0.064522918
0.064522918
0.064522918
0.064522918
0.064522918
0.064522918
0.064522918
0.064522918
0.064522918
0.064522918
0.06452292
0.064522949
0.064523175
0.064524101
0.064527108
0.06453523
0.064553276
0.064578809
0.064618179
0.064771328
0.064985402
0.064806517
0.06430682
0.064289217
0.064454237
0.064578774
0.064559812
0.064585388
0.064825884
0.065464958
0.066763763
0.068056722
0.067764448
0.066838213
0.066449498
0.066589981
0.066764389
0.066792791
0.066813255
0.066804786
0.066751237
0.066654973
0.066548201
0.066436184
0.066409651
0.066432572
0.066507439
0.066633664
0.066692082
0.066653954
0.066473784
0.066124899
0.065742638
0.065506294
0.065393031
0.065417179
0.065497448
0.065619654
0.065785426
0.066012087
0.066296485
0.066640242
0.067050935
0.067527639
0.068086044
0.068747198
0.069516346
0.070401871
0.071418957
0.072576866
0.0738921
0.075397606
0.077120127
0.079064708
0.08122021
0.083564616
0.08606545
0.088687377
0.09139413
0.094132018
0.096763412
0.098953543
0.10032247
0.10096965
0.10137263
0.60684555
0.063687926
0.064484099
0.064523081
0.064522955
0.064522925
0.064522919
0.064522918
0.064522918
0.064522918
0.064522918
0.064522918
0.064522918
0.064522918
0.064522918
0.064522918
0.064522918
0.064522918
0.064522918
0.064522918
0.064522918
0.064522918
0.064522918
0.064522918
0.06452292
0.064522949
0.064523178
0.064524114
0.064527159
0.064535376
0.064553631
0.06457939
0.064619281
0.06477416
0.06499011
0.064807974
0.064304945
0.064289696
0.064455253
0.064581916
0.064560781
0.064587329
0.06483084
0.065477452
0.066791532
0.068083821
0.067784868
0.066851638
0.066468383
0.066613326
0.06678658
0.066814027
0.066835451
0.066827474
0.066774426
0.06667771
0.066569678
0.066456553
0.066431353
0.066454889
0.066531108
0.066659748
0.066715419
0.066675066
0.066492184
0.066134766
0.065756857
0.065514145
0.065391922
0.065426692
0.065505623
0.065617464
0.065780368
0.066002981
0.066278269
0.066617402
0.067019261
0.067484419
0.068035133
0.068684821
0.069437141
0.070307412
0.071308962
0.072448316
0.073747658
0.075240309
0.076945642
0.078864655
0.080987376
0.083289903
0.08573574
0.08828983
0.090919613
0.09356985
0.096077371
0.098062772
0.099188879
0.099684817
0.10002992
0.60680769
0.06368802
0.064484107
0.064523081
0.064522955
0.064522925
0.064522919
0.064522918
0.064522918
0.064522918
0.064522918
0.064522918
0.064522918
0.064522918
0.064522918
0.064522918
0.064522918
0.064522918
0.064522918
0.064522918
0.064522918
0.064522918
0.064522918
0.064522918
0.06452292
0.06452295
0.064523183
0.064524131
0.064527223
0.064535557
0.064554015
0.06458
0.064620618
0.06477759
0.064994912
0.0648078
0.064302403
0.064290757
0.064456564
0.064585434
0.06456134
0.064589415
0.0648369
0.065492745
0.066824254
0.068110058
0.067802749
0.066862842
0.0664873
0.066637296
0.066808469
0.066834829
0.066857203
0.066849813
0.066797137
0.066699729
0.066589941
0.066476176
0.066451965
0.066476528
0.066554499
0.066685413
0.066737787
0.06669638
0.066507668
0.066143069
0.065766035
0.065513937
0.065404292
0.065434586
0.065501609
0.065612529
0.065777947
0.065989632
0.066257405
0.066593229
0.066983721
0.067439784
0.067982751
0.068616694
0.069353057
0.070211384
0.071197296
0.072319252
0.073606509
0.075087401
0.076773365
0.078666532
0.080758344
0.08301856
0.08540739
0.087894613
0.090450502
0.093012445
0.095382663
0.097140224
0.09802634
0.09839257
0.60652607
0.063688653
0.064484161
0.064523081
0.064522955
0.064522925
0.064522919
0.064522918
0.064522918
0.064522918
0.064522918
0.064522918
0.064522918
0.064522918
0.064522918
0.064522918
0.064522918
0.064522918
0.064522918
0.064522918
0.064522918
0.064522918
0.064522918
0.064522918
0.06452292
0.064522951
0.064523188
0.064524152
0.064527297
0.064535762
0.064554459
0.064580649
0.064622149
0.064781383
0.064999944
0.06480623
0.064299193
0.064292393
0.064458128
0.064589265
0.064561445
0.064591626
0.064844006
0.065510004
0.066861006
0.068135129
0.067817905
0.066871718
0.066505927
0.066661479
0.066829745
0.06685505
0.066878514
0.066871637
0.066819091
0.066720792
0.06660904
0.066494995
0.066472059
0.06649767
0.066577664
0.066710582
0.066760023
0.066716785
0.066519868
0.066150166
0.065769873
0.065513735
0.065412396
0.065435865
0.06549754
0.065613074
0.065773608
0.065969541
0.066238752
0.066567573
0.066944491
0.067394169
0.067925593
0.068542352
0.06926806
0.070116154
0.071085654
0.072193625
0.073471022
0.074937433
0.076602825
0.078473641
0.080536058
0.082751517
0.08508286
0.087505798
0.089988077
0.09245503
0.09466918
0.096178616
0.096837643
0.60600586
0.063689812
0.064484261
0.064523081
0.064522955
0.064522925
0.064522919
0.064522918
0.064522918
0.064522918
0.064522918
0.064522918
0.064522918
0.064522918
0.064522918
0.064522918
0.064522918
0.064522918
0.064522918
0.064522918
0.064522918
0.064522918
0.064522918
0.064522918
0.06452292
0.064522952
0.064523195
0.064524177
0.064527383
0.064535996
0.064554946
0.064581319
0.064623911
0.064785692
0.065005054
0.064803
0.064295487
0.064294526
0.064460094
0.064593559
0.064561204
0.064593972
0.06485214
0.06552964
0.066902175
0.068158328
0.06782998
0.066878344
0.066524298
0.066686187
0.066850674
0.06687485
0.066899597
0.066893049
0.06684015
0.066740876
0.066627457
0.06651306
0.066492033
0.066518545
0.0666008
0.066735169
0.066781788
0.06673549
0.066530295
0.066154925
0.065768974
0.065517981
0.065414039
0.065433813
0.06549875
0.065612729
0.065751212
0.065954909
0.066226786
0.066535168
0.066901422
0.067344924
0.067859347
0.068464105
0.069184862
0.070019775
0.07097247
0.072071022
0.073338912
0.074788107
0.076434765
0.078286857
0.080318306
0.082485138
0.08475894
0.087119076
0.089525585
0.091891332
0.093932936
0.095179156
0.60525324
0.063691485
0.064484405
0.064523081
0.064522954
0.064522925
0.064522919
0.064522918
0.064522918
0.064522918
0.064522918
0.064522918
0.064522918
0.064522918
0.064522918
0.064522918
0.064522918
0.064522918
0.064522918
0.064522918
0.064522918
0.064522918
0.064522918
0.064522918
0.06452292
0.064522953
0.064523202
0.064524205
0.064527481
0.064536262
0.064555473
0.064582014
0.064625915
0.064790471
0.065010233
0.064798287
0.064291311
0.064297117
0.064462475
0.064598061
0.064560502
0.064596579
0.064861423
0.065551619
0.066947849
0.068180201
0.067839633
0.066883339
0.066542455
0.066711113
0.066870853
0.066894571
0.066920649
0.066914216
0.066860294
0.066759815
0.066645333
0.066530391
0.066512017
0.066539306
0.066623793
0.066759329
0.06680297
0.066752528
0.066538806
0.066155265
0.0657657
0.065519058
0.065411779
0.065432743
0.065498911
0.06559475
0.06573819
0.065951279
0.066202132
0.066494166
0.06686143
0.067291686
0.06778784
0.06838887
0.069102651
0.069919763
0.070860901
0.071953214
0.073207284
0.0746392
0.076274135
0.078109113
0.080103686
0.082220254
0.08444145
0.086741094
0.089068404
0.091325426
0.093170773
0.60427488
0.063693657
0.064484592
0.064523081
0.064522954
0.064522925
0.064522919
0.064522918
0.064522918
0.064522918
0.064522918
0.064522918
0.064522918
0.064522918
0.064522918
0.064522918
0.064522918
0.064522918
0.064522918
0.064522918
0.064522918
0.064522918
0.064522918
0.064522918
0.06452292
0.064522955
0.064523211
0.064524238
0.064527592
0.064536559
0.064556043
0.064582725
0.064628179
0.064795727
0.065015488
0.064791987
0.064286694
0.064300237
0.06446519
0.064602736
0.064559444
0.064599526
0.064871602
0.06557588
0.066998759
0.068200527
0.067846524
0.066886414
0.066560587
0.066736647
0.066891023
0.066914104
0.066941238
0.066934413
0.066879369
0.066777761
0.066662658
0.066546785
0.066531749
0.066559872
0.066646775
0.066783371
0.06682294
0.06676782
0.066544602
0.066151546
0.065760617
0.06551677
0.065408067
0.065430143
0.065489439
0.065582689
0.065733075
0.065929575
0.066160557
0.066461298
0.066824373
0.067228196
0.067716085
0.068316588
0.069013145
0.06981409
0.070752145
0.071836525
0.073073624
0.074495205
0.076123841
0.077935735
0.079886798
0.081956664
0.084129919
0.086365615
0.088608098
0.090745991
0.6030779
0.063696313
0.06448482
0.064523081
0.064522954
0.064522925
0.064522919
0.064522918
0.064522918
0.064522918
0.064522918
0.064522918
0.064522918
0.064522918
0.064522918
0.064522918
0.064522918
0.064522918
0.064522918
0.064522918
0.064522918
0.064522918
0.064522918
0.064522918
0.06452292
0.064522956
0.064523221
0.064524275
0.064527714
0.064536887
0.064556656
0.064583443
0.064630721
0.064801457
0.065020737
0.064784115
0.064281757
0.064303941
0.064468189
0.064607459
0.064557956
0.064602831
0.064882675
0.065602513
0.067055091
0.068219074
0.067850684
0.066888003
0.066578802
0.066762647
0.066911412
0.06693365
0.066961604
0.066954155
0.066897765
0.066795584
0.066679193
0.066562622
0.066550571
0.066579752
0.066669699
0.066807297
0.066841659
0.06678139
0.066547149
0.06614424
0.065753211
0.065509897
0.065403601
0.065424544
0.065478124
0.065571457
0.065713885
0.065894466
0.066133754
0.066438324
0.066770516
0.067159887
0.067654042
0.068242261
0.068915311
0.069712328
0.070649009
0.07171709
0.072941109
0.074362577
0.075982397
0.077760623
0.079669149
0.081700853
0.083824666
0.085986899
0.088142724
0.60166978
0.063699438
0.064485088
0.064523081
0.064522954
0.064522925
0.064522919
0.064522918
0.064522918
0.064522918
0.064522918
0.064522918
0.064522918
0.064522918
0.064522918
0.064522918
0.064522918
0.064522918
0.064522918
0.064522918
0.064522918
0.064522918
0.064522918
0.064522918
0.06452292
0.064522958
0.064523232
0.064524316
0.06452785
0.064537248
0.06455731
0.064584163
0.064633559
0.064807661
0.065025931
0.064774657
0.064276551
0.064308248
0.06447153
0.064612146
0.064556078
0.064606537
0.064894637
0.065631446
0.067116994
0.068235429
0.067851724
0.066887882
0.066597227
0.066789077
0.066932163
0.066953156
0.066981629
0.066973602
0.066915828
0.066813436
0.066694636
0.066578062
0.066568576
0.066599236
0.066692455
0.066830257
0.066858996
0.066793062
0.066546618
0.066134129
0.065742936
0.065501052
0.065397981
0.065416845
0.065465715
0.065557387
0.065691182
0.065871058
0.066113304
0.066389097
0.066703995
0.067104305
0.067594569
0.068152777
0.068817364
0.069619991
0.070543169
0.071591883
0.072816305
0.07424
0.075837275
0.077577634
0.079456058
0.081455624
0.083520698
0.085603971
0.087682394
0.60005834
0.063703016
0.064485392
0.06452308
0.064522954
0.064522925
0.064522919
0.064522918
0.064522918
0.064522918
0.064522918
0.064522918
0.064522918
0.064522918
0.064522918
0.064522918
0.064522918
0.064522918
0.064522918
0.064522918
0.064522918
0.064522918
0.064522918
0.064522918
0.06452292
0.06452296
0.064523245
0.064524362
0.064527999
0.064537642
0.064558007
0.064584877
0.064636707
0.064814333
0.065031015
0.064763605
0.064271155
0.064313146
0.064475294
0.06461675
0.064554018
0.064610718
0.064907606
0.065662774
0.067184822
0.068248811
0.067849203
0.066886277
0.066615887
0.066815684
0.066953294
0.06697277
0.067001426
0.066993082
0.066933917
0.066830552
0.066709013
0.066592565
0.066585967
0.066618708
0.066715608
0.066852346
0.066874859
0.066802327
0.066542461
0.066120812
0.065730036
0.065490677
0.065390543
0.065405942
0.065452081
0.06554025
0.065667902
0.06584599
0.066072121
0.066333935
0.066656616
0.067056615
0.067514492
0.068059814
0.068737214
0.06953334
0.070428838
0.071472158
0.072706422
0.074119978
0.075685035
0.077399876
0.079259239
0.081217267
0.083210299
0.085222792
0.59825171
0.063707029
0.064485732
0.06452308
0.064522954
0.064522925
0.064522919
0.064522918
0.064522918
0.064522918
0.064522918
0.064522918
0.064522918
0.064522918
0.064522918
0.064522918
0.064522918
0.064522918
0.064522918
0.064522918
0.064522918
0.064522918
0.064522918
0.064522918
0.06452292
0.064522963
0.064523259
0.064524412
0.064528161
0.064538071
0.064558746
0.064585588
0.064640172
0.064821473
0.065035925
0.064750962
0.064265678
0.06431862
0.064479442
0.064621263
0.064552023
0.064615545
0.064921827