/*--------------------------------*- C++ -*----------------------------------*\
| =========                 |                                                 |
| \\      /  F ield         | OpenFOAM: The Open Source CFD Toolbox           |
|  \\    /   O peration     | Version:  2506                                  |
|   \\  /    A nd           | Website:  www.openfoam.com                      |
|    \\/     M anipulation  |                                                 |
\*---------------------------------------------------------------------------*/
FoamFile
{
    version     2.0;
    format      ascii;
    arch        "LSB;label=32;scalar=64";
    class       volVectorField;
    location    "0.023";
    object      U;
}
// * * * * * * * * * * * * * * * * * * * * * * * * * * * * * * * * * * * * * //

dimensions      [0 1 -1 0 0 0 0];

internalField   nonuniform List<vector> 
13761
(
(91.039903 23.532503 -1.3776433e-17)
(91.070124 24.688941 -2.994564e-23)
(91.348185 23.709099 9.4131964e-18)
(91.005071 24.528222 0)
(91.459038 23.792836 0)
(91.22437 24.180268 0)
(91.852687 23.468378 0)
(92.278077 23.149331 -1.2353985e-21)
(93.35053 22.286739 6.2210159e-24)
(94.080012 21.874726 1.6761234e-21)
(94.048038 22.280966 -7.9682253e-18)
(92.608349 23.826602 -9.2720405e-18)
(91.082467 25.282347 2.6188035e-21)
(91.425096 24.990164 6.2357162e-18)
(93.284813 23.684801 0)
(93.657355 23.53882 0)
(93.179558 24.056886 0)
(93.935276 23.775463 0)
(94.604914 23.58153 6.3749555e-18)
(94.642566 23.889955 -7.3320912e-18)
(95.283981 23.855581 8.4167166e-18)
(95.826807 23.909449 4.826453e-18)
(96.218702 24.151906 0)
(96.880159 24.264691 6.6565805e-23)
(97.43837 24.507669 -3.5188401e-21)
(98.0577 24.780937 4.0137934e-21)
(98.742004 25.067917 -4.6737655e-18)
(99.417231 25.438422 0)
(100.16424 25.828 0)
(100.92714 26.280967 -6.8137729e-18)
(101.73448 26.778679 0)
(102.58019 27.323641 4.3433816e-18)
(103.46101 27.922253 -4.7729875e-21)
(104.38632 28.565497 -2.7472167e-18)
(105.34604 29.2657 -3.0865424e-18)
(106.34651 30.017642 3.3805934e-21)
(107.39032 30.813495 3.8696907e-18)
(108.47888 31.650047 -4.3263365e-18)
(109.61092 32.534416 4.7120146e-21)
(110.78636 33.462548 0)
(112.00631 34.433051 -5.8201287e-21)
(113.27393 35.441693 3.3190535e-18)
(114.59182 36.482558 1.8363834e-18)
(115.9622 37.550591 0)
(91.038719 23.531375 6.6584318e-18)
(91.069694 24.689616 7.7907318e-18)
(91.348828 23.709945 9.1062251e-18)
(91.004607 24.527895 1.0640853e-17)
(91.459203 23.794739 0)
(91.22251 24.181366 0)
(91.849247 23.473704 8.4446248e-18)
(92.271716 23.15633 0)
(93.344391 22.296624 0)
(94.079948 21.880478 0)
(94.060765 22.277531 0)
(92.625386 23.814158 0)
(91.091474 25.277342 -5.2265514e-18)
(91.410776 25.000462 -1.2118433e-17)
(93.275072 23.698045 0)
(93.66463 23.541181 1.9790429e-21)
(93.181077 24.060225 -4.5605951e-21)
(93.927986 23.785161 -5.3877401e-18)
(94.605799 23.588905 -6.2135027e-18)
(94.64121 23.896837 -1.7520057e-21)
(95.278919 23.865833 -8.2168708e-18)
(95.824691 23.919235 2.3023078e-21)
(96.213951 24.162551 0)
(96.874654 24.277257 -6.1809003e-18)
(97.432532 24.52067 3.4470417e-21)
(98.04997 24.795408 0)
(98.733391 25.083726 4.5841823e-18)
(99.406965 25.455545 -2.5444581e-21)
(100.15239 25.846831 0)
(100.91355 26.3014 3.3483771e-18)
(101.7188 26.801003 3.7871377e-18)
(102.56232 27.347969 4.265057e-21)
(103.44059 27.948774 -7.1731176e-24)
(104.36318 28.594436 2.7038342e-18)
(105.31994 29.297252 -3.0434882e-18)
(106.31722 30.052149 0)
(107.3576 30.851263 1.5275558e-22)
(108.44261 31.691413 4.2763779e-18)
(109.57096 32.579784 -2.386382e-18)
(110.74227 33.512313 -2.65925e-18)
(111.95782 34.487663 2.9588327e-18)
(113.22105 35.501908 0)
(114.53436 36.549032 -3.6540306e-18)
(115.90001 37.624067 7.9018011e-21)
(91.037569 23.530224 -6.4380254e-18)
(91.069233 24.690324 -1.8360385e-21)
(91.349478 23.710814 -8.8028814e-18)
(91.004137 24.527558 -1.029426e-17)
(91.459374 23.796696 6.0101218e-18)
(91.220705 24.182508 -1.711364e-21)
(91.845926 23.479236 2.0993152e-22)
(92.265544 23.163636 0)
(93.338378 22.306942 5.5406469e-18)
(94.079789 21.886506 6.4436275e-18)
(94.073049 22.273887 0)
(92.642031 23.80109 0)
(91.100354 25.271881 5.0792892e-18)
(91.397013 25.011178 5.8810948e-18)
(93.265419 23.711931 6.8012281e-18)
(93.671758 23.543611 7.8667308e-18)
(93.182705 24.063555 1.4400638e-25)
(93.920803 23.795197 5.2504214e-18)
(94.606566 23.596497 2.9578627e-21)
(94.63989 23.90386 6.9732346e-18)
(95.273849 23.87637 -8.0160951e-18)
(95.822495 23.92926 0)
(96.209184 24.173438 2.5744281e-21)
(96.869083 24.290118 -2.9513589e-21)
(97.426624 24.533948 0)
(98.042172 24.81018 -3.9407344e-18)
(98.724683 25.099851 0)
(99.396606 25.472989 0)
(100.14044 25.865999 2.8315466e-21)
(100.89984 26.322173 -3.2144334e-21)
(101.70298 26.823673 -7.4478225e-18)
(102.5443 27.372646 -4.2081805e-18)
(103.41999 27.975645 0)
(104.33986 28.623727 2.6733539e-18)
(105.29363 29.329152 3.0056138e-18)
(106.2877 30.086996 0)
(107.32463 30.889365 -3.784067e-18)
(108.40606 31.733107 -8.4545399e-18)
(109.53069 32.625463 2.366516e-18)
(110.69767 33.562262 5.2629246e-18)
(111.909 34.542556 -5.5508209e-21)
(113.16774 35.562363 6.3764662e-21)
(114.47639 36.615713 1.8100482e-18)
(115.83724 37.697714 0)
(117.25293 38.801709 2.2131159e-18)
(91.036414 23.529038 1.2444148e-17)
(91.068742 24.691066 -7.2836813e-18)
(91.350147 23.711707 -2.0826507e-21)
(91.00365 24.52721 0)
(91.459544 23.798706 1.7412854e-23)
(91.218865 24.183667 0)
(91.842497 23.48491 -7.9184288e-18)
(92.259163 23.171142 2.2462172e-21)
(93.332083 22.317592 -5.3715203e-18)
(94.079497 21.892815 -6.2450015e-18)
(94.085601 22.270244 -3.5571716e-21)
(92.659363 23.787691 -8.4664687e-18)
(91.109611 25.266082 4.92784e-18)
(91.382953 25.022067 -5.7150659e-18)
(93.255196 23.726299 -6.6085125e-18)
(93.679064 23.546213 -7.6523149e-18)
(93.184493 24.066886 2.1584211e-21)
(93.913347 23.805471 0)
(94.607268 23.604332 0)
(94.638579 23.911019 -1.6572109e-21)
(95.268576 23.887146 1.5634237e-17)
(95.820199 23.939528 0)
(96.204283 24.184541 -5.1535197e-18)
(96.863312 24.303248 -5.9038866e-18)
(97.420538 24.547484 6.7546519e-18)
(98.034143 24.825218 3.857695e-18)
(98.715725 25.116258 0)
(99.385968 25.490714 0)
(100.12817 25.885461 0)
(100.88579 26.343239 -3.2278897e-18)
(101.68678 26.846637 7.3138019e-18)
(102.52587 27.397618 5.7077181e-24)
(103.39895 28.002807 4.5680238e-21)
(104.31604 28.653302 7.7569518e-23)
(105.26679 29.361327 0)
(106.2576 30.12211 0)
(107.29103 30.927721 0)
(108.36885 31.775047 4.1813252e-18)
(109.48963 32.67133 0)
(110.65227 33.612367 -2.6081641e-18)
(111.85933 34.597616 -2.9062958e-18)
(113.11352 35.62295 -6.307208e-21)
(114.41742 36.682491 1.803371e-18)
(115.77339 37.771423 0)
(117.18411 38.883151 -4.4239488e-18)
(91.035255 23.527815 -6.0150095e-18)
(91.068219 24.691846 1.4089113e-17)
(91.350838 23.712626 0)
(91.003149 24.526849 -9.6345968e-18)
(91.459712 23.800769 -5.6282004e-18)
(91.216992 24.184844 -6.5732206e-18)
(91.838963 23.490731 7.6695297e-18)
(92.25258 23.178856 0)
(93.325507 22.328588 2.5357735e-21)
(94.079063 21.89942 -2.9613682e-21)
(94.098399 22.266601 0)
(92.677379 23.773945 1.6430176e-17)
(91.119252 25.259925 -4.7808778e-18)
(91.368641 25.033141 5.5467252e-18)
(93.244378 23.741167 3.1499289e-21)
(93.686541 23.548997 -1.8188298e-21)
(93.186452 24.070214 2.0993282e-21)
(93.905618 23.815991 0)
(94.607895 23.612421 0)
(94.637283 23.918318 0)
(95.263096 23.898168 -7.6231046e-18)
(95.817799 23.950047 1.1946232e-24)
(96.199249 24.195868 5.0369308e-18)
(96.857337 24.316656 5.7689062e-18)
(97.41427 24.561287 -6.6084351e-18)
(98.025882 24.840533 3.6847174e-21)
(98.706513 25.13296 -4.2100821e-21)
(99.37505 25.508734 -2.3960192e-21)
(100.11559 25.905229 5.5887406e-18)
(100.87139 26.364612 3.1721935e-18)
(101.6702 26.869911 -3.5968197e-18)
(102.50702 27.422899 -3.9730207e-21)
(103.37745 28.030274 4.4961376e-21)
(104.29173 28.683181 -2.6001414e-18)
(105.23941 29.393797 8.5641745e-21)
(106.22691 30.157508 -5.7971511e-24)
(107.2568 30.966353 -7.2026373e-21)
(108.331 31.817258 -4.1286357e-18)
(109.44771 32.717366 0)
(110.60614 33.662704 0)
(111.80882 34.652867 0)
(113.05837 35.683697 -6.2525813e-21)
(114.35745 36.749397 -1.7749573e-18)
(115.70844 37.845225 -1.9706307e-18)
(117.1141 38.964652 -8.7542688e-21)
(91.034093 23.526554 0)
(91.067663 24.692665 3.098005e-23)
(91.35155 23.713571 7.9661762e-18)
(91.002632 24.526476 9.3207764e-18)
(91.45988 23.802887 0)
(91.215087 24.186039 -7.0399468e-23)
(91.835322 23.496702 -7.4260096e-18)
(92.245788 23.186783 2.1161235e-21)
(93.318633 22.33994 -2.4569601e-21)
(94.078474 21.906336 2.8704704e-21)
(94.111442 22.262967 -6.8359523e-18)
(92.696108 23.759849 -7.9684944e-18)
(91.129299 25.25339 -2.2568986e-21)
(91.354116 25.044405 5.3861402e-18)
(93.232908 23.756544 3.0600081e-21)
(93.694188 23.551975 1.7677956e-21)
(93.188597 24.073536 4.1856418e-18)
(93.897607 23.826761 0)
(94.608438 23.620772 0)
(94.636007 23.925764 0)
(95.257401 23.909441 7.4315006e-18)
(95.815288 23.960825 -2.0880423e-21)
(96.194078 24.207426 -2.3966973e-21)
(96.851148 24.330351 2.8818186e-24)
(97.407816 24.575368 6.3053649e-21)
(98.017381 24.856134 -3.7379452e-24)
(98.697037 25.149966 -4.122111e-21)
(99.363841 25.527058 2.3478143e-21)
(100.10267 25.925315 -5.4806166e-18)
(100.85664 26.386305 3.1134712e-18)
(101.65322 26.893508 -3.5331587e-18)
(102.48775 27.448505 0)
(103.35548 28.058063 4.5269214e-18)
(104.26691 28.713379 -4.9869398e-21)
(105.21147 29.426578 5.6301255e-21)
(106.19563 30.193211 0)
(107.22193 31.00528 -3.6443721e-18)
(108.29249 31.859763 -1.8620727e-22)
(109.40495 32.763609 4.4684959e-21)
(110.55922 33.713284 0)
(111.75744 34.708331 5.5613579e-21)
(113.00229 35.744628 -1.5744934e-23)
(114.29647 36.816457 -1.7742125e-18)
(115.6424 37.91915 3.9265262e-18)
(117.04289 39.046242 2.1693121e-18)
(91.032929 23.525253 5.6190563e-18)
(91.067071 24.693525 -6.5868422e-18)
(91.352286 23.714542 -7.7049254e-18)
(91.002098 24.526091 -9.0172703e-18)
(91.460046 23.805059 0)
(91.21315 24.187252 6.1587567e-18)
(91.83157 23.502823 0)
(92.238782 23.194927 8.3850015e-18)
(93.31145 22.351658 -2.380475e-21)
(94.077716 21.913577 5.6914182e-18)
(94.124719 22.259351 6.6267845e-18)
(92.715572 23.745395 7.7320479e-18)
(91.139769 25.246457 0)
(91.339436 25.055872 -5.2338314e-18)
(93.220721 23.772438 6.0648557e-18)
(93.702004 23.555163 -7.0274128e-18)
(93.190939 24.076849 -4.0717591e-18)
(93.889306 23.837787 0)
(94.608885 23.629395 2.6579273e-21)
(94.634756 23.933361 -3.0658465e-21)
(95.251481 23.920974 -1.448219e-17)
(95.812661 23.971873 4.1685822e-18)
(96.188768 24.219223 0)
(96.844738 24.344342 2.6864317e-21)
(97.401168 24.589735 -3.0824922e-21)
(98.008632 24.872033 -3.6125406e-18)
(98.687291 25.167289 4.0306185e-21)
(99.352334 25.545699 -4.6047094e-21)
(100.08942 25.945732 -5.3730141e-18)
(100.84152 26.40833 -3.0487347e-18)
(101.63583 26.917441 6.9352671e-18)
(102.46803 27.474448 -3.9336577e-18)
(103.33304 28.086188 -4.4567595e-18)
(104.24157 28.743911 5.0361919e-18)
(105.18298 29.459688 -2.8322639e-18)
(106.16374 30.229234 3.1895457e-18)
(107.1864 31.044522 3.5961845e-18)
(108.25331 31.902576 4.032202e-18)
(109.36136 32.810093 -8.8237776e-21)
(110.51147 33.764128 4.940982e-21)
(111.70517 34.764031 0)
(112.94525 35.805769 0)
(114.23445 36.883698 1.7451377e-18)
(115.57524 37.993226 -1.9400552e-18)
(116.97048 39.12795 -2.1622525e-18)
(91.031765 23.52391 -1.0870481e-17)
(91.066442 24.694429 1.5520821e-21)
(91.353046 23.71554 -3.6450027e-21)
(91.001549 24.525693 8.7236621e-18)
(91.460211 23.807287 -5.0963731e-18)
(91.211182 24.188482 5.9614102e-18)
(91.827707 23.509097 -1.6969756e-21)
(92.231558 23.203292 -8.1207035e-18)
(93.303942 22.363752 -4.7297411e-18)
(94.076774 21.921158 -5.5158563e-18)
(94.138223 22.25576 6.4290584e-18)
(92.735794 23.730578 -1.4995491e-17)
(91.150694 25.239108 4.3704774e-18)
(91.324664 25.067554 0)
(93.207737 23.788852 -1.1768393e-17)
(93.709983 23.558576 6.8217244e-18)
(93.193495 24.080148 7.9204986e-18)
(93.880707 23.849074 -4.5799528e-18)
(94.609224 23.638302 0)
(94.633536 23.941113 -2.9844232e-21)
(95.245329 23.932772 1.4118557e-17)
(95.809911 23.9832 -4.0684836e-18)
(96.183317 24.231268 4.6774168e-18)
(96.838099 24.358638 0)
(97.394322 24.604399 0)
(97.999629 24.888237 3.5322075e-18)
(98.677266 25.184939 0)
(99.340521 25.564668 -4.5043423e-21)
(100.07582 25.966491 5.2656637e-18)
(100.82602 26.430701 3.0020207e-18)
(101.61803 26.941724 -3.405509e-18)
(102.44786 27.500745 3.8606221e-18)
(103.3101 28.114665 -4.2716945e-21)
(104.2157 28.774793 -4.9459767e-18)
(105.1539 29.493144 2.7892631e-18)
(106.13121 30.265596 -6.2936751e-18)
(107.15019 31.084099 0)
(108.21338 31.945701 0)
(109.31698 32.856866 4.3544911e-21)
(110.46288 33.815258 -2.5038484e-18)
(111.65199 34.81999 5.4481694e-21)
(112.88723 35.867145 -6.0947641e-21)
(114.17139 36.951147 0)
(115.50695 38.06748 7.5344865e-21)
(116.89684 39.209806 2.1373916e-18)
(118.34215 40.372568 2.3802089e-18)
(91.030603 23.522524 1.0507505e-17)
(91.065773 24.69538 6.0037607e-21)
(91.353831 23.716565 -3.5257101e-21)
(91.000983 24.525284 -2.0575619e-21)
(91.460375 23.809572 4.9365053e-18)
(91.209184 24.189729 -5.7673892e-18)
(91.823729 23.515526 -1.6519618e-21)
(92.22411 23.211883 -1.9224988e-21)
(93.296096 22.376234 4.5841749e-18)
(94.075633 21.929097 5.3404167e-18)
(94.15194 22.252202 -6.2269413e-18)
(92.75681 23.715394 7.2717614e-18)
(91.162104 25.231325 -4.2384528e-18)
(91.309858 25.079458 -4.9320017e-18)
(93.193872 23.805789 -4.7404992e-22)
(93.718117 23.562229 3.2434437e-21)
(93.196278 24.083429 -3.8708692e-21)
(93.871804 23.860626 4.4539496e-18)
(94.609443 23.647502 0)
(94.632353 23.949026 0)
(95.238936 23.944842 -6.8737934e-18)
(95.807031 23.994815 0)
(96.177722 24.243568 2.2760618e-21)
(96.831221 24.373248 -5.1232512e-21)
(97.38727 24.619371 2.9419115e-21)
(97.990364 24.904759 -3.4527992e-18)
(98.666952 25.202927 -3.9566131e-18)
(99.328392 25.583977 -4.5183348e-18)
(100.06186 25.987606 5.0384786e-21)
(100.81014 26.453429 -2.937697e-18)
(101.59981 26.966372 0)
(102.42723 27.527409 3.70348e-21)
(103.28666 28.143508 -4.2049132e-21)
(104.18927 28.806043 4.8750156e-18)
(105.12422 29.526961 -5.378126e-21)
(106.09805 30.302316 3.0975472e-18)
(107.11328 31.124027 6.8321476e-21)
(108.17268 31.989151 3.9290234e-18)
(109.27182 32.903966 0)
(110.41343 33.866695 2.470068e-18)
(111.59789 34.876234 2.7631493e-18)
(112.82822 35.928781 -6.0186979e-21)
(114.10725 37.018831 -1.706964e-18)
(115.4375 38.141941 -7.4912401e-21)
(116.82196 39.291839 2.1291449e-18)
(118.26177 40.463047 2.3725771e-18)
(91.029443 23.521094 -1.0164475e-17)
(91.065063 24.696379 5.9566205e-18)
(91.354643 23.717617 6.9721718e-18)
(91.0004 24.524863 0)
(91.460538 23.811914 0)
(91.207157 24.190992 -5.5879478e-18)
(91.819634 23.522112 3.190175e-21)
(92.216433 23.220703 0)
(93.287895 22.389115 0)
(94.074278 21.937411 1.1627428e-22)
(94.165856 22.248689 -6.0359266e-18)
(92.778668 23.699846 -7.054196e-18)
(91.17402 25.223086 0)
(91.295044 25.091583 4.7840165e-18)
(93.179053 23.823254 -4.8667429e-22)
(93.726399 23.566143 -6.4439482e-18)
(93.199304 24.086688 -1.2654534e-22)
(93.862591 23.87245 4.2350227e-21)
(94.609527 23.657008 0)
(94.631212 23.957106 -5.7983403e-18)
(95.232294 23.957191 0)
(95.804014 24.006728 -3.7707649e-21)
(96.17198 24.25613 -8.8969988e-18)
(96.824096 24.388183 2.6250329e-24)
(97.380005 24.634659 5.7434505e-21)
(97.980828 24.921608 3.3708597e-18)
(98.65634 25.221265 -5.8795873e-23)
(99.315938 25.603638 8.8439554e-18)
(100.04753 26.009088 5.0504337e-18)
(100.79385 26.47653 2.8101667e-21)
(101.58113 26.991397 -6.4024849e-21)
(102.40611 27.554455 3.6410061e-21)
(103.26269 28.172733 0)
(104.16228 28.837675 1.6129281e-22)
(105.09394 29.561158 0)
(106.06422 30.33941 -5.9649971e-21)
(107.07566 31.164327 1.0095984e-20)
(108.13123 32.032965 -7.3696605e-21)
(109.2258 32.951401 8.502591e-21)
(110.36309 33.91846 -4.7723909e-21)
(111.54283 34.932785 -2.7323738e-18)
(112.76819 35.990703 0)
(114.04202 37.086776 1.7104442e-18)
(115.36688 38.216637 -1.9058053e-18)
(116.7458 39.37408 -2.1116029e-18)
(118.18001 40.553705 -2.336338e-18)
(91.028288 23.519617 4.9153159e-18)
(91.064308 24.697429 -5.7633459e-18)
(91.355482 23.718696 -1.3488097e-17)
(90.999801 24.524431 -7.8996024e-18)
(91.460701 23.814314 0)
(91.205101 24.192271 5.4060322e-18)
(91.815421 23.528854 0)
(92.208523 23.229758 -7.377001e-18)
(93.279324 22.402406 0)
(94.072689 21.946117 1.2063703e-22)
(94.179954 22.24523 5.8540685e-18)
(92.801424 23.683938 6.8377319e-18)
(91.186454 25.214362 0)
(91.280213 25.103914 -4.6408107e-18)
(93.163245 23.841263 1.0770451e-17)
(93.734815 23.570337 6.2560006e-18)
(93.202589 24.089918 -1.4530978e-17)
(93.853062 23.884549 -6.1707394e-21)
(94.609459 23.66683 2.3832574e-21)
(94.630121 23.965357 1.128938e-17)
(95.225394 23.969824 -3.1862502e-21)
(95.800851 24.018951 -3.7664089e-18)
(96.166089 24.268964 4.342623e-18)
(96.816712 24.403451 4.9942218e-18)
(97.372521 24.650276 5.7424254e-18)
(97.971013 24.938795 0)
(98.64542 25.239965 3.7792576e-18)
(99.303149 25.623663 -4.3306421e-18)
(100.03282 26.030951 -4.9401359e-18)
(100.77716 26.500017 -2.7536596e-21)
(101.56201 27.016815 3.2180106e-18)
(102.3845 27.581898 -3.6568853e-18)
(103.23819 28.202357 0)
(104.13471 28.869707 -4.7077773e-18)
(105.06302 29.595751 0)
(106.02971 30.376896 0)
(107.0373 31.205016 -3.3951824e-18)
(108.08904 32.077172 -3.8227491e-18)
(109.17891 32.999189 -2.144475e-18)
(110.31183 33.970578 -2.415942e-18)
(111.48681 34.989667 0)
(112.70712 36.052935 0)
(113.97568 37.15501 0)
(115.29506 38.291596 -1.6100051e-22)
(116.66836 39.456558 0)
(118.09686 40.644572 -9.0760474e-21)
(91.02714 23.518091 0)
(91.063505 24.698533 5.5711538e-18)
(91.35635 23.719804 6.5235536e-18)
(90.999185 24.523986 -1.8880176e-21)
(91.460863 23.816773 4.3711097e-21)
(91.203017 24.193565 -2.5530452e-21)
(91.811086 23.535756 6.1189964e-18)
(92.200375 23.239051 -3.8818322e-21)
(93.270368 22.416119 4.1678031e-18)
(94.070849 21.955234 -4.8593619e-18)
(94.194214 22.241837 -5.6794436e-18)
(92.825136 23.667676 3.2239498e-21)
(91.199415 25.205125 1.8891663e-21)
(91.265328 25.116425 9.0106174e-18)
(93.146445 23.859846 -5.2339689e-18)
(93.743352 23.574832 2.9694376e-21)
(93.206149 24.093113 7.06103e-18)
(93.843213 23.896928 4.0933697e-18)
(94.609224 23.676982 2.3167458e-21)
(94.629085 23.973785 -5.494171e-18)
(95.218227 23.982749 -3.0979e-21)
(95.797532 24.031493 3.6692606e-18)
(96.160047 24.282077 0)
(96.80906 24.419063 -4.8737846e-18)
(97.364808 24.666232 -1.1209892e-17)
(97.96091 24.95633 6.288267e-21)
(98.634181 25.259038 -3.6975762e-18)
(99.290014 25.644065 4.1300363e-21)
(100.01771 26.053208 -4.7296691e-21)
(100.76004 26.523902 -2.7640853e-18)
(101.54241 27.042638 -3.1516275e-18)
(102.36239 27.609753 3.5877622e-18)
(103.21314 28.232394 -4.0776339e-18)
(104.10653 28.902154 0)
(105.03146 29.630758 2.6202015e-18)
(105.9945 30.414793 -5.7811396e-21)
(106.99817 31.246115 3.3509648e-18)
(108.04603 32.121786 -3.6765916e-21)
(109.13116 33.047367 4.0193024e-21)
(110.25964 34.02307 -1.5316865e-22)
(111.42978 35.046903 0)
(112.64498 36.115503 0)
(113.90819 37.223557 0)
(115.22202 38.366846 1.8556897e-18)
(116.58961 39.539301 8.1183608e-21)
(118.0123 40.735679 9.0027451e-21)
(119.49157 41.949679 1.2720501e-18)
(91.026002 23.516515 4.5937479e-18)
(91.062652 24.699694 -1.0778894e-17)
(91.357249 23.72094 -6.3104209e-18)
(90.998551 24.52353 1.7782228e-21)
(91.461024 23.819292 -2.1154364e-21)
(91.200907 24.194872 0)
(91.806627 23.542817 3.0835322e-21)
(92.191985 23.248586 6.918122e-18)
(93.261009 22.430265 -4.0409743e-18)
(94.068737 21.96478 -2.3009898e-21)
(94.208615 22.238523 5.5023926e-18)
(92.849855 23.651062 -6.430218e-18)
(91.212918 25.195343 3.6497721e-21)
(91.250355 25.129092 -4.3712898e-18)
(93.128669 23.879036 -5.0760533e-18)
(93.751995 23.579649 0)
(93.209999 24.096268 6.8596083e-18)
(93.833042 23.909593 -3.9784075e-18)
(94.608801 23.687475 -2.2528749e-21)
(94.628111 23.982396 -5.342856e-18)
(95.210787 23.995972 3.0199007e-21)
(95.794049 24.044366 0)
(96.15385 24.295478 0)
(96.801129 24.435028 0)
(97.35686 24.682538 5.4721423e-18)
(97.95051 24.974224 -6.1404041e-21)
(98.622611 25.278496 3.4666103e-21)
(99.276523 25.664855 4.0385857e-21)
(100.0022 26.075871 4.7275023e-18)
(100.74247 26.548201 5.413705e-18)
(101.52232 27.068882 -3.0828035e-18)
(102.33974 27.638035 0)
(103.18752 28.26286 4.002444e-18)
(104.07774 28.935034 0)
(104.99922 29.666195 -2.5759972e-18)
(105.95856 30.453118 2.9153488e-18)
(106.95827 31.287642 6.4260487e-21)
(108.00214 32.166808 -7.261784e-21)
(109.08261 33.095987 2.091026e-18)
(110.20648 34.075957 2.3502818e-18)
(111.37173 35.104519 0)
(112.58175 36.178432 -2.9545629e-18)
(113.83954 37.292446 1.652197e-18)
(115.14773 38.442415 -7.1953187e-21)
(116.50951 39.622341 2.0647347e-18)
(117.9263 40.827058 0)
(119.39962 42.050332 -2.5442832e-18)
(91.024875 23.514886 -2.6145354e-23)
(91.061747 24.700915 -5.1123214e-21)
(91.35818 23.722104 6.107445e-18)
(90.9979 24.523062 7.1544524e-18)
(91.461184 23.821871 4.1872775e-18)
(91.198772 24.196193 0)
(91.802041 23.550039 -5.7354345e-18)
(92.183348 23.258366 6.7032376e-18)
(93.251231 22.444855 3.8115165e-21)
(94.066332 21.974775 -4.4654102e-21)
(94.22313 22.235303 0)
(92.875633 23.634104 6.2349249e-18)
(91.226984 25.184984 -3.5395671e-21)
(91.235278 25.141894 -4.2414643e-18)
(93.109924 23.898866 9.8506845e-18)
(93.760722 23.584812 -2.0924135e-24)
(93.214157 24.099376 -6.6634484e-18)
(93.822548 23.922549 -3.8627925e-18)
(94.608173 23.698322 4.4831809e-18)
(94.627207 23.991195 2.5533007e-21)
(95.203064 24.0095 6.0149013e-18)
(95.79039 24.05758 -3.3974235e-21)
(96.147496 24.309176 0)
(96.792907 24.451356 4.6319447e-18)
(97.348666 24.699206 0)
(97.939804 24.992488 -3.0664627e-18)
(98.6107 25.298352 3.5193205e-18)
(99.262663 25.686048 4.2417615e-24)
(99.986261 26.098955 -4.6293354e-18)
(100.72446 26.572926 -2.6500313e-18)
(101.50174 27.095561 6.0525657e-18)
(102.31655 27.666759 3.3670401e-21)
(103.16131 28.293771 -3.9353219e-18)
(104.04831 28.968362 -4.4590579e-18)
(104.9663 29.702081 4.9406414e-21)
(105.92188 30.491889 -2.8731216e-18)
(106.91755 31.329614 0)
(107.95735 32.21226 0)
(109.03322 33.145084 0)
(110.15231 34.129255 0)
(111.31263 35.162538 -2.5996362e-18)
(112.5174 36.241747 2.9199476e-18)
(113.76969 37.361703 -6.2526567e-21)
(115.07216 38.518332 0)
(116.42805 39.705706 -4.0745198e-18)
(117.83883 40.91874 0)
(119.30609 42.151266 2.5239312e-18)
(91.023763 23.513203 -4.3003046e-18)
(91.060784 24.702198 5.0429603e-18)
(91.359144 23.723298 -5.9082688e-18)
(90.997231 24.522582 -6.9190055e-18)
(91.461344 23.82451 -4.0541972e-18)
(91.196613 24.197526 -1.5653328e-24)
(91.797326 23.557421 -5.5530576e-18)
(92.174461 23.268395 3.5431528e-21)
(93.241017 22.459902 -3.7955974e-18)
(94.063611 21.985239 2.1666828e-21)
(94.237733 22.232194 2.5218266e-21)
(92.902519 23.616804 -6.043509e-18)
(91.241639 25.174014 7.0611074e-18)
(91.220111 25.154816 4.1225253e-18)
(93.090189 23.919363 -4.785715e-18)
(93.769509 23.590342 0)
(93.21864 24.10243 0)
(93.811733 23.9358 3.7606962e-18)
(94.607316 23.709537 -8.7210177e-18)
(94.62638 24.000191 2.0170236e-23)
(95.195052 24.023339 -5.8532271e-18)
(95.786544 24.071148 3.3855193e-18)
(96.140983 24.323179 -3.8181437e-21)
(96.784385 24.468057 -4.5107301e-18)
(97.340218 24.716246 0)
(97.928782 25.011134 2.8696157e-21)
(98.598436 25.318618 -3.4193933e-24)
(99.248424 25.707655 -3.862801e-21)
(99.96989 26.122471 0)
(100.70598 26.598093 0)
(101.48063 27.122689 -5.9283303e-18)
(102.29281 27.695941 3.3004413e-21)
(103.13449 28.325144 7.7019814e-18)
(104.01823 29.002156 4.3817891e-18)
(104.93267 29.738433 0)
(105.88443 30.531126 0)
(106.87601 31.372051 -6.2255037e-21)
(107.91164 32.258168 3.6115445e-18)
(108.983 33.19469 7.9298414e-21)
(110.09707 34.182977 -8.9468572e-21)
(111.25245 35.220985 2.5713571e-18)
(112.4519 36.305475 0)
(113.69862 37.431356 -1.6157942e-18)
(114.99528 38.594626 0)
(116.34519 39.789428 4.0349449e-18)
(117.74985 41.010757 0)
(119.21095 42.252512 -1.251425e-18)
(91.022668 23.511464 0)
(91.059762 24.703548 4.8731462e-18)
(91.360144 23.724521 5.7158102e-18)
(90.996544 24.522091 1.3395972e-17)
(91.461504 23.827212 -3.8330725e-21)
(91.194432 24.19887 4.4821162e-21)
(91.792478 23.564965 5.3734999e-18)
(92.165321 23.278677 -6.2828408e-18)
(93.230348 22.475416 3.6691199e-18)
(94.060549 21.996192 0)
(94.252394 22.229213 0)
(92.930559 23.599169 1.1712299e-17)
(91.256914 25.162401 -6.8479454e-18)
(91.204883 25.167848 0)
(93.069427 23.940548 -2.2625036e-21)
(93.778326 23.596263 2.6394926e-21)
(93.223465 24.105422 0)
(93.8006 23.949351 3.5599298e-21)
(94.606208 23.721134 4.2323613e-18)
(94.625637 24.009388 4.916241e-18)
(95.186744 24.037495 5.6953356e-18)
(95.782498 24.085081 1.815744e-23)
(96.134309 24.337497 0)
(96.775548 24.485142 4.3962766e-18)
(97.331506 24.733672 -5.0708111e-18)
(97.917433 25.030173 5.8467271e-18)
(98.585804 25.339307 0)
(99.233792 25.72969 0)
(99.953069 26.146435 4.4314645e-18)
(100.68701 26.623716 0)
(101.45899 27.150283 5.804991e-18)
(102.26848 27.725596 0)
(103.10705 28.356994 1.3042902e-22)
(103.98747 29.036434 0)
(104.8983 29.775269 0)
(105.84619 30.570847 0)
(106.83361 31.414972 3.1390956e-18)
(107.865 32.304556 -3.5556134e-18)
(108.93192 33.244833 7.8304365e-21)
(110.04073 34.237143 -2.2564122e-18)
(111.19115 35.279884 4.9505234e-21)
(112.38521 36.369639 -2.8498363e-18)
(113.62628 37.50143 -6.2468452e-21)
(114.91707 38.671324 6.9722206e-21)
(116.26089 39.873536 -2.004959e-18)
(117.65935 41.103141 0)
(119.11416 42.354105 9.6762934e-21)
(91.021593 23.509666 0)
(91.058677 24.704966 3.3740197e-23)
(91.36118 23.725773 2.703331e-21)
(90.995838 24.521589 -1.2965298e-17)
(91.461663 23.829975 3.795307e-18)
(91.192229 24.200223 -2.1678824e-21)
(91.787494 23.572668 2.543627e-21)
(92.155926 23.289215 6.0846679e-18)
(93.219207 22.491411 0)
(94.05712 22.007656 0)
(94.267083 22.22638 -4.8514893e-18)
(92.9598 23.581206 -5.6771957e-18)
(91.272844 25.150108 -6.6396391e-18)
(91.18963 25.180977 -3.7619619e-21)
(93.047586 23.962438 -4.5027611e-18)
(93.787136 23.602597 2.5609369e-21)
(93.228655 24.108347 2.9753451e-21)
(93.789155 23.963208 -3.5430944e-18)
(94.604823 23.733125 -4.1175709e-18)
(94.624986 24.018795 -4.6657178e-21)
(95.178133 24.051975 -5.5405581e-18)
(95.778239 24.099391 -3.2079595e-18)
(96.12747 24.352139 0)
(96.766386 24.502621 -4.2921278e-18)
(97.32252 24.751494 4.9584586e-18)
(97.905748 25.049615 -2.857565e-18)
(98.572793 25.360431 3.2828975e-18)
(99.218756 25.752166 3.6830666e-21)
(99.935782 26.170859 -4.3360159e-18)
(100.66755 26.649808 0)
(101.4368 27.178356 -2.8412798e-18)
(102.24355 27.755741 -3.2468764e-18)
(103.07896 28.389339 1.3103379e-22)
(103.95601 29.071211 4.2195431e-18)
(104.86319 29.812607 0)
(105.80714 30.61107 -2.7238661e-18)
(106.79033 31.458396 -6.1742287e-18)
(107.8174 32.351449 -6.8147414e-21)
(108.8799 33.295527 7.7132894e-21)
(109.98335 34.291799 2.2242825e-18)
(111.12867 35.339255 4.8842735e-21)
(112.31731 36.434268 2.813646e-18)
(113.55266 37.571955 -1.5845858e-18)
(114.83747 38.748457 1.7747189e-18)
(116.17513 39.958061 -7.7315808e-21)
(117.56728 41.195923 0)
(119.0157 42.456079 0)
(120.52144 43.732616 -2.7262768e-18)
(91.020542 23.507807 -3.8828955e-18)
(91.057524 24.706457 -4.5642969e-18)
(91.362254 23.727056 5.3448204e-18)
(90.995113 24.521075 6.271368e-18)
(91.461822 23.832801 1.5693541e-23)
(91.190007 24.201583 4.197043e-21)
(91.78237 23.580531 -7.3818955e-21)
(92.146274 23.300012 -5.8891522e-18)
(93.207575 22.507896 0)
(94.053295 22.01965 0)
(94.281766 22.223719 4.7040965e-18)
(92.990287 23.562922 -2.6766414e-21)
(91.289464 25.1371 6.4386418e-18)
(91.174397 25.194193 -3.6490948e-21)
(93.024614 23.98505 8.7419828e-18)
(93.795894 23.609369 0)
(93.234232 24.111198 0)
(93.777407 23.977374 6.8901038e-18)
(94.603132 23.745526 4.0014742e-18)
(94.624436 24.028418 -4.5351461e-21)
(95.169214 24.066785 5.3974563e-18)
(95.773752 24.114091 -3.0506193e-21)
(96.120465 24.367115 0)
(96.756885 24.520503 4.0780504e-21)
(97.313249 24.769725 -4.7127384e-21)
(97.893715 25.069473 2.7818645e-18)
(98.559388 25.382003 -3.0649166e-21)
(99.203301 25.775096 3.6008394e-21)
(99.918015 26.195758 0)
(100.64756 26.676385 0)
(101.41404 27.206923 -2.7861516e-18)
(102.21801 27.78639 3.192223e-18)
(103.05021 28.422195 -3.6341208e-18)
(103.92382 29.106506 -8.2773216e-18)
(104.82729 29.850464 -4.6031875e-21)
(105.76725 30.651814 -1.3486779e-22)
(106.74615 31.502344 3.0291044e-18)
(107.76882 32.398867 1.3475869e-23)
(108.8268 33.346746 1.5174824e-20)
(109.92502 34.347037 -8.5718546e-21)
(111.06496 35.399111 -2.4696739e-18)
(112.24817 36.499389 -2.7721028e-18)
(113.47771 37.642957 3.1182932e-18)
(114.75647 38.826053 -3.5020241e-18)
(116.08787 40.043035 -7.6269493e-21)
(117.47361 41.289138 8.5462186e-21)
(118.91553 42.558469 -2.4369316e-18)
(120.41476 43.845202 -1.6763577e-22)
(91.019517 23.505885 7.5189947e-18)
(91.056299 24.708023 0)
(91.363369 23.728369 -5.1763805e-18)
(90.994368 24.52055 -6.0687022e-18)
(91.461982 23.835691 -3.5515499e-18)
(91.187767 24.20295 0)
(91.777105 23.588554 -4.8770628e-18)
(92.136364 23.311071 -5.7062724e-18)
(93.195435 22.524883 0)
(94.049045 22.032198 -3.8056534e-21)
(94.296411 22.221254 4.5560414e-18)
(93.022063 23.544326 5.3358122e-18)
(91.306814 25.123339 3.0340606e-21)
(91.15923 25.207482 0)
(93.00046 24.008399 5.6610248e-22)
(93.804546 23.616604 0)
(93.240225 24.113973 5.7542282e-18)
(93.765365 23.991854 1.9742432e-22)
(94.601105 23.758348 -3.8882912e-18)
(94.623996 24.038267 0)
(95.159982 24.081932 -4.945051e-21)
(95.769022 24.129193 5.9369175e-21)
(96.113292 24.382434 3.4334375e-21)
(96.747033 24.538799 -4.0732849e-18)
(97.303681 24.788378 0)
(97.881323 25.089759 -2.7128119e-18)
(98.545575 25.404036 -3.1264846e-18)
(99.187413 25.798495 0)
(99.89975 26.221146 0)
(100.62705 26.703462 4.7523273e-18)
(101.39068 27.236001 -5.3990251e-21)
(102.19183 27.817562 3.1073897e-18)
(103.02076 28.455579 6.9526567e-21)
(103.8909 29.142336 8.116442e-18)
(104.7906 29.888861 2.3111042e-18)
(105.7265 30.693099 2.6277746e-18)
(106.70103 31.546835 2.9889616e-18)
(107.71923 32.446831 -1.3204271e-20)