/*--------------------------------*- C++ -*----------------------------------*\
| =========                 |                                                 |
| \\      /  F ield         | OpenFOAM: The Open Source CFD Toolbox           |
|  \\    /   O peration     | Version:  2506                                  |
|   \\  /    A nd           | Website:  www.openfoam.com                      |
|    \\/     M anipulation  |                                                 |
\*---------------------------------------------------------------------------*/
FoamFile
{
    version     2.0;
    format      ascii;
    arch        "LSB;label=32;scalar=64";
    class       volVectorField;
    location    "0.022";
    object      U;
}
// * * * * * * * * * * * * * * * * * * * * * * * * * * * * * * * * * * * * * //

dimensions      [0 1 -1 0 0 0 0];

internalField   nonuniform List<vector> 
13761
(
(9.2720591 199.06283 1.2768268e-19)
(9.0004174 199.85712 -3.0776005e-22)
(8.7492712 200.59793 -1.4775675e-19)
(8.5171589 201.28829 1.646627e-19)
(8.3027297 201.93111 -1.7720669e-19)
(8.1046863 202.52928 -1.9365055e-19)
(7.9218189 203.08556 4.1611805e-19)
(7.7530193 203.60252 -2.0962463e-21)
(7.5972409 204.08269 -2.4740935e-19)
(7.453512 204.52848 2.6718325e-19)
(7.3209177 204.94217 1.0645933e-21)
(7.1986033 205.32583 -3.1500211e-19)
(7.0857648 205.68113 3.4132114e-19)
(6.981661 206.0088 -7.4074186e-19)
(6.8856454 206.30742 8.0303657e-19)
(6.7969729 206.56653 -8.7016295e-19)
(6.7127772 206.73159 4.7094107e-19)
(6.6295892 206.60822 5.0839283e-19)
(6.5462815 205.88516 -4.8616758e-22)
(6.4567679 204.39031 -5.8328828e-19)
(6.3543874 202.12208 -1.5277842e-22)
(6.2374984 199.15396 1.6230337e-22)
(6.1066754 195.5846 0)
(5.9629294 191.49977 -2.6731255e-22)
(5.8069742 186.95243 0)
(5.6387799 181.95617 -8.2264902e-19)
(5.45731 176.48366 1.7397181e-18)
(5.2603646 170.46578 -9.2308437e-19)
(5.0442823 163.78431 0)
(4.8032786 156.2514 1.0559592e-18)
(4.5285878 147.58173 -2.2864265e-18)
(4.2069825 137.34317 1.2507562e-18)
(3.8179927 124.86101 1.3830869e-18)
(3.3314187 109.12063 -1.7497677e-22)
(2.7146153 88.988118 -1.7100388e-18)
(1.9724227 64.673331 0)
(1.1792651 38.670789 5.9186651e-18)
(0.39496545 12.969761 -7.2132069e-18)
(6.6440397 187.92424 -1.1073337e-21)
(6.1092519 189.13896 0)
(5.6110146 190.28055 1.5930361e-23)
(5.1472434 191.35209 -1.4301259e-21)
(4.7159137 192.3567 7.7822074e-22)
(4.3150773 193.29747 0)
(3.9428285 194.17755 -9.0932833e-22)
(3.5973694 195 -1.2893548e-23)
(3.2769625 195.76786 5.4457988e-22)
(2.9799742 196.48411 -5.9205872e-22)
(2.7048211 197.15167 6.3493076e-22)
(2.4500313 197.77337 7.3273542e-29)
(2.2141815 198.35197 4.6088181e-26)
(1.9959375 198.89013 -4.1251705e-22)
(1.7940717 199.39033 -4.4807589e-22)
(1.6074172 199.85502 5.9015254e-26)
(1.4348843 200.28651 5.2819531e-22)
(1.2754428 200.687 3.8890871e-24)
(1.1281286 201.05849 -7.5356877e-26)
(0.99204009 201.40259 3.3743701e-22)
(0.86635973 201.72008 0)
(0.75039147 202.00986 0)
(0.64368975 202.26458 -4.270013e-22)
(0.54527534 202.44859 2.2955585e-22)
(0.45538276 202.42305 0)
(0.38100105 201.89945 1.3326485e-22)
(0.32524165 200.636 2.2036521e-24)
(0.28253227 198.57484 1.5235823e-22)
(0.24801951 195.77026 -3.2659698e-22)
(0.2187751 192.32184 1.6903129e-25)
(0.19289908 188.32602 1.3206709e-24)
(0.16930091 183.84853 -9.7114266e-23)
(0.14743388 178.914 1.0251239e-22)
(0.12705127 173.50334 0)
(0.10804715 167.55306 0)
(0.090358967 160.94882 -6.1374311e-23)
(0.073924099 153.50576 -2.5525122e-25)
(0.05866568 144.94167 -6.9918404e-23)
(0.044499716 134.82915 3.8362935e-23)
(0.031509785 122.50333 -4.3323109e-23)
(0.020461028 106.97441 1.8320444e-29)
(0.013228031 87.167521 5.2621789e-23)
(0.0084189144 63.344676 -4.4602781e-25)
(0.0042007336 37.908253 -3.0036046e-23)
(0.0015080901 12.73022 0)
(1.6256736 183.90495 -6.973428e-20)
(1.0228284 185.07088 -8.1760055e-20)
(0.45991945 186.16645 8.0069938e-20)
(-0.065200011 187.19463 1.4182416e-21)
(-0.55463108 188.15844 -1.0315695e-19)
(-1.010408 189.06088 2.1627356e-19)
(-1.4345347 189.90499 -1.1775482e-19)
(-1.8289088 190.69373 -1.2678672e-19)
(-2.1953757 191.43002 2.798082e-19)
(-2.5356847 192.11674 -1.5074687e-19)
(-2.8515371 192.75671 0)
(-3.1445214 193.35265 0)
(-3.4161809 193.90721 1.5256029e-21)
(-3.6679688 194.42297 -2.1012441e-19)
(-3.9012257 194.9023 2.2940621e-19)
(-4.1172317 195.34756 2.4731821e-19)
(-4.3171869 195.76099 -2.7039497e-19)
(-4.5022289 196.14468 -2.9286971e-19)
(-4.6734234 196.50057 3.1779967e-19)
(-4.8317617 196.83022 3.4407732e-19)
(-4.9781299 197.13439 -3.7388099e-19)
(-5.1132725 197.41224 0)
(-5.237539 197.65816 4.3844123e-19)
(-5.350929 197.84789 -9.5170384e-19)
(-5.4513355 197.88493 -1.842931e-22)
(-5.5268379 197.52618 5.5477627e-19)
(-5.5633017 196.48861 -1.1903783e-18)
(-5.5599302 194.64543 1.2716208e-18)
(-5.5227591 192.01787 1.6409961e-22)
(-5.4582158 188.69987 7.1847643e-19)
(-5.371794 184.79686 -7.6040406e-19)
(-5.267245 180.38822 9.7371453e-23)
(-5.1463894 175.51128 8.4809403e-19)
(-5.0092587 170.15682 -4.1917929e-22)
(-4.8542654 164.26842 -9.509783e-19)
(-4.6781473 157.7367 6.1390213e-23)
(-4.4754638 150.38079 0)
(-4.2378311 141.9226 0)
(-3.9525028 131.94069 0)
(-3.5995062 119.78223 -1.4144704e-18)
(-3.1487605 104.48653 1.5714048e-18)
(-2.5677566 85.046252 -1.0677688e-22)
(-1.8674744 61.781547 0)
(-1.1199346 36.996131 -1.9968278e-18)
(-0.37572861 12.436939 4.0793211e-25)
(-3.1523127 179.70571 0)
(-3.8181114 180.81782 -5.6263348e-23)
(-4.4407646 181.86246 1.7082483e-19)
(-5.0224791 182.84255 -3.6674273e-19)
(-5.5654291 183.76101 3.5776054e-21)
(-6.0717307 184.62072 2.1739351e-19)
(-6.5434811 185.42464 2.3595523e-19)
(-6.9826765 186.17562 -5.1377297e-19)
(-7.3912661 186.87647 5.5207831e-19)
(-7.7711073 187.52997 -5.2970377e-22)
(-8.124014 188.13883 -3.3029997e-19)
(-8.4516871 188.70565 0)
(-8.7557865 189.23301 -4.5758838e-21)
(-9.0378809 189.72334 -4.2290805e-19)
(-9.2994213 190.17896 2.3747091e-21)
(-9.5417988 190.6021 3.5041798e-21)
(-9.7663225 190.9949 1.0815037e-18)
(-9.9742356 191.35939 -1.1738541e-18)
(-10.166705 191.69742 6.3967543e-19)
(-10.344811 192.01046 6.9058075e-19)
(-10.50951 192.2993 -7.5260205e-19)
(-10.661596 192.56319 0)
(-10.801408 192.79761 8.8310953e-19)
(-10.928501 192.9851 -6.0463326e-22)
(-11.039917 193.05854 -1.0347655e-18)
(-11.121888 192.82633 1.1169032e-18)
(-11.150894 191.99874 -1.2004664e-18)
(-11.115129 190.38098 0)
(-11.017923 187.94567 0)
(-10.868232 184.77119 1.4566373e-18)
(-10.675541 180.96826 -1.5441347e-18)
(-10.44714 176.62993 1.6314481e-18)
(-10.187022 171.80775 -1.7240987e-18)
(-9.8957337 166.5041 6.6875685e-22)
(-9.5705372 160.67109 1.9314754e-18)
(-9.2052485 154.20553 -1.0293396e-18)
(-8.7892578 146.93148 -2.203811e-18)
(-8.3060749 138.57593 1.1904878e-18)
(-7.7306381 128.72465 0)
(-7.0240616 116.73894 1.7342039e-22)
(-6.1292142 101.69197 -1.5869125e-18)
(-4.9878205 82.653023 5.2519981e-18)
(-3.6242544 60.005955 -3.7898297e-18)
(-2.1736199 35.948434 -1.2346032e-22)
(-0.72988432 12.095021 0)
(-7.6778474 175.35048 1.4231189e-19)
(-8.4009865 176.40485 -1.408773e-19)
(-9.0779736 177.39484 0)
(-9.7110783 178.32327 0)
(-10.30255 179.19297 0)
(-10.85459 180.00675 6.8539029e-21)
(-11.369387 180.76744 7.4562129e-21)
(-11.849036 181.47779 -4.0549398e-21)
(-12.295589 182.14052 8.764474e-21)
(-12.711009 182.75828 0)
(-13.09722 183.33367 -5.2109657e-21)
(-13.456032 183.86919 0)
(-13.789217 184.36729 3.9098885e-19)
(-14.098452 184.83031 -4.2526593e-19)
(-14.385295 185.26046 -1.7913251e-21)
(-14.651241 185.65985 -1.9450869e-21)
(-14.8977 186.03055 5.4816679e-19)
(-15.126015 186.37446 -1.1836353e-18)
(-15.337446 186.69335 6.3998483e-19)
(-15.533157 186.98864 1.3489274e-21)
(-15.714167 187.26104 1.4630954e-21)
(-15.881312 187.50992 0)
(-16.034943 187.7314 -8.8628955e-19)
(-16.17444 187.91213 9.6110987e-19)
(-16.29653 188.0044 -1.0401399e-18)
(-16.387558 187.86313 1.124784e-18)
(-16.418297 187.22037 0)
(-16.363902 185.82974 0)
(-16.219915 183.60291 -1.386787e-18)
(-15.995382 180.5894 2.9543118e-18)
(-15.703558 176.89872 -1.5663354e-18)
(-15.356048 172.63623 8.1463493e-22)
(-14.960029 167.86883 4.2455681e-22)
(-14.517462 162.61229 -4.4888248e-22)
(-14.025158 156.82896 -3.9252366e-18)
(-13.474536 150.42317 5.7897675e-22)
(-12.850252 143.22505 5.2073208e-22)
(-12.128154 134.96766 7.2444761e-18)
(-11.271475 125.24524 -2.6323115e-18)
(-10.223567 113.43541 2.8959119e-18)
(-8.9028804 98.649964 -9.6169352e-18)
(-7.2309384 80.043203 1.0586483e-17)
(-5.2494873 58.064737 3.8131163e-18)
(-3.1489821 34.79688 -8.0795022e-18)
(-1.058179 11.716448 -3.7096395e-18)
(-11.117061 169.80529 8.1586461e-21)
(-11.942917 170.86278 0)
(-12.717583 171.85652 -1.9479024e-20)
(-13.443318 172.7891 1.0667685e-20)
(-14.12246 173.66328 0)
(-14.757338 174.48178 -6.321873e-21)
(-15.350235 175.24732 8.0232591e-23)
(-15.903435 175.96262 8.82904e-23)
(-16.419127 176.63033 -4.1190768e-21)
(-16.899464 177.25304 -5.6713094e-19)
(-17.34651 177.83331 6.1279437e-19)
(-17.762293 178.3736 -6.4125658e-23)
(-18.148727 178.8763 -7.2283462e-19)
(-18.507687 179.34375 7.8938158e-19)
(-18.840955 179.77817 0)
(-19.150183 180.18163 3.644355e-21)
(-19.436965 180.55618 0)
(-19.702805 180.90374 -6.4179504e-21)
(-19.949135 181.22613 0)
(-20.1773 181.52502 -1.2894879e-18)
(-20.38854 181.80173 2.7907022e-18)
(-20.583931 182.05694 -1.5155411e-18)
(-20.764341 182.29005 -1.6421439e-18)
(-20.930133 182.49761 2.6718219e-18)
(-21.080631 182.66882 -2.4263831e-21)
(-21.212509 182.76843 -5.3002263e-22)
(-21.313127 182.68822 -1.1336355e-18)
(-21.351416 182.19808 1.218358e-18)
(-21.29085 181.02672 -5.1425413e-22)
(-21.11456 179.02195 -1.4028929e-18)
(-20.82756 176.18958 -1.4967426e-18)
(-20.445507 172.62784 3.1772155e-18)
(-19.984704 168.45091 -4.0033483e-22)
(-19.456531 163.74131 -3.7754748e-22)
(-18.865423 158.5299 -1.8822481e-18)
(-18.208608 152.79107 -3.9899943e-18)
(-17.475778 146.43828 6.3706065e-18)
(-16.647399 139.30899 -2.2720015e-18)
(-15.692199 131.14349 -3.0515681e-22)
(-14.562427 121.54586 2.6678302e-18)
(-13.185014 109.91242 -2.9310263e-18)
(-11.457043 95.39872 0)
(-9.2859923 77.251993 -3.5557718e-18)
(-6.7347526 55.986744 3.8366569e-18)
(-4.0407011 33.560012 0)
(-1.3587241 11.307804 2.2630176e-22)
(-15.068626 165.27369 -2.6309341e-19)
(-15.942767 166.26506 2.694352e-19)
(-16.76313 167.1961 -2.9290702e-19)
(-17.532031 168.06934 -9.8422366e-21)
(-18.251881 168.88743 7.4198195e-19)
(-18.925086 169.65303 -3.9793418e-19)
(-19.554014 170.36875 -4.4586303e-19)
(-20.141039 171.03719 9.4117964e-19)
(-20.688443 171.66088 -5.123155e-19)
(-21.198471 172.24232 0)
(-21.673284 172.78391 -9.662329e-21)
(-22.115009 173.28802 6.729793e-19)
(-22.525652 173.75691 -7.2668556e-19)
(-22.907186 174.19277 0)
(-23.261487 174.59773 -6.7365845e-21)
(-23.590294 174.97373 -7.2725522e-21)
(-23.89529 175.3227 -1.010472e-18)
(-24.178061 175.64646 5.2057179e-21)
(-24.440122 175.94672 1.1965859e-18)
(-24.682892 176.22503 1.294942e-18)
(-24.907679 176.48265 -2.8026004e-18)
(-25.115609 176.72018 1.5189931e-18)
(-25.307574 176.93702 0)
(-25.483936 177.13002 -3.5157581e-21)
(-25.644002 177.28997 -1.9364903e-18)
(-25.784502 177.38962 2.1012991e-18)
(-25.894005 177.34758 2.2066517e-21)
(-25.942377 176.97552 -2.4542893e-18)
(-25.885269 176.00448 2.2639203e-21)
(-25.691178 174.22845 5.6689568e-18)
(-25.355961 171.59754 -6.0554813e-18)
(-24.894719 168.18534 3.2218441e-18)
(-24.327993 164.10825 3.4162117e-18)
(-23.672185 159.46317 -3.6169372e-18)
(-22.935344 154.29725 0)
(-22.116161 148.59883 -4.0570906e-18)
(-21.203444 142.29223 8.6333543e-18)
(-20.174159 135.2237 -4.6165423e-18)
(-18.990577 127.14215 -4.9738415e-18)
(-17.594828 117.6631 5.4088224e-18)
(-15.898992 106.20431 -5.9330105e-18)
(-13.782322 91.970689 1.947522e-22)
(-11.145008 74.309839 7.1664926e-18)
(-8.0742982 53.797161 4.7409365e-22)
(-4.845214 32.254034 -8.1651537e-18)
(-1.6302561 10.874832 7.5119377e-18)
(-17.783878 159.67157 -2.5720618e-19)
(-18.758804 160.65465 2.6467441e-19)
(-19.67523 161.57843 -2.6989807e-19)
(-20.535545 162.44539 3.0452235e-19)
(-21.342128 163.258 0)
(-22.097461 164.01883 3.6029583e-19)
(-22.804027 164.73044 -4.0567673e-19)
(-23.464276 165.39532 1.3859232e-20)
(-24.080669 166.01597 4.869357e-19)
(-24.655573 166.59481 -7.8000311e-22)
(-25.191322 167.13418 -5.6800634e-19)
(-25.690166 167.63638 6.2632798e-19)
(-26.154321 168.10364 -8.1994541e-22)
(-26.585878 168.5381 -7.2950083e-19)
(-26.986899 168.94182 -7.9173704e-19)
(-27.359342 169.3168 8.6759233e-19)
(-27.705027 169.66488 3.628991e-21)
(-28.025713 169.98785 1.0145663e-18)
(-28.323063 170.28741 1.1007236e-18)
(-28.598662 170.56517 -3.5938917e-18)
(-28.853995 170.82258 3.8941443e-18)
(-29.09043 171.06078 -2.8177511e-18)
(-29.309132 171.28033 -1.5273703e-18)
(-29.511013 171.48062 1.6570419e-18)
(-29.696421 171.65864 7.0160014e-21)
(-29.86464 171.80627 -1.9427596e-18)
(-30.012475 171.90133 -2.108622e-18)
(-30.129565 171.88112 4.5719412e-18)
(-30.188075 171.59498 -4.937793e-18)
(-30.140321 170.79602 5.3253465e-18)
(-29.941305 169.24488 -2.8593615e-18)
(-29.573247 166.83215 6.1245044e-18)
(-29.046155 163.59236 -7.952337e-22)
(-28.382986 159.63393 -3.4701209e-18)
(-27.605409 155.06447 -3.6750061e-18)
(-26.72616 149.94764 -3.3968721e-22)
(-25.746566 144.28732 4.1268006e-18)
(-24.655575 138.02057 -5.4601863e-22)
(-23.427513 131.00414 0)
(-22.019011 122.99713 0)
(-20.36313 113.62842 -8.4920325e-24)
(-18.358984 102.34043 -6.0070032e-18)
(-15.872118 88.393787 1.3215852e-17)
(-12.802682 71.243217 -1.4441059e-17)
(-9.2645503 51.517746 -9.1039452e-22)
(-5.5603132 30.892771 8.2049168e-18)
(-1.8719735 10.42238 2.349304e-22)
(-21.173815 155.05631 2.4296696e-19)
(-22.187305 155.96727 -2.488935e-19)
(-23.140167 156.82258 0)
(-24.034845 157.62467 0)
(-24.873781 158.37594 0)
(-25.659531 159.07886 -3.7346294e-19)
(-26.394652 159.73589 4.0710351e-19)
(-27.081671 160.3494 -1.3758957e-20)
(-27.72313 160.92178 0)
(-28.321476 161.45532 5.317372e-19)
(-28.879125 161.95224 -5.6112927e-19)
(-29.398408 162.4147 0)
(-29.881618 162.84481 0)
(-30.330927 163.24455 1.1498839e-20)
(-30.748473 163.61589 0)
(-31.136288 163.96067 1.7267568e-18)
(-31.496263 164.28061 -1.8773005e-18)
(-31.830224 164.57739 -8.0059449e-21)
(-32.139901 164.8526 4.3464616e-21)
(-32.426938 165.10772 0)
(-32.692881 165.34408 -2.610889e-18)
(-32.939144 165.56275 2.8232588e-18)
(-33.166929 165.7642 1.5394258e-18)
(-33.377156 165.94779 -8.4262251e-22)
(-33.570148 166.11062 -1.8073476e-18)
(-33.745149 166.24526 -7.6358171e-21)
(-33.899005 166.33286 2.1162276e-18)
(-34.022171 166.32335 -2.2939221e-18)
(-34.08939 166.09631 2.9266899e-23)
(-34.053194 165.43638 2.6332838e-21)
(-33.858874 164.09431 -4.2345334e-21)
(-33.472992 161.90852 -3.0935877e-18)
(-32.895282 158.8633 6.6104495e-18)
(-32.147627 155.046 -7.0308292e-18)
(-31.256125 150.56808 3.3801214e-21)
(-30.238903 145.50809 7.9123215e-18)
(-29.101111 139.88641 -4.1985026e-18)
(-27.833003 133.6546 -4.4651052e-18)
(-26.407307 126.68177 4.7694972e-18)
(-24.776036 118.73901 0)
(-22.86447 109.47091 5.5665671e-18)
(-20.561059 98.348456 -6.0831607e-18)
(-17.722468 84.695141 -8.0966625e-22)
(-14.256361 68.078408 7.2726895e-18)
(-10.30412 49.170028 9.2572167e-22)
(-6.1851767 29.489781 -1.6484522e-17)
(-2.0835564 9.9551546 7.5951449e-18)
(-23.19828 149.49825 0)
(-24.309285 150.39094 -3.0646467e-20)
(-25.35542 151.22936 5.1516114e-19)
(-26.339057 152.01584 -1.1603886e-18)
(-27.262702 152.75276 6.5262654e-19)
(-28.12886 153.44243 0)
(-28.940154 154.08723 1.1657691e-20)
(-29.699215 154.68951 0)
(-30.408641 155.25152 -8.8778955e-19)
(-31.071047 155.77553 9.6726268e-19)
(-31.688956 156.26369 -1.0589418e-18)
(-32.264856 156.7181 1.1352743e-18)
(-32.801148 157.14079 9.7649334e-21)
(-33.300199 157.53372 0)
(-33.764248 157.89875 -7.5708683e-19)
(-34.1955 158.2377 -7.9698286e-19)
(-34.596053 158.55229 1.7414244e-18)
(-34.967858 158.84412 -7.397419e-21)
(-35.3128 159.11474 -2.0367104e-18)
(-35.632665 159.36562 3.3186781e-18)
(-35.92915 159.59812 -3.6111985e-18)
(-36.20385 159.81348 2.6171078e-18)
(-36.458219 160.01266 -1.413437e-18)
(-36.693485 160.19603 3.0763721e-18)
(-36.910572 160.36292 -1.6699415e-18)
(-37.109765 160.5105 -3.5558752e-21)
(-37.290244 160.63178 -1.9621054e-18)
(-37.448841 160.71011 2.1253217e-18)
(-37.576565 160.70391 -2.2380097e-21)
(-37.650416 160.51545 -2.4973527e-18)
(-37.625148 159.96173 -4.4859279e-21)
(-37.440972 158.80272 5.8125175e-18)
(-37.050015 156.84117 -6.2465184e-18)
(-36.437625 154.00773 3.3387293e-18)
(-35.619786 150.35542 -1.7497143e-21)
(-34.624683 145.98938 -3.698449e-21)
(-33.475724 140.9988 -4.0195987e-18)
(-32.182832 135.42025 2.5741789e-21)
(-30.73879 129.22107 9.0860721e-18)
(-29.115928 122.28452 -4.8505479e-18)
(-27.262867 114.39581 0)
(-25.098711 105.21797 -5.6483167e-18)
(-22.504066 94.255281 6.1607828e-18)
(-19.332365 80.90205 0)
(-15.506346 64.84214 4.4437933e-22)
(-11.193961 46.775551 -7.8409486e-18)
(-6.7203941 28.058462 8.2772785e-18)
(-2.2651586 9.477783 7.6343871e-18)
(-24.844574 144.00616 0)
(-26.052975 144.87523 0)
(-27.192585 145.6916 3.0463237e-20)
(-28.265663 146.45751 0)
(-29.274637 147.17524 -5.9980506e-19)
(-30.222074 147.84709 -1.8643951e-20)
(-31.110541 148.47529 7.1315954e-19)
(-31.942726 149.06213 0)
(-32.721325 149.60983 0)
(-33.449002 150.12053 8.7680854e-19)
(-34.128441 150.59637 -9.856923e-19)
(-34.762228 151.03937 1.6566837e-20)
(-35.352916 151.45149 1.1467388e-18)
(-35.902971 151.83461 -1.2579269e-18)
(-36.414819 152.19058 -1.0649753e-20)
(-36.890759 152.52112 1.4848689e-18)
(-37.333055 152.8279 -1.3380434e-21)
(-37.743859 153.11251 -1.7542187e-18)
(-38.125173 153.37644 1.8966986e-18)
(-38.478932 153.62109 -1.3815464e-21)
(-38.80697 153.84783 1.6017117e-20)
(-39.111028 154.05791 -1.0855421e-20)
(-39.392739 154.25243 -2.6265365e-18)
(-39.653592 154.43227 5.5942288e-21)
(-39.894832 154.59771 0)
(-40.117377 154.74802 0)
(-40.321465 154.88041 7.0968933e-21)
(-40.506188 154.98817 -3.938624e-18)
(-40.668309 155.05611 5.5996688e-21)
(-40.799144 155.0484 4.6290221e-18)
(-40.87742 154.88364 0)
(-40.860765 154.40728 2.6310381e-21)
(-40.68817 153.39965 2.8398511e-21)
(-40.300991 151.6473 1.5281404e-21)
(-39.668693 149.03357 3.295788e-21)
(-38.796447 145.5678 1.7506584e-21)
(-37.71064 141.33673 1.8645607e-21)
(-36.438591 136.43302 0)
(-34.995339 130.90699 -2.1188173e-21)
(-33.377272 124.74211 -1.1343189e-21)
(-31.557609 117.83734 1.2113852e-21)
(-29.483024 109.99418 1.3012054e-21)
(-27.068414 100.89736 1.1465708e-17)
(-24.190008 90.090068 -1.2478381e-17)
(-20.704454 77.045759 0)
(-16.556665 61.565318 9.0518147e-22)
(-11.938 44.358859 0)
(-7.1683951 26.613898 5.1007651e-22)
(-2.417561 8.9954094 5.3055309e-24)
(-26.126633 138.60332 3.3105084e-19)
(-27.431733 139.44361 0)
(-28.664459 140.23287 2.8252834e-20)
(-29.826942 140.9733 0)
(-30.921496 141.6671 0)
(-31.950606 142.31649 1.816281e-20)
(-32.916897 142.92371 0)
(-33.822993 143.4909 1.9934539e-22)
(-34.671643 144.02023 0)
(-35.465603 144.51381 -8.2110026e-19)
(-36.207597 144.97366 9.0870077e-19)
(-36.900367 145.40178 -9.5727618e-19)
(-37.546556 145.80006 -4.8544841e-20)
(-38.148773 146.17032 1.1336037e-18)
(-38.709535 146.51432 9.826378e-21)
(-39.231322 146.83374 1.3599508e-18)
(-39.716482 147.13017 -1.4795404e-18)
(-40.167326 147.40516 0)
(-40.586053 147.66017 -1.7520347e-18)
(-40.974706 147.89653 1.8895377e-18)
(-41.335262 148.11556 2.0507924e-18)
(-41.669592 148.31848 -1.8753945e-20)
(-41.979472 148.50643 -2.4235891e-18)
(-42.266568 148.68041 1.0290952e-20)
(-42.532391 148.84117 5.8631765e-23)
(-42.778197 148.98893 0)
(-43.004889 149.12288 3.3621158e-18)
(-43.212651 149.24021 -3.6542576e-18)
(-43.400464 149.33444 7.7200543e-21)
(-43.564962 149.39134 4.2883548e-18)
(-43.697572 149.37896 -9.2898689e-18)
(-43.778189 149.22752 5.0343556e-18)
(-43.767141 148.80533 0)
(-43.604566 147.91675 0)
(-43.225452 146.34864 0)
(-42.584854 143.95052 -1.6533205e-21)
(-41.673759 140.68611 0)
(-40.512077 136.61276 0)
(-39.128223 131.81701 -8.2816177e-18)
(-37.541697 126.3581 1.929346e-21)
(-35.753107 120.23441 1.8793562e-17)
(-33.737775 113.36143 -1.0036788e-17)
(-31.442048 105.5591 -2.6299414e-21)
(-28.779004 96.537539 1.1638339e-17)
(-25.624697 85.885159 -1.0809237e-21)
(-21.846088 73.162594 -1.3745951e-17)
(-17.41601 58.283693 1.4842806e-17)
(-12.543668 41.947729 -1.5822366e-17)
(-7.5336979 25.172965 -5.0629365e-22)
(-2.5422408 8.5137367 -9.402253e-22)
(-28.460181 134.11747 7.5748471e-19)
(-29.785081 134.87473 -4.6590144e-19)
(-31.036372 135.58484 2.3034746e-22)
(-32.21624 136.24998 0)
(-33.327047 136.87234 0)
(-34.371335 137.45409 0)
(-35.351783 137.99736 0)
(-36.271067 138.50421 -2.1625725e-20)
(-37.13199 138.97671 0)
(-37.937363 139.41684 -2.5868793e-20)
(-38.689961 139.8265 2.8156588e-20)
(-39.392575 140.20754 0)
(-40.047898 140.56172 -1.044769e-18)
(-40.658583 140.89072 9.0131059e-22)
(-41.227193 141.19616 1.2660237e-18)
(-41.75625 141.47959 2.1324757e-20)
(-42.24814 141.74245 0)
(-42.705213 141.98616 0)
(-43.129704 142.21204 -1.7232924e-18)
(-43.523688 142.4213 1.9103144e-18)
(-43.889174 142.61513 8.0299193e-21)
(-44.228061 142.79464 8.7190148e-21)
(-44.542153 142.96084 -2.4348194e-18)
(-44.833138 143.11464 2.6386085e-18)
(-45.102542 143.25667 -1.1201507e-20)
(-45.351625 143.38706 0)
(-45.581266 143.50492 -3.3797172e-18)
(-45.79158 143.60743 3.6553552e-18)
(-45.981422 143.68819 -3.8529275e-21)
(-46.147246 143.73366 4.2941586e-18)
(-46.280418 143.71456 -4.6565763e-18)
(-46.361521 143.56929 -2.4524684e-21)
(-46.353019 143.18369 -5.4667473e-18)
(-46.1972 142.38506 5.9122199e-18)
(-45.826363 140.97097 0)
(-45.184588 138.77265 6.8596413e-18)
(-44.247895 135.71402 -1.471653e-17)
(-43.02562 131.81662 7.8691534e-18)
(-41.543422 127.15092 2.1273094e-23)
(-39.823389 121.77804 8.9490234e-18)
(-37.870208 115.7082 -1.9092404e-17)
(-35.66222 108.87319 2.0398292e-17)
(-33.14712 101.11313 -1.0943613e-17)
(-30.23895 92.167448 -1.1808374e-17)
(-26.818468 81.676468 1.2792289e-17)
(-22.770204 69.294195 -1.3868577e-17)
(-18.098368 55.037392 1.4930711e-17)
(-13.022315 39.572636 1.5884755e-17)
(-7.8231749 23.754075 -3.3476581e-17)
(-2.6414723 8.0390069 1.5467802e-17)
(-29.15414 128.91652 4.3286401e-20)
(-30.569577 129.63712 0)
(-31.908435 130.31223 1.0368295e-19)
(-33.172724 130.94405 -8.4990352e-20)
(-34.364684 131.53476 -3.0991817e-20)
(-35.486731 132.08651 0)
(-36.541456 132.6014 6.236617e-19)
(-37.531588 133.08151 -6.804787e-19)
(-38.459848 133.5288 -2.1875851e-20)
(-39.329085 133.94523 8.0637109e-19)
(-40.142151 134.33265 -8.2715762e-19)
(-40.901862 134.69284 -9.2705734e-19)
(-41.61105 135.02751 9.9458515e-19)
(-42.272445 135.33829 2.1617593e-18)
(-42.888736 135.62671 -2.2989698e-18)
(-43.46252 135.89426 -1.2980467e-18)
(-43.996352 136.14232 1.3480063e-18)
(-44.492649 136.37221 0)
(-44.953789 136.58522 1.6162729e-18)
(-45.382033 136.78251 -3.5264883e-18)
(-45.779484 136.96519 1.0627164e-21)
(-46.14817 137.13431 2.0727445e-18)
(-46.490012 137.29087 2.2495749e-18)
(-46.806833 137.43576 -2.4432767e-18)
(-47.100333 137.56977 -1.0404897e-20)
(-47.372049 137.69344 1.1235435e-20)
(-47.623232 137.8068 -3.120024e-18)
(-47.85473 137.90888 3.3977789e-18)
(-48.066578 137.9968 1.4333183e-20)
(-48.257483 138.06424 -3.9815037e-18)
(-48.423675 138.09807 4.3085932e-18)
(-48.556317 138.07085 -4.5427909e-21)
(-48.636286 137.92681 5.059909e-18)
(-48.627535 137.56494 -1.0965332e-17)
(-48.474584 136.8322 5.9334122e-18)
(-48.109416 135.54148 6.4069899e-18)
(-47.468989 133.51875 -1.3806988e-17)
(-46.515995 130.65882 7.4140609e-18)
(-45.246908 126.9473 -7.9483474e-18)
(-43.680753 122.43101 8.4926662e-18)
(-41.839359 117.16512 -9.0726899e-18)
(-39.73045 111.16698 9.6872927e-18)
(-37.335799 104.3832 -1.2703627e-21)
(-34.606051 96.675274 1.1108885e-17)
(-31.459294 87.815651 -2.3941591e-17)
(-27.786271 77.502697 -1.3469961e-21)
(-23.495555 65.486183 1.398706e-17)
(-18.622974 51.869066 0)
(-13.389052 37.265177 9.682149e-22)
(-8.0459508 22.376282 0)
(-2.7183061 7.577725 1.5523627e-17)
(-29.530896 123.85889 3.1905335e-19)
(-31.034428 124.5387 -3.4820465e-19)
(-32.458825 125.17454 7.1381179e-19)
(-33.805877 125.76866 -8.3131539e-19)
(-35.077666 126.32327 5.1077569e-19)
(-36.276497 126.84054 -2.368275e-22)
(-37.404846 127.32258 0)
(-38.465356 127.77147 -1.2134796e-18)
(-39.460803 128.18919 4.147953e-20)
(-40.393948 128.57763 1.4643759e-18)
(-41.267676 128.93863 -8.0818235e-19)
(-42.084873 129.27396 2.6618312e-20)
(-42.848381 129.58525 1.8039511e-18)
(-43.561058 129.87411 -9.971137e-19)
(-44.225655 130.142 -1.0837995e-18)
(-44.844884 130.39035 1.1616157e-18)
(-45.421361 130.62048 1.9641222e-20)
(-45.957659 130.83366 -1.3615165e-18)
(-46.456214 131.03106 1.4924873e-18)
(-46.91942 131.21381 0)
(-47.349556 131.38297 0)
(-47.748738 131.5395 0)
(-48.119011 131.68434 0)
(-48.462308 131.81835 -8.8537563e-21)
(-48.780464 131.94232 0)
(-49.075187 132.05692 -9.5733042e-23)
(-49.348015 132.16258 -5.6075615e-21)
(-49.600187 132.25924 -3.1289323e-18)
(-49.83251 132.34583 -1.2234894e-20)
(-50.044929 132.41941 3.673456e-18)
(-50.235983 132.47365 3.9929715e-18)
(-50.401633 132.4957 -4.32104e-18)
(-50.532728 132.4594 -4.6882841e-18)
(-50.610115 132.31313 1.0166183e-17)
(-50.598644 131.96568 -5.5019936e-18)
(-50.444695 131.27999 -5.9535123e-18)
(-50.081091 130.08494 6.4384278e-18)
(-49.440848 128.20982 -6.9361695e-18)
(-48.476276 125.53189 7.4711313e-18)
(-47.170904 122.006 -1.8637732e-23)
(-45.534323 117.65213 0)
(-43.585021 112.51287 -9.1768651e-18)
(-41.331998 106.60736 9.8186265e-18)
(-38.760353 99.894648 2.5636318e-21)
(-35.82514 92.258114 -1.314774e-23)
(-32.451688 83.506492 -1.2126443e-17)
(-28.545858 73.400413 2.6159108e-17)
(-24.044756 61.782035 -1.4094455e-17)
(-19.01229 48.817941 0)
(-13.661264 35.054044 0)
(-8.212653 21.057113 -1.6834616e-17)
(-2.7763649 7.1360054 3.114862e-17)
(-29.609466 118.96051 -7.2795831e-20)
(-31.19799 119.59627 3.1931413e-19)
(-32.705128 120.18936 -5.4851813e-22)
(-34.132488 120.74211 -3.3448636e-19)
(-35.481951 121.2568 -4.685254e-19)
(-36.755683 121.73563 5.1244979e-19)
(-37.956067 122.18077 -2.2712166e-22)
(-39.085647 122.5943 -5.7509593e-19)
(-40.14713 122.97821 5.90614e-19)
(-41.143344 123.33444 1.28576e-18)
(-42.077097 123.66479 -1.4458455e-18)
(-42.951314 123.971 -7.3882883e-19)
(-43.76891 124.25473 7.544853e-22)
(-44.532753 124.51752 9.3302124e-19)
(-45.245721 124.76084 -9.8351643e-19)
(-45.910579 124.98604 8.0001684e-22)
(-46.530046 125.19443 8.1356544e-22)
(-47.106746 125.38719 1.2861598e-18)
(-47.643254 125.56548 0)
(-48.142006 125.73035 0)
(-48.605398 125.88279 1.6377672e-18)
(-49.035705 126.02374 -3.5316799e-18)
(-49.435042 126.15405 8.7920169e-22)
(-49.805455 126.27453 2.08383e-18)
(-50.148874 126.38592 8.7977044e-21)
(-50.467131 126.48892 9.6351059e-21)
(-50.761933 126.58407 -2.6547216e-18)
(-51.034807 126.6717 2.8813134e-18)
(-51.286968 126.75164 0)
(-51.519175 126.82273 -5.9338301e-23)
(-51.731267 126.88193 3.6894063e-18)
(-51.921596 126.92288 -8.7795326e-21)
(-52.085815 126.93287 -8.67264e-18)
(-52.214357 126.88658 9.4029124e-18)
(-52.287791 126.73541 -5.0950608e-18)
(-52.271355 126.39546 -5.511441e-18)
(-52.112763 125.74231 5.9703518e-18)
(-51.746022 124.61952 -6.4577287e-18)
(-51.102333 122.86414 6.9678693e-18)
(-50.126711 120.34534 0)
(-48.79131 116.99516 1.9611066e-21)
(-47.095164 112.80796 0)
(-45.050934 107.80992 2.274254e-21)
(-42.666947 102.01732 9.9268819e-18)
(-39.931192 95.399006 -1.0632764e-17)
(-36.804443 87.860387 2.7841297e-21)
(-33.222424 79.248838 1.5037049e-21)
(-29.110425 69.38857 -1.6037764e-21)
(-24.435641 58.204437 -1.4189122e-17)
(-19.283533 45.901645 1.5030079e-23)
(-13.851921 32.950327 -1.0263103e-21)
(-8.3311826 19.803049 1.6875054e-17)
(-2.8183752 6.7161471 9.489912e-22)
(-29.410438 114.23412 -5.3551255e-19)
(-31.080353 114.82356 2.9262686e-19)
(-32.66701 115.37143 -3.2059141e-19)
(-34.171687 115.88013 0)
(-35.596094 116.35204 -3.824081e-19)
(-36.942212 116.78944 4.7057562e-19)
(-38.212298 117.19454 -5.6818564e-20)
(-39.408815 117.56948 5.28366e-19)
(-40.534382 117.91629 -5.0924624e-19)
(-41.59177 118.2369 6.2847116e-19)
(-42.583867 118.53317 -6.3505742e-22)
(-43.513531 118.8068 -1.3607509e-18)
(-44.383731 119.05944 7.4145907e-19)
(-45.197419 119.29263 0)
(-45.957496 119.50781 -9.6269553e-19)
(-46.666864 119.70631 9.8658303e-19)
(-47.328308 119.88939 1.0725158e-18)
(-47.944564 120.05822 -1.1855469e-18)
(-48.518266 120.21388 -1.2882449e-18)
(-49.051994 120.35738 1.3797987e-18)
(-49.548189 120.48967 1.4990025e-18)
(-50.009243 120.61163 -1.6295663e-18)
(-50.437429 120.72407 1.7835072e-18)
(-50.834854 120.82774 -1.9382762e-18)
(-51.203553 120.92335 -1.6381138e-20)
(-51.545446 121.01155 -2.2672523e-18)
(-51.86235 121.09291 8.8738919e-22)
(-52.155952 121.16789 2.6722925e-18)
(-52.427752 121.23672 1.1275736e-20)
(-52.678924 121.29914 0)
(-52.910152 121.35388 1.332213e-20)
(-53.12115 121.39783 3.6983655e-18)
(-53.310047 121.42453 6.9684432e-21)
(-53.472135 121.42131 -4.3430486e-18)
(-53.597328 121.36342 0)
(-53.665695 121.2044 -5.0085552e-21)
(-53.64244 120.86585 -5.3779924e-21)
(-53.47606 120.23326 -2.9368229e-21)
(-53.101622 119.16277 -6.3258571e-21)
(-52.449694 117.50081 6.9997423e-18)
(-51.460534 115.11502 -7.5435259e-18)
(-50.097228 111.92254 -3.980075e-21)
(-48.348663 107.89641 2.1373569e-21)
(-46.220313 103.04572 9.3503127e-18)
(-43.718208 97.380873 -1.0026814e-17)
(-40.83267 90.878095 0)
(-37.531332 83.464462 -1.4005711e-21)
(-33.763077 75.026913 -3.0225455e-21)
(-29.475614 65.451172 1.3305069e-17)
(-24.665097 54.730994 -7.8604114e-23)
(-19.43128 43.088781 -3.0403131e-17)
(-13.953285 30.920702 1.6080159e-17)
(-8.3943122 18.588132 1.0365635e-21)
(-2.8409253 6.3070394 1.5662046e-17)
(-28.954881 109.68866 5.5033311e-19)
(-30.702489 110.23047 -7.8602654e-22)
(-32.36521 110.73158 -5.8748821e-19)
(-33.944086 111.19452 6.4175112e-19)
(-35.440515 111.62176 -7.0251765e-19)
(-36.856319 112.0157 4.8090741e-20)
(-38.193582 112.37864 -5.2329664e-19)
(-39.454649 112.71279 5.7837991e-20)
(-40.642068 113.02023 4.9903989e-19)
(-41.758528 113.30294 -5.7779453e-19)
(-42.806863 113.5628 5.5633359e-19)
(-43.790013 113.80157 0)
(-44.710883 114.02087 -4.3839342e-20)