/*--------------------------------*- C++ -*----------------------------------*\
| =========                 |                                                 |
| \\      /  F ield         | OpenFOAM: The Open Source CFD Toolbox           |
|  \\    /   O peration     | Version:  2506                                  |
|   \\  /    A nd           | Website:  www.openfoam.com                      |
|    \\/     M anipulation  |                                                 |
\*---------------------------------------------------------------------------*/
FoamFile
{
    version     2.0;
    format      ascii;
    arch        "LSB;label=32;scalar=64";
    class       volScalarField;
    location    "0.2";
    object      rho;
}
// * * * * * * * * * * * * * * * * * * * * * * * * * * * * * * * * * * * * * //

dimensions      [1 -3 0 0 0 0 0];

internalField   nonuniform List<scalar> 
1376
(
0.66530641
0.66530691
0.66530748
0.66530853
0.66530046
0.66530123
0.66530179
0.66530277
0.66530458
0.66530722
0.66531082
0.66531556
0.66532151
0.66532871
0.66529502
0.665297
0.66529852
0.66530026
0.66530246
0.66530547
0.66530956
0.66531491
0.66532161
0.66532968
0.66533904
0.66534992
0.6653621
0.66537542
0.66538949
0.66528781
0.66529127
0.66529402
0.6652968
0.66529981
0.66530345
0.66530787
0.66531337
0.66532027
0.66532867
0.66533864
0.66535013
0.6653626
0.66537587
0.66538998
0.66540465
0.66541958
0.66543479
0.66545012
0.66527564
0.66528051
0.66528436
0.66528817
0.66529208
0.6652964
0.66530124
0.66530682
0.66531347
0.66532143
0.66533088
0.6653421
0.66535487
0.66536893
0.6653837
0.66539906
0.66541476
0.66543046
0.66544593
0.66546108
0.66547611
0.66549116
0.66550643
0.66525668
0.66526279
0.66526759
0.66527251
0.66527762
0.66528296
0.66528859
0.66529462
0.66530132
0.66530906
0.66531824
0.66532923
0.66534193
0.66535629
0.66537193
0.66538846
0.66540566
0.66542295
0.66544006
0.66545697
0.66547379
0.66549057
0.66550763
0.66552496
0.66554287
0.66556075
0.66557794
0.665233
0.66524008
0.66524576
0.66525189
0.66525846
0.6652653
0.66527239
0.6652798
0.66528769
0.66529628
0.66530591
0.66531704
0.66532989
0.6653445
0.66536095
0.66537906
0.66539847
0.66541871
0.66543893
0.66545855
0.66547787
0.66549671
0.66551563
0.66553507
0.66555488
0.6655746
0.66559384
0.66561112
0.66562539
0.66563439
0.66520953
0.6652172
0.66522372
0.66523116
0.66523942
0.66524819
0.66525735
0.66526689
0.66527686
0.66528738
0.66529863
0.66531084
0.66532436
0.66533949
0.66535652
0.66537553
0.66539627
0.66541806
0.66544049
0.66546317
0.66548543
0.66550702
0.66552762
0.66554764
0.66556744
0.66558675
0.66560562
0.66562395
0.66564011
0.66565218
0.6656576
0.66565535
0.66564375
0.6651919
0.66519934
0.66520628
0.66521473
0.6652245
0.66523523
0.6652467
0.66525873
0.66527118
0.66528407
0.66529735
0.66531083
0.66532501
0.66534023
0.66535678
0.66537503
0.66539523
0.66541733
0.66544099
0.66546529
0.66548937
0.66551271
0.66553487
0.66555562
0.66557539
0.66559467
0.66561336
0.66563131
0.66564807
0.66566191
0.66567016
0.66567138
0.66566383
0.66564629
0.66562132
0.6651834
0.6651893
0.66519561
0.6652041
0.66521447
0.66522642
0.66523963
0.66525371
0.66526826
0.66528294
0.66529766
0.6653124
0.66532722
0.66534244
0.66535843
0.66537544
0.66539401
0.66541471
0.66543744
0.66546181
0.66548698
0.66551207
0.66553635
0.66555889
0.66557935
0.66559841
0.66561617
0.66563329
0.66564956
0.66566522
0.66567711
0.66568315
0.66568076
0.66566795
0.66564444
0.66561517
0.66558298
0.66554459
0.66518372
0.66518691
0.66519089
0.66519778
0.66520723
0.66521885
0.66523224
0.66524698
0.66526271
0.665279
0.66529547
0.66531178
0.66532767
0.66534341
0.66535942
0.66537613
0.66539403
0.66541378
0.66543556
0.66545921
0.66548405
0.66550922
0.66553385
0.66555739
0.66557973
0.66560062
0.66561984
0.66563766
0.6656545
0.66567022
0.66568346
0.66569155
0.66569249
0.66568396
0.66566362
0.66563525
0.66560217
0.66556447
0.66552447
0.66548334
0.6651898
0.66518995
0.66519096
0.66519429
0.66520037
0.66520957
0.66522154
0.6652358
0.66525188
0.66526928
0.66528738
0.66530566
0.66532378
0.66534162
0.66535931
0.66537717
0.66539563
0.66541499
0.66543556
0.66545751
0.66548115
0.6655062
0.66553185
0.66555715
0.66558107
0.66560334
0.66562426
0.66564309
0.6656599
0.66567438
0.6656866
0.66569476
0.66569838
0.66569443
0.66567825
0.66565441
0.66562159
0.66558272
0.66554405
0.66550461
0.6654675
0.66543543
0.66520099
0.66519878
0.66519636
0.66519592
0.66519791
0.66520229
0.66520959
0.66522052
0.66523495
0.66525238
0.66527191
0.66529257
0.66531375
0.66533492
0.66535587
0.66537642
0.6653963
0.66541604
0.66543634
0.66545783
0.66548086
0.66550535
0.6655307
0.6655562
0.66558107
0.66560452
0.66562597
0.66564567
0.66566313
0.66567759
0.66568881
0.66569718
0.66570175
0.66570007
0.66569007
0.66567111
0.66564074
0.66560259
0.66556202
0.66552263
0.66548874
0.66546143
0.66543737
0.66521962
0.66521657
0.66521259
0.66520877
0.66520572
0.66520495
0.66520748
0.66521303
0.66522187
0.66523455
0.66525164
0.66527256
0.66529601
0.66532067
0.66534528
0.66536927
0.66539242
0.66541453
0.66543598
0.66545756
0.66548007
0.66550386
0.66552874
0.66555417
0.66557953
0.6656042
0.66562727
0.665648
0.66566594
0.66568075
0.66569212
0.66570033
0.66570427
0.66570367
0.66569678
0.66568207
0.66565724
0.66562195
0.66558084
0.66554064
0.66550699
0.66548275
0.6654659
0.66545472
0.66545144
0.66524615
0.66524298
0.66523833
0.6652339
0.6652292
0.6652249
0.66522162
0.66522098
0.66522466
0.66523305
0.6652453
0.66526138
0.66528106
0.66530394
0.66532927
0.66535561
0.66538167
0.66540664
0.6654304
0.66545343
0.6654765
0.66550031
0.66552518
0.66555098
0.66557737
0.66560334
0.66562784
0.66564992
0.66566908
0.66568451
0.66569608
0.6657034
0.66570699
0.66570602
0.66569997
0.66568838
0.66566976
0.66564072
0.66560339
0.66556248
0.66552829
0.66550583
0.66549262
0.66548684
0.66548817
0.66549678
0.66527713
0.66527371
0.6652694
0.66526582
0.66526192
0.66525782
0.66525384
0.66525067
0.66524911
0.66524981
0.66525465
0.66526573
0.66528253
0.66530292
0.66532542
0.66534926
0.66537392
0.6653986
0.66542271
0.66544629
0.66546982
0.6654941
0.66551948
0.66554592
0.66557316
0.66560022
0.66562618
0.66565001
0.66567076
0.66568782
0.66570052
0.6657082
0.6657109
0.66570933
0.6657031
0.66569287
0.6656784
0.66565759
0.66562757
0.66558999
0.66555474
0.66552959
0.66551767
0.66551897
0.66552445
0.66553339
0.66552388
0.66563234
0.66531326
0.66530773
0.66530335
0.66530029
0.66529744
0.66529449
0.66529166
0.66528914
0.6652873
0.6652873
0.66528952
0.66529384
0.66530087
0.66531249
0.66533037
0.66535221
0.66537525
0.66539897
0.66542251
0.66544566
0.66546898
0.66549264
0.66551675
0.66554147
0.66556703
0.66559322
0.66561933
0.66564469
0.66566826
0.66568838
0.66570348
0.66571333
0.66571715
0.66571528
0.66570822
0.66569818
0.66568689
0.66567228
0.66564938
0.66561876
0.66558555
0.66556007
0.66554909
0.66554973
0.66555901
0.66557116
0.66555754
0.66567638
0.66548476
0.66534986
0.66534291
0.6653382
0.66533492
0.66533266
0.66533147
0.66533085
0.66532997
0.66532888
0.66532835
0.66532914
0.66533155
0.66533747
0.66534688
0.66535831
0.66537201
0.66538959
0.66541045
0.66543223
0.66545407
0.66547559
0.66549737
0.66552
0.66554313
0.66556667
0.66559033
0.66561377
0.66563737
0.66566107
0.66568351
0.66570276
0.66571577
0.66572227
0.66572242
0.66571719
0.66570797
0.66569792
0.66568699
0.66567186
0.66564813
0.66561923
0.66559583
0.66558254
0.6655793
0.66558975
0.66560332
0.66559251
0.66573081
0.66548136
0.66538154
0.66537485
0.6653703
0.66536727
0.66536552
0.66536492
0.66536555
0.66536722
0.66536894
0.66537043
0.66537151
0.66537277
0.66537575
0.66538142
0.66539047
0.66540407
0.6654205
0.66543825
0.66545679
0.66547488
0.66549484
0.66551492
0.66553375
0.66555393
0.66557533
0.66559633
0.66561785
0.66563988
0.66566116
0.66568106
0.66569922
0.66571416
0.66572333
0.66572745
0.66572617
0.66571936
0.6657097
0.66570178
0.66569189
0.66567545
0.66565249
0.66562977
0.66561563
0.66561117
0.66561968
0.66563581
0.66562338
0.66577442
0.66548749
0.6653984
0.66539504
0.66539262
0.66539122
0.66539068
0.66539188
0.6653947
0.66539827
0.66540207
0.66540554
0.66540882
0.66541259
0.66541641
0.66542121
0.66542826
0.66543851
0.66545258
0.66546922
0.66548745
0.66550709
0.66552606
0.66554438
0.66556294
0.66557975
0.66559575
0.66561419
0.665633
0.66565077
0.66566859
0.66568824
0.66570655
0.6657201
0.66572849
0.66573236
0.66573243
0.66572759
0.66572029
0.66571347
0.66570762
0.66569703
0.66568169
0.665664
0.66565126
0.66564427
0.66565005
0.66566833
0.66564374
0.66581404
0.66549911
0.66539479
0.66539577
0.66539659
0.66539774
0.66539959
0.66540289
0.66540801
0.66541447
0.66542175
0.66542956
0.66543764
0.66544489
0.66545091
0.66545691
0.66546461
0.66547552
0.66548944
0.66550547
0.66552312
0.6655418
0.66555993
0.66557737
0.66559388
0.66560957
0.66562613
0.66564346
0.66566155
0.6656797
0.66569634
0.66570907
0.66571883
0.66572835
0.6657361
0.66574142
0.66574165
0.66573588
0.66572721
0.66571889
0.6657156
0.66571372
0.66570364
0.66568927
0.66568127
0.6656766
0.66567719
0.66569573
0.6656618
0.66585607
0.66551569
0.66536471
0.66537351
0.66538045
0.6653866
0.66539238
0.66539819
0.66540475
0.66541285
0.66542261
0.66543365
0.66544529
0.66545705
0.66546936
0.66548181
0.66549506
0.66550894
0.66552362
0.66553995
0.66555891
0.66557932
0.66559952
0.66561797
0.66563417
0.66564975
0.66566506
0.66567984
0.66569446
0.66570873
0.66572183
0.66573379
0.66574509
0.66575455
0.66575999
0.66575812
0.66574997
0.66574087
0.66573016
0.66572088
0.66571556
0.66571358
0.66571215
0.66570551
0.66569856
0.66569922
0.66569766
0.66571387
0.6656741
0.66588344
0.66553635
0.66530099
0.66531838
0.66533118
0.66534298
0.66535408
0.66536506
0.66537651
0.66538897
0.66540292
0.66541833
0.66543455
0.66545134
0.66546799
0.66548484
0.66550259
0.66552117
0.66554179
0.66556494
0.66558948
0.66561248
0.66563207
0.66565069
0.6656694
0.66568871
0.66570621
0.66572129
0.6657352
0.66574703
0.66575784
0.66576793
0.66577478
0.66577793
0.66577773
0.66577431
0.66576778
0.66575493
0.66573683
0.66571906
0.6657067
0.66570405
0.66570424
0.66570418
0.66570667
0.66571006
0.6657091
0.66572215
0.66567906
0.66590503
0.66556424
0.66521236
0.66523425
0.66525064
0.66526744
0.66528435
0.66530132
0.66531826
0.66533529
0.66535308
0.66537199
0.66539212
0.66541367
0.6654366
0.66546088
0.66548577
0.66551167
0.66553855
0.66556599
0.66559351
0.66562121
0.66564823
0.66567489
0.66569897
0.66571665
0.6657315
0.66574529
0.66576018
0.66577645
0.66579115
0.66580113
0.66580479
0.66580413
0.66579987
0.66579236
0.66578096
0.66576501
0.6657443
0.6657213
0.66570066
0.66568858
0.66568683
0.6656905
0.66569574
0.66570281
0.66570913
0.66572272
0.66567396
0.66591531
0.66559144
0.66514062
0.66515277
0.66516236
0.66517533
0.66519103
0.66520902
0.66522882
0.66525013
0.66527279
0.66529652
0.66532131
0.66534728
0.6653746
0.66540318
0.66543283
0.66546406
0.66549668
0.6655306
0.66556507
0.66559988
0.66563444
0.66566653
0.6656941
0.66571734
0.66573848
0.66575781
0.6657727
0.66578521
0.66579586
0.66580514
0.6658117
0.6658137
0.66580945
0.66579914
0.66578614
0.66577094
0.66575001
0.66572289
0.6656965
0.66567819
0.6656694
0.6656661
0.66567076
0.66568389
0.66569885
0.66572064
0.66565865
0.66591062
0.66562181
0.66514439
0.66514304
0.66514061
0.66514086
0.66514326
0.66514803
0.66515615
0.66516822
0.66518417
0.66520402
0.66522798
0.66525562
0.66528634
0.66531905
0.66535335
0.66538875
0.66542515
0.66546183
0.66549872
0.66553609
0.6655739
0.66561018
0.66564483
0.66567705
0.6657057
0.66572979
0.6657485
0.66576582
0.66578145
0.6657926
0.66579984
0.66580163
0.66579835
0.66579018
0.66577815
0.6657632
0.66574475
0.66572221
0.66569402
0.66566963
0.6656554
0.66564658
0.66564058
0.66565206
0.66567703
0.66571271
0.66563952
0.66589557
0.665644
0.66520505
0.66519114
0.66517731
0.6651683
0.66516318
0.66516217
0.6651645
0.66516861
0.66517311
0.66517826
0.66518463
0.66519439
0.6652102
0.66523375
0.66526452
0.66530047
0.66533901
0.66537793
0.66541577
0.665452
0.66548623
0.66551893
0.66555095
0.66558312
0.66561433
0.66564423
0.66567295
0.66570059
0.66572479
0.6657431
0.66575665
0.6657652
0.66576845
0.66576612
0.6657584
0.66574555
0.66573018
0.66571084
0.6656857
0.66566079
0.66564265
0.66562872
0.66561708
0.6656203
0.66564436
0.66568963
0.66561558
0.66586301
0.66565028
0.66530086
0.66527924
0.66525945
0.6652446
0.66523211
0.66522237
0.66521437
0.66520767
0.66520295
0.66520071
0.66520179
0.66520661
0.66521422
0.66522284
0.6652344
0.66525114
0.66527592
0.66530682
0.66534027
0.66537313
0.66540301
0.66542933
0.66545317
0.66547608
0.66549872
0.66552251
0.66554947
0.66557832
0.66560799
0.66563755
0.66566527
0.66568788
0.6657036
0.66571207
0.66571329
0.66570777
0.66569871
0.66568585
0.66566736
0.66564556
0.66562886
0.66561533
0.66560202
0.66559718
0.66561221
0.66566043
0.66558868
0.66582302
0.66565131
0.66542756
0.66539617
0.66537062
0.66534807
0.66532679
0.66530835
0.66529255
0.66527991
0.66527029
0.66526274
0.66525509
0.66524605
0.66523628
0.66523009
0.66523253
0.66524382
0.66525873
0.66527792
0.66529932
0.66532138
0.66534282
0.66536185
0.66537824
0.66539274
0.665406
0.66541932
0.66543342
0.66544781
0.66546506
0.66548808
0.66551582
0.66554582
0.66557596
0.66560293
0.66562343
0.66563656
0.66564274
0.66564311
0.66563634
0.66562419
0.66561293
0.66560528
0.66559609
0.66558785
0.66559248
0.66563717
0.66556635
0.66578215
0.66564473
0.66542838
0.66540266
0.6653788
0.66535688
0.66533608
0.66531657
0.66529891
0.6652841
0.66527342
0.66526455
0.66525732
0.66525513
0.66526028
0.66526981
0.66528343
0.66529701
0.66530983
0.6653213
0.66533003
0.6653364
0.66534278
0.66534961
0.66535561
0.66536074
0.66536591
0.66537323
0.66538745
0.66541059
0.66544045
0.66547317
0.66550594
0.665536
0.6655615
0.66557881
0.66558701
0.66559085
0.66559584
0.66559732
0.66559099
0.66558705
0.66562657
0.66555646
0.66574826
0.66563054
0.66537782
0.66534979
0.66532524
0.66530415
0.66528803
0.6652785
0.66527421
0.6652727
0.66527414
0.66527587
0.66527606
0.66527686
0.66527946
0.66528347
0.66528735
0.66529007
0.66529153
0.66529164
0.6652901
0.66528862
0.66528935
0.66529407
0.66530481
0.66532232
0.6653492
0.66538658
0.66543008
0.66547253
0.66550903
0.66553945
0.66556697
0.66558922
0.66559648
0.66559366
0.66563
0.66556139
0.66573031
0.66560978
0.66531394
0.66529822
0.6652866
0.66527529
0.66526868
0.6652639
0.66525971
0.66525631
0.66525395
0.6652543
0.66525705
0.66526067
0.66526464
0.66526969
0.66527081
0.66526944
0.66526888
0.66527023
0.66527294
0.66527808
0.66529085
0.66531677
0.66535343
0.66539704
0.66544495
0.66549684
0.66554753
0.66558299
0.66559439
0.66563662
0.6655709
0.66573477
0.66559527
0.66528229
0.66526884
0.66525527
0.66524409
0.66523811
0.66523665
0.66524031
0.66524947
0.66526108
0.66527184
0.66528043
0.66528426
0.66528827
0.66529029
0.66529285
0.66529739
0.66530456
0.66531773
0.6653376
0.66535946
0.66538323
0.66542091
0.6654742
0.66552884
0.66556656
0.66562838
0.66557537
0.66574489
0.66558673
0.6652327
0.66523461
0.66524347
0.66525913
0.66527596
0.66529018
0.66530598
0.66531944
0.66533076
0.66534156
0.66535091
0.6653565
0.66536101
0.66536993
0.66538313
0.66540051
0.66542648
0.66545907
0.66549215
0.66552208
0.66558854
0.66556164
0.66573638
0.66557612
0.66527738
0.66530344
0.66532826
0.66534939
0.6653708
0.66539268
0.66541209
0.66542482
0.66543316
0.66544071
0.66544616
0.66544824
0.66545142
0.66546635
0.66549809
0.66552802
0.66557629
0.66554359
0.66571469
0.66556193
0.66540889
0.66544051
0.66546583
0.66548535
0.66549959
0.665509
0.66551181
0.66550991
0.66551015
0.66552155
0.66553705
0.66553797
0.66558122
0.66554404
0.66571458
0.66554298
0.66551961
0.66554281
0.66555566
0.66556489
0.66557101
0.66557359
0.66557657
0.6655799
0.66558136
0.66561869
0.66554704
0.66571766
0.66552275
0.66559398
0.66560759
0.66561285
0.66561688
0.66562583
0.66562402
0.66564797
0.66557423
0.66574554
0.66552107
0.66563912
0.66565333
0.66564655
0.6656807
0.66561218
0.66576793
0.66552126
0.66568717
0.66562366
0.66578885
0.66553042
0.66578787
0.66553889
0.66530819
)
;

boundaryField
{
    Side
    {
        type            empty;
    }
    Inlet
    {
        type            calculated;
        value           nonuniform List<scalar> 
25
(
0.66574539
0.66574391
0.66574411
0.66574667
0.66575092
0.66575553
0.66575919
0.66576203
0.66576251
0.66576108
0.66575947
0.66575737
0.66575298
0.66574639
0.66573959
0.66573385
0.66572853
0.66572336
0.66571761
0.66571101
0.66570442
0.66569884
0.66569484
0.66569379
0.66569472
)
;
    }
    Airfoil
    {
        type            calculated;
        value           nonuniform List<scalar> 0();
    }
    Outlet
    {
        type            calculated;
        value           nonuniform List<scalar> 0();
    }
    procBoundary12to4
    {
        type            processor;
        value           uniform 0.66531535;
    }
    procBoundary12to5
    {
        type            processor;
        value           nonuniform List<scalar> 
30
(
0.66530162
0.66529513
0.66528729
0.66527515
0.66525661
0.66523304
0.66520906
0.66519066
0.66518227
0.66518378
0.66519078
0.66520141
0.66521858
0.66524376
0.66527527
0.66531255
0.66535031
0.6653827
0.66539988
0.66539552
0.66536448
0.66530034
0.66521179
0.6651405
0.66514489
0.6652063
0.66530222
0.66542873
0.66531143
0.66530162
)
;
    }
    procBoundary12to6
    {
        type            processor;
        value           uniform 0.66557232;
    }
    procBoundary12to11
    {
        type            processor;
        value           nonuniform List<scalar> 
65
(
0.66531429
0.66531541
0.66531669
0.66531841
0.66531054
0.66531054
0.66531307
0.66531642
0.66532068
0.66532578
0.66533162
0.66533722
0.66533722
0.66534645
0.66535661
0.6653678
0.66538016
0.66540435
0.66540435
0.6654195
0.66543496
0.66545056
0.66546554
0.66546554
0.6654807
0.66549555
0.66550977
0.66552183
0.66552183
0.66553681
0.6655513
0.66556455
0.66559281
0.66559281
0.66560439
0.66561204
0.6656374
0.6656374
0.66563204
0.66561772
0.66562327
0.66562327
0.6655985
0.66559268
0.66559268
0.66556094
0.66552361
0.66550308
0.66550308
0.66546005
0.66544322
0.66544322
0.66540742
0.66540793
0.66540793
0.66542193
0.66542193
0.66542208
0.6654645
0.6654645
0.66549165
0.66549165
0.66561009
0.66551233
0.66551233
)
;
    }
    procBoundary12to13
    {
        type            processor;
        value           nonuniform List<scalar> 
60
(
0.66553857
0.66551099
0.66548388
0.66545608
0.66545608
0.66556564
0.66553622
0.66550555
0.66547385
0.66544133
0.66540912
0.66540912
0.66547574
0.66543717
0.66539927
0.6653639
0.66533519
0.66533519
0.66536421
0.66533736
0.66531571
0.6652975
0.6652975
0.66530833
0.66528595
0.66526497
0.66524827
0.66523726
0.66523726
0.66523263
0.66523228
0.66524033
0.6652555
0.6652555
0.6652775
0.66530771
0.66534066
0.66537498
0.66537498
0.66541218
0.66545046
0.665487
0.665487
0.66550671
0.66554017
0.66557056
0.66557056
0.66557956
0.66560314
0.6656229
0.6656229
0.66562737
0.66564458
0.66564671
0.66564671
0.66566791
0.66561714
0.66561714
0.66578477
0.66554419
)
;
    }
}


// ************************************************************************* //
