/*--------------------------------*- C++ -*----------------------------------*\
| =========                 |                                                 |
| \\      /  F ield         | OpenFOAM: The Open Source CFD Toolbox           |
|  \\    /   O peration     | Version:  2506                                  |
|   \\  /    A nd           | Website:  www.openfoam.com                      |
|    \\/     M anipulation  |                                                 |
\*---------------------------------------------------------------------------*/
FoamFile
{
    version     2.0;
    format      ascii;
    arch        "LSB;label=32;scalar=64";
    class       volScalarField;
    location    "0.0155";
    object      Ma;
}
// * * * * * * * * * * * * * * * * * * * * * * * * * * * * * * * * * * * * * //

dimensions      [0 0 0 0 0 0 0];

internalField   nonuniform List<scalar> 
13761
(
0.3004759
0.30004673
0.29975983
0.29965514
0.29955984
0.29958644
0.29952981
0.29949581
0.29959477
0.29943146
0.299697
0.30047988
0.30004493
0.29975746
0.29965343
0.29955943
0.29958608
0.29952975
0.29949579
0.29959553
0.29943072
0.29969743
0.30048968
0.30004818
0.29975832
0.29965329
0.29956014
0.29958598
0.29953098
0.29949556
0.29959681
0.2994297
0.29969774
0.30097642
0.3004986
0.30005081
0.29975885
0.29965302
0.29956073
0.29958587
0.29953207
0.29949538
0.29959801
0.29942874
0.29969805
0.30099648
0.30050749
0.30005344
0.29975937
0.29965277
0.29956129
0.29958577
0.29953312
0.29949522
0.29959918
0.2994278
0.29969838
0.30101655
0.30051639
0.3000561
0.29975991
0.29965254
0.29956183
0.29958568
0.29953414
0.29949508
0.29960033
0.29942689
0.29969871
0.30116398
0.30103662
0.30052532
0.3000588
0.29976047
0.29965233
0.29956236
0.29958559
0.29953513
0.29949495
0.29960146
0.29942599
0.29969905
0.30119169
0.3010567
0.30053428
0.30006154
0.29976105
0.29965214
0.29956288
0.29958551
0.29953611
0.29949484
0.29960257
0.29942512
0.29969939
0.3012197
0.3010768
0.30054328
0.30006433
0.29976166
0.29965197
0.29956339
0.29958544
0.29953706
0.29949475
0.29960366
0.29942427
0.29969973
0.30073035
0.30124802
0.3010969
0.30055231
0.30006715
0.29976229
0.29965183
0.29956389
0.29958537
0.299538
0.29949467
0.29960474
0.29942344
0.29970007
0.30075316
0.30127663
0.30111701
0.30056137
0.30007001
0.29976294
0.2996517
0.29956439
0.29958531
0.29953892
0.2994946
0.2996058
0.29942263
0.29970041
0.30077628
0.30130551
0.30113713
0.30057045
0.30007291
0.29976361
0.2996516
0.29956487
0.29958525
0.29953983
0.29949455
0.29960685
0.29942184
0.29970076
0.30079977
0.30133465
0.30115725
0.30057955
0.30007583
0.2997643
0.29965151
0.29956535
0.29958519
0.29954073
0.29949451
0.29960788
0.29942106
0.2997011
0.29943528
0.30082362
0.30136403
0.30117736
0.30058867
0.30007879
0.29976501
0.29965144
0.29956583
0.29958514
0.29954161
0.29949448
0.29960891
0.29942031
0.29970144
0.2994527
0.30084781
0.30139363
0.30119747
0.3005978
0.30008178
0.29976573
0.29965139
0.29956629
0.2995851
0.29954248
0.29949447
0.29960992
0.29941957
0.29970178
0.29947036
0.30087237
0.30142343
0.30121757
0.30060695
0.30008479
0.29976648
0.29965135
0.29956676
0.29958505
0.29954334
0.29949446
0.29961092
0.29941884
0.29970212
0.29817784
0.2994883
0.30089728
0.30145343
0.30123766
0.30061611
0.30008783
0.29976724
0.29965133
0.29956721
0.29958501
0.29954419
0.29949447
0.2996119
0.29941813
0.29970246
0.29818364
0.29950649
0.30092257
0.30148359
0.30125773
0.30062528
0.30009089
0.29976801
0.29965133
0.29956767
0.29958498
0.29954503
0.29949449
0.29961288
0.29941744
0.2997028
0.2981896
0.29952494
0.30094824
0.30151392
0.30127779
0.30063446
0.30009397
0.29976881
0.29965134
0.29956811
0.29958494
0.29954586
0.29949452
0.29961385
0.29941676
0.29970314
0.29850977
0.29819574
0.29954366
0.30097431
0.30154439
0.30129783
0.30064363
0.30009707
0.29976961
0.29965137
0.29956856
0.29958491
0.29954667
0.29949456
0.2996148
0.2994161
0.29970347
0.2985197
0.29820203
0.29956263
0.30100077
0.30157499
0.30131785
0.30065282
0.30010019
0.29977043
0.29965141
0.29956899
0.29958488
0.29954748
0.29949461
0.29961575
0.29941545
0.2997038
0.29852979
0.29820849
0.29958184
0.30102763
0.30160571
0.30133784
0.300662
0.30010333
0.29977127
0.29965146
0.29956943
0.29958486
0.29954829
0.29949467
0.29961669
0.29941482
0.29926516
0.29854001
0.29821512
0.2996013
0.3010549
0.30163655
0.3013578
0.30067118
0.30010647
0.29977211
0.29965153
0.29956986
0.29958483
0.29954908
0.29949474
0.29961761
0.2994142
0.29929432
0.29855034
0.29822193
0.299621
0.30108258
0.30166748
0.30137774
0.30068036
0.30010964
0.29977297
0.29965161
0.29957028
0.29958481
0.29954986
0.29949482
0.29961853
0.2994136
0.29910131
0.29932347
0.29856078
0.29822891
0.29964093
0.30111067
0.30169852
0.30139765
0.30068953
0.30011281
0.29977384
0.2996517
0.2995707
0.29958479
0.29955064
0.29949491
0.29961944
0.29941301
0.29913308
0.2993526
0.29857133
0.29823608
0.2996611
0.30113916
0.30172964
0.30141753
0.3006987
0.30011599
0.29977472
0.2996518
0.29957112
0.29958477
0.29955141
0.29949501
0.29962034
0.29941243
0.29916528
0.29938169
0.29858195
0.29824344
0.29968151
0.30116809
0.30176085
0.30143737
0.30070786
0.30011919
0.29977561
0.29965191
0.29957154
0.29958476
0.29955218
0.29949512
0.29962124
0.29865361
0.29919792
0.29941074
0.29859266
0.298251
0.29970216
0.30119743
0.30179213
0.30145718
0.30071701
0.30012238
0.29977652
0.29965203
0.29957195
0.29958474
0.29955293
0.29949523
0.29962212
0.29868344
0.29923097
0.29943974
0.29860345
0.29825876
0.29972304
0.3012272
0.30182348
0.30147695
0.30072614
0.30012559
0.29977743
0.29965216
0.29957236
0.29958473
0.29955368
0.29949536
0.299623
0.29871348
0.29926445
0.29946869
0.29861432
0.29826673
0.29974414
0.30125739
0.30185489
0.30149668
0.30073527
0.3001288
0.29977835
0.2996523
0.29957276
0.29958471
0.29955442
0.29949549
0.29962387
0.29873893
0.29874368
0.29929834
0.29949759
0.29862525
0.2982749
0.29976548
0.301288
0.30188636
0.30151637
0.30074438
0.30013201
0.29977928
0.29965245
0.29957317
0.2995847
0.29955516
0.29949563
0.29962473
0.29878182
0.29877404
0.29933264
0.29952642
0.29863624
0.2982833
0.29978703
0.30131903
0.30191788
0.30153602
0.30075347
0.30013523
0.29978022
0.29965261
0.29957356
0.29958469
0.29955589
0.29949578
0.29862759
0.29882501
0.29880455
0.29936734
0.29955519
0.29864729
0.2982919
0.29980881
0.30135049
0.30194945
0.30155563
0.30076255
0.30013845
0.29978117
0.29965278
0.29957396
0.29958468
0.29955662
0.29949594
0.29868125
0.29886849
0.29883518
0.29940244
0.2995839
0.29865838
0.29830073
0.29983081
0.30138238
0.30198107
0.30157519
0.30077161
0.30014167
0.29978213
0.29965295
0.29957436
0.29958467
0.29955734
0.2994961
0.29828476
0.2987353
0.29891225
0.29886593
0.29943793
0.29961252
0.29866951
0.29830979
0.29985304
0.30141471
0.30201272
0.30159471
0.30078065
0.30014488
0.29978309
0.29965313
0.29957475
0.29958467
0.29955805
0.29949628
0.29834516
0.29878972
0.29895631
0.2988968
0.29947379
0.29964106
0.29868069
0.29831907
0.2998755
0.30144746
0.30204441
0.30161418
0.30078967
0.30014809
0.29978406
0.29965332
0.29957513
0.29958466
0.29955876
0.29949646
0.2984061
0.29884451
0.29900067
0.29892778
0.29951003
0.29966951
0.29869189
0.29832859
0.29989817
0.30148065
0.30207613
0.3016336
0.30079866
0.3001513
0.29978504
0.29965351
0.29957552
0.29958466
0.29955946
0.29949665
0.29818322
0.29846758
0.29889966
0.29904531
0.29895886
0.29954662
0.29969787
0.29870313
0.29833834
0.29992107
0.30151427
0.30210787
0.30165297
0.30080764
0.30015451
0.29978603
0.29965371
0.2995759
0.29958465
0.29956016
0.29825594
0.29852957
0.29895517
0.29909023
0.29899005
0.29958356
0.29972613
0.29871439
0.29834834
0.29994418
0.30154833
0.30213964
0.30167229
0.30081658
0.30015771
0.29978702
0.29965391
0.29957628
0.29958465
0.29956085
0.29791318
0.29832915
0.29859208
0.29901102
0.29913544
0.29902134
0.29962083
0.2997543
0.29872567
0.29835858
0.29996752
0.30158282
0.30217143
0.30169156
0.3008255
0.30016091
0.29978802
0.29965412
0.29957666
0.29958465
0.29956154
0.29800015
0.29840281
0.29865508
0.29906722
0.29918093
0.29905275
0.29965841
0.29978237
0.29873697
0.29836906
0.29999107
0.30161773
0.30220323
0.30171077
0.30083439
0.30016409
0.29978902
0.29965433
0.29957704
0.29958465
0.29956222
0.29763458
0.29808774
0.29847694
0.29871856
0.29912376
0.29922669
0.29908428
0.2996963
0.29981033
0.29874827
0.29837979
0.30001484
0.30165308
0.30223505
0.30172993
0.30084326
0.30016727
0.29979003
0.29965455
0.29957741
0.29958465
0.2995629
0.29734126
0.29773299
0.29817593
0.29855151
0.29878251
0.29918062
0.29927271
0.29911594
0.29973447
0.29983818
0.29875957
0.29839077
0.30003883
0.30168885
0.30226689
0.30174904
0.30085209
0.30017044
0.29979105
0.29965477
0.29957778
0.29958465
0.29956358
0.29745268
0.29783214
0.29826472
0.29862652
0.2988469
0.29923782
0.29931899
0.29914775
0.2997729
0.29986591
0.29877087
0.29840201
0.30006306
0.30172506
0.30229873
0.30176808
0.30086089
0.3001736
0.29979207
0.299655
0.29957815
0.29958465
0.29712965
0.2975649
0.29793202
0.29835409
0.29870196
0.29891174
0.29929533
0.29936551
0.29917973
0.29981158
0.29989352
0.29878217
0.2984135
0.30008751
0.30176169
0.30233058
0.30178706
0.30086966
0.30017675
0.29979309
0.29965523
0.29957852
0.29958466
0.29725552
0.29767792
0.29803262
0.29844403
0.29877784
0.298977
0.29935316
0.29941227
0.29921188
0.29985047
0.29992099
0.29879346
0.29842525
0.30011218
0.30179875
0.30236243
0.30180598
0.30087839
0.30017989
0.29979412
0.29965546
0.29957889
0.29958466
0.29694802
0.29738226
0.29779171
0.29813393
0.29853454
0.29885413
0.29904267
0.2994113
0.29945927
0.29924425
0.29988955
0.29994834
0.29880474
0.29843725
0.30013708
0.30183623
0.30239429
0.30182484
0.30088709
0.30018302
0.29979515
0.29965569
0.29957925
0.29958467
0.29661556
0.29708915
0.29750987
0.29790628
0.29823594
0.29862559
0.29893084
0.29910874
0.29946974
0.29950648
0.29927684
0.29992881
0.29997555
0.298816
0.29844952
0.30016222
0.30187412
0.30242614
0.30184363
0.30089575
0.30018613
0.29979618
0.29965593
0.29957961
0.29958467
0.29677226
0.29723122
0.29763834
0.2980216
0.29833863
0.29871717
0.29900795
0.29917519
0.29952848
0.29955391
0.29930967
0.29996823
0.30000262
0.29882725
0.29846205
0.30018758
0.30191242
0.302458
0.30186235
0.30090437
0.30018923
0.29979721
0.29965617
0.29957997
0.29641253
0.29693004
0.29737423
0.29776765
0.29813767
0.29844199
0.29880928
0.29908547
0.29924201
0.29958752
0.29960154
0.29934278
0.30000778
0.30002956
0.29883848
0.29847483
0.30021319
0.30195111
0.30248985
0.30188102
0.30091295
0.30019231
0.29979825
0.29965641
0.29958032
0.29602734
0.29658571
0.29708887
0.29751816
0.29789779
0.29825447
0.29854601
0.29890191
0.29916337
0.29930919
0.29964684
0.29964936
0.29937619
0.30004744
0.30005635
0.29884969
0.29848788
0.30023904
0.3019902
0.30252169
0.30189961
0.3009215
0.30019538
0.29979929
0.29965665
0.29958068
0.29560113
0.29621582
0.29676012
0.29724873
0.29766299
0.29802874
0.298372
0.29865068
0.29899504
0.29924166
0.29937672
0.29970643
0.29969735
0.2994099
0.30008721
0.300083
0.29886087
0.29850118
0.30026515
0.30202967
0.30255353
0.30191814
0.30093
0.30019843
0.29980033
0.29965689
0.29958103
0.29514101
0.29580502
0.29640567
0.29693572
0.29740961
0.29780871
0.29816051
0.29849023
0.29875598
0.29908865
0.29932031
0.29944459
0.2997663
0.29974551
0.29944396
0.30012706
0.30010949
0.29887201
0.29851474
0.30029153
0.30206952
0.30258536
0.30193658
0.30093845
0.30020147
0.29980137
0.29965714
0.29958138
0.29465294
0.29536013
0.29601042
0.29659687
0.2971125
0.29757149
0.29795531
0.29829307
0.29860917
0.2988619
0.29918274
0.29939933
0.29951278
0.29982642
0.29979381
0.29947836
0.30016698
0.30013583
0.29888313
0.29852856
0.30031819
0.30210972
0.30261717
0.30195496
0.30094687
0.30020449
0.29980241
0.29965738
0.29958173
0.29413285
0.29488741
0.29558093
0.29621731
0.29678938
0.29729044
0.29773435
0.29810276
0.29842641
0.29872879
0.29896843
0.2992773
0.29947871
0.29958129
0.29988679
0.29984225
0.29951314
0.30020696
0.30016201
0.29889421
0.29854263
0.30034514
0.30215027
0.30264896
0.30197326
0.30095523
0.30020749
0.29980345
0.29965763
0.29358013
0.29438297
0.29512371
0.29580337
0.29642567
0.2969832
0.29746951
0.29789816
0.29825106
0.29856052
0.29884909
0.29907555
0.29937231
0.29955844
0.29965011
0.29994741
0.29989082
0.2995483
0.30024698
0.30018804
0.29890525
0.29855695
0.3003724
0.30219115
0.30268074
0.30199149
0.30096355
0.30021047
0.29980449
0.29965788
0.2930016
0.29384606
0.2946351
0.29536181
0.29602744
0.29663548
0.2971783
0.29764971
0.29806291
0.29840019
0.2986954
0.29897005
0.29918325
0.29946776
0.2996385
0.29971923
0.30000825
0.2999395
0.29958386
0.30028703
0.30021392
0.29891624
0.29857152
0.30039998
0.30223234
0.30271249
0.30200963
0.30097183
0.30021344
0.29980552
0.29965812
0.29240818
0.29328334
0.29411419
0.29488919
0.2956017
0.29625311
0.29684671
0.29737466
0.297831
0.29822858
0.29855014
0.29883103
0.29909167
0.29929153
0.29956364
0.29971889
0.29978864
0.30006932
0.29998828
0.29961983
0.3003271
0.30023966
0.29892716
0.29858633
0.3004279
0.30227381
0.30274421
0.3020277
0.30098005
0.30021638
0.29980656
0.29965837
0.29087717
0.29180729
0.2927059
0.29356746
0.29438448
0.29514524
0.29584334
0.29648036
0.29705936
0.29757228
0.29801338
0.29839516
0.29870089
0.2989674
0.29921393
0.29940036
0.29965994
0.29979961
0.29985832
0.30013061
0.30003714
0.29965622
0.30036719
0.30026528
0.29893802
0.29860137
0.30045619
0.30231556
0.30277591
0.30204568
0.30098822
0.30021931
0.29980759
0.29965861
0.29026633
0.29120575
0.2921215
0.29300616
0.29385392
0.29465688
0.2954032
0.29608672
0.29670917
0.29727339
0.29777112
0.29819681
0.29856262
0.29885244
0.29910449
0.29933681
0.29950973
0.29975665
0.29988064
0.29992828
0.3001921
0.30008609
0.29969303
0.30040728
0.30029078
0.29894878
0.29861665
0.30048487
0.30235756
0.30280758
0.30206359
0.30099634
0.30022222
0.29980862
0.28872814
0.2896733
0.29061272
0.29153719
0.29243841
0.29330893
0.29414268
0.29493138
0.29566305
0.2963318
0.29693951
0.29748878
0.29797117
0.29838128
0.29873095
0.29900476
0.29924231
0.29946032
0.29961963
0.29985375
0.29996198
0.2999985
0.30025378
0.30013511
0.29973028
0.30044737
0.30031618
0.29895945
0.29863215
0.30051396
0.30239979
0.30283921
0.30208141
0.30100441
0.30022511
0.29980964
0.28637383
0.28726855
0.28818249
0.28910846
0.29003808
0.2909621
0.29187145
0.29275797
0.29361416
0.29443371
0.29520794
0.29592476
0.29657857
0.29717137
0.29770553
0.29817241
0.29856676
0.29890012
0.29915786
0.29938083
0.29958443
0.29973005
0.29995123
0.30004361
0.30006897
0.30031564
0.30018417
0.29976797
0.30048745
0.30034149
0.29896999
0.29864787
0.30054349
0.30244224
0.30287081
0.30209915
0.30101242
0.30022797
0.29981066
0.28512702
0.28595047
0.28680427
0.28768344
0.28858176
0.28949207
0.29040599
0.29131442
0.29220849
0.29308014
0.29392184
0.29472698
0.29548653
0.29618831
0.29682701
0.29740472
0.29792361
0.29837482
0.29875323
0.29907013
0.2993117
0.29952005
0.29970913
0.29984098
0.30004907
0.30012553
0.30013969
0.30037768
0.30023328
0.29980611
0.30052752
0.30036673
0.29898039
0.29866381
0.30057349
0.30248488
0.30290236
0.3021168
0.30102038
0.30023081
0.29981167
0.28270714
0.28337536
0.28407835
0.2848172
0.2855917
0.28639991
0.28723825
0.28810179
0.28898439
0.28987887
0.29077693
0.29166963
0.29254826
0.29340488
0.29423191
0.29502245
0.29576713
0.29645368
0.29707707
0.29763954
0.298143
0.29857838
0.29894068
0.29924094
0.29946629
0.29965996
0.29983441
0.29995239
0.30014727
0.30020773
0.30021064
0.30043988
0.30028242
0.29984469
0.30056757
0.30039192
0.29899065
0.29867996
0.30060396
0.30252771
0.30293387
0.30213436
0.30102828
0.30023364
0.29981268
0.2804039
0.28091939
0.28145693
0.28201984
0.28261097
0.28323269
0.28388707
0.28457588
0.28530024
0.28605991
0.28685286
0.28767566
0.28852352
0.28939028
0.2902688
0.29115087
0.29202767
0.29289072
0.29373216
0.29454434
0.2953201
0.29604969
0.29672082
0.29732876
0.29787582
0.29836368
0.29878306
0.29912907
0.29941255
0.2996216
0.29980054
0.29996025
0.30006428
0.30024582
0.3002902
0.30028183
0.30050222
0.30033158
0.29988371
0.3006076
0.30041709
0.29900075
0.29869631
0.30063495
0.30257071
0.30296534
0.30215183
0.30103612
0.30023644
0.29981367
0.27724925
0.27772041
0.27818451
0.27864399
0.27910185
0.27956152
0.28002676
0.28050152
0.2809898
0.28149554
0.28202242
0.28257377
0.2831525
0.28376113
0.28440189
0.28507671
0.2857867
0.28653152
0.2873092
0.28811643
0.28894853
0.28979936
0.29066179
0.29152772
0.2923885
0.29323582
0.29406193
0.2948591
0.29561987
0.29633419
0.29698972
0.29758203
0.29811353
0.29858563
0.29898885
0.29931839
0.29958493
0.29977764
0.29994178
0.30008665
0.30017663
0.30034469
0.30037293
0.30035323
0.30056471
0.30038074
0.29992317
0.30064761
0.30044224
0.29901067
0.29871286
0.30066646
0.30261385
0.30299675
0.3021692
0.3010439
0.30023922
0.17059878
0.19739631
0.21671781
0.23031395
0.24025978
0.24788407
0.25380828
0.25831698
0.26161338
0.2639183
0.26547884
0.26653603
0.26728937
0.26788257
0.26840512
0.26890468
0.26940631
0.269919
0.27044421
0.27098046
0.2715258
0.27207793
0.27263392
0.27319065
0.27374514
0.27429476
0.27483734
0.27537119
0.27589509
0.27640812
0.27690975
0.2773999
0.27787905
0.27834836
0.27880962
0.27926527
0.2797183
0.28017218
0.28063069
0.28109778
0.28157749
0.2820737
0.28259012
0.28313009
0.2836966
0.28429233
0.28491971
0.28558073
0.28627643
0.28700642
0.28776882
0.28856046
0.28937674
0.29021155
0.29105778
0.29190744
0.29275206
0.29358353
0.29439416
0.29517614
0.29592176
0.29662059
0.29726035
0.29783688
0.29835266
0.29880884
0.29919573
0.29950861
0.29975808
0.29993438
0.30008368
0.30021359
0.30028943
0.30044388
0.30045592
0.30042485
0.30062732
0.3004299
0.29996308
0.3006876
0.3004674
0.2990204
0.2987296
0.30069851
0.30265713
0.30302811
0.30218649
0.30105162
0.30024198
0.13916652
0.17225986
0.19857941
0.21746678
0.2307969
0.24063463
0.24824401
0.25419211
0.25873483
0.26206379
0.26439611
0.26597817
0.26705174
0.2678176
0.26842079
0.26895175
0.26945874
0.26996733
0.2704868
0.27101887
0.271562
0.2721141
0.27267276
0.27323495
0.27379747
0.2743573
0.27491171
0.27545844
0.27599572
0.27652228
0.27703717
0.27753982
0.27803012
0.27850855
0.27897619
0.27943481
0.27988687
0.28033536
0.28078373
0.28123577
0.28169546
0.2821668
0.28265369
0.28315983
0.28368861
0.28424313
0.28482623
0.28544047
0.28608785
0.28676934
0.28748451
0.28823163
0.28900767
0.28980808
0.29062678
0.2914567
0.29228996
0.2931183
0.29393378
0.29472881
0.29549545
0.2962257
0.29690888
0.29753268
0.29809327
0.29859317
0.29903328
0.29940367
0.29969971
0.29993196
0.30009182
0.30022621
0.30034106
0.30040267
0.30054338
0.30053916
0.30049668
0.30069005
0.30047905
0.30000341
0.30072757
0.30049258
0.29902994
0.29874654
0.30073113
0.30270055
0.30305943
0.30220368
0.30105928
0.30024471
0.07602716
0.10601912
0.1410744
0.17386709
0.19970751
0.21817146
0.23125046
0.24099208
0.24859353
0.25456896
0.25914748
0.26251023
0.26487097
0.26647547
0.26756618
0.26834517
0.26895881
0.2694985
0.27001318
0.27052889
0.27105527
0.27159424
0.27214425
0.27270309
0.27326822
0.27383651
0.2744047
0.27496973
0.2755288
0.27607954
0.27662014
0.27714925
0.27766593
0.27816958
0.27866006
0.2791378
0.27960388
0.28006005
0.28050873
0.2809529
0.28139602
0.28184185
0.28229437
0.28275758
0.28323535
0.28373142
0.28424924
0.28479202
0.28536276
0.28596409
0.28659797
0.2872653
0.28796569
0.28869754
0.28945796
0.29024247
0.29104497
0.29185847
0.29267523
0.29348717
0.29428655
0.29506583
0.29581697
0.29653169
0.29719901
0.29780669
0.29835119
0.29883507
0.29925894
0.29961265
0.29989167
0.30010657
0.30024994
0.30036938
0.30046905
0.30051634
0.30064317
0.30062264
0.3005687
0.30075289
0.30052816
0.30004417
0.30076751
0.3005178
0.29903928
0.29876366
0.30076433
0.30274407
0.30309068
0.30222078
0.30106688
0.30024742
0.048405684
0.057533211
0.07735488
0.10777397
0.14287818
0.17536754
0.20074786
0.2188159
0.23166924
0.24133221
0.24893549
0.25494338
0.2595607
0.2629593
0.26534998
0.26697797
0.26808647
0.26887887
0.26950295
0.27005118
0.27057326
0.27109571
0.27162855
0.27217394
0.27273034
0.27329543
0.27386653
0.27444042
0.27501382
0.27558359
0.2761469
0.27670131
0.2772449
0.27777633
0.27829461
0.27879914
0.27928975
0.27976683
0.28023144
0.28068529
0.28113078
0.28157086
0.28200895
0.28244881
0.2828944
0.28334968
0.28381856
0.28430478
0.28481188
0.28534321
0.28590186
0.28649048
0.28711098
0.2877642
0.28844984
0.28916644
0.28991125
0.29067981
0.29146605
0.29226304
0.29306319
0.29385863
0.2946418
0.2954052
0.29614067
0.29683968
0.29749097
0.29808236
0.29861061
0.29907832
0.2994858
0.29982266
0.30008446
0.3002819
0.30040874
0.30051317
0.30059754
0.30063041
0.30074323
0.30070635
0.30064092
0.30081583
0.30057724
0.30008535
0.30080742
0.30054305
0.29904843
0.29878096
0.30079811
0.30278771
0.30312188
0.30223779
0.30107442
0.3002501
0.040050122
0.041864948
0.044472897
0.048918359
0.058284612
0.078585417
0.10938179
0.14450435
0.17670586
0.20166678
0.21938375
0.23204725
0.24165421
0.24927185
0.25531918
0.25997965
0.26341712
0.26583978
0.26749246
0.26861922
0.26942493
0.27005895
0.27061498
0.27114359
0.27167185
0.27221019
0.27276102
0.27332284
0.27389324
0.27446944
0.27504812
0.27562594
0.27619976
0.27676668
0.2773242
0.27787035
0.27840373
0.27892334
0.27942856
0.27991919
0.28039561
0.28085881
0.28131047
0.28175293
0.28218911
0.2826224
0.28305652
0.28349539
0.28394298
0.28440319
0.28487982
0.28537648
0.28589664
0.28644345
0.28701955
0.28762677
0.28826594
0.28893686
0.28963827
0.29036747
0.29112004
0.29188993
0.29267033
0.29345378
0.29423262
0.29499947
0.29574688
0.29646653
0.29714965
0.29778472
0.29835966
0.29887153
0.29932291
0.29971383
0.30003365
0.30027806
0.30045791
0.3005682
0.30065756
0.30072652
0.30074488
0.30084357
0.30079029
0.30071332
0.30087886
0.30062625
0.30012695
0.30084731
0.30056833
0.29905739
0.29879845
0.3008325
0.30283145
0.30315302
0.3022547
0.30108189
0.035785603
0.036709068
0.037737304
0.038919135
0.040341592
0.042178048
0.044826428
0.04936187
0.058957192
0.079695265
0.11079713
0.14590839
0.1778498
0.2024463
0.21986807
0.23238339
0.24195949
0.24960524
0.2556999
0.26040862
0.26388844
0.26634533
0.26802386
0.26916912
0.26998768
0.27063069
0.27119332
0.27172715
0.27225989
0.27280236
0.27335728
0.27392323
0.27449774
0.27507789
0.27566031
0.27624159
0.27681859
0.27738837
0.27794837
0.27849654
0.27903145
0.27955207
0.28005777
0.28054832
0.28102404
0.28148588
0.28193546
0.28237505
0.28280753
0.28323623
0.28366484
0.28409723
0.28453736
0.28498917
0.28545648
0.28594301
0.28645228
0.28698748
0.28755121
0.28814523
0.28877041
0.28942668
0.29011292
0.29082652
0.29156306
0.29231657
0.29308028
0.29384695
0.2946091
0.29535954
0.29609083
0.29679451
0.29746156
0.29808023
0.29863857
0.2991339
0.29956882
0.29994302
0.30024561
0.30047245
0.30063461
0.30072832
0.30080255
0.30085597
0.30085973
0.30094415
0.30087444
0.3007859
0.30094196
0.30067519
0.30016896
0.30088715
0.30059364
0.29906615
0.29881613
0.30086752
0.30287529
0.3031841
0.3022715
0.30108929
0.032877219
0.033598358
0.034352064
0.035148067
0.035999998
0.036927751
0.037961799
0.039151963
0.040587115
0.042444504
0.045131572
0.049752151
0.059560622
0.080679257
0.11200643
0.14708332
0.17879918
0.20309029
0.22027417
0.23268238
0.24225159
0.24993843
0.25608794
0.26084982
0.26437534
0.26686852
0.26857389
0.26973768
0.27056843
0.27121929
0.27178711
0.27232469
0.27286038
0.27340548
0.27396301
0.27453167
0.27510894
0.27569183
0.27627685
0.27686059
0.27743987
0.27801173
0.27857355
0.27912322
0.27965924
0.28018058
0.28068656
0.28117693
0.28165194
0.28211248
0.2825601
0.282997
0.28342599
0.28385032
0.28427364
0.2846998
0.28513275
0.28557643
0.28603472
0.28651141
0.28701006
0.28753385
0.28808533
0.28866624
0.28927749
0.28991918
0.29059031
0.29128832
0.29200881
0.29274586
0.29349284
0.29424264
0.29498803
0.29572196
0.29643701
0.29712458
0.29777539
0.29837748
0.29891906
0.29939773
0.29981602
0.30017334
0.30045852
0.3006676
0.30081197
0.30088907
0.30094812
0.30098589
0.30097494
0.30104497
0.30095881
0.30085866
0.30100514
0.30072404
0.30021137
0.30092696
0.30061898
0.29907474
0.29883398
0.30090316
0.30291921
0.30321511
0.30228821
0.30109663
0.027199041
0.02782912
0.028458701
0.029089956
0.029725094
0.030366473
0.031016657
0.031678624
0.032356013
0.033053261
0.033775992
0.034531574
0.035329936
0.036184943
0.037116809
0.038156498
0.039354667
0.040801757
0.042678334
0.045399955
0.050094984
0.060084997
0.081498434
0.11296348
0.14799364
0.1795295
0.20358331
0.22059213
0.23293642
0.24252349
0.25026507
0.25647782
0.26129862
0.26487396
0.26740616
0.2691398
0.2703225
0.27116499
0.2718227
0.27239442
0.27293436
0.27347158
0.27401789
0.27457665
0.27514669
0.2757255
0.27631
0.27689663
0.27748192
0.27806268
0.27863595
0.27919904
0.27974977
0.28028658
0.2808084
0.28131454
0.28180468
0.28227903
0.28273837
0.28318419
0.2836186
0.28404431
0.28446453
0.28488283
0.28530303
0.28572907
0.28616492
0.2866145
0.28708164
0.2875699
0.28808245
0.28862179
0.28918966
0.28978708
0.29041427
0.29107034
0.29175277
0.29245719
0.29317775
0.29390792
0.2946408
0.29536935
0.29608669
0.2967854
0.29745671
0.2980911
0.29867645
0.29920111
0.29966297
0.30006451
0.30040477
0.30067234
0.30086349
0.30098998
0.30105046
0.30109425
0.30111625
0.30109051
0.30114602
0.30104337
0.30093158
0.30106837
0.30077279
0.30025419
0.30096671
0.30064433
0.29908315
0.29885201
0.30093943
0.30296322
0.30324606
0.30230481
0.3011039
0.00043558343
0.0013605924
0.0023838325
0.0035159617
0.0047663418
0.0061412345
0.0076331847
0.0092090202
0.010807923
0.012360175
0.013815855
0.015154234
0.016375447
0.017490413
0.018513622
0.019459404
0.020340682
0.021168545
0.021952149
0.022699326
0.023416955
0.024110717
0.024785366
0.025445072
0.026093339
0.02673325
0.027367553
0.027998717
0.028629097
0.029260977
0.029896651
0.030538546
0.031189291
0.031851926
0.032530157
0.033228487
0.03395262
0.034710021
0.035510737
0.036368799
0.037304662
0.038349671
0.039555136
0.041012719
0.042905541
0.045655345
0.050409238
0.060537138
0.08214251
0.1136601
0.14863715
0.18003896
0.20392266
0.22081796
0.23313986
0.24276833
0.2505779
0.25686237
0.26174824
0.26537793
0.26795228
0.26971605
0.27091842
0.27177255
0.27243642
0.27301109
0.2735523
0.27408994
0.27463636
0.27519525
0.27576565
0.27634505
0.2769303
0.27751779
0.27810396
0.27868564
0.27925984
0.27982383
0.28037535
0.28091276
0.28143497
0.28194123
0.28243119
0.28290498
0.2833633
0.28380752
0.28423968
0.28466238
0.28507876
0.28549232
0.28590686
0.28632629
0.28675462
0.2871958
0.28765364
0.28813173
0.28863318
0.28916048
0.2897154
0.29029908
0.29091186
0.29155293
0.29221978
0.29290812
0.29361214
0.29432546
0.29504136
0.29575302
0.2964537
0.29713595
0.29779086
0.29840867
0.29897709
0.29948469
0.29992962
0.30031426
0.30063729
0.30088705
0.3010601
0.30116863
0.30121247
0.30124094
0.30124704
0.30120642
0.30124728
0.30112814
0.30100467
0.30113167
0.30082143
0.30029741
0.30100642
0.30066968
0.2990914
0.29887022
0.30097635
0.30300731
0.30327694
0.30232131
0.30111109
0.00044106725
0.0013773288
0.002412596
0.0035575803
0.0048216763
0.0062110674
0.0077179404
0.0093083928
0.010920681
0.012484493
0.013949884
0.015296429
0.016524593
0.01764556
0.018674006
0.019624386
0.020509718
0.02134116
0.022127924
0.022877885
0.02359796
0.024293859
0.024970366
0.025631677
0.02628132
0.026922404
0.027557705
0.02818972
0.028820838
0.029453381
0.030089682
0.030732213
0.031383652
0.032047093
0.032726298
0.033425834
0.034151474
0.034910761
0.03571384
0.036574863
0.037514465
0.038564264
0.039776027
0.041242265
0.043147835
0.045918582
0.05071402
0.060932372
0.082627606
0.11412545
0.14904574
0.18035036
0.20412017
0.22095468
0.23328984
0.24298001
0.25086925
0.25723326
0.2621901
0.26587876
0.26849865
0.27029479
0.27151804
0.27238422
0.27305411
0.27363124
0.27417315
0.2747106
0.2752565
0.27581491
0.27638506
0.27696451
0.27755006
0.27813801
0.27872474
0.27930706
0.27988198
0.28044673
0.28099896
0.28153698
0.28205962
0.28256611
0.28305605
0.28352947
0.283987
0.2844299
0.2848601
0.2852801
0.28569294
0.28610208
0.28651127
0.28692441
0.28734553
0.28777857
0.28822735
0.28869544
0.28918591
0.28970126
0.29024334
0.29081338
0.29141185
0.29203797
0.29268927
0.29336151
0.29404897
0.29474541
0.29544428
0.29613899
0.29682294
0.29748864
0.298127
0.29872806
0.2992794
0.29976979
0.30019764
0.30056524
0.30087086
0.30110262
0.3012574
0.3013479
0.30137509
0.30138817
0.30137825
0.30132266
0.30134874
0.30121308
0.30107791
0.30119501
0.30086992
0.30034102
0.30104606
0.30069503
0.29909949
0.29888861
0.30101391
0.30305147
0.30330774
0.30233771
0.3011182
0.00044815721
0.0013988523
0.0024494113
0.0036105768
0.004891747
0.0062989981
0.0078241042
0.00943232
0.01106084
0.012638672
0.014115844
0.015472245
0.016708728
0.017836799
0.018871359
0.019827042
0.020716989
0.021552454
0.022342727
0.023095743
0.02381847
0.024516661
0.025195138
0.025858131
0.026509203
0.027151494
0.027787814
0.028420694
0.029052561
0.029685776
0.030322717
0.0309659
0.031618053
0.03228232
0.032962516
0.033663263
0.034390388
0.035151497
0.035956799
0.036820534
0.037763447
0.038817323
0.040034204
0.041507093
0.043421815
0.046206362
0.05102664
0.061290668
0.082988236
0.11441433
0.14927515
0.18050491
0.20419954
0.22101209
0.23338741
0.24315481
0.25113285
0.25758275
0.26261567
0.26636751
0.26903634
0.27086736
0.27211315
0.27299232
0.27366865
0.27424837
0.27479099
0.27532821
0.27587353
0.27643137
0.27700119
0.27758062
0.27816643
0.27875483
0.27934216
0.27992517
0.28050089
0.28106651
0.2816196
0.28215839
0.28268168
0.28318865
0.28367884
0.2841522
0.28460927
0.28505119
0.28547976
0.2858974
0.28630705
0.2867121
0.28711626
0.28752343
0.28793761
0.28836276
0.28880269
0.28926092
0.28974052
0.29024403
0.29077338
0.29132991
0.29191416
0.29252538
0.29316115
0.29381729
0.29448817
0.29516769
0.29584951
0.29652723
0.29719438
0.29784342
0.29846509
0.29904924
0.29958333
0.30005637
0.30046703
0.30081744
0.30110548
0.30131902
0.30145538
0.30152778
0.30153831
0.30153593
0.30150987
0.3014392
0.30145039
0.30129821
0.3011513
0.30125841
0.30091827
0.30038501
0.30108564
0.30072036
0.29910743
0.29890717
0.30105213
0.3030957
0.30333848
0.302354
0.00045687048
0.0014252602
0.002494514
0.0036754129
0.0049773315
0.0064062023
0.0079533242
0.0095829836
0.011231178
0.012826099