/*--------------------------------*- C++ -*----------------------------------*\
| =========                 |                                                 |
| \\      /  F ield         | OpenFOAM: The Open Source CFD Toolbox           |
|  \\    /   O peration     | Version:  2506                                  |
|   \\  /    A nd           | Website:  www.openfoam.com                      |
|    \\/     M anipulation  |                                                 |
\*---------------------------------------------------------------------------*/
FoamFile
{
    version     2.0;
    format      ascii;
    arch        "LSB;label=32;scalar=64";
    class       volSymmTensorField;
    location    "0.00029";
    object      R;
}
// * * * * * * * * * * * * * * * * * * * * * * * * * * * * * * * * * * * * * //

dimensions      [0 2 -2 0 0 0 0];

internalField   nonuniform List<symmTensor> 
3409
(
(25.449527 8.4195194 4.2175727e-23 31.057963 -4.1937484e-22 27.138984)
(25.95763 8.4447132 -2.4069394e-19 31.000685 3.6926349e-21 27.649941)
(26.391706 8.4470191 2.4724541e-19 30.84702 -4.0484611e-21 28.084966)
(26.698924 8.4296346 -1.3246959e-22 30.652857 4.6599211e-22 28.390617)
(26.867788 8.3885372 2.5761076e-19 30.448291 -3.5503619e-21 28.554093)
(7.1205228e-08 6.2066201e-14 4.509907e-23 7.1205904e-08 -4.6336374e-22 7.120534e-08)
(0.015071905 5.1396772e-06 -3.7393267e-22 0.016753548 3.7062432e-21 0.015351511)
(24.942794 8.3725282 -2.5405759e-19 31.016155 9.3202358e-17 26.635149)
(25.485325 8.4190846 1.1269509e-18 31.108468 -8.8442807e-18 27.182335)
(25.994788 8.4446075 1.3148515e-17 31.052928 -2.8176136e-17 27.694708)
(26.43003 8.4472393 -6.2531392e-18 30.900572 -4.2249376e-17 28.130954)
(26.738159 8.4301441 -7.5820499e-19 30.70716 7.5058743e-18 28.437562)
(26.907521 8.3893836 -1.427812e-17 30.50299 2.3334388e-17 28.601577)
(7.1337978e-08 6.2441388e-14 4.5233094e-23 7.1338663e-08 -4.5024645e-22 7.1338094e-08)
(0.015147943 5.1806527e-06 -2.4075034e-22 0.016849826 2.2990123e-21 0.015434794)
(0.22141822 0.033519285 -3.9692732e-22 0.24248978 7.603835e-21 0.22309206)
(24.416739 8.3057625 -5.135254e-18 30.785635 4.6369734e-17 26.107149)
(24.980168 8.3710404 4.0386796e-18 31.062896 -3.536447e-17 26.677667)
(25.52464 8.4181856 -9.6873268e-18 31.157117 -4.0913874e-18 27.226623)
(26.035915 8.4443205 -4.0736088e-18 31.103178 4.061652e-17 27.740612)
(26.472843 8.4475613 -4.3916474e-19 30.952044 -1.5203357e-20 28.17832)
(26.782435 8.4310211 -6.0262843e-18 30.759317 5.7499768e-17 28.486146)
(26.952857 8.390898 2.4143047e-17 30.55552 -1.9759272e-17 28.650938)
(7.1501483e-08 6.2570219e-14 4.6017738e-25 7.1502181e-08 -6.4866679e-27 7.1501603e-08)
(0.015263539 5.1600787e-06 -2.9568685e-24 0.016993888 4.2904523e-26 0.015562322)
(0.2213891 0.033441762 2.048528e-21 0.24260458 -1.9346534e-20 0.22317005)
(1.0382824 0.14285294 -1.7034019e-20 1.1799215 1.3988683e-19 1.0844979)
(23.859142 8.2184727 2.7610556e-18 30.360912 5.2236893e-17 25.542837)
(24.453892 8.2997208 8.266021e-18 30.830558 -8.3248455e-17 26.148675)
(25.019292 8.3654725 -1.2569977e-17 31.109757 3.124217e-17 26.721014)
(25.56566 8.4131456 4.6768159e-18 31.205651 4.6883693e-17 27.271692)
(26.078672 8.4398478 4.1496393e-18 31.153046 -4.0725044e-17 27.787216)
(26.51714 8.4436726 2.374137e-23 31.00288 -2.3327416e-22 28.226235)
(26.827974 8.4276804 -3.1919492e-18 30.810627 2.882147e-17 28.535053)
(26.999226 8.3882112 1.460054e-17 30.606948 -2.3421181e-17 28.700383)
(27.02352 8.3312648 -5.8744238e-18 30.37832 -6.0606787e-17 28.714094)
(7.1706554e-08 6.340929e-14 2.2856457e-25 7.1707259e-08 -1.4724817e-23 7.1706676e-08)
(0.015318367 5.2779405e-06 -1.8826804e-23 0.017062583 2.193238e-22 0.015619884)
(0.22390766 0.033823174 4.0509859e-22 0.2455347 -5.9065956e-21 0.22576187)
(1.0457451 0.14363455 -1.9313386e-20 1.1890114 2.0306075e-19 1.0926197)
(3.1108707 0.56807298 8.9853857e-20 3.6833524 -8.7823925e-19 3.307485)
(5.7904933 1.5117074 7.7760331e-21 7.0454687 -1.0174725e-22 6.2052342)
(8.1247957 2.577212 5.3814475e-19 10.076797 -5.2596281e-18 8.7377552)
(10.128615 3.5258639 -3.8513671e-19 12.735678 -9.4653295e-19 10.913265)
(11.905686 4.3490497 -3.5945691e-18 15.123756 3.461986e-17 12.841052)
(13.516944 5.0632406 1.0304186e-18 17.300433 2.0333733e-18 14.58557)
(23.24985 8.1095122 3.7827305e-18 29.752992 -3.8870931e-17 24.921676)
(23.894675 8.2090043 -1.1526419e-17 30.406106 3.3679269e-17 25.583419)
(24.491073 8.2904177 3.4680093e-18 30.877847 5.0834123e-17 26.19093)
(25.058077 8.3564063 4.5863994e-18 31.159003 -4.4819051e-17 26.764892)
(25.605984 8.4043815 2.3545584e-19 31.256591 -3.4804116e-21 27.317121)
(26.120443 8.4314376 -1.5927693e-23 31.205314 1.5568266e-22 27.834096)
(26.560372 8.43565 -3.1346644e-18 31.056006 3.0639811e-17 28.274559)
(26.872553 8.4200412 1.3949515e-17 30.864086 -2.5108814e-17 28.584685)
(27.043739 8.3810569 -1.0161452e-17 30.661998 -1.0707686e-17 28.75004)
(27.068754 8.3246244 1.0423248e-17 30.432999 1.014198e-17 28.764369)
(7.1965208e-08 6.5951942e-14 2.0451057e-27 7.1965941e-08 5.051022e-28 7.1965333e-08)
(0.01583574 5.7501409e-06 1.4942929e-24 0.017642519 -1.9720122e-26 0.01614516)
(0.2274348 0.035102933 -2.6027278e-23 0.24922601 3.4332462e-25 0.22914895)
(1.0591488 0.14559868 -1.5517916e-20 1.2049791 1.55468e-19 1.1069198)
(3.1346022 0.57217696 1.5374574e-19 3.7134181 -1.3612997e-18 3.3335917)
(5.8141573 1.5169495 2.1862388e-19 7.0766659 -3.2400076e-18 6.231801)
(8.1474272 2.5807301 -1.9371004e-18 10.107309 1.865927e-17 8.7635679)
(10.151345 3.5272538 2.2836905e-19 12.76667 9.4561421e-19 10.939471)
(11.92898 4.3484696 2.0429965e-18 15.155609 -1.9556791e-17 12.868107)
(13.541008 5.0608999 2.1220255e-18 17.333295 -2.066042e-17 14.613666)
(22.567887 7.9751904 6.948346e-18 28.985915 4.3341718e-18 24.221079)
(23.285372 8.0994189 4.8604773e-18 29.800201 -4.9280001e-17 24.962963)
(23.931576 8.198667 1.907488e-19 30.455228 1.9878667e-20 25.626224)
(24.529277 8.2799263 4.2053162e-18 30.928776 -3.694391e-17 26.235185)
(25.09747 8.3458364 -8.7890781e-18 31.211475 -4.1990104e-18 26.810497)
(25.64637 8.3938024 -4.1779723e-18 31.310237 4.2983697e-17 27.363901)
(26.161538 8.4209061 -2.4509078e-19 31.259761 3.035795e-21 27.881789)
(26.601874 8.4252201 3.1541347e-18 31.110953 -3.0708684e-17 28.322881)
(26.914134 8.4097491 -1.3467028e-17 30.919235 2.5154168e-17 28.633307)
(27.085057 8.3710044 7.1181787e-18 30.717058 3.788959e-17 28.798626)
(27.109392 8.3148788 3.5521474e-18 30.487734 -3.2010747e-17 28.812517)
(26.990345 8.2426305 1.1556471e-21 30.226806 -2.433636e-23 28.678923)
(7.2217152e-08 6.4753217e-14 4.8823891e-23 7.2217886e-08 -4.7309405e-22 7.2217282e-08)
(0.015581272 5.4135139e-06 -1.3960216e-22 0.017383404 1.3380733e-21 0.015900923)
(0.22763612 0.034297856 2.0525966e-21 0.25001341 -1.96343e-20 0.22970695)
(1.0631759 0.14567522 -1.6787505e-20 1.2104685 1.4191795e-19 1.1116227)
(3.1524725 0.5753073 -8.676412e-20 3.7364666 9.5358583e-19 3.3536322)
(5.8380866 1.5226163 5.131325e-19 7.1085405 -5.0860977e-18 6.2591144)
(8.1713982 2.5853671 -1.2238717e-18 10.140179 1.0095111e-17 8.7915033)
(10.175011 3.5300445 3.7269138e-19 12.799745 4.658159e-18 10.967541)
(11.952775 4.3495087 1.8775191e-18 15.189221 -2.5483741e-17 12.89671)
(13.565312 5.0603825 5.2227022e-19 17.36777 8.1095315e-18 14.643157)
(15.045168 5.6746402 4.4508406e-18 19.363172 -6.1644124e-17 16.241232)
(16.413366 6.2027744 -1.2383192e-17 21.19337 9.5870666e-17 17.713233)
(17.678353 6.653006 8.0773088e-18 22.865015 -1.7133601e-17 19.06824)
(18.848423 7.0321729 -1.3827628e-18 24.383834 -6.4046234e-17 20.315348)
(19.924124 7.3478074 -1.6565909e-18 25.755279 6.3119598e-17 21.455737)
(20.90807 7.6043625 -8.1372868e-18 26.984587 2.4226212e-17 22.492896)
(21.800676 7.8087715 1.4617501e-17 28.076703 -2.0271205e-17 23.42813)
(22.602239 7.9677122 -1.0632337e-17 29.033235 -2.9886188e-17 24.262664)
(23.321175 8.0915044 8.1428299e-18 29.84954 6.8492561e-17 25.006139)
(23.968771 8.1903788 2.0777321e-18 30.506606 -1.0090883e-16 25.670925)
(24.567753 8.271331 -4.6094822e-18 30.98211 4.6793248e-17 26.281303)
(25.137078 8.336988 3.4538728e-18 31.266578 -3.5681533e-17 26.8579)
(25.686914 8.3847478 -1.2786368e-17 31.366864 3.0001205e-17 27.412417)
(26.202779 8.4116898 5.295386e-18 31.317571 4.5018285e-17 27.931209)
(26.643572 8.4158943 4.0054328e-18 31.169551 -3.8814469e-17 28.372989)
(26.956036 8.4003633 -2.5737176e-19 30.978229 3.047465e-21 28.683858)
(27.126832 8.3616372 2.6202027e-19 30.776131 -3.2406756e-21 28.849303)
(27.150657 8.3056117 2.6224402e-18 30.546673 -2.5413946e-17 28.862969)
(27.030742 8.2335617 -1.4073669e-17 30.285319 2.0244111e-17 28.728795)
(7.244311e-08 6.5348609e-14 -4.8696218e-23 7.2443858e-08 4.6047705e-22 7.2443244e-08)
(0.015690054 5.4716125e-06 1.2396127e-22 0.017519899 -1.1214846e-21 0.016019226)
(0.22921329 0.034493706 4.5847401e-21 0.25195627 -4.5457385e-20 0.23140249)
(1.0710314 0.14658604 -3.7295171e-20 1.2202977 3.3444153e-19 1.1202797)
(3.1723531 0.57892114 -1.6127554e-19 3.7622117 1.6791246e-18 3.3759337)
(5.8614091 1.528461 5.6744287e-19 7.1400935 -4.8944075e-18 6.285978)
(8.1944113 2.5903441 5.901445e-19 10.172358 -7.2554435e-18 8.8186929)
(10.197972 3.5334851 -1.2905361e-18 12.832502 1.2639719e-17 10.995211)
(11.976114 4.3514836 3.4657089e-20 15.222882 -3.395368e-22 12.925245)
(13.589344 5.0610524 -5.1149892e-20 17.402562 5.197145e-22 14.672831)
(15.070136 5.6741768 2.6795495e-18 19.399309 -2.5835189e-17 16.272252)
(16.43944 6.2013365 -8.6945214e-18 21.230984 5.7260304e-17 17.745729)
(17.705688 6.650737 5.1418943e-18 22.90423 1.6474332e-17 19.102329)
(18.877136 7.029212 5.8070654e-18 24.424768 -9.6762006e-17 20.351107)
(19.954314 7.3442583 -4.7741166e-18 25.798031 4.8718066e-17 21.493227)
(20.939809 7.600318 -4.6620928e-19 27.029249 5.1964222e-21 22.532149)
(21.833995 7.8042976 5.1061567e-19 28.123345 -5.8833317e-21 23.469143)
(22.637154 7.9628643 -3.6782138e-19 29.081924 4.0617972e-21 24.305417)
(23.357644 8.0863351 -3.6677057e-18 29.900293 3.9160223e-17 25.050562)
(24.006726 8.1849343 1.143739e-17 30.559411 -3.3915305e-17 25.716932)
(24.607083 8.2656596 -2.9699707e-18 31.036877 -5.1213786e-17 26.328774)
(25.177626 8.331125 -1.2018279e-18 31.323093 9.3694446e-18 26.906683)
(25.728468 8.3787191 -1.3305019e-17 31.424839 3.0070059e-17 27.462318)
(26.24507 8.4055145 5.7742296e-18 31.376617 4.5116316e-17 27.981977)
(26.686279 8.4095957 4.0336482e-18 31.229247 -3.8898134e-17 28.424319)
(26.998796 8.3939656 -2.5954112e-19 31.038165 2.9186854e-21 28.735392)
(27.169285 8.355189 5.2838437e-19 30.835883 -5.6675501e-21 28.90069)
(27.192313 8.2991739 -2.6776924e-19 30.60591 2.8709034e-21 28.913742)
(27.071178 8.2272148 -2.6899872e-19 30.34366 3.1058764e-21 28.778533)
(7.2666005e-08 6.5666753e-14 -5.0229324e-23 7.2666771e-08 4.7749847e-22 7.2666146e-08)
(0.015856035 5.4719764e-06 1.4232857e-22 0.017724472 -1.3513058e-21 0.016199688)
(0.22982248 0.034519592 1.3024694e-25 0.25282233 2.1964231e-26 0.23214159)
(1.0784775 0.14747919 -2.3029777e-22 1.2297224 2.48193e-24 1.128512)
(3.1920068 0.58261773 -7.5482445e-20 3.787853 7.2434921e-19 3.398018)
(5.8844176 1.5345191 2.8706257e-19 7.171508 -2.0630713e-18 6.3125516)
(8.2170612 2.5957383 1.8587402e-20 10.204367 -1.9393886e-18 8.8455564)
(10.220576 3.5375665 1.0916209e-18 12.865162 -6.1656039e-18 11.022577)
(11.999149 4.3543094 -2.4645434e-18 15.256527 7.9233311e-18 12.953541)
(13.613138 5.0627599 -1.1976395e-18 17.437445 3.7177487e-17 14.702346)
(15.094936 5.6749106 5.3957552e-18 19.435643 -6.9593537e-17 16.303194)
(16.465428 6.2012347 -4.1504534e-18 21.268929 3.8999656e-17 17.778238)
(17.733027 6.6499256 3.1536818e-19 22.943922 -3.279772e-21 19.136528)
(18.905947 7.0278144 3.4248855e-18 24.46632 -3.6406198e-17 20.387076)
(19.984708 7.3423693 -1.2335076e-17 25.841546 7.2473631e-17 21.531036)
(20.971864 7.598022 9.1544828e-18 27.074839 1.9196433e-17 22.571836)
(21.867758 7.8016537 4.9658422e-18 28.171101 -1.0555189e-16 23.510716)
(22.672653 7.9599221 -5.4385136e-18 29.131909 5.0416248e-17 24.348869)
(23.394852 8.083145 -4.0912032e-18 29.952507 3.9265432e-17 25.095837)
(24.045599 8.1815429 1.6111413e-17 30.613833 -7.2390157e-17 25.763961)
(24.647539 8.2621141 -1.6199744e-17 31.09342 -1.8442266e-17 26.377466)
(25.219544 8.3274571 -3.5741513e-19 31.381537 9.4721744e-17 26.956914)
(25.771671 8.374952 4.0301347e-18 31.484854 -4.3276887e-17 27.513922)
(26.289299 8.4016598 4.9500464e-19 31.437815 -4.9356213e-21 28.034708)
(26.731216 8.4056649 -3.2205988e-18 31.291231 3.0910963e-17 28.47787)
(27.044063 8.3899708 1.6872333e-17 31.10051 -5.443168e-17 28.789384)
(27.214456 8.3511734 -2.1343e-17 30.898178 -1.4505424e-17 28.9547)
(27.236879 8.2951834 4.7980037e-18 30.667795 6.7937106e-17 28.967272)
(27.114657 8.2233124 5.3219431e-18 30.404687 -5.3683275e-17 28.831102)
(7.2882555e-08 6.8762453e-14 -5.0213932e-23 7.2883341e-08 4.796824e-22 7.2882696e-08)
(0.016254262 6.0668089e-06 2.7248138e-22 0.018166534 -2.6030428e-21 0.01659716)
(0.23504734 0.036137134 -1.4171333e-23 0.25842959 -1.8218343e-21 0.23720812)
(1.0912441 0.14938302 -3.7771168e-20 1.2450268 3.5216524e-19 1.1422435)
(3.2133731 0.58665482 8.2105727e-20 3.8154129 -6.6006717e-19 3.4219622)
(5.905881 1.5403843 2.2673615e-20 7.2008076 -7.9445866e-19 6.3374848)
(8.2379344 2.601067 -6.1224151e-19 10.234018 7.3174025e-18 8.8705364)
(10.241797 3.5418919 2.9217489e-19 12.896006 -2.7921656e-18 11.048496)
(12.021124 4.3576505 2.268303e-18 15.288872 -1.3886369e-17 12.980753)
(13.63608 5.0651985 1.9401387e-18 17.471387 -2.9110504e-17 14.731012)
(15.119021 5.6765492 -3.6558748e-18 19.471293 3.3605138e-17 16.33344)
(16.490805 6.20218 3.1754597e-18 21.306375 -3.0336209e-17 17.810167)
(17.759855 6.6502763 -1.0145899e-17 22.983267 6.4219267e-17 19.170253)
(18.934347 7.0276701 6.4481089e-18 24.507688 1.7818357e-17 20.422676)
(20.014797 7.3418047 5.6323959e-18 25.885057 -1.0198266e-16 21.568587)
(21.003735 7.5971089 -9.7608798e-19 27.120591 1.0809687e-17 22.61139)
(21.901465 7.8004473 -1.013207e-17 28.21918 3.557894e-17 23.552288)
(22.708231 7.9584727 9.7576928e-19 29.182407 5.4930911e-17 24.392459)
(23.432273 8.081501 5.2134323e-18 30.005463 -4.9807043e-17 25.141384)
(24.084815 8.1797464 -3.6063453e-18 30.669247 3.8483693e-17 25.811396)
(24.688452 8.2602099 1.2191515e-17 31.151186 -3.2969752e-17 26.426677)
(25.262017 8.3254798 -7.6430551e-18 31.441427 -1.3669889e-17 27.007765)
(25.815521 8.3729337 8.3749492e-18 31.546493 1.3187452e-17 27.566236)
(26.334277 8.3996208 -5.508896e-18 31.500736 -4.5338859e-17 28.088245)
(26.777037 8.40362 -4.0898404e-18 31.354963 3.9074238e-17 28.532353)
(27.090373 8.3879254 2.6036516e-19 31.164565 -2.1132561e-21 28.844457)
(27.260813 8.3491685 2.3362756e-18 30.962129 -2.7378465e-17 29.009924)
(27.282764 8.2932509 -1.4127929e-17 30.731275 2.2003058e-17 29.022131)
(27.15955 8.2214993 8.6342667e-18 30.467253 3.3427394e-17 28.885069)
(26.912983 8.1343703 5.2162391e-18 30.144703 -4.9825765e-17 28.620696)
(7.3082357e-08 6.6804216e-14 -5.0660206e-23 7.308315e-08 4.8180766e-22 7.3082506e-08)
(0.016076618 5.5892482e-06 1.4498563e-22 0.018000621 -1.3641948e-21 0.016438946)
(0.23290859 0.034924431 -2.1318605e-21 0.25662141 2.0020378e-20 0.2354539)
(1.0934001 0.1493012 1.7633925e-20 1.2484967 -1.4467903e-19 1.1450055)
(3.2288679 0.58971125 9.1440167e-20 3.8360345 -9.7182645e-19 3.4396019)
(5.9272545 1.5463539 -3.1078872e-19 7.2303282 2.8793414e-18 6.3623454)
(8.2594574 2.6068665 -5.5653894e-19 10.264829 5.3909873e-18 8.8962606)
(10.263162 3.5467729 1.4009441e-18 12.927338 -9.0140459e-18 11.07462)
(12.042773 4.3616458 3.1803059e-18 15.321077 -3.6858313e-17 13.007668)
(13.658412 5.0684266 -6.2711245e-18 17.504787 4.6032808e-17 14.759078)
(15.142348 5.6791338 -1.9501242e-18 19.5062 3.6330609e-17 16.362931)
(16.51535 6.2042267 4.0369107e-18 21.34299 -3.9232587e-17 17.841265)
(17.785813 6.6518759 3.4620855e-18 23.021761 -3.3935166e-17 19.203109)
(18.961876 7.0289108 -7.2725156e-18 24.548207 3.2809829e-17 20.457404)
(20.04404 7.3427455 -5.13727e-18 25.927726 9.1620259e-17 21.605283)
(21.034795 7.5977985 1.4878403e-17 27.165539 -8.5757259e-17 22.650115)
(21.934414 7.8009139 -4.8155776e-18 28.266517 -1.520498e-17 23.59307)
(22.743128 7.9587411 1.5158093e-18 29.232214 5.510269e-17 24.435316)
(23.469124 8.0816026 9.5912475e-18 30.057759 -8.9401373e-17 25.186288)
(24.123605 8.1797153 -3.9067414e-18 30.724028 -4.2985876e-17 25.858303)
(24.729139 8.2600853 -1.305032e-17 31.208374 4.2892779e-17 26.47553)
(25.304529 8.3252918 -8.9947807e-18 31.500798 8.1490885e-17 27.058485)
(25.859727 8.3727034 9.6294959e-18 31.607717 4.1818396e-18 27.618691)
(26.379955 8.3993587 4.10151e-18 31.563435 -4.1378072e-17 28.142221)
(26.823938 8.403337 -2.5704231e-19 31.418763 1.9697535e-21 28.587603)
(27.138176 8.3876322 2.6280133e-19 31.228994 -2.387327e-21 28.900657)
(27.309022 8.3489111 -2.8855594e-18 31.026845 2.7446838e-17 29.066574)
(27.330929 8.2930665 1.3899312e-17 30.79594 -2.2044894e-17 29.078779)
(27.207158 8.2214373 -5.5876623e-18 30.53139 -5.7340373e-17 28.941196)
(26.959477 8.1344887 -1.4837225e-17 30.207816 2.4569856e-17 28.675742)
(7.3263555e-08 6.7617809e-14 -2.8831039e-25 7.3264356e-08 1.526121e-23 7.3263707e-08)
(0.016103134 5.7043641e-06 1.529259e-22 0.018039581 -1.4838222e-21 0.016468572)
(0.23530354 0.035281993 -2.5753704e-21 0.25946855 2.4389589e-20 0.23794754)
(1.1004414 0.15014281 4.7086132e-22 1.2573328 -3.6315449e-24 1.1528029)
(3.2454813 0.59292703 -7.8716972e-20 3.8578139 7.3434096e-19 3.4584334)
(5.9465459 1.5517675 3.7916047e-20 7.2568421 2.1928158e-19 6.3849238)
(8.2787024 2.6120976 7.7614938e-19 10.292381 -6.8577524e-18 8.91947)
(10.282605 3.551261 1.1369852e-18 12.95593 -1.001541e-17 11.098602)
(12.062795 4.3653893 -6.4369838e-19 15.350923 -1.5102693e-18 13.032746)
(13.679296 5.0715024 -3.0301935e-18 17.536096 2.7222733e-17 14.785485)
(15.164323 5.6816265 -2.5511467e-18 19.539139 2.6146034e-17 16.390851)
(16.538596 6.2062184 2.2023918e-18 21.377689 3.1082488e-18 17.87083)
(17.810508 6.6534406 8.3741714e-18 23.058347 -7.7767616e-17 19.23445)
(18.988155 7.03012 -7.5134143e-18 24.586813 3.2929496e-17 20.49061)
(20.072031 7.3436476 3.700022e-18 25.968475 1.4732076e-17 21.640438)
(21.064602 7.5984398 2.4687195e-19 27.20853 -5.4808556e-17 22.687275)
(21.966104 7.8013269 -5.389195e-18 28.311835 5.104778e-17 23.632259)
(22.776743 7.9589559 -9.5302078e-22 29.279947 -1.4516926e-22 24.476539)
(23.504649 8.0816514 -4.1800687e-18 30.107941 3.9588672e-17 25.229491)
(24.161003 8.1796284 1.1623887e-17 30.776655 -3.4261234e-17 25.903424)
(24.768321 8.2598983 -3.3516271e-18 31.263337 -5.1755845e-17 26.522463)
(25.345369 8.3250348 -4.8138167e-18 31.55784 4.5591291e-17 27.107093)
(25.902041 8.3724048 2.4229287e-19 31.666476 -1.9066282e-21 27.668791)
(26.423501 8.3990387 -3.4730798e-18 31.623462 3.2894185e-17 28.193572)
(26.868459 8.4030148 1.4041048e-17 31.479619 -2.7145963e-17 28.639954)
(27.183362 8.3873195 -7.0398708e-18 31.290203 -4.0842461e-17 28.953697)
(27.35445 8.3486568 -3.9327239e-18 31.088028 3.4706081e-17 29.119878)
(27.376158 8.2929096 5.4297435e-19 30.856777 -4.4411394e-21 29.1319)
(27.251731 8.2214254 -2.7328442e-19 30.591489 2.2239735e-21 28.993671)
(27.002917 8.1346758 1.7840113e-18 30.266777 -2.2107208e-17 28.727086)
(7.3433978e-08 7.0359224e-14 -4.9711759e-23 7.3434802e-08 4.8597461e-22 7.3434131e-08)
(0.016541391 6.232619e-06 1.4842191e-22 0.018530684 -1.376002e-21 0.016910976)
(0.23928503 0.036681733 2.2162548e-21 0.26368967 -2.0194386e-20 0.24177983)
(1.1117264 0.15188402 -2.0616372e-22 1.2709531 -1.4672309e-20 1.1649726)
(3.2640376 0.59656362 -1.7369031e-19 3.8820266 1.6493553e-18 3.479355)
(5.9647692 1.5570848 5.3384166e-19 7.2822028 -4.4178146e-18 6.4063463)
(8.2964051 2.6172109 4.7674706e-19 10.31812 -7.9288863e-18 8.9410063)
(10.300704 3.5558115 -2.7902755e-18 12.982889 2.5761402e-17 11.121127)
(12.081659 4.3693885 -3.4215995e-18 15.379385 3.1103806e-17 13.056576)
(13.69912 5.0750089 6.7018923e-18 17.566146 -3.8062629e-17 14.810761)
(15.185269 5.684716 -1.709771e-18 19.570885 -2.0684784e-17 16.417683)
(16.560807 6.2089681 -3.6596318e-18 21.411222 8.5179503e-17 17.899313)
(17.83414 6.6559209 1.2980279e-17 23.093777 -1.2189934e-16 19.264692)
(19.013336 7.0323975 2.6042587e-19 24.624251 -4.065738e-17 20.522689)
(20.098885 7.3457642 -1.3756154e-17 26.008027 8.4030263e-17 21.674432)
(21.093234 7.6004308 3.791754e-18 27.250306 1.516334e-17 22.723243)
(21.996584 7.8032087 -4.846043e-18 28.35593 -1.5319171e-17 23.670225)
(22.809129 7.9607407 9.1384744e-19 29.326437 5.5405428e-17 24.516516)
(23.538946 8.0833548 1.3180024e-18 30.156851 -1.0522755e-17 25.271447)
(24.197201 8.181266 1.2313805e-17 30.827984 -3.4357919e-17 25.947317)
(24.806383 8.2614917 -3.5656872e-18 31.317002 -5.1898924e-17 26.56823)
(25.385226 8.3265967 -4.8466402e-18 31.613643 4.5713302e-17 27.154654)
(25.943581 8.3739407 -2.7547288e-23 31.72413 -9.9520162e-23 27.718027)
(26.466547 8.4005454 3.4965194e-18 31.682627 -3.2979679e-17 28.244303)
(26.912841 8.404489 -1.3573105e-17 31.53994 2.72066e-17 28.692006)
(27.228855 8.3887613 3.3946769e-18 31.351214 7.036083e-17 29.006837)
(27.400602 8.3500926 1.7849534e-17 31.149445 -5.8621941e-17 29.173645)
(27.422622 8.2943617 -7.8912116e-18 30.918318 -3.608408e-17 29.185937)
(27.298061 8.2229307 -5.7421643e-18 30.65274 5.4163506e-17 29.047518)
(27.048609 8.1362776 1.1958675e-17 30.32729 3.3238699e-18 28.780232)
(7.3592778e-08 7.057244e-14 -2.8314841e-27 7.3593619e-08 -3.5309056e-28 7.3592937e-08)
(0.016689921 6.2300778e-06 1.5827452e-24 0.018714553 -9.3225538e-27 0.017073011)
(0.23958561 0.036684633 -1.2852502e-28 0.26418333 1.2095276e-27 0.24219078)
(1.1177355 0.1526199 1.6948592e-20 1.2786551 -1.6144423e-19 1.1716668)
(3.2799565 0.59969965 -8.5972098e-20 3.9030452 6.714431e-19 3.4974042)
(5.9834181 1.5624141 -2.8073215e-19 7.3081243 3.136112e-18 6.4281638)
(8.3149109 2.622415 7.1530119e-19 10.344842 -6.9159984e-18 8.963317)
(10.319334 3.5603843 -2.1227921e-20 13.010473 1.1994723e-22 11.144104)
(12.10082 4.3733509 3.5670554e-20 15.408106 -2.1250314e-22 13.080573)
(13.719098 5.0784363 5.2022482e-20 17.596219 -3.7732394e-22 14.836019)
(15.206302 5.6876911 -7.0017824e-20 19.602507 5.29108e-22 16.444395)
(16.583087 6.2115673 -3.1825869e-18 21.444551 3.0727406e-17 17.927624)
(17.857842 6.6582084 6.8536021e-18 23.128959 -3.0752565e-17 19.294733)
(19.038603 7.0344365 1.1307942e-18 24.661408 -5.1175664e-17 20.554556)
(20.125849 7.3475952 -5.4212688e-18 26.047264 4.9585896e-17 21.708206)
(21.121998 7.6020901 3.1960567e-19 27.291748 -2.030172e-21 22.758984)
(22.02722 7.804715 -4.4743234e-18 28.399672 4.0392105e-17 23.707957)
(22.841685 7.9621102 1.1387862e-17 29.372537 -3.5869979e-17 24.556244)
(23.573427 8.08461 -2.0317422e-18 30.2053 -5.4820074e-17 25.313135)
(24.233587 8.1824313 -5.0218067e-18 30.878746 4.919042e-17 25.990912)
(24.844626 8.2625945 -2.2556423e-19 31.369966 1.4453891e-21 26.613662)
(25.425254 8.3276545 -2.3688243e-19 31.668561 1.3859178e-21 27.201834)
(25.98526 8.374966 1.7291323e-23 31.780672 8.0925082e-24 27.766813)
(26.509656 8.4015439 2.5376934e-19 31.740419 -1.4764589e-21 28.294468)
(26.957129 8.4054682 1.4435772e-21 31.598626 3.2803102e-22 28.743295)
(27.274022 8.3897287 -1.4233017e-21 31.410371 -2.7292821e-22 29.058942)
(27.446213 8.3510883 2.6958612e-19 31.208759 -1.8030494e-21 29.22612)
(27.468301 8.2954181 -2.7308063e-19 30.977495 1.7150809e-21 29.238388)
(27.343392 8.2240906 -3.3396211e-23 30.711385 -1.2881519e-22 29.09952)
(27.093147 8.13759 2.7684123e-19 30.384991 -1.8878697e-21 28.831331)
(7.3745704e-08 6.8699891e-14 1.833706e-25 7.3746545e-08 1.5471573e-23 7.3745869e-08)
(0.01642333 5.787224e-06 1.5688082e-22 0.018442749 -1.5037079e-21 0.016819243)
(0.23799687 0.035579326 -2.6419113e-21 0.26297236 2.4722404e-20 0.24096283)
(1.1186066 0.15231422 1.7330759e-20 1.2805061 -1.6217778e-19 1.1730327)
(3.2929423 0.60221896 -9.0248272e-20 3.9203494 6.7445241e-19 3.5122603)
(6.002588 1.5677266 -2.7907899e-19 7.3345141 3.1497115e-18 6.4504858)
(8.3345004 2.6277492 1.6732342e-19 10.372785 -1.4666749e-18 8.9867232)
(10.338848 3.5650558 1.4600453e-18 13.038998 -9.1490427e-18 11.16794)
(12.120641 4.3773923 -1.6693956e-19 15.437529 -6.0491334e-18 13.105176)
(13.739616 5.0819565 4.5665576e-19 17.626859 8.3425806e-18 14.861745)
(15.22783 5.6908002 -6.4498883e-19 19.634691 -1.0392128e-17 16.471526)
(16.605858 6.2143546 1.3578339e-18 21.478493 1.2062916e-17 17.956353)
(17.882067 6.6607479 -1.7880056e-18 23.16484 -1.3325869e-17 19.325229)
(19.064452 7.0367967 -1.4894705e-18 24.699393 5.1363117e-17 20.586948)
(20.153473 7.3498168 9.9436894e-18 26.08749 -8.866905e-17 21.742604)
(21.151522 7.6042071 -5.2984528e-18 27.334355 -4.2837799e-18 22.795466)
(22.058733 7.8067437 -1.1745341e-18 28.444777 1.0991307e-17 23.746571)
(22.875261 7.9640639 -1.0676839e-17 29.420235 3.5972203e-17 24.597022)
(23.609089 8.0865048 1.4043476e-18 30.255625 5.4991145e-17 25.356063)
(24.27134 8.1842825 5.4888844e-18 30.931697 -4.933864e-17 26.035962)
(24.884451 8.2644213 -4.2719979e-18 31.425457 3.7846702e-17 26.660792)
(25.467117 8.3294687 8.9340231e-18 31.726376 4.3576432e-18 27.250997)
(26.029082 8.3767757 9.1119843e-18 31.840497 -7.8806941e-17 27.817924)
(26.555265 8.4033483 -6.6661439e-18 31.801868 -3.7299033e-17 28.347351)
(27.004328 8.4072629 -1.8158762e-17 31.661291 6.6926893e-17 28.797745)
(27.322527 8.3915125 6.5106471e-18 31.473746 4.1180699e-17 29.114667)
(27.495499 8.3528934 4.2816027e-18 31.272539 -3.4974406e-17 29.282585)
(27.517956 8.2972713 -5.5205374e-19 31.041365 2.8001671e-21 29.295166)
(27.392899 8.2260302 2.1481262e-23 30.774887 2.2096605e-22 29.156082)
(27.141948 8.139658 5.5947275e-19 30.447639 -2.5104317e-21 28.887105)
(7.3899409e-08 6.9500307e-14 5.2743583e-23 7.3900256e-08 -4.917779e-22 7.3899576e-08)
(0.016451545 5.9058825e-06 -1.5124545e-22 0.018482843 1.3952367e-21 0.016850181)
(0.24043432 0.035939604 2.7965445e-23 0.26586562 -1.1525292e-25 0.24349814)
(1.1258824 0.15317597 -1.7478391e-20 1.289602 1.6295568e-19 1.1810614)
(3.3099808 0.60552595 7.1381972e-21 3.9425975 6.997316e-20 3.5314772)
(6.02227 1.5732962 5.801626e-19 7.3614032 -5.2904787e-18 6.4733175)
(8.3541484 2.6332277 4.8850185e-19 10.400698 -6.0269579e-18 9.0101171)
(10.358707 3.5699332 -2.8250825e-18 13.067958 2.2220916e-17 11.192058)
(12.141076 4.3816913 -3.2801755e-18 15.467768 3.7527586e-17 13.130339)
(13.760901 5.0857656 8.7185458e-18 17.658584 -6.8174899e-17 14.888188)
(15.250202 5.6942148 -2.4679596e-18 19.668093 -1.3119626e-17 16.49945)
(16.629502 6.2174583 -6.2964742e-18 21.513712 8.2889916e-17 17.985905)
(17.907161 6.6636088 1.0544292e-18 23.20201 -9.8248716e-18 19.356548)
(19.091137 7.039473 1.1703776e-17 24.738649 -7.0527018e-17 20.620133)
(20.181879 7.3523384 -7.8546544e-18 26.128955 -1.9078944e-17 21.777742)
(21.18175 7.6065943 -5.6672308e-18 27.378121 1.0670822e-16 22.832618)
(22.090846 7.8089985 9.7242225e-18 28.49092 -9.2319974e-17 23.785756)
(22.909297 7.9661815 -1.12996e-17 29.468822 3.6087584e-17 24.638237)
(23.645025 8.0884787 6.2985171e-18 30.306657 1.5100749e-17 25.399245)
(24.309133 8.1861019 -6.728408e-18 30.985127 -1.4835869e-17 26.08104)
(24.924019 8.2660785 -1.2207926e-18 31.481123 9.0334484e-17 26.707659)
(25.508356 8.3309531 2.2700173e-17 31.783955 -1.1483682e-16 27.299532)
(26.071838 8.3780753 -1.8491462e-17 31.89957 -1.7686222e-17 27.867963)
(26.599331 8.4044448 9.8687354e-19 31.862007 8.8038914e-17 28.398685)
(27.049492 8.4081445 3.5597469e-19 31.722098 -8.2115747e-18 28.85016)
(27.368531 8.3921831 1.7881007e-17 31.534819 -5.5373977e-17 29.1679)
(27.54194 8.3533531 -2.4652802e-17 31.333621 1.2975764e-17 29.336229)
(27.564469 8.2975467 1.5451461e-17 31.102218 7.2784543e-17 29.348845)
(27.439081 8.2261688 1.2176625e-17 30.835201 -1.091421e-16 29.209386)
(27.187369 8.1397249 -2.8686615e-17 30.507096 3.7953231e-17 28.939602)
(7.4053018e-08 7.2356914e-14 -5.2816119e-23 7.4053892e-08 4.939756e-22 7.4053187e-08)
(0.016940309 6.4589448e-06 2.9668832e-22 0.0190329 -2.6873472e-21 0.017344974)
(0.24499013 0.037412439 3.783746e-23 0.2707421 -1.8750531e-21 0.24791701)
(1.1395618 0.15524728 -2.1541796e-20 1.3060863 2.0011281e-19 1.1957768)
(3.3321627 0.60991236 -8.0884765e-20 3.9713184 7.5130914e-19 3.5562565)
(6.0435599 1.5795527 3.0093499e-19 7.390566 -2.13645e-18 6.4978797)
(8.374781 2.6392748 6.3095139e-19 10.430077 -7.5344851e-18 9.0345407)
(10.379798 3.5754424 -1.4307396e-18 13.098684 1.3091348e-17 11.217455)
(12.163041 4.3867069 -1.7003889e-18 15.500151 1.5793817e-17 13.157089)
(13.783937 5.0903721 5.8511155e-18 17.692731 -4.0738659e-17 14.916449)
(15.274464 5.6985009 -2.6153974e-18 19.704098 -1.3181819e-17 16.529334)
(16.655143 6.2215124 -3.0115718e-18 21.551677 5.2169446e-17 18.017525)
(17.934343 6.6675029 -5.6825955e-18 23.242049 2.1199972e-17 19.390025)
(19.119986 7.0432676 2.5374465e-18 24.780869 5.5590274e-17 20.655553)
(20.212521 7.3560643 1.925648e-17 26.173459 -1.7855031e-16 21.815188)
(21.214278 7.61027 -1.4866973e-17 27.425005 3.166762e-17 22.872141)
(22.125311 7.8126208 -5.270971e-18 28.540258 1.0813171e-16 23.827365)
(22.945723 7.9697406 5.5574866e-18 29.520649 -5.1617758e-17 24.681915)
(23.683374 8.0919656 4.5320694e-18 30.360925 -4.0194479e-17 25.444916)
(24.349346 8.1895067 -1.6973696e-17 31.041735 7.4044983e-17 26.128612)
(24.966013 8.2693946 2.039972e-17 31.539852 -1.9157534e-17 26.757026)
(25.551993 8.3341622 -1.2006467e-17 31.844393 -6.4607178e-17 27.350537)
(26.116924 8.3811471 3.2977818e-18 31.961266 5.7682305e-17 27.920401)
(26.645619 8.4073461 -9.013477e-18 31.924492 -1.2899856e-17 28.452306)
(27.096716 8.4108484 9.5524436e-18 31.784979 1.2286818e-17 28.904696)
(27.416384 8.3946744 -6.7104878e-18 31.597754 -4.1443448e-17 29.223038)
(27.590046 8.3556092 -1.0527465e-17 31.396339 9.0908504e-17 29.391581)
(27.612445 8.2995652 2.6169401e-17 31.164503 -1.8715168e-17 29.404017)
(27.486548 8.2279579 -4.837366e-18 30.896765 -6.4583835e-17 29.263985)
(27.233922 8.1412977 -6.0153083e-18 30.56761 5.0673263e-17 28.993212)
(26.870358 8.0394239 1.721588e-17 30.157386 -3.8044727e-17 28.607718)