/*--------------------------------*- C++ -*----------------------------------*\
| =========                 |                                                 |
| \\      /  F ield         | OpenFOAM: The Open Source CFD Toolbox           |
|  \\    /   O peration     | Version:  2506                                  |
|   \\  /    A nd           | Website:  www.openfoam.com                      |
|    \\/     M anipulation  |                                                 |
\*---------------------------------------------------------------------------*/
FoamFile
{
    version     2.0;
    format      ascii;
    arch        "LSB;label=32;scalar=64";
    class       volVectorField;
    location    "0.0125";
    object      U;
}
// * * * * * * * * * * * * * * * * * * * * * * * * * * * * * * * * * * * * * //

dimensions      [0 1 -1 0 0 0 0];

internalField   nonuniform List<vector> 
13761
(
(37.922231 -4.6628518 -6.5690544e-18)
(38.579739 -4.7447308 0)
(39.229785 -4.825838 1.9589088e-25)
(39.873876 -4.9063775 0)
(40.513273 -4.9865266 5.9261285e-22)
(41.14892 -5.0664263 4.5000112e-18)
(41.781471 -5.1461859 -4.1681852e-18)
(42.411299 -5.2258846 3.8601525e-18)
(43.038311 -5.3055491 -3.5747627e-18)
(43.661909 -5.3851489 0)
(44.280944 -5.4645923 0)
(44.893682 -5.5437218 1.3824481e-21)
(45.497882 -5.6223242 -1.2778606e-21)
(46.091025 -5.7001576 0)
(46.670686 -5.7769948 -1.0918225e-21)
(47.235112 -5.8526968 2.0170073e-21)
(47.783988 -5.9273026 -1.9084607e-18)
(48.319172 -6.0011186 1.7633759e-18)
(48.845484 -6.0748126 -1.5915188e-21)
(49.371407 -6.1495006 0)
(49.909853 -6.2268306 0)
(50.479475 -6.3091055 0)
(51.107721 -6.39958 -2.3228171e-21)
(51.839924 -6.503878 4.2932621e-21)
(0.87816974 -0.10751118 4.3642799e-17)
(2.7144196 -0.33191063 -4.6794316e-17)
(4.713065 -0.57634112 4.4557315e-17)
(6.8847262 -0.84191183 -4.1999748e-24)
(9.2236861 -1.1279468 -3.9848817e-17)
(11.684721 -1.4289215 0)
(14.15899 -1.7315196 3.459949e-17)
(16.509191 -2.0189674 5.6539295e-23)
(18.643039 -2.2799805 -5.859261e-17)
(20.53787 -2.5117861 2.6863428e-17)
(22.215149 -2.7170098 -2.4619237e-17)
(23.709543 -2.8998924 2.2586733e-17)
(25.053971 -3.0644619 -2.0760725e-17)
(26.276449 -3.2141424 3.8223908e-17)
(27.399775 -3.3517233 -1.7620201e-17)
(28.441995 -3.479414 1.6265174e-17)
(29.41736 -3.5989563 -1.5029543e-17)
(30.337036 -3.7117181 -2.1207291e-22)
(31.209622 -3.8187539 -1.2871623e-17)
(32.042132 -3.9209229 -3.6004181e-22)
(32.840599 -4.0189657 2.2103793e-17)
(33.609887 -4.1134815 -1.0247992e-17)
(34.35404 -4.2049681 -9.5047868e-18)
(35.076664 -4.2938703 8.8163155e-18)
(35.780808 -4.3805653 8.1792448e-18)
(36.469195 -4.4653907 -3.8307368e-24)
(37.144249 -4.548648 -1.4079775e-17)
(37.808101 -4.6306037 6.5309997e-18)
(38.462705 -4.7115029 6.0571169e-18)
(39.10979 -4.7915648 -5.6155655e-18)
(39.750848 -4.8709797 5.207703e-18)
(40.387132 -4.949907 -1.1821486e-21)
(41.01959 -5.0284572 -4.4740858e-18)
(41.648889 -5.1067537 -4.1477123e-18)
(42.275398 -5.1848413 9.42611e-22)
(42.899019 -5.2627107 3.5560602e-18)
(43.519153 -5.340287 0)
(44.134665 -5.4174572 1.4868693e-21)
(44.743838 -5.4940237 0)
(45.344449 -5.5697259 3.8941295e-25)
(45.933992 -5.6442686 1.1752598e-21)
(46.510035 -5.7173657 0)
(47.070797 -5.7888136 -2.0076165e-21)
(47.615916 -5.8585854 1.8989933e-18)
(48.147196 -5.9269252 -1.7529275e-18)
(48.669398 -5.9944484 0)
(49.190965 -6.0622379 0)
(49.724823 -6.1319476 0)
(50.289839 -6.2059721 0)
(50.914429 -6.2879294 7.2907499e-25)
(0.87999032 -0.10727184 4.3427616e-17)
(2.7184533 -0.33106804 -9.715632e-27)
(4.7181327 -0.57460759 -8.4583915e-23)
(6.8897709 -0.83909164 0)
(9.2277543 -1.1238228 1.5130538e-22)
(11.686785 -1.4232825 0)
(14.157869 -1.7242034 -6.5680937e-23)
(16.503949 -2.0098793 6.0559943e-23)
(18.633424 -2.2691572 -1.1122313e-22)
(20.524254 -2.4993532 -2.6736792e-17)
(22.198187 -2.7031146 4.9006962e-17)
(23.689953 -2.8846706 -2.2480724e-17)
(25.032416 -3.0480231 -1.5764201e-22)
(26.253511 -3.1965731 -1.4512794e-22)
(27.375953 -3.3330864 1.7539113e-17)
(28.417718 -3.4597482 -1.61908e-17)
(29.392992 -3.5782848 0)
(30.312897 -3.6900466 4.2232969e-22)
(31.185993 -3.7960723 0)
(32.019257 -3.8972082 3.6236315e-22)
(32.81869 -3.9941793 -3.3578859e-22)
(33.589122 -4.0875682 -3.1137534e-22)
(34.334562 -4.1778567 0)
(35.058578 -4.2654715 -5.8092575e-26)
(35.764186 -4.3507715 -8.1451914e-18)
(36.45408 -4.4340759 1.5113138e-17)
(37.130673 -4.5156675 -7.010498e-18)
(37.796097 -4.5957942 -3.969477e-22)
(38.4523 -4.6746796 0)
(39.101008 -4.7525188 5.5937938e-18)
(39.743705 -4.8294754 -1.037411e-17)
(40.381644 -4.9056855 4.8080398e-18)
(41.015768 -4.9812569 -4.4565252e-18)
(41.646734 -5.0562132 4.1325154e-18)
(42.274932 -5.1305847 0)
(42.900295 -5.2043383 1.8462274e-25)
(43.522252 -5.2773792 3.2791462e-18)
(44.139684 -5.3495122 -6.0676966e-18)
(44.750884 -5.4204773 2.8045919e-18)
(45.353624 -5.489943 2.5337692e-21)
(45.945373 -5.5575334 -2.3992527e-18)
(46.523654 -5.6228688 3.7435127e-24)
(47.086625 -5.6856367 2.0033676e-21)
(47.633854 -5.7456864 3.7815018e-18)
(48.167073 -5.8031216 -3.4990654e-18)
(48.690953 -5.8583966 4.7458796e-24)
(49.213784 -5.9123988 2.9852483e-18)
(49.748205 -5.9665311 -1.3823535e-18)
(0.89021035 -0.10810277 -4.1225723e-23)
(2.7475556 -0.33348601 -4.4214414e-23)
(4.7652345 -0.5783305 -4.4145129e-17)
(6.9537565 -0.84386703 1.1710271e-24)
(9.3071759 -1.1293596 3.9483814e-17)
(11.779648 -1.4292417 -3.693358e-17)
(14.261538 -1.7302044 6.858119e-17)
(16.615606 -2.0155963 -3.1617217e-17)
(18.75072 -2.2743584 1.1076234e-22)
(20.645582 -2.503907 9.2257899e-27)
(22.322558 -2.7069565 2.4399243e-17)
(23.816798 -2.8877706 -8.297995e-25)
(25.161422 -3.0503652 -4.1152936e-17)
(26.384541 -3.1981476 1.4530115e-22)
(27.508984 -3.333883 1.7465662e-17)
(28.552798 -3.4597551 -1.2302145e-22)
(29.530228 -3.5774852 0)
(30.45243 -3.6884184 -2.1030386e-22)
(31.327989 -3.7935866 -1.9473467e-22)
(32.1639 -3.893828 -1.1825727e-17)
(32.966174 -3.9898592 1.0960241e-17)
(33.739647 -4.0822529 -1.0163126e-17)
(34.488331 -4.1714802 9.4270933e-18)
(35.215794 -4.2579564 8.7443898e-18)
(35.925047 -4.3420271 -8.1136035e-18)
(36.618782 -4.4239969 -4.5944492e-22)
(37.299406 -4.5041334 6.9835604e-18)
(37.969046 -4.5826675 -6.4792013e-18)
(38.62965 -4.6598045 0)
(39.282942 -4.7357194 -6.803814e-22)
(39.930413 -4.8105541 5.1680643e-18)
(40.573329 -4.8844179 -9.5799705e-18)
(41.21266 -4.9573774 4.4405696e-18)
(41.849102 -5.0294586 -8.5880815e-26)
(42.48308 -5.1006461 0)
(43.114566 -5.1708606 1.7224005e-21)
(43.743034 -5.2399525 3.2654391e-18)
(44.36742 -5.3076953 -3.0219497e-18)
(44.986083 -5.3737794 1.3641579e-21)
(45.596857 -5.4378176 2.5818372e-18)
(46.197269 -5.4993697 -2.3876274e-18)
(46.784879 -5.5579841 -2.2064971e-18)
(47.35785 -5.6132686 4.0774776e-18)
(47.915711 -5.6649814 -1.8816972e-18)
(48.460091 -5.7131243 1.3055117e-25)
(48.995416 -5.758027 1.5704755e-21)
(0.9025388 -0.10915482 8.606683e-17)
(2.7847747 -0.3367009 -6.7005006e-25)
(4.8284228 -0.58375834 -8.7895463e-17)
(7.0437618 -0.85153226 4.1688968e-17)
(9.4243698 -1.1392372 -7.4971361e-23)
(11.923351 -1.4411943 0)
(14.429426 -1.7439416 -3.4135603e-17)
(16.804058 -2.0307236 3.1472971e-17)
(18.95595 -2.2905017 0)
(20.864426 -2.5207745 -2.6499641e-17)
(22.552638 -2.7243388 9.2734787e-23)
(24.05637 -2.9055165 2.2281359e-17)
(25.409208 -3.0683638 0)
(26.639607 -3.2163155 0)
(27.770651 -3.3521553 1.7385217e-17)
(28.820586 -3.4780809 -1.604936e-17)
(29.80381 -3.5958232 2.2630036e-22)
(30.731595 -3.7067341 -1.371864e-17)
(31.612621 -3.8118499 2.5409054e-17)
(32.453958 -3.9120114 -2.3544159e-17)
(33.261678 -4.0079358 1.0910928e-17)
(34.04067 -4.1001954 -1.0117662e-17)
(34.794982 -4.189259 1.8770305e-17)
(35.528215 -4.2755388 -8.7056612e-18)
(36.243408 -4.3593767 8.0785894e-18)
(36.94327 -4.441072 -7.4942549e-18)
(37.630228 -4.5208866 4.2444301e-22)
(38.306424 -4.5990446 0)
(38.97382 -4.6757445 -5.9841483e-18)
(39.634164 -4.7511546 5.550368e-18)
(40.288994 -4.8254137 6.2812534e-22)
(40.93972 -4.8986402 -5.8226434e-22)
(41.587485 -4.9709173 -4.4211289e-18)
(42.233005 -5.0422729 4.0955811e-18)
(42.876733 -5.1126966 -9.2597157e-22)
(43.518659 -5.1821171 3.5115816e-18)
(44.158261 -5.2503958 -3.2506624e-18)
(44.79445 -5.3173207 3.0052374e-18)
(45.425523 -5.3826006 -2.7808129e-18)
(46.049231 -5.4458728 2.5711775e-18)
(46.662952 -5.5067244 -1.1598883e-21)
(47.264016 -5.5647315 -2.1940659e-18)
(47.850294 -5.6195329 -2.0311807e-18)
(0.90993517 -0.10974173 -4.2845953e-17)
(2.8082556 -0.33855295 0)
(4.8699681 -0.58709451 4.1734155e-23)
(7.1054247 -0.85655736 7.9170876e-23)
(9.5079901 -1.1461321 7.4656059e-23)
(12.029968 -1.4500602 0)
(14.558567 -1.7547374 0)
(16.953709 -2.043269 -3.1335839e-17)
(19.123451 -2.3045677 2.8773408e-17)
(21.047237 -2.536154 -1.0063522e-22)
(22.748644 -2.7408666 -8.4255739e-27)
(24.263888 -2.9230673 2.2182501e-17)
(25.62693 -3.0868467 -2.0389755e-17)
(26.866521 -3.2356665 0)
(28.005984 -3.3723319 0)
(29.063767 -3.4990599 0)
(30.054443 -3.6175994 -2.2531283e-22)
(30.989447 -3.7293209 0)
(31.87761 -3.8352794 0)
(32.726167 -3.936336 1.7882348e-22)
(33.541249 -4.0332195 -6.6294594e-22)
(34.327734 -4.1265064 -3.0739334e-22)
(35.08966 -4.2166704 -9.3424795e-18)
(35.830615 -4.3041308 1.7331769e-17)
(36.553627 -4.3892383 -8.0412556e-18)
(37.261403 -4.4723039 -7.4593514e-18)
(37.956364 -4.5536032 6.9212533e-18)
(38.640646 -4.633376 -3.918725e-22)
(39.316202 -4.7118391 3.6347747e-22)
(39.984748 -4.7891795 5.5230013e-18)
(40.647733 -4.8655512 -1.2500318e-21)
(41.306268 -4.9410687 -4.7464161e-18)
(41.961124 -5.0158058 -4.3987112e-18)
(42.612944 -5.089822 4.0740996e-18)
(43.262095 -5.1631443 8.6153807e-26)
(43.908501 -5.2357476 -3.4953257e-18)
(44.551566 -5.3075484 7.8903293e-22)
(45.190087 -5.3783865 2.9925443e-18)
(45.822288 -5.4480356 0)
(0.91359398 -0.10989313 4.0686374e-23)
(2.8205836 -0.33907522 -4.5755385e-17)
(4.8927463 -0.58818398 4.3574818e-17)
(7.1405463 -0.85838593 -1.1821771e-26)
(9.5572219 -1.1488677 0)
(12.094445 -1.4538182 0)
(14.638204 -1.7595255 0)
(17.047261 -2.0490109 -3.1200025e-17)
(19.229259 -2.3111705 1.8472858e-24)
(21.16379 -2.5435519 5.2532304e-17)
(22.874708 -2.7490205 -1.8535902e-22)
(24.398482 -2.9319584 -2.2083958e-17)
(25.769266 -3.0964696 0)
(27.015948 -3.2460242 0)
(28.161943 -3.3834356 1.7231332e-17)
(29.225748 -3.5109244 -1.5907885e-17)
(30.221945 -3.6302406 -2.2429647e-22)
(31.161933 -3.7427524 0)
(32.054442 -3.8495074 0)
(32.906537 -3.9513545 -3.5609877e-22)
(33.724348 -4.0490238 3.2997442e-22)
(34.512748 -4.1431045 0)
(35.275753 -4.2340785 -9.2955569e-18)
(36.016933 -4.3223762 8.6223803e-18)
(36.739357 -4.4083614 0)
(37.445767 -4.4923642 -4.5303524e-22)
(38.138631 -4.574682 6.8865831e-18)
(38.820119 -4.6555775 -1.2775777e-17)
(39.492184 -4.7352875 5.9253417e-18)
(40.156528 -4.814021 0)
(40.814606 -4.8919584 1.2437958e-21)
(41.467638 -4.969253 -4.7216859e-18)
(42.116541 -5.0460247 4.3764696e-18)
(42.761965 -5.1223708 0)
(43.404335 -5.1983176 3.7601058e-18)
(0.91328027 -0.10951953 -4.0504568e-23)
(2.820629 -0.33798297 -4.5561058e-17)
(4.8942348 -0.58648423 4.3388688e-17)
(7.1446668 -0.85617022 -7.850909e-23)
(9.5651319 -1.1462293 0)
(12.106963 -1.4508298 6.9215987e-23)
(14.655484 -1.7562325 6.4249718e-23)
(17.068878 -2.0454415 3.1057022e-17)
(19.254588 -2.3073643 -5.7027914e-17)
(21.192247 -2.53956 5.2284777e-17)
(22.905776 -2.7448978 -4.7913173e-17)
(24.431664 -2.9277496 4.3956546e-17)
(25.804073 -3.092209 -4.0403097e-17)
(27.051884 -3.2417383 3.719635e-17)
(28.19851 -3.379143 -1.7147661e-17)
(29.26244 -3.5066408 1.2078649e-22)
(30.258255 -3.6259793 2.2324034e-22)
(31.19737 -3.7385284 -1.3532058e-17)
(32.088551 -3.8453401 2.506354e-17)
(32.938941 -3.9472719 -1.1611856e-17)
(33.754678 -4.0450665 3.2832772e-22)
(34.540787 -4.1393238 -9.9759473e-18)
(35.30144 -4.2305468 9.25172e-18)
(36.040331 -4.3191789 0)
(36.760525 -4.4055995 0)
(37.464732 -4.4901337 0)
(1.1233561 0.084335003 3.8065103e-17)
(3.4670508 0.26017492 -2.0764829e-17)
(6.0125655 0.45119306 0)
(8.7725437 0.65829374 3.6058406e-23)
(11.738354 0.88082374 3.4106264e-23)
(14.850253 1.1142962 5.2436139e-27)
(17.96862 1.3482297 1.5574369e-17)
(20.921958 1.5697511 -1.4361071e-17)
(23.598968 1.7705063 0)
(25.975199 1.9486594 0)
(28.079213 2.1063515 1.1064929e-17)
(29.954602 2.2468524 -1.014751e-17)
(31.642221 2.373226 0)
(33.176757 2.4880734 -6.5490235e-23)
(34.586482 2.5935138 -6.0381548e-23)
(35.89385 2.6912293 0)
(37.116646 2.7825511 -6.7537702e-18)
(38.26882 2.8685221 6.2493709e-18)
(39.361087 2.9499419 -5.7895707e-18)
(40.402142 3.0274582 5.3672704e-18)
(41.399394 3.1016213 4.977202e-18)
(42.358732 3.1728671 -9.2357219e-18)
(43.284981 3.241551 -6.8613631e-26)
(44.182392 3.3079844 1.21308e-22)
(45.054518 3.3724265 3.6930402e-18)
(45.904526 3.4351062 3.4280905e-18)
(46.735253 3.4962276 -1.9406993e-22)
(47.54922 3.5559701 1.9979092e-25)
(48.348768 3.6144984 -2.7420028e-18)
(49.136008 3.6719599 0)
(49.912821 3.7284835 0)
(50.680874 3.784182 0)
(51.441549 3.8391462 8.2190405e-26)
(52.195984 3.8934484 4.5989394e-22)
(52.945084 3.9471432 -1.7465782e-18)
(53.689316 4.0002526 1.6176479e-18)
(54.428671 4.0527639 1.2194056e-25)
(55.1626 4.104625 -1.3878202e-18)
(55.88993 4.1557391 1.2833913e-18)
(56.608818 4.2059618 -5.8049799e-22)
(57.316843 4.2551089 5.3696927e-22)
(58.011251 4.3029753 -9.9314037e-22)
(58.689358 4.349365 -9.1817259e-22)
(59.349166 4.3941343 -8.6813809e-19)
(59.989965 4.4372289 1.6064294e-18)
(60.613045 4.47873 -7.4242031e-19)
(61.222317 4.5189114 0)
(61.824779 4.558278 -6.3452478e-19)
(62.430891 4.5975798 5.8673107e-19)
(1.1202467 0.084784731 -1.813581e-23)
(3.4565568 0.26152968 2.0748456e-17)
(5.9931234 0.4534378 -1.9841939e-17)
(8.7424607 0.66143675 0)
(11.695952 0.88486523 1.7865985e-17)
(14.794209 1.1192213 -1.6746135e-17)
(17.898412 1.3539926 -2.9683522e-23)
(20.837966 1.5762636 0)
(23.502147 1.7776512 0)
(25.866752 1.9563195 0)
(27.960393 2.1144294 -4.1944377e-27)
(29.826598 2.2552708 0)
(31.506092 2.3819216 -7.1096016e-23)
(33.033417 2.4969913 6.543883e-23)
(34.436699 2.6026034 6.0335734e-23)
(35.738256 2.7004414 -1.1142787e-22)
(36.955759 2.791836 0)
(38.103063 2.8778289 0)
(39.190806 2.9592175 -8.8296249e-23)
(40.227608 3.036646 1.6369276e-22)
(41.220814 3.1106604 -3.0359693e-22)
(42.176267 3.1816923 0)
(43.098752 3.2500922 0)
(43.992491 3.3161664 1.2125052e-26)
(44.861019 3.3801677 0)
(45.707488 3.442318 0)
(46.534732 3.5028131 0)
(47.345276 3.5618239 2.9526811e-18)
(48.141467 3.619506 -2.740899e-18)
(48.925427 3.6759957 0)
(49.699056 3.7314102 0)
(50.464047 3.7858485 -2.6722576e-22)
(51.221816 3.8393864 2.0299311e-18)
(51.973547 3.892079 -1.8827164e-18)
(52.72021 3.9439623 4.2601216e-22)
(53.462365 3.9950381 3.947624e-22)
(54.200124 4.0452719 -1.4627349e-21)
(54.933094 4.0945888 0)
(55.660289 4.142867 1.2538066e-21)
(56.380108 4.1899385 5.8009823e-22)
(57.090413 4.2355954 -5.3660987e-22)
(57.788653 4.2796015 9.9249656e-22)
(58.472177 4.3217175 -9.361657e-26)
(59.138709 4.3617404 8.6943909e-19)
(59.786712 4.3995365 -8.0282579e-19)
(60.417126 4.435171 0)
(61.033768 4.4689274 -6.8593773e-19)
(61.643545 4.501324 6.3418262e-19)
(62.256774 4.5331398 0)
(62.887426 4.5654185 0)
(63.553753 4.5994792 5.013301e-19)
(64.280312 4.6370482 -4.6517867e-19)
(65.106056 4.6811852 0)
(66.138583 4.7413486 0)
(67.712837 4.8266469 2.851152e-21)
(70.877731 5.0388948 0)
(77.157348 5.4465553 2.4192482e-21)
(85.958219 6.0126965 -2.2243301e-21)
(94.133454 6.5478829 4.0895997e-21)
(99.323736 6.8747482 4.1420062e-25)
(101.94713 7.0867155 -3.4557089e-21)
(103.03602 7.1527782 3.1818356e-21)
(103.35835 7.2025923 0)
(103.44328 7.2166997 -5.401024e-21)
(103.46054 7.2272312 -1.6428562e-19)
(103.45622 7.2301773 -4.5888481e-21)
(103.44061 7.2355488 1.4376936e-19)
(103.4341 7.2270383 -1.4055082e-19)
(103.44829 7.2095229 1.1511862e-19)
(103.45365 7.1964091 0)
(103.43993 7.1802584 1.0998178e-19)
(103.43604 7.1574061 -1.68895e-19)
(103.43269 7.1392248 9.336935e-20)
(103.41265 7.120608 -9.5601987e-21)
(103.37428 7.0931232 6.1658866e-20)
(103.35188 7.0699104 -3.2459014e-20)
(103.33547 7.0406504 4.4862581e-20)
(103.30764 7.0004756 -6.8889055e-20)
(103.28625 6.9576052 2.5385635e-20)
(103.26236 6.9079346 -2.338274e-20)
(103.22923 6.8559021 2.4719339e-24)
(103.19982 6.8014869 3.9686169e-20)
(103.15238 6.749139 2.1385329e-24)
(103.09828 6.6916425 -3.3667327e-20)
(103.05629 6.6231117 0)
(103.00196 6.5482437 -5.7115552e-20)
(102.93991 6.4718805 2.6296099e-20)
(102.87763 6.3894485 -2.4211442e-20)
(102.81219 6.3031339 6.6890416e-20)
(102.73107 6.2099161 6.1584116e-20)
(1.1151 0.085078555 -1.8122736e-23)
(3.4395958 0.26240011 -1.977059e-23)
(5.962261 0.45481968 1.9825611e-17)
(8.6954823 0.6632732 -1.887588e-17)
(11.630662 0.88709713 -3.404694e-23)
(14.708766 1.1217805 3.1912199e-23)
(17.791839 1.3567918 5.9311687e-23)
(20.710414 1.5791977 0)
(23.354656 1.7806154 -5.0197704e-23)
(25.700806 1.9592284 0)
(27.777581 2.1172231 -1.104546e-17)
(29.628454 2.2579108 1.012958e-17)
(31.294035 2.3843848 -1.407815e-27)
(32.808731 2.4992642 8.5685714e-18)
(34.200517 2.6046768 -7.9004688e-18)
(35.491566 2.7023069 1.1130513e-22)
(36.699411 2.7934837 -1.0288884e-22)
(37.83778 2.8792451 0)
(38.917195 2.9603836 8.8205694e-23)
(39.946174 3.0375379 0)
(40.931974 3.1112485 1.5165745e-22)
(41.880358 3.1819404 0)
(42.796044 3.2499579 0)
(43.683189 3.3156002 -3.9722593e-18)
(44.545275 3.3791132 3.6876398e-18)
(45.385401 3.440712 -3.4232882e-18)
(46.206355 3.5005851 3.1779335e-18)
(47.010618 3.5588954 -2.9502612e-18)
(47.800497 3.6157889 2.7386732e-18)
(48.578086 3.6713919 0)
(49.345257 3.7258102 2.87829e-22)
(50.103681 3.7791297 2.6699836e-22)
(50.854754 3.8314113 -2.0288281e-18)
(51.599646 3.8826929 1.8812444e-18)
(52.339316 3.93299 1.743291e-18)
(53.074314 3.9822807 -1.6158159e-18)
(53.804749 4.0305022 3.6539385e-22)
(54.53023 4.0775451 -6.7673492e-22)
(55.249781 4.1232467 1.2154541e-26)
(55.961831 4.1673888 0)
(56.664293 4.2097026 1.0977104e-18)
(57.354722 4.2498803 -1.0156502e-18)
(58.030674 4.2876039 1.833979e-21)
(58.690347 4.3225933 8.6713057e-19)
(59.333477 4.3546781 7.8445405e-22)
(59.961195 4.3837975 -7.4154364e-19)
(60.577 4.410083 0)
(61.18738 4.4338991 0)
(61.802111 4.4558609 0)
(62.434425 4.476839 0)
(63.101354 4.4979558 0)
(63.825252 4.5206358 0)
(64.640981 4.5471139 4.2798438e-19)
(65.651218 4.5917803 -3.9530154e-19)
(67.219374 4.6475109 0)
(70.515198 4.8947217 0)
(76.517809 5.3117 -4.8352775e-21)
(85.013008 5.9249465 0)
(93.353291 6.4538058 0)
(99.145171 6.8711633 -2.4435596e-19)
(101.95877 7.0894428 -3.4466983e-21)
(103.10122 7.1628847 3.1738319e-21)
(103.42631 7.2130496 1.872045e-19)
(103.50063 7.2260215 5.3903001e-21)
(103.50126 7.2386419 1.5894453e-19)
(103.48163 7.2421895 -2.9294989e-19)
(103.4483 7.2469358 -1.6874431e-20)
(103.41935 7.250336 1.3246739e-19)
(103.40697 7.2429073 1.1496792e-19)
(103.40898 7.2330275 -9.9374264e-20)
(103.38947 7.2184626 8.5476269e-20)
(103.3726 7.1988953 -1.1251191e-19)
(103.37939 7.1793193 6.2202086e-20)
(103.36479 7.1563297 9.5546356e-21)
(103.32561 7.1305668 -6.1610412e-20)
(103.30106 7.111764 -1.6216975e-20)
(103.27298 7.0826655 7.4715781e-20)
(103.23611 7.0523172 -4.1303054e-20)
(103.20521 7.0166145 -3.8051521e-20)
(103.17573 6.9686864 2.3369249e-20)
(103.14362 6.912655 -2.1526924e-20)
(103.11934 6.8590311 3.9660755e-20)
(103.07678 6.7938023 2.2266474e-24)
(103.02309 6.7379514 3.0591798e-24)
(102.97948 6.6753415 -3.0989019e-20)
(102.92692 6.6023743 5.7074898e-20)
(102.8681 6.5211471 -5.2559957e-20)
(102.80798 6.4370004 2.4197828e-20)
(102.73671 6.3458108 -1.1140777e-19)
(102.66342 6.2481064 -8.2059362e-20)
(102.58742 6.1569477 -2.0694852e-24)
(102.49666 6.0384878 -1.7384154e-20)
(102.4066 5.9291608 -8.0015767e-20)
(102.30882 5.7917676 -2.2574226e-24)
(102.20865 5.6457613 6.7761643e-20)
(102.10028 5.5089716 -1.2468833e-20)
(101.97088 5.3302355 1.9497201e-19)
(101.84164 5.1937062 0)
(101.69753 5.0027545 0)
(1.1047872 0.084941741 -1.8988058e-17)
(3.4082352 0.26199205 2.0714449e-17)
(5.9086195 0.45416873 -1.9809125e-17)
(8.6183749 0.66241672 -1.8860094e-17)
(11.52913 0.88608527 3.5671783e-17)
(14.58244 1.120675 -3.3435031e-17)
(17.641414 1.3556566 1.5535172e-17)
(20.537668 1.578081 5.464652e-23)
(23.161934 1.7795452 -2.4115647e-27)
(25.490483 1.9582218 0)
(27.551792 2.116296 -2.0223469e-27)
(29.389021 2.2570818 0)
(31.042485 2.3836746 1.4191019e-22)
(32.546317 2.4986935 0)
(33.928252 2.6042654 0)
(35.210257 2.7020728 0)
(36.409692 2.7934431 1.0280219e-22)
(37.54014 2.8794121 6.2342157e-18)
(38.612003 2.960771 -5.7758274e-18)
(39.633703 3.038157 0)
(40.612409 3.1121098 0)
(41.553815 3.1830541 -1.4060814e-22)
(42.462581 3.251334 -1.3049516e-22)
(43.342815 3.317249 2.4222959e-22)
(44.19795 3.3810454 0)
(45.031052 3.4429386 0)
(45.844868 3.5031174 -9.139231e-27)
(46.641847 3.5617451 -2.9475665e-18)
(47.424266 3.6189684 2.7354755e-18)
(48.194185 3.674914 0)
(48.953444 3.7296879 -2.3559846e-18)
(49.703681 3.7833764 -6.9299129e-25)
(50.446258 3.8360397 2.0268882e-18)
(51.182308 3.8877149 0)
(51.912751 3.9384157 8.5062808e-22)
(52.638097 3.9881173 0)
(53.358418 4.0367528 3.6505876e-22)
(54.073294 4.0842079 -1.38326e-18)
(54.781725 4.1303134 -6.2659913e-22)
(55.48213 4.1748434 1.1854982e-18)
(56.172432 4.217521 -1.0971709e-18)
(56.850228 4.2580297 1.014657e-18)
(57.513133 4.2960403 -9.1612137e-22)
(58.159351 4.3312524 -8.4685641e-22)
(58.788277 4.3634432 -7.8276067e-22)
(59.401233 4.3925169 -1.4471565e-21)
(60.002095 4.4185477 -6.8492929e-19)
(60.597727 4.4418146 -3.0253181e-25)
(61.198353 4.4628199 5.8562271e-19)
(61.817885 4.4823129 0)
(62.474641 4.5013677 1.9561178e-21)
(63.193769 4.5216234 0)
(64.016653 4.5461048 1.670727e-21)
(65.063705 4.5835757 -3.9341273e-19)
(66.749326 4.6704996 7.2876296e-19)
(70.432313 4.9311968 -3.3528534e-19)
(76.440979 5.3913401 3.0850572e-19)
(84.821548 6.0522284 -5.6789126e-19)
(93.112708 6.6459692 5.2321136e-19)
(99.010583 7.1043533 3.7623124e-21)
(101.96942 7.2717932 -4.3815417e-19)
(103.20621 7.3903073 4.0358044e-19)
(103.53017 7.398138 -1.8735404e-19)
(103.58643 7.3943932 -1.0788072e-20)
(103.5693 7.384949 1.5409199e-19)
(103.53351 7.372623 -2.9776721e-19)
(103.48547 7.3584251 1.4353274e-19)
(103.44358 7.3470687 7.7843751e-21)
(103.39725 7.3455465 7.1798227e-21)
(103.36591 7.3286369 -6.6198967e-21)
(103.33808 7.3037749 0)
(103.31184 7.284281 1.1242439e-20)
(103.30878 7.2611346 -7.2519746e-20)
(103.29443 7.2272195 6.6822719e-20)
(103.2697 7.1952197 0)
(103.25065 7.1679629 -1.6207419e-20)
(103.22293 7.1379687 1.4933539e-20)
(103.18754 7.1058809 5.5032778e-20)
(103.14664 7.0751749 -3.8021296e-20)
(103.10519 7.0330658 0)
(103.07239 6.9829143 -6.4543215e-20)
(103.04182 6.9329215 5.9451123e-20)
(103.00032 6.8608105 -3.6508937e-20)
(102.95524 6.8034544 -3.3624086e-20)
(102.90804 6.7434115 6.193647e-20)
(102.85455 6.6670236 -6.0380696e-25)
(102.79779 6.596086 0)
(102.73517 6.5155154 2.4185139e-20)
(102.66768 6.4260172 2.2266053e-20)
(102.59632 6.3335292 4.0999743e-20)
(102.51076 6.2253107 7.5494562e-20)
(102.42846 6.1206243 -1.7374965e-20)
(102.33533 6.0013872 1.4392565e-19)
(102.23462 5.861328 0)
(102.14274 5.7288952 -5.4172541e-20)
(102.02982 5.5701238 0)
(101.91031 5.4139922 -1.9485613e-19)
(101.78215 5.259355 -6.3261017e-20)
(101.63597 5.074813 -9.6956065e-21)
(101.50183 4.8878878 8.9166471e-21)
(101.33528 4.696926 -8.1949293e-21)
(101.16304 4.4998075 -2.4107599e-19)
(100.98482 4.2744265 -1.0384862e-19)
(100.78708 4.0572206 -6.3587648e-21)
(1.0966152 0.084966665 0)
(3.3846822 0.26212897 0)
(5.8700205 0.45459911 1.9794996e-17)
(8.5650736 0.66330097 -1.8846555e-17)
(11.461513 0.88758386 -5.7524908e-27)
(14.501023 1.1229293 -1.6705031e-17)
(17.546938 1.3587508 1.5523357e-17)
(20.431074 1.5820203 1.4312977e-17)
(23.044242 1.7842781 -1.31365e-17)
(25.362704 1.9636833 0)
(27.414883 2.1224351 -7.1118948e-27)
(29.243864 2.2638678 -1.0111106e-17)
(30.889881 2.3910949 9.291474e-18)
(32.386969 2.5067502 6.5263442e-23)
(33.762758 2.612971 0)
(35.039115 2.7114476 5.5564493e-23)
(36.233303 2.8035136 1.0272731e-22)
(37.35882 2.8902106 6.2290606e-18)
(38.425996 2.9723343 -5.7714996e-18)
(39.443187 3.0505273 -5.350481e-18)
(40.417505 3.1253348 4.9617574e-18)
(41.354595 3.1971879 2.8099274e-22)
(42.259073 3.2664376 -2.196485e-26)
(43.135008 3.3333912 -1.2101155e-22)
(43.985802 3.3983037 -3.681569e-18)
(44.814484 3.4614003 6.8351975e-18)
(45.623778 3.522881 -3.1724032e-18)
(46.416102 3.5829213 2.9454326e-18)
(47.193706 3.6416819 -2.7336405e-18)
(47.958623 3.6993051 2.5371384e-18)
(48.712663 3.7559138 -2.3535017e-18)
(49.457433 3.8116123 2.1831832e-18)
(50.19426 3.8664811 -2.0249653e-18)
(50.924235 3.9205792 0)
(51.648231 3.9739448 -4.249178e-22)
(52.366709 4.0265801 -1.6128689e-18)
(53.079688 4.0784477 2.9879523e-18)
(53.786684 4.1294656 -1.3509689e-21)
(54.486637 4.1795001 -1.2799432e-18)
(55.177912 4.2283645 1.1855933e-18)
(55.858391 4.2758256 -2.1912767e-18)
(56.525647 4.3216148 1.0127322e-18)
(57.177296 4.3654554 -9.1535766e-22)
(57.811567 4.4071039 8.4596347e-22)
(58.427897 4.4463968 -7.8208504e-22)
(59.027671 4.4833052 -2.3548059e-25)
(59.614854 4.5179783 0)
(60.196436 4.5507732 0)
(60.782845 4.5822894 1.142751e-21)
(61.388437 4.6134138 0)
(62.032573 4.6454345 -1.9538665e-21)
(62.743019 4.6803972 0)
(63.568195 4.7222248 -4.272258e-19)
(64.649997 4.7795915 7.8906907e-19)
(66.482835 4.9106851 -7.2803332e-19)
(70.466455 5.1906248 3.3503784e-19)
(76.624119 5.6911798 2.4071328e-21)
(84.979823 6.328446 2.8344547e-19)
(93.150084 7.0049356 -2.6126873e-19)
(98.821128 7.4166089 -3.7556657e-21)
(101.83569 7.6290326 2.2106909e-19)
(103.06552 7.7121467 -2.0675174e-19)
(103.40899 7.6795637 1.8749558e-19)
(103.45943 7.6614816 -1.6734992e-19)
(103.45424 7.6163147 4.9746657e-21)
(103.42736 7.5820333 -1.4214099e-19)
(103.39867 7.5425349 1.3522238e-19)
(103.37425 7.5091763 9.7721309e-25)
(103.34186 7.4817415 -1.4357771e-20)
(103.29344 7.4536289 1.058526e-19)
(103.25557 7.425782 -9.7542045e-20)
(103.24284 7.3991357 -8.9879855e-20)
(103.2253 7.3721716 9.3174874e-20)
(103.19834 7.3352572 9.5397243e-21)
(103.18257 7.2965249 8.7901551e-21)
(103.16966 7.257329 1.6195362e-20)
(103.14568 7.2130445 -2.9846773e-20)
(103.11821 7.1691475 5.4996317e-20)
(103.08118 7.1335133 -1.1399371e-19)
(103.03195 7.0900353 -2.1238556e-24)
(102.99934 7.0461765 6.449681e-20)
(102.96221 6.9952858 2.0456982e-24)
(102.92006 6.9287945 0)
(102.8863 6.863944 -1.6802012e-20)
(102.83383 6.8006842 6.1899483e-20)
(102.77729 6.7249558 4.0787239e-25)
(102.72764 6.6481262 5.2496105e-20)
(102.66815 6.5641185 0)
(102.599 6.4742791 2.2254961e-20)
(102.52375 6.3722819 -2.0487411e-20)
(102.44911 6.2719506 -3.7721932e-20)
(102.36224 6.1640188 0)
(102.26289 6.0410049 -6.3924499e-20)
(102.17044 5.9175065 4.4129753e-20)
(102.07374 5.7811873 2.7072115e-20)
(101.96331 5.6154122 -1.2452444e-20)
(101.84693 5.4724359 1.1447749e-20)
(101.71409 5.2910445 -1.0543798e-20)
(101.57159 5.1251271 -9.6920101e-21)
(101.44148 4.9256401 8.9095096e-21)
(101.27891 4.7464562 0)
(101.10431 4.5407431 2.3340436e-19)
(100.92989 4.3196508 1.176171e-19)
(100.7383 4.0973023 0)
(100.54114 3.8685379 5.8386516e-21)
(100.33277 3.6289534 -1.8224771e-19)
(100.12329 3.3871553 4.9189642e-21)
(1.0945566 0.085421856 0)
(3.3787732 0.26355679 -2.0685518e-17)
(5.8603621 0.45713678 3.9560515e-17)
(8.5517464 0.66707991 -1.8833917e-17)
(11.444553 0.89273036 3.3967561e-23)
(14.48038 1.1295313 6.4333197e-27)
(17.522422 1.3668097 0)
(20.402384 1.5914345 1.4302449e-17)
(23.011097 1.794887 4.9554743e-23)
(25.324983 1.9753259 -1.2027751e-17)
(27.372637 2.1349796 -8.491394e-27)
(29.197292 2.2772189 -1.0102715e-17)
(30.83927 2.4051875 9.2836095e-18)
(32.332642 2.521542 1.3175182e-26)
(33.705049 2.628437 0)
(34.978348 2.7275758 7.2762668e-18)
(36.169778 2.8203014 -6.7263814e-18)
(37.292812 2.9076631 -6.2244023e-18)
(38.357753 2.9904626 1.1534485e-17)
(39.372932 3.0693478 -5.3466563e-18)
(40.345433 3.1448689 -4.9583898e-18)
(41.280876 3.217462 2.6512679e-25)
(42.183854 3.2874831 4.2699392e-18)
(43.058412 3.3552449 -3.9629053e-18)
(43.907929 3.4210084 1.9374814e-25)
(44.735413 3.4850053 -2.0830498e-22)
(45.543562 3.5474431 6.3417372e-18)
(46.334775 3.6085059 -2.9438419e-18)
(47.111278 3.6683639 -3.3352735e-22)
(47.875081 3.7271705 -3.094529e-22)
(48.627972 3.7850612 -5.7430935e-22)
(49.371534 3.8421553 2.6634741e-22)
(50.107069 3.8985495 -2.470454e-22)
(50.835643 3.9543217 -4.582362e-22)
(51.558102 4.0095308 -1.7399679e-18)
(52.274871 4.0642021 3.2238606e-18)
(52.985926 4.1183238 -1.4931092e-18)
(53.690738 4.1718429 1.3501828e-21)
(54.388193 4.2246591 -6.2484642e-22)
(55.076597 4.2766252 0)
(55.753773 4.3275541 -1.0698527e-21)
(56.417237 4.3772311 1.9787607e-21)
(57.06455 4.4254409 9.3667752e-19)
(57.693885 4.4720104 -8.6580704e-19)
(58.30463 4.5168543 7.8145287e-22)
(58.898117 4.560031 2.8896001e-21)
(59.478261 4.6017977 1.3357544e-21)
(60.052018 4.6426499 0)
(60.629824 4.6833373 -1.1418057e-21)
(61.226177 4.7248937 -5.396066e-19)
(61.860883 4.7687611 4.9990546e-19)
(62.562794 4.8171672 -1.8051599e-21)
(63.382994 4.8744848 -1.6676181e-21)
(64.47325 4.9481604 -3.9583402e-19)
(66.359164 5.0929316 3.6098118e-19)
(70.344836 5.3789608 3.3783648e-19)
(76.681511 5.8557055 -3.0804686e-19)
(85.074539 6.4953814 2.8323245e-19)
(93.149326 7.1312587 -2.6056203e-19)
(98.715426 7.5428616 0)
(101.64625 7.7762333 -3.4503018e-21)
(102.69405 7.8053318 2.0670196e-19)
(103.04826 7.7905735 -5.857412e-21)
(103.1349 7.7541716 -3.4551713e-19)
(103.16325 7.7137438 1.5919974e-19)
(103.16574 7.675935 0)
(103.16965 7.6352971 0)
(103.18687 7.5999083 1.0308875e-24)
(103.21529 7.5636107 1.434962e-20)
(103.20368 7.5344323 -9.9172527e-20)
(103.16926 7.5148133 9.7472398e-20)
(103.15663 7.4849744 0)
(103.13964 7.4585208 -2.0692123e-20)
(103.10777 7.4245963 0)
(103.08557 7.3898467 9.3497365e-25)
(103.06798 7.3520505 0)
(103.049 7.3029652 2.9828868e-20)
(103.03526 7.2581894 0)
(103.01086 7.2086131 -5.0634175e-20)
(102.96656 7.1643357 2.3321434e-20)
(102.9347 7.1201319 -2.1487633e-20)
(102.89253 7.0691718 -1.97916e-20)
(102.84582 7.0150398 -1.8232792e-20)
(102.812 6.9478461 1.679399e-20)
(102.76254 6.8740109 -9.2794171e-20)
(102.70653 6.7994373 -2.8485576e-20)