/*--------------------------------*- C++ -*----------------------------------*\
| =========                 |                                                 |
| \\      /  F ield         | OpenFOAM: The Open Source CFD Toolbox           |
|  \\    /   O peration     | Version:  2506                                  |
|   \\  /    A nd           | Website:  www.openfoam.com                      |
|    \\/     M anipulation  |                                                 |
\*---------------------------------------------------------------------------*/
FoamFile
{
    version     2.0;
    format      ascii;
    arch        "LSB;label=32;scalar=64";
    class       volScalarField;
    location    "1.9";
    object      omega;
}
// * * * * * * * * * * * * * * * * * * * * * * * * * * * * * * * * * * * * * //

dimensions      [0 0 -1 0 0 0 0];

internalField   nonuniform List<scalar> 
1375
(
42.72442
45.555861
40.919364
42.478012
45.275763
39.702657
40.713786
42.243566
45.009757
38.8236
39.526186
40.517576
42.020389
44.757738
38.159236
38.668977
39.357106
40.3301
41.807712
44.518863
37.645564
38.021487
38.520373
39.195026
40.15089
41.60496
44.292888
37.240306
37.521422
37.888779
38.377535
39.039627
39.979543
41.411596
44.079165
36.916374
37.127085
37.401297
37.76073
38.240044
38.89047
39.815526
41.227001
43.876552
36.654595
36.81185
37.016991
37.284824
37.636943
38.107478
38.747103
39.65833
41.050605
43.683823
36.441161
36.557111
36.709915
36.909909
37.171861
37.517229
37.979623
38.609246
39.507608
40.881993
43.500357
36.265978
36.349404
36.46179
36.610479
36.805737
37.062283
37.401422
37.856275
38.476637
39.36303
40.72076
43.325467
36.120468
36.178712
36.259189
36.368303
36.513207
36.704138
36.955739
37.289153
37.737051
38.348857
39.224136
40.566385
43.158048
36.036622
36.092407
36.17021
36.276333
36.417777
36.604788
36.851893
37.180065
37.621588
38.225519
39.090513
40.418399
42.997386
35.916952
35.953428
36.006998
36.082399
36.185791
36.32409
36.507574
36.750605
37.073994
37.509695
38.106392
38.961904
40.276494
42.843544
35.81485
35.83594
35.870767
35.922375
35.995638
36.09655
36.232013
36.41234
36.651691
36.970744
37.401145
37.991219
38.838019
40.140322
42.696428
35.72606
35.735213
35.754979
35.788351
35.838263
35.909642
36.008326
36.141272
36.318794
36.554855
36.870011
37.295614
37.879672
38.71851
40.009514
42.555661
35.656009
35.648249
35.647076
35.65511
35.673737
35.705855
35.754344
35.824091
35.920809
36.051566
36.226631
36.459788
36.771489
37.192799
37.77145
38.603086
39.883795
42.422745
35.592384
35.577638
35.569141
35.567118
35.574153
35.591806
35.622871
35.6702
35.738555
35.833571
35.962465
36.135405
36.366033
36.674704
37.092212
37.666039
38.491189
39.762505
42.292702
35.533978
35.512985
35.497352
35.48825
35.48573
35.491919
35.508796
35.539058
35.585524
35.652774
35.746414
35.873826
36.045039
36.273589
36.579746
36.994044
37.563761
38.383345
39.64665
42.180716
35.515568
35.481487
35.452328
35.430607
35.414093
35.404346
35.401543
35.406944
35.423097
35.452653
35.498399
35.564685
35.657117
35.783243
35.952936
36.179644
36.483553
36.894939
37.460857
38.275164
39.530288
42.04128
255.58093
270.97269
287.09617
304.23246
323.03612
343.75268
365.76116
388.4011
412.0255
437.68252
465.97191
496.61247
529.07621
563.62178
601.54758
643.7153
689.44332
737.87993
790.91055
852.48151
924.8408
1007.2871
1097.8671
253.81366
269.81888
286.5676
303.73661
322.08627
342.43329
364.44544
387.32987
410.96058
435.43392
460.80501
488.1024
519.09258
553.30574
586.46078
615.69993
644.51237
680.91345
729.32941
780.58675
824.71236
864.77315
906.25827
223.76562
235.74338
247.83989
259.1329
270.10323
281.79043
294.37446
307.45414
320.63182
332.95648
343.96074
355.31215
369.55574
385.53926
397.174
402.60439
405.97373
414.54842
433.47175
449.77157
456.45604
458.73753
459.77347
171.61643
177.43492
182.9044
187.29149
190.80249
194.10563
197.62426
201.54828
205.83208
209.64507
212.40479
214.89599
218.40174
222.54221
224.92422
225.36049
225.17668
226.34135
231.2753
234.55147
234.95314
234.16129
233.08548
125.9564
128.50089
130.74785
132.27805
133.21436
133.90516
134.64897
135.76796
137.52206
139.42176
140.83636
141.9349
143.19253
144.6302
145.69047
146.29514
147.05618
149.07093
151.5599
152.75851
152.84433
152.45154
152.08842
96.83622
98.268529
99.477069
100.22465
100.6003
100.81153
101.03762
101.56726
102.77749
104.26125
105.34812
106.03771
106.6051
107.20834
107.85042
108.64075
110.09306
112.39786
114.33661
115.1455
115.20687
114.92427
114.66921
78.896329
79.84019
80.593783
81.039095
81.250086
81.362657
81.502267
81.949285
83.036014
84.255705
84.995092
85.317102
85.480947
85.649231
85.956998
86.593942
87.951324
89.920392
91.476181
92.133007
92.199913
91.96617
91.655056
66.984568
67.620069
68.092353
68.363105
68.495321
68.580308
68.726487
69.219168
70.2308
71.173714
71.602029
71.685877
71.639887
71.579949
71.612111
71.96576
72.920194
74.260465
75.347589
75.879266
75.97392
75.911844
75.698381
58.432704
58.860166
59.153197
59.318572
59.40831
59.487946
59.665761
60.185825
61.050113
61.733222
61.982696
62.000745
61.846154
61.735498
61.734126
61.949307
62.529213
63.276247
63.902832
64.301244
64.461557
64.503811
64.498899
64.331383
51.975358
52.277069
52.472218
52.587295
52.664221
52.756887
52.963766
53.43594
54.089003
54.558457
54.722773
54.738669
54.698265
54.696693
54.865025
55.205211
55.598582
55.975922
56.266715
56.461808
56.561768
56.612998
56.63609
56.569007
46.990444
47.230973
47.388184
47.494859
47.586433
47.709033
47.926044
48.293531
48.725906
49.031065
49.167599
49.235013
49.348938
49.687657
50.250228
50.786237
51.171235
51.397703
51.490323
51.509966
51.453137
51.339631
51.253935
51.164266
43.354976
43.509763
43.633583
43.757689
43.914208
44.124737
44.391079
44.658935
44.851206
44.96775
45.088179
45.383308
46.055659
46.961515
47.734013
48.20413
48.402224
48.442153
48.400169
48.130526
47.766768
47.476835
47.282566
40.397708
40.563847
40.711822
40.868939
41.05214
41.255586
41.462331
41.645607
41.783245
41.890651
42.04066
42.408522
43.172391
44.174387
45.033743
45.54423
45.739476
45.769484
45.675591
45.320289
44.909357
44.573419
44.333283
38.162107
38.340552
38.508064
38.688118
38.888625
39.092634
39.279368
39.435908
39.56043
39.672118
39.830221
40.158997
40.771812
41.562601
42.252701
42.666557
42.822403
42.844294
42.758524
42.499463
42.245585
42.06623
41.956753
36.488079
36.677446
36.859949
37.054421
37.264226
37.470903
37.655434
37.811433
37.943918
38.070159
38.229811
38.485663
38.882175
39.366992
39.802583
40.086978
40.213956
40.242365
40.232012
40.174246
40.138602
40.130741
40.130441
35.246063
35.446295
35.642677
35.8472
36.059356
36.263801
36.447345
36.608488
36.754155
36.896836
37.058078
37.26101
37.512756
37.79121
38.051966
38.259212
38.401497
38.485005
38.530331
38.559819
38.59684
38.665515
38.757786
38.846937
34.331334
34.540665
34.74777
34.957258
35.166166
35.364536
35.54584
35.711639
35.867962
36.021974
36.18346
36.359367
36.547948
36.740558
36.923816
37.08601
37.223313
37.335948
37.427804
37.503869
37.575206
37.657848
37.762334
37.878226
33.658018
33.871005
34.081953
34.290982
34.495085
34.688992
34.870115
35.040781
35.205226
35.366319
35.526647
35.686956
35.845672
36.002673
36.156585
36.301345
36.430643
36.544208
36.648855
36.749781
36.851556
36.958986
37.072236
37.184399
33.159191
33.370137
33.578734
33.78426
33.984839
34.177668
34.361041
34.536269
34.705997
34.87092
35.030179
35.182369
35.32712
35.467984
35.608447
35.745657
35.871569
35.983159
36.088471
36.196341
36.308152
36.419547
36.527591
36.635671
36.740561
32.789379
32.997201
33.201892
33.403273
33.600443
33.791745
33.975373
34.151166
34.32073
34.484843
34.642421
34.791712
34.932726
35.069429
35.205672
35.339624
35.464041
35.574062
35.675777
35.77953
35.890319
36.002889
36.106267
36.201513
36.29079
32.518328
32.7255
32.928275
33.126725
33.320446
33.5085
33.689363
33.862013
34.027277
34.186792
34.341496
34.490753
34.63346
34.770833
34.904821
35.034378
35.156736
35.27015
35.376685
35.480585
35.585452
35.689478
35.788744
35.88139
35.96595
32.322345
32.530594
32.733378
32.930478
33.121628
33.30641
33.483951
33.653306
33.814919
33.970536
34.121996
34.269925
34.413555
34.551648
34.684474
34.812186
34.934167
35.049587
35.158675
35.263191
35.365417
35.465329
35.562362
35.655846
35.742034
35.821092
32.181361
32.389685
32.592217
32.788578
32.978266
33.160928
33.336192
33.503828
33.66416
33.818435
33.967958
34.113715
34.255354
34.39227
34.524057
34.650131
34.771009
34.885998
34.995688
35.102571
35.205974
35.306295
35.402938
35.492994
35.576251
35.656757
32.080697
32.288035
32.4895
32.684701
32.872895
33.053718
33.227377
33.394508
33.555827
33.711341
33.860915
34.004636
34.142876
34.276307
34.405592
34.530525
34.650964
34.766616
34.877569
34.984699
35.088243
35.187546
35.281868
35.370264
35.452993
35.533575
32.008583
32.214606
32.414598
32.608212
32.794969
32.974514
33.14705
33.313378
33.474063
33.629154
33.778495
33.921659
34.058716
34.190713
34.318557
34.442512
34.562134
34.677324
34.788352
34.895072
34.997703
35.095938
35.188439
35.27632
35.360323
35.441612
35.520528
32.161542
32.360027
32.55188
32.736837
32.914969
33.086393
33.251845
33.411717
33.566181
33.714753
33.857144
33.99351
34.124836
34.252133
34.375769
34.495029
34.610069
34.72085
34.827246
34.929201
35.026281
35.118462
35.206285
35.290811
35.372556
35.451869
32.122933
32.319824
32.509783
32.692747
32.869147
33.039446
33.203884
33.362429
33.51546
33.663215
33.805869
33.943191
34.075153
34.202171
34.325054
34.443887
34.558715
34.668882
34.774311
34.875042
34.971211
35.063424
35.152495
35.238324
35.321391
35.401511
35.477982
32.093633
32.28823
32.476255
32.657789
32.833092
33.002588
33.166494
33.325043
33.478408
33.626604
33.769686
33.907628
34.040029
34.167093
34.289479
34.407502
34.521093
34.630092
34.734389
34.834427
34.93041
35.022734
35.111843
35.197613
35.279997
35.359396
35.435587
32.071853
32.264848
32.451546
32.632021
32.806394
32.975037
33.138121
33.295654
33.447648
33.594144
33.735515
33.872049
34.003819
34.130522
34.252234
34.369429
34.482356
34.591191
34.695852
34.796281
34.892463
34.98472
35.073679
35.15978
35.243196
35.323701
35.401015
32.056668
32.247799
32.432734
32.61169
32.784791
32.9522
33.113929
33.270175
33.420991
33.56644
33.706773
33.842181
33.972794
34.098727
34.220143
34.337136
34.449883
34.558572
34.6632
34.763841
34.860598
34.953651
35.043418
35.130055
35.213665
35.294251
35.371698
32.046556
32.236064
32.419388
32.596737
32.768408
32.934607
33.095408
33.250883
33.400867
33.545447
33.684867
33.819408
33.94923
34.074572
34.195625
34.312478
34.425175
34.533709
34.638199
34.738838
34.835715
34.929125
35.01933
35.106525
35.190651
35.271711
35.349613
32.229431
32.411454
32.587593
32.75809
32.923032
33.082499
33.236592
33.385417
33.52928
33.668305
33.802632
33.932175
34.057055
34.177553
34.293866
34.406228
34.514793
34.619524
34.72049
34.817754
34.91143
35.001725
35.088844
35.172969
35.254203
35.332587
32.228984
32.409491
32.584251
32.753439
32.917165
33.075539
33.228698
33.376717
33.519719
33.657848
33.791387
33.920367
34.044917
34.165162
34.281302
34.393569
34.502045
34.606804
34.707875
34.805347
34.899326
34.989987
35.077482
35.161986
35.24362
35.322483
32.23551
32.414611
32.588045
32.755753
32.918054
33.075148
33.227246
33.374447
33.516748
33.654221
33.787167
33.915682
34.039851
34.159816
34.275708
34.387724
34.496036
34.600735
34.70193
34.799672
34.89407
34.985237
35.073281
35.158293
35.24035
35.319576
32.426779
32.598617
32.764972
32.92597
33.081834
33.232802
33.379065
33.520677
33.657619
33.790013
33.918011
34.041772
34.161485
34.277289
34.389314
34.497665
34.602448
34.703754
34.801686
34.896345
34.987846
35.076306
35.161821
35.244489
35.324421
32.448527
32.618679
32.783595
32.943379
33.098181
33.248145
33.393489
33.534312
33.670673
33.80264
33.930343
34.053903
34.173475
34.289206
34.401231
34.509677
34.614649
34.716237
34.814516
34.909558
35.001452
35.090319
35.176291
35.259507
35.34009
32.482087
32.650662
32.814139
32.972696
33.126458
33.275557
33.42009
33.560148
33.695827
33.82728
33.954611
34.077939
34.197386
34.313115
34.425216
34.533815
34.639004
34.740877
34.839519
34.93502
35.027481
35.11701
35.203715
35.287709
35.369105
32.69709
32.859266
33.016656
33.169348
33.317468
33.461114
33.600416
33.735517
33.866549
33.993617
34.116801
34.236219
34.35198
34.464207
34.573028
34.678552
34.780877
34.880085
34.976243
35.06943
35.159728
35.247234
35.332051
35.414295
32.761864
32.922626
33.07877
33.230437
33.377737
33.520741
33.659502
33.794128
33.92475
34.051498
34.174512
34.293925
34.409838
34.522339
34.631526
34.737494
34.840336
34.940137
35.03698
35.130951
35.22213
35.3106
35.396452
35.479788
33.009167
33.164188
33.314825
33.461184
33.603392
33.741584
33.875855
34.006317
34.133085
34.256259
34.375925
34.492158
34.605051
34.714703
34.821209
34.924667
35.025173
35.12282
35.217697
35.309891
35.399485
35.486559
35.571208
33.279139
33.429017
33.574753
33.716456
33.854245
33.988243
34.118584
34.245388
34.368768
34.488773
34.605503
34.719042
34.829456
34.936821
35.041213
35.142717
35.241426
35.337435
35.430836
35.521714
35.610151
35.69624
33.432076
33.581189
33.726487
33.868002
34.005767
34.13986
34.270378
34.397449
34.52117
34.64165
34.758996
34.873284
34.9846
35.093015
35.198599
35.301419
35.401553
35.499076
35.594065
35.686592
35.776734
35.864579
33.784595
33.929323
34.070551
34.20835
34.342771
34.47386
34.601668
34.726256
34.847702
34.966089
35.081507
35.194044
35.303782
35.410796
35.51516
35.616947
35.716225
35.81306
35.907523
35.999682
36.089621
34.200234
34.341598
34.479692
34.614606
34.746412
34.875173
35.000941
35.123772
35.243724
35.36086
35.47524
35.586923
35.695982
35.802487
35.906506
36.008094
36.107319
36.204243
36.29893
36.391452
34.708009
34.847133
34.983249
35.116427
35.246733
35.374223
35.498957
35.620988
35.740371
35.857155
35.971392
36.083135
36.192435
36.299348
36.403929
36.506239
36.606332
36.704265
36.800098
35.490111
35.625616
35.75845
35.888657
36.016281
36.141362
36.263945
36.384073
36.501788
36.617136
36.730164
36.840922
36.949462
37.055833
37.160083
37.262256
37.362396
36.359476
36.496303
36.630672
36.762627
36.892209
37.019452
37.144393
37.267072
37.387524
37.50579
37.621911
37.735928
37.847883
37.957812
38.065748
38.171709
37.775719
37.914724
38.051491
38.186066
38.31849
38.448806
38.577054
38.703265
38.827476
38.949719
39.070023
39.188412
39.304898
39.419433
40.565239
40.697998
40.828622
40.95738
41.084422
41.209877
41.333846
41.456459
41.57782
41.697973
41.816787
41.933362
)
;

boundaryField
{
    Side
    {
        type            empty;
    }
    Inlet
    {
        type            fixedValue;
        value           uniform 60.24606;
    }
    Airfoil
    {
        type            omegaWallFunction;
        blending        binomial;
        n               2;
        value           nonuniform List<scalar> 0();
    }
    Outlet
    {
        type            inletOutlet;
        inletValue      nonuniform List<scalar> 0();
        value           nonuniform List<scalar> 0();
    }
    procBoundary2to1
    {
        type            processor;
        value           nonuniform List<scalar> 
75
(
42.983573
45.850685
41.134887
41.134887
39.887075
39.887075
38.984579
38.984579
38.302206
38.302206
37.774069
37.774069
37.357011
37.357011
37.023588
37.023588
36.754306
36.754306
36.534778
36.534778
36.354518
36.354518
36.205028
36.205028
36.080058
35.998297
35.998297
35.894312
35.894312
35.804415
35.804415
35.73306
35.726114
35.726114
35.669834
35.669834
35.612758
35.612758
35.596038
35.562392
35.562392
35.557634
35.557634
1197.836
955.54845
461.67589
232.57988
151.96464
114.60194
91.497064
75.481693
75.481693
64.23056
56.473071
51.087511
47.194047
44.217302
41.913377
40.143363
40.143363
38.936548
37.99256
37.290187
37.290187
36.824818
36.373981
36.046626
36.046626
35.896901
35.73273
35.612056
35.612056
35.595127
35.527505
35.527505
)
;
    }
    procBoundary2to3
    {
        type            processor;
        value           nonuniform List<scalar> 
65
(
239.23596
213.13606
166.53412
123.81689
95.635551
78.052612
66.354888
57.954273
51.596841
46.667124
43.134734
43.134734
40.179066
37.941311
36.266452
35.024687
34.110688
33.43941
32.943987
32.576494
32.305183
32.107961
31.967108
31.867583
31.79674
31.956861
31.956861
31.919655
31.892618
31.872556
31.859128
31.850754
32.041482
32.041482
32.042664
32.05071
32.249417
32.249417
32.272964
32.308219
32.529999
32.529999
32.596349
32.849655
32.849655
33.125095
33.125095
33.279143
33.636282
33.636282
34.0555
34.0555
34.5658
34.5658
35.210881
35.351891
35.351891
36.220157
36.220157
37.49089
37.634451
37.634451
40.292596
40.430159
40.430159
)
;
    }
    procBoundary2to9
    {
        type            processor;
        value           nonuniform List<scalar> 
23
(
255.26095
270.51779
286.80855
304.282
323.10781
343.30672
364.79728
387.62704
411.94337
437.68204
464.77483
494.05508
527.14826
564.60557
604.68918
645.75565
689.31045
738.80793
795.6223
857.77561
925.10929
1001.5288
1092.0581
)
;
    }
    procBoundary2to10
    {
        type            processor;
        value           uniform 241.08537;
    }
}


// ************************************************************************* //
