/*--------------------------------*- C++ -*----------------------------------*\
| =========                 |                                                 |
| \\      /  F ield         | OpenFOAM: The Open Source CFD Toolbox           |
|  \\    /   O peration     | Version:  2506                                  |
|   \\  /    A nd           | Website:  www.openfoam.com                      |
|    \\/     M anipulation  |                                                 |
\*---------------------------------------------------------------------------*/
FoamFile
{
    version     2.0;
    format      ascii;
    arch        "LSB;label=32;scalar=64";
    class       volVectorField;
    location    "0.0065";
    object      wallShearStress;
}
// * * * * * * * * * * * * * * * * * * * * * * * * * * * * * * * * * * * * * //

dimensions      [1 -1 -2 0 0 0 0];

internalField   uniform (0 0 0);

boundaryField
{
    Side
    {
        type            empty;
    }
    Inlet
    {
        type            calculated;
        value           uniform (0 0 0);
    }
    Airfoil
    {
        type            calculated;
        value           nonuniform List<vector> 
92
(
(-4.6504358 0.55625474 5.1660912e-16)
(-4.6852384 0.55825329 -2.5732467e-16)
(-4.7264142 0.56098764 -2.4449482e-22)
(-4.7591607 0.56249451 2.4364945e-22)
(-4.7895215 0.56366775 2.5457929e-16)
(-4.8050586 0.56302425 -2.5371525e-16)
(-4.8349656 0.56417197 -3.0092655e-36)
(-4.8788571 0.56754633 2.5208549e-16)
(-4.9327595 0.57193942 -5.0262252e-16)
(-4.97527 0.5752162 -2.4245652e-32)
(-5.0052039 0.57672243 1.5046328e-36)
(-5.0325967 0.57807641 -2.4916213e-16)
(-5.055716 0.57869764 4.9695072e-16)
(-5.0588848 0.57699072 -2.3632401e-22)
(-5.0504713 0.57381013 2.3569753e-22)
(-5.0433538 0.57014692 2.3504123e-22)
(-5.0500323 0.56838237 -2.4584217e-16)
(-5.0546127 0.56659027 -4.9038222e-16)
(-5.0588045 0.56506806 7.3460674e-26)
(-5.0638597 0.56363957 2.326957e-22)
(-5.0894287 0.5644234 -2.433875e-16)
(-5.1233883 0.56650898 2.4284948e-16)
(-5.1532379 0.56782845 4.8467404e-16)
(-5.1741801 0.56810409 2.3066242e-22)
(-5.2001456 0.56849578 2.3016848e-22)
(-5.231665 0.56907042 -2.2974413e-22)
(-5.2613807 0.56949851 -2.3373569e-38)
(-5.2769969 0.56850839 -3.9451471e-33)
(-5.2865294 0.56744025 -4.7894318e-16)
(-5.2947008 0.56625043 2.2794782e-22)
(-5.3184388 0.56665273 -2.2760297e-22)
(-5.358501 0.56858266 -2.2721716e-22)
(-5.3999128 0.57041042 -2.3790533e-16)
(-5.4266671 0.57062436 2.2779227e-22)
(-5.4289889 0.56813813 2.3721951e-16)
(-5.4270071 0.56527633 -2.3688934e-16)
(-5.437836 0.56379949 2.2562992e-22)
(-5.4547545 0.56289903 8.8875142e-33)
(-5.4590013 0.56092533 -2.2507253e-22)
(-5.4529374 0.55818961 4.4963091e-22)
(-5.4523725 0.55595911 -2.2458528e-22)
(-5.4611445 0.55453044 -4.7045303e-16)
(-5.4816849 0.55420863 2.3498529e-16)
(-5.5101817 0.55455002 -2.3475158e-16)
(-5.5404584 0.55497753 2.3453874e-16)
(-5.5592802 0.55411952 2.3433319e-16)
(-5.5659547 0.55201994 -2.341368e-16)
(-5.5656487 0.54917383 2.2312103e-22)
(-5.5690661 0.5466822 -4.3047889e-42)
(-5.5818054 0.5451714 -2.2275557e-22)
(-5.5991321 0.54464092 4.5205316e-26)
(-5.6184662 0.54419183 2.3329763e-16)
(-5.6448183 0.54420996 2.3314484e-16)
(-5.6843278 0.54537121 4.9781598e-34)
(-5.7258952 0.54641479 2.3289019e-16)
(-5.7511138 0.54599277 -4.4399922e-22)
(-5.7486272 0.54267812 2.3266685e-16)
(-5.7368679 0.53852446 2.3256684e-16)
(-5.728139 0.53443748 2.2168631e-22)
(-5.7308396 0.53135602 -2.2163961e-22)
(-5.7418023 0.52901983 -2.3233596e-16)
(-5.7654808 0.52835889 6.0185311e-36)
(-5.8049094 0.52952598 2.3231219e-16)
(-5.8308226 0.52929744 2.2155208e-22)
(-5.8220902 0.52602201 -2.2159676e-22)
(-5.7884475 0.52037109 2.2157946e-22)
(-5.7636943 0.51535703 -5.8407719e-26)
(-5.7674042 0.51253859 -5.1348226e-26)
(-5.7916549 0.51129894 2.3247376e-16)
(-5.8201911 0.51036831 -3.7615819e-36)
(-5.8423913 0.50884553 2.440172e-24)
(-5.8420268 0.50530903 -5.7484495e-33)
(-5.828107 0.50078015 -2.3275549e-16)
(-5.8199281 0.49719924 2.2206658e-22)
(-5.8227657 0.4945895 2.3293333e-16)
(-5.8335396 0.49260488 -2.3302795e-16)
(-5.8424261 0.49041509 -2.3312746e-16)
(-5.8434511 0.48740217 -2.2569492e-36)
(-5.8465503 0.48435744 7.5231638e-37)
(-5.8569819 0.48178831 2.3343428e-16)
(-5.8762521 0.47983033 -2.3355487e-16)
(-5.8988792 0.47803074 4.1396279e-26)
(-5.9159789 0.47564324 -2.3384929e-16)
(-5.9274357 0.47267945 -3.7615819e-37)
(-5.9303376 0.46923565 -1.1709618e-16)
(-5.9287043 0.46596958 1.1718857e-16)
(-5.9211864 0.46222829 1.1728748e-16)
(-5.9171594 0.45872863 -1.1738399e-16)
(-5.9183134 0.45557378 1.1749074e-16)
(-5.9403411 0.4538834 -2.2229584e-22)
(-5.957421 0.45170376 2.6160202e-38)
(-5.9892052 0.45041902 2.2468109e-22)
)
;
    }
    Outlet
    {
        type            calculated;
        value           nonuniform List<vector> 0();
    }
    procBoundary11to3
    {
        type            processor;
        value           uniform (0 0 0);
    }
    procBoundary11to4
    {
        type            processor;
        value           uniform (0 0 0);
    }
    procBoundary11to10
    {
        type            processor;
        value           uniform (0 0 0);
    }
    procBoundary11to12
    {
        type            processor;
        value           uniform (0 0 0);
    }
}


// ************************************************************************* //
