/*--------------------------------*- C++ -*----------------------------------*\
| =========                 |                                                 |
| \\      /  F ield         | OpenFOAM: The Open Source CFD Toolbox           |
|  \\    /   O peration     | Version:  2506                                  |
|   \\  /    A nd           | Website:  www.openfoam.com                      |
|    \\/     M anipulation  |                                                 |
\*---------------------------------------------------------------------------*/
FoamFile
{
    version     2.0;
    format      ascii;
    arch        "LSB;label=32;scalar=64";
    class       volVectorField;
    location    "0.0065";
    object      wallShearStress;
}
// * * * * * * * * * * * * * * * * * * * * * * * * * * * * * * * * * * * * * //

dimensions      [1 -1 -2 0 0 0 0];

internalField   uniform (0 0 0);

boundaryField
{
    Side
    {
        type            empty;
    }
    Inlet
    {
        type            calculated;
        value           uniform (0 0 0);
    }
    Airfoil
    {
        type            calculated;
        value           nonuniform List<vector> 
92
(
(-7.8961892 0.94374259 4.9931712e-16)
(-7.920626 0.94336659 -2.4870424e-16)
(-7.9475883 0.94315093 -2.3628027e-22)
(-7.9721586 0.94247203 2.3546311e-22)
(-8.0000286 0.94202523 2.4600069e-16)
(-8.0223679 0.94076766 -2.4514298e-16)
(-8.0458894 0.93976295 0)
(-8.0656375 0.93912517 2.4350652e-16)
(-8.0875378 0.93867136 -4.8545379e-16)
(-8.1087707 0.93798081 -1.311137e-32)
(-8.1327953 0.93745046 1.5046328e-36)
(-8.1557764 0.93666942 -2.4051452e-16)
(-8.1776016 0.93558966 4.796273e-16)
(-8.2023509 0.93472612 -2.2803812e-22)
(-8.2246985 0.93342921 2.2744101e-22)
(-8.2467156 0.9319262 2.2679087e-22)
(-8.2687489 0.93033716 -2.3720132e-16)
(-8.2870678 0.928996 -4.7318858e-16)
(-8.3038478 0.9276673 3.7663235e-26)
(-8.3256991 0.92679957 2.2455757e-22)
(-8.3457527 0.925603 -2.3488919e-16)
(-8.366745 0.92437167 2.3434736e-16)
(-8.3907615 0.92333239 4.6765631e-16)
(-8.4129562 0.92196096 2.2253417e-22)
(-8.435005 0.92049262 2.2203298e-22)
(-8.4591633 0.91912215 -2.2161101e-22)
(-8.4788086 0.91712988 -2.0805045e-38)
(-8.498778 0.91529978 -8.079878e-34)
(-8.5160362 0.91384542 -4.6204456e-16)
(-8.5344874 0.91243637 2.1991034e-22)
(-8.5546805 0.91107973 -2.1956771e-22)
(-8.5754488 0.90964291 -2.1916821e-22)
(-8.5956135 0.90801232 -2.2945693e-16)
(-8.6171145 0.90637888 2.2096061e-22)
(-8.6384822 0.90460748 2.2875146e-16)
(-8.6595248 0.90265422 -2.2841857e-16)
(-8.6815718 0.90068965 2.1754355e-22)
(-8.7017167 0.89834542 9.1613949e-33)
(-8.7204453 0.89610553 -2.1694656e-22)
(-8.7369661 0.894253 4.333869e-22)
(-8.7554605 0.89253558 -2.1645501e-22)
(-8.7744038 0.89069194 -4.5340551e-16)
(-8.7944654 0.88885312 2.2646249e-16)
(-8.813336 0.88674301 -2.2622651e-16)
(-8.8341667 0.88469334 2.2600409e-16)
(-8.8518031 0.88217753 2.2579261e-16)
(-8.8707042 0.87965057 -2.2559265e-16)
(-8.8865819 0.87668622 2.1496661e-22)
(-8.9029217 0.87360363 -4.3047889e-42)
(-8.9161712 0.87033504 -2.1460814e-22)
(-8.9278093 0.86760113 2.40214e-26)
(-8.9411839 0.86502585 2.2474513e-16)
(-8.9551204 0.86234345 2.2460483e-16)
(-8.9695038 0.85959267 -8.0626276e-34)
(-8.9837672 0.85667428 2.2435308e-16)
(-8.9971224 0.85355558 -4.277124e-22)
(-9.010868 0.85031397 2.2414503e-16)
(-9.0233881 0.84685494 2.2405175e-16)
(-9.035856 0.84321144 2.1356955e-22)
(-9.0477032 0.83939736 -2.1353064e-22)
(-9.0578087 0.83529218 -2.2381399e-16)
(-9.0666452 0.83182584 6.0185311e-36)
(-9.0766311 0.82864795 2.2371176e-16)
(-9.0889609 0.8255476 2.1329422e-22)
(-9.1020622 0.82233361 -2.1330126e-22)
(-9.1157135 0.81902304 2.1324225e-22)
(-9.1285806 0.81546829 -3.9579288e-26)
(-9.1410176 0.81171514 -3.9137779e-26)
(-9.1532604 0.80777969 2.2359588e-16)
(-9.1656045 0.80368243 -2.2569492e-36)
(-9.177657 0.79939707 2.9452651e-24)
(-9.1905808 0.79500973 1.835652e-33)
(-9.2012529 0.79054175 -2.2368188e-16)
(-9.2106228 0.78676577 2.133832e-22)
(-9.2215163 0.78307122 2.2378743e-16)
(-9.2322625 0.77920659 -2.2385067e-16)
(-9.2435037 0.77525264 -2.2392299e-16)
(-9.2543397 0.77110223 2.2569492e-36)
(-9.2661343 0.76690491 3.0092655e-36)
(-9.2767719 0.7624362 2.2418167e-16)
(-9.2885027 0.7579326 -2.2428515e-16)
(-9.2979264 0.75305564 3.6682598e-26)
(-9.3088637 0.74817046 -2.2451044e-16)
(-9.3168677 0.74285921 0)
(-9.3236384 0.73779686 -1.1238511e-16)
(-9.3268439 0.73314473 1.1245895e-16)
(-9.3320237 0.72853114 1.1253765e-16)
(-9.3363773 0.72364497 -1.1261892e-16)
(-9.3416652 0.71869004 1.1270614e-16)
(-9.3474933 0.71358075 -2.1403544e-22)
(-9.3552057 0.70847353 -2.5414039e-38)
(-9.368128 0.70358403 2.154984e-22)
)
;
    }
    Outlet
    {
        type            calculated;
        value           nonuniform List<vector> 0();
    }
    procBoundary11to3
    {
        type            processor;
        value           uniform (0 0 0);
    }
    procBoundary11to4
    {
        type            processor;
        value           uniform (0 0 0);
    }
    procBoundary11to10
    {
        type            processor;
        value           uniform (0 0 0);
    }
    procBoundary11to12
    {
        type            processor;
        value           uniform (0 0 0);
    }
}


// ************************************************************************* //
