/*--------------------------------*- C++ -*----------------------------------*\
| =========                 |                                                 |
| \\      /  F ield         | OpenFOAM: The Open Source CFD Toolbox           |
|  \\    /   O peration     | Version:  2506                                  |
|   \\  /    A nd           | Website:  www.openfoam.com                      |
|    \\/     M anipulation  |                                                 |
\*---------------------------------------------------------------------------*/
FoamFile
{
    version     2.0;
    format      ascii;
    arch        "LSB;label=32;scalar=64";
    class       volScalarField;
    location    "0.9";
    object      k;
}
// * * * * * * * * * * * * * * * * * * * * * * * * * * * * * * * * * * * * * //

dimensions      [0 2 -2 0 0 0 0];

internalField   nonuniform List<scalar> 
19257
(
11.230519
10.203807
9.5613874
9.121824
8.797044
8.5458105
8.3454481
8.1821937
8.0471913
7.9342147
7.838708
7.7571164
7.6870518
7.6266981
7.5741513
7.5283124
7.4882318
7.4530365
7.4219353
7.3943344
7.3701684
7.3489296
7.3300505
7.3133081
7.2993547
7.287523
7.2781413
7.2711971
7.2674995
7.2680618
7.2739825
7.2873495
7.3080942
7.3326728
7.363993
7.3988895
7.4402956
7.4929017
7.5529284
7.6283829
7.7393392
7.8878689
8.0018646
8.2014081
8.4288121
8.7243009
8.9859646
10.695727
10.665953
11.212388
10.235915
9.6155686
9.1794286
8.8534013
8.5995326
8.3960422
8.2296403
8.0914453
7.9754496
7.8770984
7.7929017
7.7203502
7.657662
7.6030081
7.5551712
7.5132733
7.4763915
7.4437194
7.4146597
7.3891552
7.3666283
7.3465119
7.3286832
7.3136647
7.3008977
7.2905354
7.2825934
7.278043
7.2771381
7.2814536
7.2930152
7.3119458
7.3349697
7.3627443
7.3968458
7.4409885
7.4881133
7.5482259
7.6218667
7.7025259
7.8493881
7.9638949
8.1601771
8.321881
8.6033303
8.863313
10.574064
10.369805
11.289565
10.337875
9.7092108
9.2652243
8.9319255
8.6712243
8.4616786
8.2897569
8.1466413
8.0261199
7.923676
7.8358287
7.7599128
7.6941013
7.6367006
7.5863117
7.5420442
7.5029735
7.4684036
7.4375154
7.4102932
7.3862361
7.3647756
7.3455614
7.329151
7.3152476
7.3037191
7.2945773
7.2886025
7.2861708
7.2889021
7.2979896
7.3158685
7.3371725
7.3631978
7.3958709
7.4335128
7.479613
7.5361482
7.6036958
7.7099647
7.8208578
7.924979
8.1171743
8.2752102
8.5250353
8.8262036
10.299199
10.120176
11.331116
10.414004
9.7936874
9.3477591
9.0095749
8.7433681
8.5284416
8.3514376
8.20354
8.0785671
7.9720293
7.8804758
7.8011821
7.7321556
7.6718541
7.6188123
7.572091
7.5307036
7.4941049
7.4613156
7.4323042
7.4066011
7.3836712
7.3630065
7.3450984
7.33001
7.3172278
7.306821
7.2993841
7.2956185
7.2973353
7.3044051
7.3192755
7.3394394
7.36386
7.3940301
7.4317214
7.4754807
7.5287526
7.5978103
7.6725097
7.7878599
7.9277848
8.0910179
8.2752792
8.4784139
8.8262553
9.9660745
9.9417621
11.378503
10.496889
9.8831282
9.4350222
9.0920761
8.8202882
8.5997421
8.4173639
8.2644302
8.1347305
8.0238121
7.9282751
7.8453419
7.7728866
7.7094025
7.6534959
7.6041102
7.560224
7.521373
7.4865895
7.4556377
7.4281211
7.4035562
7.3814696
7.3619687
7.3454605
7.3313734
7.319607
7.3107271
7.3055238
7.3053168
7.3108507
7.3240371
7.3417983
7.365237
7.3932854
7.4291171
7.4709334
7.5217208
7.5834321
7.675827
7.7731808
7.8894541
8.0561942
8.2101951
8.4170597
8.6839497
9.8017245
9.7771468
11.420749
10.575624
9.9721877
9.5239698
9.1771437
8.9002171
8.6742148
8.4864597
8.3284035
8.1938759
8.0784513
7.9787548
7.8919639
7.8159491
7.7491582
7.6901792
7.6379887
7.591507
7.550217
7.5132651
7.4802075
7.4507159
7.424428
7.4008239
7.3797671
7.3616321
7.346042
7.3329426
7.3227605
7.3161708
7.3137638
7.3177708
7.3282777
7.3450088
7.3667259
7.3939004
7.4250602
7.4657461
7.5154024
7.5769528
7.6490732
7.7509891
7.8868443
8.0342402
8.2028847
8.3832508
8.6747502
9.6466888
9.6678401
11.459964
10.652197
10.061154
9.614124
9.2643028
8.9827541
8.7514806
8.5584162
8.3952349
8.2558081
8.1357452
8.0317264
7.9409493
7.8611856
7.790937
7.7287665
7.6735809
7.6243579
7.5804748
7.5412827
7.5060085
7.4744018
7.4462795
7.4209964
7.398272
7.3784027
7.361435
7.3470659
7.3354012
7.3270274
7.3227605
7.3254158
7.3334373
7.3485024
7.3686205
7.393727
7.4246008
7.4626601
7.509333
7.5676876
7.6449719
7.7364815
7.8553882
8.0077248
8.1647856
8.3431432
8.5931032
9.4931986
9.5830352
11.496008
10.72601
10.148515
9.7040065
9.3522755
9.0667532
8.8306301
8.6324502
8.4642241
8.3199378
8.1952156
8.0867981
7.9919046
7.908302
7.8344466
7.7689464
7.710611
7.6585787
7.612035
7.5704272
7.5328899
7.499164
7.4689671
7.4418934
7.4174966
7.3959372
7.3773772
7.3614955
7.3483008
7.3384202
7.3326555
7.3328985
7.3390416
7.352476
7.3712419
7.3942096
7.4233755
7.4587151
7.5040859
7.5610399
7.6300265
7.7256455
7.8458071
7.9879928
8.1417044
8.3143307
8.5624861
9.3909111
9.5205883
11.529559
10.795453
10.232754
9.7925881
9.4400632
9.1512504
8.9107301
8.70773
8.534606
8.3855441
8.2562062
8.1433605
8.0443166
7.9568419
7.8792681
7.8103771
7.7489127
7.693945
7.6446677
7.600466
7.5606157
7.5247354
7.4924713
7.463466
7.4373166
7.4140162
7.3937525
7.3763432
7.3616858
7.350156
7.3431407
7.3402859
7.3452337
7.3572813
7.3738934
7.3951125
7.422085
7.4564569
7.4993683
7.5528035
7.6209638
7.708492
7.8258157
7.9683185
8.1175087
8.2866688
8.5225684
9.2833941
9.4699146
11.560071
10.860392
10.31338
9.8786275
9.5261139
9.2348047
8.9904956
8.7831241
8.6053366
8.4516727
8.3178458
8.2006339
8.0974282
8.0061017
7.924856
7.8525114
7.7878546
7.7299071
7.6778762
7.6310606
7.5888409
7.5506803
7.5162891
7.4853894
7.4575199
7.4325004
7.4105161
7.3915105
7.3752983
7.3621938
7.3535481
7.3483792
7.3521101
7.3622145
7.3768192
7.3965413
7.4215718
7.4539772
7.4950677
7.5482373
7.614774
7.6981825
7.8127894
7.9499985
8.0960748
8.2621324
8.4956422
9.2181754
9.4310918
11.587826
10.921033
10.389152
9.9605085
9.6089653
9.3159889
9.0685809
8.857285
8.6752339
8.5172267
8.3790832
8.2576529
8.1504022
8.0552951
7.970482
7.8947376
7.8269185
7.7660213
7.7112433
7.6618145
7.617175
7.5767721
7.5402502
7.5073511
7.477664
7.4509406
7.4272594
7.4066933
7.3890864
7.3745475
7.3641821
7.3568635
7.3592868
7.3672084
7.380162
7.3977743
7.4222008
7.4527367
7.4911697
7.5416057
7.606498
7.6878326
7.7998151
7.9318857
8.0764837
8.2410411
8.4701941
9.1554952
9.3992752
11.612412
10.974428
10.458061
10.036836
9.687485
9.3937023
9.143747
8.9289737
8.7430331
8.5809591
8.4387837
8.3133616
8.2022696
8.1035123
8.0152834
7.9362503
7.8653645
7.8015505
7.7440501
7.6921075
7.6451046
7.6024873
7.5638946
7.5290468
7.4975848
7.4691991
7.4438781
7.4217132
7.4026038
7.3866364
7.374595
7.3659943
7.3662973
7.3720106
7.3834378
7.4000547
7.4219974
7.4511161
7.4888787
7.5355481
7.5973952
7.6780623
7.7850684
7.9153133
8.0591958
8.2223568
8.4494573
9.1080186
9.3750619
11.634215
11.023223
10.521571
10.107262
9.7604252
9.4663508
9.2143922
8.9966541
8.8072677
8.6415402
8.4956704
8.3665742
8.2519223
8.1497381
8.058294
7.9761655
7.9023774
7.8357991
7.7756948
7.7213125
7.6720186
7.627274
7.5866959
7.5499595
7.5167755
7.4868026
7.4599254
7.436224
7.4157073
7.3984187
7.3847039
7.3756461
7.3720229
7.3769697
7.3869627
7.4022952
7.4227054
7.4499779
7.4856394
7.5329227
7.5927605
7.6720585
7.7724412
7.9021942
8.0437075
8.2050836
8.4304269
9.0721412
9.3561923
11.65339
11.065444
10.577033
10.169789
9.8258914
9.5321097
9.2788959
9.0588155
8.8665127
8.6976061
8.5484606
8.4160806
8.2982043
8.1929032
8.0985082
8.0135239
7.9370207
7.8678704
7.8053242
7.7486653
7.6972447
7.6505146
7.6080716
7.5695449
7.5346988
7.5032214
7.4749048
7.4497576
7.4278851
7.4093757
7.3943603
7.3841649
7.378054
7.3817889
7.3905797
7.4042096
7.4235089
7.4495461
7.4834824
7.5282722
7.5866489
7.6616834
7.7698774
7.8924956
8.0289081
8.1904362
8.4178552
9.0399206
9.3418774
11.669768
11.101594
10.625049
10.224234
9.883156
9.5899372
9.3358826
9.1140459
8.9194012
8.7478428
8.595915
8.4606929
8.3399845
8.2319152
8.134872
8.0473272
7.9683662
7.8969198
7.8321862
7.7734677
7.72012
7.6715933
7.6274709
7.5873424
7.5509918
7.5181645
7.488583
7.4621398
7.4390136
7.4193889
7.403229
7.3919886
7.3835857
7.3862729
7.3935338
7.4060418
7.4239667
7.448488
7.4821817
7.5253299
7.5817481
7.6551245
7.7544375
7.8770449
8.0154717
8.1789715
8.4079056
9.0169294
9.3320081
11.683541
11.131553
10.664936
10.269731
9.9313527
9.6388309
9.3841692
9.1610351
8.9646195
8.7909512
8.6367464
8.4991764
8.3760755
8.2656341
8.1663021
8.0765508
7.9954616
7.9220378
7.8554236
7.7949259
7.7399088
7.6898267
7.6442508
7.6027346
7.5650575
7.5310297
7.5003634
7.4728211
7.4485742
7.4279422
7.4107679
7.3985576
7.388209
7.3898501
7.3959028
7.4071819
7.4243774
7.4481059
7.4794678
7.5214884
7.57699
7.6509137
7.7487638
7.8689257
8.0080353
8.1728417
8.4006526
9.007997
9.3259335
11.69439
11.155041
10.696221
10.305643
9.9696607
9.677921
9.4229654
9.1988498
9.000984
8.8256159
8.6695956
8.530159
8.4051681
8.2928389
8.1916741
8.1001779
8.017394
7.9423863
7.8742646
7.8123299
7.7559597
7.7046237
7.6578724
7.6152264
7.576468
7.5414508
7.5098969
7.4814752
7.4562925
7.4347966
7.4167886
7.403745
7.3918417
7.3926841
7.397742
7.4082626
7.4246145
7.4474596
7.4784071
7.5195207
7.5735442
7.644867
7.7425877
7.8644729
8.0047975
8.1704454
8.3995072
8.9961305
9.3229299
11.7022
11.171868
10.718707
10.331372
9.9969778
9.7058252
9.4507635
9.2262045
9.027389
8.8508382
8.6935246
8.5527588
8.4264248
8.3127454
8.210245
8.1174729
8.0334428
7.9572555
7.8880138
7.8250268
7.7676648
7.7154146
7.6678108
7.6243377
7.5847882
7.5490494
7.5168606
7.4878341
7.4620168
7.4399413
7.4214122
7.4078264
7.3950511
7.3954196
7.3999586
7.4100403
7.4261298
7.4488324
7.4794083
7.5200203
7.5740403
7.6455208
7.7421185
7.8645141
8.0053237
8.1712988
8.3996998
8.9928847
9.3245942
11.706919
11.181858
10.732069
10.346694
10.013342
9.7226012
9.4675001
9.2425149
9.0431803
8.8660417
8.7080405
8.5665045
8.4393381
8.3248089
8.221469
8.127881
8.0430613
7.9661394
7.8962054
7.8325756
7.7746077
7.7218058
7.6737018
7.6297485
7.5897483
7.5536256
7.5211301
7.4918345
7.4657781
7.4435518
7.4249658
7.4113361
7.3986913
7.3992083
7.4037062
7.4137076
7.4298747
7.4527803
7.4836374
7.5246063
7.5788854
7.6509042
7.7491796
7.8708391
8.0102358
8.1747048
8.4038004
9.0123744
9.3313926
11.708473
11.184995
10.736102
10.351172
10.018066
9.7274272
9.4723187
9.2472432
9.0476966
8.8702687
8.7119895
8.5702133
8.4428106
8.3280374
8.2244549
8.1306315
8.0456
7.9684987
7.8983981
7.8346145
7.7765012
7.7235781
7.6753729
7.6313243
7.5912409
7.5550754
7.5225664
7.4932567
7.4672271
7.4450817
7.4265832
7.4130484
7.4008223
7.4017097
7.4063771
7.4164698
7.4328538
7.4561309
7.4874473
7.5289085
7.5838738
7.6568364
7.7565956
7.8778464
8.0164951
8.180511
8.4117608
9.0327208
9.3366913
11.706931
11.181842
10.73198
10.346517
10.013213
9.7226043
9.4676549
9.2427392
9.0433857
8.8661383
8.7080709
8.5665249
8.4393559
8.3248012
8.2214246
8.1278011
8.0429718
7.96607
7.8961494
7.8325277
7.7745647
7.7217834
7.6737025
7.6297457
7.5897317
7.5536251
7.5211321
7.4917912
7.4657481
7.4435735
7.4249606
7.4112222
7.3985329
7.3990814
7.4035165
7.4133973
7.4295894
7.452631
7.4835808
7.5244741
7.5786045
7.6506124
7.7488417
7.8705671
8.0100542
8.1745954
8.4035552
9.011704
9.331307
11.7022
11.17184
10.718645
10.331116
9.9967367
9.7057058
9.450894
9.2263914
9.0275947
8.8510273
8.6936875
8.5529287
8.4265748
8.3128297
8.2102513
8.1174082
8.0333446
7.9571666
7.8879148
7.8249144
7.7675346
7.7152965
7.6677111
7.6242087
7.5846315
7.5489317
7.5167533
7.4876626
7.4618958
7.4399439
7.4213912
7.4076394
7.3948326
7.3952582
7.3996611
7.4094929
7.4256275
7.4486601
7.4793284
7.5198737
7.5734628
7.6445599
7.7413601
7.8640501
8.0052104
8.1712366
8.3994774
8.9925666
9.3244392
11.694361
11.155021
10.696151
10.305355
9.9693175
9.6777803
9.4229959
9.1989937
9.0011603
8.8258062
8.6697647
8.5303375
8.4053342
8.2929256
8.1916604
8.1000976
8.017281
7.9422785
7.8741316
7.8121812
7.755797
7.7044922
7.6577541
7.6150236
7.5762004
7.541228
7.5097001
7.4812599
7.4562265
7.4349698
7.4170002
7.4038271
7.3920168
7.3929379
7.3977626
7.4079154
7.424424
7.4475808
7.4788305
7.5194365
7.5733456
7.6446871
7.7421283
7.8640267
8.0043299
8.1699337
8.3990203
8.997437
9.3233709
11.683551
11.131595
10.664831
10.269478
9.9310931
9.6387545
9.3842011
9.1611543
8.9647572
8.791089
8.6368596
8.4993129
8.376205
8.2656681
8.1662397
8.0764517
7.9953455
7.921949
7.8553225
7.7948014
7.7397487
7.6896973
7.6441258
7.6024982
7.5647662
7.5308237
7.5002094
7.4726757
7.448617
7.4282579
7.4111356
7.398848
7.3886472
7.3903492
7.3960636
7.407034
7.4243037
7.4486495
7.4803978
7.5222758
7.5765319
7.6496427
7.7487518
7.8694494
8.0081947
8.1726659
8.4017612
9.0090007
9.3268888
11.669836
11.101648
10.62507
10.224145
9.8830358
9.5899366
9.3359029
9.1141631
8.9196151
8.7480559
8.5960675
8.4608771
8.3401482
8.2319666
8.1348376
8.0472561
7.9682725
7.8968559
7.8320935
7.7733319
7.7199548
7.6714983
7.6273877
7.5871069
7.5506771
7.5179423
7.4884096
7.4619748
7.4390509
7.4196902
7.4035852
7.3922939
7.384078
7.386739
7.3936678
7.4058135
7.4242889
7.4495705
7.4823425
7.5250013
7.5815207
7.6567332
7.7558815
7.8778084
8.0160574
8.1796808
8.4055345
9.0133898
9.3323148
11.65346
11.065318
10.576792
10.16946
9.8254816
9.5318709
9.278787
9.0589178
8.8667779
8.6978776
8.5486561
8.4163147
8.2984022
8.192986
8.0985353
8.0135164
7.9369889
7.8678657
7.8052849
7.7485822
7.6971279
7.6504538
7.6079664
7.5692176
7.5342984
7.502969
7.4747087
7.4495842
7.4279492
7.4097051
7.3947744
7.3845391
7.3786377
7.382237
7.3904822
7.4041691
7.4238994
7.4499698
7.4846171
7.5286006
7.5879342
7.6614498
7.7656278
7.8897353
8.0281457
8.1902358
8.4168977
9.0377332
9.3418058
11.634292
11.023424
10.521771
10.107365
9.7603303
9.4661845
9.2142911
8.9967664
8.8075284
8.6418018
8.4958696
8.3668167
8.2521143
8.1498344
8.058393
7.9762418
7.9024529
7.8358765
7.7757066
7.7212393
7.6718951
7.6272183
7.5865946
7.5496167
7.516395
7.4865861
7.459714
7.4360711
7.4158529
7.3988522
7.38527
7.376208
7.372745
7.3773802
7.3870025
7.4022882
7.4233701
7.4513327
7.4868758
7.5332197
7.5910756
7.6705911
7.7755929
7.9026053
8.0430587
8.2045198
8.4308231
9.0686636
9.3556828
11.612676
10.974496
10.458224
10.036856
9.6874777
9.3936687
9.1437496
8.9291144
8.743261
8.581155
8.4389578
8.3135844
8.2024264
8.1036093
8.0154483
7.936408
7.8655532
7.8016938
7.7441271
7.6920838
7.6450493
7.6025065
7.5638267
7.5286968
7.4972431
7.4690503
7.4437268
7.4216806
7.4028768
7.3871472
7.3752552
7.3666814
7.3669916
7.3724926
7.3835357
7.4003018
7.4230812
7.4524686
7.4889511
7.5367585
7.5974941
7.6799609
7.7826238
7.9146531
8.0588707
8.2217658
8.4486128
9.1074863
9.3745821
11.588221
10.92065
10.388744
9.9602488
9.6088096
9.3159596
9.0686335
8.8574167
8.6754204
8.5173427
8.3792249
8.2578303
8.1504954
8.0553939
7.9707138
7.8949493
7.8271884
7.7662276
7.7113936
7.6618379
7.617198
7.5768261
7.5401348
7.5070016
7.4773976
7.4508231
7.4270655
7.4066263
7.3892639
7.3749609
7.3647983
7.3575101
7.359918
7.3675877
7.380315
7.3985362
7.422915
7.4531867
7.4928513
7.5420058
7.6060783
7.6861478
7.8026877
7.9329556
8.0763527
8.2411576
8.4697101
9.155425
9.3990963
11.560726
10.861
10.313579
9.8787783
9.5260877
9.2347467
8.9904697
8.7831506
8.6054121
8.4517049
8.3179404
8.2007512
8.0974734
8.006234
7.9251461
7.8527743
7.7881677
7.7301885
7.6781145
7.6311172
7.5888878
7.5507634
7.5161328
7.4849722
7.4571887
7.4323093
7.4103291
7.3915284
7.3755999
7.3628118
7.3542361
7.3489648
7.3526367
7.3624535
7.3772257
7.3971177
7.422823
7.4557221
7.4975553
7.5468033
7.616365
7.6992751
7.8145942
7.951039
8.0967734
8.2623005
8.4950007
9.2189144
9.4309915
11.530701
10.796345
10.233393
9.7931138
9.4401497
9.1512203
8.9106721
8.7077248
8.5345959
8.3855373
8.2562963
8.1434434
8.0443445
7.9570107
7.8795789
7.8106564
7.7492573
7.6942673
7.6449186
7.6005505
7.5607046
7.5247612
7.4921895
7.4631124
7.4372091
7.4140138
7.393735
7.3765088
7.3621003
7.3508868
7.3437895
7.3409823
7.3457489
7.3575326
7.3743989
7.3960858
7.4233313
7.4583097
7.4992329
7.555279
7.6212239
7.7089568
7.8249284
7.9682411
8.1181937
8.2865617
8.5213667
9.2838364
9.4702051
11.497445
10.726592
10.148693
9.7042475
9.352256
9.0666895
8.8305633
8.6324488
8.4641749
8.3199223
8.1952986
8.0868299
7.991961
7.9085067
7.8347236
7.7692628
7.7109867
7.658961
7.6123324
7.5705321
7.5330275
7.4992641
7.4687561
7.4415772
7.4174835
7.396029
7.3774299
7.3616311
7.3486663
7.3390987
7.3333227
7.3335457
7.3393522
7.352997
7.3717114
7.39523
7.4244249
7.4600683
7.5050999
7.5616202
7.6316855
7.7251747
7.8449673
7.9879872
8.1420087
8.3138883
8.5606217
9.3892291
9.5209064
11.460612
10.65239
10.060912
9.6138217
9.2639098
8.9825122
8.751363
8.5584099
8.3952005
8.2558076
8.1357801
8.0316903
7.9409981
7.8613707
7.7911465
7.7290828
7.6738726
7.6246679
7.5807229
7.5413865
7.5061392
7.4745661
7.4459933
7.4206207
7.3983092
7.3784803
7.3615066
7.3473049
7.3358531
7.3277912
7.3234755
7.3258875
7.33423
7.3492382
7.3695465
7.3949787
7.4257939
7.4634396
7.5107171
7.5687599
7.641506
7.7381755
7.856016
8.0078803
8.1669203
8.3437505
8.5911512
9.4920616
9.5841926
11.420947
10.575361
9.9717106
9.5233849
9.1765461
8.8998814
8.6740769
8.4864651
8.3284318
8.1939364
8.0784526
7.978664
7.8919886
7.8160658
7.7493254
7.6905055
7.6382855
7.5918075
7.5504097
7.5134413
7.4803647
7.4507447
7.4240937
7.4004985
7.3798023
7.3617266
7.3461985
7.3332081
7.3233259
7.3168651
7.3143548
7.3184462
7.3293756
7.3457078
7.3675737
7.3946453
7.4272414
7.4670431
7.5156261
7.5746659
7.6533775
7.750337
7.8791886
8.0325588
8.1961791
8.3794189
8.6692594
9.6540675
9.6689268
11.379541
10.497029
9.8829509
9.4345385
9.0914859
8.8199236
8.5995987
8.4173798
8.2645112
8.1348323
8.0237844
7.9281771
7.8453107
7.7729449
7.7095379
7.6538063
7.6043918
7.5605224
7.5215818
7.4868334
7.4557954
7.4280084
7.4032361
7.3812845
7.3621392
7.3454592
7.3312906
7.3200158
7.3115085
7.3061914
7.3056839
7.3114855
7.3246751
7.3428593
7.3664733
7.3948816
7.4297549
7.4712484
7.5214956
7.5864044
7.6699768
7.7650613
7.8972338
8.0598877
8.2271726
8.4187788
8.6702046
9.784289
9.7765771
11.332486
10.414907
9.7939576
9.3474827
9.0091719
8.7431115
8.5283632
8.3515416
8.2037246
8.078692
7.9719551
7.8803584
7.801127
7.7321541
7.6718893
7.6190385
7.5722706
7.5308748
7.4941917
7.4615403
7.4325207
7.4064669
7.383374
7.3629809
7.3451943
7.3301432
7.3173414
7.3070292
7.3001594
7.296085
7.2977089
7.3051596
7.3200965
7.3406654
7.3651931
7.3956624
7.4326195
7.4760738
7.5302281
7.5965752
7.675112
7.7810859
7.9160551
8.0899602
8.2718631
8.4679429
8.7985486
9.921019
9.9205163
11.291223
10.339313
9.709966
9.2652385
8.9318071
8.6711834
8.4617327
8.2899552
8.1469151
8.026259
7.9235688
7.8357001
7.7598627
7.6940188
7.6367007
7.5864752
7.5421915
7.5030184
7.4684359
7.4377157
7.4104045
7.3860251
7.3645881
7.3457289
7.3293557
7.3154474
7.3036703
7.2945948
7.289101
7.2867309
7.2896452
7.2984286
7.3164604
7.3384587
7.3644836
7.3972095
7.4348036
7.4806659
7.5358727
7.6057352
7.6972049
7.8013814
7.945629
8.1305139
8.304447
8.5281905
8.8016102
10.308452
10.116913
11.21417
10.237287
9.6163719
9.1796973
8.8534922
8.5995556
8.3961849
8.2298854
8.0917822
7.9756176
7.8769812
7.7928102
7.7203059
7.6575394
7.6030385
7.555351
7.5134625
7.4763747
7.4437723
7.4148631
7.3891979
7.3664037
7.3464069
7.3289758
7.313991
7.3011091
7.2904341
7.2829506
7.2786206
7.2773485
7.2821014
7.2934562
7.3132032
7.3364
7.3650852
7.3982335
7.439514
7.4896941
7.5481637
7.6193472
7.7072986
7.8236679
7.9644076
8.1649871
8.367404
8.6064958
8.8416443
10.389103
10.355762
11.232116
10.204691
9.5617536
9.122012
8.7972219
8.5459734
8.3456982
8.1826035
8.0476013
7.9344346
7.8386442
7.7570943
7.6870381
7.6265815
7.5742104
7.5284657
7.4883975
7.4530616
7.4220488
7.3945851
7.3702724
7.3487108
7.329948
7.313579
7.2997653
7.2877
7.2781422
7.2717559
7.2682514
7.2685973
7.27443
7.2876116
7.3092041
7.3340216
7.3641792
7.4010945
7.4437204
7.4925334
7.5537666
7.6313997
7.7209107
7.843377
7.9944276
8.1995254
8.3977945
8.6813182
9.0851369
10.537834
10.658271
34.266408
20.131236
10.929869
9.6259293
9.5521279
9.4747222
9.3370728
9.1115298
8.8812245
8.6244703
8.4060535
8.2053205
8.0373612
7.857035
7.6877412
7.5428068
7.4097718
7.2780375
7.1642831
7.0640214
6.9783158
6.9092241
6.8587458
6.8230424
6.7973577
6.7780212
6.7644009
6.7524282
6.7432208
6.7361484
6.7309937
6.7267937
6.7238359
6.7227096
6.7232391
6.7257785
6.73111
6.7397349
6.7525834
6.7709061
6.7961689
6.8303211
6.8761567
6.9375275
7.0209559
7.1362064
7.3044182
7.567247
8.0797391
33.608001
17.38629
10.552864
9.4842578
9.5382024
9.3955942
9.2453633
9.0063637
8.7951041
8.5454703
8.3407422
8.1393222
7.9711559
7.8123799
7.6761137
7.5300021
7.399705
7.2681756
7.1543699
7.0611888
6.9842526
6.9202291
6.8709823
6.8363999
6.8119528
6.7937714
6.7806571
6.769062
6.7602979
6.753369
6.7484616
6.7443978
6.7414599
6.7404877
6.7410953
6.7437866
6.749225
6.7580491
6.7711114
6.7896416
6.815164
6.8496292
6.8958451
6.9576863
7.0417146
7.1577357
7.326999
7.5916082
8.1102077
33.639118
15.72423
10.210585
9.5249225
9.5657183
9.3509133
9.2116247
8.9501171
8.7595395
8.5157517
8.3188552
8.1139801
7.955357
7.7996739
7.6695055
7.5302552
7.3953369
7.2681125
7.1551615
7.0630928
6.990056
6.9312901
6.884474
6.8505374
6.8267034
6.8092255
6.7965502
6.7852939
6.776854
6.7700117
6.7652255
6.761243
6.7584576
6.7576135
6.7583544
6.7612137
6.7667748
6.7758152
6.7891187
6.8078888
6.8337122
6.8685393
6.9151851
6.9775523
7.0622434
7.1791024
7.3494633
7.615789
8.13378
33.141642
15.57928
10.282993
9.5107632
9.6009069
9.3094916
9.1714568
8.9013086
8.7173525
8.4777917
8.2888699
8.0827439
7.9339569
7.7808636
7.6525476
7.5206038
7.4018726
7.2719233
7.1582977
7.066393
6.9950303
6.9407023
6.8972756
6.8645666
6.840993
6.8238528
6.8118745
6.8008753
6.7928177
6.7861512
6.7814621
6.7775919
6.7750782
6.7743749
6.775332
6.778401
6.784143
6.7934452
6.807048
6.8261271
6.8523294
6.8876079
6.9347779
6.9977811
7.0832603
7.2011225
7.3727789
7.6411023
8.1612107
32.862765
14.428189
10.084995
9.5635152
9.6036824
9.2904528
9.160916
8.8669382
8.6853309
8.4436682
8.2730457
8.0649248
7.9214771
7.7657322
7.636095
7.5116541
7.3951773
7.2725583
7.1629816
7.0729353
7.0026911
6.9507464
6.9094121
6.8781356
6.8549555
6.8379399
6.8267921
6.8159901
6.8083253
6.8018862
6.7973423
6.7935898
6.7914158
6.7908854
6.7921151
6.7954294
6.8014112
6.8110136
6.8249598
6.844407
6.8710515
6.9068557
6.9546288
7.0183599
7.1047323
7.2237269
7.3968308
7.6673301
8.1889609
32.607958
14.519711
10.107369
9.5447543
9.6236825
9.2695314
9.1373047
8.8351732
8.6312905
8.4004704
8.2277375
8.0275042
7.894666
7.7457472
7.6180305
7.4984232
7.388299
7.2718705
7.1678147
7.0811392
7.0119105
6.9617172
6.9208632
6.8910671
6.8686804
6.8519053
6.8414323
6.8307638
6.8234683
6.8172752
6.8129626
6.8093916
6.8075303
6.8072268
6.8087775
6.8123778
6.8186664
6.8286109
6.8429454
6.8628218
6.8899712
6.9263751
6.9748348
7.0393894
7.1267655
7.2470225
7.421737
7.694615
8.2182887
32.107806
13.765898
9.9811682
9.5216666
9.5723992
9.2412153
9.1097868
8.8024426
8.592513
8.3600309
8.1943414
8.0034026
7.8728676
7.7294883
7.6021968
7.4889564
7.3809336
7.2706079
7.1692267
7.086695
7.02081
6.9732396
6.9325231
6.9038942
6.8822507
6.8658677
6.855839
6.8453537
6.8383721
6.8324419
6.8284138
6.8250766
6.8234814
6.8234735
6.8253735
6.8293098
6.8359735
6.8463048
6.861073
6.8814396
6.9091542
6.9462302
6.9954611
7.060935
7.1494244
7.2710721
7.4475593
7.7230156
8.2489917
31.959342
13.934514
10.026862
9.4732975
9.5214707
9.2144866
9.0602881
8.7739449
8.5615868
8.3195964
8.1553784
7.9694608
7.8419271
7.7153038
7.5954897
7.4794485
7.3743959
7.2668322
7.1705475
7.0923171
7.0295062
6.9840623
6.9441113
6.9164367
6.8955709
6.87983
6.8700039
6.8599083
6.8531183
6.8474995
6.8437201
6.8407073
6.8393329
6.8396725
6.8419445
6.8462757
6.8533805
6.864148
6.8793988
6.9003172
6.9286572
6.9664779
7.0165675
7.0830589
7.172773
7.2959486
7.4743736
7.7526097
8.2812841
31.067972
13.301024
10.002211
9.469036
9.4755924
9.1723472
9.0072905
8.7473808
8.547273
8.2952539
8.1355302
7.9516936
7.8281555
7.7040311
7.5870791
7.4714871
7.3715308
7.2656536
7.1725656
7.0973074
7.0372858
6.9927096
6.9549874
6.928622
6.9086586
6.8936128
6.8838006
6.8743832
6.8676729
6.8624772
6.8588495
6.8562496
6.8550931
6.8558133
6.8584816
6.8632661
6.8708699
6.882132
6.8979221
6.9194572
6.9484876
6.9871289
7.0381703
7.1057857
7.1968452
7.3216947
7.5022327
7.7834604
8.3152342
30.762545
13.586465
10.107279
9.4669008
9.4753023
9.1444562
8.9788627
8.7246001
8.5368788
8.2865181
8.1257102
7.9293049
7.8111497
7.6916037
7.5813657
7.4670854
7.3713515
7.2651585
7.1754864
7.1017607
7.0450829
7.0008906
6.9658878
6.9405588
6.9214134
6.9070519
6.8972106
6.8886889
6.8820363
6.8774117
6.873836
6.8717127
6.8708575
6.8719383
6.8750444
6.8803283
6.8884774
6.9002966
6.9166895
6.9389062
6.9686933
7.0082302
7.0603176
7.1291659
7.2216964
7.3483649
7.5312009
7.8156263
8.3507209
29.822793
12.518136
10.138629
9.4994028
9.5021628
9.1290514
8.9717369
8.689947
8.5127895
8.2839555
8.1195967
7.9197929
7.8024176
7.6769485
7.5705303
7.4627637
7.3703589
7.2669994
7.1825559
7.1079732
7.0533445
7.009725
6.9768028
6.9524075
6.9337617
6.920196
6.910433
6.9029034
6.8963036
6.8923605
6.8888688
6.8871724
6.8867524
6.8881717
6.8917472
6.8975627
6.9062963
6.9187344
6.9357978
6.95876
6.989371
7.0298789
7.0831061
7.1532959
7.2474332
7.3760706
7.5613954
7.849243
8.3881038
29.925226
12.680298
10.252465
9.5155817
9.5146395
9.1257603
8.973229
8.6585042
8.4754346
8.2694506
8.1011298
7.912772
7.7843775
7.6617181
7.5617211
7.4609859
7.3692865
7.2702318
7.1890907
7.1146446
7.0619137
7.0194972
6.9872067
6.9644051
6.9457672
6.9331874
6.9236094
6.91704
6.9105485
6.9072115
6.9040582
6.9026588
6.9027862
6.9045752
6.9086338
6.9149999
6.9243619
6.9374724
6.9552809
6.9790534
7.01056
7.0521197
7.1065778
7.1782232
7.2741094
7.4048756
7.5928881
7.884395
8.4273362
28.165372
11.538918
10.194729
9.4942159
9.5027142
9.1210788
8.9749438
8.638
8.4575568
8.25065
8.0758386
7.9118773
7.772484
7.6505365
7.5497833
7.4577049
7.3670016
7.2734987
7.1930279
7.1211653
7.0708135
7.0309284
6.9969458
6.9763309
6.9576569
6.946055
6.9367644
6.9309601
6.9248264
6.9217923
6.9193371
6.9181935
6.918892
6.921117
6.9256878
6.9326152
6.942653
6.9564958
6.9751215
6.999776
7.0322614
7.074955
7.1307451
7.2039706
7.3017557
7.4348325
7.6257504
7.9211817
8.4686242
27.339645
11.445786
10.245149
9.5377566
9.5034814
9.1228511
8.9249535
8.6177515
8.454964
8.245639
8.0642087
7.8913366
7.7569662
7.6457255
7.5409791
7.4526636
7.3645174
7.2774878
7.1952534
7.1281735
7.0784697
7.0422184
7.0068144
6.9878393
6.9695448
6.9587528
6.9499484
6.9445615
6.9391375
6.9361651
6.9346228
6.9338555
6.9350803
6.9378053
6.9429523
6.9504559
6.9612131
6.9758452
6.995361
7.0209698
7.0545223
7.0984318
7.1556626
7.2305927
7.3304298
7.4660105
7.6600623
7.9596952
8.5120188
26.43189
11.385012
10.201256
9.5783674
9.4488118
9.1075131
8.8457906
8.5755214
8.4369029
8.2433294
8.065228
7.8710884
7.7411413
7.643023
7.5357096
7.4491397
7.3560736
7.2790593
7.1962365
7.1366295
7.0860368
7.0513458
7.0169055
6.9992296
6.981496
6.9712499
6.9631413
6.957911
6.9533638
6.9506044
6.9498638
6.9496935
6.9514291
6.9547114
6.9605014
6.9686273
6.9801379
6.9956159
7.0160885
7.0427303
7.0774367
7.1226521
7.1814298
7.2581944
7.3602415
7.4985282
7.6959644
8.000096
8.5579495
25.373829
11.044668
10.206885
9.6035403
9.4530146
9.1185162
8.8104043
8.5507125
8.3862618
8.2308315
8.0624606
7.8602909
7.7214299
7.6313523
7.5253547
7.4489347
7.3509192
7.279312
7.1965049
7.1428707
7.0942696
7.0595429
7.0261269
7.0105182
6.9934795
6.9836824
6.9761914
6.9712012
6.9673768
6.9652053
6.9650305
6.9656261
6.9679061
6.97184
6.9783148
6.9871363
6.9994406
7.0158252
7.0373186
7.0650753
7.1010342
7.1476546
7.2080827
7.286819
7.3912445
7.5324521
7.73354
8.0424862
8.6062994
24.691925
11.150589
10.243468
9.6284939
9.4322195
9.1214976
8.7756077
8.5412932
8.3435317
8.2169407
8.0103197
7.8518335
7.7046172
7.6214915
7.5048001
7.441102
7.3483915
7.2789666
7.1984863
7.1453029
7.0995039
7.068005
7.0351909
7.0213628
7.0052746
6.9963453
6.9890436
6.9846404
6.9812469
6.9798927
6.9802229
6.9815977
6.9844418
6.9891819
6.9963658
7.0059606
7.0191248
7.0364797
7.0590566
7.0880178
7.1253328
7.1734631
7.2356559
7.3165102
7.4234929
7.5678528
7.7728802
8.0870051
8.6570092
23.821556
10.858138
10.273286
9.6481441
9.4041125
9.0753599
8.7109794
8.526753
8.31774
8.2103503
7.9824469
7.8288527
7.6781801
7.6153135
7.4933593
7.4213612
7.3463605
7.2776434
7.203362
7.1486085
7.1021305
7.074695
7.0457715
7.0322874
7.0167358
7.009253
7.0019312
6.9983581
6.9952422
6.9946591
6.9955113
6.9977426
7.0010915
7.0067511
7.0147146
7.0251419
7.0392472
7.0576383
7.0813627
7.111618
7.1503938
7.200144
7.2642268
7.347349
7.4570711
7.6048287
7.8141038
8.1338041
8.7101799
22.962835
10.973267
10.171485
9.6629181
9.3483914
9.0275802
8.6614484
8.5024536
8.2818463
8.2091839
7.9642368
7.8117976
7.6541548
7.6031332
7.4905774
7.4110132
7.3441074
7.2772784
7.2073548
7.1536067
7.1084233
7.0793918
7.0566087
7.0437473
7.0283826
7.0219677
7.0151574
7.0122955
7.0096316
7.0095708
7.0109224
7.0141537
7.0180145
7.024568
7.0334325
7.0447472
7.0598747
7.0793728
7.1043157
7.135956
7.1762972
7.2277885
7.293889
7.3794404
7.492079
7.6434966
7.8573386
8.1830477
8.7662425
21.762832
11.159054
10.138055
9.6125502
9.3060432
8.9888636
8.6434501
8.4821659
8.2469592
8.2069796
7.9400564
7.8079392
7.6472239
7.5920512
7.4905367
7.4078381
7.3397338
7.2780847
7.2123736
7.1579233
7.1184728
7.0870191
7.0656871
7.0544596
7.040907
7.0341765
7.028778
7.0262384
7.0243294
7.0247335
7.0265134
7.0307263
7.0353074
7.0426475
7.0525215
7.0648024
7.0810215
7.1017078
7.1279503
7.1610725
7.2030875
7.2564497
7.3247048
7.4128472
7.5285945
7.6839339
7.9026874
8.2348791
8.8255245
20.727282
11.001937
10.201268
9.5998874
9.2730548
8.973362
8.6339176
8.4683409
8.2106783
8.2048827
7.9251169
7.7983912
7.6456949
7.5832363
7.4861337
7.4083771
7.3362889
7.2758871
7.2162201
7.165175
7.1266493
7.0972779
7.0752818
7.0637045
7.0537343
7.0461157
7.0425948
7.0399812
7.0390659
7.0401037
7.0423745
7.0474083
7.0529558
7.0610701
7.0719689
7.0853116
7.1026861
7.1246511
7.1522921
7.1869932
7.2307983
7.286166
7.3567258
7.4476288
7.566696
7.7262326
7.950243
8.2894299
8.8883809
20.257221