/*--------------------------------*- C++ -*----------------------------------*\
| =========                 |                                                 |
| \\      /  F ield         | OpenFOAM: The Open Source CFD Toolbox           |
|  \\    /   O peration     | Version:  2506                                  |
|   \\  /    A nd           | Website:  www.openfoam.com                      |
|    \\/     M anipulation  |                                                 |
\*---------------------------------------------------------------------------*/
FoamFile
{
    version     2.0;
    format      ascii;
    arch        "LSB;label=32;scalar=64";
    class       volScalarField;
    location    "0.0025";
    object      k;
}
// * * * * * * * * * * * * * * * * * * * * * * * * * * * * * * * * * * * * * //

dimensions      [0 2 -2 0 0 0 0];

internalField   nonuniform List<scalar> 
13761
(
0.082484159
0.082556689
0.082179506
0.082161421
0.082328394
0.082049489
0.081889848
0.081872144
0.081598785
0.08130441
0.080950338
0.080667873
0.080508293
0.079953093
0.078795879
0.077885586
0.077652089
0.076715728
0.074682135
0.073812861
0.075206967
0.076862233
0.077407862
0.077994229
0.079456521
0.081075981
0.082127007
0.083070392
0.084364819
0.085866598
0.087211835
0.087989507
0.088444258
0.089267549
0.090285074
0.090665952
0.090523702
0.090804221
0.09203105
0.094253379
0.096516068
0.097798098
0.098989496
0.10088289
0.1027742
0.1043388
0.10611797
0.10828726
0.11071082
0.11342248
0.11637864
0.11945394
0.12265747
0.12603397
0.12961008
0.13373361
0.14125267
0.17502733
0.48155559
3.5156874
14.201129
27.441046
39.431993
49.897185
59.064431
67.185183
74.459679
81.030671
86.991642
92.398105
97.278825
101.64579
105.50326
108.85469
111.70698
114.07364
115.97556
117.44006
118.49927
119.18797
119.54163
119.59469
119.37895
118.92252
118.24859
117.37468
116.31142
115.06077
113.61471
111.95206
110.03276
107.79049
105.12087
101.86226
97.766216
92.452021
85.339388
75.590904
62.21055
44.763289
25.465681
10.212994
2.6265175
0.45129174
0.87511293
0.082490276
0.082568315
0.082190271
0.082170461
0.082340235
0.082062827
0.081901692
0.081885764
0.081613074
0.081319329
0.08096478
0.080678836
0.080517889
0.07996873
0.078819925
0.077905932
0.077664402
0.076731949
0.074701403
0.073808437
0.075159952
0.0767851
0.077318599
0.077896105
0.079349205
0.080970363
0.082034755
0.082989509
0.084288326
0.085792688
0.087146904
0.087942991
0.088424032
0.089274356
0.090316222
0.09072787
0.090625495
0.090941541
0.092191511
0.0944298
0.096706609
0.098007131
0.099227989
0.1011504
0.10305656
0.1046347
0.10643762
0.10863201
0.11107935
0.11381741
0.1167983
0.11989595
0.12312558
0.12653178
0.130138
0.13431566
0.14214395
0.17816107
0.49281458
3.5294955
14.551791
28.239668
40.446544
51.073935
60.401002
68.694148
76.156868
82.930321
89.104154
94.729152
99.829306
104.41235
108.47919
112.03094
115.07314
117.61872
119.6886
121.31046
122.51698
123.34358
123.82635
124.00031
123.89774
123.54709
122.97161
122.18845
121.20721
120.02785
118.63891
117.01376
115.10419
112.8321
110.07659
106.65373
102.2862
96.558192
88.850934
78.296145
63.907982
45.390594
25.34787
9.980022
2.5335427
0.39913459
0.58462768
0.082579829
0.082201159
0.08217921
0.082351796
0.082076372
0.081913461
0.081899307
0.081627564
0.081334354
0.080979481
0.080690056
0.080527827
0.079985086
0.078844826
0.077927117
0.077678343
0.076751143
0.07472358
0.073805608
0.075114323
0.076710094
0.07723046
0.077796544
0.079238633
0.080861128
0.081938368
0.082903341
0.08420564
0.085713044
0.087076641
0.08789114
0.088398149
0.089273577
0.090338747
0.090783375
0.090723006
0.091072751
0.092340969
0.094589801
0.096880843
0.098206941
0.099459202
0.10140593
0.10332738
0.10492287
0.10674764
0.10896208
0.11142868
0.11418685
0.11718521
0.12029908
0.12354832
0.12697681
0.13060615
0.13482853
0.14292042
0.18078065
0.49690468
3.4225369
14.436233
28.435429
40.783538
51.502924
60.902656
69.259779
76.781731
83.610119
89.833339
95.500319
100.63326
105.2386
109.31667
112.86879
115.90123
118.428
120.4711
122.05907
123.22505
124.00445
124.43282
124.54421
124.36952
123.93544
123.26319
122.36765
121.25598
119.92561
118.36262
116.53827
114.40284
111.87773
108.84343
105.12031
100.44017
94.403956
86.422076
75.677987
61.279348
43.082107
23.7912
9.2928774
2.3526798
0.3754205
0.58008171
0.082591459
0.082212389
0.082187856
0.082363295
0.082090297
0.081925333
0.081912945
0.081642413
0.081349657
0.080994598
0.080701683
0.080538227
0.080002218
0.078870639
0.07794921
0.077693898
0.076773204
0.074748669
0.073804583
0.075070321
0.076637394
0.077143726
0.077695989
0.079125236
0.08074854
0.081838034
0.082812095
0.084116997
0.085627157
0.08700081
0.087834006
0.088365775
0.08926572
0.090354209
0.09083266
0.090815729
0.091197362
0.092479383
0.094734054
0.097039889
0.09839769
0.099682995
0.10165005
0.10358771
0.10520421
0.10704914
0.10927927
0.11176116
0.11453363
0.11754287
0.12066723
0.12392957
0.12737274
0.13101759
0.13527446
0.143589
0.18297375
0.49640993
3.2278241
13.896264
28.088142
40.580654
51.419871
60.925763
69.381476
76.998195
83.918536
90.230732
95.983213
101.19774
105.8806
110.03222
113.65425
116.75335
119.34381
121.44764
123.09311
124.31275
125.14114
125.61287
125.76094
125.61518
125.20125
124.53935
123.64331
122.51926
121.16345
119.56066
117.68067
115.47194
112.85369
109.70384
105.83988
100.99075
94.755398
86.545168
75.55282
60.917226
42.572332
23.337357
9.0604439
2.2863689
0.3591739
0.52347471
0.082603169
0.082223896
0.08219635
0.082374752
0.082104508
0.081937271
0.081926648
0.08165756
0.081365208
0.081010097
0.08071369
0.080549046
0.080020046
0.078897301
0.07797218
0.077710972
0.076797969
0.074776627
0.07380551
0.075028123
0.076567137
0.077058664
0.077594904
0.079009498
0.080632959
0.081734062
0.082716113
0.084022749
0.08553533
0.086919588
0.087771694
0.088326841
0.089250104
0.09036308
0.090876782
0.090902286
0.091313838
0.092607058
0.094865084
0.097184472
0.098578955
0.099898528
0.10188273
0.10383772
0.10547844
0.10734208
0.10958447
0.11207807
0.11485959
0.117874
0.12100381
0.12427337
0.12772451
0.13137864
0.13566334
0.14418037
0.18496524
0.49512702
3.0003079
13.083046
27.354954
39.988903
50.948446
60.556374
69.100221
76.797558
83.793594
90.177766
95.999198
101.2802
106.0276
110.24237
113.92664
117.08747
119.73927
121.90378
123.6085
124.8848
125.7658
126.28446
126.47213
126.357
125.96318
125.30941
124.40818
123.26438
121.87318
120.21837
118.269
115.97304
113.24964
109.97717
105.97456
100.97366
94.578736
86.210303
75.077595
60.349994
42.013708
22.933087
8.875686
2.2367971
0.35083859
0.50875636
0.082615003
0.082235674
0.082204717
0.082386218
0.082118981
0.081949286
0.081940425
0.081672991
0.081381008
0.081025981
0.080726078
0.080560273
0.080038516
0.078924769
0.077996007
0.077729474
0.07682528
0.074807401
0.073808511
0.074987875
0.07649943
0.076975507
0.077493706
0.078891858
0.080514712
0.081626732
0.082615696
0.083923202
0.085437814
0.086833111
0.087704273
0.088281504
0.089226931
0.090365311
0.090915457
0.090982225
0.091420456
0.092720642
0.094981185
0.097319012
0.098751614
0.10010452
0.10210555
0.10407931
0.10574612
0.10762755
0.10987865
0.11238069
0.11516696
0.11818184
0.12131272
0.12458433
0.12803766
0.13169594
0.13600351
0.14470958
0.1868263
0.494526
2.7729517
12.097354
26.314003
39.106588
50.210608
59.944859
68.595904
76.390211
83.476082
89.944888
95.847227
101.20671
106.03135
110.32311
114.08476
117.32369
120.05473
122.29935
124.08417
125.43921
126.39602
126.98581
127.23819
127.17975
126.83316
126.21588
125.33928
124.20727
122.81414
121.14295
119.16208
116.81897
114.03231
110.6802
106.58153
101.4686
94.947089
86.440594
75.165127
60.305178
41.878663
22.793192
8.8010994
2.2152737
0.34541092
0.48929365
0.082627033
0.082247698
0.082212973
0.082397733
0.082133684
0.081961383
0.08195428
0.081688685
0.081397052
0.081042245
0.080738845
0.080571892
0.080057576
0.078952997
0.078020665
0.077749317
0.076854983
0.07484094
0.073813694
0.074949707
0.076434366
0.076894477
0.077392801
0.078772756
0.080394139
0.081516346
0.082511167
0.083818675
0.085334863
0.086741523
0.087631837
0.088229948
0.089196421
0.090360888
0.090948434
0.091055456
0.09151751
0.092820777
0.095082818
0.097442473
0.098914187
0.10029831
0.10231709
0.10431221
0.10600486
0.10790249
0.11016135
0.11266983
0.1154581
0.11847032
0.1215983
0.12486708
0.12831735
0.13197237
0.1362735
0.14495585
0.1866668
0.48059498
2.5238578
11.033608
25.067169
38.018695
49.270087
59.128932
67.895035
75.791975
82.970967
89.525943
95.509556
100.94726
105.84889
110.21807
114.05825
117.3767
120.18948
122.51791
124.38772
125.82758
126.86731
127.53621
127.86189
127.86916
127.57915
127.00798
126.16576
125.05536
123.67018
121.99254
119.99033
117.61067
114.77214
111.35304
107.17286
101.96514
95.337664
86.717518
75.326575
60.359809
41.854071
22.741912
8.7697682
2.2058484
0.34289043
0.47980534
0.082259964
0.082221153
0.082409319
0.082148588
0.081973566
0.081968219
0.081704622
0.081413335
0.081058882
0.08075199
0.08058389
0.080077176
0.078981943
0.078046131
0.077770415
0.076886928
0.074877188
0.073821153
0.07491373
0.076372026
0.07681578
0.077292577
0.07865262
0.080271589
0.081403217
0.082402858
0.083709491
0.085226736
0.086644975
0.08755449
0.088172367
0.089158792
0.09034981
0.090975518
0.091121944
0.091605348
0.092908111
0.095170406
0.0975546
0.099066325
0.10047998
0.10251735
0.10453617
0.1062547
0.10816746
0.11043302
0.11294608
0.11573408
0.11874132
0.12186312
0.12512489
0.12856755
0.13221176
0.13647002
0.14485545
0.18405929
0.4516366
2.2399169
9.9017339
23.652683
36.774441
48.188969
58.188284
67.076177
75.080973
82.357336
89.001646
95.068521
100.58524
105.56345
110.00867
113.92689
117.32763
120.22607
122.64305
124.60359
126.13523
127.26633
128.02429
128.43441
128.51957
128.29965
127.7893
126.99729
125.92529
124.56571
122.90012
120.89579
118.49944
115.62939
112.16389
107.92266
102.6398
95.924086
87.204121
75.704128
60.623063
42.006213
22.805659
8.7877552
2.2092361
0.34221971
0.47197487
0.082272489
0.082229284
0.08242099
0.082163671
0.081985841
0.081982249
0.08172078
0.081429851
0.081075887
0.080765511
0.080596255
0.080097273
0.079011566
0.078072383
0.077792682
0.076920967
0.074916085
0.073830971
0.074880043
0.076312475
0.076739601
0.077193403
0.07853187
0.080147411
0.081287672
0.082291111
0.083595982
0.085113695
0.086543622
0.087472352
0.088108964
0.089114266
0.090332098
0.090996561
0.091181703
0.091684353
0.0929833
0.095244372
0.097655205
0.099207769
0.10064962
0.10270634
0.10475096
0.10649576
0.10842308
0.11069479
0.11321116
0.11599732
0.11899782
0.12211073
0.12536188
0.12879296
0.1324203
0.13660923
0.14450811
0.17988023
0.41483283
1.9483599
8.7494957
22.100046
35.395168
46.982905
57.132074
66.149497
74.268427
81.647174
88.384687
94.537639
100.13523
105.19106
109.71262
113.70776
117.1875
120.16801
122.6705
124.71971
126.34234
127.56545
128.41499
128.91499
129.08638
128.94645
128.50784
127.77764
126.75621
125.43492
123.79447
121.80152
119.40232
116.51477
113.01693
108.72894
103.38546
96.596021
87.790033
76.19236
61.001925
42.264293
22.943293
8.8388726
2.2214536
0.34318868
0.46793501
0.082285324
0.082237403
0.082432748
0.082178921
0.081998211
0.081996374
0.08173714
0.081446597
0.081093255
0.080779406
0.080608979
0.080117822
0.079041825
0.078099396
0.077816039
0.076956954
0.074957566
0.073843221
0.074848732
0.076255764
0.076666109
0.077095628
0.078410915
0.080021959
0.081170044
0.08217628
0.083478491
0.084996012
0.086437634
0.087385558
0.088039958
0.089063075
0.090307795
0.091011461
0.091234794
0.091754944
0.093047019
0.095305161
0.097744172
0.099338346
0.10080735
0.10288407
0.10495642
0.10672814
0.10866993
0.11094765
0.11346665
0.11624998
0.11924252
0.12234435
0.12558179
0.12899785
0.13260379
0.13670769
0.14401609
0.17490036
0.37516581
1.665899
7.6136127
20.434871
33.897654
45.668131
55.977103
65.132731
73.373192
80.860538
87.696305
93.939166
99.620185
104.75492
109.35292
113.42407
116.98122
120.04194
122.62828
124.76514
126.47877
127.79521
128.73892
129.33217
129.59397
129.53966
129.18002
128.52042
127.55971
126.28799
124.68492
122.71634
120.32798
117.43757
113.92307
109.60422
104.21551
97.366482
88.486415
76.799104
61.499933
42.627937
23.152822
8.921888
2.2421677
0.34553566
0.46603976
0.08229856
0.082245554
0.082444583
0.08219433
0.082010683
0.082010594
0.081753685
0.081463568
0.081110977
0.080793672
0.080622053
0.080138785
0.079072682
0.078127149
0.077840406
0.076994746
0.07500156
0.073857965
0.074819869
0.076201932
0.076595456
0.076999581
0.078290152
0.079895585
0.081050676
0.082058729
0.08335737
0.084873972
0.08632719
0.087294253
0.087965578
0.089005464
0.090276974
0.091020154
0.091281314
0.09181757
0.093099967
0.095353255
0.097821471
0.099457968
0.10095331
0.10305058
0.10515242
0.10695195
0.10890853
0.11119249
0.11371393
0.11649398
0.11947781
0.12256689
0.125788
0.12918607
0.1327674
0.13678011
0.14346732
0.16972792
0.33610241
1.4035548
6.5249057
18.683515
32.293822
44.255129
54.733379
64.035687
72.405096
80.007469
86.946882
93.283878
99.05122
104.26628
108.94064
113.08632
116.71824
119.85575
122.52221
124.74322
126.5451
127.95329
128.99117
129.67943
130.03531
130.07218
129.79884
129.21879
128.32914
127.11848
125.56512
123.63385
121.26956
118.38935
114.87074
110.5332
105.11102
98.213519
89.269225
77.499542
62.093358
43.07732
23.421482
9.0312689
2.2698576
0.34906662
0.46635222
0.082253785
0.08245648
0.082209895
0.082023268
0.082024907
0.081770401
0.081480764
0.081129045
0.080808308
0.080635468
0.080160123
0.0791041
0.07815562
0.077865708
0.077034198
0.075047992
0.073875256
0.07479352
0.076151003
0.076527773
0.07690557
0.078169964
0.079768639
0.080929912
0.081938829
0.083232983
0.08474787
0.086212485
0.087198602
0.087886066
0.088941693
0.090239732
0.091022621
0.091321396
0.091872705
0.093142874
0.095389188
0.097887158
0.099566629
0.10108771
0.10320594
0.10533887
0.10716731
0.10913931
0.11143008
0.1139542
0.11673099
0.11970584
0.12278096
0.12598358
0.1293611
0.13291567
0.13683819
0.14292751
0.16478812
0.29982656
1.1675467
5.506973
16.873936
30.592239
42.751827
53.40889
62.866642
71.372915
79.097458
86.14682
92.583222
98.44087
103.73871
108.49016
112.70937
116.41345
119.62385
122.36569
124.66586
126.5513
128.04747
129.1771
129.95976
130.4111
130.54265
130.36124
129.86833
129.05912
127.92042
126.42895
124.54808
122.2216
119.36568
115.8571
111.51474
106.07231
99.138379
90.139941
78.294542
62.781683
43.610326
23.746615
9.1654138
2.3040436
0.35365441
0.46838489
0.082262151
0.082468416
0.082225616
0.082035977
0.082039306
0.08178728
0.081498181
0.081147452
0.080823311
0.080649218
0.080181798
0.079136042
0.078184788
0.077891872
0.077075168
0.075096781
0.073895142
0.074769743
0.076102993
0.076463173
0.076813882
0.078050722
0.079641465
0.080808102
0.08181696
0.083105709
0.084618022
0.086093732
0.087098783
0.087801681
0.088872041
0.0901962
0.091018874
0.091355199
0.091920844
0.093176498
0.095413557
0.097941378
0.099664402
0.10121079
0.10335028
0.10551572
0.1073743
0.10936267
0.11166109
0.11418849
0.11696249
0.1199285
0.12298891
0.12617131
0.1295261
0.13305249
0.13689048
0.14243999
0.16034804
0.26759691
0.96087617
4.5771913
15.037225
28.799317
41.164165
52.00938
61.631319
70.282576
78.136883
85.303198
91.845197
97.798201
103.18237
108.01268
112.30519
116.07923
119.35852
122.17035
124.54339
126.50588
128.08392
129.30026
130.17383
130.71911
130.94604
130.85959
130.45917
129.73788
128.68052
127.26192
125.44373
123.16824
120.35036
116.86578
112.5324
107.08297
100.1248
91.082604
79.168824
63.551089
44.216022
24.121689
9.3217198
2.344072
0.35920615
0.4720582
0.082270727
0.082480366
0.082241492
0.082048821
0.082053781
0.081804317
0.08151582
0.081166188
0.080838677
0.080663298
0.080203776
0.079168472
0.078214633
0.077918828
0.077117513
0.075147839
0.073917659
0.074748585
0.076057905
0.076401749
0.076724782
0.077932779
0.079514401
0.080685593
0.081693508
0.082975932
0.084484754
0.085971158
0.086994991
0.087712694
0.088796806
0.090146536
0.091008964
0.091382908
0.091962497
0.093201634
0.095427026
0.09798437
0.099751441
0.10132286
0.1034838
0.10568298
0.10757303
0.10957893
0.1118861
0.11441771
0.11718976
0.12014749
0.12319286
0.12635376
0.129684
0.13318124
0.13694273
0.14202863
0.1565463
0.23998543
0.78416668
3.7466157
13.207166
26.920434
39.497153
50.53952
60.334309
69.138828
77.130912
84.421892
91.076667
97.131312
102.60677
107.51913
111.88606
115.72891
119.07374
121.95021
124.38927
126.42103
128.07296
129.36851
130.32668
130.96136
131.28133
131.28994
130.98467
130.35649
129.38803
128.05192
126.30776
124.09596
121.32975
117.8833
113.5731
108.13044
101.16082
92.085938
80.111933
64.392331
44.887204
24.542443
9.4984992
2.3895093
0.36564632
0.47722321
0.082279608
0.082492305
0.082257527
0.082061814
0.082068324
0.081821507
0.081533679
0.081185244
0.080854406
0.0806777
0.080226024
0.079201355
0.078245138
0.077946509
0.07716109
0.075201075
0.073942838
0.07473009
0.076015734
0.07634358
0.076638513
0.077816474
0.079387778
0.080562732
0.081568864
0.082844052
0.084348415
0.085845012
0.086887437
0.087619394
0.088716308
0.090090932
0.09099297
0.091404723
0.091998182
0.093219105
0.095430337
0.098016467
0.099827979
0.10142429
0.10360675
0.1058407
0.10776363
0.10978843
0.11210563
0.11464265
0.11741394
0.12036429
0.12339475
0.12653326
0.1298375
0.13330493
0.13699858
0.14170227
0.15342585
0.21708489
0.63643194
3.0205495
11.419258
24.96149
37.755465
49.003222
58.979222
67.945249
76.08336
83.507246
90.282828
96.446565
102.0197
107.01895
111.4631
115.37519
118.78343
121.71997
124.2183
126.31093
128.02736
129.39254
130.42628
131.14262
131.54983
131.65012
131.43932
130.90641
130.03179
128.7857
127.12536
124.98891
122.28745
118.89315
114.62056
109.19896
102.23142
93.135891
81.111055
65.294345
45.615485
25.004079
9.6939011
2.4399005
0.37291089
0.48382384
0.082288904
0.082504212
0.082273727
0.082074968
0.082082928
0.081838851
0.081551759
0.081204612
0.080870495
0.080692419
0.080248508
0.079234657
0.078276285
0.077974851
0.077205756
0.075256389
0.073970703
0.074714295
0.075976466
0.076288722
0.076555298
0.07770213
0.079261915
0.080439857
0.08144342
0.082710477
0.084209369
0.085715562
0.08677635
0.087522084
0.088630888
0.090029612
0.090971008
0.091420864
0.092028425
0.093229767
0.09542431
0.098038097
0.099894327
0.10151554
0.10371948
0.10598904
0.10794628
0.10999149
0.11232017
0.11486404
0.11763604
0.1205803
0.12359635
0.12671202
0.12998916
0.13342627
0.13706019
0.14145931
0.15096311
0.19866413
0.51561451
2.3991948
9.7087698
22.930759
35.943882
47.404043
57.569171
66.704801
74.997272
82.562663
89.467765
95.749091
101.42772
106.52041
111.04652
115.03028
118.50171
121.49528
124.04713
126.1925
127.96348
129.38721
130.48518
131.27245
131.75754
131.94225
131.82131
131.38205
130.60277
129.45133
127.88232
125.83127
123.20669
119.87819
115.65782
110.27221
103.32129
94.218417
82.153728
66.246666
46.393151
25.502287
9.9063195
2.4948537
0.38094446
0.49181635
0.082516069
0.082290099
0.082088293
0.082097589
0.081856346
0.081570059
0.081224281
0.080886942
0.080707448
0.080271199
0.079268341
0.078308056
0.078003793
0.077251368
0.075313678
0.074001272
0.074701232
0.07594008
0.076237216
0.076475336
0.077590055
0.079137122
0.0803173
0.081317566
0.082575621
0.084067997
0.085583096
0.086661976
0.087421083
0.088540912
0.089962833
0.090943218
0.09143156
0.092053749
0.093234503
0.095409849
0.098049789
0.099950881
0.10159715
0.10382245
0.10612821
0.10812121
0.11018849
0.11253021
0.11508257
0.11785703
0.12079676
0.1237993
0.12689212
0.13014142
0.13354783
0.13712893
0.14129183
0.14909267
0.18428953
0.4190099
1.8786066
8.1084451
20.841009
34.067493
45.745436
56.107071
65.420134
73.875211
81.590838
88.634603
95.04281
100.83594
106.03027
110.64509
114.70523
118.242
121.29184
123.89336
126.08464
127.90067
129.3714
130.52075
131.36567
131.9159
132.17374
132.1336
131.78179
131.09498
130.03878
128.5652
126.60692
124.06943
120.81931
116.66543
111.33104
104.41215
95.316602
83.224845
67.236606
47.210845
26.031815
10.133781
2.5538861
0.38968613
0.50119798
0.082527871
0.082306657
0.082101794
0.082112306
0.081873994
0.081588575
0.081244247
0.080903746
0.08072278
0.080294067
0.079302373
0.078340435
0.078033275
0.077297781
0.07537283
0.074034557
0.074690932
0.075906548
0.076189088
0.076398807
0.077480541
0.079013698
0.080195384
0.081191692
0.082439907
0.0839247
0.085447921
0.086544578
0.087316726
0.088446769
0.089890884
0.090909775
0.091437054
0.092074677
0.093234222
0.095387941
0.098052172
0.09999812
0.10166977
0.10391625
0.10625857
0.10828874
0.11037986
0.11273628
0.11529892
0.11807783
0.12101489
0.12400517
0.12707553
0.13029667
0.13367215
0.13720591
0.14118897
0.14772704
0.17341673
0.34357721
1.4517268
6.6461017
18.711405
32.131683
44.031028
54.596011
64.093996
72.719686
80.594198
87.785925
94.330793
100.24835
105.55388
110.26606
114.40965
118.01661
121.12479
123.7749
126.00764
127.86098
129.36797
130.55555
131.44336
132.04331
132.35922
132.38622
132.11053
131.50794
130.54242
129.16363
127.30143
124.85813
121.69678
117.62248
112.35432
105.48344
96.411157
84.306991
68.249287
48.057238
26.586019
10.373663
2.6163479
0.39905475
0.51196501
0.08253964
0.082323422
0.082115475
0.082127083
0.081891797
0.081607303
0.0812645
0.080920908
0.080738407
0.080317086
0.079336716
0.078373406
0.078063244
0.077344851
0.075433728
0.074070561
0.07468342
0.075875834
0.076144343
0.07632587
0.077373862
0.07889193
0.080074419
0.081066181
0.082303762
0.083779894
0.085310366
0.086424435
0.087209365
0.088348875
0.089814092
0.090870882
0.091437597
0.092091721
0.093229853
0.095359663
0.098045983
0.10003662
0.10173413
0.10400156
0.10638059
0.1084493
0.1105661
0.11293899
0.11551385
0.11829939
0.12123588
0.1242155
0.12726421
0.13045727
0.13380178
0.13729229
0.1411395
0.14677169
0.16545942
0.28617034
1.109425
5.3426116
16.568742
30.142085
42.264933
53.039589
62.729559
71.533479
79.575221
86.924069
93.615498
99.667888
105.09517
109.91487
114.15109
117.83578
121.00754
123.70857
125.98173
127.86769
129.40258
130.61662
131.53265
132.16559
132.52173
132.5981
132.38197
131.84939
130.96359
129.67266
127.90408
125.55708
122.49103
118.50677
113.31851
106.51159
97.479655
85.379967
69.267834
48.92003
27.157999
10.623393
2.6816163
0.40898078
0.52417885
0.082551432
0.082340424
0.082129341
0.08214192
0.08190976
0.081626232
0.081285039
0.080938428
0.080754323
0.080340228
0.079371335
0.078406955
0.078093646
0.077392433
0.075496245
0.074109286
0.074678721
0.0758479
0.076102976
0.076256664
0.077270282
0.078772093
0.079954705
0.08094141
0.082167616
0.083634015
0.085170781
0.086301844
0.087099365
0.088247672
0.08973282
0.090826774
0.091433453
0.092105383
0.09322234
0.095326178
0.098032073
0.10006703
0.10179109
0.10407926
0.10649489
0.10860346
0.11074787
0.11313905
0.1157282
0.11852274
0.12146099
0.12443183
0.12746012
0.13062562
0.13393937
0.13738964
0.14113351
0.14613577
0.1598398
0.24370534
0.84142068
4.2106152
14.447507
28.104812
40.452269
51.442361
61.330844
70.32009
78.536921
86.051652
92.899315
99.096995
104.65701
109.59537
113.93501
117.70731
120.95095
123.70891
126.02555
127.94368
129.50211
130.73415
131.66601
132.31601
132.69371
132.79903
132.62155
132.13888
131.31489
130.0973
128.4122
126.15644
123.18599
119.29738
114.19944
107.47082
98.496328
86.419538
70.270998
49.78266
27.737727
10.878901
2.7486697
0.41934067
0.53787916
0.082357702
0.082143412
0.082156815
0.081927891
0.081645347
0.08130586
0.080956306
0.080770519
0.080363469
0.079406189
0.078441066
0.078124433
0.077440382
0.075560248
0.074150724
0.074676859
0.0758227
0.076064964
0.076191309
0.077170049
0.078654451
0.079836529
0.080817746
0.082031898
0.083487513
0.085029537
0.086177118
0.08698711
0.088143625
0.089647467
0.090777719
0.091424898
0.092116147
0.093212634
0.095288737
0.098011411
0.10009013
0.10184163
0.10415036
0.10660228
0.10875196
0.110926
0.11333738
0.115943
0.11874907
0.12169159
0.12465584
0.12766532
0.13080423
0.13408777
0.13750004
0.14116347
0.14573925
0.15602393
0.21327997
0.63702879
3.2541828
12.388486
26.027229
38.599758
49.810245
59.903081
69.084106
77.483266
85.172044
92.185077
98.538103
104.2417
109.31013
113.76487
117.63626
120.96254
123.78684
126.15426
128.10902
129.6919
130.93874
131.87874
132.53353
132.91621
133.03018
132.86835
132.41116
131.62465
130.45778
128.83684
126.65767
123.77394
119.97846
114.97482
108.33461
99.432815
87.39797
71.23414
50.626124
28.313849
11.135684
2.816396
0.43001114
0.5531857
0.082375317
0.082157725
0.082171744
0.081946204
0.081664627
0.081326965
0.080974542
0.080786988
0.080386783
0.079441241
0.078475724
0.078155559
0.077488554
0.075625594
0.07419486
0.07467786
0.075800185
0.076030272
0.076129905
0.077073395
0.078539257
0.079720165
0.080695545
0.081897038
0.083340854
0.084887023
0.086050585
0.086872997
0.088037229
0.089558473
0.090724025
0.09141222
0.092124478
0.093201686
0.095248677
0.097985092
0.10010678
0.10188683
0.10421606
0.10670377
0.10889575
0.1111015
0.11353509
0.11615952
0.1189798
0.12192927
0.12488936
0.12788208
0.13099586
0.13425014
0.13762625
0.14122478
0.14551689
0.15354515
0.19225808
0.48572817
2.4694576
10.436057
23.919591
36.716443
48.151
58.45316
67.831708
76.419753
84.290035
91.476827
97.994509
103.85186
109.06134
113.64281
117.62538
121.0465
123.94898
126.3781
128.37872
129.99279
131.2578
132.20515
132.85914
133.236
133.34259
133.17545
132.71869
131.94176
130.79653
129.21137
127.08315
124.26519
120.54829
115.63202
109.0814
100.26147
88.2848
72.12757
51.425494
28.870308
11.386948
2.8830686
0.44078955
0.57019585
0.082393371
0.08217233
0.082186663
0.081964727
0.081684048
0.081348355
0.080993134
0.080803725
0.080410146
0.079476447
0.078510915
0.078186981
0.077536802
0.075692128
0.074241671
0.074681747
0.0757803
0.075998849
0.076072536
0.076980542
0.078426751
0.079605873
0.08057515
0.081763459
0.083194518
0.084743651
0.085922588
0.086757436
0.087929
0.089466314
0.090666032
0.091395723
0.092130816
0.093190435
0.09520741
0.097954334
0.10011795
0.10192791
0.10427771
0.10680055
0.10903595
0.11127562
0.11373358
0.11637929
0.11921665
0.12217593
0.12513457
0.12811298
0.13120363
0.13443009
0.13777186
0.14131587
0.14541975
0.15201707
0.17832601
0.37756395
1.8460892
8.6346758
21.797513
34.814381
46.474666
56.990047
66.571091
75.353872
83.412357
90.780431
97.471085
103.4913
108.85173
113.57063
117.67588
121.20407
124.19752
126.70136
128.76058
130.4176
131.71075
132.67262
133.32918
133.69877
133.79091
133.60526
133.12942
132.33667
131.18276
129.59974
127.48761
124.7019
121.03414
116.18257
109.70796
100.96695
89.056728
72.925241
52.157641
29.39188
11.626313
2.947088
0.45150444
0.58912115
0.082187254
0.082201514
0.081983495
0.081703586
0.081370029
0.08101208
0.08082072
0.080433533
0.079511762
0.078546621
0.078218654
0.07758498
0.075759687
0.074291124
0.074688542
0.075762987
0.075970631
0.076019265
0.076891692
0.078317162
0.079493896
0.080456887
0.081631573
0.083048992
0.084599847
0.085793481
0.086640849
0.087819477
0.0893715
0.090604123
0.091375731
0.092135575
0.093179804
0.09516642
0.097920476
0.10012472
0.10196619
0.10433687
0.10689405
0.10917391
0.11144982
0.11393449
0.11660416
0.11946166
0.12243378
0.12539396
0.12836101
0.13143111
0.1346318
0.13794131
0.14143804
0.14541469
0.15113767
0.1695247
0.30340578
1.3690694
7.0253933
19.68535
32.909729
44.794545
55.525683
65.313261
74.295806
82.548331
90.104218
96.974996
103.16581
108.68554
113.55093
117.78876
121.43488
124.53122
127.12274
129.25447
130.96898
132.30489
133.29526
133.96673
134.33862
134.42179
134.21773
133.71641
132.89404
131.70986
130.09985
127.96822
125.17462
121.51419
116.68748
110.25515
101.56956
89.716141
73.616967
52.807112
29.865772
11.847749
3.0068814
0.4619595
0.60997744
0.08220254
0.082216267
0.082002543
0.081723226
0.081391973
0.08103138
0.080837965
0.080456919
0.07954714
0.078582825
0.07825054
0.07763294
0.075828096
0.074343174
0.07469827
0.075748181
0.075945543
0.075970142
0.076807039
0.078210712
0.079384468
0.080341071
0.081501792
0.082904777
0.084456064
0.085663638
0.086523675
0.087709229
0.08927459
0.09053873
0.091352597
0.092139151
0.093170697
0.095127256
0.097884994
0.10012828
0.10200311
0.10439523
0.10698588
0.10931121
0.11162581
0.11413973
0.11683627
0.11971718
0.12270534
0.12567031
0.12862946
0.1316823
0.13485993
0.13813983
0.14159498
0.1454824
0.1506865
0.16426482
0.25509374
1.0203409
5.6423751
17.619248
31.024185
43.129118
54.077072
64.074118
73.260374
81.711574
89.460406
96.516799
102.88401
108.56915
113.58757
117.96509
121.73706
124.94527
127.63478
129.85085
131.63633
133.03014
134.06557
134.7695
135.1615
135.25277
135.0453
134.52986
133.68389
132.46838
130.82175
128.65128
125.82046
122.1288
117.28139
110.84274
102.16656
90.333428
74.246649
53.396176
30.300277
12.053764
3.0631446
0.47241266
0.63401846
0.082218242
0.082230963
0.082021859
0.081742969
0.081414165
0.081051042
0.080855453
0.080480282
0.079582537
0.078619514
0.078282608
0.077680541
0.075897182
0.074397778
0.074710965
0.075735831
0.07592351
0.075925213
0.076726775
0.07810763
0.07927783
0.080228023
0.081374535
0.082762406
0.084312795
0.085533476
0.086406395
0.087598877
0.089176208
0.090470367
0.09132674
0.092141958
0.093164028
0.095091558
0.097849518
0.10012999
0.10204029
0.1044547
0.10707792
0.10944965
0.11180552
0.11435151
0.11707808
0.11998588
0.12299341
0.12596669
0.12892193
0.13196151
0.13511957
0.13837326
0.14179226
0.14561482
0.15051735
0.16134023
0.22565698
0.78050489
4.5099042
15.646941
29.18323
41.500365
52.664759
62.873443
72.266866
80.920933
88.867292
96.114039
102.66239
108.51764
113.69376
118.21573
122.11857
125.44418
128.238
130.54588
132.41131
133.87383
134.96732
135.71912
136.14912
136.26874
136.08008
135.57399
134.72797
133.50325
131.83871
129.64251
126.77948
123.0512
118.16548
111.6899
102.98033
91.115469
74.98495
54.040511
30.75046
12.260195
3.1185671
0.48165324
0.65012564
0.082234462
0.082245708
0.082041366
0.081762833
0.08143657
0.081071086
0.080873187
0.080503613
0.079617918
0.078656687
0.078314843
0.077727656
0.075966779
0.074454896
0.07472668
0.075725901
0.075904472
0.075884543
0.076651112
0.078008177
0.079174246
0.080118088
0.081250258
0.082622462
0.084170606
0.085403477
0.086289561