/*--------------------------------*- C++ -*----------------------------------*\
| =========                 |                                                 |
| \\      /  F ield         | OpenFOAM: The Open Source CFD Toolbox           |
|  \\    /   O peration     | Version:  2506                                  |
|   \\  /    A nd           | Website:  www.openfoam.com                      |
|    \\/     M anipulation  |                                                 |
\*---------------------------------------------------------------------------*/
FoamFile
{
    version     2.0;
    format      ascii;
    arch        "LSB;label=32;scalar=64";
    class       volScalarField;
    location    "0.0025";
    object      k;
}
// * * * * * * * * * * * * * * * * * * * * * * * * * * * * * * * * * * * * * //

dimensions      [0 2 -2 0 0 0 0];

internalField   nonuniform List<scalar> 
13761
(
0.068572239
0.068668578
0.068539363
0.068388641
0.068328235
0.068223397
0.068203214
0.068199252
0.06801085
0.067596679
0.066921792
0.066308901
0.066100597
0.066157113
0.066047898
0.065892163
0.066174379
0.066458161
0.066477448
0.066644429
0.066928743
0.067104187
0.06736636
0.067672119
0.067984688
0.068343623
0.068735166
0.069181946
0.069683933
0.070235111
0.070811565
0.071459316
0.072130844
0.07260116
0.072754645
0.07299522
0.074003149
0.075610916
0.077242727
0.078604199
0.080300422
0.082419106
0.084638378
0.086788855
0.088836518
0.090565425
0.092447682
0.094912868
0.097615408
0.10003646
0.10246245
0.1055846
0.10961183
0.11404474
0.11837762
0.1224704
0.12653566
0.13083059
0.13530291
0.14055492
0.15868697
1.9971966
11.462492
23.921868
35.423282
45.62641
54.768021
62.979574
70.335173
76.886218
82.672815
87.715114
91.973008
95.522188
98.464333
100.88021
102.8583
104.42188
105.60618
106.45502
107.0127
107.32025
107.41369
107.3222
107.0602
106.64651
106.09437
105.41145
104.58538
103.58095
102.35051
100.82494
98.915029
96.502905
93.385375
89.168391
83.216762
74.637203
62.340732
45.669852
26.491348
10.772121
2.7811866
0.46856877
0.85693208
0.068576024
0.068673561
0.068547769
0.068396693
0.068334658
0.068230834
0.068208255
0.068205973
0.068021277
0.06761186
0.066943151
0.066331841
0.066124892
0.066165781
0.066054099
0.06589296
0.066167426
0.066443297
0.066467466
0.066634954
0.066918956
0.067096605
0.067358748
0.067662389
0.067975234
0.068337515
0.068732013
0.069179248
0.069679728
0.070233573
0.070814952
0.071468021
0.072150276
0.072641316
0.072819379
0.073077415
0.074091455
0.07569119
0.077330314
0.078707975
0.080417457
0.082561383
0.08480815
0.086992852
0.089075677
0.09084237
0.092821523
0.095383393
0.098115065
0.10054284
0.10309101
0.10634369
0.11046664
0.11492631
0.11927162
0.12341082
0.1275862
0.13203214
0.1366701
0.14324626
0.26010317
2.8192678
13.505936
26.255841
37.720861
47.94151
57.123758
65.375001
72.756233
79.307274
85.062494
90.056178
94.328299
97.94124
100.94014
103.37498
105.29916
106.76579
107.82694
108.52965
108.91583
109.02225
108.88728
108.53843
107.99917
107.27533
106.37108
105.27803
103.99145
102.50544
100.78662
98.773819
96.36657
93.402116
89.624754
84.643367
77.872047
68.447827
55.460968
38.802539
21.196288
8.1886627
2.0606421
0.32421791
0.47778215
0.068678563
0.068556328
0.068405005
0.068341234
0.068238371
0.068213388
0.06821274
0.068032702
0.06762901
0.066967125
0.06635661
0.066149096
0.066174373
0.066061577
0.065895259
0.06615835
0.066427834
0.066455801
0.066623669
0.06690759
0.067087254
0.067348138
0.067649044
0.06796132
0.068325016
0.068721354
0.069167542
0.069665291
0.070217689
0.0708034
0.071465845
0.072158355
0.072674706
0.072879971
0.073144421
0.07413791
0.075727259
0.077373716
0.078759902
0.080466131
0.082619087
0.084887774
0.087093593
0.089197739
0.09100627
0.093028698
0.095626255
0.098379766
0.10083095
0.10342311
0.10673276
0.11088723
0.11535188
0.11970482
0.12387001
0.12809883
0.1326115
0.13732283
0.14340822
0.24241878
2.5784763
13.382952
26.164331
37.644989
47.935738
57.160149
65.442606
72.847518
79.415977
85.184712
90.195766
94.496075
98.126942
101.1292
103.56583
105.49583
106.96448
108.02486
108.72153
109.09261
109.1717
108.992
108.58018
107.96223
107.15496
106.15986
104.96818
103.55566
101.89734
99.950376
97.645903
94.878508
91.491525
87.249416
81.794127
74.582691
64.896222
51.984179
35.93241
19.441821
7.48217
1.8845172
0.30574981
0.50403223
0.068683792
0.068564901
0.068413466
0.068348053
0.068245971
0.068218752
0.068219542
0.068044147
0.067645954
0.066990802
0.066381499
0.066173414
0.066182657
0.066069611
0.065898329
0.06614983
0.0664129
0.066443905
0.066613098
0.066897143
0.067078718
0.067338618
0.067636686
0.067948082
0.068313443
0.068712536
0.069158741
0.069654058
0.070206534
0.070794968
0.071461471
0.072164983
0.07270749
0.072941056
0.073215182
0.074187839
0.075764002
0.077417619
0.078813992
0.080513953
0.082673328
0.084964954
0.087195523
0.089324334
0.091178953
0.093248348
0.095880993
0.098655966
0.10113294
0.10377584
0.1071369
0.11131384
0.1157824
0.12014554
0.12434093
0.12862389
0.13320077
0.13795093
0.14397612
0.22316586
2.2282206
12.397266
25.15074
36.63862
46.989012
56.334692
64.753891
72.297993
79.007242
84.919432
90.074122
94.508063
98.245641
101.35947
103.91203
105.96698
107.58656
108.79341
109.62673
110.1227
110.31471
110.23233
109.90187
109.34174
108.56784
107.5902
106.412
105.0294
103.40491
101.49129
99.214175
96.456747
93.042335
88.708888
83.076129
75.578211
65.517318
52.228951
35.887802
19.288071
7.3861026
1.8553951
0.29503331
0.4530011
0.068688972
0.068573529
0.068421995
0.068355058
0.068253552
0.068224178
0.068226241
0.068055707
0.067663122
0.067014807
0.066406809
0.06619782
0.066190221
0.066078155
0.065900931
0.066141
0.066398129
0.066431576
0.066602528
0.06688678
0.067070431
0.067329138
0.067624354
0.067934058
0.068300758
0.068702583
0.06914927
0.069642169
0.070193831
0.070784666
0.071455647
0.072168998
0.072737755
0.073000933
0.073285113
0.074233589
0.075795007
0.077455324
0.078861744
0.080552263
0.082713993
0.085026955
0.087281944
0.08943603
0.091337976
0.093449032
0.096109011
0.098904426
0.10140824
0.10409403
0.10749283
0.11168103
0.11615219
0.12052681
0.12474974
0.1290768
0.13370487
0.13850767
0.14428422
0.20620708
1.8813806
11.435634
24.175863
35.656819
46.063181
55.475103
63.956182
71.557021
78.320549
84.286863
89.496364
93.995089
97.835722
101.06975
103.74444
105.90294
107.60325
108.88908
109.78864
110.33746
110.57082
110.51561
110.19601
109.62892
108.82763
107.79871
106.54098
105.04569
103.29648
101.24574
98.817536
95.897582
92.324047
87.853224
82.112353
74.586823
64.575665
51.397254
35.235781
18.886411
7.2176809
1.8116182
0.28808481
0.44263901
0.06869383
0.068582185
0.068430594
0.068362291
0.068261124
0.068229706
0.068232876
0.068067319
0.067680428
0.067039055
0.066432445
0.066222323
0.066197078
0.066087169
0.065903437
0.066132178
0.066383668
0.066419044
0.066592034
0.066876369
0.067062428
0.067320021
0.067612283
0.067919732
0.068287341
0.068692164
0.069139729
0.069630566
0.07018121
0.070773844
0.071447974
0.072170857
0.072765395
0.073059504
0.073355047
0.074277749
0.075822462
0.077488854
0.078905786
0.080584695
0.082744878
0.085077368
0.087357
0.089537875
0.091488647
0.093638618
0.09632116
0.099137142
0.10166845
0.10439091
0.1078179
0.11201051
0.11648384
0.12087145
0.12512142
0.12948494
0.13415223
0.13897795
0.14457537
0.19189018
1.5273
10.165998
22.859396
34.351678
44.835263
54.342061
62.917794
70.608861
77.460675
83.519762
88.832865
93.447082
97.411134
100.77563
103.58965
105.89447
107.71266
109.09921
110.10658
110.76563
111.1016
111.1386
110.90112
110.407
109.67028
108.69807
107.48794
106.02609
104.28468
102.21651
99.748033
96.769959
93.109679
88.514529
82.625039
74.918808
64.711413
51.349605
35.06822
18.720397
7.1336571
1.7880598
0.28221926
0.42169939
0.068697313
0.068590864
0.068439292
0.068369729
0.068268718
0.068235318
0.068239468
0.06807901
0.067697894
0.067063556
0.066458422
0.066246882
0.066203542
0.066096738
0.06590593
0.066123461
0.066369671
0.066406609
0.066581395
0.06686579
0.067054442
0.067311412
0.067600317
0.067905168
0.068273189
0.068681212
0.069129961
0.069619068
0.070168444
0.070762313
0.071438851
0.072171038
0.0727902
0.07311659
0.073424243
0.0743204
0.075846897
0.077518747
0.07894609
0.080612113
0.082767507
0.085116675
0.087420571
0.089629836
0.091629624
0.09381622
0.096517602
0.099354341
0.10191341
0.10466576
0.10811266
0.11230545
0.11678149
0.12118315
0.12545905
0.12985318
0.13455293
0.13941159
0.14486461
0.18094597
1.2266615
8.8888314
21.438191
32.928814
43.494786
53.099484
61.776205
69.567017
76.513854
82.661432
88.058665
92.757292
96.809643
100.26515
103.1703
105.56967
107.50445
109.01055
110.1183
110.85775
111.26063
111.35574
111.16693
110.7113
110.00055
109.04179
107.83285
106.35925
104.59355
102.49047
99.979575
96.953874
93.251333
88.627798
82.718927
74.9999
64.779294
51.401214
35.100303
18.7328
7.136113
1.7881796
0.28151371
0.41645786
0.068599532
0.068448109
0.068377318
0.068276355
0.068240978
0.068246
0.068090685
0.067715444
0.067088256
0.06648465
0.066271493
0.066210249
0.066106812
0.065908354
0.066114868
0.06635627
0.066394494
0.066570447
0.066854716
0.067046306
0.067303156
0.06758853
0.067890405
0.06825856
0.068669584
0.069119903
0.069607633
0.070155755
0.070750362
0.071428476
0.072167565
0.072811958
0.073171969
0.07349275
0.074362028
0.075868651
0.077545426
0.078983231
0.08063572
0.082783332
0.085145798
0.087473179
0.089712482
0.091760722
0.093981441
0.096700253
0.099559386
0.10214443
0.10491987
0.10838049
0.11257101
0.11705064
0.12146757
0.1257683
0.130186
0.1349102
0.13980146
0.14511859
0.17175635
0.95549948
7.5879836
19.896511
31.363244
41.987287
51.677416
60.450472
68.342516
75.395931
81.65743
87.175892
92.000924
96.181477
99.764205
102.79325
105.31027
107.35438
108.96276
110.17047
111.02421
111.53958
111.74342
111.65926
111.30356
110.68529
109.80463
108.65421
107.2195
105.47338
103.36974
100.83575
97.76169
93.981703
89.250502
83.21372
75.36315
65.013392
51.519155
35.130958
18.720598
7.1232291
1.7838273
0.27966913
0.4071088
0.068608066
0.068457027
0.06838501
0.068284099
0.068246719
0.068252505
0.068102306
0.067733068
0.067113167
0.066511113
0.066296097
0.066218131
0.06611731
0.065910594
0.066106523
0.066343479
0.066382881
0.066558996
0.06684277
0.067037773
0.067294998
0.06757694
0.067875569
0.068243538
0.068657289
0.069109529
0.069596272
0.070143141
0.070738029
0.071416993
0.072162417
0.072830652
0.073225536
0.07356057
0.074403249
0.075888124
0.077569099
0.07901783
0.080656786
0.082793461
0.08516562
0.087515683
0.089785222
0.091881652
0.094134737
0.096870056
0.099753178
0.10236304
0.10515537
0.10862459
0.11281103
0.11729481
0.12172742
0.12605241
0.13048944
0.13523285
0.14016461
0.1453893
0.16515126
0.7379937
6.3599086
18.302709
29.753055
40.447623
50.233676
59.109245
67.099311
74.242822
80.587655
86.187046
91.096238
95.369381
99.056653
102.2039
104.85255
107.03947
108.79708
110.15284
111.12461
111.75204
112.05216
112.04127
111.7337
111.14066
110.26845
109.11582
107.67203
105.91281
103.79361
101.24212
98.146894
94.343607
89.590232
83.528868
75.641697
65.244441
51.692491
35.239747
18.774092
7.1417699
1.7880464
0.27972883
0.40370315
0.068615926
0.068466082
0.068392807
0.068292007
0.068252615
0.068259048
0.068113897
0.067750834
0.067138298
0.06653785
0.066320578
0.066228443
0.06612806
0.065912738
0.066098575
0.066331365
0.06637185
0.066547008
0.066829769
0.067028447
0.067286755
0.067565372
0.067860983
0.068228293
0.068644528
0.069098688
0.06958481
0.070130547
0.070725352
0.071404682
0.072155596
0.072846385
0.073277215
0.073627636
0.074444492
0.075905447
0.07758976
0.079050246
0.080676141
0.082798725
0.08517711
0.087548705
0.089847862
0.091991803
0.094276108
0.097027675
0.09993634
0.10257046
0.10537474
0.10884782
0.11302829
0.11751702
0.12196633
0.12631565
0.13076816
0.13552424
0.14049257
0.14565032
0.16037894
0.56319233
5.2031523
16.643977
28.060838
38.798497
48.67
57.649158
65.748868
73.002764
79.456805
85.163748
90.179019
94.557265
98.349257
101.60138
104.35554
106.64909
108.51534
109.98396
111.08118
111.82913
112.25307
112.36211
112.17008
111.68512
110.90962
109.83813
108.45596
106.73606
104.63326
102.07678
98.959284
95.119422
90.316855
84.196601
76.242165
65.768672
52.12676
35.560624
18.959029
7.2149507
1.8063289
0.2817968
0.40200419
0.068621454
0.068475298
0.068400721
0.068300071
0.068258659
0.068265644
0.068125402
0.067768699
0.067163632
0.06656484
0.066344804
0.066242472
0.066138966
0.065915014
0.066091231
0.066319983
0.066361512
0.066534514
0.066815642
0.06701802
0.067278163
0.067553767
0.067846887
0.068213124
0.068631258
0.069087279
0.069573199
0.070118059
0.070712528
0.071391864
0.072146932
0.072859236
0.073326934
0.073693813
0.074486192
0.075920906
0.077607503
0.079080978
0.080694751
0.082800703
0.085182058
0.087572982
0.08990069
0.092091169
0.094406128
0.097173947
0.1001099
0.10276863
0.10558091
0.10905368
0.11322626
0.11772021
0.12218711
0.12656133
0.13102744
0.1357919
0.14079865
0.14592519
0.15730583
0.43423242
4.1754036
14.975078
26.361071
37.132369
47.091928
56.174302
64.378827
71.732228
78.279612
84.076049
89.180566
93.651399
97.542025
100.90024
103.76793
106.18121
108.17117
109.76458
110.98449
111.85049
112.38018
112.59396
112.49796
112.0996
111.40117
110.39729
109.07323
107.40177
105.33734
102.80827
99.705622
95.866231
91.048211
84.8953
76.890565
66.347702
52.61267
35.921032
19.1678
7.2977325
1.8270261
0.28429266
0.40122834
0.06848473
0.068408742
0.068308269
0.06826484
0.068272258
0.068136746
0.067786576
0.067189084
0.066592058
0.066368594
0.066261007
0.06614998
0.065917727
0.06608465
0.066309351
0.066351945
0.066521617
0.06680045
0.067006237
0.067268793
0.067542205
0.067833377
0.068198373
0.068617595
0.069075382
0.069561388
0.070105562
0.070699567
0.071378662
0.072137077
0.072869432
0.073374781
0.073759058
0.074528616
0.075934685
0.077622155
0.079110072
0.080713022
0.082797163
0.0851834
0.087588886
0.089943734
0.09217942
0.094524747
0.097308775
0.10027363
0.10295886
0.10577593
0.10924341
0.11340577
0.11790424
0.12238976
0.12678949
0.13126788
0.13603609
0.14107191
0.14619191
0.15531704
0.33960678
3.2704295
13.288788
24.626396
35.400304
45.440338
54.629612
62.949168
70.415704
77.069849
82.965806
88.16399
92.725289
96.706212
100.1574
103.12289
105.63995
107.73988
109.44879
110.78837
111.77669
112.42756
112.75715
112.77414
112.47982
111.87528
110.95357
109.69875
108.08266
106.05896
103.55574
100.46459
96.623069
91.789879
85.609039
77.562934
66.96207
53.14385
36.328637
19.411611
7.39655
1.8520262
0.2876078
0.40244792
0.068494354
0.068416851
0.068316583
0.068271205
0.068278912
0.068147916
0.067804518
0.067214652
0.066619497
0.066391894
0.066283894
0.06616117
0.065921308
0.066078829
0.066299455
0.06634311
0.066508543
0.066784298
0.066992995
0.067258253
0.067530699
0.067820619
0.068184246
0.068603725
0.069062859
0.069549291
0.070093066
0.070686717
0.071365401
0.07212634
0.07287714
0.073420198
0.073823221
0.074571903
0.075947061
0.077633709
0.079137675
0.080731463
0.082792002
0.085172298
0.087597777
0.089977757
0.09225695
0.09463268
0.097432965
0.10042814
0.103143
0.10596289
0.10941998
0.11356945
0.11807095
0.12257654
0.12700315
0.13149399
0.13626387
0.1413272
0.14646442
0.15417333
0.27477128
2.5125015
11.636246
22.910927
33.663511
43.776442
53.073686
61.507282
69.085211
75.843194
81.834297
87.120257
91.764737
95.827602
99.362774
102.41698
105.02917
107.23123
109.04894
110.50277
111.60913
112.38043
112.82424
112.95572
112.77111
112.26892
111.44007
110.26679
108.71969
106.75168
104.29034
101.22674
97.398142
92.562918
86.364562
78.284075
67.628195
53.724988
36.778142
19.682441
7.5068599
1.880007
0.29140517
0.40444219
0.068503901
0.06842506
0.068325014
0.068277749
0.068285686
0.068158952
0.067822568
0.067240395
0.066647189
0.066414731
0.066310293
0.066172918
0.065926217
0.066073834
0.06629023
0.066335015
0.06649547
0.066767471
0.066978403
0.067246295
0.067519137
0.067808765
0.068170809
0.068589751
0.069049723
0.069536977
0.070080609
0.070674071
0.071352174
0.072114883
0.072882368
0.0734626
0.073886186
0.074616212
0.075958359
0.077642183
0.079163727
0.080750076
0.082783729
0.085159603
0.087602284
0.090003295
0.092324089
0.094730356
0.097546532
0.1005736
0.10332269
0.10614434
0.10958575
0.11371916
0.11822105
0.1227479
0.12720294
0.13170687
0.13647599
0.14155468
0.14672379
0.15351843
0.23073723
1.8870028
10.021424
21.193121
31.892915
42.066514
51.473466
60.029186
67.728814
74.60122
80.696053
86.074625
90.802373
94.942505
98.552639
101.68318
104.3762
106.66573
108.57846
110.13477
111.35005
112.23526
112.79738
113.03837
112.96897
112.57463
111.84583
110.7634
109.29662
107.39733
104.99226
101.97188
98.172866
93.352936
87.154519
79.056308
68.359469
54.379241
37.296593
20.001264
7.6383924
1.9135751
0.2961489
0.40818895
0.068512845
0.068433372
0.068333567
0.06828442
0.06829255
0.06816986
0.067840682
0.067266269
0.06667518
0.066437098
0.06633898
0.066185817
0.065933143
0.066069703
0.066281763
0.066327633
0.06648272
0.066750313
0.066962603
0.067232854
0.067507533
0.067797739
0.06815812
0.068575674
0.069036077
0.069524383
0.070068144
0.07066172
0.071339177
0.072103029
0.072885436
0.073502029
0.073947799
0.074661711
0.075969074
0.077647791
0.079188083
0.080768996
0.082774639
0.085140217
0.087599868
0.090021637
0.09238182
0.094818871
0.097650536
0.10071055
0.10349963
0.10632321
0.1097436
0.11385727
0.11835629
0.12290515
0.12739094
0.13190958
0.136678
0.14177066
0.14698155
0.15321473
0.20254711
1.3940295
8.4884613
19.503898
30.131875
40.353426
49.863665
58.543057
66.367443
73.358046
79.56054
85.034904
89.847275
94.062936
97.742862
100.94133
103.70424
106.06876
108.06375
109.71062
111.02481
112.01641
112.69101
113.04937
113.0888
112.80591
112.18422
111.20228
109.82711
108.00869
105.67219
102.70671
98.947813
94.152095
87.96059
79.849496
69.11437
55.057551
37.836634
20.335168
7.7766898
1.9489358
0.30121634
0.41264384
0.068519223
0.068441802
0.068342205
0.068291169
0.068299465
0.068180576
0.067858814
0.067292212
0.066703417
0.066459055
0.06636854
0.066200485
0.065942557
0.066066494
0.066274106
0.066320989
0.066470488
0.066733099
0.066945953
0.06721796
0.067495875
0.067787265
0.068146113
0.068561476
0.06902194
0.069511525
0.070055702
0.070649774
0.071326481
0.072090933
0.072886844
0.073538268
0.074007811
0.074708451
0.075979753
0.077651261
0.079210552
0.080788259
0.082764998
0.085118139
0.087583572
0.090034132
0.092431012
0.09489884
0.097745383
0.100839
0.10367449
0.10650157
0.10989614
0.11398582
0.11847809
0.12304889
0.12756805
0.13210385
0.13687077
0.1419651
0.14722172
0.15310112
0.18466806
1.0134084
7.0483424
17.824838
28.367395
38.620177
48.226133
57.032217
64.989086
72.107867
78.428491
84.008098
88.912125
93.206905
96.955868
100.21679
103.03977
105.46606
107.52796
109.24924
110.64658
111.73017
112.50479
112.97025
113.12202
112.9522
112.44221
111.56858
110.29572
108.57136
106.31873
103.42524
99.72482
94.972388
88.806786
80.700543
69.941627
55.815911
38.451598
20.721252
7.9381291
1.9903896
0.30727915
0.41873904
0.068450367
0.068350913
0.068297935
0.068306459
0.068191145
0.067876936
0.067318234
0.06673185
0.066480682
0.066397972
0.066217376
0.065954405
0.066064229
0.066267227
0.066315102
0.066458791
0.066716075
0.066928818
0.067201708
0.067483994
0.067777192
0.068134513
0.06854717
0.069007328
0.069498453
0.070043259
0.070638185
0.071314097
0.07207876
0.072886288
0.073571235
0.074066205
0.074756701
0.075991251
0.077653199
0.079231038
0.080808101
0.082756235
0.085093941
0.087569846
0.090042943
0.092472798
0.09497122
0.09783164
0.10095927
0.10384759
0.10668147
0.11004643
0.11410809
0.11858934
0.12318075
0.12773604
0.13229262
0.13706006
0.14215641
0.14745622
0.15313538
0.17394848
0.73295916
5.7370052
16.173531
26.629706
36.896314
46.588199
55.517184
63.60956
70.862017
77.307861
83.000337
88.003157
92.382556
96.203235
99.52543
102.40256
104.88008
106.99481
108.77455
110.23865
111.39876
112.25991
112.82118
113.07579
113.01234
112.61481
111.85201
110.68629
109.0627
106.90199
104.08918
100.45607
95.755327
89.623358
81.528849
70.752437
56.563965
39.062482
21.107701
8.1006287
2.032218
0.31348291
0.42551286
0.06845899
0.068359739
0.068304728
0.068313517
0.068201748
0.067895069
0.067344326
0.066760487
0.066502127
0.066426707
0.066236741
0.065968554
0.066062859
0.066261197
0.066309905
0.066447796
0.066699352
0.066911492
0.067184541
0.067471645
0.067767199
0.068122987
0.068532687
0.068992294
0.069485119
0.070030771
0.070626848
0.071302012
0.072066641
0.072881557
0.073600845
0.074122922
0.074806431
0.076004275
0.077652753
0.079249416
0.080828681
0.082749138
0.085069129
0.087550059
0.090048926
0.092508072
0.095036579
0.097909678
0.10107111
0.10401796
0.10686399
0.11019675
0.11422649
0.11869268
0.12330213
0.12789549
0.13247744
0.13724624
0.14233447
0.14767104
0.15323186
0.16759598
0.53203304
4.5646354
14.536472
24.912444
35.1729
44.940517
53.989498
62.221597
69.615068
76.195276
82.010474
87.121705
91.594231
95.493095
98.88003
101.81079
104.33422
106.49124
108.31404
109.82641
111.04371
111.97331
112.61499
112.96123
113.00054
112.70807
112.05648
111.00332
109.49031
107.43501
104.71944
101.17245
96.543632
90.465705
82.402139
71.624025
57.381874
39.740147
21.541594
8.2843987
2.0796676
0.3206133
0.4338509
0.068467094
0.068368756
0.068311646
0.068320594
0.068212451
0.06791321
0.067370473
0.066789349
0.066523581
0.066454392
0.066258497
0.065984805
0.066062364
0.066256009
0.066305415
0.066437534
0.06668313
0.066894244
0.067166781
0.067458586
0.067756818
0.068111353
0.068517865
0.068976834
0.069471468
0.070018211
0.070615705
0.071290225
0.072054687
0.072877035
0.073627172
0.074178136
0.074857764
0.076019819
0.07764867
0.079266074
0.080850418
0.082745172
0.085045527
0.087529885
0.090051114
0.092538146
0.095095877
0.097980345
0.10117372
0.10418459
0.10704997
0.11035019
0.11434466
0.11879172
0.12341563
0.12804778
0.13266027
0.13743519
0.14251903
0.14788105
0.15340013
0.16405536
0.39495479
3.5523881
12.931208
23.238975
33.470708
43.301805
52.466128
60.837187
68.376206
75.097694
81.044083
86.272884
90.847493
94.832367
98.28973
101.27718
103.84607
106.04031
107.89601
109.44132
110.69588
111.67083
112.36915
112.7851
112.90608
112.70887
112.16037
111.21565
109.8126
107.86524
105.25203
101.79821
97.249713
91.235125
83.212478
72.443438
58.159829
40.392229
21.963791
8.4646781
2.1263827
0.32775865
0.44295776
0.068472945
0.0683779
0.068318726
0.068327655
0.068223207
0.067931245
0.06739664
0.066818386
0.066545113
0.06648093
0.066282051
0.06600289
0.066062452
0.066251728
0.066301586
0.066427944
0.066667519
0.066877215
0.067148594
0.067444713
0.067745685
0.068099215
0.068502566
0.068960918
0.069457511
0.070005552
0.07060464
0.071278684
0.072042935
0.072870416
0.073650341
0.074232161
0.074910697
0.076038582
0.077646496
0.079281008
0.080873344
0.082745325
0.085024109
0.087509217
0.090045764
0.092564161
0.095150087
0.098044744
0.10126676
0.1043464
0.10723978
0.11050893
0.11446552
0.11888998
0.12352363
0.12819343
0.13284182
0.13762619
0.14269957
0.1480782
0.1536008
0.16212198
0.30453724
2.7012872
11.359971
21.608955
31.788949
41.670662
50.94501
59.45477
67.143563
74.013324
80.10002
85.457093
90.145547
94.228579
97.768033
100.82146
103.44122
105.67368
107.55807
109.12638
110.40266
111.40258
112.13322
112.59247
112.76985
112.64476
112.18448
111.34221
110.04772
108.21286
105.71249
102.36745
97.918756
91.989245
84.029613
73.289736
58.979481
41.090619
22.422056
8.6619505
2.1776783
0.33569917
0.45362229
0.068387036
0.068325936
0.068334623
0.068234002
0.06794916
0.067422789
0.066847504
0.066566757
0.066506302
0.066306732
0.066022375
0.066064577
0.066248441
0.066298349
0.066419032
0.066652448
0.066860583
0.06713021
0.0674298
0.067733521
0.068086276
0.068486871
0.06894456
0.069443186
0.069992721
0.070593526
0.071267468
0.072031568
0.072863305
0.073670532
0.074285362
0.074965271
0.076061196
0.077645182
0.079294537
0.080897838
0.082749306
0.085006769
0.087490513
0.090038892
0.092587852
0.095200998
0.098105139
0.10135202
0.10450332
0.10743393
0.11067638
0.11459266
0.11899173
0.12363031
0.1283348
0.13302351
0.13782539
0.14289683
0.14828083
0.15382554
0.16117385
0.24781257
2.0129546
9.8484197
20.039396
30.14808
40.066338
49.443098
58.089421
65.92891
72.950929
79.183693
84.675958
89.485921
93.675177
97.30473
100.43211
103.11006
105.38591
107.30094
108.8899
110.17931
111.18949
111.93241
112.41019
112.61562
112.53135
112.12485
111.35057
110.14358
108.40797
106.01357
102.77597
98.430492
92.59387
84.709044
74.014387
59.698692
41.716728
22.840453
8.8442883
2.2253498
0.34328851
0.46504761
0.068395625
0.068333265
0.068341491
0.06824483
0.067967047
0.067448934
0.066876667
0.066588595
0.066530587
0.066331911
0.066042947
0.0660682
0.066246054
0.066295718
0.066410757
0.066638051
0.06684442
0.06711183
0.067413776
0.067720265
0.068072486
0.068470639
0.068927726
0.069428438
0.06997973
0.070582404
0.071256698
0.072020712
0.072855737
0.07368804
0.074337862
0.075021469
0.076088142
0.077644509
0.079307294
0.08092396
0.082760185
0.084994694
0.087475223
0.090040942
0.092610928
0.095250415
0.098163818
0.10143155
0.10465662
0.10763263
0.11085568
0.1147296
0.1191014
0.12373977
0.12847451
0.133206
0.13803054
0.14309868
0.14848513
0.15406804
0.16076209
0.21337383
1.4740252
8.4127062
18.529162
28.553663
38.495114
47.966133
56.746045
64.73708
71.915499
78.300934
83.937075
88.879072
93.186811
96.920438
100.13712
102.88952
105.2243
107.18101
108.79669
110.09564
111.10586
111.84462
112.31761
112.52253
112.44796
112.06422
111.32917
110.18264
108.53117
106.23919
103.11347
98.882193
93.154776
85.364567
74.735428
60.431686
42.366632
23.281021
9.0379545
2.2761775
0.3514855
0.4779586
0.068401684
0.068340735
0.068348382
0.068255707
0.067984902
0.067475096
0.06690591
0.066610738
0.066553959
0.066357159
0.066064571
0.066072227
0.066244504
0.066293591
0.0664031
0.066624403
0.066828738
0.067093626
0.067396869
0.067705868
0.068057775
0.068453896
0.068910592
0.069413358
0.069966581
0.070571288
0.071246427
0.072010604
0.072848516
0.073703279
0.074388972
0.075079222
0.076119933
0.077646093
0.079319981
0.080951898
0.082777234
0.084989801
0.087464756
0.090041617
0.092635648
0.0953009
0.098224062
0.10150848
0.10480787
0.10783721
0.1110508
0.11488064
0.1192248
0.12385846
0.12861793
0.13339294
0.13824882
0.14332646
0.14870958
0.15432348
0.16068102
0.1934671
1.0698204
7.0835206
17.088769
27.0265
36.978759
46.534259
55.44256
63.58326
70.918526
77.458994
83.242847
88.321919
92.754338
96.599515
99.914453
102.75252
105.16427
107.18136
108.82384
110.13346
111.13737
111.85561
112.3024
112.48178
112.38417
111.98519
111.24554
110.10417
108.47116
106.2171
103.15618
99.013199
93.3872
85.699549
75.158449
60.905008
42.816125
23.600787
9.1825653
2.3146268
0.3581999
0.49142642
0.068348302
0.06835539
0.06826664
0.068002646
0.067501226
0.066935209
0.066633253
0.066576567
0.066382423
0.066087216
0.066077096
0.066243716
0.066291902
0.066396049
0.066611447
0.06681363
0.067075602
0.06737931
0.067690553
0.068042328
0.068436905
0.068893175
0.069397885
0.069953231
0.070560291
0.071236909
0.07200156
0.072842092
0.07371665
0.07443813
0.075138241
0.076156795
0.077652324
0.079333235
0.080981802
0.082800921
0.084992043
0.087460386
0.090044618
0.092664088
0.095354692
0.09828865
0.10158625
0.10495601
0.10804881
0.11126529
0.1150502
0.11936741
0.12399308
0.12877159
0.13358849
0.13847945
0.14356749
0.14895192
0.15459788
0.16069426
0.18220561
0.77740084
5.8800435
15.715872
25.576144
35.52909
45.159145
54.190568
62.479073
69.971893
76.670126
82.606075
87.827788
92.391521
96.356696
99.781426
102.72018
105.21223
107.28999
108.99018
110.34701
111.3854
112.12424
112.57553
112.7444
112.62616
112.20295
111.44235
110.29013
108.66171
106.4303
103.40865
99.322656
93.77136
86.168681
75.706581
61.497387
43.370936
23.993978
9.3603856
2.3619261
0.36633655
0.50707037
0.068355955
0.068362526
0.068277565
0.068020262
0.067527293
0.066964523
0.066656097
0.066598594
0.066407664
0.066110893
0.066082438
0.066243517
0.06629065
0.066389522
0.066599221
0.066799095
0.06705785
0.067361379
0.067674763
0.068026312
0.068419746
0.068875579
0.069382218
0.069939873
0.070549651
0.071228294
0.071993739
0.072836852
0.07372863
0.074485559
0.07519849
0.076199064
0.077662966
0.079347805
0.081014043
0.082831399
0.085001939
0.087462667
0.090053795
0.092698748
0.095414784
0.098361052
0.10166941
0.10510238
0.10826975
0.11150276
0.11524422
0.11953649
0.12415245
0.12894527
0.13380235
0.1387356
0.14384885
0.14923328
0.1548973
0.16081856
0.17612111
0.57566221
4.8272251
14.42094
24.22437
34.17037
43.863762
53.010449
61.441656
69.088763
75.943272
82.031568
87.397202
92.093098
96.177913
99.71445
102.7547
105.3289
107.48513
109.26146
110.67994
111.76621
112.53964
113.0121
113.18863
113.06542
112.62688
111.8439
110.66666
109.01563
106.76867
103.74279
99.665871
94.136424
86.571475
76.159447
61.99058
43.845586
24.340355
9.5205921
2.405099
0.37419341
0.52440228
0.068363545
0.068369838
0.068288464
0.068037767
0.067553298
0.066993846
0.066679278
0.066620136
0.066432817
0.066135487
0.06608758
0.066243775
0.066289742
0.066383483
0.066587752
0.066785146
0.067040541
0.067343287
0.067658731
0.068010055
0.068402666
0.068858071
0.069366408
0.069926445
0.070539382
0.071220603
0.071987383
0.07283327
0.073739706
0.074531426
0.075259868
0.076246646
0.07767929
0.079364545
0.081048854
0.082868447
0.085022931
0.087470858
0.090075269
0.092741973
0.095483666
0.098444207
0.10176216
0.10525052
0.10850192
0.11176538
0.1154675
0.11973736
0.12434453
0.12914761
0.13404253
0.13901999
0.14416045
0.14955736
0.15524305
0.16113369
0.17290117
0.44225511
3.9365989
13.210658
22.988712
32.925848
42.673776
51.928255
60.498334
68.296123
75.304761
81.545615
87.058873
91.893558
96.102293
99.740244
102.85717
105.50916
107.74092
109.59041
111.07704
112.22121
113.04124
113.54678
113.73998
113.61395
113.15067
112.31917
111.0699
109.32706
106.97687
103.84774
99.682816
94.097088
86.510165
76.107313
61.972806
43.872832
24.388781
9.5513717
2.414617
0.37724583
0.53775965
0.068370763
0.068377392
0.068299447
0.068055222
0.067579253
0.067023207
0.066702857
0.066641234
0.066457908