/*--------------------------------*- C++ -*----------------------------------*\
| =========                 |                                                 |
| \\      /  F ield         | OpenFOAM: The Open Source CFD Toolbox           |
|  \\    /   O peration     | Version:  2506                                  |
|   \\  /    A nd           | Website:  www.openfoam.com                      |
|    \\/     M anipulation  |                                                 |
\*---------------------------------------------------------------------------*/
FoamFile
{
    version     2.0;
    format      ascii;
    arch        "LSB;label=32;scalar=64";
    class       volScalarField;
    location    "0.0025";
    object      p;
}
// * * * * * * * * * * * * * * * * * * * * * * * * * * * * * * * * * * * * * //

dimensions      [1 -1 -2 0 0 0 0];

internalField   nonuniform List<scalar> 
13761
(
48126.532
48062.522
48022.097
47995.359
47974.618
47955.17
47934.766
47919.444
47898.911
47872.875
47846.524
47822.406
47802.575
47780.366
47752.198
47718.882
47683.793
47649.674
47617.76
47588.239
47559.822
47531.913
47503.846
47475.474
47447.087
47418.871
47391.135
47364.031
47337.533
47311.655
47286.679
47262.8
47240.141
47218.731
47198.334
47178.958
47160.665
47143.421
47127.12
47111.671
47096.975
47082.967
47069.597
47056.839
47044.649
47032.981
47021.833
47011.166
47000.855
46990.806
46980.996
46971.403
46962.005
46952.782
46943.718
46934.796
46926.005
46917.361
46908.896
46900.625
46892.505
46884.51
46876.813
46870.217
46865.359
46862.194
46860.416
46859.774
46859.977
46860.651
46861.579
46862.677
46863.88
46865.133
46866.394
46867.629
46868.82
46869.952
46871.018
46872.011
46872.93
46873.777
46874.553
46875.263
46875.911
46876.5
46877.036
46877.522
46877.966
46878.384
46878.777
46879.037
46878.994
46878.549
46877.935
46877.409
46876.995
46876.671
46876.425
46876.252
46876.145
46876.093
46876.084
46876.102
46876.139
48130.304
48067.704
48027.121
48000.211
47979.695
47960.758
47940.789
47925.849
47905.535
47880.076
47854.373
47830.651
47810.852
47788.881
47760.652
47727.794
47693.001
47659.229
47627.836
47598.493
47570.525
47543.106
47515.241
47486.969
47458.763
47430.718
47402.949
47375.582
47348.734
47322.562
47297.362
47273.313
47250.432
47228.745
47208.055
47188.38
47169.842
47152.39
47135.911
47120.358
47105.679
47091.789
47078.609
47066.104
47054.213
47042.847
47031.982
47021.619
47011.74
47002.306
46993.287
46984.647
46976.354
46968.387
46960.733
46953.381
46946.319
46939.524
46932.978
46926.693
46920.702
46915.095
46909.869
46904.947
46900.387
46896.331
46892.79
46889.731
46887.113
46884.907
46883.077
46881.593
46880.431
46879.541
46878.844
46878.276
46877.815
46877.45
46877.168
46876.958
46876.809
46876.711
46876.655
46876.633
46876.639
46876.667
46876.712
46876.769
46876.835
46876.907
46876.982
46877.058
46877.132
46877.206
46877.278
46877.348
46877.414
46877.478
46877.536
46877.585
46877.624
46877.653
46877.675
46877.694
46877.71
48072.851
48032.116
48005.16
47984.818
47966.313
47946.893
47932.28
47912.269
47887.245
47862.325
47838.863
47819.287
47797.194
47769.309
47736.737
47702.242
47669.079
47637.969
47609.106
47581.604
47554.306
47526.668
47498.77
47470.765
47442.602
47414.568
47387.017
47360.073
47333.783
47308.349
47283.958
47260.653
47238.575
47217.587
47197.677
47178.995
47161.469
47144.961
47129.406
47114.771
47100.99
47087.993
47075.764
47064.268
47053.422
47043.117
47033.3
47023.972
47015.167
47006.916
46999.213
46992.028
46985.333
46979.108
46973.337
46968.001
46963.083
46958.579
46954.496
46950.831
46947.607
46944.832
46942.58
46940.786
46939.317
46938.104
46937.087
46936.202
46935.401
46934.653
46933.936
46933.237
46932.567
46931.979
46931.502
46931.124
46930.829
46930.603
46930.437
46930.319
46930.242
46930.199
46930.183
46930.189
46930.212
46930.248
46930.293
46930.346
46930.403
46930.463
46930.523
46930.583
46930.641
46930.694
46930.743
46930.786
46930.824
46930.855
46930.879
46930.897
46930.911
46930.922
46930.931
46930.94
48078.012
48037.091
48010.154
47990.049
47971.879
47953.01
47938.751
47919.048
47894.508
47870.28
47847.146
47827.601
47805.609
47778.006
47745.557
47711.747
47679.032
47648.362
47620.041
47592.641
47565.64
47538.41
47510.675
47482.585
47454.354
47426.345
47398.775
47371.643
47345.009
47319.178
47294.42
47270.806
47248.481
47227.329
47207.25
47188.394
47170.736
47154.157
47138.575
47123.952
47110.254
47097.428
47085.468
47074.374
47064.066
47054.449
47045.431
47036.949
47029.001
47021.622
47014.835
47008.633
47002.998
46997.909
46993.344
46989.271
46985.653
46982.455
46979.64
46977.195
46975.144
46973.47
46972.086
46970.891
46969.866
46969.024
46968.376
46967.904
46967.584
46967.393
46967.306
46967.296
46967.337
46967.415
46967.519
46967.641
46967.777
46967.92
46968.068
46968.217
46968.365
46968.511
46968.653
46968.791
46968.923
46969.048
46969.166
46969.278
46969.381
46969.477
46969.565
46969.646
46969.72
46969.789
46969.851
46969.905
46969.951
46969.988
46970.016
46970.035
46970.049
46970.059
46970.067
46970.074
48083.184
48042.095
48015.184
47995.308
47977.519
47959.146
47945.243
47925.838
47901.849
47878.242
47855.457
47835.902
47814.187
47786.484
47754.677
47721.339
47689.102
47659.12
47630.994
47603.926
47577.274
47550.158
47522.473
47494.529
47466.418
47438.325
47410.46
47382.997
47356.114
47330.081
47305.106
47281.238
47258.602
47237.167
47216.811
47197.674
47179.824
47163.19
47147.658
47133.137
47119.582
47106.954
47095.259
47084.511
47074.653
47065.599
47057.258
47049.553
47042.451
47035.951
47030.052
47024.737
47019.991
47015.791
47012.103
47008.893
47006.128
47003.776
47001.819
47000.209
46998.846
46997.639
46996.572
46995.696
46995.01
46994.476
46994.052
46993.71
46993.436
46993.218
46993.05
46992.93
46992.858
46992.824
46992.819
46992.837
46992.874
46992.924
46992.984
46993.051
46993.123
46993.198
46993.275
46993.353
46993.43
46993.506
46993.578
46993.647
46993.713
46993.774
46993.831
46993.883
46993.93
46993.972
46994.009
46994.04
46994.067
46994.088
46994.104
46994.116
46994.124
46994.13
46994.135
46994.14
48088.307
48047.077
48020.302
48000.617
47983.17
47965.372
47951.736
47932.677
47909.167
47886.261
47863.718
47844.366
47822.53
47795.246
47763.805
47730.935
47699.557
47669.964
47642.241
47615.555
47588.981
47562.007
47534.574
47506.72
47478.446
47450.116
47422.096
47394.545
47367.537
47341.229
47315.887
47291.606
47268.552
47246.814
47226.271
47206.972
47188.997
47172.332
47156.862
47142.46
47129.027
47116.525
47104.991
47094.455
47084.907
47076.223
47068.337
47061.165
47054.661
47048.807
47043.574
47038.932
47034.849
47031.286
47028.206
47025.573
47023.34
47021.453
47019.865
47018.535
47017.469
47016.662
47016.077
47015.618
47015.205
47014.847
47014.556
47014.324
47014.141
47014.003
47013.904
47013.843
47013.815
47013.816
47013.839
47013.879
47013.931
47013.991
47014.057
47014.127
47014.199
47014.27
47014.34
47014.408
47014.473
47014.537
47014.597
47014.654
47014.709
47014.759
47014.806
47014.849
47014.888
47014.923
47014.954
47014.981
47015.003
47015.021
47015.034
47015.044
47015.05
47015.055
47015.058
47015.062
48093.429
48051.997
48025.489
48006.045
47988.807
47971.636
47958.311
47939.546
47916.514
47894.296
47872.004
47852.715
47831.034
47804.083
47772.843
47740.902
47710.071
47680.973
47653.807
47627.188
47600.784
47574.05
47546.655
47518.684
47490.359
47462.055
47433.984
47406.212
47378.853
47352.15
47326.495
47301.963
47278.656
47256.707
47236.017
47216.539
47198.326
47181.444
47165.863
47151.476
47138.127
47125.742
47114.334
47103.956
47094.596
47086.178
47078.612
47071.808
47065.705
47060.27
47055.466
47051.255
47047.59
47044.424
47041.71
47039.401
47037.443
47035.788
47034.384
47033.188
47032.14
47031.186
47030.339
47029.629
47029.082
47028.687
47028.397
47028.185
47028.033
47027.926
47027.85
47027.794
47027.752
47027.72
47027.699
47027.69
47027.693
47027.705
47027.725
47027.751
47027.782
47027.813
47027.842
47027.87
47027.899
47027.927
47027.956
47027.984
47028.011
47028.036
47028.06
47028.082
47028.103
47028.122
47028.139
47028.154
47028.167
47028.177
47028.185
47028.191
47028.194
47028.197
47028.2
47028.202
48056.934
48030.722
48011.563
47994.508
47977.887
47964.916
47946.444
47923.919
47902.301
47880.333
47861.079
47839.69
47812.68
47782.269
47750.862
47720.696
47692.427
47665.439
47639.046
47612.86
47586.156
47558.747
47530.853
47502.582
47474.138
47445.767
47417.693
47390.116
47363.227
47337.383
47312.611
47288.95
47266.62
47245.628
47225.912
47207.473
47190.388
47174.681
47160.274
47147
47134.74
47123.457
47113.207
47103.974
47095.705
47088.279
47081.641
47075.72
47070.473
47065.858
47061.826
47058.322
47055.294
47052.69
47050.454
47048.527
47046.859
47045.413
47044.156
47043.084
47042.203
47041.444
47040.791
47040.206
47039.701
47039.286
47038.942
47038.656
47038.422
47038.23
47038.075
47037.951
47037.853
47037.774
47037.708
47037.653
47037.606
47037.568
47037.535
47037.509
47037.491
47037.482
47037.474
47037.467
47037.463
47037.464
47037.468
47037.477
47037.486
47037.497
47037.508
47037.518
47037.528
47037.538
47037.546
47037.554
47037.56
47037.564
47037.567
47037.57
47037.571
47037.573
47037.575
48061.884
48036.036
48017.157
48000.265
47984.222
47971.509
47953.37
47931.328
47910.334
47888.618
47869.595
47848.149
47821.667
47791.634
47760.9
47731.733
47703.842
47677.254
47651.204
47625.025
47598.331
47571.023
47543.125
47514.684
47486.044
47457.56
47429.387
47401.648
47374.48
47348.263
47323.109
47299.077
47276.414
47255.178
47235.303
47216.725
47199.467
47183.58
47169.021
47155.67
47143.383
47132.091
47121.84
47112.629
47104.376
47096.995
47090.402
47084.517
47079.313
47074.732
47070.719
47067.216
47064.162
47061.499
47059.18
47057.161
47055.39
47053.826
47052.448
47051.229
47050.14
47049.167
47048.315
47047.578
47046.943
47046.4
47045.935
47045.536
47045.192
47044.896
47044.641
47044.421
47044.232
47044.07
47043.931
47043.812
47043.71
47043.624
47043.551
47043.49
47043.438
47043.396
47043.366
47043.346
47043.33
47043.316
47043.305
47043.295
47043.285
47043.275
47043.268
47043.263
47043.26
47043.258
47043.257
47043.256
47043.256
47043.257
47043.257
47043.258
47043.258
47043.259
47043.26
48066.802
48041.433
48022.873
48006.007
47990.612
47978.203
47960.317
47938.72
47918.396
47896.933
47878.037
47856.844
47830.67
47801.022
47771.334
47742.712
47715.451
47689.412
47663.36
47637.213
47610.63
47583.288
47555.266
47526.766
47498.124
47469.54
47441.107
47413.035
47385.537
47359.051
47333.683
47309.453
47286.529
47264.994
47244.838
47225.983
47208.431
47192.254
47177.439
47163.917
47151.528
47140.18
47129.869
47120.603
47112.307
47104.901
47098.258
47092.328
47087.061
47082.406
47078.3
47074.676
47071.478
47068.65
47066.142
47063.907
47061.912
47060.135
47058.559
47057.166
47055.94
47054.848
47053.866
47052.987
47052.209
47051.533
47050.944
47050.429
47049.979
47049.585
47049.241
47048.941
47048.678
47048.448
47048.247
47048.072
47047.919
47047.786
47047.67
47047.569
47047.482
47047.407
47047.343
47047.288
47047.242
47047.203
47047.171
47047.144
47047.124
47047.111
47047.101
47047.093
47047.086
47047.079
47047.071
47047.066
47047.062
47047.059
47047.057
47047.057
47047.056
47047.057
47047.057
48071.771
48046.897
48028.714
48011.804
47996.97
47984.943
47967.298
47946.152
47926.431
47905.295
47886.542
47865.61
47839.555
47810.785
47781.634
47753.863
47727.451
47701.549
47675.681
47649.695
47623.065
47595.625
47567.6
47539.089
47510.276
47481.409
47452.729
47424.491
47396.826
47370.097
47344.442
47319.875
47296.565
47274.64
47254.153
47235.024
47217.253
47200.879
47185.858
47172.129
47159.579
47148.075
47137.586
47128.129
47119.661
47112.063
47105.245
47099.135
47093.673
47088.804
47084.469
47080.602
47077.151
47074.065
47071.297
47068.811
47066.574
47064.55
47062.713
47061.046
47059.529
47058.16
47056.936
47055.847
47054.877
47054.025
47053.275
47052.613
47052.029
47051.512
47051.056
47050.653
47050.297
47049.982
47049.704
47049.458
47049.24
47049.049
47048.88
47048.732
47048.602
47048.487
47048.388
47048.301
47048.226
47048.161
47048.105
47048.058
47048.017
47047.984
47047.955
47047.932
47047.913
47047.9
47047.893
47047.887
47047.883
47047.88
47047.878
47047.877
47047.877
47047.877
47047.877
48052.424
48034.628
48017.7
48003.372
47991.649
47974.298
47953.629
47934.475
47913.658
47895.155
47874.319
47848.823
47820.438
47792.14
47765.344
47739.281
47713.84
47688.302
47662.223
47635.481
47608.05
47579.967
47551.267
47522.265
47493.299
47464.53
47436.125
47408.187
47381.097
47355.089
47330.193
47306.619
47284.446
47263.688
47244.253
47226.194
47209.534
47194.208
47180.158
47167.348
47155.536
47144.695
47134.909
47126.149
47118.296
47111.235
47104.864
47099.138
47093.983
47089.351
47085.189
47081.436
47078.046
47074.975
47072.186
47069.65
47067.349
47065.268
47063.387
47061.687
47060.142
47058.736
47057.467
47056.328
47055.319
47054.424
47053.63
47052.923
47052.296
47051.739
47051.244
47050.804
47050.413
47050.066
47049.758
47049.484
47049.241
47049.026
47048.836
47048.668
47048.52
47048.39
47048.275
47048.176
47048.089
47048.013
47047.948
47047.893
47047.845
47047.805
47047.771
47047.743
47047.72
47047.702
47047.688
47047.678
47047.671
47047.666
47047.664
47047.662
47047.662
47047.662
48058.005
48040.638
48023.603
48009.838
47998.424
47981.3
47961.094
47942.576
47922.062
47903.766
47883.256
47858.032
47830.245
47802.931
47776.691
47751.418
47726.499
47700.897
47674.781
47648.1
47620.566
47592.283
47563.473
47534.435
47505.353
47476.343
47447.645
47419.44
47392.118
47365.897
47340.767
47316.902
47294.411
47273.291
47253.474
47235.029
47217.977
47202.334
47188.027
47174.918
47162.756
47151.57
47141.421
47132.299
47124.098
47116.697
47109.999
47103.932
47098.437
47093.448
47088.927
47084.816
47081.072
47077.66
47074.546
47071.698
47069.089
47066.693
47064.494
47062.479
47060.641
47058.971
47057.465
47056.11
47054.904
47053.833
47052.879
47052.029
47051.271
47050.597
47049.995
47049.46
47048.983
47048.558
47048.179
47047.842
47047.541
47047.274
47047.037
47046.827
47046.642
47046.478
47046.333
47046.207
47046.096
47045.999
47045.915
47045.843
47045.781
47045.729
47045.684
47045.648
47045.617
47045.593
47045.574
47045.56
47045.55
47045.544
47045.541
47045.539
47045.538
47045.538
48063.638
48046.764
48029.543
48016.275
48005.235
47988.354
47968.588
47950.683
47930.495
47912.476
47892.193
47867.329
47840.293
47813.564
47788.277
47763.746
47738.993
47713.616
47687.642
47660.815
47633.068
47604.717
47575.853
47546.623
47517.277
47488.066
47459.24
47430.898
47403.34
47376.81
47351.344
47327.115
47304.274
47282.835
47262.724
47243.945
47226.509
47210.502
47195.926
47182.391
47169.819
47158.202
47147.599
47138.019
47129.371
47121.538
47114.416
47107.92
47102.013
47096.615
47091.684
47087.179
47083.047
47079.253
47075.767
47072.566
47069.631
47066.947
47064.49
47062.241
47060.179
47058.29
47056.574
47055.025
47053.639
47052.402
47051.297
47050.31
47049.427
47048.639
47047.935
47047.306
47046.745
47046.245
47045.798
47045.4
47045.044
47044.728
47044.446
47044.195
47043.973
47043.776
47043.602
47043.449
47043.314
47043.197
47043.095
47043.006
47042.93
47042.865
47042.81
47042.764
47042.726
47042.696
47042.672
47042.654
47042.642
47042.634
47042.629
47042.627
47042.626
47042.625
48069.325
48052.936
48035.611
48022.707
48012.007
47995.438
47976.157
47958.791
47938.992
47921.226
47901.241
47876.85
47850.276
47824.482
47800.04
47775.944
47751.742
47726.652
47700.497
47673.491
47645.719
47617.251
47588.132
47558.678
47529.236
47499.964
47470.985
47442.402
47414.544
47387.699
47361.932
47337.448
47314.344
47292.628
47272.182
47253.02
47235.186
47218.746
47203.643
47189.667
47176.643
47164.541
47153.437
47143.353
47134.212
47125.903
47118.326
47111.398
47105.033
47099.218
47093.868
47088.955
47084.431
47080.256
47076.41
47072.863
47069.588
47066.565
47063.775
47061.207
47058.851
47056.693
47054.73
47052.952
47051.356
47049.929
47048.652
47047.508
47046.483
47045.567
47044.748
47044.015
47043.36
47042.774
47042.251
47041.784
47041.367
47040.995
47040.663
47040.368
47040.105
47039.873
47039.667
47039.485
47039.325
47039.185
47039.063
47038.957
47038.866
47038.788
47038.721
47038.666
47038.62
47038.583
47038.554
47038.532
47038.517
47038.507
47038.501
47038.498
47038.497
47038.496
48075.05
48059.148
48041.711
48029.191
48018.812
48002.534
47983.756
47966.973
47947.539
47930.048
47910.421
47886.334
47860.476
47835.496
47811.699
47788.479
47764.734
47739.609
47713.447
47686.457
47658.476
47629.698
47600.43
47570.942
47541.385
47511.883
47482.631
47453.825
47425.783
47398.749
47372.747
47347.953
47324.532
47302.447
47281.613
47262.092
47243.927
47227.04
47211.417
47196.964
47183.491
47170.914
47159.291
47148.671
47138.985
47130.138
47122.032
47114.579
47107.726
47101.436
47095.631
47090.266
47085.311
47080.719
47076.465
47072.531
47068.9
47065.553
47062.469
47059.628
47057.007
47054.594
47052.383
47050.379
47048.575
47046.96
47045.513
47044.215
47043.052
47042.01
47041.077
47040.243
47039.496
47038.828
47038.232
47037.699
47037.222
47036.797
47036.418
47036.08
47035.779
47035.512
47035.276
47035.067
47034.883
47034.721
47034.58
47034.457
47034.351
47034.26
47034.182
47034.117
47034.063
47034.02
47033.986
47033.96
47033.942
47033.931
47033.924
47033.921
47033.919
47033.918
48065.43
48047.822
48035.668
48025.619
48009.702
47991.368
47975.215
47956.099
47938.994
47919.583
47896.054
47870.742
47846.461
47823.613
47800.998
47777.548
47752.734
47726.64
47699.39
47671.134
47642.28
47612.938
47583.214
47553.378
47523.696
47494.366
47465.481
47437.263
47409.955
47383.63
47358.51
47334.77
47312.344
47291.192
47271.357
47252.832
47235.566
47219.434
47204.423
47190.415
47177.297
47165.099
47153.888
47143.614
47134.192
47125.528
47117.543
47110.184
47103.367
47097.089
47091.27
47085.876
47080.872
47076.223
47071.91
47067.907
47064.193
47060.754
47057.573
47054.638
47051.939
47049.467
47047.218
47045.186
47043.363
47041.726
47040.257
47038.938
47037.754
47036.694
47035.744
47034.893
47034.131
47033.45
47032.841
47032.297
47031.81
47031.377
47030.99
47030.645
47030.339
47030.067
47029.827
47029.615
47029.428
47029.265
47029.123
47029
47028.895
47028.805
47028.729
47028.667
47028.616
47028.576
47028.546
47028.525
47028.512
47028.504
47028.5
47028.498
47028.497
48071.736
48054.035
48042.139
48032.396
48016.906
47999.06
47983.462
47964.763
47947.923
47928.975
47905.782
47881.073
47857.673
47835.556
47813.547
47790.701
47766.09
47739.798
47712.392
47684.089
47655.03
47625.358
47595.401
47565.503
47535.79
47506.321
47477.2
47448.714
47421.144
47394.573
47369.212
47345.22
47322.501
47301.005
47280.78
47261.842
47244.208
47227.637
47212.096
47197.542
47183.889
47171.127
47159.323
47148.463
47138.47
47129.25
47120.706
47112.788
47105.456
47098.67
47092.37
47086.506
47081.058
47075.99
47071.275
47066.9
47062.844
47059.086
47055.605
47052.378
47049.396
47046.649
47044.143
47041.872
47039.831
47037.995
47036.344
47034.861
47033.528
47032.333
47031.26
47030.299
47029.438
47028.667
47027.978
47027.361
47026.81
47026.318
47025.878
47025.487
47025.139
47024.829
47024.555
47024.313
47024.1
47023.914
47023.751
47023.61
47023.489
47023.386
47023.298
47023.226
47023.168
47023.121
47023.087
47023.063
47023.047
47023.038
47023.034
47023.031
47023.03
48078.042
48060.294
48048.681
48039.198
48024.12
48006.822
47991.776
47973.481
47956.969
47938.392
47915.598
47891.582
47868.862
47847.506
47826.324
47803.858
47779.315
47753.105
47725.642
47697.032
47667.612
47637.815
47607.846
47577.817
47547.849
47518.132
47488.845
47460.242
47432.546
47405.787
47380.172
47355.873
47332.804
47310.92
47290.311
47271.007
47252.955
47236.021
47220.055
47205.016
47190.853
47177.556
47165.192
47153.76
47143.198
47133.414
47124.31
47115.831
47107.953
47100.599
47093.775
47087.421
47081.508
47076.012
47070.897
47066.137
47061.711
47057.597
47053.781
47050.243
47046.968
47043.946
47041.18
47038.664
47036.397
47034.356
47032.518
47030.865
47029.379
47028.044
47026.846
47025.771
47024.808
47023.945
47023.172
47022.481
47021.864
47021.312
47020.819
47020.38
47019.989
47019.642
47019.334
47019.062
47018.822
47018.611
47018.427
47018.268
47018.13
47018.013
47017.914
47017.831
47017.765
47017.712
47017.673
47017.645
47017.627
47017.617
47017.611
47017.609
47017.608
48084.373
48066.544
48055.271
48046.032
48031.405
48014.588
48000.179
47982.203
47966.145
47947.812
47925.672
47902.061
47880.163
47859.652
47839.014
47816.993
47792.794
47766.555
47738.793
47709.945
47680.463
47650.544
47620.287
47589.986
47559.888
47530.158
47500.835
47472.08
47444.126
47417.063
47391.161
47366.593
47343.235
47321.063
47300.156
47280.504
47262.046
47244.716
47228.365
47212.881
47198.233
47184.412
47171.504
47159.518
47148.415
47138.1
47128.476
47119.47
47111.046
47103.183
47095.829
47088.966
47082.558
47076.598
47071.064
47065.929
47061.164
47056.74
47052.628
47048.804
47045.252
47041.965
47038.943
47036.188
47033.7
47031.458
47029.436
47027.615
47025.976
47024.502
47023.178
47021.99
47020.923
47019.968
47019.112
47018.346
47017.661
47017.048
47016.502
47016.015
47015.581
47015.195
47014.853
47014.55
47014.283
47014.048
47013.843
47013.665
47013.511
47013.379
47013.268
47013.176
47013.101
47013.042
47012.997
47012.966
47012.946
47012.934
47012.929
47012.926
47012.924
48072.835
48061.881
48052.874
48038.733
48022.421
48008.601
47991.027
47975.281
47957.509
47935.613
47912.755
47891.575
47871.759
47851.857
47830.386
47806.343
47779.995
47752.156
47723.211
47693.437
47663.156
47632.717
47602.398
47572.268
47542.372
47512.799
47483.802
47455.658
47428.44
47402.383
47377.625
47354.006
47331.528
47310.256
47290.231
47271.388
47253.605
47236.938
47221.084
47206.067
47191.833
47178.473
47166.018
47154.444
47143.666
47133.579
47124.11
47115.211
47106.856
47099.006
47091.643
47084.75
47078.311
47072.322
47066.757
47061.59
47056.793
47052.34
47048.207
47044.371
47040.816
47037.539
47034.542
47031.827
47029.376
47027.164
47025.169
47023.372
47021.754
47020.299
47018.992
47017.82
47016.768
47015.826
47014.982
47014.228
47013.554
47012.952
47012.415
47011.937
47011.513
47011.136
47010.802
47010.507
47010.248
47010.022
47009.824
47009.654
47009.507
47009.384
47009.281
47009.197
47009.131
47009.081
47009.046
47009.024
47009.011
47009.004
47009.001
47009
48079.178
48068.547
48059.75
48046.07
48030.342
48017.066
47999.903
47984.545
47967.161
47945.775
47923.519
47902.998
47883.998
47864.78
47843.656
47819.815
47793.592
47765.623
47736.355
47706.271
47675.909
47645.439
47614.936
47584.531
47554.446
47524.809
47495.798
47467.592
47440.213
47413.912
47388.865
47364.928
47342.131
47320.549
47300.218
47281.065
47262.976
47245.895
47229.711
47214.38
47199.832
47186.114
47173.272
47161.294
47150.118
47139.639
47129.777
47120.48
47111.714
47103.442
47095.641
47088.308
47081.425
47074.995
47069.012
47063.456
47058.301
47053.52
47049.082
47044.965
47041.149
47037.623
47034.385
47031.441
47028.777
47026.368
47024.192
47022.228
47020.458
47018.865
47017.431
47016.143
47014.987
47013.95
47013.021
47012.189
47011.446
47010.782
47010.19
47009.662
47009.193
47008.777
47008.409
47008.083
47007.797
47007.546
47007.328
47007.139
47006.976
47006.839
47006.724
47006.63
47006.556
47006.5
47006.461
47006.435
47006.421
47006.414
47006.411
47006.409
48085.523
48075.289
48066.68
48053.455
48038.293
48025.614
48008.793
47993.917
47976.833
47956.154
47934.27
47914.649
47896.335
47877.664
47857.09
47833.533
47807.242
47779.061
47749.639
47719.481
47688.938
47658.165
47627.442
47596.986
47566.925
47537.235
47508.046
47479.58
47451.93
47425.407
47400.182
47376.062
47353.065
47331.257
47310.651
47291.197
47272.789
47255.362
47238.85
47223.168
47208.308
47194.307
47181.163
47168.879
47157.391
47146.616
47136.466
47126.886
47117.829
47109.268
47101.177
47093.537
47086.343
47079.584
47073.251
47067.333
47061.812
47056.676
47051.908
47047.491
47043.404
47039.632
47036.163
47032.999
47030.13
47027.531
47025.18
47023.055
47021.137
47019.408
47017.851
47016.451
47015.193
47014.064
47013.051
47012.144
47011.333
47010.608
47009.962
47009.386
47008.874
47008.42
47008.018
47007.663
47007.35
47007.077
47006.838
47006.631
47006.453
47006.302
47006.176
47006.073
47005.991
47005.929
47005.885
47005.858
47005.842
47005.834
47005.831
47005.829
48082.109
48073.654
48060.885
48046.287
48034.197
48017.749
48003.254
47986.793
47966.361
47945.355
47926.261
47908.662
47890.72
47870.572
47847.196
47820.937
47792.734
47763.172
47732.721
47701.868
47670.976
47640.243
47609.711
47579.458
47549.543
47520.197
47491.66
47463.964
47437.357
47411.984
47387.646
47364.36
47342.218
47321.294
47301.536
47282.849
47265.151
47248.391
47232.496
47217.418
47203.18
47189.783
47177.4
47165.679
47154.702
47144.362
47134.595
47125.358
47116.623
47108.35
47100.534
47093.166
47086.234
47079.721
47073.604
47067.866
47062.489
47057.458
47052.769
47048.416
47044.394
47040.702
47037.335
47034.282
47031.516
47029.011
47026.746
47024.699
47022.852
47021.188
47019.69
47018.342
47017.131
47016.044
47015.069
47014.197
47013.417
47012.721
47012.1
47011.549
47011.059
47010.626
47010.244
47009.908
47009.613
47009.356
47009.134
47008.942
47008.779
47008.643
47008.531
47008.441
47008.374
47008.326
47008.296
47008.279
47008.271
47008.268
47008.266
48088.984
48080.711
48068.323
48054.352
48042.799
48026.753
48012.717
47996.704
47976.868
47956.404
47937.998
47921.173
47903.779
47883.988
47860.915
47834.759
47806.408
47776.62
47745.974
47715.061
47684.098
47653.164
47622.408
47592.052
47562.146
47532.822
47504.218
47476.338
47449.468
47423.823
47399.248
47375.761
47353.428
47332.322
47312.371
47293.476
47275.568
47258.593
47242.489
47227.208
47212.769
47199.216
47186.559
47174.716
47163.607
47153.155
47143.299
47133.98
47125.171
47116.861
47109.026
47101.649
47094.716
47088.205
47082.089
47076.341
47070.935
47065.852
47061.073
47056.589
47052.397
47048.515
47044.957
47041.726
47038.797
47036.144
47033.744
47031.574
47029.615
47027.849
47026.259
47024.827
47023.541
47022.385
47021.349
47020.421
47019.591
47018.85
47018.189
47017.601
47017.08
47016.618
47016.21
47015.852
47015.54
47015.267
47015.032
47014.83
47014.658
47014.515
47014.397
47014.304
47014.233
47014.183
47014.151
47014.133
47014.125
47014.123
47014.122
48095.908
48087.852
48075.787
48062.5
48051.452
48035.804
48022.277
48006.643
47987.575
47967.501
47950.009
47933.695
47916.884
47897.634
47874.762
47848.601
47820.195
47790.326
47759.582
47728.485
47697.287
47666.209
47635.439
47605.082
47575.07
47545.53
47516.696
47488.641
47461.662
47435.939
47411.272
47387.657
47365.139
47343.79
47323.584
47304.442
47286.31
47269.134
47252.851
47237.421
47222.855
47209.188
47196.417
47184.493
47173.331
47162.848
47152.98
47143.671
47134.895
47126.631
47118.867
47111.589
47104.779
47098.418
47092.477
47086.924
47081.73
47076.866
47072.309
47068.032
47064.019
47060.277
47056.825
47053.686
47050.84
47048.265
47045.938
47043.839
47041.948
47040.246
47038.717
47037.344
47036.115
47035.013
47034.029
47033.15
47032.366
47031.668
47031.048
47030.498
47030.002
47029.549
47029.134
47028.753
47028.399
47028.069
47027.762
47027.49
47027.261
47027.072
47026.917
47026.795
47026.703
47026.638
47026.597
47026.575
47026.566
47026.564
47026.565
48102.909
48095.047
48083.328
48070.693
48060.177
48044.883
48031.841
48016.862
47998.127
47979.004
47961.889
47946.3
47930.077
47911.167
47888.554
47862.535
47834.139
47804.151
47773.218
47741.924
47710.645
47679.527
47648.641
47618.107
47587.958
47558.371
47529.554
47501.501
47474.437
47448.537
47423.645
47399.788
47377.031
47355.465
47335.072
47315.778
47297.516
47280.231
47263.864
47248.356
47233.712
47219.966
47207.12
47195.133
47183.934
47173.439
47163.579
47154.307
47145.596
47137.427
47129.775
47122.634
47115.982
47109.794
47104.045
47098.707
47093.754
47089.163
47084.913
47080.984
47077.358
47074.027
47070.973
47068.221
47065.745
47063.52
47061.523
47059.733
47058.131
47056.699
47055.421
47054.281
47053.266
47052.363
47051.561
47050.849
47050.219
47049.661
47049.168
47048.735
47048.363
47048.054
47047.795
47047.569
47047.368
47047.191
47047.047
47046.933
47046.839
47046.762
47046.7
47046.653
47046.618
47046.594
47046.58
47046.574
47046.573
47046.575
47046.578
48102.312
48090.938
48078.936
48068.944
48053.999
48041.523
48027.081
48008.992
47990.435
47973.978
47959.067
47943.273
47924.763
47902.501
47876.572
47848.118
47818.068
47787.044
47755.69
47724.327
47693.057
47662.038
47631.465
47601.334
47571.714
47542.763
47514.504
47487.212
47461.115
47436.085
47412.149
47389.327
47367.665
47347.142
47327.693
47309.287
47291.86
47275.353
47259.734
47244.998
47231.171
47218.26
47206.231
47195.011
47184.52
47174.692
47165.48
47156.854
47148.793
47141.276
47134.288
47127.808
47121.812
47116.269
47111.147
47106.411
47102.035
47097.993
47094.269
47090.846
47087.714
47084.859
47082.294
47079.996
47077.94
47076.101
47074.458
47072.993
47071.688
47070.525
47069.492
47068.573
47067.758
47067.036
47066.397
47065.831
47065.333
47064.894
47064.508
47064.169
47063.872
47063.619
47063.419
47063.274
47063.172
47063.08
47062.976
47062.874
47062.79
47062.723
47062.672
47062.634
47062.609
47062.593
47062.586
47062.584
47062.585
47062.588
48109.651
48098.588
48087.301
48077.715
48063.234
48051.292
48037.351
48020.089
48001.923
47986.355
47971.772
47956.596
47938.52
47916.433
47890.657
47862.297
47832.224
47801.13
47769.668
47738.171
47706.808
47675.76
47645.134
47614.878
47585.085
47555.992
47527.67
47500.369
47474.254
47449.16
47425.095
47402.088
47380.208
47359.459
47339.828
47321.274
47303.743
47287.177
47271.522
47256.765
47242.931
47230.019
47217.995
47206.792
47196.332
47186.55
47177.402
47168.857
47160.892
47153.485
47146.617
47140.262
47134.39
47128.975
47123.98
47119.369
47115.123
47111.209
47107.604
47104.282
47101.228
47098.433
47095.906
47093.637
47091.602
47089.777
47088.144
47086.684
47085.381
47084.219
47083.183
47082.262
47081.442
47080.714
47080.069
47079.497
47078.99
47078.544
47078.15
47077.803
47077.5
47077.235
47077.004
47076.802
47076.634
47076.513
47076.44
47076.394
47076.347
47076.289
47076.234