/*--------------------------------*- C++ -*----------------------------------*\
| =========                 |                                                 |
| \\      /  F ield         | OpenFOAM: The Open Source CFD Toolbox           |
|  \\    /   O peration     | Version:  2506                                  |
|   \\  /    A nd           | Website:  www.openfoam.com                      |
|    \\/     M anipulation  |                                                 |
\*---------------------------------------------------------------------------*/
FoamFile
{
    version     2.0;
    format      ascii;
    arch        "LSB;label=32;scalar=64";
    class       volScalarField;
    location    "0.017";
    object      rho;
}
// * * * * * * * * * * * * * * * * * * * * * * * * * * * * * * * * * * * * * //

dimensions      [1 -3 0 0 0 0 0];

internalField   nonuniform List<scalar> 
13761
(
0.66462507
0.66462614
0.6646271
0.66462761
0.66462796
0.66686045
0.66462895
0.6668606
0.66462924
0.66686114
0.66462878
0.66686224
0.66462829
0.66686304
0.66462771
0.66502095
0.66686304
0.66462727
0.66502104
0.66686218
0.66462893
0.66502226
0.66686224
0.66463152
0.66502316
0.66686308
0.66463337
0.66502412
0.66686326
0.6646346
0.66502469
0.66686256
0.66463522
0.6665568
0.66502427
0.66686197
0.66463548
0.66655849
0.66502411
0.66686158
0.66463532
0.66655832
0.66502515
0.66686088
0.66463464
0.66655554
0.66502632
0.66686034
0.66463388
0.66655329
0.66502707
0.66686043
0.66463335
0.66655243
0.66502674
0.66686065
0.66463363
0.66544183
0.6665519
0.66502686
0.66686284
0.66463374
0.665442
0.6665516
0.66502531
0.66686546
0.66463183
0.66544218
0.66655143
0.66502265
0.6668664
0.66462873
0.66544235
0.66655125
0.66502131
0.66686576
0.6646262
0.66544253
0.66655131
0.66502235
0.66686411
0.66462389
0.66588077
0.66544271
0.66655145
0.665025
0.6668631
0.66462185
0.66588122
0.66544291
0.66655152
0.66502663
0.66686246
0.66461836
0.66588155
0.66544313
0.66655153
0.66502737
0.66686228
0.66461183
0.66588199
0.66544337
0.66655148
0.66502804
0.66686183
0.6646085
0.66588252
0.66544358
0.6665514
0.66502889
0.666863
0.66460869
0.66588299
0.66544381
0.66655134
0.66502962
0.6668657
0.66461287
0.66530049
0.66588392
0.66544407
0.66655123
0.66502994
0.66686692
0.66461651
0.66530113
0.66588497
0.6654443
0.6665511
0.66503002
0.66686627
0.66461829
0.66530182
0.66588542
0.66544445
0.66655098
0.66502989
0.66686352
0.66461959
0.66530255
0.66588558
0.66544461
0.66655088
0.66502977
0.6668597
0.66462061
0.66530326
0.66588594
0.66544474
0.66655077
0.66502953
0.66685683
0.6646213
0.66499509
0.66530394
0.66588646
0.66544481
0.66655068
0.66502899
0.66685572
0.6646221
0.66499787
0.66530461
0.66588738
0.66544488
0.6665506
0.6650284
0.66685529
0.66462292
0.66500063
0.66530528
0.66588939
0.66544501
0.66655057
0.66502671
0.66685493
0.66462345
0.6650034
0.66530595
0.66589076
0.66544507
0.6665503
0.66502446
0.66685439
0.66462392
0.66500616
0.66530669
0.66589086
0.66544499
0.6665498
0.66502335
0.66685436
0.6646244
0.66500892
0.66530746
0.66588987
0.66544491
0.66654924
0.66502386
0.66685476
0.66462467
0.66408114
0.66501169
0.66530824
0.66588917
0.665445
0.66654879
0.66502457
0.666855
0.66462452
0.66408626
0.66501445
0.66530902
0.66588903
0.66544521
0.66654836
0.66502429
0.66686032
0.66409144
0.66501722
0.66530977
0.6658893
0.66544544
0.66654794
0.66502355
0.66686482
0.66409665
0.66501998
0.66531049
0.66588975
0.66544566
0.66654771
0.66502444
0.66686583
0.6641019
0.66502274
0.66531119
0.66589034
0.66544584
0.66654768
0.6650265
0.66686481
0.66254895
0.6641072
0.66502548
0.6653119
0.66589098
0.66544598
0.66654781
0.66502795
0.66686102
0.66255755
0.66411255
0.66502821
0.66531261
0.66589163
0.66544607
0.66654793
0.66502861
0.66685654
0.66256621
0.66411794
0.66503092
0.66531333
0.66589225
0.66544612
0.66654797
0.66502906
0.66685396
0.66257495
0.66412336
0.66503362
0.66531406
0.66589283
0.66544616
0.66654783
0.66502961
0.66685328
0.66258376
0.66412881
0.66503632
0.66531481
0.66589339
0.6654462
0.66654742
0.66503001
0.66259265
0.66413429
0.665039
0.66531556
0.66589395
0.66544625
0.66654681
0.66502967
0.66031201
0.6626016
0.66413979
0.66504167
0.66531633
0.66589452
0.66544634
0.66654644
0.66502902
0.66032144
0.6626106
0.66414532
0.66504432
0.66531709
0.66589508
0.66544649
0.66654649
0.66502751
0.66033093
0.66261966
0.66415088
0.66504698
0.66531785
0.66589564
0.66544669
0.66654582
0.66502566
0.66034064
0.66262879
0.66415647
0.66504963
0.66531861
0.66589618
0.66544689
0.66654466
0.66502458
0.66035038
0.66263798
0.66416208
0.66505229
0.66531937
0.66589673
0.66544709
0.66654487
0.66502522
0.65832566
0.6603603
0.66264723
0.66416772
0.66505496
0.66532015
0.66589728
0.66544728
0.66654572
0.6650254
0.65832647
0.66037025
0.66265652
0.66417338
0.66505766
0.66532094
0.66589787
0.66544743
0.66654668
0.65832771
0.66038037
0.66266587
0.66417906
0.66506038
0.66532173
0.66589846
0.66544753
0.66654743
0.65832883
0.66039056
0.66267527
0.66418476
0.66506313
0.66532252
0.6658991
0.66544766
0.66654749
0.65833035
0.66040091
0.66268472
0.66419048
0.66506589
0.66532332
0.6658998
0.66544781
0.66654634
0.65835128
0.65833177
0.66041132
0.66269426
0.66419621
0.66506864
0.66532411
0.66590049
0.66544799
0.66654525
0.6583336
0.65833355
0.66042187
0.66270388
0.66420194
0.66507136
0.6653249
0.66590145
0.66544819
0.66654484
0.65831564
0.65833525
0.6604325
0.66271358
0.66420768
0.66507404
0.66532569
0.66590225
0.66544841
0.66654486
0.65829808
0.65833729
0.66044327
0.66272335
0.66421343
0.66507668
0.66532647
0.66590412
0.66544871
0.6618682
0.65828033
0.65833927
0.66045415
0.66273319
0.66421919
0.66507931
0.66532724
0.66590654
0.665449
0.66183106
0.65826297
0.65834159
0.66046517
0.66274307
0.66422495
0.66508194
0.66532803
0.66590758
0.66544907
0.66179313
0.65824542
0.65834391
0.6604763
0.662753
0.66423072
0.6650846
0.66532888
0.66590741
0.66544895
0.6617551
0.65822822
0.65834656
0.66048757
0.66276298
0.6642365
0.66508727
0.66532976
0.66590653
0.66544888
0.66171631
0.65821082
0.65834925
0.66049895
0.66277301
0.66424228
0.66508994
0.66533068
0.66590603
0.665449
0.66709015
0.66167736
0.65819377
0.65835225
0.66051045
0.66278311
0.66424808
0.6650926
0.66533161
0.66590599
0.66544921
0.6670669
0.66163771
0.65817655
0.65835527
0.66052204
0.66279326
0.66425387
0.66509524
0.66533253
0.66590637
0.66544947
0.66704303
0.66159803
0.6581597
0.65835855
0.66053371
0.66280348
0.66425967
0.66509787
0.66533343
0.66590701
0.66701811
0.66155777
0.65814269
0.65836188
0.66054546
0.66281375
0.66426548
0.6651005
0.66533429
0.66590781
0.66820328
0.66699238
0.66151761
0.65812603
0.65836544
0.66055732
0.66282408
0.66427129
0.66510313
0.66533513
0.66590864
0.66821788
0.66696536
0.66147695
0.65810919
0.65836906
0.6605693
0.66283446
0.66427711
0.66510576
0.66533597
0.66590958
0.6682326
0.66693767
0.66143645
0.65809269
0.65837287
0.6605814
0.6628449
0.66428294
0.66510839
0.66533682
0.66591071
0.66824729
0.66690912
0.66139544
0.65807603
0.65837677
0.66059362
0.6628554
0.66428877
0.66511101
0.66533769
0.66591166
0.66423303
0.66826176
0.6668808
0.6613546
0.6580597
0.65838088
0.66060594
0.66286596
0.6642946
0.66511363
0.66533856
0.66591243
0.66425082
0.66827582
0.66685257
0.66131327
0.65804323
0.65838514
0.66061836
0.66287659
0.66430044
0.66511625
0.66533945
0.66591301
0.66426862
0.66828963
0.66682509
0.66127214
0.65802708
0.65838961
0.66063089
0.66288728
0.66430628
0.66511886
0.66534035
0.66428637
0.66830325
0.6667973
0.66123059
0.65801083
0.65839423
0.66064354
0.66289802
0.66431214
0.66512148
0.66534124
0.66250961
0.66430394
0.66831721
0.66676915
0.6611893
0.65799488
0.65839902
0.66065629
0.6629088
0.664318
0.66512409
0.66534213
0.66251124
0.66432152
0.66833145
0.66673954
0.66114765
0.65797889
0.65840397
0.66066916
0.66291963
0.66432387
0.66512669
0.66534305
0.6625129
0.66433888
0.66834609
0.66670917
0.66110624
0.65796319
0.6584091
0.66068212
0.66293051
0.66432976
0.66512929
0.665344
0.66251541
0.66435668
0.6683606
0.66667762
0.66106448
0.65794746
0.65841439
0.66069518
0.66294143
0.66433565
0.66513189
0.66534496
0.66434152
0.66251757
0.66437455
0.66837491
0.66664593
0.66102297
0.65793199
0.65841986
0.66070834
0.66295239
0.66434155
0.66513449
0.66534592
0.66432196
0.66252059
0.66439338
0.66838912
0.6666134
0.66098113
0.65791653
0.65842551
0.66072161
0.66296338
0.66434746
0.66513709
0.66430259
0.66252322
0.66441229
0.66840355
0.6665807
0.66093953
0.65790131
0.65843134
0.660735
0.66297442
0.66435337
0.66513969
0.66428273
0.66252647
0.66443196
0.66841838
0.66654699
0.66089761
0.65788616
0.65843734
0.66074852
0.66298548
0.6643593
0.66514229
0.66416618
0.66426326
0.66252936
0.66445159
0.66843365
0.66651303
0.66085593
0.65787121
0.65844349
0.66076214
0.66299659
0.66436523
0.6651449
0.66417978
0.66424331
0.66253231
0.664472
0.66844917
0.66647804
0.66081396
0.65785631
0.65844981
0.66077585
0.66300773
0.66437116
0.6651475
0.66419404
0.66422373
0.66253492
0.66449301
0.66846467
0.66644281
0.66077227
0.65784158
0.65845629
0.66078965
0.66301891
0.66437709
0.66515011
0.66192238
0.6642072
0.66420384
0.66253717
0.6645149
0.66847977
0.66640659
0.66073035
0.65782695
0.65846296
0.66080353
0.66303012
0.66438301
0.66515272
0.66192436
0.66422087
0.66418417
0.66253932
0.66453749
0.66849449
0.66637016
0.66068871
0.65781252
0.6584698
0.66081751
0.66304137
0.66438894
0.66192545
0.66423328
0.66416457
0.66254096
0.66456034
0.66850889
0.66633282
0.66064686
0.65779825
0.65847684
0.6608316
0.66305265
0.66439486
0.66205655
0.6619274
0.6642461
0.6641449
0.6625424
0.66458351
0.66852322
0.66629526
0.66060523
0.65778417
0.65848404
0.6608458
0.66306396
0.66440078
0.66204708
0.66192852
0.66425805
0.66412571
0.66254372
0.66460659
0.66853739
0.66625675
0.66056338
0.65777022
0.65849141
0.66086011
0.6630753
0.6644067
0.66204004
0.6619305
0.66427027
0.66410601
0.66254481
0.66463011
0.66855147
0.66621797
0.66052171
0.6577564
0.65849893
0.66087452
0.66308668
0.66441262
0.66187592
0.66203085
0.66193182
0.66428204
0.66408709
0.66254616
0.66465388
0.66856533
0.66617825
0.66047986
0.65774272
0.65850663
0.66088902
0.66309807
0.66441855
0.66187884
0.662024
0.66193386
0.6642939
0.66406757
0.66254727
0.66467819
0.66857917
0.66613825
0.66043819
0.65772919
0.65851451
0.66090362
0.6631095
0.66442448
0.66188079
0.66201541
0.66193552
0.66430529
0.66404897
0.66254884
0.66470273
0.66859268
0.6660973
0.66039641
0.65771586
0.65852258
0.66091832
0.66312094
0.66086916
0.66188361
0.66200867
0.66193815
0.6643169
0.66403005
0.66255019
0.66472767
0.66860596
0.66605599
0.66035477
0.65770272
0.65853083
0.66093311
0.66313241
0.6608756
0.66188555
0.66200039
0.66194042
0.66432766
0.66401184
0.66255175
0.66475293
0.66861896
0.66601358
0.66031304
0.65768976
0.65853926
0.660948
0.6631439
0.66087953
0.66188825
0.66199359
0.6619441
0.66433895
0.66399371
0.66255311
0.66477864
0.66863196
0.66597069
0.6602714
0.65767698
0.65854786
0.660963
0.66315541
0.6605468
0.66088722
0.66188986
0.66198506
0.6619472
0.66434903
0.6639759
0.6625543
0.6648048
0.6686447
0.6659267
0.66022971
0.65766436
0.65855664
0.6609781
0.66316694
0.66054956
0.66089214
0.66189231
0.66197784
0.66195191
0.66435958
0.66395852
0.66255526
0.66483136
0.66865692
0.66588224
0.66018811
0.65765193
0.6585656
0.66099331
0.66317847
0.66006867
0.66055198
0.66090037
0.66189312
0.66196879
0.66195602
0.66436907
0.6639412
0.66255569
0.66485852
0.66866827
0.66583674
0.66014652
0.6576397
0.65857475
0.66100861
0.66318999
0.66006691
0.6605554
0.66090613
0.66189498
0.66196089
0.66196161
0.66437849
0.66392419
0.66255586
0.66488637
0.66867943
0.66579084
0.66010503
0.65762768
0.65858408
0.66102402
0.65965457
0.66006398
0.66055876
0.6609144
0.66189472
0.66195155
0.66196707
0.66438726
0.6639071
0.66255565
0.66491463
0.66869113
0.66574412
0.66006356
0.65761587
0.65859359
0.66103953
0.65963837
0.66006319
0.66056278
0.66092096
0.66189588
0.66194326
0.66197397
0.66439547
0.66388978
0.6625555
0.66494343
0.66870345
0.6656971
0.66002215
0.65760426
0.65860326
0.66105515
0.65962405
0.66006138
0.66056714
0.660929
0.66189483
0.66193416
0.66198127
0.6644036
0.66387259
0.6625554
0.6649728
0.66871621
0.66564936
0.65998074
0.65759283
0.65861311
0.66107087
0.65945836
0.65960834
0.66006173
0.66057172
0.66093606
0.66189569
0.66192601
0.66198981
0.66441053
0.66385488
0.66255555
0.66500295
0.66872801
0.66560121
0.65993938
0.6575816
0.65862314
0.66108669
0.65944041
0.65959366
0.66006047
0.66057703
0.66094359
0.66189447
0.66191742
0.66199876
0.66441794
0.66383783
0.66255581
0.66503403
0.66873693
0.66555204
0.65989804
0.65757058
0.65863337
0.6611026
0.65915325
0.65942093
0.6595789
0.66006204
0.66058182
0.6609507
0.66189555
0.66190963
0.66200926
0.66442437
0.66382032
0.66255614
0.6650659
0.66874293
0.66550249
0.65985678
0.65755979
0.6586438
0.66111859
0.65913424
0.6594038
0.65956359
0.6600614
0.660588
0.66095773
0.66189451
0.66190121
0.6620196
0.66443127
0.66380367
0.66255634
0.66509804
0.668748
0.66545271
0.65981558
0.65754921
0.65865442
0.65880437
0.65911705
0.65938437
0.65955002
0.66006385
0.66059261
0.66096496
0.66189588
0.66189345
0.66203185
0.66443759
0.66378673
0.66255648
0.66513044
0.66875382
0.66540295
0.65977445
0.65753883
0.65866523
0.65853761
0.65878335
0.65909696
0.65936803
0.65953543
0.66006402
0.66059959
0.66097179
0.66189494
0.66188458
0.66204342
0.66444417
0.66377038
0.66255628
0.66516322
0.66876023
0.66535276
0.65973338
0.65752866
0.65867621
0.65852409
0.65876552
0.65907992
0.65934878
0.65952589
0.66006717
0.6606039
0.66097924
0.66189628
0.66187632
0.66205677
0.66445068
0.66375405
0.66255593
0.66519682
0.66876665
0.66530215
0.65969239
0.65751868
0.65868737
0.6582502
0.65850538
0.65874408
0.65905941
0.65933332
0.65951558
0.66006833
0.66061155
0.66098601
0.66189537
0.66186673
0.66206911
0.66445716
0.66373803
0.66255516
0.66523096
0.66877229
0.66525095
0.65965147
0.65750892
0.6586987
0.6582445
0.65848914
0.65872518
0.65904172
0.65931361
0.65950972
0.66007192
0.66061583
0.66099352
0.66189637
0.66185777
0.66208286
0.66446384
0.66372253
0.66255441
0.66526574
0.66877731
0.66519941
0.65961065
0.65749939
0.6587102
0.65791724
0.65823233
0.65846729
0.65870353
0.65902063
0.65929919
0.65950231
0.66007395
0.66062382
0.66100004
0.66189531
0.66184776
0.66209624
0.66447045
0.66370731
0.66255341
0.66530068
0.66878288
0.66514757
0.65956993
0.65749009
0.65759926
0.65791181
0.65822475
0.65844741
0.65868387
0.65900231
0.65927952
0.65949746
0.66007801
0.66062837
0.66100741
0.66189568
0.66183858
0.66211008
0.66447717
0.66369298
0.66255255
0.66533587
0.66878927
0.66509561
0.65952931
0.65748101
0.65736056
0.65757146
0.6579007
0.65821081
0.65842209
0.65866239
0.65898157
0.6592654
0.6594916
0.66008062
0.66063606
0.66101348
0.66189411
0.66182889
0.66212428
0.66448395
0.66367899
0.66255151
0.66537136
0.66879369
0.66504324
0.65948878
0.65747214
0.65732364
0.65755208
0.65789714
0.65820016
0.65840132
0.65864209
0.65896266
0.65924623
0.65948822
0.66008561
0.66064076
0.66102073
0.66189355
0.66182033
0.66213824
0.66449062
0.66366593
0.66255064
0.6654077
0.66879402
0.6649904
0.65944834
0.65746345
0.65711991
0.65728109
0.65752876
0.65788775
0.65818298
0.6583743
0.65862085
0.65894245
0.65923134
0.65948417
0.6600893
0.66064761
0.66102639
0.66189133
0.66181131
0.6621529
0.66449744
0.66365325
0.66254969
0.66544441
0.66879245
0.66493728
0.659408
0.65745496
0.65688966
0.65708353
0.65724458
0.65751608
0.65788565
0.65816659
0.65835272
0.65860035
0.65892292
0.65921336
0.65948261
0.66009487
0.66065244
0.66103352
0.66188996
0.6618035
0.66216693
0.66450406
0.66364123
0.66254913
0.66548137
0.66879139
0.66488411
0.65936777
0.65744668
0.65665393
0.65685544
0.65704008
0.65720343
0.65749979
0.65787812
0.65814303
0.65832451
0.65857953
0.65890313
0.65919825
0.65948018
0.66009985
0.66065845
0.66103844
0.66188729
0.6617947
0.66218139
0.6645109
0.66362927
0.66254877
0.66551858
0.66879036
0.66483065
0.65932766
0.65743864
0.65643115
0.65662922
0.65682484
0.65699838
0.65717173
0.6574951
0.65787675
0.65811889
0.65830247
0.65855976
0.65888332
0.65918178
0.65948037
0.66010526
0.66066347
0.66104527
0.66188543
0.66178706
0.66219518
0.66451751
0.6636174
0.66254906
0.66555618
0.66878862
0.66477682
0.65928769
0.65618114
0.65640061
0.65659771
0.65678566
0.65695048
0.65713577
0.65748615
0.65787018
0.65809006
0.65827371
0.65853847
0.65886498
0.65916656
0.65947945
0.66011147
0.66066898
0.66104932
0.66188241
0.66177806
0.66220902
0.66452413
0.66360513
0.66254973
0.66559391
0.6687854
0.66472275
0.65924785
0.65588635
0.65615063
0.65636947
0.65656453
0.65674861
0.65690421
0.65711281
0.65748826
0.65786669
0.65806336
0.65825184
0.6585198
0.65884408
0.65915307
0.65948143
0.66011677
0.66067407
0.66105583
0.6618802
0.66177025
0.66222252
0.66453046
0.66359268
0.66255107
0.66563194
0.66878164
0.66466848
0.65920816
0.65539684
0.65558039
0.65584179
0.65610967
0.65632908
0.6565233
0.65670281
0.65685392
0.65708758
0.65748603
0.65785649
0.65803138
0.65822304
0.65849821
0.65882689
0.65914024
0.65948191
0.66012421
0.66067934
0.66105956
0.6618769
0.66176119
0.66223605
0.66453651
0.66357971
0.66255277
0.66567044
0.6687773
0.66461395
0.65916863
0.65517069
0.65532697
0.65553234
0.65580412
0.65607229
0.65628749
0.65648181
0.65665861
0.65680767
0.65707735
0.65749399
0.65784558
0.65800208
0.65820098
0.65848052
0.65880575
0.65913044
0.65948554
0.66012962
0.66068431
0.66106604
0.6618745
0.66175314
0.66224966
0.66454234
0.66356672
0.66255511
0.6657097
0.66877221
0.66455918
0.6591293
0.65500159
0.65497429
0.6550755
0.65525991
0.65548554
0.65575929
0.65602468
0.65623787
0.65643266
0.65660722
0.65676092
0.65706712
0.65749754
0.65782483
0.65795735
0.6581725
0.6584589
0.65878944
0.65912069
0.65948726
0.66013804
0.66068924
0.66107003
0.66187111
0.66174426
0.66226355
0.66454769
0.66355316
0.66255762
0.66574958
0.66876617
0.66450413
0.65909016
0.65486009
0.65494738
0.65492707
0.6548967
0.65500402
0.65520849
0.65545205
0.65572381
0.65597956
0.65618902
0.65638544
0.65655828
0.65672478
0.65707204
0.65750954
0.65780149
0.65791615
0.65815011
0.65844203
0.6587685
0.65911259
0.65949186
0.6601438
0.66069399
0.66107647
0.66186863
0.66173602
0.66227772
0.66455324
0.66353955
0.66256107
0.6657902
0.66875935
0.66444881
0.65485342
0.65473722
0.65480161
0.65486015
0.65484615
0.6548263
0.65493936
0.65516364
0.65541418
0.65567687
0.65592511
0.65613321
0.6563318
0.65650523
0.6566946
0.65707857
0.65751557
0.65776909
0.65786517
0.65812372
0.65842096
0.65875275
0.65910399
0.65949481
0.66015288
0.6606982
0.6610805
0.6618652
0.66172755
0.66229234
0.6645582
0.66352517
0.66256454
0.66583122
0.6687516
0.66439321
0.65472831
0.654842
0.65493796
0.65490412
0.65478587
0.65478104
0.65479194
0.65478416
0.65479528
0.65490903
0.65514022
0.65538963
0.65563943
0.65587301
0.65608081
0.65628289
0.65645892
0.65668459
0.65710021
0.65752539
0.65773728
0.65782423
0.65810204
0.65840401
0.65873262
0.65909655
0.65950023
0.66015927
0.66070277
0.66108646
0.66186279
0.66171935
0.66230716
0.66456352
0.6635108
0.6625689
0.66587282
0.66874301
0.66433734
0.65369186
0.65404416
0.65438896
0.65460042
0.65473658
0.65486124
0.6549002
0.65483878
0.65478367
0.65474172
0.65473936
0.65478146
0.65490687
0.65512494
0.65535556
0.65559022
0.6558152
0.65602411
0.65623108
0.65641453
0.65668534
0.65712376
0.6575235
0.65769439
0.65777757
0.65807828
0.65838389
0.65871764
0.6590889
0.65950394
0.6601688
0.6607061
0.66109022
0.66185936
0.66171134
0.66232234
0.66456808
0.66349592
0.66257317
0.66591474
0.66873347
0.66428122
0.65286358
0.6528543
0.65290468
0.6530075
0.6531344
0.65336608
0.65370983
0.65410328
0.65442539
0.6546052
0.65474334
0.65483602
0.65487183
0.65482363
0.65474205
0.65474293
0.65481748
0.65494384
0.6551325
0.65534239
0.65555548
0.65576576
0.65597855
0.65619266
0.65639034
0.65671255
0.65715992
0.65751666
0.65764698
0.65773901
0.65805802
0.65836696
0.65869899
0.65908314
0.65950973
0.6601758
0.66071036
0.66109551
0.6618573
0.66170323
0.66233742
0.66457311
0.66348143
0.66257814
0.66595722
0.66872301
0.66422486
0.65328241
0.65326372
0.65320797
0.65309906
0.65302953
0.65298276
0.65292095
0.65283427
0.65277743
0.65276643
0.65280807
0.65285423
0.65291201
0.65307745
0.65335338
0.65374893
0.65414446
0.65442761
0.65459965
0.65472193
0.65483356
0.65484646
0.65477813
0.65479079
0.65489127
0.65501332
0.65515628
0.65532678
0.65551976
0.65572222
0.6559389
0.65616347
0.65638463
0.65675089
0.6571929
0.6574925
0.65756839
0.65769305
0.65803569
0.65834784
0.65868571
0.65907729
0.65951395
0.6601857
0.66071272
0.66109906
0.66185399
0.66169537
0.66235266
0.66457745
0.66346675
0.66258319
0.666
0.66871153
0.66416825
0.65120635
0.65112527
0.65103535
0.65093077
0.650815
0.650639
0.65040533
0.65031115
0.6503679
0.6503859
0.65027888
0.64991126
0.64929634
0.6485409
0.64772949
0.64687052
0.64619953
0.64586225
0.64613516
0.64732431
0.64976504
0.65214551
0.65384237
0.6532347
0.65278514
0.65300005
0.65290108
0.6528554
0.65294622
0.65299874
0.65300101
0.6530597
0.65323152
0.65335674
0.65339592
0.65340178
0.65332929
0.65319206
0.65309536
0.65301301
0.65290657
0.65278833
0.65270929
0.65269402
0.65271954
0.65272251
0.65273101
0.65281659
0.65302469
0.65336703
0.65378367
0.65415853
0.65442406
0.65459387
0.65475127
0.65483381
0.65483494
0.65488775
0.65501105
0.65512136
0.65522875
0.65535677
0.65551891
0.65570959
0.65593174
0.65616903
0.65642064
0.65681414
0.65722715
0.65746063
0.65748548
0.65765705
0.65801986
0.65833107
0.65866968
0.65907356
0.65952009
0.66019311
0.66071654
0.66110372
0.66185232
0.66168717
0.66236771
0.66458236
0.66345239
0.66258908
0.66604326
0.66869905
0.65504839
0.65504974
0.65505546
0.65506541
0.65507976
0.65509113
0.65506888
0.65497954
0.65479943
0.65459194
0.65427422
0.65381417
0.65319166
0.65257013
0.65195925
0.65125635
0.65046183
0.64967635
0.64901444
0.6485558
0.64840364
0.64857044
0.6497842
0.6515808
0.65272086
0.65320673
0.65334227
0.65298283
0.65306948
0.65327954
0.65294596
0.65283142
0.65298371
0.65307913
0.65306928
0.653111
0.65328922
0.65342249
0.65350667
0.65351071
0.65345095
0.65334351
0.65322857
0.6531186
0.65296941
0.6528014
0.65268083
0.65263044
0.65262024
0.65260145
0.65258827
0.65261287
0.6527272
0.65300027
0.65337957
0.653802
0.6541442
0.6544333
0.65464228
0.65477607
0.654863
0.65498517
0.6551431
0.65525344
0.65532521
0.65540918
0.65554738
0.65572975
0.65595663
0.65620752
0.65648796
0.65687815
0.65724188
0.65741767
0.65739002
0.65761797
0.6580019
0.65831331
0.65865841
0.65907001
0.65952547
0.66020327
0.6607178
0.66110694
0.66184928
0.66167922
0.66238273
0.66458691
0.66343763
0.66259535
0.66608679
0.66868549
0.65706754
0.65707335
0.65707046
0.65705686
0.6570287
0.65697919
0.65689554
0.65675359
0.65652817
0.6562055
0.65570823
0.65512396
0.65457331
0.65395389
0.65322614
0.65237741
0.65149156
0.65057318
0.64997905
0.64938323
0.64887774
0.64854063
0.64857076
0.64872832
0.64925248
0.65038729
0.65147321
0.6523023
0.65216046
0.65239465
0.65319279
0.65347695
0.65334336
0.65347779
0.65351367
0.65348022
0.65343327
0.65331165
0.65330706
0.65347543
0.6535405
0.65352221
0.65351169
0.65348125
0.65341488
0.65333761
0.65323524
0.65308196
0.65288602
0.65272831
0.65262837
0.65255532
0.65248324
0.65245733
0.65244896
0.65249534
0.65267245
0.65297731
0.6534082
0.65381826
0.65420153
0.65452413
0.65469972
0.65484854
0.65504881
0.65525226
0.65538718
0.65546211
0.65552224
0.65563596
0.65581238
0.65604013
0.6562979
0.65658981
0.65694749
0.65724011
0.65737027
0.65730257
0.65758891
0.65799273
0.65829703
0.65864608
0.65906838
0.65953233
0.66021127
0.66072112
0.66111085
0.66184776
0.66167101
0.66239781
0.66459198
0.66342281
0.66260244
0.6661308
0.66867088
0.65655516
0.65649423
0.65642402
0.65634422
0.656256
0.6561561
0.65603731
0.65588812
0.6556897
0.65540895
0.65498238
0.6542787
0.65311923
0.65171471
0.65068132
0.64985073
0.64912186
0.64859762
0.64818348
0.64784303
0.64771631
0.64772987
0.64784951
0.64780921
0.64757977
0.64734465
0.64730304
0.64757448
0.64841782
0.64952432
0.65148723
0.65276701
0.65263642
0.65333464
0.65309697
0.65325869
0.65351233
0.65356554
0.6535037
0.65344908
0.65338239
0.65339575
0.65349476
0.65352597
0.65347861
0.65343931
0.65343833
0.6534207
0.65339461
0.65332782
0.65321022
0.65303372
0.65285006
0.65268365
0.65254523
0.65241587
0.65233805
0.65231211
0.6523128
0.65240876
0.65261152
0.65299195
0.65343307
0.65388662
0.65433317
0.65460918
0.65479946
0.65505485
0.65530395
0.65547469
0.65557678
0.6556458
0.65575833
0.65593412
0.65616067
0.65641204
0.65669059
0.65699068
0.65721147
0.65727854
0.65721002
0.65755729
0.65797916
0.65828107
0.65863655
0.65906717
0.65953965
0.6602217
0.66072133
0.66111356
0.66184502
0.66166316
0.66241271
0.6645967
0.66340738
0.66260983
0.66617515
0.66865515
0.65466494
0.65460012
0.65452791
0.65444702
0.65435579
0.65425211
0.65413311
0.65399485
0.65383163
0.65363497
0.6533953
0.65310009
0.65273129
0.65226164
0.65164788
0.65082107
0.64968224
0.64824295
0.64706997
0.64646153
0.64604673
0.64588838
0.64602672
0.64642245
0.6470046
0.64737784
0.64731614
0.64686193
0.64615711
0.64539644
0.64480589
0.64446134
0.64454408
0.64559266
0.64754789
0.65060875
0.65268774
0.6530013
0.65262388
0.65237636
0.65291207
0.65304161
0.65311926
0.65318931
0.65325223
0.65330645
0.65338499
0.65342458
0.65342925
0.65338363
0.65334515
0.65336856
0.65339768
0.6533956
0.65335746
0.65328278
0.65316349
0.65301133
0.65282568
0.65262087
0.65240329
0.65227085
0.65219263
0.65217309
0.65220589
0.65232631
0.65262235
0.65303278
0.65351625
0.65406836
0.65446579
0.65473829
0.6550184
0.65529367
0.65550427
0.65565876
0.65576723
0.65589759
0.65608222
0.65630042
0.65653052
0.65677105
0.65700737
0.65717279
0.65716327
0.65712626
0.65753329
0.65797276
0.65826547
0.65862731
0.65906776
0.65954739
0.66023063
0.66072402
0.66111685
0.66184361
0.66165526
0.66242792
0.66460228
0.66339172
0.6626178
0.66621996
0.66863828
0.6525787
0.65252799
0.65247092
0.65240685
0.65233501
0.6522545
0.65216426
0.65206322
0.65195037
0.65182455
0.65168435
0.65152816
0.65135401
0.65115952
0.65094169
0.65069677
0.65041996
0.65010512
0.6497442
0.64932617
0.64883523
0.64824732
0.64752003
0.64658495
0.64545643
0.64462658
0.64447462
0.64479667
0.64548248
0.64621161
0.64664033
0.6467279
0.64640446
0.6456538
0.64478375
0.64380131
0.64277562
0.64188063
0.64147803
0.64223158
0.64358921
0.64554623
0.64795953
0.65114311
0.65255756
0.65254451
0.65268553
0.65278034
0.65274718
0.6528606
0.65304705
0.65321176
0.65333176
0.65340502
0.65336075
0.65330791
0.6532715
0.65326246
0.65330235
0.6533527
0.65334716
0.65332891
0.65329353
0.65324178
0.65314029
0.65297937
0.65277726
0.65250299
0.65227311
0.65212615
0.65204464
0.65205452
0.65211645
0.6523287
0.65266359
0.65311732
0.65371345
0.65424697
0.65463439
0.65496098
0.6552403
0.65546568
0.65566339
0.65582783
0.65599585
0.65619349
0.65640372
0.65660357
0.65680116
0.65698481
0.65711644
0.65700949
0.65704425
0.65750378
0.65796311
0.6582514
0.65861838
0.65906844
0.65955689
0.66024119
0.66072338
0.66111928
0.66184127
0.66164786
0.6624428
0.66460715
0.6633754
0.66262596
0.66626499
0.65171955
0.65172876
0.6517303
0.6517223
0.65170141
0.65166563
0.65161374
0.65154699
0.65146872
0.65138362
0.65129602
0.65120909
0.65112446
0.65104265
0.65096346
0.65088638
0.65081071
0.65073576
0.65066079
0.65058509
0.65050792
0.65042858
0.65034631
0.65026035
0.65017002
0.65007468
0.64997367
0.64986627
0.64975175
0.64962912
0.6494975
0.64935623
0.64920428
0.6490405
0.64886362
0.64867211
0.64846413
0.64823749
0.64798952
0.64771691
0.64741558
0.64708035
0.64670528
0.6462845
0.64581339
0.64529216
0.64472789
0.6441426
0.6436612
0.64354672
0.64393586
0.64439118
0.64471422
0.64472387
0.64447275
0.6438946
0.64302327
0.64210702
0.64115065
0.64020335
0.6392958
0.63898732
0.63965115
0.64037716
0.64281547
0.64659841
0.65134579
0.65361145
0.65379832
0.65343947
0.65314613
0.65323398
0.65339312
0.65339197
0.65336428
0.65339122
0.65337646
0.65327465
0.65319455
0.65317744
0.6531792
0.65322567
0.65327983
0.65327008
0.65325365
0.65324753
0.65324098
0.65319545
0.65310306
0.65292816
0.6526714
0.65242003
0.65215433
0.65198769
0.65193207
0.65197823
0.65212342
0.65237509
0.65276149
0.65330268
0.65392387
0.6544675
0.65486641
0.65516805
0.6554
0.65561638
0.65582725
0.6560336
0.65624619
0.65644642
0.65661979
0.65678508
0.65694177
0.65703638
0.65685704
0.65697936
0.65748913
0.65795961
0.65823544
0.65861154
0.6590715
0.65956525
0.66025087
0.66072524
0.66112278
0.66184013
0.66164056
0.66245813
0.66461329
0.66335868
0.66263469
0.6663102
0.64997405
0.64997159
0.6499658
0.64995601
0.64994075
0.64991876
0.64988826
0.64984818
0.64979803
0.64973884
0.64967243
0.64960119
0.64952718
0.64945203
0.64937664
0.64930149
0.64922657
0.64915176
0.64907675
0.64900119
0.64892463
0.64884665
0.64876681
0.64868465
0.64859973
0.64851159
0.64841975
0.64832374
0.64822305
0.64811717
0.64800576
0.64788828
0.6477639
0.64763201
0.64749188
0.64734267
0.64718348
0.64701336
0.64683119
0.64663575
0.64642571
0.64619963
0.64595604
0.64569336
0.64540991
0.64510389
0.64477228
0.64441533
0.64404343
0.6436699
0.64330298
0.64315376
0.64314119
0.64299621
0.642674
0.64208976
0.64136428
0.64061339
0.64002671
0.63957103
0.63923296
0.63896534
0.63911575
0.63959111
0.64077838
0.64373874
0.64864121
0.65282947
0.65455814
0.65445069
0.65385966
0.65352777
0.65356103
0.65362187
0.65353754
0.65343565
0.65343008
0.65334501
0.65316752
0.65307909
0.65310405
0.65312452
0.65314544
0.65317278
0.65316578
0.65314459
0.65316272
0.65318397
0.65319244
0.65316441
0.6530508
0.6528499
0.6526123
0.65230549
0.65201192
0.65187064
0.65187436
0.65199141
0.65217399
0.652481
0.6529092
0.65351759
0.65420042
0.65469877
0.65503525
0.65529538
0.65553453
0.65576895
0.65599997
0.65622272
0.65641778
0.65657676
0.65673265
0.65688453
0.65688057
0.65669323
0.65692475
0.6574726
0.65795299
0.65822229
0.65860364
0.65907379
0.65957658
0.66026111
0.66072389
0.66112495
0.66183826
0.66163387
0.66247296
0.66461825
0.66334115
0.66264376
0.66635531
0.65113148
0.65112506
0.65111043
0.65108654
0.65105207
0.65100583
0.65094724
0.6508771
0.65079776
0.65071258
0.65062473
0.65053659
0.65044969
0.65036486
0.65028238
0.65020223
0.65012416
0.6500478
0.64997274
0.64989854
0.64982468
0.6497507
0.64967616
0.64960059
0.64952358
0.64944474
0.64936368
0.64928004
0.64919348