/*--------------------------------*- C++ -*----------------------------------*\
| =========                 |                                                 |
| \\      /  F ield         | OpenFOAM: The Open Source CFD Toolbox           |
|  \\    /   O peration     | Version:  2506                                  |
|   \\  /    A nd           | Website:  www.openfoam.com                      |
|    \\/     M anipulation  |                                                 |
\*---------------------------------------------------------------------------*/
FoamFile
{
    version     2.0;
    format      ascii;
    arch        "LSB;label=32;scalar=64";
    class       volScalarField;
    location    "0.003";
    object      omega;
}
// * * * * * * * * * * * * * * * * * * * * * * * * * * * * * * * * * * * * * //

dimensions      [0 0 -1 0 0 0 0];

internalField   nonuniform List<scalar> 
13761
(
72652.934
65151.944
58251.083
51969.242
46333.285
41367.262
37083.165
33476.417
30526.342
28197.753
26442.976
25201.553
24396.251
23927.085
23671.5
23508.443
23390.839
23497.396
24564.508
25954.366
23432.533
21251.812
20946.622
20886.93
2.8106566e+08
47098206
14998160
6643306
3585164.4
2219483.6
1522616.5
1123749.1
869387.69
693043.95
564414.42
467881.56
394077.01
336722.27
291415.92
255025.31
225298.17
200605.14
179761.2
161887.39
146322.73
132574.17
120269.54
109124.8
98928.23
89524.832
80808.409
72715.719
65219.301
58320.353
52038.849
46401.959
41433.627
37145.644
33533.368
30576.284
28239.59
26476.183
25226.361
24413.829
23939.642
23682.174
23520.92
23409.488
23531.526
24648.424
26034.485
23419.274
21241.72
20945.462
2.8119763e+08
47122809
15006907
6648789.5
3590200.5
2224680.4
1527731.7
1128311.8
873133.81
695991.7
566717.68
469702.35
395539.46
337918.16
292408.99
255859.72
226004.97
201206.41
180273.08
162322.05
146689.86
132881.92
120525.32
109335.74
99101.391
89667.252
80926.965
72816.805
65308.42
58401.753
52115.304
46474.741
41502.714
37210.113
33591.864
30627.443
28282.38
26510.15
25251.829
24432.071
23952.957
23693.729
23534.347
23429.094
23566.625
24733.017
26107.533
23401.394
2.813153e+08
47144604
15014615
6653830.5
3595032.3
2229774.2
1532769.7
1132797.8
876803.29
698870.19
568962.73
471476.81
396970.76
339092.65
293388.78
256687.33
226709.59
201808.58
180787.67
162760.25
147060.63
133193.01
120783.96
109549.08
99276.653
89811.699
81047.692
72920.366
65400.404
58486.394
52195.249
46551.061
41575.167
37277.592
33652.893
30680.624
28326.726
26545.321
25278.302
24451.283
23967.339
23706.504
23549.119
23450.185
23602.721
24816.717
2.8141422e+08
47161135
15020765
6658223
3599536.9
2234681.3
1537693.8
1137213.9
880435.12
701737.51
571215.66
473272.33
398430.7
340302.75
294406.86
257553.34
227450.94
202444.62
181332.48
163224.68
147453.6
133522.51
121057.7
109774.76
99462.164
89964.945
81176.308
73031.294
65499.447
58577.835
52281.653
46633.338
41652.897
37349.536
33717.527
30736.606
28373.216
26582.175
25306.23
24471.959
23983.316
23721.07
23565.891
2.8154921e+08
47185164
15029436
6663690.3
3604603.6
2239903
1542797.6
1141734.5
884133.8
704656.43
573516.06
475114.69
399936.47
341556.48
295464.31
258453.91
228221.64
203104.5
181895.72
163702.47
147855.41
133857.13
121333.75
110000.94
99647.288
90117.689
81304.821
73142.739
65599.68
58671.079
52370.303
46718.061
41733.016
37423.589
33783.878
30793.943
28420.869
26620.138
25335.381
2.8166079e+08
47202938
15036155
6668385.9
3609340.3
2245025.5
1547921.2
1146332.8
887936.73
707687.18
575924.59
477054.46
401525.91
342879.01
296577.81
259397.92
229024
203785.42
182470.77
164184.35
148255.3
134185.58
121601.14
110217.79
99824.042
90264.274
81429.681
73251.207
65697.293
58762.252
52457.647
46802.284
41813.31
37498.263
33851.097
2.8179044e+08
47225342
15044260
6673702.9
3614434
2250379.7
1553198.1
1151029.3
891806.25
710770.01
578378.12
479034.74
403151.65
344233.18
297716.13
260359.64
229837.04
204470.29
183043.55
164658.63
148643.5
134499.84
121854
110422.67
99995.662
90419.282
3.1295599e+08
52325708
16737616
7539528.6
4220270.9
2743108.1
1959215
1476693
1150668.5
919111.38
749326.44
621658.63
523542.36
446608.18
385153.95
335229.69
294047.76
259610.43
230466.49
205529.98
183970.14
165152.89
148583.79
133868.78
120695.69
108814.59
98028.163
88185.131
79174.234
70920.809
63381.908
56539.523
50392.951
44948.801
40212.08
36180.533
32840.286
30164.474
28112.979
26630.672
25642.173
25044.147
24704.065
24490.28
24372.658
24661.329
26544.937
26945.626
23035.362
3.1294474e+08
52321085
16736291
7539175.2
4220347.3
2743384.9
1959568.6
1477067.3
1151041.6
919472.64
749668.42
621975.61
523830.4
446865.05
385378.98
335423.65
294212.49
259748.55
230581.13
205624.48
184047.79
165216.75
148636.57
133912.77
120732.72
108846.08
98055.142
88208.303
79194.063
70937.59
63395.838
56550.765
50401.685
44955.254
40216.533
36183.312
32841.739
30164.95
28112.803
26630.133
25641.508
25043.536
24703.635
24490.174
24373.306
24664.243
26553.966
26939.711
23026.433
21643.151
21610.362
21643.828
21667.948
21671.949
21674.172
21685.736
21664.314
21617.216
21641.379
21584.368
21415.166
21491.285
21638.751
21463.283
21284.756
21512.073
21896.056
22074.277
21909
21615.694
21529.181
21576.266
21515.743
21384.047
21341.547
21402.166
21483.965
21552.363
21560.703
21441.075
21462.008
21667.842
21774.307
21691.949
21725.151
21989.113
22108.061
21867.828
21641.925
21654.556
3.1291822e+08
52315810
16734813
7538798.8
4220448.1
2743701.2
1959962.2
1477477.9
1151447
919862.75
750036.03
622315.05
524137.61
447137.7
385616.53
335627.07
294383.95
259891.07
230698.27
205719.97
184125.31
165279.71
148687.99
133955.15
120768.09
108875.99
98080.711
88230.302
79212.982
70953.719
63409.347
56561.773
50410.322
44961.695
40221.018
36186.14
32843.246
30165.486
28112.706
26629.709
25641.011
25043.143
24703.431
24490.205
24373.832
24666.425
26560.362
26929.342
23015.887
21641.206
21608.597
21641.993
21666.022
21669.977
21672.183
21683.801
21662.509
21615.502
21639.7
21582.858
21413.772
21489.664
21637.1
21462.163
21283.792
21510.151
21893.385
22071.388
21906.625
21614.216
21528.024
21574.834
21514.327
21383.025
21340.721
21401.169
21482.59
21550.908
21559.291
21440.02
21460.624
21665.68
21771.909
21689.996
21723.019
21986.001
22104.631
21865.425
21640.288
21652.739
21661.323
21540.849
21440.232
21417.276
21407.289
21380.811
21340.098
21310.833
21299.698
3.1290799e+08
52311495
16733631
7538580.8
4220665.3
2744109.8
1960424.9
1477935.5
1151882.4
920271.05
750414.12
622660.02
524447.16
447410.61
385852.92
335828.35
294552.58
260030.25
230811.68
205811.48
184198.7
165338.49
148735.23
133993.46
120799.55
108902.21
98102.868
88249.204
79229.145
70967.44
63420.787
56571.031
50417.491
44966.913
40224.485
36188.117
32844.044
30165.435
28112.134
26628.918
25640.246
25042.559
24703.071
24490.042
24374.038
24668.059
26565.755
26917.791
23004.895
21639.232
21606.968
21640.31
21664.243
21668.155
21670.346
21682.016
21660.851
21613.926
21638.166
21581.476
21412.485
21488.186
21635.596
21461.172
21282.946
21508.378
21890.916
22068.653
21904.391
21612.881
21527.003
21573.542
21513.042
21382.138
21340.038
21400.307
21481.359
21549.603
21558.02
21439.104
21459.387
21663.669
21769.664
21688.187
21721.032
21983.043
22101.342
21863.15
21638.767
21651.061
21659.463
21539.499
21439.231
21416.296
21406.329
21379.968
21339.417
21310.252
21299.152
21293.169
21279.461
21269.955
21281.186
21298.146
3.1289601e+08
52307518
16732600
7538484.4
4220997.2
2744624.1
1960975.6
1478461.2
1152368.1
920715.51
750817.96
623022.99
524768.89
447691.42
386094.01
336031.91
294721.65
260168.52
230923.18
205900.34
184268.92
165393.69
148778.63
134027.74
120826.89
108924.28
98120.914
88264.108
79241.49
70977.59
63428.958
56577.358
50422.093
44969.932
40226.107
36188.58
32843.622
30164.422
28110.821
26627.568
25639.066
25041.665
24702.455
24489.628
24373.974
24669.442
26571.198
26906.186
22993.554
21637.255
21605.468
21638.763
21662.597
21666.465
21668.638
21680.366
21659.319
21612.466
21636.756
21580.199
21411.292
21486.846
21634.226
21460.279
21282.21
21506.764
21888.63
22066.062
21902.266
21611.657
21526.104
21572.38
21511.871
21381.366
21339.482
21399.574
21480.264
21548.433
21556.877
21438.314
21458.289
21661.803
21767.564
21686.505
21719.177
21980.235
22098.192
21861
21637.359
21649.53
21657.75
21538.286
21438.372
21415.464
21405.528
21379.279
21338.891
21309.817
21298.757
21292.633
21278.996
21269.505
21280.686
21297.578
21310.887
21316.063
21311.162
3.1288708e+08
52304098
16731790
7538545.7
4221477.8
2745274.7
1961639.2
1479072.8
1152916.2
921204.62
751253.31
623407.94
525105.67
447982.19
386341.33
336238.92
294892.1
260306.61
231033.36
205987.02
184336.28
165445.54
148818.26
134057.92
120849.85
108941.76
98134.246
88274.246
79249.112
70983.165
63432.804
56579.707
50423.139
44969.863
40225.13
36186.923
32841.525
30162.129
28108.562
26625.541
25637.414
25040.435
24701.577
24488.978
24373.692
24670.736
26577.232
26894.786
22981.628
21635.203
21604.058
21637.304
21661.037
21664.858
21667.004
21678.799
21657.86
21611.071
21635.423
21578.975
21410.15
21485.611
21632.948
21459.424
21281.543
21505.288
21886.48
22063.573
21900.188
21610.475
21525.276
21571.305
21510.767
21380.66
21339.006
21398.935
21479.265
21547.353
21555.821
21437.604
21457.291
21660.047
21765.568
21684.908
21717.416
21977.554
22095.153
21858.947
21636.047
21648.117
21656.197
21537.217
21437.653
21414.778
21404.879
21378.735
21338.506
21309.518
21298.499
21292.254
21278.678
21269.206
21280.338
21297.169
21310.249
21315.437
21310.561
21309.638
21308.826
21303.45
3.1288335e+08
52301513
16731303
7538818
4222146.7
2746096.5
1962443.8
1479791.5
1153542.3
921749.3
751727.69
623820.02
525461.07
448285.37
386596.5
336450.42
295064.56
260444.86
231142.31
206071.43
184400.55
165493.64
148853.61
134083.35
120867.66
108953.77
98141.836
88278.474
79250.771
70982.852
63430.982
56576.748
50419.358
44965.545
40220.535
36182.29
32837.074
30158.05
28105.012
26622.635
25635.197
25038.856
24700.468
24488.138
24373.257
24672.126
26584.631
26883.615
22968.547
21632.986
21602.686
21635.873
21659.506
21663.275
21665.382
21677.255
21656.408
21609.683
21634.109
21577.742
21409.009
21484.44
21631.708
21458.534
21280.891
21503.924
21884.414
22061.132
21898.083
21609.257
21524.459
21570.262
21509.678
21379.959
21338.553
21398.34
21478.313
21546.31
21554.8
21436.915
21456.341
21658.358
21763.631
21683.349
21715.705
21974.963
22092.184
21856.95
21634.791
21646.772
21654.766
21536.253
21437.034
21414.191
21404.328
21378.284
21338.211
21309.308
21298.332
21292.013
21278.492
21269.041
21280.126
21296.899
21309.781
21314.976
21310.131
21309.011
21308.233
21302.895
21304.22
21307.077
21302.635
3.1288485e+08
52299752
16731163
7539357.4
4223077
2747164.8
1963458.8
1480676.1
1154293.6
922386.49
752269.64
624281.09
525851.72
448613.59
386869.09
336673.62
295244.42
260587.28
231252.97
206155.69
184463.28
165539.09
148885.42
134104.55
120880.68
108960.52
98143.812
88276.846
79246.453
70976.578
63423.358
56568.29
50410.51
44956.69
40211.997
36174.333
32829.899
30151.803
28099.783
26618.453
25632.017
25036.526
24698.726
24486.718
24372.307
24673.321
26592.958
26871.483
22953.919
21630.584
21601.298
21634.414
21657.946
21661.658
21663.719
21675.675
21654.903
21608.247
21632.758
21576.435
21407.822
21483.296
21630.46
21457.543
21280.214
21502.657
21882.398
22058.688
21895.889
21607.938
21523.604
21569.207
21508.555
21379.213
21338.076
21397.746
21477.365
21545.257
21553.763
21436.196
21455.396
21656.698
21761.705
21681.785
21714
21972.417
22089.246
21854.962
21633.542
21645.438
21653.394
21535.328
21436.451
21413.638
21403.811
21377.862
21337.943
21309.128
21298.203
21291.86
21278.393
21268.963
21280.002
21296.72
21309.458
21314.66
21309.843
21308.561
21307.813
21302.518
21303.617
21306.476
21302.097
21299.951
21305.74
3.1290379e+08
52300766
16731933
7540361.9
4224327.1
2748487.2
1964682.3
1481729.8
1155180.1
923131.34
752897.87
624811.97
526299.43
448988.96
387180.97
336929.82
295452.12
260753.26
231383.63
206256.89
184540.32
165596.59
148927.3
134134.05
120900.42
108972.61
98149.909
88278.271
79244.276
70971.685
63416.505
56560.135
50401.631
44947.585
40203.08
36165.933
32822.258
30145.082
28094.071
26613.768
25628.298
25033.617
24696.374
24484.683
24370.736
24673.712
26599.898
26858.834
22939.846
21628.225
21599.842
21632.868
21656.308
21659.975
21661.986
21674.027
21653.336
21606.762
21631.344
21575.075
21406.624
21482.108
21629.133
21456.496
21279.53
21501.365
21880.28
22056.18
21893.636
21606.567
21522.699
21568.1
21507.389
21378.421
21337.549
21397.112
21476.377
21544.155
21552.679
21435.423
21454.417
21655.005
21759.756
21680.19
21712.277
21969.861
22086.298
21852.957
21632.273
21644.07
21652.019
21534.391
21435.855
21413.067
21403.276
21377.419
21337.655
21308.933
21298.061
21291.736
21278.321
21268.916
21279.908
21296.573
21309.224
21314.43
21309.64
21308.256
21307.536
21302.282
21303.201
21306.054
21301.741
21299.441
21305.196
21312.107
21308.933
3.1293204e+08
52303358
16733202
7541573.5
4225679.1
2749872.2
1965951.3
1482819.2
1156095.3
923900
753547.15
625362.64
526766.68
449384.06
387512.9
337206.31
295680.21
260939.52
231534.2
206377.45
184635.95
165671.73
148985.73
134178.91
120934.26
108997.46
98167.423
88289.774
79250.869
70974.311
63415.998
56557.251
50397.058
44941.94
40196.9
36159.662
32816.243
30139.575
28089.236
26609.686
25624.965
25030.938
24694.17
24482.782
24369.297
24674.002
26605.566
26846.344
22927.353
21626.069
21598.341
21631.249
21654.603
21658.238
21660.197
21672.319
21651.723
21605.244
21629.877
21573.685
21405.437
21480.856
21627.715
21455.423
21278.839
21499.997
21878.017
22053.598
21891.36
21605.18
21521.745
21566.931
21506.185
21377.59
21336.964
21396.422
21475.33
21542.988
21551.536
21434.592
21453.385
21653.263
21757.765
21678.563
21710.515
21967.262
22083.324
21850.922
21630.964
21642.646
21650.6
21533.408
21435.212
21412.446
21402.691
21376.928
21337.32
21308.689
21297.875
21291.592
21278.228
21268.848
21279.796
21296.411
21309.017
21314.225
21309.464
21308.034
21307.342
21302.129
21302.926
21305.774
21301.528
21299.127
21304.834
21311.517
21308.337
21299.693
3.1296551e+08
52306824
16734755
7542927.8
4227126
2751327.2
1967270.1
1483937.7
1157021.3
924666.13
754185.51
625898.2
527217.64
449763.7
387831.35
337471.93
295900.26
261120.56
231682.22
206497.85
184733.46
165750.44
149049.04
134229.59
120974.52
109029.05
98191.699
88307.839
79263.638
70982.583
63420.509
56558.706
50396.138
44939.293
40193.122
36155.275
32811.679
30135.172
28085.235
26606.237
25622.128
25028.674
24692.356
24481.289
24368.283
24674.6
26610.569
26833.968
22915.902
21624.048
21596.826
21629.6
21652.866
21656.474
21658.381
21670.576
21650.088
21603.712
21628.386
21572.287
21404.248
21479.557
21626.255
21454.331
21278.122
21498.575
21875.665
22050.989
21889.079
21603.78
21520.752
21565.718
21504.956
21376.729
21336.328
21395.684
21474.234
21541.769
21550.343
21433.707
21452.308
21651.485
21755.733
21676.907
21708.714
21964.63
22080.322
21848.852
21629.615
21641.172
21649.123
21532.366
21434.513
21411.767
21402.048
21376.38
21336.929
21308.392
21297.634
21291.399
21278.087
21268.731
21279.639
21296.204
21308.789
21313.997
21309.266
21307.835
21307.169
21301.999
21302.731
21305.574
21301.396
21298.953
21304.607
21311.098
21307.901
21299.106
21291.748
21288.003
3.1300521e+08
52311349
16736680
7544503.3
4228753.3
2752940
1968719.2
1485153.8
1158012.8
925470.55
754841.7
626437.3
527662.79
450131.93
388135.52
337722.26
296105.28
261287.67
231817.91
206607.79
184822.52
165822.67
149107.74
134277.34
121013.32
109060.39
98216.709
88327.367
79278.357
70993.073
63427.316
56562.378
50397.244
44938.41
40190.815
36152.068
32808.032
30131.461
28081.75
26603.177
25619.598
25026.681
24690.811
24480.085
24367.564
24675.396
26615.057
26821.529
22904.986
21622.102
21595.31
21627.955
21651.129
21654.707
21656.567
21668.827
21648.457
21602.19
21626.904
21570.901
21403.06
21478.238
21624.792
21453.244
21277.384
21497.114
21873.293
22048.393
21886.821
21602.387
21519.744
21564.487
21503.722
21375.855
21335.665
21394.917
21473.112
21540.523
21549.126
21432.794
21451.203
21649.69
21753.684
21675.237
21706.9
21961.984
22077.313
21846.762
21628.243
21639.666
21647.602
21531.275
21433.771
21411.042
21401.365
21375.787
21336.496
21308.053
21297.346
21291.153
21277.892
21268.564
21279.43
21295.945
21308.513
21313.721
21309.02
21307.609
21306.969
21301.845
21302.551
21305.39
21301.284
21298.853
21304.456
21310.813
21307.603
21298.689
21291.169
21287.43
21286.716
3.1305118e+08
52317021
16739016
7546322
4230585.1
2754742.2
1970333.7
1486503.2
1159103.6
926344.14
755542.68
627002.83
528121.11
450504.09
388437.41
337966.35
296301.74
261445.09
231943.63
206708.08
184902.64
165886.93
149159.59
134319.44
121047.65
109088.4
98239.433
88345.525
79292.475
71003.57
63434.572
56566.784
50399.226
44938.431
40189.357
36149.604
32804.996
30128.23
28078.627
26600.385
25617.272
25024.858
24689.431
24479.057
24367.022
24676.303
26619.191
26809.043
22894.356
21620.211
21593.81
21626.343
21649.418
21652.961
21654.784
21667.098
21646.854
21600.698
21625.452
21569.545
21401.881
21476.922
21623.351
21452.188
21276.641
21495.635
21870.956
22045.833
21884.609
21601.025
21518.75
21563.264
21502.503
21374.994
21335.002
21394.144
21471.989
21539.283
21547.914
21431.885
21450.094
21647.904
21751.645
21673.571
21705.1
21959.346
22074.324
21844.674
21626.868
21638.158
21646.057
21530.162
21433.006
21410.298
21400.663
21375.175
21336.048
21307.695
21297.033
21290.867
21277.66
21268.364
21279.185
21295.649
21308.19
21313.397
21308.723
21307.336
21306.725
21301.635
21302.342
21305.178
21301.144
21298.763
21304.315
21310.599
21307.378
21298.412
21290.776
21287.045
21286.141
21286.363
3.1310238e+08
52323743
16741738
7548382.4
4232627.6
2756745
1972128.6
1488002
1160310.6
927303.08
756303.5
627608.34
528604.59
450890.61
388746.03
338211.86
296496.06
261598.05
232063.52
206801.83
184976
165944.58
149205.21
134355.86
121076.98
109112.15
98258.657
88360.936
79304.557
71012.668
63440.974
56570.771
50401.113
44938.574
40188.145
36147.435
32802.253
30125.257
28075.712
26597.752
25615.064
25023.128
24688.136
24478.118
24366.568
24677.261
26623.133
26796.589
22883.861
21618.366
21592.336
21624.781
21647.753
21651.256
21653.054
21665.413
21645.297
21599.252
21624.044
21568.229
21400.721
21475.63
21621.952
21451.176
21275.916
21494.158
21868.693
22043.326
21882.455
21599.715
21517.792
21562.069
21501.313
21374.162
21334.365
21393.385
21470.891
21538.076
21546.733
21431.008
21449.005
21646.145
21749.64
21671.93
21703.335
21956.741
22071.371
21842.606
21625.513
21636.67
21644.518
21529.053
21432.244
21409.561
21399.968
21374.571
21335.609
21307.344
21296.72
21290.569
21277.415
21268.155
21278.932
21295.341
21307.839
21313.043
21308.391
21307.016
21306.435
21301.378
21302.081
21304.917
21300.955
21298.638
21304.139
21310.389
21307.158
21298.206
21290.524
21286.803
21285.76
21285.785
21286.272
21286.256
3.1315874e+08
52331501
16744828
7550677.1
4234883.2
2758952.5
1974110.6
1489659.7
1161643.8
928357.44
757133.54
628262.3
529120.74
451298.2
389067.31
338464.05
296692.84
261750.59
232181.04
206891.98
185045.02
165997.51
149246
134387.55
121101.82
109131.77
98274.186
88373.145
79313.956
71019.604
63445.706
56573.535
50402.156
44938.18
40186.626
36145.12
32799.467
30122.297
28072.836
26595.162
25612.894
25021.427
24686.865
24477.201
24366.137
24678.244
26627.041
26784.214
22873.373
21616.551
21590.897
21623.272
21646.141
21649.605
21651.387
21663.785
21643.796
21597.853
21622.683
21566.954
21399.583
21474.377
21620.601
21450.218
21275.213
21492.705
21866.517
22040.874
21880.362
21598.461
21516.879
21560.913
21500.161
21373.371
21333.768
21392.655
21469.831
21536.919
21545.599
21430.174
21447.952
21644.429
21747.68
21670.328
21701.618
21954.188
22068.462
21840.572
21624.191
21635.221
21643.004
21527.972
21431.504
21408.852
21399.3
21373.995
21335.2
21307.02
21296.429
21290.282
21277.183
21267.964
21278.698
21295.047
21307.486
21312.687
21308.054
21306.671
21306.122
21301.088
21301.776
21304.614
21300.722
21298.46
21303.909
21310.138
21306.899
21298.003
21290.338
21286.628
21285.521
21285.405
21285.689
21285.673
21286.244
3.1322079e+08
52340374
16748296
7553202.5
4237348
2761364.6
1976282.8
1491481.7
1163110
929514.55
758040
628971.29
529675.44
451731.97
389405.67
338726.75
296895.46
261905.68
232298.83
206980.82
185111.68
166047.39
149283.34
134415.58
121122.95
109147.75
98286.253
88382.15
79320.473
71024.022
63448.307
56574.553
50401.82
44936.733
40184.336
36142.263
32796.316
30119.103
28069.813
26592.484
25610.673
25019.696
24685.569
24476.259
24365.685
24679.243
26631.08
26771.934
22862.735
21614.739
21589.494
21621.807
21644.578
21648.007
21649.781
21662.214
21642.346
21596.493
21621.366
21565.717
21398.466
21473.169
21619.298
21449.302
21274.539
21491.286
21864.434
22038.472
21878.321
21597.257
21516.009
21559.803
21499.043
21372.618
21333.215
21391.96
21468.818
21535.814
21544.517
21429.387
21446.941
21642.757
21745.777
21668.768
21699.952
21951.698
22065.597
21838.575
21622.902
21633.819
21641.527
21526.931
21430.797
21408.182
21398.668
21373.456
21334.828
21306.734
21296.173
21290.027
21276.983
21267.807
21278.502
21294.787
21307.159
21312.358
21307.733
21306.332
21305.815
21300.797
21301.45
21304.293
21300.467
21298.238
21303.633
21309.834
21306.587
21297.76
21290.149
21286.451
21285.346
21285.167
21285.31
21285.294
21285.658
21286.234
3.1328668e+08
52350126
16752089
7555943
4240011.1
2763977
1978644.8
1493469.8
1164713.5
930779.85
759028.66
629740.78
530273.47
452196.01
389764.59
339002.92
297106.46
262065.5
232418.78
207070.01
185177.44
166095.5
149318.3
134440.82
121141.05
109160.59
98295.167
88388.084
79324.079
71025.756
63448.5
56573.472
50399.707
44933.83
40180.886
36138.51
32792.488
30115.419
28066.458
26589.591
25608.317
25017.876
24684.203
24475.25
24365.176
24680.264
26635.435
26759.69
22851.767
21612.903
21588.127
21620.375
21643.051
21646.453
21648.224
21660.69
21640.935
21595.159
21620.084
21564.507
21397.366
21472.005
21618.038
21448.412
21273.889
21489.922
21862.424
22036.124
21876.307
21596.085
21515.171
21558.732
21497.954
21371.893
21332.701
21391.301
21467.849
21534.757
21543.477
21428.639
21445.972
21641.126
21743.928
21667.244
21698.335
21949.267
22062.772
21836.612
21621.644
21632.461
21640.097
21525.927
21430.122
21407.552
21398.076
21372.951
21334.493
21306.485
21295.954
21289.811
21276.822
21267.694
21278.351
21294.573
21306.876
21312.073
21307.453
21306.024
21305.539
21300.531
21301.134
21303.986
21300.222
21297.999
21303.337
21309.488
21306.233
21297.463
21289.917
21286.231
21285.166
21284.989
21285.072
21285.056
21285.28
21285.645
21286.223
3.1335668e+08
52360745
16756179
7558880.6
4242865.8
2766786
1981195
1495626.3
1166458.8
932159.1
760105.38
630576.32
530919.74
452694.47
390147.52
339295.39
297328.13
262231.94
232542.44
207160.86
185243.36
166142.71
149351.6
134463.87
121156.58
109170.61
98301.129
88391.026
79324.741
71024.668
63446.063
56570.005
50395.486
44929.105
40175.908
36133.518
32787.709
30111.021
28062.585
26586.337
25605.717
25015.887
24682.702
24474.109
24364.553
24681.307
26640.283
26747.365
22840.238
21611.007
21586.789
21618.965
21641.55
21644.929
21646.697
21659.197
21639.547
21593.84
21618.827
21563.306
21396.273
21470.886
21616.814
21447.525
21273.259
21488.624
21860.482
22033.816
21874.303
21594.914
21514.357
21557.694
21496.881
21371.184
21332.217
21390.678
21466.916
21533.738
21542.469
21427.916
21445.037
21639.538
21742.124
21665.749
21696.757
21946.892
22059.979
21834.672
21620.41
21631.141
21638.708
21524.955
21429.473
21406.957
21397.515
21372.477
21334.188
21306.267
21295.766
21289.633
21276.698
21267.623
21278.243
21294.402
21306.644
21311.836
21307.223
21305.763
21305.311
21300.309
21300.852
21303.717
21300.011
21297.774
21303.052
21309.129
21305.866
21297.126
21289.633
21285.958
21284.941
21284.804
21284.889
21284.871
21285.042
21285.268
21285.631
21286.212
3.1342973e+08
52372084
16760533
7561998.5
4245903.9
2769786
1983930.6
1497950.5
1168347.6
933655.35
761273.96
631481.69
531617.69
453230.18
390556.62
339605.75
297561.57
262405.69
232670.18
207253.45
185309.35
166188.76
149382.85
134484.22
121168.94
109177.13
98303.379
88390.156
79321.588
71019.852
63440.051
56563.188
50388.216
44921.715
40168.664
36126.667
32781.435
30105.477
28057.866
26582.49
25602.724
25013.641
24681.014
24472.802
24363.806
24682.495
26646.087
26734.762
22827.714
21609.001
21585.48
21617.577
21640.069
21643.425
21645.183
21657.722
21638.164
21592.525
21617.586
21562.101
21395.18
21469.811
21615.62
21446.614
21272.639
21487.406
21858.603
22031.549
21872.283
21593.72
21513.551
21556.68
21495.813
21370.476
21331.749
21390.088
21466.012
21532.743
21541.481
21427.202
21444.132
21637.985
21740.354
21664.271
21695.21
21944.565
22057.218
21832.749
21619.193
21629.847
21637.351
21524.007
21428.844
21406.385
21396.976
21372.026
21333.903
21306.068
21295.602
21289.484
21276.603
21267.583
21278.17
21294.27
21306.458
21311.647
21307.04
21305.557
21305.135
21300.138
21300.62
21303.501
21299.851
21297.586
21302.803
21308.788
21305.515
21296.78
21289.314
21285.652
21284.664
21284.571
21284.691
21284.672
21284.853
21285.028
21285.255
21285.617
21286.199
3.135035e+08
52383804
16765086
7565301.7
4249151.5
2773012.3
1986888
1500476.5
1170411.2
935296.94
762559.17
632477.97
532384.79
453817.48
391003.52
339943.29
297814.17
262592.62
232806.65
207351.46
185378.31
166235.97
149413.92
134503.38
121179.37
109181.19
98302.825
88386.26
79315.294
71011.867
63430.967
56553.494
50378.309
44911.94
40159.324
36117.986
32773.594
30098.603
28052.032
26577.709
25598.936
25010.695
24678.672
24470.856
24362.451
24683.247
26652.142
26721.201
22814.059
21606.867
21584.187
21616.204
21638.599
21641.928
21643.664
21656.246
21636.77
21591.204
21616.347
21560.872
21394.078
21468.78
21614.45
21445.662
21272.033
21486.283
21856.781
22029.313
21870.226
21592.484
21512.744
21555.684
21494.742
21369.758
21331.289
21389.525
21465.131
21531.765
21540.502
21426.484
21443.257
21636.465
21738.61
21662.801
21693.687
21942.278
22054.484
21830.835
21617.985
21628.57
21636.016
21523.075
21428.228
21405.826
21396.451
21371.584
21333.63
21305.879
21295.45
21289.355
21276.526
21267.564
21278.119
21294.165
21306.311
21311.498
21306.899
21305.4
21305.007
21300.013
21300.441
21303.341
21299.744
21297.449
21302.601
21308.489
21305.206
21296.456
21288.995
21285.343
21284.357
21284.288
21284.443
21284.422
21284.645
21284.834
21285.014
21285.241
21285.601
21286.186
3.1358908e+08
52397711
16770329
7568915.9
4252589.5
2776396.3
1989999.1
1503155.9
1172621.6
937072.43
763961.71
633574.17
533235.46
454473.99
391507.56
340328.08
298106.01
262812.3
232970.63
207472.71
185466.96
166299.91
149459.2
134534.63
121200.08
109193.99
98309.661
88388.621
79314.312
71008.424
63425.724
56546.983
50371.009
44904.249
40151.58
36110.489
32766.578
30092.237
28046.426
26572.913
25594.93
25007.376
24675.857
24468.377
24360.465
24682.917
26656.558
26708.069
22801.42
21604.816
21582.892
21614.822
21637.127
21640.431
21642.13
21654.768
21635.385
21589.9
21615.115
21559.671
21393.032
21467.743
21613.263
21444.74
21271.474
21485.151
21854.888
22027.076
21868.196
21591.279
21511.949
21554.695
21493.685
21369.054
21330.835
21388.974
21464.255
21530.784
21539.526
21425.768
21442.4
21634.953
21736.871
21661.342
21692.177
21940.006
22051.771
21828.943
21616.794
21627.303
21634.694
21522.157
21427.621
21405.274
21395.932
21371.149
21333.358
21305.694
21295.303
21289.235
21276.457
21267.556
21278.08
21294.077
21306.191
21311.376
21306.788
21305.284
21304.919
21299.927
21300.312
21303.231
21299.686
21297.363
21302.451
21308.241
21304.948
21296.175
21288.703
21285.062
21284.051
21283.977
21284.148
21284.125
21284.386
21284.617
21284.814
21284.998
21285.226
21285.59
3.1367542e+08
52411911
16775586
7572464.4
4255935.6
2779699.7
1993062.6
1505822.7
1174845.6
938876.64
765399.38
634706.49
534120.59
455162.28
392040.63
340739.46
298422.39
263054.85
233156.06
207614.13
185574.6
166381.65
149521.11
134581.29
121234.97
109219.72
98328.221
88401.501
79322.662
71013.157
63427.59
56546.608
50368.909
44900.88
40147.382
36105.829
32761.782
30087.56
28042.073
26569.016
25591.546
25004.478
24673.344
24466.146
24358.671
24682.505
26659.918
26695.71
22790.332
21602.955
21581.633
21613.46
21635.678
21638.956
21640.603
21653.306
21634.023
21588.628
21613.902
21558.512
21392.05
21466.706
21612.066
21443.856
21270.962
21484.003
21852.921
22024.84
21866.203
21590.114
21511.171
21553.71
21492.648
21368.368
21330.386
21388.429
21463.381
21529.799
21538.552
21425.057
21441.554
21633.448
21735.131
21659.896
21690.673
21937.741
22049.079
21827.071
21615.617
21626.045
21633.377
21521.249
21427.02
21404.726
21395.413
21370.713
21333.084
21305.508
21295.153
21289.117
21276.387
21267.549
21278.044
21293.996
21306.087
21311.271
21306.697
21305.199
21304.859
21299.87
21300.221
21303.161
21299.667
21297.32
21302.345
21308.044
21304.743
21295.949
21288.461
21284.83
21283.777
21283.672
21283.832
21283.808
21284.082
21284.349
21284.587
21284.792
21284.981
21285.216
21286.173
3.1375864e+08
52425792
16780710
7575921.1
4259208.7
2782947.8
1996093.8
1508478.9
1177073.3
940691.14
766848.04
635847.36
535010.77
455852.41
392573.16
341148.99
298736.57
263295.56
233340.5
207755.66
185683.5
166465.78
149586.35
134632.07
121274.55
109250.5
98351.973
88419.543
79335.99
71022.546
63433.68
56549.96
50370.041
44900.274
40145.472
36103.039
32758.481
30084.074
28038.649
26565.839
25588.73
25002.047
24671.235
24464.288
24357.221
24682.3
26662.561
26683.617
22780.22
21601.229
21580.414
21612.133
21634.263
21637.509
21639.099
21651.871
21632.69
21587.387
21612.719
21557.394
21391.112
21465.686
21610.883
21442.998
21270.473
21482.851
21850.93
22022.627
21864.245
21588.979
21510.408
21552.733
21491.633
21367.699
21329.941
21387.888
21462.511
21528.812
21537.581
21424.348
21440.712
21631.954
21733.391
21658.463
21689.174
21935.484
22046.411
21825.212