/*--------------------------------*- C++ -*----------------------------------*\
| =========                 |                                                 |
| \\      /  F ield         | OpenFOAM: The Open Source CFD Toolbox           |
|  \\    /   O peration     | Version:  2506                                  |
|   \\  /    A nd           | Website:  www.openfoam.com                      |
|    \\/     M anipulation  |                                                 |
\*---------------------------------------------------------------------------*/
FoamFile
{
    version     2.0;
    format      ascii;
    arch        "LSB;label=32;scalar=64";
    class       volScalarField;
    location    "1.7";
    object      k;
}
// * * * * * * * * * * * * * * * * * * * * * * * * * * * * * * * * * * * * * //

dimensions      [0 2 -2 0 0 0 0];

internalField   nonuniform List<scalar> 
19257
(
11.243869
10.215975
9.572482
9.1316452
8.8056514
8.5533201
8.3520562
8.1881945
8.0525983
7.9389836
7.8429128
7.7608882
7.690277
7.6294525
7.5766289
7.5303654
7.4901593
7.4547594
7.4232975
7.3957749
7.3714727
7.3497382
7.3307251
7.3143478
7.3003834
7.2887908
7.2791596
7.2719286
7.2689288
7.2697791
7.275732
7.2883735
7.3088868
7.3342487
7.3644011
7.3992798
7.4418512
7.4937196
7.5574057
7.6338641
7.7263464
7.8478152
7.9850605
8.1801524
8.4030899
8.6934309
8.9244999
10.506364
10.663441
11.225409
10.247824
9.626318
9.1888812
8.8617034
8.6067657
8.402419
8.2353227
8.0966085
7.9799937
7.8811088
7.7965159
7.7234764
7.6603073
7.6053407
7.5571664
7.5150474
7.4779301
7.4449932
7.4160396
7.390408
7.3674587
7.3472053
7.3297601
7.314711
7.3021141
7.2915574
7.2831273
7.279042
7.2786384
7.2831391
7.2937973
7.3131654
7.3366654
7.3652779
7.399159
7.4383816
7.4863373
7.5485076
7.6208611
7.7158064
7.8221539
7.9553636
8.1818477
8.3823165
8.6047905
8.8814001
10.393846
10.354917
11.302253
10.34983
9.7196736
9.2742885
8.9399838
8.6783558
8.4679371
8.2952844
8.1515936
8.0304978
7.9275545
7.8393281
7.7629571
7.696697
7.6389849
7.588239
7.5437368
7.5045744
7.4697133
7.438855
7.4115819
7.3870744
7.3653543
7.3465736
7.3301406
7.3162521
7.3044099
7.295037
7.2895383
7.2874662
7.2901563
7.2992268
7.3166757
7.338049
7.364697
7.3973188
7.4354928
7.4814455
7.5357069
7.6052033
7.6899295
7.7973736
7.9448831
8.1176045
8.3041211
8.5222725
8.8923159
10.138915
10.114454
11.34325
10.425158
9.8033609
9.356323
9.0173121
8.7502813
8.534501
8.356707
8.2082463
8.0827838
7.9757882
7.8838673
7.8041014
7.7347123
7.6741081
7.6207066
7.5737704
7.5323424
7.4954124
7.4625958
7.4334808
7.4074481
7.3842207
7.3638646
7.3461662
7.3308441
7.3177528
7.3072934
7.300252
7.2967884
7.2983024
7.3050929
7.3204383
7.3404789
7.3652366
7.3954096
7.4320289
7.4749877
7.5320587
7.5973248
7.6800735
7.7866508
7.9081721
8.0917356
8.2705055
8.4658803
8.7544209
9.9585821
9.9269923
11.389762
10.50706
9.8922671
9.4432121
9.0995022
8.8269697
8.6055874
8.4224221
8.2689235
8.1387885
8.0274639
7.9315381
7.8481527
7.7753777
7.7116299
7.6554139
7.605788
7.5619048
7.5227386
7.487809
7.4567151
7.4289857
7.4041408
7.3820427
7.3629996
7.3463032
7.3317747
7.3202457
7.3117082
7.3064775
7.3061069
7.3116352
7.3245372
7.3428338
7.3665386
7.3949444
7.4296761
7.4714945
7.5206797
7.5859098
7.6646716
7.7637302
7.9067491
8.0618248
8.227759
8.416894
8.6997773
9.8041206
9.7831023
11.431269
10.585313
9.9809073
9.5317694
9.184254
8.9066599
8.6798333
8.4913373
8.3327241
8.1977843
8.0819683
7.9818531
7.8946868
7.8183418
7.751323
7.6920993
7.6395678
7.5930201
7.5515483
7.5144283
7.4812237
7.4516409
7.4250637
7.4012239
7.380448
7.3623798
7.3465735
7.3333912
7.3233217
7.3168791
7.3145243
7.3185766
7.3292876
7.3456791
7.3676547
7.3952353
7.4271565
7.4671914
7.5170743
7.5768695
7.6539338
7.7501254
7.8702937
8.0315978
8.1952125
8.3768259
8.6432868
9.638088
9.6727415
11.470338
10.661843
10.06943
9.6215545
9.2710468
8.9888676
8.756857
8.563103
8.3993602
8.259534
8.139107
8.0346553
7.9435313
7.8634703
7.7929906
7.7305989
7.6750474
7.6257262
7.5817715
7.5423196
7.506916
7.475349
7.4469315
7.4213565
7.3987516
7.3789578
7.361751
7.3472486
7.3356751
7.3275458
7.3235029
7.3260141
7.3340962
7.3493035
7.3695855
7.3950857
7.4255932
7.4635167
7.5099395
7.5698073
7.6429003
7.7363332
7.8648747
8.0096636
8.1661835
8.3422523
8.5931077
9.4986774
9.5877146
11.506004
10.734777
10.156052
9.7110914
9.3586293
9.0724991
8.8357199
8.6369363
8.4681444
8.3234477
8.198385
8.0895179
7.9943057
7.9104383
7.8363307
7.7706713
7.712097
7.6598622
7.613261
7.5713235
7.5336152
7.4998833
7.4695385
7.4422
7.4179231
7.3963998
7.3775069
7.3614765
7.3484302
7.3387607
7.3332631
7.3336506
7.3395264
7.353118
7.3720161
7.3955127
7.4242595
7.460135
7.5054731
7.5606023
7.6325037
7.7229421
7.8393253
7.9859018
8.1399793
8.3123877
8.5571412
9.386951
9.5225596
11.538577
10.803544
10.239836
9.7991525
9.4457981
9.1564844
8.9154295
8.7119438
8.5382724
8.3888073
8.2591102
8.1458476
8.0465036
7.9587721
7.8809939
7.8119516
7.7502769
7.6950604
7.6457089
7.6012593
7.5611819
7.5252548
7.4929341
7.4636497
7.4375399
7.414391
7.3938929
7.3762112
7.3616442
7.3504143
7.3436546
7.3410656
7.3459269
7.3577219
7.3746995
7.3963007
7.4239231
7.4574302
7.501144
7.5555329
7.6224281
7.710755
7.8278066
7.9673634
8.1170151
8.2859084
8.521654
9.2886615
9.4709867
11.56824
10.867912
10.319816
9.8844296
9.5312564
9.2395399
8.9947713
8.7869778
8.6087253
8.4546501
8.320447
8.2028874
8.0994109
8.0078546
7.9264205
7.8539357
7.7891278
7.7308728
7.6787413
7.6317971
7.5892701
7.5510917
7.5167371
7.4855647
7.4576103
7.4327006
7.410618
7.391324
7.3751514
7.3624057
7.3541026
7.3491474
7.3528423
7.3627218
7.3774965
7.3973445
7.4234039
7.455536
7.4954901
7.5485052
7.6155898
7.6991476
7.8127652
7.9487294
8.095738
8.261996
8.4947739
9.2194184
9.4305883
11.594645
10.926779
10.39458
9.9656031
9.6135913
9.3202195
9.0723911
8.8607143
8.6782749
8.5198844
8.3814033
8.2596944
8.1522201
8.0568945
7.971861
7.8959939
7.8280601
7.7668313
7.7119044
7.6624208
7.6175391
7.5770423
7.5406002
7.5075379
7.4777267
7.4511177
7.4274609
7.4066118
7.3888631
7.3745541
7.3646217
7.3577317
7.3600714
7.3678336
7.3805975
7.3989215
7.4228916
7.4545048
7.492989
7.541363
7.605684
7.6884364
7.798931
7.9316585
8.0765004
8.2408429
8.4703415
9.1578622
9.3980891
11.618035
10.980131
10.463524
10.041368
9.6913174
9.3970984
9.1468249
8.9317999
8.7456272
8.5832718
8.4407815
8.3151533
8.203891
8.1049688
8.0165238
7.9373548
7.8663637
7.8022835
7.7445954
7.6925973
7.6454183
7.6027124
7.5642167
7.5292809
7.4976524
7.469323
7.4440714
7.4217019
7.4024046
7.3865561
7.3748815
7.3668043
7.3671348
7.3726497
7.3838347
7.4006768
7.4233624
7.4522249
7.4902975
7.5384151
7.598865
7.6794101
7.785523
7.9162923
8.0593668
8.2222458
8.4495314
9.1082379
9.3729922
11.638603
11.027452
10.52553
10.110504
9.763097
9.4686671
9.2165392
8.9987936
8.8093301
8.6434306
8.4973546
8.368135
8.2533389
8.1510096
8.059372
7.9771225
7.9032318
7.8364443
7.7761494
7.721754
7.6723471
7.6274771
7.5869795
7.5502358
7.5169028
7.4869615
7.4601746
7.4363529
7.4155858
7.3982701
7.3849008
7.3763068
7.37324
7.3776212
7.3873935
7.4027195
7.4237615
7.4514065
7.4866878
7.5330661
7.5933315
7.6707068
7.7764709
7.9031074
8.0432943
8.2054625
8.431713
9.0701011
9.3537707
11.656461
11.068912
10.580543
10.172546
9.8279709
9.5337667
9.280245
9.0602186
8.8679353
8.6989618
8.5497162
8.4172886
8.2993287
8.1939119
8.0993428
8.0142699
7.9376991
7.8684163
7.8056829
7.7490161
7.6975478
7.6507086
7.6083164
7.5698388
7.5348993
7.5034411
7.47523
7.45007
7.4279713
7.4092955
7.3944472
7.3847845
7.3792166
7.382634
7.3908573
7.4046556
7.4241573
7.4504842
7.4846368
7.5293949
7.5871646
7.663098
7.7656583
7.889869
8.0287018
8.1915667
8.4176316
9.037513
9.3396076
11.67161
11.104142
10.627631
10.226082
9.8844592
9.5909163
9.3366832
9.1148754
8.9202427
8.7486535
8.5966581
8.4614384
8.3407043
8.2325688
8.1353991
8.0478299
7.9688543
7.8973418
7.8324576
7.7737227
7.7203664
7.6717497
7.6276681
7.5876303
7.5512322
7.5183885
7.4888741
7.4624821
7.4391651
7.4192775
7.4031177
7.3923671
7.3846912
7.3871359
7.3939854
7.4061702
7.4245682
7.4496236
7.482853
7.5256024
7.5826553
7.6564256
7.7566699
7.8786511
8.0167135
8.180361
8.4078241
9.0123212
9.3302554
11.6841
11.133101
10.666663
10.270821
9.9319464
9.639164
9.3845054
9.161461
8.9650581
8.7913601
8.6370547
8.4994466
8.3763437
8.2658827
8.1664664
8.076769
7.9957618
7.9223415
7.8556284
7.7951145
7.7401255
7.6899771
7.6444075
7.6029891
7.56531
7.5312513
7.5005944
7.4731168
7.448729
7.4277734
7.4104697
7.3986811
7.3891165
7.3907084
7.3963532
7.4072886
7.4245683
7.4486211
7.4806294
7.522639
7.5774227
7.6507542
7.7489887
7.8696873
8.0086205
8.1731796
8.4018769
9.0046302
9.3252708
11.693904
11.155637
10.697211
10.305991
9.9694634
9.6775138
9.4226487
9.1987395
9.0009929
8.8256953
8.6696595
8.5302232
8.40524
8.2929014
8.1916555
8.100213
8.017553
7.9425899
7.8744132
7.81247
7.75616
7.7048055
7.6580581
7.6155238
7.5767964
7.5417309
7.5101311
7.4817708
7.4565115
7.4346625
7.4164193
7.4037098
7.3925896
7.3934265
7.3981901
7.4082516
7.4245748
7.4478485
7.4790268
7.5201748
7.5743587
7.6455873
7.7431727
7.8648125
8.0050454
8.1708511
8.3995296
8.9978719
9.323003
11.700984
11.171734
10.719032
10.3312
9.9964743
9.7052683
9.4503479
9.2258598
9.0272153
8.8507693
8.6935013
8.5527626
8.4264452
8.3127525
8.2101543
8.117409
8.033506
7.9573881
7.888141
7.8251502
7.767859
7.7156224
7.6680248
7.6246831
7.5852177
7.5494617
7.5172109
7.4882297
7.4623662
7.4399118
7.4210439
7.4077237
7.3956568
7.3961006
7.4004356
7.4100573
7.4259438
7.4488761
7.4798839
7.5207484
7.5745782
7.6460108
7.7425821
7.8651007
8.0059759
8.1720164
8.4004461
8.9953345
9.3240022
11.705243
11.1813
10.731947
10.346115
10.012454
9.7216971
9.4667716
9.2419416
9.0427491
8.865635
8.7076029
8.5660873
8.4390027
8.3245432
8.2211827
8.1276741
8.0430042
7.9661718
7.8962767
7.8326486
7.7747586
7.7219973
7.6739139
7.6301156
7.5902525
7.5541505
7.5216015
7.492353
7.4662723
7.443664
7.424688
7.4112997
7.3993445
7.4000002
7.4043722
7.4139205
7.4297394
7.4527469
7.4839932
7.5252763
7.5796948
7.6517077
7.7500093
7.8716513
8.0109247
8.1753635
8.4042166
9.0111036
9.329673
11.706633
11.184334
10.735912
10.350573
10.017143
9.7264114
9.471347
9.24637
9.0470024
8.8696838
8.7113506
8.5695404
8.4422391
8.3276072
8.2240843
8.1304112
8.045566
7.9685562
7.8985068
7.8347066
7.7766536
7.7237639
7.6755646
7.631654
7.5917058
7.5555472
7.5229711
7.4936929
7.4676125
7.4450615
7.4261727
7.4128959
7.401374
7.4024358
7.4070499
7.4167541
7.4327393
7.4560222
7.4876971
7.5295808
7.5847733
7.6578256
7.7575781
7.8787277
8.0171554
8.1810241
8.4120937
9.0323683
9.3347404
11.705236
11.181331
10.731952
10.346116
10.012457
9.7216803
9.4667123
9.2419262
9.0427628
8.8656762
8.7075838
8.5659824
8.4388807
8.3244598
8.2211484
8.1277046
8.0430702
7.9662369
7.8963645
7.8327113
7.7747884
7.7220226
7.6739215
7.6300695
7.590155
7.5540097
7.5214187
7.4920659
7.4658982
7.4432971
7.4243285
7.4108805
7.398923
7.3996806
7.4041878
7.413775
7.42955
7.4525155
7.4837701
7.5251393
7.5796429
7.6517348
7.749972
7.8716073
8.0107619
8.1750495
8.4037989
9.0108834
9.3296368
11.700957
11.17176
10.719055
10.331203
9.9964481
9.7052216
9.4502666
9.2257835
9.0271529
8.8507363
8.6934042
8.552593
8.4262798
8.3126465
8.2101122
8.1174461
8.0335552
7.9574317
7.8882407
7.8252066
7.7678554
7.7156253
7.6680149
7.6245957
7.5850847
7.5493214
7.5170566
7.4879515
7.4620214
7.4396816
7.4208871
7.4074724
7.3953824
7.3960334
7.400541
7.4101084
7.4257865
7.4485851
7.4795443
7.5205391
7.5745715
7.6460074
7.7428342
7.8652763
8.0058206
8.1714167
8.3994976
8.996544
9.324418
11.693846
11.155622
10.697249
10.306005
9.9694691
9.6775433
9.4226015
9.1987069
9.0009782
8.8256622
8.6695569
8.5300573
8.4050967
8.2928155
8.1916015
8.1002157
8.0175411
7.9425937
7.8745287
7.8125373
7.7561687
7.7048687
7.6581288
7.6155059
7.5767677
7.5417598
7.510177
7.4816954
7.4564318
7.4348082
7.4166784
7.4038346
7.392648
7.3938146
7.3987379
7.4086023
7.4245995
7.4476496
7.4788972
7.5202919
7.5747491
7.6464047
7.7432508
7.8645436
8.0043356
8.169707
8.3986755
8.9920638
9.3218575
11.684007
11.13304
10.666723
10.270871
9.9319826
9.6392703
9.3845403
9.161455
8.9650681
8.7913773
8.6370289
8.4993621
8.3762524
8.2657985
8.1663693
8.0767139
7.9956912
7.9223448
7.8557953
7.7952093
7.7401716
7.6901279
7.6445582
7.60303
7.5653656
7.5313803
7.5007012
7.4730825
7.4487468
7.4280768
7.4108704
7.3988618
7.3892128
7.3912019
7.3969858
7.4075972
7.4245403
7.4485096
7.4804622
7.5225792
7.5781195
7.6509673
7.749973
7.8708254
8.0087371
8.1724486
8.3994561
8.9956345
9.3224997
11.671508
11.104096
10.627724
10.2262
9.8845747
9.5910494
9.3367826
9.1148892
8.9202857
8.7487405
8.5966771
8.4613675
8.3405987
8.2324305
8.1352328
8.0477416
7.9687741
7.8973909
7.8326694
7.7738042
7.7204175
7.6719196
7.6277659
7.5875812
7.5512377
7.5184853
7.4888908
7.4623404
7.4391194
7.4195458
7.4034373
7.3923837
7.3846999
7.3876152
7.3945074
7.406365
7.4243346
7.4490095
7.4824654
7.526816
7.5831084
7.6573562
7.7576435
7.8792389
8.0167547
8.1793049
8.4055437
9.0095361
9.3272102
11.656402
11.068927
10.580618
10.172647
9.8280591
9.5338624
9.2804051
9.0603037
8.8679643
8.6989964
8.5496607
8.4171641
8.2991682
8.1937098
8.0991366
8.0141651
7.9376128
7.8685314
7.805926
7.7490569
7.6975805
7.6508713
7.6083645
7.5697701
7.534944
7.5035598
7.4752024
7.4499323
7.4280085
7.4096794
7.3948011
7.3847955
7.3793529
7.3831656
7.3913361
7.4046489
7.4236833
7.450504
7.4853691
7.5291158
7.5879429
7.6648711
7.7657535
7.8892695
8.0277
8.1900725
8.4157753
9.0380829
9.3372678
11.638639
11.027552
10.525643
10.110734
9.763306
9.4687549
9.216588
8.9987673
8.8092682
8.643338
8.4971859
8.3679547
8.2531516
8.150796
8.0592022
7.9770679
7.9032189
7.836671
7.7764023
7.7217764
7.6724199
7.6276792
7.5869898
7.5501543
7.5169965
7.4871135
7.4601378
7.4362784
7.4157594
7.3987814
7.3852705
7.3763831
7.3734734
7.3781716
7.38774
7.4024603
7.4234343
7.4508543
7.4865716
7.5340101
7.5950576
7.6713515
7.7786201
7.9043715
8.0423428
8.2035058
8.4305217
9.0711213
9.3520398
11.618179
10.98029
10.463591
10.041545
9.6915036
9.3971488
9.1467619
8.9316581
8.7455112
8.5831297
8.440644
8.3150249
8.2037343
8.1047821
8.0164406
7.9373862
7.866474
7.8026514
7.7449022
7.692711
7.6456222
7.6029829
7.5642259
7.5292728
7.4978826
7.4695405
7.4440619
7.4217433
7.4027139
7.3871329
7.375237
7.3669041
7.3675036
7.3731422
7.3839189
7.4004775
7.4226964
7.4522559
7.4896161
7.538378
7.5991906
7.680792
7.7863506
7.9170636
8.0586012
8.2200899
8.4468948
9.1064555
9.3716144
11.594822
10.92693
10.394582
9.9657334
9.6137936
9.3202906
9.0722918
8.8604943
8.6781247
8.5197283
8.381314
8.2596257
8.152116
8.0567815
7.9718916
7.8961048
7.8282697
7.7672976
7.7122126
7.6625568
7.6178045
7.5773208
7.5406115
7.5076425
7.4780583
7.4512903
7.427451
7.4067351
7.3892868
7.3751836
7.3649563
7.3578929
7.3605048
7.3681671
7.380701
7.3984585
7.4228954
7.4531445
7.4928769
7.5424344
7.6072263
7.6895888
7.8004837
7.9321061
8.0760907
8.2393202
8.4675275
9.1543054
9.3968918
11.568505
10.8681
10.319847
9.8845848
9.5314789
9.2395854
8.994668
8.7867814
8.6086158
8.454565
8.3204146
8.2029068
8.0993959
8.0078174
7.9265195
7.8541424
7.7894341
7.7313633
7.6789807
7.6319057
7.5895696
7.5513058
7.5167039
7.4856936
7.4579213
7.4328178
7.4107047
7.3916177
7.3757126
7.3630859
7.3545218
7.3495017
7.3532958
7.3631036
7.3774026
7.3970202
7.4226027
7.4554542
7.4970012
7.5499557
7.6157849
7.6999304
7.8127258
7.9481348
8.0948153
8.260892
8.4922363
9.2124622
9.4293144
11.539033
10.80384
10.239981
9.7992814
9.4459103
9.1564509
8.9153219
8.7118794
8.5382782
8.3888225
8.2591453
8.1459327
8.0465062
7.9587851
7.8811402
7.8121708
7.7506323
7.6954788
7.6458525
7.601381
7.5614622
7.5253755
7.492889
7.4639012
7.4378635
7.4144038
7.3940002
7.37656
7.3622826
7.3511661
7.3441181
7.34137
7.3463486
7.3580556
7.3744484
7.3960352
7.4231031
7.4578809
7.502087
7.5550904
7.6224936
7.7108055
7.8254948
7.9661384
8.1158768
8.2844279
8.518847
9.2816282
9.4698179
11.506556
10.735116
10.156293
9.7112081
9.3585757
9.0723279
8.8355915
8.6369998
8.4682562
8.3235656
8.1984883
8.0896495
7.9943405
7.9104799
7.836521
7.7708839
7.7124774
7.660225
7.6133122
7.571423
7.5338743
7.4999562
7.4694823
7.4423604
7.4180249
7.3964294
7.3776735
7.3617377
7.3489675
7.3394156
7.333706
7.3339902
7.3400865
7.3532827
7.3717788
7.3948906
7.4240018
7.4609532
7.5063545
7.561289
7.6331478
7.7248492
7.8457133
7.9870076
8.1400594
8.3120183
8.555762
9.381311
9.5216204
11.470655
10.662011
10.069501
9.621663
9.2709214
8.9886434
8.7567673
8.563252
8.399539
8.2597423
8.1392779
8.0348161
7.9435944
7.8635632
7.7931893
7.7308122
7.675454
7.6260065
7.581772
7.5423482
7.5070632
7.4752943
7.4467905
7.4214871
7.3988427
7.3789056
7.361773
7.3474286
7.3361593
7.328153
7.3238691
7.3264548
7.3346104
7.3492233
7.3692833
7.3950062
7.4262291
7.4653305
7.5107045
7.5696106
7.6455623
7.7386648
7.8558168
8.0073435
8.1652144
8.3409871
8.5888893
9.4865778
9.5862985
11.431793
10.585765
9.9810881
9.5319081
9.1841511
8.906522
8.6798617
8.4915718
8.332992
8.1981009
8.0822322
7.9820241
7.8947543
7.8185065
7.7515513
7.6923163
7.6399249
7.5931412
7.5515063
7.5144008
7.4812515
7.4515796
7.4249508
7.401417
7.380497
7.3621404
7.3463762
7.3333897
7.3236915
7.3172476
7.314816
7.3187959
7.3292476
7.3456647
7.3677573
7.3950387
7.4279227
7.4674257
7.5155755
7.5785316
7.6548191
7.7493661
7.8826986
8.0347373
8.1968296
8.3773557
8.6522399
9.6442087
9.671416
11.390562
10.507599
9.8924981
9.4433204
9.0994372
8.82695
8.6057144
8.4227247
8.269258
8.1391613
8.0277753
7.9316863
7.8482526
7.7756191
7.711901
7.6556793
7.6060956
7.5618599
7.5226542
7.4878238
7.4567177
7.4289259
7.4040471
7.3821193
7.3628595
7.345901
7.3316669
7.3202858
7.3119227
7.3066273
7.3061311
7.3114877
7.3246107
7.342805
7.3663151
7.3948234
7.4297866
7.4707857
7.5228791
7.5882007
7.669746
7.7666011
7.8912991
8.0561745
8.225979
8.4162857
8.6760143
9.781931
9.7785949
11.344015
10.425654
9.8035254
9.3563322
9.0172684
8.7503445
8.5347344
8.3570549
8.2086154
8.0831837
7.9760834
7.8839609
7.8042527
7.7350104
7.6743534
7.6210082
7.5740779
7.5322478
7.4953392
7.4625826
7.4334085
7.4073782
7.384267
7.3638521
7.3459816
7.3304118
7.3175293
7.3073986
7.3007344
7.2968302
7.2980715
7.3048715
7.3201226
7.3402895
7.3654147
7.3959007
7.4324898
7.4762398
7.5314722
7.5981995
7.6745828
7.7800416
7.9207
8.0886825
8.2678895
8.4659962
8.8118806
9.9595455
9.9245562
11.302981
10.350328
9.7197757
9.2742427
8.9399827
8.6784949
8.4682663
8.2956501
8.1519633
8.0309139
7.9278213
7.8393789
7.7631203
7.6970285
7.6392213
7.5885731
7.5440328
7.5044377
7.4696655
7.4388036
7.4113902
7.3870328
7.3654804
7.3464238
7.329943
7.3157129
7.3039309
7.2952412
7.2901212
7.2872276
7.2899729
7.2989024
7.3164996
7.3384112
7.364479
7.3968051
7.4350906
7.4818653
7.5396242
7.6055353
7.6977103
7.8034849
7.9427444
8.1326873
8.3122572
8.5311108
8.8092414
10.161616
10.112005
11.225912
10.248235
9.6263997
9.1888333
8.8617455
8.6069639
8.4028286
8.2357237
8.0969862
7.9803941
7.8813319
7.7966085
7.7237027
7.6606247
7.6055698
7.5574967
7.5152571
7.4778224
7.4450175
7.4159532
7.3901824
7.367403
7.3473483
7.3296503
7.3145267
7.3015315
7.2907505
7.2836086
7.2796105
7.2776368
7.282042
7.2939948
7.3134308
7.3362398
7.3644167
7.3982959
7.4404006
7.4909475
7.5459972
7.6201235
7.7082705
7.8220456
7.9645601
8.1550609
8.3587749
8.5965679
8.9738069
10.313356
10.359142
11.244239
10.216418
9.5725912
9.1316092
8.8056981
8.5535367
8.3524699
8.188597
8.0529834
7.9393519
7.8430624
7.7609559
7.690604
7.6297289
7.5767433
7.5306571
7.4901904
7.4544719
7.4232995
7.3956801
7.3712508
7.3497189
7.330748
7.3142805
7.3003022
7.2882655
7.2785242
7.2725783
7.269365
7.2685035
7.2741477
7.2882592
7.3088291
7.3338947
7.3637348
7.4005458
7.4442339
7.4942929
7.5543405
7.6324463
7.7217525
7.8424063
7.9937735
8.2024851
8.4138023
8.6913077
8.9747151
10.71343
10.657336
34.526102
20.020296
11.094226
9.6111403
9.5122103
9.4479636
9.3226424
9.1130506
8.904923
8.6546969
8.43029
8.2144442
8.0422755
7.8733816
7.7121114
7.5554608
7.4154479
7.285775
7.1665738
7.0606606
6.9754016
6.9096687
6.8604475
6.8243141
6.7996876
6.7796858
6.7675682
6.7549902
6.7451583
6.7381697
6.7326686
6.7290339
6.7265746
6.7256621
6.7267476
6.7299967
6.7356316
6.7447895
6.7582191
6.7770881
6.8029436
6.8378303
6.8845719
6.9472049
7.0321904
7.1496146
7.3188346
7.5801913
8.0862529
33.953082
17.159997
10.516335
9.3773873
9.4850738
9.3699517
9.241451
9.0258657
8.8314295
8.5882125
8.3692911
8.1617956
7.9811099
7.8150078
7.6799761
7.538635
7.4038512
7.2754494
7.1599848
7.0591592
6.9796428
6.9178782
6.8718252
6.8378533
6.8143653
6.7955011
6.7842891
6.7717593
6.7623092
6.755428
6.7500782
6.7465639
6.744221
6.7434056
6.7445908
6.7479208
6.753738
6.7630642
6.7766958
6.795788
6.8218925
6.8571009
6.9042213
6.9673163
7.0529073
7.171134
7.3414699
7.6045394
8.1166048
33.873354
16.004669
10.216197
9.3629539
9.449268
9.3116149
9.1983563
8.9598836
8.783799
8.5467641
8.3359221
8.1333281
7.9632635
7.7989068
7.6632265
7.5266366
7.4006241
7.2724554
7.1596232
7.0649174
6.9892886
6.9299447
6.8854004
6.8523531
6.8291053
6.8110069
6.8001865
6.7879542
6.7788882
6.7719661
6.7668438
6.7633738
6.7612257
6.7605384
6.7617941
6.7652469
6.7712695
6.7807938
6.7946486
6.8139992
6.840393
6.875968
6.9235175
6.9871311
7.0733858
7.1924745
7.3639817
7.6287226
8.1402183
33.259773
16.204165
10.349973
9.2924968
9.4871949
9.2302081
9.1496636
8.8906126
8.7093658
8.4771967
8.282363
8.0852005
7.9260677
7.775482
7.6467842
7.5185151
7.4001865
7.2722359
7.160855
7.0708038
6.99751
6.9403866
6.8972985
6.8654998
6.8433417
6.8259467
6.8152938
6.803495
6.7948756
6.7879296
6.7831532
6.779701
6.7778503
6.7773298
6.7786941
6.7823413
6.7886083
6.7983961
6.812526
6.8322036
6.8589678
6.8949936
6.9430685
7.0073121
7.0943576
7.2144591
7.3873351
7.6540425
8.1678015
33.038586
15.127648
10.213673
9.3794846
9.4846202
9.2131446
9.1352209
8.8499589
8.6659626
8.4248013
8.2466096
8.0524433
7.9065815
7.7602181
7.6300934
7.5011479
7.3896577
7.2737136
7.1671979
7.0757682
7.0049269
6.9501268
6.9084031
6.8782467
6.8574339
6.8404324
6.8299024
6.8185171
6.8103387
6.8035089
6.799119
6.7956947
6.7941968
6.7938576
6.7954036
6.7992939
6.8058314
6.8159371
6.8303859
6.8504458
6.8776509
6.9141958
6.962877
7.0278448
7.1157851
7.2370213
7.4114164
7.680284
8.1958116
32.781117
15.088993
10.31346
9.4832299
9.5368267
9.2066705
9.1213881
8.8283274
8.6349805
8.3825135
8.2169388
8.0092769
7.870595
7.7378943
7.6216822
7.4951305
7.381768
7.272387
7.1714622
7.0827656
7.013143
6.9604603
6.9198866
6.8909341
6.8711715
6.8545016
6.8442399
6.8330846
6.8254084
6.8188492
6.8148257
6.8115217
6.8103345
6.8101964
6.8120213
6.8161893
6.8230241
6.8335009
6.8483192
6.8688158
6.8965351
6.9336679
6.9830377
7.0488278
7.1377721
7.2602721
7.4363452
7.7075928
8.2254627
31.868601
14.085779
10.230648
9.5823005
9.5441587
9.2053557
9.1076443
8.8147388
8.6188895
8.355609
8.2065917
7.9930482
7.8550195
7.7138937
7.6063504
7.4909268
7.3787926
7.2725606
7.1767841
7.089946
7.0221428
6.9705156
6.9310981
6.9036648
6.8846057
6.8683435
6.8584441
6.847404
6.8402937
6.834083
6.8303203
6.8272601
6.8263423
6.8264212
6.8286169
6.8330902
6.8402569
6.851149
6.8663959
6.8873818
6.915686
6.9534758
7.0036143
7.0703247
7.1603829
7.284277
7.4621834
7.7360317
8.2565024
31.476974
14.281631
10.317026
9.6297352
9.571702
9.1988726
9.0719049
8.7870784
8.587194
8.3229129
8.1862131
7.9839001
7.8460841
7.6934211
7.5901145
7.4850242
7.3801435
7.272726
7.1782584
7.095582
7.030317
6.9798648
6.9426141
6.9165896
6.8978701
6.8821282
6.8724798
6.8615483
6.8550879
6.8492237
6.8455967
6.8429659
6.8422685
6.8426128
6.8452308
6.850043
6.8575907
6.8689316
6.8846735
6.9062044
6.9351603
6.9736787
7.0246664
7.092397
7.1836817
7.3091046
7.4890055
7.7656798
8.289101
31.029346
13.613616
10.270479
9.6576762
9.5619519
9.1712333
9.0285657
8.7437689
8.5568075
8.2938172
8.1623407
7.982344
7.8457845
7.6843659
7.5780003
7.4705227
7.3798207
7.2732355
7.1800148
7.1004008
7.0387756
6.9898339
6.9546527
6.9293612
6.9109547
6.8958461
6.8861876
6.8755479
6.8697586
6.8642131
6.8606384
6.8585873
6.8580775
6.8587814
6.8618268
6.8670295
6.8750244
6.8868444
6.9031514
6.9252932
6.9549652
6.994289
7.0462131
7.1150681
7.2077
7.3347962
7.5168653
7.7966023
8.323316
31.111655
13.700873
10.285514
9.6586331
9.5381719
9.1656999
8.9803696
8.7092761
8.5291175
8.2766086
8.1320862
7.9520653
7.8206798
7.6812244
7.5756445
7.4610223
7.3754506
7.2781314
7.1843573
7.1053301
7.0468929
7.000033
6.9666978
6.9418397
6.9238064
6.9093661
6.8996626
6.8895032
6.8842391
6.8790607
6.8755045
6.8741156
6.8738094
6.8749674
6.8784254
6.8840925
6.8926006
6.9049394
6.9218752
6.9446992
6.9751493
7.0153562
7.0683051
7.1383892
7.2324923
7.3614082
7.5458229
7.8288577
8.3590363
29.889277
12.210913
10.16813
9.6406058
9.5153617
9.1659625
8.9375064
8.6693148
8.4967215
8.2675337
8.1149966
7.9214631
7.7864004
7.6771011
7.5777613
7.4591588
7.3658429
7.2783574
7.1895685
7.1112177
7.0547285
7.0104838
6.9784657
6.9542184
6.9365754
6.9226141
6.9130056
6.9035479
6.8985328
6.8938443
6.8903815
6.8895841
6.8895884
6.8912424
6.8951142
6.9013286
6.9104082
6.9233211
6.9409405
6.9645181
6.9958126
7.0369793
7.0910409
7.1624608
7.2581585
7.3890478
7.5759958
7.862579
8.3966311
29.504943
12.272936
10.22928
9.6038587
9.5092526
9.1695477
8.9269242
8.635739
8.4629016
8.2505513
8.0997196
7.9027637
7.7684253
7.6579297
7.5721168
7.4628319
7.3644388
7.2739223
7.1928794
7.1195365
7.0632669
7.021092
6.9899591
6.9665274
6.9491828
6.935727
6.9263674
6.9177051
6.9126802
6.9085715
6.9054088
6.9049711
6.9054679
6.9076119
6.9119237
6.9187649
6.9284685
6.9420235
6.9603807
6.984782
7.0169962
7.0592022
7.114465
7.1873306
7.2847501
7.4177744
7.607454
7.8978398
8.4360334
27.881641
11.812654
10.226331
9.5924865
9.5092289
9.1700089
8.9423476
8.6246238
8.4448754
8.2158595
8.0719853
7.8938634
7.7696568
7.6475395
7.5496685
7.4554487
7.3685478
7.272284
7.1936294
7.1260102
7.0717699
7.0312775
7.000996
6.9784687
6.9613369
6.9487945
6.9397874
6.9317647
6.9267645
6.9231428
6.9205784
6.9202911
6.9214116
6.9240453
6.9288459
6.9363661
6.9467512
6.9610245
6.9801809
7.0054788
7.0386968
7.0820338
7.1385974
7.2130234
7.3123036
7.4476347
7.6402631
7.9347296
8.4773824
26.935978
12.017787
10.371243
9.5899215
9.5076394
9.1430288
8.9391011
8.6286744
8.4409178
8.1977051
8.0359996
7.8766207
7.7716472
7.6456502
7.5392774
7.4435944
7.3643686
7.2754398
7.1953878
7.1296063
7.0796768
7.0412323
7.0117688
6.990021
6.9729969
6.9615417
6.9532136
6.9455797
6.9409352
6.9375683
6.9357934
6.9357497
6.9374353
6.9405909
6.9459488
6.9541606
6.9652965
6.9803607
7.0003808
7.0266494
7.0609583
7.1055274
7.1634926
7.2395967
7.3408815
7.4786952
7.6744974
7.9733366
8.5206168
26.006777
12.069281
10.370195
9.6527008
9.464231
9.0927555
8.8509339
8.6310943
8.4067426
8.1973486
8.0160499
7.8667723
7.7406805
7.6370133
7.5355399
7.4411058
7.3527293
7.2760587
7.1997883
7.1327099
7.0870695
7.0503177
7.0219335
7.0010145
6.9844257
6.9737804
6.9664649
6.9591525
6.9552464
6.9520625
6.9509876
6.9514669
6.9536667
6.9573515
6.9633381
6.9722434
6.9842033
7.0001223
7.021069
7.0483871
7.0838743
7.1297798
7.1892613
7.2671624
7.3705942
7.5110771
7.7102898
8.013823
8.5661186
25.089076
12.330862
10.311355
9.6892852
9.4605216
9.0857969
8.8049102
8.6065064
8.3557656
8.195996
7.9940512
7.8693961
7.7069064
7.6293587
7.5152935
7.4414582
7.3503362
7.2734151
7.2015377
7.1356246
7.0942586
7.0581565
7.030795
7.0113356
6.9957661
6.9855592
6.9793904
6.9725263
6.9694959
6.9667927
6.9660929
6.967316
6.9701668
6.9743503
6.9810077
6.9906295
7.0034827
7.020324
7.0422589
7.0707134
7.1074691
7.1548224
7.2159404
7.295766
7.4014974
7.5448443
7.7477214
8.0562937
8.613989
24.051928
11.694593
10.263762
9.7092935
9.4190424
9.0948692
8.7807459
8.5777236
8.3243508
8.1606499
7.9647
7.8403607
7.6984477
7.6268159
7.5080276
7.4226052
7.3491107
7.2740516
7.2020868
7.1378991
7.1006444
7.0657522
7.0389593
7.0210028
7.0071325
6.9972184
6.9921267
6.985858
6.9835549
6.9815863
6.9812582
6.9831894
6.9868699
6.9916108
6.9989437
7.0093161
7.0231221
7.0409703
7.063956
7.0936405
7.1317567
7.1806678
7.2435634
7.3254565
7.4336502
7.5800652
7.786878
8.1008677
8.6644631
23.629296
11.763503
10.23335
9.6765429
9.3581499
9.043298
8.7530066
8.5514152
8.2910325
8.1354474
7.9471302
7.8052426
7.6876922
7.6147182
7.5078373
7.4161226
7.3444078
7.2737218
7.2032231
7.1417552
7.1058918
7.0738996
7.0483446
7.0305679
7.018671
7.0091408
7.0049031
6.9993356
6.9976124
6.9962734
6.9966568
6.9991512
7.0037465
7.0091679
7.0172257
7.028372
7.0431742
7.0621176
7.0862226
7.1172329
7.1567973
7.2073828
7.2722125
7.3563161
7.4671445
7.6168347
7.827869
8.1476845
8.717719
22.315657
11.183738
10.209238
9.6453578
9.355404
9.0091266
8.7208794
8.5195348
8.2517799
8.1184991
7.932205
7.7935871
7.6712485
7.5878888
7.4950966
7.4173523
7.3422212
7.2725028
7.2046606
7.1497171
7.1133017
7.0834716
7.0595738
7.041396
7.0304762
7.0216277
7.017853
7.0129582
7.0119817
7.0109836
7.0122443
7.015406
7.020818
7.0270171
7.035926
7.0479127
7.0636988
7.083815
7.109137
7.1415663
7.1826767
7.2350612
7.3019641
7.3884382
7.5020905
7.6552759
7.8708288
8.1969047
8.7740826
21.724827
11.363288
10.275434
9.5826901
9.3574476
8.9924927
8.6896979
8.4799807
8.2193783
8.0976903
7.9002604
7.7834858
7.6573946
7.5775251
7.4791554
7.4092877
7.3388564
7.2759761
7.2133502
7.1589711
7.1243638
7.0956659
7.0709694
7.0533919
7.0426273
7.0348267
7.0309543
7.0266708
7.0266275
7.025965
7.0279776
7.0319575
7.0381104
7.0451464
7.0550212
7.0679319
7.0847432
7.106101
7.1327192
7.1666605
7.2094414
7.263745
7.3328571
7.4218854
7.5385674
7.6954901
7.9158687
8.2486666
8.8337615
20.887879
11.403905
10.214058
9.5698022
9.2955293
8.9841285
8.6620162
8.4466455
8.1770022
8.0753021
7.8733647
7.7700022
7.6395139
7.5713092
7.4722384
7.407317
7.335089
7.2762105
7.2253596
7.1683407
7.1349317
7.1079054
7.0811795
7.064572
7.0545167
7.048495
7.0442061
7.0404154
7.0413391
7.0412299
7.0438819
7.0486748
7.0556298
7.0635685
7.0744757
7.088417
7.1063383
7.1289803
7.1570056
7.1925464
7.237137
7.2934742
7.3649433
7.4567187
7.5766556
7.7375767
7.963113
8.3031286
8.896986
20.053865
10.906623
10.206134