/*--------------------------------*- C++ -*----------------------------------*\
| =========                 |                                                 |
| \\      /  F ield         | OpenFOAM: The Open Source CFD Toolbox           |
|  \\    /   O peration     | Version:  2506                                  |
|   \\  /    A nd           | Website:  www.openfoam.com                      |
|    \\/     M anipulation  |                                                 |
\*---------------------------------------------------------------------------*/
FoamFile
{
    version     2.0;
    format      ascii;
    arch        "LSB;label=32;scalar=64";
    class       volScalarField;
    location    "0.015";
    object      Ma;
}
// * * * * * * * * * * * * * * * * * * * * * * * * * * * * * * * * * * * * * //

dimensions      [0 0 0 0 0 0 0];

internalField   nonuniform List<scalar> 
13763
(
0.30521611
0.31427537
0.31363374
0.31078646
0.3083744
0.31161107
0.31982593
0.32516193
0.32606831
0.32573898
0.32578989
0.32678605
0.33002733
0.33153542
0.33488578
0.33613662
0.3396175
0.34068459
0.34463502
0.34535102
0.3500717
0.34994091
0.35882916
0.3559018
0.36944427
0.36077647
0.37093827
0.36235122
0.35416314
0.35934312
0.34763836
0.34927634
0.33713567
0.33621956
0.32498436
0.32454562
0.31797735
0.31547368
0.31312171
0.31002053
0.3091631
0.3076781
0.30662499
0.30561139
0.30477102
0.30408026
0.30360391
0.30321024
0.3050009
0.31418163
0.31358857
0.31079012
0.30834355
0.31154176
0.31972468
0.32511695
0.32605058
0.32573065
0.32578489
0.3267858
0.3300321
0.33153963
0.33488984
0.33614004
0.33962112
0.34068822
0.34464
0.34535648
0.35007846
0.34994741
0.3588387
0.35590822
0.36946227
0.36077743
0.37096576
0.36235794
0.35417398
0.35935673
0.34764891
0.34928543
0.33714253
0.33622664
0.32498778
0.32454469
0.31797196
0.31547043
0.31311886
0.31001995
0.30916202
0.30767756
0.30662442
0.30561085
0.30477059
0.30407996
0.30360366
0.30320977
0.30267782
0.30220415
0.30477526
0.31408282
0.31354141
0.31079336
0.3083115
0.31146902
0.31961678
0.32506892
0.32603187
0.32572203
0.32577974
0.32678574
0.33003727
0.33154414
0.33489409
0.33614358
0.33962494
0.34069211
0.34464526
0.34536223
0.35008572
0.34995459
0.35884971
0.35591514
0.36948261
0.36077784
0.37099683
0.36236106
0.35418453
0.35937383
0.34765799
0.34929772
0.33714526
0.33623388
0.32498917
0.32454569
0.31796642
0.31546807
0.31311554
0.31001825
0.30916019
0.30767615
0.30662312
0.3056097
0.30476961
0.30407917
0.30360295
0.30320891
0.30267694
0.30220335
0.3023708
0.30453818
0.31397843
0.3134921
0.31079598
0.30827807
0.3113926
0.31950136
0.32501716
0.32601152
0.32571272
0.32577424
0.32678579
0.33004287
0.33154898
0.33489862
0.33614727
0.33962876
0.34069591
0.34465058
0.3453682
0.35009344
0.34996224
0.35886153
0.35592246
0.36950479
0.36077871
0.37103105
0.36236351
0.35419457
0.35939475
0.34766685
0.34931193
0.33714593
0.33624164
0.32498826
0.32454814
0.31796046
0.31546609
0.31311171
0.31001569
0.3091577
0.30767397
0.3066213
0.30560804
0.30476817
0.30407795
0.3036018
0.30320777
0.30267596
0.30220236
0.30236999
0.30339738
0.30382668
0.30428859
0.31386798
0.31344047
0.31079796
0.30824299
0.31131214
0.31937732
0.32496141
0.32598967
0.32570282
0.32576842
0.32678583
0.33004875
0.33155407
0.33490337
0.33615117
0.33963291
0.34070013
0.34465627
0.34537444
0.35010159
0.34997054
0.35887416
0.35593066
0.36952828
0.36077985
0.37106687
0.36236566
0.35420417
0.35941807
0.34767411
0.34932656
0.33714376
0.33624908
0.32498572
0.32455065
0.31795471
0.31546405
0.31310719
0.31001232
0.3091547
0.30767128
0.30661898
0.30560596
0.30476634
0.30407638
0.30360032
0.30320638
0.30267484
0.30220119
0.3023693
0.30339728
0.30382623
0.30236243
0.29987137
0.30402559
0.31375104
0.31338642
0.31079893
0.30820621
0.31122718
0.31924384
0.32490068
0.32596551
0.32569187
0.32576201
0.32678582
0.330055
0.33155945
0.33490838
0.33615525
0.33963704
0.34070426
0.34466207
0.34538095
0.3501101
0.34997917
0.35888689
0.35593945
0.36955265
0.36078171
0.37110442
0.36236817
0.35421372
0.35944349
0.34768199
0.34934324
0.33714198
0.33625629
0.32498268
0.32455186
0.31794835
0.31546196
0.31310219
0.31000864
0.30915143
0.3076683
0.30661646
0.30560365
0.3047643
0.30407459
0.30359861
0.30320486
0.30267364
0.30219996
0.30236875
0.30339703
0.3038257
0.30236137
0.29987044
0.29836198
0.29795715
0.30374849
0.31362727
0.31332992
0.31079866
0.30816738
0.31113698
0.31910011
0.3248349
0.32593945
0.32568017
0.32575515
0.32678562
0.33006148
0.33156505
0.3349136
0.33615958
0.33964161
0.34070896
0.34466833
0.34538781
0.35011908
0.34998846
0.35890006
0.35594933
0.36957778
0.36078399
0.37114269
0.36237157
0.35422359
0.35946957
0.34768919
0.34935984
0.33713934
0.3362641
0.32498099
0.32455308
0.31794167
0.31545912
0.31309666
0.31000464
0.30914797
0.3076652
0.30661371
0.30560117
0.30476209
0.30407265
0.30359678
0.30320327
0.30267234
0.30219867
0.30236828
0.30339681
0.30382537
0.30236018
0.29986925
0.29836094
0.2979562
0.29817436
0.29862365
0.2990691
0.30345658
0.31349625
0.313271
0.31079731
0.30812617
0.31104091
0.3189448
0.32476299
0.32591053
0.3256671
0.32574748
0.3267853
0.33006836
0.33157094
0.33491906
0.33616407
0.33964611
0.34071353
0.3446748
0.34539508
0.3501284
0.34999801
0.35891321
0.3559599
0.3696036
0.360787
0.37118245
0.36237576
0.35423405
0.35949686
0.34769805
0.34937806
0.33713872
0.33627425
0.32498141
0.32455537
0.31793413
0.31545623
0.31309101
0.31000075
0.3091445
0.30766208
0.30661097
0.30559866
0.30475985
0.30407067
0.30359489
0.30320164
0.30267091
0.30219743
0.30236789
0.30339652
0.30382509
0.30235858
0.29986785
0.29835971
0.29795533
0.29817386
0.29862339
0.29906898
0.29937572
0.29952342
0.30314897
0.31335748
0.31320955
0.31079493
0.30808264
0.3109381
0.31877613
0.32468485
0.32587931
0.32565311
0.32573925
0.32678483
0.33007555
0.33157713
0.33492476
0.33616885
0.33965115
0.34071877
0.34468173
0.34540276
0.35013835
0.3500084
0.35892694
0.35597161
0.3696302
0.36079029
0.37122312
0.36238082
0.35424539
0.35952442
0.34770679
0.34939608
0.33713773
0.33628477
0.32498205
0.32455774
0.31792588
0.31545275
0.31308518
0.30999679
0.30914092
0.30765894
0.30660811
0.30559607
0.30475755
0.30406864
0.30359299
0.30319998
0.30266937
0.30219632
0.30236748
0.30339614
0.30382474
0.30235687
0.2998663
0.29835839
0.29795462
0.29817335
0.2986231
0.29906883
0.29937565
0.29952339
0.30282475
0.31321051
0.31314555
0.31079044
0.30803671
0.31082766
0.31859337
0.32459896
0.32584439
0.32563736
0.32572996
0.32678416
0.33008321
0.33158368
0.33493072
0.33617377
0.33965608
0.34072387
0.34468899
0.34541096
0.35014868
0.35001906
0.35894072
0.355984
0.36965776
0.36079427
0.37126584
0.36238643
0.35425756
0.35955345
0.34771765
0.34941584
0.33713897
0.33629745
0.32498207
0.32455953
0.31791709
0.3154493
0.31307952
0.30999302
0.30913734
0.30765585
0.3066053
0.30559352
0.30475527
0.30406663
0.30359112
0.30319829
0.30266771
0.3021953
0.30236693
0.30339581
0.30382426
0.30235512
0.29986463
0.29835707
0.2979539
0.29817279
0.29862276
0.29906863
0.29937556
0.29952336
0.30248295
0.31305491
0.3130789
0.310784
0.30798844
0.31070873
0.31839356
0.3245057
0.32580675
0.32562041
0.32571995
0.32678338
0.33009137
0.33159071
0.334937
0.33617908
0.33966167
0.34072969
0.34469661
0.34541955
0.35015988
0.35003085
0.35895538
0.35599765
0.36968647
0.36079843
0.37130989
0.36239278
0.35427063
0.3595832
0.34772824
0.34943528
0.33713952
0.33630843
0.32498253
0.32456173
0.31790803
0.31544555
0.31307368
0.3099891
0.30913361
0.30765265
0.30660236
0.30559087
0.30475294
0.3040646
0.30358924
0.30319657
0.30266597
0.30219427
0.30236634
0.30339556
0.30382378
0.30235343
0.29986294
0.29835558
0.29795298
0.29817216
0.29862236
0.29906838
0.29937545
0.29952331
0.30212241
0.31289009
0.31300966
0.31077581
0.30793737
0.31057877
0.31817396
0.32440223
0.32576444
0.32560119
0.32570855
0.32678224
0.33009992
0.33159807
0.33494359
0.33618456
0.33966717
0.34073543
0.34470474
0.34542874
0.35017135
0.35004289
0.35897027
0.35601214
0.36971631
0.36080341
0.37135667
0.36239938
0.35428442
0.35961502
0.34774098
0.34945661
0.33714173
0.33631826
0.32498286
0.3245638
0.3178993
0.31544135
0.3130679
0.30998524
0.30912982
0.30764949
0.30659942
0.30558824
0.30475062
0.30406259
0.3035874
0.30319467
0.30266433
0.3021932
0.30236563
0.30339523
0.30382342
0.30235163
0.29986127
0.29835413
0.29795193
0.29817145
0.2986219
0.29906811
0.29937533
0.29952326
0.30174181
0.31271485
0.31293749
0.31076534
0.30788065
0.31043476
0.31793306
0.32428929
0.32571884
0.32558054
0.32569632
0.32678109
0.33010932
0.33160618
0.33495065
0.33619056
0.33967338
0.34074186
0.34471308
0.34543829
0.35018394
0.3500563
0.35898612
0.35602802
0.36974745
0.36080848
0.37140501
0.36240638
0.35429903
0.35964803
0.34775316
0.34947706
0.33714271
0.33632884
0.32498434
0.32456544
0.31789065
0.3154375
0.31306172
0.30998104
0.30912585
0.30764608
0.30659629
0.30558546
0.30474822
0.3040605
0.30358546
0.30319281
0.30266269
0.30219185
0.30236493
0.30339485
0.30382285
0.30234972
0.29985957
0.29835286
0.29795085
0.29817067
0.2986214
0.29906784
0.29937522
0.29952321
0.30133934
0.31252815
0.31286226
0.31075343
0.30781807
0.31027747
0.3176645
0.3241638
0.32566721
0.32555702
0.32568228
0.3267793
0.33011892
0.33161455
0.3349581
0.33619685
0.33967966
0.34074845
0.34472224
0.34544854
0.35019658
0.35006984
0.35900216
0.35604474
0.36977989
0.36081454
0.3714564
0.36241347
0.3543143
0.35968341
0.34776753
0.34950059
0.33714477
0.33634288
0.32498626
0.32456703
0.31788201
0.31543351
0.31305513
0.3099766
0.30912174
0.30764268
0.30659306
0.30558262
0.30474576
0.30405837
0.30358349
0.30319074
0.30266103
0.30219029
0.3023642
0.30339436
0.30382222
0.3023477
0.29985764
0.29835152
0.29794973
0.29816983
0.29862085
0.29906756
0.2993751
0.29952316
0.30091265
0.31232944
0.31278377
0.31073921
0.30775361
0.31010659
0.31736031
0.3240256
0.32561206
0.32553179
0.32566715
0.32677752
0.33012978
0.33162398
0.33496617
0.33620374
0.33968666
0.34075557
0.34473135
0.3454592
0.35021073
0.35008507
0.35901929
0.35606277
0.36981383
0.36082094
0.37150966
0.36242118
0.35433053
0.3597202
0.34778109
0.34952378
0.33714502
0.33635639
0.32498724
0.32456943
0.31787253
0.31542849
0.31304816
0.30997175
0.30911742
0.3076389
0.30658959
0.3055796
0.30474317
0.3040561
0.30358137
0.30318866
0.30265919
0.30218877
0.30236342
0.30339374
0.3038214
0.30234552
0.29985571
0.29835005
0.29794852
0.29816894
0.29862028
0.29906726
0.29937498
0.29952311
0.30045919
0.31211868
0.31270243
0.31071844
0.30768783
0.3099177
0.3170158
0.32386808
0.32554945
0.32550328
0.32565006
0.32677505
0.3301406
0.33163358
0.33497479
0.33621117
0.33969415
0.34076333
0.3447417
0.34547066
0.35022463
0.35010027
0.35903663
0.35608167
0.36984929
0.36082865
0.3715661
0.36242895
0.35434746
0.35975946
0.34779704
0.34955021
0.33714649
0.33636944
0.32498723
0.32457186
0.31786275
0.31542356
0.31304071
0.30996667
0.30911287
0.30763508
0.30658595
0.30557642
0.30474047
0.30405372
0.30357916
0.30318643
0.30265722
0.30218725
0.3023627
0.3033932
0.30382069
0.30234342
0.29985374
0.29834834
0.29794723
0.29816802
0.29861971
0.29906696
0.29937484
0.29952306
0.29997589
0.31189564
0.3126184
0.31069042
0.30761268
0.30970715
0.31663287
0.32369494
0.32548113
0.32547225
0.32563115
0.32677213
0.33015291
0.33164448
0.33498414
0.33621925
0.33970206
0.34077131
0.34475173
0.34548266
0.35024061
0.35011753
0.35905492
0.35610201
0.36988635
0.3608368
0.37162435
0.36243774
0.35436562
0.35980007
0.34781213
0.34957611
0.33714742
0.33638263
0.32498844
0.32457441
0.31785222
0.31541865
0.31303277
0.30996143
0.30910802
0.30763082
0.30658207
0.30557306
0.30473756
0.3040511
0.30357676
0.30318407
0.30265515
0.30218559
0.30236185
0.30339276
0.30382004
0.30234133
0.29985162
0.29834642
0.29794588
0.29816706
0.29861913
0.29906665
0.29937471
0.29952301
0.29946034
0.3116591
0.31253138
0.31065928
0.30753122
0.30949015
0.31619192
0.32349833
0.32540649
0.32543865
0.32561082
0.32676895
0.33016525
0.33165568
0.33499441
0.33622828
0.33971113
0.3407806
0.34476344
0.34549543
0.35025587
0.35013464
0.35907334
0.35612344
0.36992521
0.36084664
0.37168605
0.36244659
0.35438454
0.3598434
0.34783003
0.34960464
0.33715046
0.33639851
0.32498913
0.32457656
0.31784167
0.3154125
0.31302472
0.30995584
0.30910287
0.30762649
0.30657796
0.30556947
0.30473456
0.30404835
0.30357424
0.30318155
0.30265293
0.30218379
0.30236105
0.30339232
0.3038192
0.30233911
0.29984948
0.29834442
0.29794448
0.29816607
0.29861852
0.29906633
0.29937457
0.29952295
0.29890879
0.31140751
0.31244126
0.3106228
0.30746958
0.30927692
0.31567099
0.3232766
0.32532075
0.32540026
0.32558707
0.3267643
0.33017884
0.33166809
0.33500542
0.33623794
0.33972031
0.34078972
0.34477466
0.34550906
0.35027394
0.35015426
0.35909292
0.35614651
0.36996577
0.36085699
0.37174975
0.36245664
0.35440498
0.3598879
0.34784692
0.34963203
0.33715146
0.33641417
0.32498969
0.3245796
0.31783031
0.31540594
0.31301639
0.30995004
0.30909735
0.30762179
0.30657366
0.30556571
0.30473127
0.30404538
0.30357156
0.30317892
0.30265061
0.30218186
0.30236018
0.30339187
0.30381823
0.30233669
0.2998471
0.29834234
0.29794302
0.29816504
0.2986179
0.29906599
0.29937442
0.29952289
0.29831708
0.31113835
0.3123466
0.31056945
0.30743852
0.30907174
0.31503877
0.32300701
0.32523039
0.32536127
0.32556249
0.32675939
0.33019286
0.33168139
0.33501794
0.33624911
0.33973145
0.34080087
0.34478782
0.3455232
0.35029067
0.35017362
0.35911319
0.35617085
0.37000807
0.36086889
0.37181724
0.3624668
0.35442615
0.35993553
0.34786743
0.34966403
0.33715527
0.33643089
0.32499076
0.32458277
0.31781877
0.31540056
0.31300784
0.30994366
0.3090916
0.30761697
0.30656904
0.3055617
0.30472794
0.30404223
0.30356871
0.30317625
0.30264798
0.30217999
0.30235912
0.3033915
0.30381726
0.30233415
0.29984457
0.29834033
0.29794151
0.29816397
0.29861724
0.29906563
0.29937426
0.29952282
0.29767986
0.31084949
0.31224576
0.31049423
0.30742727
0.30886648
0.31428793
0.32268862
0.32511763
0.32531398
0.32553356
0.3267533
0.33020763
0.33169526
0.33503102
0.33626092
0.33974249
0.34081163
0.34480063
0.34553883
0.35031109
0.3501959
0.35913501
0.35619677
0.37005197
0.3608813
0.37188699
0.36247927
0.35444843
0.35998444
0.3478867
0.34969508
0.33715679
0.33644553
0.32499137
0.32458647
0.31780682
0.3153945
0.31299857
0.30993714
0.3090855
0.30761179
0.30656429
0.30555756
0.3047243
0.3040389
0.30356574
0.30317327
0.30264547
0.30217804
0.30235804
0.30339101
0.3038161
0.30233157
0.29984197
0.29833832
0.29793993
0.29816284
0.29861652
0.29906524
0.2993741
0.29952276
0.29699068
0.31053677
0.31213791
0.31041069
0.30741929
0.30857038
0.31348225
0.32230329
0.3249929
0.32526437
0.32550105
0.32674418
0.33022331
0.33171099
0.3350463
0.33627472
0.33975604
0.34082492
0.3448152
0.34555436
0.3503295
0.35021787
0.35915808
0.35622422
0.37009778
0.36089597
0.37196093
0.36249204
0.35447072
0.36003675
0.34791024
0.34973008
0.33716102
0.33646353
0.32499091
0.3245904
0.31779457
0.31538805
0.3129888
0.30992999
0.30907924
0.30760634
0.30655911
0.30555318
0.30472058
0.3040354
0.30356258
0.30317026
0.30264288
0.30217593
0.30235697
0.30339049
0.30381487
0.30232892
0.29983906
0.29833603
0.29793826
0.29816167
0.29861577
0.29906484
0.29937392
0.29952269
0.29624618
0.31019763
0.31202386
0.31034161
0.30739612
0.30814166
0.31268734
0.32186095
0.32484722
0.32520674
0.32546545
0.32673556
0.33023891
0.33172617
0.33506197
0.33628941
0.33976977
0.34083801
0.34483014
0.34557236
0.35035246
0.350243
0.35918269
0.35625323
0.37014502
0.36091117
0.37203749
0.36250733
0.35449424
0.36009068
0.34793216
0.34976334
0.33716267
0.33647992
0.32499215
0.32459472
0.3177817
0.31538201
0.31297833
0.30992273
0.30907261
0.30760055
0.3065539
0.30554866
0.30471666
0.30403172
0.30355932
0.303167
0.30264019
0.30217373
0.30235589
0.30338993
0.30381354
0.3023262
0.29983613
0.29833356
0.29793649
0.29816041
0.29861499
0.29906442
0.29937373
0.29952261
0.29544383
0.30983232
0.31189431
0.31029677
0.30732208
0.30761601
0.31187102
0.32135752
0.32466544
0.32513406
0.32541941
0.32672179
0.33025709
0.3317441
0.33507989
0.33630594
0.3397859
0.34085354
0.34484598
0.34558929
0.35037281
0.35026795
0.35920899
0.35628428
0.37019447
0.36092925
0.37211853
0.36252275
0.35451757
0.36014852
0.34795897
0.34980218
0.33716773
0.33649971
0.32499428
0.32459866
0.31776882
0.31537459
0.31296707
0.30991507
0.30906565
0.30759428
0.30654827
0.30554398
0.30471242
0.30402796
0.30355591
0.30316357
0.30263751
0.30217129
0.30235465
0.3033893
0.30381206
0.30232328
0.29983326
0.29833108
0.29793463
0.29815908
0.29861416
0.29906398
0.29937354
0.29952253
0.29458715
0.30944042
0.3117439
0.31027426
0.30717325
0.30702549
0.3110425
0.32080205
0.3244795
0.32505838
0.32536816
0.32670256
0.3302714
0.33176003
0.33509878
0.33632431
0.33980314
0.34086969
0.34486353
0.34560996
0.35039839
0.35029616
0.35923654
0.35631681
0.37024523
0.36094777
0.37220267
0.36254184
0.35454226
0.36020789
0.34798383
0.34983972
0.33717029
0.33651815
0.32499448
0.32460355
0.31775547
0.31536639
0.31295569
0.30990724
0.30905824
0.30758792
0.30654262
0.30553903
0.30470801
0.30402385
0.30355226
0.30316007
0.30263453
0.30216885
0.30235334
0.30338875
0.30381049
0.30232019
0.29983022
0.29832852
0.29793267
0.29815768
0.29861329
0.29906351
0.29937333
0.29952245
0.29369274
0.3090206
0.31157834
0.31027335
0.30698379
0.30638547
0.31020084
0.32020178
0.3242427
0.32495287
0.32530255
0.32668416
0.33029216
0.33177842
0.33511802
0.336343
0.33982189
0.34088758
0.34488065
0.3456284
0.35042102
0.35032469
0.35926631
0.35635208
0.37029851
0.360969
0.37229117
0.36256073
0.3545666
0.36027194
0.34801415
0.34988244
0.33717606
0.33653916
0.32499622
0.32460803
0.31774068
0.31535739
0.3129441
0.30989898
0.30905039
0.30758088
0.30653653
0.30553395
0.30470324
0.30401966
0.30354839
0.30315642
0.30263116
0.30216627
0.30235187
0.30338833
0.30380881
0.30231703
0.29982695
0.29832578
0.29793061
0.29815621
0.29861238
0.29906302
0.29937312
0.29952237
0.29277407
0.30856586
0.31141027
0.31026999
0.3067521
0.30571479
0.30934921
0.31954958
0.32398275
0.32483908
0.32522828
0.32665573
0.33030696
0.33179543
0.3351403
0.33636517
0.33984267
0.34090692
0.34490101
0.34565178
0.35044902
0.35035618
0.35929687
0.35638873
0.37035322
0.36099064
0.37238389
0.36258443
0.35459247
0.36033763
0.34804188
0.34992325
0.33717982
0.33655835
0.32499644
0.32461222
0.31772471
0.31534849
0.31293175
0.30989031
0.30904205
0.3075738
0.30653025
0.30552848
0.30469823
0.30401528
0.3035443
0.30315275
0.30262783
0.30216359
0.30235039
0.30338804
0.30380697
0.30231369
0.29982335
0.29832284
0.29792844
0.29815467
0.29861143
0.29906251
0.29937289
0.29952228
0.29185043
0.30806626
0.31124823
0.31025513
0.30648745
0.30501533
0.30847953
0.31885401
0.32370398
0.32470167
0.32513395
0.32661908
0.33032058
0.33180912
0.3351588
0.33638498
0.33986413
0.3409274
0.34491974
0.34567209
0.35047429
0.35038875
0.35933028
0.35642882
0.37041088
0.36101595
0.37248096
0.36260765
0.35461784
0.36040811
0.34807539
0.34996977
0.33718601
0.33657984
0.32499527
0.3246176
0.31770888
0.31534001
0.31291872
0.309881
0.30903349
0.30756601
0.30652364
0.30552283
0.30469292
0.3040106
0.30354007
0.30314872
0.30262441
0.30216083
0.30234888
0.30338761
0.30380494
0.3023102
0.29981953
0.29831977
0.29792616
0.29815307
0.29861043
0.29906197
0.29937266
0.29952219
0.29093381
0.30753238
0.31109178
0.31021143
0.3061973
0.30430168
0.3076042
0.31813155
0.32340482
0.32455878
0.32504312
0.32659098
0.33033849
0.33182732
0.33518238
0.33640904
0.33988683
0.34094878
0.34494237
0.34569782
0.35050443
0.35042361
0.35936412
0.35647027
0.37047002
0.36104243
0.37258348
0.36263721
0.3546448
0.36047975
0.34810624
0.35001432
0.3371907
0.3366011
0.32499489
0.32462423
0.31769349
0.31533181
0.31290507
0.30987109
0.30902441
0.30755816
0.30651661
0.30551686
0.30468733
0.30400591
0.30353567
0.30314445
0.30262063
0.30215793
0.30234734
0.30338715
0.30380283
0.30230651
0.29981573
0.29831657
0.29792376
0.29815138
0.29860938
0.2990614
0.29937241
0.29952209
0.29002837
0.30696419
0.31093283
0.31013613
0.30589193
0.30357324
0.30671914
0.31735417
0.32305687
0.32438794
0.32493097
0.32654751
0.33034369
0.33183364
0.33519922
0.33642946
0.33991096
0.34097233
0.34496343
0.34572062
0.35053273
0.35046061
0.3594013
0.35651583
0.37053216
0.36107224
0.3726896
0.36266568
0.35467122
0.36055679
0.34814386
0.35006503
0.33719883
0.33662219
0.32499622
0.32463228
0.31767796
0.31532286
0.31289049
0.30986101
0.309015
0.30754968
0.30650945
0.30551039
0.30468129
0.30400075
0.30353104
0.30313997
0.30261673
0.30215474
0.3023456
0.30338664
0.30380066
0.30230259
0.29981177
0.29831323
0.29792124
0.29814959
0.29860827
0.29906081
0.29937214
0.29952199
0.28913108
0.30638554
0.31077163
0.31003667
0.30558457
0.30284415
0.30582925
0.31652816
0.32270517
0.32420101
0.32479917
0.32649708
0.3303535
0.33184711
0.33521992
0.3364508
0.33993216
0.3409938
0.3449876
0.34574823
0.35056483
0.35049913
0.35943874
0.35656301
0.37059615
0.36110385
0.3728026
0.3627023
0.35469933
0.36063525
0.34817864
0.35011376
0.33720631
0.33664334
0.3249968
0.32463933
0.31766115
0.31531243
0.31287521
0.30985032
0.30900504
0.30754083
0.30650179
0.30550379
0.30467529
0.30399558
0.30352635
0.30313503
0.30261255
0.30215143
0.30234361
0.30338615
0.30379849
0.3022984
0.29980743
0.29830971
0.29791861
0.29814772
0.29860711
0.29906019
0.29937187
0.29952189
0.28822839
0.30580063
0.31061479
0.30992529
0.305285
0.30211664
0.30492756
0.3156124
0.32234344
0.32401768
0.32466182
0.326443
0.33035368
0.33185333
0.33523827
0.33647195
0.33995749
0.3410195
0.34501139
0.34577403
0.35059628
0.35054078
0.35947964
0.35661456
0.37066329
0.36113904
0.37291902
0.36273726
0.35472664
0.36071964
0.34822089
0.35017037
0.33721826
0.3366666
0.32499742
0.32464574
0.3176432
0.31530173
0.31285934
0.30983911
0.30899412
0.30753178
0.30649392
0.30549624
0.30466867
0.30398999
0.30352119
0.30313001
0.30260819
0.30214825
0.30234154
0.30338578
0.30379617
0.30229395
0.29980285
0.29830602
0.29791584
0.29814576
0.2986059
0.29905953
0.29937158
0.29952177
0.28726268
0.30522074
0.31046391
0.30980802
0.30500067
0.30138794
0.30402443
0.3146552
0.32188858
0.32377677
0.32450741
0.32640314
0.33035317
0.33185565
0.33524854
0.3364859
0.33997658
0.34104041
0.34503676
0.34580373
0.35063055
0.35058356
0.35952119
0.35666844
0.37073254
0.36117729
0.37304368
0.36278279
0.35475584
0.36080578
0.34825968
0.35022353
0.33722545
0.33668882
0.32500027
0.3246534
0.31762473
0.31529013
0.31284288
0.3098272
0.3089832
0.30752214
0.30648552
0.30548861
0.30466205
0.30398423
0.30351567
0.30312503
0.30260352
0.30214468
0.30233957
0.30338523
0.30379368
0.30228955
0.29979816
0.29830216
0.29791292
0.29814369
0.29860462
0.29905884
0.29937127
0.29952166
0.2861912
0.30465689
0.31034644
0.30971607
0.30474797
0.30064923
0.30309421
0.31361394
0.32139409
0.32351914
0.32437884
0.32639209
0.33036359
0.33187358
0.33526792
0.33650586
0.33999863
0.34106523
0.34506308
0.34583261
0.35066503
0.35062985
0.3595659
0.35672677
0.37080519
0.36121973
0.37317123
0.3628257
0.35478409
0.36089861
0.3483067
0.35028526
0.33723577
0.33671339
0.32500219
0.3246612
0.31760657
0.31527905
0.31282539
0.30981459
0.308971
0.30751225
0.30647655
0.30548036
0.30465518
0.30397794
0.30350982
0.30311954
0.30259844
0.30214105
0.30233779
0.30338447
0.30379119
0.30228501
0.29979322
0.29829808
0.29790985
0.29814151
0.29860327
0.29905812
0.29937095
0.29952154
0.28497709
0.30406026
0.31027829
0.30967393
0.30451904
0.29989962
0.30217571
0.31251109
0.32083056
0.32315187
0.3242788
0.32635582
0.33034881
0.331871
0.33527379
0.33651844
0.34001935
0.34108843
0.34509129
0.34586584
0.35070278
0.3506779
0.35961182
0.35678802
0.37087989
0.36126542
0.37330881
0.36288181
0.35481419
0.36099323
0.34834921
0.35034219
0.33724012
0.33673644
0.32500613
0.32467009
0.31758839
0.31526719
0.31280708
0.30980137
0.30895866
0.3075018
0.30646747
0.30547164
0.3046476
0.30397115
0.30350375
0.30311371
0.3025933
0.30213742
0.30233575
0.30338336
0.30378851
0.30228005
0.29978799
0.29829378
0.29790662
0.29813924
0.29860186
0.29905736
0.29937062
0.29952141
0.28359334
0.30342114
0.31024179
0.30967606
0.30429378
0.29911175
0.30123821
0.31134995
0.32023308
0.32270061
0.32421155
0.32632358
0.33034669
0.33187996
0.33528099
0.33652919
0.34003485
0.3411109
0.34512061
0.34589822
0.35074055
0.35072932
0.35966101
0.35685444
0.37095879
0.36131494
0.37344781
0.3629333
0.35484354
0.36109497
0.34840123
0.3504083
0.33725006
0.33676321
0.32501051
0.32467861
0.31756875
0.31525509
0.31278746
0.30978753
0.3089453
0.30749089
0.30645739
0.30546294
0.30464019
0.3039645
0.30349748
0.3031078
0.302588
0.3021333
0.30233361
0.30338199
0.30378587
0.30227494
0.29978251
0.29828927
0.29790324
0.29813684
0.29860038
0.29905656
0.29937027
0.29952128
0.28206079
0.30267486
0.31019217
0.30966061
0.3040328
0.29830443
0.30030029
0.31009851
0.31964474
0.32233089
0.32412358
0.32628944
0.33035305
0.33190074
0.33529869
0.33655129
0.34005982
0.34113695
0.34515204
0.34593671
0.35078396
0.35078381
0.35971134
0.35692351
0.3710393
0.36136801
0.37359953
0.36300207
0.35487549
0.36119898
0.34844794
0.35046954
0.33725452
0.33678696
0.32501595
0.32468755
0.31754895
0.3152421
0.31276747
0.30977295
0.30893115
0.30747921
0.30644662
0.30545311
0.30463192
0.30395695
0.30349075
0.30310148
0.30258221
0.30212896
0.30233165
0.30338049
0.30378318
0.3022697
0.29977675
0.29828451
0.29789968
0.29813433
0.29859882
0.29905573
0.2993699
0.29952114
0.28045536
0.30175109
0.31010957
0.30960448
0.30371716
0.29745621
0.29935248
0.30879881
0.31895856
0.32189523
0.32399068
0.3262217
0.33033008
0.33190799
0.33530763
0.33656739
0.34007978
0.34116425
0.34518692
0.34597399
0.35082594
0.35084175
0.35976592
0.35699937
0.37112467
0.36142478
0.37375056
0.36306375
0.35490738
0.36131057
0.34850418
0.35053866
0.33726434
0.33681474
0.32502144
0.32469673
0.31752848
0.31522891
0.312746
0.30975731
0.30891682
0.30746686
0.30643538
0.3054437
0.30462326
0.30394919
0.3034838
0.30309478
0.30257592
0.30212443
0.30232963
0.3033787
0.30378003
0.3022641
0.2997707
0.29827951
0.29789594
0.29813169
0.29859719
0.29905486
0.29936951
0.29952099
0.27884679
0.30058164
0.30989679
0.30943849
0.30330196
0.29657383
0.29838174
0.30742114
0.31826536
0.32149745
0.32384447
0.32615794
0.33033378
0.33193867
0.33533274
0.33660044
0.34011117
0.34119364
0.34522205
0.3460198
0.35087791
0.35090429
0.35982119
0.35707727
0.37121176
0.36148713
0.37391813
0.36314697
0.3549421
0.36142489
0.34855819
0.35060707
0.33727167
0.33684128
0.32502796
0.32470688
0.3175077
0.3152164
0.31272338
0.30974059
0.30890097
0.30745354
0.3064228
0.30543358
0.30461414
0.30394132
0.30347636
0.30308781
0.30256953
0.30211971
0.30232772
0.30337684
0.30377665
0.30225816
0.29976434
0.29827426
0.297892
0.29812891
0.29859548
0.29905394
0.2993691
0.29952083
0.27730378
0.29917166
0.30945036
0.30905577
0.30277245
0.29564493
0.29739066
0.30596975
0.31750939
0.32107036
0.32368029
0.32607535
0.33031714
0.33198456
0.33537364
0.33664193
0.34014971
0.34123671
0.34526394
0.34606177
0.3509258
0.35097119
0.35988186
0.35716329
0.3713036
0.36155193
0.3740816
0.36322067
0.35497708
0.36154846
0.34862168
0.35068169
0.33728141
0.33686865
0.32503321
0.32471631
0.31748788
0.31520207
0.31269954
0.309723
0.30888508
0.3074395
0.30641052
0.30542253
0.30460407
0.30393278
0.30346873
0.3030806
0.30256311
0.30211469
0.30232583
0.30337486
0.30377325
0.30225195
0.29975766
0.29826874
0.29788786
0.298126
0.29859368
0.29905298
0.29936868
0.29952067
0.27587759
0.29753741
0.30873328
0.30842469
0.30210576
0.29467365
0.29638761
0.30451619
0.31661331
0.32048264
0.32342269
0.32591035
0.3302222
0.33197395
0.33539911
0.33667964
0.34018879
0.34127562
0.34530973
0.34611924
0.35098612
0.35104282
0.35994395
0.35725234
0.37139831
0.36162517
0.37426529
0.36332039
0.35501521
0.36167618
0.34868416
0.35075688
0.33729134
0.33689666
0.32503884
0.32472561
0.31746629
0.31518694
0.31267369
0.30970443
0.30886797
0.30742489
0.30639771
0.30541152
0.30459375
0.30392388
0.30346062
0.30307271
0.30255621
0.30210922
0.30232381
0.30337266
0.3037697
0.30224543
0.29975067
0.29826293
0.29788351
0.29812294
0.29859179
0.29905197
0.29936823
0.2995205
0.27460167
0.29572086
0.30774581
0.30758273
0.30133943
0.29365779
0.29533513
0.30300563
0.31583645
0.32003421
0.3231948
0.3257344
0.33012281
0.3319634
0.33541848
0.33670874
0.34022662
0.34131783
0.34534269
0.34615855
0.3510419
0.35112033
0.36001078
0.35734884
0.37149699
0.36169916
0.37444231
0.36340909
0.35505343
0.36181337
0.3487555
0.35083756
0.33730122
0.33692335
0.32504404
0.32473571
0.31744371
0.31517096
0.31264794
0.30968456
0.3088496
0.30740925
0.30638413
0.30539902
0.30458311
0.30391442
0.30345174
0.30306433
0.30254895
0.30210358
0.30232169
0.3033706
0.30376609
0.30223859
0.2997433
0.29825683
0.29787894
0.29811972
0.29858981
0.29905091
0.29936776
0.29952032
0.27346171
0.2937737
0.30649939
0.30653571
0.30044524
0.29257681
0.29422738
0.30135363
0.3148177
0.31942072
0.32285187
0.32553412
0.33002155
0.33198951
0.33545756
0.33674806
0.34025897
0.34136348
0.34540572
0.34622574
0.35110478
0.35120134
0.36008136
0.35745076
0.37159966
0.36178449
0.37464317
0.36352547
0.35509811
0.36195614
0.34882681
0.3509199
0.33731293
0.3369523
0.32505213
0.32474771
0.31742061
0.31515504
0.31261953
0.30966397
0.30883019
0.30739258
0.30637038
0.30538577
0.30457219
0.30390479
0.30344268
0.30305598
0.30254167
0.30209786
0.3023191
0.30336858
0.30376243
0.30223143
0.29973554
0.29825041
0.29787413
0.29811635
0.29858772
0.2990498
0.29936727
0.29952014
0.27237028
0.29175882
0.30508269
0.30534231
0.29940803
0.2913941
0.29304619
0.29975173
0.31366985
0.31868612
0.32234835
0.32524995
0.32987105
0.33200572
0.33551112
0.33679162
0.34026219
0.34137814
0.34543367
0.3462693
0.35116705
0.35128746
0.36015615
0.35756102
0.37170759
0.36186963
0.37483563
0.36362332
0.35514879
0.36210951
0.3489059
0.3510034
0.33732229
0.33697853
0.32505583
0.32475847
0.31739711
0.31513836
0.31258971
0.30964249
0.30880966
0.3073758
0.30635479
0.30537203
0.30456035
0.30389457
0.30343302
0.3030468
0.30253375
0.30209178
0.30231578
0.30336615
0.30375854
0.3022239
0.29972736
0.29824365
0.29786908
0.2981128
0.29858554
0.29904864
0.29936675
0.29951994
0.2711128
0.289649
0.30344516