/*--------------------------------*- C++ -*----------------------------------*\
| =========                 |                                                 |
| \\      /  F ield         | OpenFOAM: The Open Source CFD Toolbox           |
|  \\    /   O peration     | Version:  2506                                  |
|   \\  /    A nd           | Website:  www.openfoam.com                      |
|    \\/     M anipulation  |                                                 |
\*---------------------------------------------------------------------------*/
FoamFile
{
    version     2.0;
    format      ascii;
    arch        "LSB;label=32;scalar=64";
    class       surfaceScalarField;
    location    "1.6";
    object      phi;
}
// * * * * * * * * * * * * * * * * * * * * * * * * * * * * * * * * * * * * * //

dimensions      [1 0 -1 0 0 0 0];

oriented        oriented;

internalField   nonuniform List<scalar> 
38210
(
5.6156049
-51.672053
52.112644
5.2307423
-47.838605
48.226993
4.8557419
-44.298425
44.674657
4.5083238
-41.020107
41.366621
4.184698
-37.988079
38.310848
3.8903381
-35.178669
35.472878
3.6157746
-32.573422
32.847363
3.3572198
-30.160788
30.419501
3.1182085
-27.929052
28.167837
2.8999393
-25.864056
26.082341
2.6958819
-23.951928
24.15593
2.5040058
-22.182124
22.373489
2.3297877
-20.547145
20.721614
2.167639
-19.027958
19.190998
2.0161783
-17.624538
17.776469
1.8781992
-16.324336
16.462368
1.7478255
-15.119249
15.249613
1.6292005
-14.005664
14.12427
1.5186904
-12.97415
13.085053
1.4144034
-12.01836
12.12222
1.3181696
-11.134459
11.230625
1.2288816
-10.31641
10.406045
1.1463226
-9.5592292
9.6417211
1.0691633
-8.8574109
8.9343636
0.99714571
-8.2080946
8.2801598
0.92914618
-7.6057198
7.6731658
0.86643764
-7.0489707
7.1117383
0.80785194
-6.5326091
6.5917144
0.75309413
-6.0562213
6.1115467
0.70149841
-5.6150613
5.6663867
0.65251977
-5.2039462
5.2528509
0.60649096
-4.824147
4.8698622
0.56335428
-4.4722888
4.5152067
0.52189153
-4.1464115
4.1879933
0.48508125
-3.8459091
3.8827353
0.44723993
-3.5656664
3.6036125
0.40907083
-3.3062797
3.3447538
0.37278873
-3.0677275
3.1043697
0.33342919
-2.8433017
2.8826723
0.30147035
-2.6433944
2.6744425
0.26827869
-2.4531474
2.4859664
0.23457125
-2.2764554
2.3108622
0.18146423
-2.109962
2.164812
0.14444708
-1.9819962
2.0177133
0.12273456
-1.8523003
1.8711606
0.11920756
-1.7247708
1.726172
0.10114768
-1.6390497
1.6512138
0.05229028
-1.5196839
1.5687271
-1.5114105
1.5628884
6.9258594
-51.129992
6.4177576
-47.328928
5.9473702
-43.826941
5.5155571
-40.589593
5.114182
-37.587384
4.7424899
-34.807112
4.3996354
-32.231138
4.0806797
-29.841853
3.7858593
-27.634513
3.5137685
-25.592214
3.2617609
-23.69971
3.0249526
-21.945386
2.8038935
-20.326143
2.6012039
-18.824415
2.413825
-17.43677
2.2400794
-16.150728
2.0789653
-14.958151
1.9301888
-13.857071
1.7924269
-12.835913
1.6639785
-11.89042
1.5448716
-11.01555
1.4343184
-10.205613
1.3317586
-9.4565187
1.2357368
-8.7615662
1.1468535
-8.1191779
1.0636467
-7.5230306
0.98591951
-6.9713673
0.91419422
-6.4604752
0.84761142
-5.9891065
0.78487244
-5.5520345
0.72595293
-5.1453088
0.67065871
-4.7691993
0.61872137
-4.4206064
0.57002178
-4.0976615
0.52254027
-3.7985202
0.47850777
-3.52177
0.43820083
-3.2655202
0.39910714
-3.0282798
0.36466657
-2.8089688
0.32674047
-2.6059469
0.28929341
-2.4164282
0.25213449
-2.23935
0.22944013
-2.0862275
0.18363961
-1.9379906
0.13695996
-1.8092053
0.09549203
-1.6859707
0.10347275
-1.6589138
0.086718801
-1.5001542
-1.4118751
8.4466019
-50.449349
7.8347352
-46.715995
7.2630007
-43.25566
6.7297802
-40.058505
6.2357792
-37.094892
5.7758198
-34.347356
5.350895
-31.806992
4.9582857
-29.449262
4.5939363
-27.270537
4.2548682
-25.253346
3.942427
-23.386641
3.6560607
-21.658558
3.3865418
-20.056834
3.1395246
-18.577065
2.9079901
-17.204879
2.6924368
-15.935288
2.4940023
-14.760053
2.3099111
-13.673221
2.1404469
-12.666082
1.9825508
-11.733057
1.8355812
-10.868786
1.6990255
-10.068901
1.5721363
-9.3292506
1.45513
-8.6445673
1.3459708
-8.0100487
1.2444425
-7.4219872
1.1495558
-6.8767043
1.0618876
-6.3726876
0.9803051
-5.9069296
0.90402562
-5.4751885
0.83276712
-5.0744025
0.7658928
-4.7025184
0.70329151
-4.3583006
0.64503074
-4.0394019
0.59041176
-3.7440202
0.5385794
-3.4702299
0.48978131
-3.2162137
0.4435462
-2.9816016
0.39839
-2.7639118
0.35353423
-2.5611429
0.31504349
-2.3782736
0.27883307
-2.2027122
0.2407183
-2.0476819
0.20450689
-1.9022201
0.1534431
-1.7607815
0.11165368
-1.645618
-0.0094136112
-1.5199987
-0.048618065
-1.4604632
-1.4726921
10.299434
-49.624689
9.5384853
-45.957556
8.8329887
-42.55343
8.1768857
-39.404159
7.5717703
-36.491528
7.0113246
-33.786633
6.4872701
-31.283942
6.0074144
-28.969493
5.5595957
-26.823206
5.1448721
-24.839101
4.7605838
-23.001881
4.4044209
-21.301871
4.0755789
-19.728154
3.7711086
-18.272979
3.489484
-16.92266
3.227669
-15.673253
2.9852378
-14.51799
2.7606744
-13.448875
2.5509316
-12.456022
2.3564345
-11.538953
2.1766672
-10.689197
2.0106937
-9.9028289
1.8563418
-9.1745072
1.7130723
-8.501119
1.5794123
-7.8764195
1.4554716
-7.2982876
1.3404138
-6.7621145
1.2332216
-6.265703
1.1339503
-5.8069135
1.04191
-5.3824161
0.95566661
-4.9883029
0.8753361
-4.6224139
0.80021043
-4.2834974
0.73016444
-3.9694316
0.66476384
-3.6787476
0.60301803
-3.4089136
0.54593837
-3.1588142
0.49197291
-2.9271283
0.44071853
-2.7126834
0.39461209
-2.515225
0.34388216
-2.3274784
0.29986137
-2.1582321
0.25559665
-2.0021231
0.20847936
-1.8544702
0.17216852
-1.7272685
0.13790683
-1.6148327
0.14072276
-1.5202713
0.091307858
-1.4145819
-1.383924
12.470448
-48.621706
11.542935
-45.030651
10.683898
-41.696694
9.8834485
-38.603849
9.1418005
-35.751287
8.4615933
-33.105952
7.8297233
-30.653043
7.2423668
-28.381993
6.6989746
-26.280089
6.1945065
-24.335232
5.7298085
-22.537056
5.2984316
-20.869997
4.8982566
-19.328248
4.523711
-17.898985
4.1796721
-16.577952
3.8628716
-15.355852
3.5658247
-14.220916
3.2903312
-13.173733
3.0378538
-12.20319
2.8030933
-11.304502
2.5846627
-10.470811
2.3818554
-9.7001563
2.1949692
-8.9873765
2.0206113
-8.3264881
1.8586428
-7.7142087
1.7087377
-7.1484249
1.5692214
-6.6232668
1.4397614
-6.1363615
1.3196771
-5.6861198
1.2081612
-5.2702531
1.1043575
-4.8844717
1.0078314
-4.526074
0.91783691
-4.1938196
0.83416606
-3.8858878
0.75600216
-3.6006346
0.68275965
-3.3361781
0.61488256
-3.0909262
0.55219506
-2.8639018
0.49287964
-2.6533416
0.43458669
-2.4571589
0.38452399
-2.2772864
0.33707148
-2.1104388
0.28590777
-1.9500628
0.24058424
-1.8083765
0.1927903
-1.6806526
0.13383759
-1.5590522
0.050059421
-1.4376168
0.0012193011
-1.3666778
-1.3804447
15.017609
-47.416902
13.890534
-43.903121
12.847699
-40.654755
11.882279
-37.638082
10.986815
-34.856645
10.157941
-32.27667
9.3912156
-29.88716
8.6835956
-27.674107
8.0289467
-25.625429
7.4217055
-23.728441
6.8572986
-21.972682
6.3361749
-20.348058
5.8523409
-18.844621
5.4045551
-17.451409
4.9867391
-16.15999
4.6007465
-14.969152
4.2455834
-13.865538
3.9160592
-12.844701
3.6100545
-11.896913
3.3259081
-11.020055
3.0627645
-10.20799
2.8179954
-9.4558325
2.5912459
-8.7604611
2.3816403
-8.116556
2.1873692
-7.5197424
2.0062757
-6.9672932
1.8378413
-6.455519
1.682589
-5.9813567
1.5391465
-5.5421267
1.4054478
-5.1359
1.2808427
-4.7596192
1.1650599
-4.4103246
1.0573112
-4.0863578
0.95722569
-3.7859996
0.86434537
-3.5077588
0.77734408
-3.2497209
0.69635001
-3.010238
0.62103441
-2.7880766
0.55105917
-2.5831975
0.48584344
-2.3920989
0.42313564
-2.2145592
0.36112773
-2.0479911
0.31333115
-1.901664
0.26628413
-1.7601281
0.21225574
-1.6266451
0.16104112
-1.5102777
0.12847856
-1.4071285
0.074498136
-1.3120988
-1.3030048
17.936042
-45.964849
16.590846
-42.55739
15.342043
-39.407069
14.185434
-36.482043
13.111901
-33.783582
12.120708
-31.285365
11.202844
-28.970269
10.353757
-26.825004
9.5660524
-24.837544
8.8366207
-22.999281
8.1607974
-21.296856
7.5369734
-19.723359
6.9558267
-18.263421
6.4199578
-16.915632
5.9246918
-15.66502
5.465302
-14.509231
5.0377643
-13.43785
4.6396939
-12.446949
4.2721539
-11.529301
3.9322323
-10.679809
3.6169069
-9.8930295
3.3245579
-9.1639769
3.0537568
-8.489562
2.8026224
-7.8653443
2.5702141
-7.2872365
2.3550239
-6.7518372
2.1541541
-6.2553685
1.9676288
-5.7953206
1.7954963
-5.369557
1.6360849
-4.9757757
1.4879146
-4.6110117
1.3502408
-4.272542
1.2221874
-3.9585744
1.103205
-3.667323
0.9929496
-3.3974995
0.89018643
-3.147428
0.79461325
-2.9152379
0.70670348
-2.6998629
0.6237181
-2.499928
0.54685277
-2.3153773
0.47522273
-2.1429379
0.41355918
-1.986124
0.34127416
-1.8289675
0.27319699
-1.6910391
0.22260205
-1.5756141
0.16896661
-1.4579524
0.10291307
-1.3426385
0.053607628
-1.2620144
-1.2471429
21.261561
-44.236793
19.663499
-40.958464
18.176135
-37.922129
16.803637
-35.110271
15.528131
-32.507284
14.348108
-30.105364
13.257649
-27.880675
12.248545
-25.816142
11.315355
-23.903928
10.450147
-22.133886
9.6477734
-20.494672
8.9042084
-18.979597
8.2175428
-17.576289
7.5786134
-16.276908
6.9869788
-15.07371
6.4380055
-13.959915
5.9313095
-12.93086
5.462794
-11.978395
5.0271869
-11.094097
4.6240402
-10.276204
4.2498226
-9.5188686
3.9028569
-8.8177721
3.5822856
-8.1687548
3.2845975
-7.5678007
3.0085656
-7.0110166
2.7524902
-6.4953571
2.5144395
-6.0179619
2.2938233
-5.5754431
2.0900996
-5.1655628
1.9013497
-4.7862609
1.7259874
-4.4350913
1.5631639
-4.1094857
1.4118605
-3.8074534
1.2714138
-3.5272388
1.1413956
-3.2675007
1.0202101
-3.0265511
0.9075319
-2.8032711
0.80345572
-2.5957259
0.7076344
-2.4038187
0.617181
-2.2249296
0.53398107
-2.0597192
0.45143614
-1.9033033
0.38871854
-1.766035
0.33154773
-1.6332927
0.25992401
-1.5031692
0.18834152
-1.3868944
0.12746379
-1.2826576
0.068673704
-1.2026227
-1.1769774
24.975198
-42.193102
23.08566
-39.069832
21.341501
-36.178862
19.72827
-33.496456
18.234424
-31.012551
16.844837
-28.716326
15.5618
-26.598427
14.374644
-24.629124
13.275856
-22.804346
12.256793
-21.114368
11.31261
-19.550574
10.437636
-18.104512
9.6275125
-16.765578
8.8776205
-15.526825
8.1827075
-14.379204
7.539591
-13.316769
6.9418351
-12.332823
6.3878632
-11.424181
5.8752294
-10.582007
5.4011344
-9.8016823
4.9616652
-9.0793682
4.5532943
-8.4100915
4.1754009
-7.7906563
3.8250614
-7.2174821
3.5009184
-6.6865887
3.2008735
-6.1947824
2.9217224
-5.7392236
2.6624189
-5.3170891
2.4227687
-4.9259332
2.2011537
-4.5639495
1.9955812
-4.2288949
1.804756
-3.9183179
1.6275827
-3.6303015
1.4629295
-3.3629146
1.3104615
-3.1151255
1.1692311
-2.8854988
1.0373702
-2.6721367
0.91581755
-2.4743963
0.80258744
-2.2903665
0.69876147
-2.1210682
0.60060359
-1.9614784
0.5145889
-1.8169078
0.42458818
-1.6757917
0.33611027
-1.5443095
0.26567226
-1.4320528
0.20325364
-1.3246196
0.14381263
-1.2238656
0.079632049
-1.1379883
-1.0962738
29.081486
-39.829948
26.889084
-36.878165
24.850795
-34.138699
22.961904
-31.607328
21.21668
-29.265578
19.591654
-27.093174
18.093783
-25.101128
16.709212
-23.244015
15.428606
-21.523038
14.242944
-19.928124
13.143623
-18.451331
12.124732
-17.085241
11.180788
-15.821192
10.305909
-14.651784
9.4953844
-13.56892
8.7446623
-12.566069
8.050949
-11.638639
7.4073179
-10.78044
6.8098613
-9.9852029
6.2570194
-9.2487978
5.7449383
-8.5670556
5.2698456
-7.9357933
4.8304488
-7.351192
4.4231062
-6.8100113
4.0454955
-6.3088311
3.6960119
-5.8446979
3.3713775
-5.4147607
3.0696878
-5.0164521
2.790771
-4.6473782
2.53298
-4.3056147
2.2940059
-3.9892687
2.0722893
-3.6961544
1.866542
-3.4243964
1.6756676
-3.1722739
1.4986052
-2.938243
1.3346498
-2.721677
1.1823324
-2.5204376
1.0411901
-2.3337404
0.91094218
-2.1600498
0.78920519
-1.9993646
0.67880728
-1.8509387
0.57159152
-1.7092466
0.47921253
-1.583068
0.39954707
-1.4644044
0.31579599
-1.3478246
0.22943484
-1.2381328
0.14577315
-1.1404055
0.071179127
-1.063114
-1.024442
33.465764
-37.087824
30.927591
-34.340023
28.583104
-31.793691
26.414961
-29.440905
24.410571
-27.261749
22.546446
-25.230917
20.81872
-23.373007
19.221933
-21.646751
17.74532
-20.046156
16.378824
-18.561031
15.112271
-17.185224
13.938873
-15.911617
12.851952
-14.733878
11.84454
-13.644394
10.911196
-12.635935
10.047252
-11.702237
9.2472366
-10.837854
8.5054366
-10.038253
7.8175399
-9.2978938
7.1806325
-8.6120615
6.5909991
-7.9770376
6.0434094
-7.3891618
5.5369067
-6.8447721
5.0678084
-6.3406583
4.6328291
-5.8738668
4.2303756
-5.4416148
3.8570642
-5.0414034
3.5102975
-4.6706487
3.1892208
-4.3269089
2.8924205
-4.0084685
2.6175198
-3.7137141
2.3626842
-3.4407624
2.1262653
-3.187677
1.9068613
-2.952988
1.7035614
-2.735176
1.5148908
-2.5331635
1.3402422
-2.3462657
1.1778558
-2.1719381
1.0286872
-2.0110237
0.88959582
-1.8603694
0.7601389
-1.7214162
0.64389561
-1.5924569
0.53276241
-1.471433
0.42492903
-1.3562539
0.32767948
-1.2501565
0.24378495
-1.1540875
0.1709952
-1.067873
0.091147036
-0.98314754
-0.93284595
38.100901
-33.977447
35.220464
-31.459889
32.545951
-29.120885
30.06809
-26.964388
27.776359
-24.96905
25.655744
-23.109854
23.686317
-21.402678
21.866886
-19.826554
20.182768
-18.361582
18.624166
-17.001808
17.180233
-15.741863
15.843966
-14.57535
14.607457
-13.496666
13.461281
-12.498265
12.398324
-11.573642
11.413498
-10.71786
10.502341
-9.926095
9.6583238
-9.1935785
8.8755093
-8.5154408
8.1506376
-7.8874038
7.4798851
-7.3056713
6.8569537
-6.767032
6.2802888
-6.2683144
5.7467188
-5.8066781
5.2519565
-5.3792191
4.7941464
-4.9832546
4.3694924
-4.6165198
3.9749969
-4.2768866
3.6095436
-3.9621411
3.2717428
-3.670495
2.9591005
-3.4004501
2.6694062
-3.1504084
2.4007695
-2.9186345
2.1514708
-2.7037019
1.9204208
-2.5043673
1.7064118
-2.3193643
1.5076469
-2.1478767
1.3240795
-1.9889388
1.1532516
-1.8405075
0.99620359
-1.7035123
0.85098961
-1.5762255
0.71599318
-1.4569383
0.59083775
-1.3456738
0.47900476
-1.2440372
0.37600709
-1.1469382
0.27579603
-1.0538047
0.17548715
-0.96766306
0.085504166
-0.89308183
-0.84709471
42.816664
-30.471291
39.569089
-28.21217
36.567297
-26.120204
33.78575
-24.182794
31.210008
-22.392482
28.827323
-20.726375
26.613026
-19.18734
24.565754
-17.778736
22.672144
-16.467824
20.919525
-15.248682
19.295964
-14.118855
17.792747
-13.072522
16.401067
-12.104325
15.111488
-11.208647
13.91693
-10.379639
12.810528
-9.6120677
11.786153
-8.9014223
10.837238
-8.2439835
9.9572475
-7.6357582
9.14218
-7.0726181
8.3882474
-6.5510342
7.688745
-6.0681057
7.0408778
-5.6208664
6.4413733
-5.2067329
5.8853272
-4.8233156
5.3706608
-4.4681693
4.893763
-4.1392678
4.4510755
-3.8347043
4.0407151
-3.5524672
3.6611218
-3.2908936
3.3098332
-3.048637
2.9844639
-2.8243358
2.6828455
-2.6165202
2.4030655
-2.4238389
2.1436118
-2.2451285
1.9033322
-2.0793405
1.6807008
-1.9255755
1.4740354
-1.7827617
1.2835158
-1.6503921
1.1065529
-1.5268626
0.94259104
-1.4123608
0.79234047
-1.3062618
0.6539115
-1.206533
0.52439961
-1.1140808
0.40295135
-1.0252818
0.29280557
-0.94362193
0.19545687
-0.87034533
0.099445586
-0.79715641
-0.74749695
47.486064
-26.582392
43.885197
-24.61115
40.549884
-22.785762
37.462688
-21.09576
34.607323
-19.537327
31.967388
-18.085753
29.513401
-16.733005
27.238132
-15.503557
25.134175
-14.36473
23.188295
-13.302609
21.386792
-12.317759
19.718744
-11.405227
18.175068
-10.560262
16.744521
-9.7781604
15.418854
-9.054392
14.190858
-8.3845984
13.054513
-7.7648388
12.002683
-7.191419
11.02752
-6.660769
10.124014
-6.1693778
9.2878963
-5.7142196
8.5121844
-5.2928294
7.7933962
-4.9027257
7.1285237
-4.5414978
6.5121729
-4.2070421
5.9415478
-3.897228
5.4128926
-3.6102556
4.9223772
-3.3445687
4.4676133
-3.0983981
4.0467397
-2.8702029
3.6573152
-2.6588314
3.2967646
-2.4631185
2.962622
-2.281806
2.652759
-2.1137965
2.3653692
-1.9579022
2.0991382
-1.8133866
1.8524122
-1.6791868
1.624068
-1.5548227
1.4123199
-1.4390731
1.2166896
-1.3316252
1.0358188
-1.2316783
0.86876506
-1.1388859
0.71485466
-1.0519218
0.57174404
-0.97043545
0.44205541
-0.89537731
0.32082621
-0.82237965
0.20741806
-0.75703599
0.10210077
-0.69184766
-0.64532428
51.914459
-22.328732
47.975732
-20.672822
44.329475
-19.139571
40.953095
-17.719408
37.826995
-16.411615
34.942275
-15.200512
32.263459
-14.054128
29.776641
-13.017748
27.474434
-12.064117
25.344817
-11.172937
23.374199
-10.34722
21.549587
-9.5814505
19.861004
-8.8713419
18.2966
-8.2138001
16.847086
-7.6053785
15.504234
-7.0424109
14.261023
-6.5215747
13.110229
-6.03982
12.043728
-5.5941639
11.055827
-5.1816112
10.141772
-4.7994776
9.2942126
-4.4456061
8.5085805
-4.1179226
7.7817909
-3.8144692
7.1082524
-3.5334851
6.4845447
-3.2732148
5.9067432
-3.0321246
5.3708237
-2.8089463
4.8739919
-2.6022038
4.4139612
-2.4105083
3.9882957
-2.2329088
3.5942444
-2.0684657
3.2291994
-1.9161401
2.8907041
-1.77503
2.5768643
-1.6441551
2.2859708
-1.5227554
2.0165924
-1.4101689
1.7669799
-1.3055769
1.5359574
-1.2084689
1.3221546
-1.1182653
1.1244981
-1.0342625
0.94192293
-0.95608143
0.77402061
-0.88337444
0.61932218
-0.81512553
0.47511679
-0.75095865
0.34410866
-0.69137715
0.22066277
-0.63365956
0.10780771
-0.57904178
-0.53751836
55.909357
-17.747229
51.66705
-16.431761
47.740285
-15.212196
44.103875
-14.082895
40.733187
-13.041422
37.617063
-12.08356
34.735262
-11.171996
32.060188
-10.34302
29.583766
-9.5886254
27.291754
-8.8809598
25.169149
-8.2246261
23.202765
-7.6160391
21.383215
-7.0514292
19.697826
-6.5282523
18.136081
-6.0441343
16.689333
-5.5964315
15.350071
-5.182509
14.110663
-4.7996804
12.962264
-4.4454898
11.898338
-4.117666
10.913696
-3.8140868
10.000845
-3.5329551
9.1545742
-3.2725888
8.3717067
-3.0314468
7.6464344
-2.8081288
6.974792
-2.601257
6.3526145
-2.4096311
5.7757374
-2.2322727
5.2410713
-2.0680008
4.745782
-1.9156199
4.287428
-1.7743956
3.8631634
-1.6436535
3.4702092
-1.5225513
3.1058969
-1.4103837
2.7681294
-1.3064142
2.4551077
-1.2099543
2.1651027
-1.1205176
1.8965985
-1.0374433
1.6479259
-0.96020909
1.4177091
-0.88852057
1.2049636
-0.82179132
1.0086961
-0.75964061
0.82757386
-0.70168314
0.66046733
-0.64739298
0.50666463
-0.59688135
0.36368393
-0.5483796
0.23461926
-0.50458506
0.11457322
-0.4590949
-0.42297103
59.272681
-12.889692
54.774436
-11.934816
50.609047
-11.047102
46.752198
-10.226789
43.182118
-9.4720208
39.87515
-8.77586
36.812774
-8.1088349
33.973074
-7.5030148
31.352734
-6.9686448
28.925628
-6.4534262
26.676991
-5.9759203
24.592931
-5.5328423
22.663593
-5.121558
20.876676
-4.7406792
19.220944
-4.3886529
17.687074
-4.0633892
16.266973
-3.7628134
14.952807
-3.4848989
13.735363
-3.2277626
12.607531
-2.9897784
11.563653
-2.7694169
10.596036
-2.5653627
9.6988444
-2.3763774
8.8688079
-2.2013189
8.1000276
-2.0391863
7.3880495
-1.8889646
6.7284658
-1.749786
6.117026
-1.620989
5.5505148
-1.501727
5.0255632
-1.3910559
4.5396664
-1.288441
4.0899556
-1.1934391
3.6734809
-1.1054554
3.2874171
-1.0239676
2.9294692
-0.94846012
2.5978221
-0.87848865
2.2905541
-0.81356541
2.0059926
-0.75325547
1.7425163
-0.69717105
1.4985134
-0.6450108
1.2730866
-0.59664795
1.0649851
-0.55138947
0.87304257
-0.50923331
0.69608174
-0.46984153
0.53261122
-0.4330904
0.38279484
-0.3985021
0.24395342
-0.36573225
0.11767269
-0.33286973
-0.3053616
61.823765
-7.8219848
57.130355
-7.2425305
52.785335
-6.7030858
48.762262
-6.2048019
45.037168
-5.7473729
41.58972
-5.3279757
38.400544
-4.9195036
35.437032
-4.5395123
32.698975
-4.2306821
30.166299
-3.9198294
27.820341
-3.6293399
25.646103
-3.3591875
23.633766
-3.1085003
21.770569
-2.8763679
20.044007
-2.6619552
18.444096
-2.4642777
16.962689
-2.281934
15.591908
-2.113465
14.322088
-1.9576102
13.145725
-1.8133643
12.056868
-1.6797929
11.047721
-1.556114
10.111975
-1.4415905
9.2461592
-1.3354726
8.4443822
-1.2371707
7.7018202
-1.1460718
7.0138321
-1.0616257
6.3761451
-0.98348892
5.7855273
-0.91115263
5.2381364
-0.84398431
4.7313129
-0.78165866
4.2622854
-0.72395391
3.8279551
-0.67052487
3.4253604
-0.62103709
3.0521399
-0.57524356
2.7063191
-0.53283416
2.3859921
-0.49350103
2.0893498
-0.45694069
1.8145699
-0.42285308
1.560191
-0.39115805
1.3250302
-0.36176842
1.1080658
-0.33427278
0.90786852
-0.30858113
0.72319317
-0.28464075
0.55284377
-0.2624074
0.39603377
-0.24156851
0.25236924
-0.22201371
0.1217781
-0.20233733
-0.18366056
63.417808
-2.6228651
58.602983
-2.4282493
54.145752
-2.2472315
50.019594
-2.0798778
46.197426
-1.9258838
42.657246
-1.7874868
39.388533
-1.6502804
36.362965
-1.5152426
33.547675
-1.4149418
30.944282
-1.314584
28.535443
-1.2190935
26.304424
-1.1282429
24.239896
-1.0429331
22.328622
-0.96369269
20.557851
-0.89080563
18.916967
-0.82419793
17.397549
-0.76308686
15.991557
-0.70676717
14.689032
-0.65469095
13.482319
-0.60655272
12.365311
-0.56202044
11.33018
-0.52082777
10.370378
-0.48270332
9.4822017
-0.44731684
8.6598116
-0.41450734
7.8981709
-0.38405309
7.192412
-0.35576866
6.5382945
-0.32962619
5.9326429
-0.30541516
5.3712712
-0.28284838
4.8513454
-0.26184606
4.3702296
-0.24241437
3.9247319
-0.22444174
3.5118144
-0.20781989
3.1290337
-0.19250859
2.7743998
-0.17837455
2.4459576
-0.16527325
2.1418323
-0.15306464
1.8600913
-0.14158015
1.5992074
-0.13084798
1.3580974
-0.120936
1.1356121
-0.11161403
0.9302934
-0.10284965
0.74088127
-0.094780802
0.56620009
-0.087392735
0.40543751
-0.080634663
0.25784295
-0.074319104
0.12298554
-0.067524304
-0.060791294
63.960216
2.6211088
59.104019
2.4273435
54.608387
2.2469737
50.447648
2.0801064
46.59582
1.9255648
43.029067
1.778512
39.727372
1.6489121
36.663147
1.5464628
33.83029
1.419451
31.208165
1.3099636
28.778737
1.2117784
26.528386
1.1222793
24.446153
1.0405131
22.518497
0.96532327
20.732747
0.89524476
19.077899
0.82984868
17.54545
0.76888392
16.127227
0.71215173
14.813501
0.65945394
13.596608
0.61054523
12.470172
0.56523015
11.426291
0.52323847
10.458393
0.48433553
9.5626216
0.44838003
8.7332607
0.41512233
7.965192
0.38443248
7.2533621
0.35608875
6.5936551
0.32978891
5.9829417
0.30547429
5.4168377
0.28307663
4.8924071
0.26242126
4.4071488
0.24324605
3.9578189
0.2254533
3.5413582
0.20888749
3.1553158
0.19343867
2.7977044
0.17905125
2.4665487
0.16570485
2.1599661
0.15334706
1.8759041
0.14202811
1.6128487
0.13159627
1.3697588
0.12188044
1.145484
0.11286065
0.93846514
0.10454347
0.74750533
0.096558778
0.57142475
0.089022383
0.40939223
0.08161211
0.26022088
0.074989945
0.12290626
0.069763879
0.062017734
63.418343
7.8204715
58.603474
7.241641
54.145472
6.7036221
50.019283
6.2057945
46.198864
5.7462856
42.659684
5.3164295
39.380802
4.9255615
36.355224
4.5725431
33.545431
4.2293524
30.944716
3.9113702
28.53674
3.62007
26.305646
3.3531929
24.240365
3.1069079
22.328164
2.8786153
20.556918
2.6666264
18.915956
2.4701636
17.396544
2.2880114
15.990371
2.1190605
14.687861
1.9623534
13.481534
1.8171253
12.364934
1.6826551
11.330187
1.5581625
10.370785
1.4429306
9.4826832
1.3363289
8.6603596
1.2376809
7.8987469
1.14645
7.1927713
1.0619922
6.5385929
0.98369731
5.9330755
0.91125513
5.3717376
0.84427126
4.8516574
0.7823023
4.3704327
0.72485213
3.9248234
0.6715829
3.5117686
0.62211408
3.1289153
0.57615396
2.7742761
0.53350336
2.445885
0.49395199
2.1418828
0.45725258
1.8601691
0.42332793
1.5992395
0.39190034
1.3581355
0.36271512
1.1356737
0.33554362
0.9302879
0.31025989
0.7407764
0.2863946
0.56610638
0.26402655
0.40537277
0.24258986
0.25777438
0.22276215
0.12315819
0.20436816
0.18505414
61.824508
12.888962
57.1309
11.934963
52.78545
11.047535
48.762738
10.228201
45.039478
9.4698634
41.59008
8.7654453
38.39298
8.1228082
35.439372
7.527722
32.704473
6.9632424
30.169809
6.4449916
27.821304
5.9679322
25.645672
5.5282756
23.63228
5.1211563
21.768242
4.743421
20.041538
4.3933506
18.441992
4.0691031
16.961136
3.7687006
15.590848
3.49022
14.321431
3.2321375
13.145699
2.9930908
12.057306
2.7718177
11.048504
2.5670276
10.113103
2.377489
9.2471087
2.202102
8.4452506
2.0397702
7.7025489
1.8895033
7.0140535
1.7502752
6.37632
1.6212421
5.7860641
1.5018613
5.2387933
1.3914073
4.7317067
1.2891695
4.2625011
1.1944238
3.8279727
1.1065576
3.425147
1.0250129
3.0518289
0.94930616
2.7060333
0.87912005
2.3858296
0.81404402
2.0894285
0.75362357
1.8147241
0.69767386
1.5602455
0.64577134
1.3251359
0.5975698
1.1082008
0.55271392
0.9078357
0.51090752
0.72307215
0.47143911
0.55252726
0.43490237
0.39609787
0.39927902
0.25224493
0.3668238
0.1213595
0.33526003
0.30629286
59.273574
17.747678
54.774844
16.433584
50.609026
15.212271
46.752724
14.084341
43.18336
13.039947
39.876608
12.072537
36.812556
11.187315
33.982287
10.357885
31.358706
9.585752
28.927615
8.8757728
26.675481
8.2198141
24.590169
7.613284
22.660492
7.0515783
20.873642
6.5307832
19.218529
6.0483201
17.685414
5.601491
16.266272
5.1876461
14.952991
4.8043532
13.736003
4.4493928
12.608651
4.1206735
11.564824
3.8163633
10.597132
3.5346335
9.7000252
3.2737801
8.8696712
3.0323482
8.1008539
2.8088882
7.3886343
2.6019601
6.7283573
2.4101835
6.1170301
2.2325182
5.5511378
2.0681526
5.0263649
1.9160395
4.5400936
1.775222
4.0901306
1.6447279
3.6733641
1.5236668
3.2870067
1.4113637
2.9290144
1.3071484
2.5973754
1.2106024
2.2903399
1.1210021
2.0060913
1.0378942
1.7426806
0.96077834
1.4986712
0.8892136
1.273159
0.8228492
1.0651303
0.76097445
0.87316738
0.70309807
0.69535403
0.6495272
0.53320611
0.59737782
0.38135504
0.55139053
0.24458475
0.50385523
0.11921798
0.46062532
0.42536725
55.910047
22.330297
51.669566
20.674123
47.740465
19.140727
44.103839
17.721112
40.73747
16.40728
37.619392
15.190054
34.730219
14.076453
32.059991
13.02793
29.58388
12.061237
27.290788
11.168865
25.167059
10.343189
23.200811
9.5788706
21.38158
8.8711976
19.696937
8.215624
18.136409
7.6085745
16.690311
7.0467157
15.351233
6.5264531
14.11179
6.0445168
12.963231
5.5981083
11.899532
5.1846907
10.914678
4.80193
10.001637
4.447531
9.1554882
4.1193295
8.3724473
3.8155466
7.647275
3.534395
6.9752551
3.2740181
6.3522726
3.032711
5.7757047
2.809244
5.2418294
2.6024596
4.7466755
2.4110724
4.2878233
2.2338715
3.8632171
2.0696115
3.4698761
1.9172241
3.1053024
1.7758942
2.767523
1.6448432
2.45459
1.5234014
2.1648245
1.4107269
1.8967035
1.3060713
1.6481133
1.2090976
1.4178399
1.1189666
1.2050559
1.0354265
1.00894
0.95729011
0.82724454
0.88497726
0.66124631
0.81581604
0.50487515
0.75403969
0.36574925
0.69082975
0.23328227
0.63656388
0.11232343
0.58156185
0.53751352
51.915097
26.584415
47.974393
24.614614
44.330139
22.784789
40.956122
21.094709
37.831747
19.53145
34.933432
18.086735
32.255082
16.754785
29.775596
15.507644
27.476092
14.360782
25.347746
13.297592
23.376868
12.313722
21.551807
11.403089
19.863088
10.560157
18.298537
9.7802058
16.848695
9.058159
15.505109
8.3893443
14.261649
7.7697501
13.11078
7.196006
12.044311
6.664701
11.056787
6.1726471
10.142364
5.7170624
9.2945568
5.2951315
8.5091586
4.9043598
7.7822887
4.5427729
7.1088412
4.2081174
6.4845622
3.8981443
5.9060054
3.6109154
5.3707081
3.3449551
4.8748522
3.0987751
4.4148922
2.8709298
3.9886168
2.6599182
3.5941169
2.4642652
3.2286359
2.2827991
2.8899841
2.1145241
2.5762009
1.9586032
2.2854049
1.8140577
2.0162853
1.6798438
1.767134
1.5552941
1.5361507
1.4398413
1.3221842
1.3324693
1.1247663
1.2326618
0.94220524
1.1399989
0.77389542
1.0534678
0.61783712
0.97216521
0.47615476
0.89601895
0.34265864
0.82461202
0.22256191
0.75688633
0.11132575
0.69278341
0.64862794
47.487012
30.472715
43.889163
28.211776
40.556575
26.118156
37.469707
24.18224
34.609111
22.390874
31.956668
20.737751
29.509789
19.202582
27.240297
17.776928
25.139687
16.461391
23.194433
15.243351
21.392512
14.115456
19.723913
13.071411
18.17875
12.105873
16.746781
11.212128
15.420552
10.383983
14.19206
9.6168413
13.055248
8.9066903
12.002652
8.2491816
11.027225
7.6401822
10.124268
7.07609
9.2879529
6.5538503
8.5124158
6.0701978
7.7941581
5.6224054
7.1291528
5.2081631
6.5127958
4.8246082
5.9413626
4.469262
5.4120993
4.1400114
4.9224564
3.8351532
4.4687226
3.5529687
4.0477122
3.2917885
3.6575108
3.0497938
3.2963927
2.8254037
2.96188
2.6173474
2.6519427
2.4245087
2.3647058
2.2458284
2.0984945
2.0800977
1.852209
1.926165
1.6239672
1.7836025
1.4126927
1.6509019
1.2168957
1.5278439
1.0358397
1.4135538
0.86854209
1.3074268
0.71500774
1.2072067
0.57166312
1.1157845
0.4413204
1.0266621
0.32070831
0.94541675
0.20428282
0.87366338
0.099201788
0.79789787
0.74758768
42.819418
33.977661
39.572747
31.458368
36.564229
29.125651
33.78586
26.961888
31.207647
24.968293
28.817819
23.126525
26.616746
21.40459
24.572432
19.820773
22.678853
18.354911
20.925112
16.997267
19.300205
15.740054
17.795745
14.575958
16.402909
13.499134
15.112058
12.502572
13.915994
11.579261
12.807925
10.723921
11.783051
9.9318915
10.83403
9.1986426
9.9549517
8.5192412
9.1412303
7.8903007
8.3870422
7.3081128
7.6877318
6.7689185
7.0404667
6.2697514
6.4409108
5.8079458
5.8851212
5.3803024
5.3697451
4.9841558
4.8925261
4.6171735
4.4509738
4.2772936
4.0417236
3.9626897
3.661773
3.6714665
3.3096082
3.4015326
2.983726
3.1512628
2.6818639
2.9192837
2.4021838
2.7043051
2.1428878
2.5050558
1.9026087
2.3201838
1.6802636
2.1485871
1.4743301
1.9895841
1.2835868
1.8414361
1.1065358
1.7045
0.94314334
1.5768284
0.79278865
1.45792
0.65268619
1.3475184
0.52519996
1.2435751
0.40542368
1.14661
0.29347835
1.0576688
0.19899845
0.968507
0.10179284
0.89475033
0.84911205
38.09945
37.090696
35.2151
34.342107
32.543834
31.796846
30.07037
29.436469
27.773442
27.264058
25.652022
25.247823
23.69084
23.366705
21.871236
21.639953
20.187357
20.038676
18.627652
18.556718
17.183041
17.18426
15.845241
15.913977
14.605889
14.738666
13.457966
13.650101
12.394476
12.641808
11.40997
11.70763
10.499183
10.843078
9.6552176
10.042686
8.8729691
9.3015072
8.1485528
8.6152299
7.4768002
7.9797707
6.8546366
7.3907871
6.2791563
6.8457141
5.7454779
6.341681
5.2506952
5.874886
4.7919366
5.4424067
4.3674812
5.0416613
3.9747624
4.6706697
3.6104625
4.3274227
3.2720276
4.0094574
2.9585229
3.7146126
2.668473
3.4413673
2.3997202
3.1881927
2.1506352
2.9535132
1.9195648
2.7359589
1.705537
2.5340397
1.5073925
2.3468367
1.3241882
2.1728047
1.153803
2.0115926
0.99624109
1.8617153
0.85057467
1.7224286
0.71615484
1.5925069
0.59086277
1.4730457
0.47579268
1.3589342
0.36772583
1.2547446
0.27346281
1.1523545
0.17707648
1.0650303
0.087994216
0.98331797
0.93667565
33.468136
39.830347
30.929671
36.879731
28.588295
34.139664
26.419122
31.606634
24.405146
29.276659
22.550331
27.102968
20.8275
25.090407
19.230331
23.237359
17.751485
21.517946
16.380884
19.926687
15.111395
18.453053
13.937073
17.088586
12.848977
15.827051