/*--------------------------------*- C++ -*----------------------------------*\
| =========                 |                                                 |
| \\      /  F ield         | OpenFOAM: The Open Source CFD Toolbox           |
|  \\    /   O peration     | Version:  2506                                  |
|   \\  /    A nd           | Website:  www.openfoam.com                      |
|    \\/     M anipulation  |                                                 |
\*---------------------------------------------------------------------------*/
FoamFile
{
    version     2.0;
    format      ascii;
    arch        "LSB;label=32;scalar=64";
    class       volScalarField;
    location    "0.001";
    object      k;
}
// * * * * * * * * * * * * * * * * * * * * * * * * * * * * * * * * * * * * * //

dimensions      [0 2 -2 0 0 0 0];

internalField   nonuniform List<scalar> 
13761
(
1.1507704
1.2432129
1.3448463
1.443516
1.5231059
1.5753926
1.6053445
1.613105
1.6105531
1.6061612
1.607957
1.6219911
1.6602003
1.7244936
1.8033972
1.8768242
1.9260409
1.9387684
1.9168577
1.8692701
1.8129977
1.7729121
1.7885402
1.8853733
2.0807229
2.3568765
2.6424522
2.8144382
2.7715562
2.4891194
1.9679687
1.3367194
0.75890925
0.34992306
0.12716694
0.039834296
0.038269514
0.24404429
0.84408551
0.86770291
0.89374607
0.92386151
0.96065068
1.0076287
1.0685122
1.1461213
1.2388366
1.3402823
1.4379641
1.5158595
1.5671329
1.5970849
1.6070551
1.6054143
1.6019022
1.6046783
1.6224863
1.6640332
1.7307658
1.8103384
1.8819315
1.9267264
1.930233
1.9053471
1.8543095
1.7910377
1.7375188
1.7202971
1.762667
1.8744056
2.0456274
2.2271648
2.321045
2.2469609
1.967553
1.5203924
1.0122491
0.56594921
0.25866304
0.094107313
0.030832142
0.033762757
0.21932459
0.84065819
0.86414286
0.88998708
0.91988592
0.9564666
1.0033248
1.0643667
1.1414909
1.2333167
1.333771
1.4299437
1.505889
1.556224
1.586515
1.5984317
1.5976071
1.594967
1.597312
1.611336
1.6463183
1.7059566
1.7801273
1.8503645
1.8994425
1.9120471
1.8905097
1.8407674
1.7753133
1.7135815
1.676993
1.6957386
1.7695547
1.8799758
1.9772104
1.984295
1.8660546
1.5854491
1.1923964
0.77610387
0.42680514
0.19329533
0.070434013
0.024160472
0.029607647
0.19492544
0.83694583
0.86009454
0.88554252
0.91499118
0.95098324
0.9969525
1.0565059
1.132072
1.2231732
1.3234707
1.4184867
1.4929236
1.5431297
1.5743665
1.5880049
1.5878209
1.5855963
1.5881485
1.6044791
1.6449917
1.7079937
1.7827909
1.8509454
1.8925215
1.8967032
1.872498
1.8197173
1.7478671
1.6728652
1.6134818
1.5834166
1.5891363
1.6196516
1.6495215
1.6203598
1.4852022
1.2328381
0.90743381
0.57968444
0.31437317
0.14131555
0.051670924
0.018708358
0.025661873
0.17106637
0.83294705
0.85578636
0.88092687
0.91005641
0.94563614
0.9908135
1.0489082
1.121937
1.2093668
1.3065307
1.400781
1.4762511
1.5281637
1.5608949
1.5758302
1.5760636
1.5738768
1.5753684
1.5874019
1.6193625
1.6741584
1.7436104
1.8110248
1.8584067
1.8712698
1.8512829
1.8015019
1.7301789
1.6515638
1.5818698
1.5323898
1.5090807
1.4990164
1.4784703
1.4083368
1.2465971
1.0022796
0.71743977
0.44809059
0.23916575
0.1065992
0.039069062
0.014806934
0.022060889
0.14824009
0.80736494
0.82855186
0.85103443
0.87579322
0.90449885
0.93951673
0.98373304
1.0402685
1.111876
1.1988058
1.2956662
1.3883679
1.4617656
1.513089
1.5465565
1.5627669
1.5636405
1.5618519
1.5636622
1.5770009
1.6124187
1.6711955
1.7409206
1.8032348
1.8429052
1.8498173
1.8288865
1.7779248
1.7032035
1.6166896
1.5326181
1.4617736
1.4026894
1.348336
1.2854764
1.1840482
1.0160762
0.79400945
0.5542396
0.33917035
0.17846142
0.078967845
0.029058209
0.01159046
0.018720715
0.12670094
0.80325314
0.82406748
0.84614612
0.87049635
0.89883727
0.93358785
0.9778605
1.0351039
1.1084407
1.197703
1.293741
1.3819155
1.4509059
1.4999453
1.5326058
1.5485929
1.549634
1.5478748
1.5492372
1.5602177
1.5892211
1.6384533
1.7009836
1.7627608
1.8073927
1.8206522
1.8016388
1.7509144
1.6731289
1.5782202
1.4781305
1.3830383
1.2956954
1.2093742
1.1133892
0.9911005
0.82609793
0.62800449
0.42776013
0.25666532
0.13322735
0.058557752
0.02164188
0.009064877
0.015674652
0.10667383
0.7792182
0.79891807
0.8194459
0.84120051
0.8651728
0.89311944
0.92751515
0.97154255
1.0284485
1.1003564
1.1875057
1.2822903
1.3701321
1.4383584
1.4863975
1.5184609
1.5339205
1.5348353
1.5331398
1.5347875
1.5469245
1.5790373
1.6328326
1.6977658
1.7570132
1.795783
1.8034817
1.7830108
1.7315616
1.6527173
1.5547932
1.4479826
1.3409316
1.2356544
1.1259246
1.0037962
0.86106012
0.69217758
0.50945867
0.33769536
0.1984207
0.10155185
0.044313776
0.016416107
0.0071318744
0.012932289
0.088390439
0.77522832
0.79464769
0.8149279
0.83644937
0.86017554
0.88788158
0.92211353
0.96623211
1.0244403
1.0995868
1.1887725
1.2835221
1.3663944
1.4282608
1.4729422
1.5037833
1.5182196
1.5188209
1.5170762
1.5187453
1.5303544
1.5597349
1.608054
1.6680514
1.7266003
1.7685579
1.7801392
1.7603711
1.7079705
1.6255085
1.5200496
1.4003773
1.2745879
1.146383
1.0136304
0.87347344
0.72364954
0.56318167
0.40281775
0.26067781
0.15039035
0.076048401
0.032994186
0.012266841
0.0055314888
0.010475245
0.071818849
0.75275638
0.7710932
0.79022528
0.81026319
0.831573
0.85510392
0.88263442
0.91678773
0.96081515
1.0177428
1.0905278
1.1771945
1.2679127
1.3488815
1.4117304
1.4575994
1.4885139
1.5015499
1.5016605
1.4998023
1.5018994
1.5149611
1.54747
1.6001475
1.6629868
1.7202452
1.7575342
1.7636778
1.7417634
1.6873678
1.6025748
1.4932228
1.3667229
1.2301748
1.0875056
0.93839384
0.78247361
0.6242574
0.46928249
0.32587897
0.20577697
0.11655686
0.058236027
0.025108898
0.0093392302
0.0042962756
0.0083276652
0.057229793
0.73182479
0.74904191
0.76710836
0.78596024
0.8057169
0.82676942
0.85007667
0.87744114
0.91165435
0.95662549
1.0167547
1.0924738
1.1802859
1.2694378
1.344956
1.4025771
1.4450962
1.4735204
1.4838424
1.4833001
1.4811251
1.4835284
1.4970383
1.5288379
1.5786005
1.6381426
1.6944872
1.7333937
1.7411413
1.7183504
1.6615817
1.572419
1.4558554
1.3185496
1.167812
1.009783
0.8482154
0.68626712
0.53028939
0.38690352
0.26188922
0.16196132
0.090348355
0.044704495
0.019178724
0.0071277791
0.0033025234
0.0064567558
0.044388192
0.71242486
0.72839441
0.74537234
0.76315477
0.78167776
0.80106375
0.82173554
0.84472614
0.8720204
0.9067724
0.95293961
1.0140969
1.0915744
1.1803551
1.2671421
1.338375
1.3923313
1.4321855
1.4577447
1.4648653
1.4635644
1.4611666
1.464245
1.4798144
1.5155135
1.5703213
1.6334348
1.6890354
1.7232193
1.7241382
1.6986521
1.6391878
1.5472003
1.4268873
1.2840646
1.1255591
0.95811918
0.78765289
0.62049616
0.46507447
0.32893527
0.21666223
0.13116407
0.072067237
0.035317652
0.015066445
0.0055684083
0.0025324277
0.0048594518
0.033360252
0.70923945
0.72497959
0.74165877
0.75910306
0.7772796
0.79630782
0.81662497
0.83936186
0.86677426
0.90243144
0.95047339
1.0138647
1.0923688
1.1795146
1.2622309
1.3295209
1.3806184
1.4180807
1.4402839
1.4443156
1.4422734
1.4397044
1.4432146
1.4593973
1.4943511
1.5460045
1.6052351
1.6590463
1.6941098
1.6969193
1.6704709
1.6084807
1.5122618
1.3857287
1.2345991
1.0663972
0.88993266
0.71420219
0.54777795
0.39892101
0.27430738
0.1766235
0.10515181
0.057091627
0.027767552
0.011788149
0.0043244869
0.0019031489
0.0035254242
0.0241385
0.69146285
0.70584515
0.72128277
0.73759281
0.75465092
0.77246787
0.79117694
0.81124938
0.83395671
0.86184451
0.89870103
0.94851126
1.0138247
1.09347
1.1802173
1.2588814
1.3206581
1.3675966
1.4020758
1.420633
1.4224
1.4197101
1.4173923
1.4218456
1.4403196
1.4786745
1.5339116
1.5951337
1.6479128
1.6792228
1.6776136
1.6478099
1.5826166
1.483114
1.3527096
1.1967858
1.0230316
0.84133524
0.66262556
0.49728632
0.35384354
0.23771858
0.14987664
0.087793741
0.04714597
0.022771199
0.0096170708
0.0034840955
0.0014336629
0.002447397
0.016646727
0.67513111
0.68827201
0.70251526
0.71771483
0.73364844
0.75023913
0.76755188
0.78575885
0.80542832
0.82806721
0.85656194
0.89491071
0.94693832
1.0144849
1.0949541
1.1780434
1.2508488
1.3083204
1.3525945
1.3845751
1.3993894
1.3996524
1.3962529
1.3943625
1.3995484
1.4190919
1.4575658
1.5114769
1.570766
1.6221839
1.6529295
1.6510448
1.6205698
1.5538529
1.4518704
1.3179174
1.15741
0.97861604
0.79284781
0.61297952
0.45069524
0.31414927
0.20688434
0.12813748
0.074055698
0.039416004
0.018932753
0.0079589855
0.0028415266
0.0010675264
0.0015935877
0.010708442
0.66015375
0.67208708
0.6850429
0.69910467
0.71407311
0.72972787
0.74599915
0.76290659
0.78062189
0.79989335
0.82256557
0.85185422
0.8919364
0.94656353
1.0164716
1.0977427
1.1789308
1.2471679
1.300134
1.340754
1.368848
1.3787144
1.377737
1.3732656
1.3721724
1.3786362
1.4005025
1.4408848
1.4953184
1.5533623
1.6020937
1.6292536
1.6245957
1.5902174
1.5196728
1.4138031
1.2757212
1.1109525
0.92843177
0.74080782
0.56245196
0.40563283
0.27755532
0.17984263
0.10988291
0.06283685
0.033207863
0.015880268
0.0066474129
0.0023360651
0.00078435497
0.00094145557
0.0061810817
0.64630482
0.65741682
0.66912467
0.68186628
0.69566705
0.71032316
0.7256477
0.74157495
0.75810183
0.77544548
0.79455633
0.81765936
0.84836112
0.8908257
0.94805554
1.020197
1.1014991
1.1789317
1.241813
1.2905523
1.3278698
1.3516345
1.3568809
1.3548123
1.3496404
1.3496009
1.3581985
1.383646
1.4275233
1.4841056
1.5421369
1.5884488
1.6110948
1.6024529
1.5629129
1.4874649
1.3770962
1.2349979
1.0669939
0.8826742
0.69556786
0.52066113
0.37000513
0.24969318
0.1598711
0.096750108
0.054923363
0.028875641
0.013760647
0.0057386869
0.0019855957
0.00058738652
0.00048706014
0.0030285862
0.63311267
0.64393057
0.65471047
0.6661433
0.67861961
0.6921452
0.70652891
0.72155641
0.73704237
0.75292781
0.76965967
0.78863307
0.8124582
0.84492346
0.89014954
0.95055979
1.0250149
1.1053197
1.1776969
1.2350076
1.2795476
1.3132859
1.3317944
1.3333896
1.3302857
1.3250045
1.3260941
1.3374669
1.3663548
1.4130342
1.470798
1.5281153
1.572098
1.5912019
1.5796016
1.5360211
1.4567402
1.3430357
1.1982791
1.0286313
0.84422587
0.65912891
0.48841622
0.34356839
0.22966649
0.14586177
0.087709895
0.049561194
0.025974141
0.012350903
0.005136289
0.0017551999
0.00046180998
0.00020400374
0.0010686847
0.62043583
0.63115988
0.64147973
0.65194587
0.6632182
0.67554416
0.68880482
0.70274308
0.71718461
0.73205225
0.74742028
0.76390267
0.78317572
0.80831865
0.8434553
0.89237245
0.95681706
1.03332
1.1102268
1.1745782
1.2245748
1.2638872
1.2928304
1.3048339
1.304298
1.299838
1.2955138
1.2982988
1.3130028
1.3454856
1.3949333
1.4539594
1.511039
1.5537116
1.5708822
1.5577476
1.5127574
1.4326066
1.3186064
1.1741582
1.0055368
0.82303259
0.64071062
0.47336117
0.3320004
0.22130834
0.14019297
0.084120134
0.047455505
0.024843787
0.011803766
0.0049029192
0.0016638632
0.00040675166
7.0992501e-05
0.00014479217
0.61848859
0.62873783
0.63862645
0.64881841
0.65990495
0.67199365
0.68487882
0.69833359
0.71221736
0.72646561
0.74130673
0.75771251
0.7777877
0.80486239
0.84296957
0.8954743
0.96272907
1.0385653
1.1097358
1.1668318
1.211572
1.2468311
1.2707881
1.2771542
1.2754467
1.2701941
1.267868
1.2727508
1.2912196
1.3274492
1.3794073
1.4389421
1.4944971
1.5340043
1.5462706
1.528914
1.4787683
1.3939467
1.2763572
1.1301191
0.9623476
0.7838277
0.60815702
0.44868153
0.31470856
0.20993582
0.13309441
0.079905129
0.045090575
0.023607047
0.011216633
0.0046582177
0.0015798564
0.00038346807
5.7126118e-05
6.6413007e-05
0.60596979
0.61613329
0.6258619
0.63538221
0.64537177
0.65628431
0.66812881
0.6806894
0.69375679
0.70722672
0.72113192
0.73591797
0.75286439
0.7744253
0.80419478
0.84591994
0.90216548
0.97155057
1.0452297
1.1096822
1.1601544
1.2001052
1.2312972
1.2490839
1.2507395
1.2477976
1.2418472
1.2413595
1.2486568
1.2711327
1.3111903
1.3654404
1.4252428
1.4791123
1.5156469
1.5244158
1.5051553
1.4539771
1.3699049
1.2549456
1.1130263
0.95080907
0.7782365
0.60773231
0.451596
0.31900162
0.2141265
0.13641753
0.082186939
0.046483478
0.024370262
0.011588904
0.0048186375
0.0016427911
0.00042170449
0.00015033491
0.00071695641
0.59402852
0.60392653
0.61359996
0.62284371
0.63200889
0.64176648
0.65247117
0.66408301
0.67638781
0.68919481
0.70240641
0.71613241
0.73103195
0.74870738
0.77201388
0.80460332
0.84993776
0.9095438
0.97985164
1.0495413
1.1071865
1.1524919
1.1884941
1.2152652
1.2258272
1.2249754
1.2202248
1.2145584
1.2156635
1.2263245
1.2529804
1.2969162
1.3533585
1.4130557
1.464562
1.4969643
1.4988672
1.4741999
1.4166246
1.3268396
1.2079009
1.0649335
0.90571397
0.74046781
0.57988114
0.4337186
0.30907002
0.20938658
0.13451026
0.081575034
0.046360086
0.024384814
0.011621824
0.0048438963
0.0016680775
0.00047129136
0.00032315197
0.0019410569
0.5828972
0.59239819
0.60194048
0.61114923
0.61992761
0.62878658
0.63838887
0.64898898
0.66047044
0.67257708
0.68510906
0.69799038
0.71146386
0.72645933
0.74493525
0.77003033
0.80533974
0.85398067
0.91605201
0.98554274
1.0501432
1.1021461
1.1432556
1.1756448
1.1970776
1.2012974
1.1989906
1.1928543
1.1886628
1.1917069
1.206226
1.2373682
1.2853233
1.3439445
1.4036244
1.4531696
1.4823846
1.4816455
1.455375
1.3976914
1.309937
1.1951576
1.0580105
0.90520094
0.74532246
0.5886065
0.44467018
0.32021841
0.21909305
0.14194884
0.086685108
0.049517378
0.026132773
0.012481441
0.0052158952
0.0018166185
0.00056671778
0.00056294844
0.0036134371
0.57266067
0.58157682
0.5907525
0.59989591
0.60865744
0.61706565
0.62572807
0.63524248
0.64575787
0.65708226
0.66892559
0.68109884
0.69359249
0.70683851
0.72206882
0.74159497
0.76875956
0.80709456
0.85899531
0.92288928
0.99046217
1.0495115
1.0962781
1.133284
1.1619396
1.176811
1.1770982
1.1733708
1.1664348
1.1645348
1.1698677
1.1886234
1.2245979
1.2760863
1.3362651
1.3953042
1.4422827
1.4676904
1.4637317
1.4335811
1.3730205
1.283874
1.169686
1.0356726
0.88881833
0.73722661
0.58921649
0.45131458
0.3296873
0.22868298
0.15003767
0.092590169
0.053289253
0.028258499
0.013538554
0.0056758686
0.0020005176
0.0006827996
0.000850713
0.0056161894
0.56323719
0.57154048
0.5802159
0.5890815
0.59781556
0.60612257
0.61419003
0.62268868
0.63211235
0.6424971
0.65359374
0.66511365
0.67689906
0.68903621
0.70218264
0.71790142
0.73885608
0.76846195
0.81016145
0.86517614
0.92991953
0.99414644
1.0474837
1.0895437
1.1227771
1.1471031
1.1550934
1.1536399
1.1483305
1.1419151
1.1422155
1.1507397
1.1741227
1.2149596
1.2696578
1.3309868
1.3889916
1.4330045
1.4539796
1.4464244
1.4121269
1.3485685
1.258327
1.145708
1.0165344
0.87763101
0.73578642
0.59587117
0.46334706
0.34390973
0.24247156
0.16149048
0.10083237
0.058503554
0.031183552
0.014988505
0.0063027237
0.0022443601
0.00082171856
0.0011731692
0.0078515306
0.55463201
0.56230341
0.57039908
0.57881934
0.5873536
0.59566328
0.60353774
0.6113277
0.61970527
0.62902443
0.63921595
0.65000877
0.66115284
0.67254925
0.68442352
0.69769308
0.71426359
0.73715276
0.76978785
0.81512671
0.87306498
0.93775766
0.9974497
1.0447759
1.0823098
1.1119698
1.1306928
1.1330508
1.1302672
1.1236753
1.1189585
1.1212915
1.1339797
1.1625055
1.207822
1.2646075
1.3266046
1.3840113
1.4247932
1.4407293
1.4292496
1.3909626
1.325247
1.2355541
1.1267645
1.0046154
0.8747433
0.74214028
0.61020851
0.48277914
0.364998
0.26203281
0.17729426
0.11203148
0.065535935
0.035115318
0.016930399
0.007137176
0.0025603007
0.00098359432
0.0015203024
0.010249373
0.5537968
0.56133819
0.56923403
0.57738285
0.58555795
0.59343193
0.60091994
0.60850401
0.61679476
0.62599626
0.63595425
0.64639678
0.65712369
0.66813543
0.67985611
0.69350485
0.71133683
0.73656725
0.77270248
0.82176747
0.88195078
0.9449046
0.99857529
1.0408127
1.0744714
1.1003681
1.1121829
1.1116052
1.1072143
1.100112
1.0980416
1.1028566
1.1204027
1.155403
1.206411
1.267901
1.3307806
1.383669
1.4182916
1.4270257
1.4102288
1.3665957
1.297583
1.2076594
1.1025391
0.98844052
0.87116458
0.75113575
0.62896013
0.50743403
0.39168628
0.28684045
0.19713749
0.12600398
0.074315995
0.040027092
0.019355257
0.0081741515
0.0029462319
0.0011651295
0.0018814703
0.012736999
0.54603122
0.55297205
0.560335
0.56803021
0.57591608
0.5837261
0.59117181
0.59832261
0.60575026
0.61396664
0.62304495
0.63276229
0.6428482
0.65316597
0.6638433
0.67555919
0.6898677
0.70937732
0.73746038
0.77729166
0.82975789
0.890873
0.95000451
0.99758109
1.0356331
1.0657451
1.0871029
1.0923741
1.0903769
1.0846735
1.0784713
1.0788346
1.0871053
1.1098623
1.150542
1.2057873
1.2692306
1.3306567
1.3803478
1.4102275
1.4115945
1.3898968
1.3421021
1.2718501
1.1845923
1.0867844
0.98523184
0.88059926
0.77178766
0.65825371
0.54183578
0.42688594
0.31850613
0.2223384
0.14385264
0.085588941
0.046360192
0.022489724
0.0095154013
0.0034371573
0.0013742314
0.0022530972
0.015272418
0.53896512
0.54534196
0.55213747
0.55931797
0.56680414
0.57441871
0.58186448
0.5889064
0.59576189
0.60305376
0.61119341
0.62014516
0.62962521
0.63936573
0.64931499
0.6597584
0.67167674
0.68697216
0.70856015
0.73983424
0.78330685
0.83831753
0.89845931
0.95212977
0.99473909
1.0289997
1.0557752
1.0712889
1.0720578
1.0688442
1.0622539
1.0581656
1.0606062
1.0730852
1.1011591
1.1461629
1.2039889
1.2678213
1.3279593
1.3744773
1.399674
1.3964469
1.3704057
1.3202042
1.2508043
1.1691327
1.0828396
0.99375141
0.90166194
0.80447402
0.70005443
0.58928463
0.47467261
0.36062059
0.25542613
0.16725931
0.10041435
0.054717151
0.02663691
0.011288761
0.0040775938
0.0016204582
0.0026313258
0.017816072
0.53255986
0.53835768
0.54460034
0.55126191
0.55827249
0.56553855
0.57285773
0.57993209
0.58660193
0.59321802
0.60041133
0.60848522
0.61730029
0.62652811
0.63592392
0.64555253
0.65590578
0.66827822
0.68491967
0.70895683
0.74361718
0.79035585
0.84661795
0.90388041
0.95196733
0.99051514
1.0209345
1.0438499
1.0524356
1.0511442
1.046359
1.0397047
1.0383207
1.0432353
1.0603487
1.0936947
1.1414549
1.2003972
1.2647361
1.3248678
1.3689549
1.3897824
1.3842075
1.3567494
1.307876
1.2430359
1.1686273
1.0902255
1.013041
0.93526131
0.85178172
0.75772234
0.65197434
0.53588901
0.41437274
0.29793477
0.19746882
0.11961513
0.065564264
0.032022671
0.013587534
0.0048972737
0.001910237
0.0030163056
0.020372085
0.53202934
0.5377248
0.54383789
0.55034986
0.55718091
0.56421069
0.57121299
0.57790839
0.58424413
0.59069044
0.59784028
0.60585967
0.61451225
0.62345544
0.63251212
0.64189536
0.65234732
0.66547912
0.68386968
0.71075445
0.74886989
0.79837421
0.85467923
0.90794308
0.95067562
0.98493424
1.01174
1.0296085
1.0321969
1.0296411
1.0236198
1.0182101
1.0190411
1.0275758
1.0498941
1.089312
1.1434708
1.2070844
1.27141
1.3262841
1.3642183
1.3793926
1.3702218
1.3397453
1.2901635
1.2277928
1.1604128
1.0966144
1.0363505
0.97623098
0.90889516
0.82807559
0.72911599
0.61150007
0.48114682
0.35111779
0.23550012
0.14390089
0.079323208
0.03886112
0.016502512
0.0059268168
0.0022495616
0.003403331
0.022899067
0.52629285
0.53148697
0.5370728
0.54305958
0.54941118
0.55605004
0.56282642
0.56949728
0.57581959
0.58186983
0.58820657
0.59533503
0.60327809
0.61172865
0.62036072
0.6291079
0.63835453
0.64912631
0.66336098
0.68392275
0.71401938
0.75559808
0.8073151
0.86252213
0.9106458
0.94838118
0.97855628
1.001886
1.0132273
1.0126199
1.0085132
1.001808
0.99866149
1.0015152
1.0143654
1.042243
1.086616
1.1430966
1.207113
1.2707455
1.32384
1.3576336
1.3671985
1.3543121
1.3213031
1.272637
1.2161111
1.1606516
1.1111142
1.067072
1.0233519
0.97298188
0.90758466
0.81945218
0.70135381
0.56093639
0.4151354
0.28162275
0.17353784
0.096185776
0.047260117
0.020082209
0.007182686
0.0026408452
0.0037864444
0.025350574
0.52108264
0.52585003
0.53093789
0.53640592
0.54225914
0.54845309
0.55489385
0.5614039
0.56773747
0.57370451
0.57951679
0.58577874
0.59286761
0.60068129
0.6088824
0.61718998
0.62567287
0.63490349
0.64622748
0.66191897
0.68504391
0.71853957
0.76330743
0.81621754
0.86861817
0.91095665
0.9449261
0.97151763
0.9908165
0.99566871
0.99361484
0.98813859
0.98176133
0.9810477
0.98636954
1.0038113
1.0374046
1.0847885
1.1441851
1.2098391
1.2725332
1.322157
1.3512707
1.3547029
1.3386133
1.3040881
1.2575976
1.2081012
1.1654968
1.1313579
1.1052482
1.0826739
1.0523132
1.0032012
0.9236671
0.80613349
0.655489
0.49194633
0.33754164
0.20977013
0.11692338
0.057625932
0.024505264
0.0087276796
0.0031003871
0.0041705332
0.027742943
0.51637314
0.52071435
0.52537612
0.53036487
0.53571159
0.54143067
0.54747272
0.55371176
0.55995092
0.5659535
0.57159229
0.57720932
0.5834051
0.59041518
0.59804775
0.60595982
0.61393857
0.62221684
0.63159247
0.64374675
0.66126375
0.68728227
0.72416113
0.77144064
0.82395468
0.87195509
0.90967329
0.93999114
0.96345664
0.97740579
0.97784424
0.97460206
0.96828236
0.96362648
0.96483212
0.97369791
0.99599802
1.0351578
1.0880624
1.1517956
1.2187716
1.2781579
1.3210029
1.3443592
1.3431414
1.324514
1.2901323
1.2478498
1.2073198
1.1770099
1.1597354
1.1575867
1.160003
1.152771
1.1217443
1.0518117
0.93345712
0.77108613
0.58668536
0.40712153
0.25519394
0.14306798
0.070741073
0.03010997
0.01067912
0.003657456
0.0045613739
0.030088998
0.51606698
0.52034404
0.52489539
0.52976423
0.53498682
0.54057355
0.54645871
0.55249073
0.55846157
0.56414352
0.56948891
0.57495008
0.58108055
0.58797692
0.59538887
0.60298141
0.61064936
0.61882393
0.62857794
0.64191079
0.66166542
0.69085417
0.73093538
0.77986907
0.83061747
0.87358423
0.90739989
0.93411889
0.95427442
0.96176932
0.96027811
0.95555228
0.94907332
0.94688172
0.95009549
0.96315116
0.99084307
1.0345461
1.0921145
1.1575353
1.2225557
1.2778413
1.3167229
1.3350991
1.330556
1.3097083
1.2763073
1.2392664
1.2092808
1.1934912
1.2001396
1.2253895
1.2580498
1.2812003
1.2738794
1.2148782
1.0929588
0.91712514
0.70746837
0.49659738
0.31403405
0.17711694
0.087878174
0.037442575
0.013223874
0.0043557375
0.0049594515
0.032357699
0.51179964
0.51573985
0.51994883
0.52439827
0.52914374
0.53424299
0.5396968
0.54541371
0.55122924
0.55693045
0.56230484
0.56739713
0.57274234
0.57880845
0.58556809
0.59272514
0.59997911
0.60738369
0.61558986
0.62598171
0.64087249
0.66325498
0.69574508
0.73864234
0.78817588
0.83585608
0.87367555
0.90407283
0.9275688
0.94337755
0.94534307
0.94264978
0.93672759
0.93105479
0.93103877
0.93686318
0.9543004
0.98694635
1.0336435
1.0917637
1.1569659
1.2211318
1.2752292
1.3110024
1.3246599
1.3174786
1.2952742
1.263741
1.2329734
1.2160416
1.2213511
1.2555004
1.3152209
1.3861451
1.4475517
1.4708255
1.427083
1.3038141
1.1105669
0.86822784
0.61641203
0.39327358
0.22316583
0.1111125
0.047391119
0.016666289
0.0052698058
0.0053787121
0.034586737
0.50801071
0.51154258
0.51539862
0.51952401
0.52387502
0.5285107
0.53349312
0.53880901
0.54434443
0.54993269
0.55535841
0.56042898
0.56530553
0.57058258
0.57659928
0.58321775
0.59009806
0.59700977
0.60421948
0.61262108
0.62393879
0.64077417
0.66609112
0.70181027
0.74682556
0.79556093
0.83894939
0.87259391
0.89950483
0.92001878
0.92985872
0.9289035
0.92464687
0.91801168
0.91419851
0.91582274
0.92505258
0.94692106
0.98365626
1.0326888
1.0936593
1.1603773
1.2236963
1.2747111
1.3073954
1.3162744
1.30658
1.2832966
1.2545367
1.2352586
1.2348026
1.2675344
1.3407179
1.4480296
1.5704338
1.6799015
1.7396966
1.7137704
1.587196
1.3671217
1.0832711
0.77786686
0.5006877
0.28584033
0.14279981
0.060962571
0.021350392
0.0064838461
0.0058354068
0.036819606
0.50777121
0.51127071
0.51504768
0.51907555
0.52333135
0.52787274
0.53274208
0.53791469
0.54326258
0.54861208
0.55374818
0.55851412
0.56322017
0.56847017
0.57444567
0.58091669
0.58751227
0.59411476
0.60124139
0.61006579
0.62267311
0.64184244
0.67030608
0.70898236
0.75517943
0.80176513
0.84038912
0.87060255
0.89413208
0.91097126
0.91460567
0.91223019
0.90655249
0.89999951
0.89849242
0.90198427
0.91513595
0.94176465
0.9821714
1.0362712
1.1014723
1.170333
1.2330326
1.2807206
1.3066362
1.3098689
1.2977927
1.2751655
1.2536346
1.2467978
1.2727003
1.3463249
1.4729892
1.6421526
1.8280334
1.9944439
2.0966525
2.0909159
1.9590648
1.7060464
1.3662034
0.99050984
0.64253087
0.36877599
0.18475921
0.078921881
0.027533549
0.0080589052
0.006335507
0.039041504
0.50435156
0.50750824
0.51097484
0.5146818
0.51861226
0.52277853
0.52722664
0.53198169
0.53700608
0.54216647
0.54727495
0.55211034
0.5565859
0.5611633
0.56639904
0.57232097
0.57862488
0.58494118
0.59131894
0.59853552
0.60808067
0.62236767
0.64422747
0.67592197
0.71710473
0.76348002
0.80694868
0.84077595
0.8677081
0.88832676
0.90001119
0.89968595
0.89585542
0.88923817
0.88404043
0.88448771
0.89089681
0.9086301
0.94037236
0.98635571
1.0463029
1.1157528
1.1857023
1.2454633
1.2865527
1.3045188
1.302622
1.2883848
1.2687867
1.2579613
1.2732716
1.3356396
1.4610361
1.6517451
1.8923713
2.1507721
2.3828005
2.5340422
2.5516455
2.4122813
2.1198367
1.7116731
1.251132
0.81716981
0.47122524
0.23665885
0.10112671
0.035163022
0.0099798416
0.0068718801
0.041215731
0.50135272
0.50414986
0.50723907
0.51066027
0.51429852
0.51814091
0.52221852
0.52656866
0.53120628
0.53607714
0.54105096
0.54592052
0.55044993
0.55466357
0.55914881
0.5643589
0.5701998
0.57630516
0.58235962
0.58863453
0.59616497
0.60678412
0.62311208
0.64798146
0.68279364
0.72579295
0.7711894
0.81056012
0.84027877
0.86413832
0.88186686
0.8875478
0.88553244
0.88027598
0.8734937
0.87062502
0.87285156
0.88321063
0.90635475
0.9437131
0.99573745
1.0608865
1.1327744
1.200947
1.2549498
1.2866648
1.2987921
1.2926857
1.277229
1.2628565
1.2672136
1.309683
1.4141577
1.5959689
1.8550015
2.1717528
2.5098733
2.8140832
3.0154585
3.0569052
2.91186
2.5804879
2.100859
1.5485455
1.0187898
0.59052886
0.29740894
0.12717757
0.044115407
0.012220062
0.0074466303
0.043376731
0.50118753
0.50394063
0.50697165
0.5103314
0.51389839
0.51766148
0.52164703
0.52589737
0.53041358
0.53513076
0.53991918
0.54454763
0.5487746
0.55276827
0.55718776
0.56234167
0.56805148
0.57391369
0.57973431
0.58604806
0.59414824
0.60622015
0.62498364
0.65298391
0.6905133
0.73430953
0.77732214
0.81189425
0.83881906
0.85992601
0.87362843
0.874485
0.87133674
0.86515069
0.85931484
0.85883954
0.86338882
0.87813654
0.90661527
0.94958219
1.0071831
1.0764251
1.1489952
1.2134945
1.2603245
1.2844085
1.2896745
1.2807924
1.266068
1.2599178
1.2811448
1.3543462
1.5048343
1.7479503
2.0810334
2.4794557
2.8998223
3.2758047
3.5282495
3.5967218
3.4499081
3.0828466
2.533024
1.8844531
1.2498922
0.72882264
0.36833829
0.15771028
0.054622626
0.014839452
0.0080745513
0.045575632
0.49843726
0.50099449
0.5037146
0.50670228
0.50999366
0.51348697
0.5171723
0.52106361
0.52520982
0.52960386
0.53417108
0.53876884
0.54314303
0.54707825
0.55091277
0.55529033
0.56036015
0.56587926
0.57145396
0.57708721
0.58359881
0.59256013
0.60642645
0.62800208
0.6591055
0.69874917
0.74220143
0.78174185
0.81194448
0.83635851
0.85476072
0.86288856
0.8614
0.85679702
0.85022748
0.84643909
0.84775321
0.85559588
0.87493909
0.90803764
0.95600432
1.0185028
1.0906253
1.1623629
1.2221646
1.2607223
1.2799638
1.279217
1.2684267
1.2563278
1.2606331
1.3022426
1.4114256
1.6159786
1.9313914
2.3507734
2.8408941
3.3465842
3.7929545
4.0980785
4.1970546
4.0509919
3.6494164
3.0281778
2.2756121
1.5230802
0.8942598
0.45386316
0.19468807
0.067371272
0.018007452
0.0087835253
0.047859251
0.4959588
0.49830174
0.50078628
0.50347024
0.50642418
0.50965076
0.51306786
0.51667049
0.52046664
0.52450748
0.5287835
0.53320559
0.53759933
0.54169704
0.54536084
0.54909021
0.55343761
0.55840308
0.56367973
0.56894475
0.57446874
0.58136166
0.59152596
0.60758303
0.63215279
0.6661038
0.70706742
0.74906304
0.78449457
0.81133281
0.83299429
0.84812974
0.85070316
0.84800713
0.8422104
0.83596748
0.83454397
0.83767352
0.84931805
0.87337601
0.91065286
0.96328563
1.0298473
1.1033446
1.1724365
1.2263419
1.2587198
1.2722195
1.2680303
1.2566384
1.2498823
1.2677585
1.3368874
1.4923054
1.7652587
2.1699148
2.6921928
3.2877536
3.889493
4.4136552
4.7742254
4.9024714
4.7536688
4.3121957
3.611046
2.7408832
1.8518085
1.0952853
0.55845044
0.24005153
0.083024631
0.0218826
0.0095917045
0.050220159
0.49587568
0.49816337
0.50057155
0.50321058
0.50613373
0.50930266
0.51264079
0.51615269
0.51985278
0.52379217
0.52795533
0.53223403
0.53640589
0.5402044
0.54363265
0.54730373
0.55162179
0.55646981
0.56147628
0.56645478
0.57199144
0.57949111
0.59121328
0.60976729
0.63736772
0.67368983
0.71499844
0.75444163
0.78549731
0.80997885
0.82893015
0.83923715
0.83841906
0.83431711
0.82780828
0.8229641
0.82338461
0.82903104
0.84462588
0.87260564
0.91440245
0.97152616
1.0412974
1.1148418
1.1801793
1.2281392
1.2555789
1.2629532
1.256733
1.2465823
1.2483527
1.2834184
1.3870764
1.5995746
1.9546354
2.462212
3.0979188
3.8054672
4.5059275
5.1090513
5.5274566
5.6882956
5.5399912
5.0595409
4.2734089
3.2759667
2.2348303
1.3320913
0.68252098
0.29404325
0.10167035
0.026485411
0.01050118
0.052656287
0.49356512
0.49576809
0.49800886
0.50035079
0.50294019
0.50582842
0.50894379
0.51220297
0.51562144
0.51922679
0.52306917
0.52712237
0.53124497
0.53517134
0.53866091
0.54189804
0.54554424
0.54982902
0.55453837
0.55927312
0.56404537
0.56976421
0.57815171
0.59169483
0.6130179
0.64349101
0.68150308
0.72206766
0.75807845
0.78544973
0.80765697
0.82374552
0.82833832
0.82597363
0.82049667
0.8138483
0.81114336
0.81306365
0.82187658
0.84144029
0.87316537
0.9193226
0.98085172
1.053417
1.1264861
1.1880254
1.2307302
1.2521872
1.2538163
1.246208
1.2389103
1.2520067
1.3128531
1.4650519
1.7563483
2.2212681
2.8610097
3.636445
4.4774583
5.2908712
5.9760826
6.4442813
6.6222523
6.4562764
5.9191119
5.0327214
3.8914834
2.6786772
1.6085703
0.82809658
0.35752122
0.12359307
0.031882318
0.011518689
0.055155333
0.49353767
0.49566304
0.49784104
0.50012331
0.50266303
0.50550736
0.50856614
0.51174902
0.51507881
0.51859336
0.52234432
0.52628928
0.53024135
0.53389982
0.53708887
0.54018434
0.54381063
0.54804533
0.55259449
0.55708755
0.56178683
0.56791763
0.57757149
0.59321346
0.61737442
0.65034774
0.68919766
0.72798526
0.76025258
0.7848851
0.8045509
0.81669192
0.81682871
0.81320575
0.80675818
0.80086352
0.80025717
0.80400293
0.81635108
0.83983118
0.8756057
0.92655648
0.99279431
1.0679874
1.1401477
1.1974748
1.23287
1.2474712
1.2450803
1.2368037
1.2365347
1.2660821
1.3650052
1.58544
1.9799901
2.5768426
3.3602796
4.2718518
5.226287
6.1246357
6.869109
7.3738992
7.5655503
7.3857691
6.7986986
5.8154882
4.5340302
3.1486661
1.9049712
0.98542595
0.42638416
0.14740092
0.037736529
0.012592678
0.057643907
0.49149443
0.49349162
0.49554713
0.49765963
0.49988736
0.50238062
0.50517249
0.50816693
0.51127966
0.51452986
0.51795516
0.52161607
0.5254447
0.52920822
0.53258749
0.53550183
0.53850117
0.54210441
0.54626581
0.5506312