/*--------------------------------*- C++ -*----------------------------------*\
| =========                 |                                                 |
| \\      /  F ield         | OpenFOAM: The Open Source CFD Toolbox           |
|  \\    /   O peration     | Version:  2506                                  |
|   \\  /    A nd           | Website:  www.openfoam.com                      |
|    \\/     M anipulation  |                                                 |
\*---------------------------------------------------------------------------*/
FoamFile
{
    version     2.0;
    format      ascii;
    arch        "LSB;label=32;scalar=64";
    class       volScalarField;
    location    "0.008";
    object      T;
}
// * * * * * * * * * * * * * * * * * * * * * * * * * * * * * * * * * * * * * //

dimensions      [0 0 0 1 0 0 0];

internalField   nonuniform List<scalar> 
13761
(
230.74503
230.5957
230.45537
230.32354
230.19979
230.0837
229.97484
229.87283
229.77724
229.68767
229.60376
229.52523
229.45219
229.38573
229.32965
229.29547
229.31635
229.4681
229.83263
230.38707
231.03283
231.68671
232.30028
232.85316
233.3418
233.77073
234.14725
234.47877
234.77174
235.03148
235.26176
235.46472
235.64067
235.78724
235.89813
235.9659
235.99465
236.00086
232.78458
232.57293
232.37209
232.18174
232.00154
231.8312
231.67038
231.51881
231.37604
231.24172
231.11546
230.99689
230.88561
230.78123
230.68335
230.5916
230.50558
230.42494
230.34942
230.27907
230.21477
230.15952
230.12186
230.12537
230.22704
230.51068
230.99658
231.60729
232.25109
232.86705
233.42623
233.92086
234.35394
234.73268
235.06488
235.35753
235.61644
235.84573
236.04773
236.22285
236.36859
236.47848
236.54536
236.57368
236.57988
233.49457
233.29337
233.10246
232.92147
232.75012
232.58812
232.43517
232.29093
232.15508
232.02727
231.90712
231.79428
231.68835
231.58896
231.49575
231.40835
231.32638
231.24951
231.17747
231.11031
231.04872
230.99517
230.95627
230.94929
231.01618
231.23091
231.64266
232.20693
232.83288
233.44775
234.01231
234.51303
234.95056
235.33159
235.66423
235.95601
236.21325
236.44052
236.64048
236.81371
236.95775
237.06622
237.132
237.15983
237.16583
234.19645
234.00596
233.82521
233.65385
233.49162
233.33824
233.19343
233.05688
232.92828
232.80728
232.69354
232.58671
232.48642
232.39232
232.30405
232.22128
232.14363
232.0708
232.00253
231.93881
231.88027
231.82897
231.79024
231.77718
231.82083
231.9814
232.32032
232.82809
233.42666
234.03519
234.60322
235.1098
235.55207
235.93567
236.26876
236.55936
236.8143
237.03861
237.23525
237.40498
237.54543
237.65026
237.71327
237.73978
237.74559
234.88763
234.70794
234.53742
234.37575
234.22269
234.07799
233.94138
233.81258
233.69126
233.57712
233.46982
233.36904
233.27441
233.18561
233.10231
233.02416
232.95084
232.88203
232.8175
232.75723
232.70175
232.65286
232.61502
232.59853
232.6268
232.74696
233.02022
233.46493
234.02563
234.62055
235.18873
235.70024
236.14742
236.53401
236.8679
237.15746
237.41007
237.63125
237.82438
237.99053
238.12746
238.22922
238.28999
238.31549
238.32099
235.74344
235.5657
235.39677
235.23637
235.0843
234.94033
234.80425
234.67577
234.55463
234.44054
234.3332
234.23228
234.13747
234.04846
233.9649
233.8865
233.81293
233.74388
233.67905
233.61822
233.56136
233.50895
233.46257
233.42607
233.40786
233.42609
233.51725
233.73571
234.11623
234.62962
235.20212
235.76545
236.28003
236.73187
237.12181
237.4569
237.74563
237.99582
238.21347
238.40237
238.56382
238.69589
238.79296
238.8503
238.8742
238.87939
236.39558
236.22884
236.07033
235.91985
235.77719
235.64214
235.51449
235.39398
235.28036
235.17334
235.07265
234.97797
234.88902
234.80548
234.72705
234.65344
234.58434
234.51946
234.45852
234.4013
234.34777
234.29836
234.25452
234.21962
234.20077
234.2125
234.2833
234.45864
234.77929
235.23907
235.77977
236.33155
236.84598
237.30154
237.69501
238.03184
238.32028
238.56846
238.78283
238.96757
239.12434
239.25146
239.34383
239.39779
239.42017
239.42503
237.195
237.03119
236.87523
236.7269
236.58607
236.45256
236.32619
236.20674
236.09398
235.98765
235.88751
235.79327
235.70465
235.62138
235.54315
235.46969
235.40072
235.33596
235.27511
235.21793
235.1642
235.11391
235.06743
235.0261
234.99295
234.97416
234.98171
235.03834
235.1811
235.44995
235.85444
236.35517
236.88746
237.39691
237.85417
238.25074
238.58961
238.87824
239.12482
239.33614
239.51677
239.66868
239.79049
239.87769
239.928
239.94873
239.95328
237.80222
237.64927
237.50363
237.36512
237.23362
237.10897
236.99097
236.87945
236.77416
236.67489
236.58137
236.49336
236.41058
236.33278
236.25968
236.19101
236.12651
236.06592
236.00896
235.9554
235.90504
235.85785
235.81421
235.77534
235.74401
235.72571
235.73065
235.77739
235.89611
236.1226
236.47472
236.93027
237.43509
237.93338
238.38897
238.78739
239.12816
239.41732
239.66274
239.87139
240.04817
240.19543
240.31215
240.39473
240.44183
240.46115
240.46531
238.54039
238.3911
238.24869
238.113
237.98395
237.86143
237.74529
237.63536
237.53145
237.43335
237.34084
237.25369
237.17166
237.09449
237.02193
236.95374
236.88966
236.82945
236.77284
236.71961
236.66951
236.62237
236.57816
236.53724
236.50075
236.47127
236.45374
236.45709
236.49688
236.59798
236.79115
237.09701
237.50608
237.977
238.45732
238.90661
239.3045
239.64632
239.93591
240.18028
240.38626
240.5589
240.70076
240.81133
240.88794
240.93089
240.94835
240.95214
239.24502
239.09989
238.96117
238.82876
238.7026
238.58262
238.46871
238.36073
238.25852
238.16191
238.07069
237.98466
237.90359
237.82727
237.75546
237.68792
237.62442
237.56472
237.50859
237.4558
237.40611
237.35932
237.31525
237.27388
237.23555
237.20136
237.1737
237.15712
237.15956
237.19443
237.28255
237.45001
237.717
238.08194
238.51528
238.97142
239.409
239.80299
240.14425
240.43381
240.67729
240.88098
241.04984
241.18653
241.29097
241.3615
241.4003
241.41592
241.41941
239.91553
239.77504
239.64047
239.51178
239.38894
239.2719
239.16058
239.05491
238.95473
238.8599
238.77025
238.6856
238.60574
238.53048
238.45961
238.3929
238.33013
238.2711
238.21556
238.16333
238.11416
238.06785
238.02419
237.98304
237.94437
237.90852
237.87653
237.85066
237.83513
237.83714
237.86847
237.94691
238.09461
238.32995
238.65539
239.05062
239.47808
239.89862
240.2845
240.62265
240.91096
241.1532
241.35476
241.52028
241.65244
241.75153
241.81734
241.85284
241.86704
241.8702
240.41629
240.28627
240.16171
240.04259
239.92888
239.82055
239.71751
239.61969
239.52695
239.43915
239.35614
239.27773
239.20376
239.13402
239.06832
239.00646
238.94824
238.89344
238.84186
238.79331
238.74758
238.70447
238.66379
238.6254
238.58929
238.55579
238.52589
238.50176
238.48733
238.48922
238.51796
238.58903
238.72142
238.9313
239.22278
239.58185
239.97847
240.37755
240.75089
241.08251
241.3673
241.60692
241.80554
241.96725
242.09465
242.18865
242.24986
242.28293
242.29615
242.29895
241.02333
240.89836
240.77839
240.66341
240.55342
240.44843
240.3484
240.25325
240.16291
240.07725
239.99615
239.91945
239.84699
239.7786
239.71411
239.65333
239.59607
239.54215
239.49138
239.44355
239.3985
239.35602
239.31594
239.27808
239.2423
239.20861
239.17734
239.14944
239.12698
239.11367
239.11566
239.14248
239.20783
239.32817
239.51752
239.78038
240.10668
240.47249
240.84738
241.20435
241.52586
241.80432
242.03921
242.23326
242.3897
242.51104
242.59865
242.65482
242.68459
242.69644
242.69892
241.59632
241.4768
241.3618
241.25133
241.14546
241.04419
240.94752
240.85541
240.7678
240.6846
240.6057
240.53098
240.46029
240.39349
240.33043
240.27092
240.21482
240.16193
240.1121
240.06514
240.02088
239.97914
239.93975
239.90254
239.86734
239.83404
239.80264
239.77348
239.74748
239.72663
239.71445
239.71668
239.74207
239.80287
239.9135
240.08613
240.32496
240.62233
240.95884
241.30847
241.64633
241.95456
242.22383
242.45169
242.63934
242.78912
242.90327
242.98384
243.03422
243.06048
243.07082
243.07304
242.13543
242.02167
241.91197
241.80637
241.70495
241.60776
241.51481
241.42609
241.34157
241.26116
241.18481
241.1124
241.0438
240.97889
240.91753
240.85957
240.80486
240.75324
240.70455
240.65864
240.61534
240.57448
240.53591
240.49947
240.46499
240.43234
240.4014
240.37219
240.34504
240.32086
240.30156
240.29052
240.29311
240.31742
240.37454
240.47721
240.63599
240.85453
241.12661
241.4361
241.76068
242.07796
242.37054
242.62816
242.84689
243.0266
243.16877
243.27543
243.34921
243.39422
243.41737
243.42642
243.42846
242.64105
242.5333
242.42914
242.32867
242.23198
242.13914
242.05019
241.96516
241.88402
241.80673
241.73322
241.66343
241.59724
241.53454
241.47522
241.41912
241.36612
241.31608
241.26885
241.22427
241.1822
241.14249
241.10499
241.06955
241.03601
241.00424
240.97409
240.94548
240.91843
240.89326
240.87088
240.85315
240.84327
240.84636
240.86992
240.92406
241.02012
241.16728
241.36856
241.61857
241.9035
242.20407
242.50024
242.77561
243.0196
243.22731
243.39759
243.53128
243.63037
243.6978
243.73868
243.75928
243.76728
243.7691
243.11389
243.01229
242.91384
242.81866
242.72688
242.63857
242.55382
242.47266
242.39509
242.32111
242.25066
242.18368
242.12009
242.05981
242.00272
241.9487
241.89763
241.84938
241.80383
241.76082
241.72023
241.68191
241.64573
241.61154
241.57921
241.54859
241.51955
241.49196
241.46574
241.44092
241.41784
241.39739
241.38136
241.37287
241.37674
241.40001
241.45193
241.54266
241.68013
241.86675
242.09754
242.36039
242.63837
242.91361
243.1709
243.39984
243.59496
243.7545
243.87886
243.97004
244.03169
244.06854
244.08755
244.09496
244.09655
243.55496
243.4596
243.36696
243.27718
243.19041
243.10676
243.02632
242.94914
242.87526
242.80468
242.73737
242.6733
242.6124
242.5546
242.4998
242.44791
242.39881
242.35238
242.3085
242.26706
242.22792
242.19095
242.15603
242.12302
242.0918
242.06223
242.03419
242.00754
241.98218
241.95803
241.93513
241.91384
241.89501
241.88043
241.87307
241.87754
241.90043
241.95026
242.03613
242.16493
242.33842
242.55191
242.79452
243.05121
243.30598
243.5449
243.75799
243.93967
244.08777
244.20246
244.28597
244.34162
244.37506
244.39182
244.39831
244.39971
243.87628
243.78945
243.70513
243.62343
243.5445
243.46843
243.3953
243.32516
243.25805
243.19394
243.13283
243.07466
243.01937
242.9669
242.91716
242.87004
242.82545
242.78327
242.74339
242.7057
242.67007
242.6364
242.60456
242.57443
242.54589
242.51882
242.4931
242.46862
242.44526
242.42297
242.4018
242.38211
242.36475
242.35146
242.34511
242.35011
242.37262
242.42049
242.5019
242.62279
242.78437
242.9821
243.20606
243.44274
243.67778
243.89845
244.09545
244.26332
244.39983
244.50514
244.58115
244.63188
244.66189
244.6774
244.68345
244.68466
244.26331
244.18238
244.10356
244.02698
243.95279
243.88113
243.81208
243.74573
243.6821
243.62122
243.56309
243.50767
243.45493
243.4048
243.35722
243.3121
243.26935
243.22887
243.19056
243.15433
243.12005
243.08763
243.05695
243.02791
243.00039
242.97428
242.94947
242.92586
242.90333
242.8818
242.86119
242.84159
242.82334
242.80731
242.79518
242.78974
242.79518
242.81728
242.86328
242.94052
243.05409
243.20472
243.38795
243.59463
243.81252
244.02865
244.23146
244.41232
244.56609
244.69063
244.78612
244.85481
244.90011
244.92719
244.94076
244.94602
244.94707
244.62203
244.547
244.47367
244.40221
244.33278
244.26554
244.20058
244.13802
244.0779
244.02026
243.96512
243.91246
243.86227
243.81449
243.76907
243.72595
243.68505
243.64627
243.60954
243.57476
243.54183
243.51065
243.48113
243.45316
243.42665
243.40149
243.37757
243.35482
243.3331
243.31234
243.29244
243.27335
243.25515
243.23821
243.22338
243.2123
243.20766
243.21345
243.23512
243.27932
243.35262
243.45936
243.5998
243.76958
243.96018
244.16045
244.35861
244.54417
244.70926
244.84914
244.9619
245.04793
245.10942
245.15015
245.17427
245.18685
245.19176
245.19265
244.9537
244.88454
244.8167
244.75035
244.68568
244.62285
244.56199
244.50321
244.4466
244.39221
244.34006
244.29016
244.24251
244.19708
244.15383
244.1127
244.07363
244.03656
244.00139
243.96805
243.93646
243.90652
243.87814
243.85124
243.82572
243.80149
243.77845
243.75652
243.7356
243.7156
243.69642
243.67799
243.66026
243.64333
243.62755
243.61379
243.60364
243.5997
243.60576
243.62695
243.66935
243.73886
243.83911
243.97001
244.12723
244.30282
244.48657
244.66779
244.83695
244.98691
245.11338
245.21473
245.29147
245.34593
245.38158
245.40282
245.41355
245.4177
245.41846
245.2596
245.1963
245.13392
245.07267
245.01274
244.95431
244.89754
244.84255
244.78944
244.73827
244.68911
244.64197
244.59685
244.55376
244.51266
244.47352
244.43628
244.40089
244.36728
244.33538
244.30511
244.27639
244.24915
244.22329
244.19875
244.17543
244.15325
244.13213
244.11197
244.0927
244.07423
244.05647
244.03935
244.02284
244.00703
243.9923
243.97948
243.97016
243.96681
243.97307
243.99371
244.03435
244.10019
244.1943
244.3162
244.46165
244.62321
244.79151
244.95684
245.11057
245.24625
245.36002
245.4505
245.51833
245.56583
245.59645
245.61422
245.623
245.62631
245.62697
245.54103
245.48354
245.4266
245.37042
245.31522
245.26119
245.20849
245.15727
245.10765
245.05971
245.01352
244.96912
244.92653
244.88577
244.84681
244.80964
244.77421
244.74049
244.70842
244.67794
244.64897
244.62147
244.59534
244.57052
244.54693
244.5245
244.50316
244.48282
244.46341
244.44484
244.42705
244.40995
244.39345
244.3775
244.36207
244.34727
244.33346
244.32149
244.31288
244.31004
244.3164
244.33644
244.37527
244.43753
244.52572
244.63907
244.77342
244.92181
245.07566
245.22618
245.36562
245.4882
245.59055
245.67151
245.7318
245.77368
245.8004
245.81559
245.823
245.82576
245.82635
245.79924
245.74754
245.696
245.64487
245.59437
245.54472
245.49609
245.44864
245.40249
245.35777
245.31454
245.27287
245.2328
245.19434
245.15751
245.1223
245.08867
245.0566
245.02605
244.99697
244.9693
244.94298
244.91795
244.89414
244.8715
244.84994
244.82941
244.80983
244.79113
244.77325
244.7561
244.73963
244.72374
244.70837
244.69346
244.679
244.66508
244.6521
244.64087
244.63288
244.63045
244.63683
244.65619
244.69322
244.75198
244.83448
244.93971
245.06359
245.19961
245.33993
245.47659
245.6027
245.71317
245.8051
245.87759
245.93144
245.96878
245.99257
246.00624
246.01281
246.01524
246.01574
245.98955
245.94335
245.89724
245.85143
245.80615
245.76157
245.71787
245.6752
245.63368
245.5934
245.55445
245.51688
245.48073
245.44601
245.41273
245.38089
245.35046
245.32142
245.29371
245.26731
245.24217
245.21822
245.19541
245.17368
245.15298
245.13324
245.11439
245.09639
245.07916
245.06263
245.04675
245.03144
245.01664
245.00227
244.98828
244.97466
244.96154
244.94927
244.93869
244.93123
244.92912
244.93544
244.95407
244.98926
245.04457
245.12157
245.21903
245.33299
245.45734
245.58491
245.70855
245.82212
245.92121
246.00338
246.06804
246.11608
246.14951
246.17107
246.18352
246.18984
246.19222
246.19263
246.21062
246.16978
246.12869
246.08757
246.04665
246.00612
245.96617
245.92697
245.88865
245.85132
245.81508
245.78
245.74614
245.71353
245.68218
245.6521
245.6233
245.59574
245.5694
245.54426
245.52026
245.49737
245.47554
245.45471
245.43484
245.41587
245.39775
245.38041
245.3638
245.34787
245.33256
245.31779
245.30352
245.28967
245.27619
245.26302
245.25015
245.23771
245.22608
245.21606
245.20905
245.20718
245.21335
245.23118
245.2645
245.31643
245.38813
245.4782
245.58279
245.69622
245.8119
245.92339
246.02526
246.11364
246.18654
246.24359
246.28576
246.31499
246.33372
246.34468
246.35011
246.35214
246.35246
246.41196
246.37647
246.34038
246.30394
246.26737
246.23089
246.19469
246.15896
246.12384
246.08946
246.05593
246.02335
245.99177
245.96125
245.93182
245.9035
245.87631
245.85022
245.82524
245.80133
245.77847
245.75662
245.73575
245.71581
245.69675
245.67853
245.6611
245.64441
245.62841
245.61305
245.59827
245.58403
245.57026
245.5569
245.5439
245.53119
245.51874
245.50653
245.4947
245.48362
245.47408
245.46744
245.46573
245.47169
245.48865
245.52009
245.56867
245.63523
245.71824
245.81398
245.91715
246.02173
246.12195
246.21298
246.29148
246.35576
246.40565
246.44214
246.46707
246.48277
246.49166
246.49591
246.49743
246.49769
246.59463
246.56447
246.53338
246.5016
246.46939
246.43696
246.40453
246.37227
246.34036
246.30894
246.27813
246.24804
246.21875
246.19032
246.16281
246.13625
246.11065
246.08603
246.06239
246.03971
246.01797
245.99715
245.97722
245.95814
245.93988
245.9224
245.90565
245.88959
245.87417
245.85936
245.8451
245.83134
245.81805
245.80515
245.7926
245.78035
245.76833
245.7565
245.74487
245.73357
245.72297
245.71384
245.7075
245.70588
245.71155
245.72759
245.75711
245.8024
245.864
245.9403
246.02771
246.12134
246.21573
246.3057
246.38702
246.45681
246.51372
246.55772
246.58977
246.61161
246.62531
246.63306
246.63675
246.63806
246.63826
246.73483
246.70869
246.68159
246.65374
246.62539
246.59673
246.56797
246.53928
246.51083
246.48275
246.45517
246.42817
246.40184
246.37625
246.35144
246.32744
246.30428
246.28197
246.26051
246.23988
246.22008
246.20107
246.18285
246.16537
246.14861
246.13252
246.11707
246.10222
246.08794
246.07418
246.06089
246.04804
246.03558
246.02345
246.01162
246.00002
245.9886
245.97733
245.9662
245.95536
245.94517
245.93639
245.93028
245.92867
245.93398
245.94905
245.97664
246.01869
246.07549
246.14536
246.2249
246.30957
246.39441
246.47483
246.54713
246.60885
246.65891
246.6974
246.72529
246.74419
246.75597
246.76258
246.76568
246.76675
246.76691
246.88841
246.86726
246.84485
246.82139
246.79712
246.77227
246.74703
246.72159
246.69614
246.67081
246.64575
246.62106
246.59684
246.57318
246.55013
246.52773
246.50604
246.48506
246.4648
246.44528
246.42649
246.40841
246.39102
246.37431
246.35825
246.34281
246.32796
246.31367
246.2999
246.28661
246.27378
246.26135
246.2493
246.23757
246.22613
246.21492
246.2039
246.19301
246.18221
246.17152
246.16108
246.15124
246.14274
246.1368
246.13515
246.14004
246.15408
246.17972
246.21858
246.27076
246.33452
246.40666
246.48299
246.55905
246.63076
246.6949
246.74939
246.79338
246.82705
246.85136
246.86777
246.87796
246.88365
246.88631
246.88722
246.88733
247.02617
247.01002
246.9923
246.97325
246.9531
246.93207
246.91038
246.88823
246.8658
246.84326
246.82074
246.79839
246.77631
246.75459
246.73331
246.71253
246.69231
246.67266
246.65362
246.6352
246.61741
246.60025
246.5837
246.56775
246.55238
246.53758
246.52331
246.50956
246.49628
246.48346
246.47106
246.45904
246.44737
246.43602
246.42494
246.4141
246.40344
246.39292
246.38249
246.37211
246.3618
246.35169
246.34215
246.33388
246.32805
246.32629
246.33071
246.34367
246.36735
246.40309
246.4508
246.50875
246.5739
246.64243
246.71033
246.77398
246.8306
246.87844
246.91686
246.94612
246.96711
246.98119
246.98987
246.99467
246.99687
246.9976
246.99768
247.14894
247.13779
247.12479
247.11016
247.09416
247.077
247.0589
247.04008
247.02071
247.00099
246.98106
246.96108
246.94116
246.92141
246.90193
246.88279
246.86404
246.84574
246.82792
246.81062
246.79383
246.77758
246.76186
246.74667
246.73199
246.71781
246.70412
246.6909
246.67811
246.66573
246.65375
246.64212
246.63082
246.61982
246.60908
246.59857
246.58824
246.57806
246.56798
246.55795
246.54793
246.53795
246.52813
246.51883
246.51074
246.50496
246.50304
246.50693
246.51878
246.54049
246.57318
246.61659
246.66902
246.72764
246.78895
246.84936
246.9057
246.95556
246.99749
247.03102
247.05644
247.07461
247.08675
247.09421
247.0983
247.10017
247.10077
247.10082
247.25141
247.2431
247.23293
247.2211
247.20785
247.19339
247.17794
247.16169
247.14484
247.12755
247.10997
247.09225
247.07451
247.05686
247.03937
247.02213
247.00519
246.98861
246.97242
246.95666
246.94132
246.92644
246.912
246.89801
246.88446
246.87134
246.85864
246.84633
246.83439
246.82281
246.81157
246.80062
246.78996
246.77954
246.76935
246.75933
246.74946
246.7397
246.73
246.72031
246.71061
246.7009
246.69132
246.68223
246.67426
246.66849
246.66635
246.66966
246.68036
246.70011
246.72981
246.76908
246.81628
246.86876
246.92333
246.9768
247.0264
247.07005
247.10657
247.1356
247.15749
247.17305
247.18336
247.18964
247.19304
247.19455
247.19501
247.19504
247.35152
247.34796
247.34227
247.33467
247.32537
247.31461
247.30258
247.28951
247.27558
247.26097
247.24586
247.23039
247.2147
247.1989
247.18311
247.1674
247.15186
247.13653
247.12148
247.10674
247.09234
247.07829
247.06462
247.05132
247.0384
247.02585
247.01366
247.00183
246.99033
246.97916
246.96828
246.95769
246.94735
246.93725
246.92736
246.91764
246.90807
246.89861
246.88922
246.87985
246.87047
246.86104
246.85157
246.84221
246.83328
246.82541
246.8196
246.81722
246.81991
246.82944
246.84726
246.87406
246.9094
246.95167
246.99843
247.0468
247.09396
247.13747
247.17558
247.20732
247.23243
247.25129
247.26463
247.27344
247.27878
247.28165
247.28291
247.28327
247.28327
247.43886
247.44007
247.43889
247.43555
247.43026
247.42324
247.41471
247.40487
247.39393
247.38207
247.36948
247.35632
247.34272
247.32884
247.31478
247.30064
247.28651
247.27247
247.25858
247.24489
247.23143
247.21824
247.20533
247.19273
247.18044
247.16846
247.15679
247.14543
247.13437
247.12359
247.11309
247.10283
247.09282
247.08301
247.07341
247.06397
247.05467
247.04548
247.03638
247.02731
247.01824
247.00912
246.99992
246.99066
246.98146
246.97266
246.96484
246.95896
246.95628
246.95833
246.96667
246.98257
247.00656
247.03813
247.07575
247.11716
247.15978
247.2011
247.23902
247.27206
247.29941
247.32093
247.33698
247.34826
247.35564
247.36006
247.36239
247.36337
247.36362
247.3636
247.5201
247.52343
247.52439
247.52316
247.51995
247.51497
247.50844
247.50056
247.49152
247.48152
247.47072
247.45929
247.44736
247.43509
247.42256
247.4099
247.39718
247.38447
247.37185
247.35935
247.34703
247.33491
247.32301
247.31136
247.29995
247.28881
247.27792
247.26729
247.25691
247.24676
247.23684
247.22713
247.21762
247.20829
247.19911
247.19007
247.18114
247.17229
247.16349
247.1547
247.14588
247.13699
247.12799
247.1189
247.10984
247.10113
247.09333
247.08734
247.08432
247.08569
247.09283
247.10684
247.12812
247.1561
247.18936
247.22582
247.26317
247.29921
247.33214
247.36068
247.3842
247.40263
247.41631
247.42588
247.4321
247.4358
247.43773
247.43853
247.43872
247.43868
247.58857
247.59646
247.60176
247.60464
247.6053
247.60395
247.6008
247.59606
247.58992
247.58258
247.57422
247.56502
247.55513
247.54469
247.53384
247.52268
247.51132
247.49984
247.48832
247.47681
247.46538
247.45406
247.44288
247.43187
247.42105
247.41043
247.40002
247.38982
247.37982
247.37004
247.36044
247.35104
247.34181
247.33274
247.32382
247.31502
247.30633
247.29772
247.28916
247.28063
247.27208
247.26348
247.25477
247.24594
247.23699
247.22804
247.21939
247.21157
247.20543
247.20204
247.2027
247.20864
247.22079
247.23944
247.26402
247.29317
247.32502
247.3575
247.38869
247.41703
247.44146
247.46148
247.47706
247.48854
247.4965
247.50162
247.50461
247.50613
247.50671
247.50681
247.50676
247.64611
247.65857
247.66823
247.67527
247.67986
247.68221
247.68252
247.681
247.67784
247.67325
247.66742
247.66052
247.65273
247.6442
247.63508
247.62548
247.61553
247.60532
247.59494
247.58446
247.57394
247.56344
247.553
247.54266
247.53243
247.52234
247.51241
247.50264
247.49304
247.48361
247.47435
247.46524
247.45629
247.44748
247.43879
247.43023
247.42176
247.41337
247.40504
247.39673
247.38843
247.38009
247.37167
247.36312
247.35443
247.34559
247.33672
247.3281
247.32024
247.31391
247.31013
247.31005
247.31478
247.32512
247.34125
247.36261
247.38794
247.41554
247.4436
247.47043
247.4947
247.51553
247.53252
247.54568
247.55534
247.56199
247.56624
247.56869
247.56991
247.57036
247.57042
247.57035
247.7103
247.72433
247.73556
247.74414
247.75026
247.7541
247.75588
247.7558
247.75405
247.75083
247.74632
247.74072
247.73418
247.72685
247.71888
247.7104
247.70151
247.69231
247.68289
247.67333
247.66368
247.654
247.64434
247.63472
247.62518
247.61574
247.60641
247.59721
247.58814
247.5792
247.57039
247.56171
247.55315
247.5447
247.53636
247.5281
247.51992
247.51179
247.5037
247.49562
247.48751
247.47934
247.47108
247.46267
247.45408
247.44533
247.43652
247.4279
247.41997
247.41343
247.40922
247.40839
247.41192
247.42049
247.43421
247.45252
247.47427
247.49793
247.52192
247.54475
247.5653
247.58284
247.59705
247.60798
247.61592
247.62133
247.62473
247.62664
247.62754
247.62783
247.62782
247.62774
247.75206
247.7705
247.78596
247.79858
247.80854
247.81601
247.82118
247.82426
247.82545
247.82493
247.82292
247.81959
247.81512
247.80967
247.8034
247.79645
247.78894
247.78098
247.77268
247.76411
247.75535
247.74646
247.7375
247.72852
247.71954
247.7106
247.70173
247.69293
247.68422
247.6756
247.66709
247.65868
247.65037
247.64215
247.63403
247.62598
247.61799
247.61006
247.60216
247.59427
247.58638
247.57844
247.57042
247.56229
247.55399
247.54549
247.53681
247.52803
247.51939
247.51136
247.50458
247.49993
247.49833
247.50067
247.50752
247.51894
247.53439
247.55283
247.5729
247.5932
247.61248
247.62976
247.64445
247.6563
247.66536
247.6719
247.67632
247.67907
247.68059
247.68128
247.68147
247.68143
247.68134
247.78434
247.8072
247.82692
247.84364
247.8575
247.86867
247.87733
247.88366
247.88788
247.89018
247.89075
247.88979
247.88748
247.88401
247.87952
247.87418
247.86812
247.86146
247.85432
247.84679
247.83896
247.83091
247.82269
247.81436
247.80597
247.79755
247.78914
247.78075
247.77241
247.76413
247.75592
247.74778
247.73972
247.73173
247.72382
247.71597
247.70817
247.70042
247.6927
247.685
247.67729
247.66956
247.66176
247.65388
247.64585
247.63764
247.62921
247.62057
247.6118
247.60313
247.59497
247.58793
247.58281
247.58045
247.58161
247.5868
247.59603
247.60879
247.62415
247.6409
247.65783
247.67384
247.68814
247.70022
247.70989
247.71722
247.72244
247.72591
247.72801
247.72911
247.72956
247.72963
247.72954
247.72945
247.83489
247.85887
247.87972
247.89753
247.91247
247.92469
247.93439
247.94174
247.94696
247.95022
247.95174
247.9517
247.95029
247.94767
247.94402
247.93949
247.9342
247.92829
247.92186
247.91501
247.90783
247.90038
247.89275
247.88497
247.87709
247.86916
247.86121
247.85325
247.84531
247.83741
247.82955
247.82174
247.81398
247.80627
247.79861
247.791
247.78343
247.77588
247.76835
247.76082
247.75326
247.74566
247.73799
247.73021
247.72227
247.71414
247.70576
247.69714
247.68837
247.67963
247.67133
247.66402
247.65841
247.65527
247.65529
247.65888
247.66603
247.67629
247.68882
247.70257
247.71647
247.72962
247.74133
247.75118
247.75902
247.76492
247.7691
247.77183
247.77345
247.77427
247.77457
247.77457
247.77446
247.77436
247.85394
247.88218
247.90717
247.92899
247.94777
247.96365
247.97679
247.98739
247.99562
248.00169
248.0058
248.00813
248.00889
248.00825
248.00639
248.00346
247.99962
247.99501
247.98974
247.98393
247.97767
247.97105
247.96414
247.957
247.9497
247.94228
247.93477
247.92722
247.91963
247.91204
247.90447
247.89691
247.88938
247.88188
247.87442
247.86699
247.85959
247.8522
247.84483
247.83746
247.83007
247.82265
247.81517
247.8076
247.7999
247.79204
247.78395
247.77561
247.76701
247.75821
247.7494
247.74093
247.73332
247.72722
247.72331
247.72221
247.72426
247.72946
247.73738
247.74729
247.75827
247.76942
247.77995
247.78929
247.79709
247.80324
247.80781
247.81098
247.81299
247.81412
247.81462
247.81474
247.81465
247.8145
247.8144
247.89729
247.9264
247.95224
247.97491
247.99451
248.0112
248.02514
248.03651
248.04549
248.0523
248.05712
248.06016
248.0616
248.06162
248.06041
248.05811
248.05487
248.05084
248.04613
248.04085
248.03509
248.02896
248.02251
248.01581
248.00892
248.00189
247.99475
247.98754
247.98028
247.97299
247.9657
247.9584
247.95112
247.94385
247.9366
247.92936
247.92214
247.91492
247.9077
247.90047
247.8932
247.88589
247.87851
247.87102
247.8634
247.85559
247.84755
247.83923
247.83062
247.82177
247.81287
247.80423
247.79631
247.7897
247.78504
247.78284
247.78344
247.7868
247.79257
247.80009
247.80859
247.81729
247.82554
247.83284
247.83893
247.84369
247.84719
247.84958
247.85105
247.85184
247.85214
247.85215
247.85202
247.85186
247.85175
247.90433
247.93764
247.96757
247.99418
248.01759
248.03791
248.05529
248.06989
248.08191
248.09154
248.09897
248.10441
248.10804
248.11006
248.11065
248.10999
248.10822
248.1055
248.10196
248.09773
248.0929
248.08759
248.08187
248.07582
248.0695
248.06296
248.05627
248.04944
248.04253
248.03555
248.02853
248.02148
248.01441
248.00734
248.00027
247.9932
247.98613
247.97906
247.97198
247.96489
247.95777
247.95061
247.94339
247.93609
247.92868
247.92111
247.91334
247.90533
247.89702
247.88839
247.87949
247.87048
247.86164
247.8534
247.8463
247.84088
247.83764
247.83685
247.83849
247.84225
247.84758
247.85381
247.86028
247.86644
247.87189
247.87638
247.87985
247.88234
247.88397
247.8849
247.88532
247.88539
247.88527
247.88507
247.88488
247.88477
247.90405
247.94144
247.97541
248.00598
248.03321
248.0572
248.0781
248.09605
248.11121
248.12378
248.13395
248.14191
248.14786
248.15199
248.1545
248.15557
248.15537
248.15405
248.15177
248.14865
248.14482
248.14039
248.13545
248.13008
248.12437
248.11837
248.11214
248.10574
248.09919
248.09253
248.08579
248.07899
248.07215
248.06528
248.05839
248.05149
248.04458
248.03765
248.03072
248.02376
248.01678
248.00976
248.00269
247.99555
247.98831
247.98095
247.97343
247.96569
247.95769
247.94938
247.94072
247.93176
247.92263
247.91358
247.90501
247.8974
247.89126
247.88701
247.88491
247.88495
247.88688
247.89023
247.89444
247.89895
247.90331
247.90719
247.91037
247.91279
247.91448
247.91553
247.91608
247.91625
247.91619
247.91599
247.91576
247.91557
247.91545
247.93805
247.97601
248.0105
248.04158
248.06931
248.09381
248.1152
248.13362
248.14926
248.16229
248.1729
248.18129
248.18767
248.19222
248.19514
248.1966
248.19678
248.19584
248.19392
248.19116
248.18767
248.18357
248.17894
248.17388
248.16845
248.16273
248.15676
248.1506
248.14429
248.13785
248.13132
248.12471
248.11805
248.11135
248.10462
248.09786
248.09108
248.08428
248.07745
248.0706
248.06371
248.05677
248.04978
248.0427
248.03552
248.0282
248.02071
248.013
248.005
247.99667
247.98797
247.97893
247.96967
247.96041
247.95151
247.9434
247.93654
247.93133
247.928
247.92657
247.92681
247.92834
247.9307
247.93343
247.93615
247.93857
247.94052
247.94195
247.94287
247.94336
247.9435
247.9434
247.94316