/*--------------------------------*- C++ -*----------------------------------*\
| =========                 |                                                 |
| \\      /  F ield         | OpenFOAM: The Open Source CFD Toolbox           |
|  \\    /   O peration     | Version:  2506                                  |
|   \\  /    A nd           | Website:  www.openfoam.com                      |
|    \\/     M anipulation  |                                                 |
\*---------------------------------------------------------------------------*/
FoamFile
{
    version     2.0;
    format      ascii;
    arch        "LSB;label=32;scalar=64";
    class       volVectorField;
    location    "0.011";
    object      wallShearStress;
}
// * * * * * * * * * * * * * * * * * * * * * * * * * * * * * * * * * * * * * //

dimensions      [1 -1 -2 0 0 0 0];

internalField   uniform (0 0 0);

boundaryField
{
    Side
    {
        type            empty;
    }
    Inlet
    {
        type            calculated;
        value           uniform (0 0 0);
    }
    Airfoil
    {
        type            calculated;
        value           nonuniform List<vector> 
95
(
(-2.8530151 0.2015882 7.9804101e-17)
(-2.8506692 0.19967061 7.9917484e-17)
(-2.8448311 0.19745534 -8.0031757e-17)
(-2.8348977 0.19490709 1.6029392e-16)
(-2.8200141 0.19197878 8.0263749e-17)
(-2.7982179 0.18856021 -1.5332899e-22)
(-2.7657838 0.18442583 -8.0502407e-17)
(-2.7170153 0.17923867 8.0624966e-17)
(-2.6437761 0.17252417 8.074823e-17)
(-2.5360354 0.1637162 1.6174619e-16)
(-2.3825377 0.15227095 1.1284746e-36)
(-2.1761319 0.13806191 1.9562905e-33)
(-1.9137987 0.1207341 3.0983002e-22)
(-1.5992067 0.10057676 -8.1370452e-17)
(-1.2544967 0.078964333 -1.6297572e-16)
(-0.92814856 0.058730954 1.6320777e-16)
(-0.69634566 0.04416827 -1.5719651e-33)
(-0.63956813 0.039718758 8.1852201e-17)
(-0.78859157 0.046924805 2.8298381e-33)
(-1.0771134 0.062016644 -1.1792252e-38)
(-1.3763683 0.07755402 -3.1419144e-22)
(-1.5894136 0.088247194 8.2563996e-17)
(-1.6969619 0.092974467 3.1572839e-22)
(-1.7334835 0.09383342 3.1494966e-22)
(-1.7434417 0.09322396 -3.172465e-22)
(-1.754412 0.092526805 -8.334597e-17)
(-1.775317 0.092243012 -8.3538094e-17)
(-1.8041224 0.092288071 -8.3731674e-17)
(-1.8359898 0.092416663 -8.3925895e-17)
(-1.8675837 0.092456881 8.4259102e-26)
(-1.8974775 0.092336558 3.2168252e-22)
(-1.9249363 0.092021143 -1.8281721e-38)
(-1.9490866 0.091473842 -1.5655271e-24)
(-1.9692341 0.090671542 -8.4909504e-17)
(-1.9850132 0.08959173 -9.5984277e-26)
(-1.995933 0.088291883 -4.2655752e-17)
(-2.0035602 0.087014154 -4.2757065e-17)
(-2.0100281 0.085702688 -1.1303563e-25)
(-2.0156266 0.084277378 -4.2963586e-17)
(-2.0217064 0.082847507 6.5713887e-22)
(-2.0291784 0.081392514 -1.2677174e-25)
(-2.0392348 0.07999769 -3.3020674e-22)
(-2.0526243 0.07864907 -1.5965027e-38)
(-2.0700748 0.077386104 3.3165189e-22)
(-2.091939 0.076194306 9.949378e-25)
(-2.1183046 0.075069874 -4.368772e-17)
(-2.1489867 0.073996382 3.3417329e-22)
(-2.1831819 0.072918574 4.3898343e-17)
(-2.2196471 0.071885742 -8.4635593e-37)
(-2.2586673 0.071067986 -4.4116688e-17)
(-2.3004806 0.07025821 -4.4229946e-17)
(-2.3434372 0.06935877 -9.4039548e-38)
(-2.3869169 0.068353718 -3.3913983e-22)
(-2.4300432 0.067223387 -8.9156972e-17)
(-2.4723016 0.065928194 4.4699623e-17)
(-2.5135422 0.064500605 -2.2411224e-17)
(-2.5538235 0.062885485 -6.8586606e-22)
(-2.5938559 0.061148457 -2.2538532e-17)
(-2.6344339 0.059257227 -4.5210682e-17)
(-2.6769214 0.057275399 -2.3509887e-37)
(-2.7222869 0.055169201 -6.5527506e-25)
(-2.7708011 0.053017552 1.1754944e-37)
(-2.8244451 0.051100273 -2.2888239e-17)
(-2.8848778 0.049144059 3.504679e-22)
(-2.9517043 0.047151736 -2.3041264e-17)
(-3.0240584 0.045016782 2.312119e-17)
(-3.1011058 0.042782562 -1.1601834e-17)
(-3.1811148 0.040323748 2.3285798e-17)
(-3.2631961 0.037709726 3.5655422e-22)
(-3.3457242 0.034841943 1.1728412e-17)
(-3.4279518 0.031746083 -1.492055e-34)
(-3.5090507 0.028383386 -1.1817495e-17)
(-3.5888618 0.024761172 5.2897246e-38)
(-3.667348 0.020873934 -3.6336809e-22)
(-3.7434341 0.016723988 3.6492423e-22)
(-3.8178455 0.012643033 -8.3919416e-26)
(-3.8927135 0.008457441 3.6771489e-22)
(-3.9684502 0.0040483661 -7.5628674e-19)
(-4.0451887 -0.00060881657 -1.4684977e-25)
(-4.1232739 -0.00550914 -3.7240041e-22)
(-4.2028668 -0.01067589 9.3022921e-26)
(-4.2840687 -0.016113942 6.1510164e-18)
(-4.3668943 -0.021832015 3.7712118e-22)
(-4.4511633 -0.027853864 3.7877121e-22)
(-4.5367967 -0.034172321 -3.8037191e-22)
(-4.6234372 -0.040809464 1.251571e-17)
(-4.7107521 -0.047770087 -1.6456921e-37)
(-4.7981913 -0.055054213 -1.2625916e-17)
(-4.8839592 -0.062550202 -3.8712871e-22)
(-4.9689831 -0.069951248 -3.8871302e-22)
(-5.0547051 -0.077605313 7.8113999e-22)
(-5.1403978 -0.085545746 -1.285741e-17)
(-5.2261222 -0.09377743 -3.9495279e-22)
(-5.3118996 -0.10230949 2.5953813e-17)
(-5.3977616 -0.11115421 -1.880791e-37)
)
;
    }
    Outlet
    {
        type            calculated;
        value           nonuniform List<vector> 0();
    }
    procBoundary10to3
    {
        type            processor;
        value           uniform (0 0 0);
    }
    procBoundary10to9
    {
        type            processor;
        value           uniform (0 0 0);
    }
    procBoundary10to11
    {
        type            processor;
        value           uniform (0 0 0);
    }
}


// ************************************************************************* //
