/*--------------------------------*- C++ -*----------------------------------*\
| =========                 |                                                 |
| \\      /  F ield         | OpenFOAM: The Open Source CFD Toolbox           |
|  \\    /   O peration     | Version:  2506                                  |
|   \\  /    A nd           | Website:  www.openfoam.com                      |
|    \\/     M anipulation  |                                                 |
\*---------------------------------------------------------------------------*/
FoamFile
{
    version     2.0;
    format      ascii;
    arch        "LSB;label=32;scalar=64";
    class       volScalarField;
    location    "0.02";
    object      Ma;
}
// * * * * * * * * * * * * * * * * * * * * * * * * * * * * * * * * * * * * * //

dimensions      [0 0 0 0 0 0 0];

internalField   nonuniform List<scalar> 
13761
(
0.25781528
0.25969521
0.26838744
0.26848484
0.25977296
0.25790003
0.26489329
0.26692908
0.26859017
0.25984559
0.25796398
0.26497358
0.26704649
0.2515148
0.21613226
0.26869721
0.25992289
0.25803385
0.26505873
0.2671589
0.25172388
0.21632563
0.20541066
0.20974294
0.26881114
0.26000521
0.25810747
0.26514848
0.26728738
0.25196084
0.21653748
0.20558604
0.20986626
0.25191378
0.28600903
0.26893182
0.26009288
0.25818572
0.26524302
0.26741621
0.25220334
0.21676735
0.205772
0.20999886
0.25193801
0.2860371
0.30325142
0.29906414
0.26905969
0.26018624
0.25826861
0.26534309
0.26755778
0.25246601
0.21701502
0.20596959
0.21013879
0.25193365
0.28604268
0.3033231
0.29922044
0.26893861
0.24619982
0.26919531
0.26028566
0.25835664
0.26544849
0.26770377
0.2527412
0.21728033
0.20617972
0.21028781
0.2519517
0.28605741
0.30340708
0.29938245
0.2690474
0.24618655
0.2173156
0.19970701
0.22050036
0.26933907
0.26039148
0.25845003
0.26556009
0.26786125
0.25303541
0.2175639
0.20640332
0.21044553
0.25195445
0.28606431
0.3034897
0.29955502
0.26916446
0.24617641
0.21729662
0.1997967
0.22066739
0.24864714
0.25553058
0.26949158
0.26050408
0.25854917
0.26567766
0.2680257
0.25334599
0.21786638
0.20664136
0.21061354
0.25197418
0.28607807
0.30358185
0.29973704
0.26929143
0.24616208
0.21727831
0.19989166
0.22084656
0.24880782
0.25569516
0.25726978
0.25359019
0.26965333
0.26062383
0.25865434
0.26580207
0.26820156
0.25367658
0.21818897
0.20689495
0.21079171
0.25198243
0.28608418
0.30367324
0.29993023
0.26942955
0.24614669
0.21725711
0.19999275
0.2210334
0.24898033
0.2558663
0.25746891
0.25396691
0.22087762
0.18711199
0.26982502
0.26075121
0.25876591
0.26593319
0.26838634
0.25402656
0.21853284
0.20716541
0.2109817
0.25200364
0.28609643
0.3037726
0.30013437
0.26958028
0.24612978
0.21723501
0.20010064
0.22123577
0.2491616
0.25604622
0.2576796
0.2543667
0.22155314
0.18743541
0.17878872
0.17300587
0.27000728
0.26088665
0.25888426
0.26607183
0.26858314
0.25439859
0.21889962
0.20745402
0.21118371
0.25201739
0.28610179
0.30387259
0.30035105
0.26974645
0.24611106
0.21721183
0.20021633
0.22145049
0.24935537
0.25623729
0.25790256
0.25479172
0.2222751
0.18779116
0.1789456
0.17309701
0.16445082
0.15464197
0.14556168
0.27020088
0.26103071
0.25900981
0.26621796
0.26879058
0.25479295
0.21929059
0.20776169
0.21139952
0.25204125
0.28611206
0.30397919
0.30058012
0.26992872
0.24608995
0.21718753
0.20034029
0.22168045
0.24956077
0.25643907
0.25813929
0.25524223
0.22304738
0.1881801
0.1791192
0.17319621
0.16442925
0.15453914
0.1454102
0.13730516
0.13165901
0.27040656
0.2611839
0.25914302
0.26637227
0.26901096
0.25521175
0.21970771
0.20808915
0.21162959
0.25206064
0.28611598
0.30408689
0.30082314
0.27012548
0.24606653
0.21716209
0.20047384
0.22192514
0.24977867
0.25665243
0.25838992
0.25571983
0.22387222
0.18860421
0.17931044
0.17330412
0.16440355
0.15441852
0.14523749
0.13706945
0.13142995
0.1251605
0.11744221
0.106582
0.27062521
0.26134692
0.25928433
0.26653483
0.26924364
0.25565591
0.22015303
0.20843729
0.21187584
0.25208853
0.2861238
0.3042001
0.30108029
0.27034468
0.24604064
0.21713574
0.20061765
0.22218658
0.2500098
0.25687785
0.25865545
0.25622598
0.22475336
0.18906668
0.17951992
0.17342141
0.16437529
0.15428009
0.14504302
0.13681083
0.13117335
0.12493866
0.11722451
0.10631919
0.092443073
0.067301753
0.046615622
0.27085771
0.26152048
0.25943427
0.26670631
0.26949054
0.25612747
0.22062929
0.20880788
0.21213907
0.25211436
0.28612562
0.30431454
0.30135295
0.27060824
0.24601173
0.21710908
0.20077321
0.22246491
0.25025486
0.25711594
0.25893663
0.25676222
0.22569393
0.18957027
0.17974801
0.17354838
0.16434749
0.15412829
0.14483263
0.13652928
0.13088643
0.12468443
0.11696981
0.10600899
0.092106672
0.066138466
0.04467861
0.27110513
0.26170546
0.25959339
0.2668868
0.26975148
0.25662769
0.22113932
0.2092035
0.2124214
0.25214807
0.28613055
0.30443358
0.30164073
0.27092994
0.24597617
0.2170824
0.20094151
0.22276193
0.25051465
0.25736733
0.25923446
0.25733018
0.22669834
0.1901188
0.17999441
0.173685
0.16432212
0.15396396
0.14460665
0.13623257
0.13058053
0.1243926
0.11667114
0.10564259
0.091711046
0.064887919
0.042664616
0.2713685
0.26190275
0.25976231
0.26707696
0.27002819
0.2571587
0.22168633
0.20962732
0.21272393
0.25218185
0.28612983
0.30455403
0.30194436
0.27129533
0.24593434
0.21705703
0.20112418
0.22307809
0.25079003
0.2576326
0.25954978
0.25793153
0.22777077
0.19071588
0.18025842
0.17383088
0.16430163
0.15378843
0.14436562
0.13592137
0.13025515
0.12407772
0.11634575
0.10524182
0.091262557
0.063807816
0.040556027
0.27164898
0.26211334
0.25994162
0.26727687
0.27032078
0.25772188
0.22227332
0.21008236
0.21304902
0.25222377
0.28613184
0.30467861
0.30226405
0.27166904
0.24588252
0.2170316
0.20132238
0.22341498
0.25108174
0.2579124
0.25988362
0.25856778
0.22891621
0.19136649
0.18053836
0.17398491
0.1642891
0.15360383
0.14411053
0.13559655
0.12991001
0.12373846
0.11599157
0.10480396
0.09076654
0.062786743
0.038383996
0.27194775
0.26233816
0.26013197
0.26748712
0.27063088
0.25831928
0.22290373
0.21057144
0.2133981
0.25226801
0.28612886
0.30480554
0.30260194
0.27202669
0.24583075
0.21700882
0.20153755
0.22377324
0.25139072
0.25820728
0.26023698
0.25924054
0.23013954
0.19207653
0.18083194
0.17414501
0.16428802
0.15341321
0.14384282
0.13525925
0.129545
0.12337359
0.11560648
0.10432615
0.090217705
0.061797478
0.036177095
0.27226617
0.26257831
0.26033405
0.26770784
0.27095885
0.25895247
0.22358113
0.21109739
0.21377389
0.25232155
0.28612878
0.30493754
0.30295997
0.27236218
0.24577707
0.21698641
0.20177155
0.22415444
0.25171791
0.25851801
0.26061114
0.2599517
0.23144682
0.19285472
0.18113601
0.17430784
0.16430227
0.15322067
0.14356439
0.1349108
0.12916018
0.12298179
0.11518819
0.10380535
0.089611333
0.060794764
0.033985078
0.27260565
0.26283495
0.26054854
0.26793963
0.27130626
0.25962358
0.22430977
0.21166321
0.21417814
0.25238015
0.28612476
0.30507472
0.30334098
0.27268649
0.24572971
0.21696713
0.20202717
0.22455956
0.25206435
0.25884524
0.26100737
0.26070135
0.23284364
0.19371258
0.18144711
0.17446836
0.16433584
0.15303165
0.14327778
0.13455305
0.12875597
0.12256199
0.11473448
0.10323863
0.088943825
0.059752201
0.031847613
0.2729677
0.2631094
0.26077614
0.26818259
0.27167359
0.26033427
0.22509391
0.21227207
0.21461397
0.25244996
0.28612434
0.30522087
0.3037468
0.27300418
0.24568994
0.21695077
0.20230763
0.22499014
0.2524309
0.25918958
0.2614274
0.26149178
0.23433489
0.19466637
0.1817615
0.17461942
0.16439252
0.15285311
0.14298608
0.1341883
0.12833324
0.12211337
0.11424332
0.10262329
0.088212442
0.05866402
0.02982244
0.27335388
0.26340305
0.26101762
0.26843725
0.27206233
0.26108693
0.22593859
0.21292726
0.21508376
0.25252796
0.28612111
0.30537914
0.30418019
0.27332126
0.24565458
0.21694203
0.20261651
0.22544748
0.2528184
0.25955173
0.26187307
0.26232283
0.23592357
0.19573898
0.18207654
0.17475166
0.16447529
0.15269381
0.14269297
0.13381924
0.12789336
0.12163539
0.11371278
0.10195677
0.08741496
0.057542581
0.02795669
0.2737658
0.26371745
0.26127372
0.26870363
0.27247309
0.26188345
0.22684911
0.21363211
0.21559158
0.25261954
0.28612174
0.30555391
0.30464246
0.27364303
0.24562043
0.21693455
0.20295934
0.22593328
0.25322759
0.25993258
0.26234668
0.263195
0.23760913
0.19696332
0.1823908
0.17485345
0.16458549
0.15256469
0.14240292
0.13344912
0.12743834
0.12112804
0.11314137
0.10123709
0.086549925
0.05639478
0.026309048
0.27420515
0.26405425
0.26154534
0.26898207
0.27290733
0.26272612
0.22783165
0.21439034
0.21614074
0.25272224
0.28612008
0.3057504
0.30513511
0.27397193
0.24560101
0.21694124
0.20334017
0.22644893
0.25365938
0.26033338
0.26285111
0.26410737
0.23938402
0.19839496
0.18269874
0.17491135
0.16472173
0.15247913
0.14212128
0.13308168
0.12697093
0.12059191
0.11252812
0.10046292
0.085616728
0.05523722
0.0249261
0.27467366
0.26441518
0.26183346
0.26927242
0.27336572
0.26361686
0.22889318
0.21520682
0.21673587
0.25284042
0.28612143
0.30597085
0.3056576
0.27430721
0.24557808
0.21696481
0.20376551
0.22699596
0.25411524
0.26075589
0.26338979
0.26505823
0.24122769
0.20011052
0.18300362
0.17491051
0.16487858
0.15245311
0.14185474
0.13272133
0.1264947
0.12002839
0.11187277
0.099633853
0.084615932
0.054077992
0.023850956
0.27517311
0.26480177
0.26213884
0.26957481
0.27384964
0.26455796
0.23004099
0.21608664
0.21738072
0.25297087
0.28611935
0.30621844
0.30620931
0.27465392
0.24555634
0.21698676
0.20424451
0.227576
0.25459751
0.26120194
0.26396704
0.26604432
0.24310227
0.20221887
0.18332224
0.17483721
0.1650456
0.15250478
0.14161195
0.13237332
0.12601421
0.11943985
0.1111761
0.09875076
0.083550036
0.052938859
0.023102665
0.27570527
0.26521553
0.2624617
0.26988893
0.27435982
0.26555121
0.23128323
0.2170357
0.21808222
0.25311738
0.28611847
0.30649374
0.30678605
0.27500233
0.24555815
0.21702134
0.20478032
0.22819223
0.25510773
0.26167397
0.26458986
0.2670609
0.24492288
0.20487375
0.18369208
0.17468216
0.16520651
0.15265309
0.14140445
0.13204413
0.12553511
0.11882986
0.11044009
0.097816002
0.082423544
0.051855698
0.022693243
0.27627183
0.26565757
0.26280231
0.27021463
0.27489764
0.2665987
0.23262892
0.21806159
0.21884652
0.25327647
0.28611119
0.30679683
0.30738597
0.27532447
0.24557939
0.21710627
0.20537447
0.22884831
0.25564642
0.262175
0.26526711
0.26810062
0.24681477
0.20795171
0.18418694
0.17444786
0.16533967
0.15291448
0.14124824
0.131742
0.12506444
0.11820339
0.10966832
0.096833773
0.08124424
0.05086194
0.022637502
0.27687473
0.26612918
0.26316069
0.27055138
0.27546377
0.26770224
0.23408772
0.21917361
0.21968128
0.25345456
0.28610297
0.30712713
0.30800531
0.27561926
0.2455895
0.21721989
0.20602711
0.2295507
0.25621343
0.26270714
0.26600719
0.26914628
0.24877961
0.21144823
0.18494767
0.17416084
0.16542074
0.15329667
0.14116588
0.13147795
0.12461097
0.11756711
0.10886626
0.095810383
0.080023285
0.050018373
0.022934437
0.27751575
0.2666315
0.26353772
0.27089843
0.27605949
0.26886467
0.23566912
0.2203811
0.2205905
0.25364903
0.28608615
0.30748316
0.30864185
0.27588589
0.24559645
0.21728185
0.20675809
0.2303066
0.256807
0.2632682
0.2668128
0.27018249
0.25080766
0.21535399
0.18623532
0.17389886
0.1654293
0.15378891
0.14118902
0.13126735
0.12418575
0.11692973
0.10804167
0.094754432
0.078775522
0.049387668
0.023572777
0.27819697
0.26716584
0.26393344
0.27125474
0.27668554
0.27008704
0.23738259
0.22169283
0.22158178
0.25386817
0.28606882
0.30786888
0.30929221
0.27609895
0.24571189
0.21735045
0.20753903
0.23112842
0.25742344
0.26384743
0.26767446
0.27120916
0.25287974
0.21953825
0.18851146
0.17386079
0.16536959
0.15434926
0.1413602
0.13113277
0.12380295
0.11630244
0.10720507
0.093677645
0.077517803
0.049035236
0.024523075
0.27892048
0.26773297
0.2643478
0.27161904
0.27734303
0.27137271
0.23923734
0.22311601
0.22266251
0.25410665
0.2860425
0.30828927
0.30995893
0.2761805
0.24585585
0.21742302
0.20835759
0.23201931
0.25805675
0.26442792
0.26857496
0.27225073
0.25495702
0.2234117
0.19266986
0.17452331
0.16532262
0.1548948
0.14173115
0.13110898
0.12348111
0.11569952
0.10637022
0.092595004
0.076267037
0.049001278
0.025746094
0.27968842
0.26833318
0.2647805
0.27198955
0.27803261
0.27272384
0.24124327
0.2246601
0.22384479
0.25437119
0.28601089
0.30875017
0.31063717
0.27613415
0.24607583
0.21769539
0.20916333
0.23298407
0.25869996
0.26499726
0.26950756
0.27333793
0.25706414
0.22744514
0.19773918
0.1768325
0.16559
0.15531915
0.14235129
0.13125155
0.1232455
0.11513924
0.10555492
0.091525176
0.075039234
0.049290831
0.027202479
0.28050365
0.26896702
0.26523187
0.27236508
0.27875555
0.27414184
0.24341062
0.22634059
0.22514043
0.2546543
0.28595629
0.30924086
0.31132221
0.27598777
0.24623933
0.21805673
0.21001668
0.23400768
0.25934755
0.26555363
0.2704816
0.27445207
0.25916123
0.23145484
0.20324938
0.18154427
0.16688227
0.1556043
0.1432402
0.13165192
0.12313237
0.11464551
0.10478221
0.090491533
0.073849518
0.049885287
0.028860183
0.28136987
0.26963429
0.26570177
0.27274312
0.27951191
0.2756288
0.24574559
0.22817657
0.22656418
0.25496313
0.28587863
0.3097522
0.31199427
0.27583927
0.24649193
0.21869765
0.21092593
0.2351001
0.25999677
0.26609364
0.27149428
0.27556584
0.26127577
0.23553243
0.20918314
0.18733999
0.17027563
0.15613888
0.14436689
0.13246042
0.12319734
0.11425039
0.10408221
0.089523319
0.072715348
0.050762028
0.030693327
0.28229204
0.27033301
0.26618753
0.27311985
0.28030269
0.27719932
0.24823494
0.23017385
0.22811751
0.25528816
0.28576351
0.31027391
0.31265848
0.275711
0.2466832
0.21934375
0.21199006
0.23626604
0.26064918
0.26659941
0.27252817
0.27673309
0.26336232
0.23941625
0.21508978
0.1941765
0.17540067
0.15807698
0.14577827
0.13391048
0.12353345
0.11399892
0.10349498
0.088657736
0.071662035
0.051905283
0.032680224
0.28327742
0.27106179
0.26668646
0.27348749
0.28112774
0.27885687
0.25087652
0.23232999
0.22981124
0.25563624
0.28562081
0.31083125
0.31332796
0.27563125
0.24701356
0.22023767
0.21319056
0.23757634
0.26130479
0.26705099
0.27362604
0.27795236
0.26547107
0.24311505
0.22074882
0.20134388
0.18190636
0.16225392
0.14807526
0.1363067
0.12431284
0.1139591
0.10307597
0.0879438
0.070729607
0.053304239
0.034806729
0.28433672
0.27182139
0.26719544
0.27383498
0.2819894
0.28059928
0.25367812
0.23465741
0.23166063
0.25600282
0.28544356
0.31144475
0.31406386
0.27559995
0.24740106
0.22125572
0.21447312
0.23907768
0.26196715
0.26741603
0.27481197
0.27922859
0.26760418
0.24651027
0.22579293
0.20837969
0.18965849
0.16859784
0.15239937
0.13997039
0.12588757
0.11424594
0.10290694
0.087450399
0.069982146
0.05495294
0.037071239
0.28548619
0.27261756
0.26771232
0.27414444
0.28289309
0.28242025
0.25664791
0.23716517
0.23367952
0.25639826
0.28525085
0.31213328
0.31491688
0.27572545
0.24790087
0.22252101
0.21594875
0.24081185
0.2626321
0.26767777
0.27612362
0.28057653
0.26981266
0.24972762
0.23011178
0.21453066
0.19770071
0.17707495
0.15906092
0.14524881
0.12898505
0.11509045
0.10312217
0.087287032
0.069536387
0.056862149
0.039490053
0.28675004
0.27346424
0.26823506
0.27438897
0.28385229
0.28431178
0.25980314
0.23986191
0.23587114
0.25680488
0.2850394
0.31285423
0.31591775
0.27621755
0.2485219
0.22405903
0.21738744
0.24291032
0.26328441
0.26784304
0.27757116
0.28199323
0.27210063
0.25282928
0.23372566
0.21935485
0.20490872
0.18624223
0.16746289
0.15221127
0.13461448
0.1170587
0.10398677
0.087669133
0.069655774
0.059067988
0.042101362
0.28816258
0.27439325
0.26876582
0.27452624
0.28488846
0.28626287
0.26316799
0.24276064
0.23824195
0.25724206
0.28485963
0.31354958
0.31699205
0.27726044
0.2491734
0.22546064
0.21898202
0.24517245
0.2639015
0.26792165
0.27911803
0.28347983
0.27450523
0.25600275
0.23688645
0.22274358
0.21020403
0.19413247
0.17581599
0.15980644
0.14238672
0.12148102
0.10611603
0.08909922
0.07091358
0.061616764
0.044968766
0.28976795
0.27545321
0.26930559
0.27449415
0.28602594
0.28826542
0.26677122
0.24588464
0.24079591
0.25770301
0.28473248
0.31410352
0.31800498
0.27890681
0.25017453
0.22709145
0.22064634
0.24760006
0.26444943
0.26793348
0.28068051
0.28498189
0.27702575
0.25940662
0.24004953
0.22520341
0.21349629
0.19940343
0.18225997
0.16635356
0.15000516
0.12933806
0.11056339
0.092397016
0.073937103
0.064553908
0.04818074
0.29162186
0.27671802
0.26985774
0.27422
0.28727063
0.29031304
0.27063121
0.24922962
0.24352042
0.25818559
0.28454065
0.31462228
0.31892785
0.28115491
0.25122192
0.22810115
0.22249415
0.24996351
0.26487984
0.26795083
0.28211663
0.28646622
0.27963446
0.2631662
0.24384718
0.22801712
0.21600939
0.20260928
0.18677386
0.17177411
0.15646803
0.13746066
0.11729299
0.097603238
0.078588106
0.067976708
0.051851548
0.29375537
0.27827823
0.27036711
0.27366195
0.28859279
0.29240533
0.27477734
0.25284207
0.24643495
0.25865061
0.28420959
0.31520222
0.31990445
0.28364313
0.25270354
0.2292904
0.22488549
0.252074
0.26511966
0.26798331
0.28334897
0.28791459
0.28227701
0.26717848
0.24843488
0.23214466
0.21951449
0.20570761
0.19061795
0.17696234
0.16234332
0.14406922
0.12448843
0.10398966
0.084493962
0.072094099
0.056135096
0.29615751
0.28021141
0.27058477
0.27296772
0.28985419
0.29453695
0.27920121
0.25672005
0.24952696
0.25911091
0.28378043
0.31585731
0.32101591
0.28608827
0.25403232
0.23100614
0.22735618
0.25436371
0.26503063
0.26807557
0.28431519
0.28926363
0.28483539
0.27125805
0.25346437
0.23771142
0.22516131
0.21063648
0.19527854
0.18238659
0.16828506
0.15066749
0.13147049
0.11130894
0.091649508
0.077252931
0.061223412
0.29865142
0.28247891
0.27048872
0.27235692
0.29093954
0.29669584
0.28390584
0.26089124
0.25280703
0.25954582
0.28332617
0.31646289
0.32223265
0.28921778
0.25567128
0.23233529
0.22968804
0.25675648
0.26463261
0.26833668
0.28497815
0.29043197
0.28724401
0.275288
0.25828912
0.24344573
0.23211702
0.21774262
0.20161454
0.18842414
0.17425252
0.15718212
0.13837486
0.11902376
0.10004982
0.083937161
0.067330182
0.30077654
0.28488171
0.27047723
0.27199495
0.29172367
0.29891444
0.28885177
0.2652762
0.25619866
0.25985573
0.283103
0.316963
0.32351659
0.29224719
0.25774638
0.23326067
0.23309878
0.25840911
0.26402694
0.26890345
0.28527966
0.2912885
0.28935775
0.27915884
0.26285219
0.24828445
0.23812389
0.2249185
0.20887644
0.19539736
0.18120397
0.16447324
0.14518936
0.12632465
0.10875867
0.092509459
0.074823927
0.30226248
0.28725987
0.27125748
0.27177746
0.29203077
0.3012464
0.29403425
0.2699103
0.25960395
0.25963489
0.28341914
0.31723373
0.32461909
0.29469695
0.25987859
0.23585236
0.23712669
0.25964466
0.26304044
0.26985601
0.28526208
0.29182983
0.29113568
0.28275814
0.26742652
0.25249674
0.24246573
0.23048104
0.21526861
0.20186436
0.18815038
0.17241312
0.15302936
0.13380607
0.11665998
0.10174483
0.084041482
0.30343397
0.28976872
0.2728662
0.27208458
0.29169588
0.30365487
0.29940122
0.27477374
0.26271708
0.25898484
0.28412256
0.31725006
0.32558951
0.29705322
0.26147195
0.24036831
0.24162607
0.26044433
0.26169958
0.2710481
0.28504005
0.29193017
0.29254481
0.28584255
0.27247604
0.25769393
0.24717241
0.23594335
0.22191912
0.20845799
0.19493292
0.17982735
0.16125011
0.14253104
0.1249768
0.10979307
0.093857064
0.30418832
0.2927001
0.27527944
0.2730799
0.29037735
0.30599113
0.30493802
0.27997092
0.26421517
0.25827455
0.28461846
0.31715963
0.32711439
0.30017638
0.2637646
0.24758838
0.2481064
0.2603553
0.26122343
0.27183424
0.28496992
0.2915226
0.29336559
0.28797582
0.27713546
0.26369469
0.25321347
0.24233494
0.22966292
0.21626416
0.20296805
0.18778101
0.16944892
0.15148493
0.13430881
0.11845422
0.10303764
0.3044074
0.29564457
0.27767841
0.27386402
0.28954541
0.30702919
0.30890412
0.28585441
0.26396825
0.2577822
0.28493195
0.31667294
0.32927523
0.30577004
0.26969669
0.25649819
0.25339918
0.25950299
0.26135048
0.27245544
0.28451461
0.29122751
0.29367535
0.28944153
0.28036202
0.26875319
0.25916554
0.24850208
0.23706498
0.22440395
0.21185931
0.19708423
0.17902845
0.16082662
0.14412016
0.12839953
0.11297126
0.30410584
0.29689368
0.27940323
0.27459879
0.28909602
0.30716463
0.31074118
0.29156129
0.26401791
0.25814716
0.2852478
0.31559985
0.33021757
0.31233688
0.2776641
0.2650965
0.25815121
0.25866634
0.26180815
0.27344058
0.28332092
0.29149934
0.29351053
0.29074799
0.28255327
0.27237062
0.26395287
0.25396022
0.24347048
0.23188794
0.22047656
0.20675811
0.18975391
0.17184719
0.154765
0.13859962
0.1237231
0.30313089
0.2968716
0.28066241
0.27534377
0.28867637
0.30665603
0.3111605
0.29547905
0.26666686
0.25981788
0.2850135
0.31523907
0.33049293
0.31985887
0.28678068
0.27144318
0.2608452
0.2580022
0.26310973
0.27344576
0.28289608
0.2908182
0.29286811
0.29158059
0.28438991
0.27587437
0.26795293
0.2592948
0.24966876
0.23928239
0.22895135
0.21644927
0.20048258
0.18355656
0.16713315
0.150862
0.13596903
0.30230134
0.29627187
0.28115953
0.27583883
0.28848503
0.30555304
0.31025524
0.29764031
0.2725207
0.26302813
0.28447818
0.31455431
0.32954019
0.32538317
0.29621865
0.27458928
0.26099894
0.25813998
0.26470353
0.27323799
0.28247999
0.28984783
0.29232286
0.29179207
0.28550087
0.27860581
0.27192754
0.26433095
0.25583056
0.24661784
0.23752479
0.2266794
0.21201605
0.19575677
0.17954982
0.16353929
0.14882957
0.30172034
0.29601362
0.28163654
0.27657875
0.28847554
0.30439979
0.30860716
0.2977921
0.27525844
0.26450794
0.28467536
0.31300137
0.32760974
0.32765395
0.30338748
0.27482283
0.25952407
0.25906384
0.26565214
0.27283553
0.28204916
0.28889781
0.29159753
0.2911684
0.28600123
0.27982432
0.27406022
0.26794273
0.26085606
0.25321327
0.24579267
0.23694436
0.22429772
0.20927792
0.19354555
0.17757335
0.16302053
0.30109479
0.29584956
0.2824985
0.27740642
0.28845756
0.30335235
0.30706153
0.2966887
0.27599157
0.26572816
0.28487168
0.31115365
0.32562361
0.32711436
0.30870303
0.27646083
0.25900621
0.25975311
0.26570537
0.27267039
0.28145465
0.28779271
0.29075755
0.29076844
0.28661912
0.2808314
0.2755648
0.27010747
0.26464377
0.25904526
0.25364477
0.2467929
0.23643062
0.22327814
0.20836751
0.19278932
0.17832314
0.3005146
0.29571077
0.28335545
0.27833953
0.2887453
0.30236459
0.30542433
0.29588024
0.2770393
0.26754135
0.28524998
0.30921569
0.32343071
0.32432469
0.31017293
0.28215285
0.26219787
0.26030678
0.26570901
0.27288271
0.28071328
0.28645647
0.28981185
0.29000623
0.28676387
0.28215049
0.27754125
0.27290529
0.2686762
0.26471643
0.26135844
0.25679838
0.24881702
0.23815
0.22461782
0.2097536
0.19537726
0.29989105
0.2955743
0.28422382
0.27929122
0.28884103
0.3015769
0.30434384
0.29530961
0.2779608
0.26932671
0.2850197
0.30783274
0.32059963
0.32123192
0.30874404
0.2852585
0.26587844
0.26188562
0.2667435
0.27305957
0.27985259
0.28505546
0.28846868
0.28888397
0.2863001
0.28250249
0.27848895
0.27458696
0.27128555
0.26872129
0.26722865
0.26528272
0.26040247
0.25253348
0.24148511
0.22789525
0.21402581
0.29943698
0.2955374
0.28489201
0.27996192
0.28858708
0.3003976
0.30307962
0.29509542
0.27930545
0.27094779
0.28504811
0.30611824
0.31812158
0.31804906
0.30603354
0.28522882
0.26782882
0.26397182
0.26763782
0.27340971
0.27907545
0.2841603
0.28723167
0.28783867
0.28601229
0.28297642
0.27960284
0.27655999
0.27427208
0.27255412
0.27237432
0.27257
0.27082138
0.26674324
0.25877186
0.24728101
0.23347898
0.29890917
0.29562856
0.28579488
0.28105085
0.28904513
0.29951816
0.30174215
0.29475162
0.28116677
0.2734947
0.28536715
0.30464423
0.31574423
0.31530103
0.30365567
0.28483831
0.27028639
0.26602009
0.26885997
0.27343972
0.27881222
0.28347475
0.28561054
0.28626318
0.28485451
0.28243997
0.27989291
0.27761815
0.27616784
0.27546482
0.27615731
0.27777492
0.27921949
0.27885754
0.27504331
0.26703153
0.25445127
0.29834463
0.29559754
0.28660808
0.2819385
0.28879378
0.29862586
0.30091181
0.29453104
0.28223119
0.2750696
0.28535004
0.30326572
0.3135954
0.31258642
0.30224235
0.28541243
0.27192681
0.26843112
0.2703262
0.27404477
0.27888109
0.28286442
0.28488972
0.28527286
0.28400695
0.28217271
0.28005639
0.27870467
0.27810148
0.27855737
0.28049336
0.28307303
0.28677854
0.28826398
0.28816067
0.28549689
0.27610468
0.29778826
0.29542687
0.28723648
0.28274208
0.28884169
0.29778271
0.29992234
0.2943106
0.28323938
0.27658608
0.28568377
0.301803
0.31105846
0.3104695
0.30116777
0.28628644
0.27414226
0.27033537
0.27203735
0.27483946
0.27893697
0.28253013
0.28422533
0.2845164
0.28351267
0.28168483
0.27993094
0.27914932
0.27888536
0.27981342
0.28240274
0.28585149
0.29045735
0.2955429
0.29821458
0.29963143
0.29648459
0.29731444
0.29535393
0.28800222
0.28366025
0.2890288
0.29711631
0.2991612
0.29437679
0.28486517
0.27890407
0.28630588
0.30057934
0.30900375
0.30810278
0.30022528
0.28747019
0.27669266
0.27266124
0.27309306
0.27577885
0.27945695
0.28249692
0.2839092
0.28420714
0.28345137
0.28179858
0.28026528
0.27963382
0.27954336
0.28072915
0.28356318
0.28762732
0.29286833
0.29839774
0.30391815
0.30787413
0.3091466
0.29687385
0.29536814
0.28898708
0.28478131
0.28917496
0.29625125
0.29816197
0.29406646
0.28575988
0.28016468
0.28619689
0.29933488
0.30726534
0.30600527
0.29889619
0.28852377
0.27870064
0.27436778
0.27455465
0.27631828
0.27997803
0.28264497
0.28387538
0.28416202
0.28380641
0.28253055
0.28126538
0.28071839
0.28075868
0.28189996
0.28438954
0.28825743
0.29386561
0.30016278
0.30596165
0.31117283
0.31482884
0.29636547
0.29520092
0.28975594
0.28574357
0.28915255
0.2954126
0.29724889
0.2938923
0.2867838
0.28191242
0.2868012
0.29792512
0.30489106
0.30437574
0.29812275
0.2885495
0.28054067
0.27638413
0.27561627
0.27745711
0.28018404
0.28297484
0.2841938
0.28451732
0.28440202
0.28360613
0.28270202
0.28214045
0.28236382
0.28350076
0.28565147
0.28887249
0.29332995
0.29914941
0.30538274
0.31129188
0.31585671
0.29593683
0.29510869
0.29050408
0.28680699
0.28954655
0.29499121
0.29666792
0.29391442
0.28789781
0.28370845
0.28767952
0.29730726
0.30328714
0.30248225
0.29716644
0.28912366
0.28181348
0.27802933
0.27716084
0.27812724
0.28054318
0.28284144
0.28415515
0.28458703
0.28461253
0.28421368
0.28387516
0.2834941
0.28387157
0.28514321
0.28716392
0.29019495
0.29389971
0.29866874
0.30361428
0.30871952
0.31341604
0.2956124
0.29499023
0.29109391
0.28762577
0.28971418
0.29444125
0.29597157
0.29381591
0.28858796
0.2847396
0.28791593
0.29631233
0.30163608
0.30095747
0.29654487
0.28987892
0.28332711
0.27974181
0.27890249
0.27929633
0.28093177
0.2828235
0.28398689
0.28461849
0.28470893
0.28455506
0.284582
0.28468424
0.28530677
0.28645636
0.28822637
0.29074381
0.29387416
0.29775624
0.30210583
0.30622765
0.3101151
0.29533862
0.29494667
0.29179657
0.28863533
0.29006495
0.29390873
0.29525596
0.29365401
0.28944278
0.28628368
0.28868203
0.29543883
0.29993699
0.29950211
0.29569198
0.29011595
0.28484832
0.28154207
0.28031309
0.28068686
0.28194335
0.28320314
0.28426095
0.28477376
0.28500053
0.28510279
0.28513644
0.28549797
0.28622001
0.28746931
0.28928012
0.29165394
0.294483
0.29747122
0.30082947
0.30416113
0.30713184
0.29489393
0.29240211
0.28960993
0.29042351
0.29338959
0.29454361
0.29344105
0.29010015
0.28741916
0.28920556
0.29470024
0.29852876
0.29824781
0.29494576
0.29013621
0.28571974
0.28292288
0.28162324
0.28168101
0.28264808
0.28380317
0.28481171
0.28534154
0.2856847
0.28583145
0.28594562
0.28628504
0.28691929
0.28813012
0.28977574
0.29178558
0.29432866
0.2970578
0.29991441
0.3025897
0.30490333
0.29474744
0.29254867
0.2901612
0.29073911
0.29320622
0.29417254
0.29335785
0.29062038
0.28839693
0.28982243
0.29417262
0.29721329
0.2970143
0.29438569
0.29052489
0.28681336
0.28423649
0.28284889
0.28256676
0.28317992
0.28417709
0.28503961
0.28561464
0.28597352
0.28619087
0.286527
0.28703986
0.28780584
0.28901532
0.29038249
0.29215215
0.29416375
0.29653407
0.29867132
0.300813
0.30279991
0.29476636
0.29285214
0.2909591
0.2913946
0.29312058
0.293817
0.29333648
0.29136049
0.28948495
0.29037454
0.29367256
0.29610732
0.29602311
0.29402283
0.29089295
0.28771665
0.28544952
0.28424083
0.28380842
0.28415903
0.28499911
0.28551575
0.28593862
0.28638881
0.28666386
0.28719624
0.28770335
0.28855444
0.28961945
0.29086229
0.2924542
0.29408549
0.29597832
0.29777969
0.29940384
0.30086718
0.29478088
0.29292563
0.29136692
0.29175415
0.29302702
0.29354957
0.29319703
0.29164918
0.29016864
0.290824
0.29324814
0.29513904
0.29524142
0.29346618
0.29077413
0.2883688
0.28640172
0.28516084
0.28477948
0.2850462
0.28555258
0.28605027
0.28663097
0.28696506
0.2874155
0.28786622
0.28834235
0.28910247
0.28998802
0.29122993
0.29255434
0.2940421
0.29545183
0.2969484
0.29834451
0.29945119
0.29485602
0.29313992
0.29183923
0.29222149
0.29314115
0.29349452
0.29329291
0.29214655
0.2908356
0.29110873
0.29298264
0.29456594
0.29465519
0.29319169
0.29114756
0.28916675
0.28744439
0.28635548
0.2858275
0.28588852
0.28627264
0.28665014
0.28709347
0.28746181
0.28779956
0.28830427
0.2889769
0.28968544
0.29057122
0.29160449
0.29273082
0.29392323
0.29513765
0.29626972
0.29727513
0.29829315
0.29483709
0.29326294
0.29222041
0.29260315
0.293279
0.29351431
0.29328833
0.29236214
0.29143141
0.29165773
0.29278762
0.29388242
0.29398482
0.29293776
0.29132867
0.28952625
0.28813996
0.28723399
0.28672388
0.28668402
0.28698843
0.28734383
0.28777346
0.28808526
0.28845932
0.28894766
0.28945145
0.29014277
0.29090229
0.29180235
0.29280032
0.29380085
0.29478874
0.29568843
0.2964928
0.29721761
0.2950003
0.29364034
0.29272257
0.29290694
0.29346455
0.2936538
0.29339759
0.29265958
0.29188641
0.2918501
0.29270689
0.29353048
0.29352012
0.2927151
0.29155439
0.29016778
0.28902485
0.28810505
0.28777519
0.28769014
0.28776416
0.28795936
0.28832017
0.28859304
0.28892401
0.28939086
0.28996863
0.29061454
0.29129476
0.29200198
0.29281222
0.29363039
0.2944257
0.29516632
0.295788
0.29640294
0.29510086
0.29396585
0.29312541
0.29312491
0.29357489
0.29369669
0.29339101
0.2928445
0.29234835
0.29229825
0.29274951
0.29319113
0.29321907
0.29274088
0.29180767
0.29062017
0.28964182
0.28891014
0.28858922
0.28835961
0.28844768
0.28862265
0.28887597
0.28916717
0.28951883
0.28987074
0.2903759
0.29095738
0.29155798
0.29220162
0.29282559
0.2934873
0.29411698
0.29471368
0.29524148
0.29570828
0.29529362
0.2944145
0.29357491
0.29343698
0.29380389
0.29388789
0.29357257
0.29316329
0.29267409
0.29251521
0.29279329
0.29304151
0.29306503
0.29271465
0.29204041
0.29113685
0.29032429
0.28965471
0.28929182
0.28912804
0.28913634
0.28918135
0.28940989
0.28966551
0.29001983
0.29041754
0.29084383
0.29133317
0.2918493
0.29236982
0.29293551
0.29345969
0.29393486