/*--------------------------------*- C++ -*----------------------------------*\
| =========                 |                                                 |
| \\      /  F ield         | OpenFOAM: The Open Source CFD Toolbox           |
|  \\    /   O peration     | Version:  2506                                  |
|   \\  /    A nd           | Website:  www.openfoam.com                      |
|    \\/     M anipulation  |                                                 |
\*---------------------------------------------------------------------------*/
FoamFile
{
    version     2.0;
    format      ascii;
    arch        "LSB;label=32;scalar=64";
    class       volScalarField;
    location    "0.007";
    object      alphat;
}
// * * * * * * * * * * * * * * * * * * * * * * * * * * * * * * * * * * * * * //

dimensions      [1 -1 -1 0 0 0 0];

internalField   nonuniform List<scalar> 
13761
(
3.2506211e-06
3.3327847e-06
3.4184226e-06
2.9188601e-06
2.9766361e-06
3.038265e-06
3.1045362e-06
3.1762534e-06
3.2536123e-06
3.3345823e-06
3.4200552e-06
3.509326e-06
2.777434e-06
2.8215303e-06
2.869977e-06
2.9236791e-06
2.9810567e-06
3.0422543e-06
3.1084146e-06
3.1800319e-06
3.2558762e-06
3.3361811e-06
3.4213529e-06
3.5116743e-06
3.6029923e-06
2.6459661e-06
2.6742487e-06
2.7061617e-06
2.7423762e-06
2.7827272e-06
2.8265998e-06
2.875029e-06
2.9277344e-06
2.9844441e-06
3.0454495e-06
3.111676e-06
3.1829792e-06
3.2585996e-06
3.338482e-06
3.4237812e-06
3.5142267e-06
3.6071469e-06
2.5855849e-06
2.6039041e-06
2.6257333e-06
2.6512875e-06
2.679741e-06
2.7118503e-06
2.7480152e-06
2.7872168e-06
2.8307129e-06
2.8792085e-06
2.9320929e-06
2.9885976e-06
3.0495957e-06
3.1158997e-06
3.1868426e-06
3.2617962e-06
3.3417088e-06
3.4274782e-06
3.5174026e-06
3.6085706e-06
3.6966466e-06
2.5512381e-06
2.5616256e-06
2.5745218e-06
2.5902483e-06
2.6090443e-06
2.6312418e-06
2.6559097e-06
2.6841081e-06
2.7164554e-06
2.7523757e-06
2.7918223e-06
2.8357034e-06
2.884229e-06
2.9364233e-06
2.99253e-06
3.0538365e-06
3.1204776e-06
3.1913415e-06
3.2660906e-06
3.3458828e-06
3.4311201e-06
3.5204897e-06
3.6101922e-06
3.6982292e-06
3.7814168e-06
2.5362736e-06
2.5407004e-06
2.5470141e-06
2.5553539e-06
2.5658871e-06
2.5790755e-06
2.5947918e-06
2.6136169e-06
2.63563e-06
2.6607546e-06
2.6894545e-06
2.7219269e-06
2.7574961e-06
2.7967189e-06
2.8406875e-06
2.8889153e-06
2.9408247e-06
2.9973493e-06
3.0593121e-06
3.1257949e-06
3.1955542e-06
3.2693779e-06
3.3487398e-06
3.4336327e-06
3.5216147e-06
3.6119684e-06
3.7007765e-06
3.7839999e-06
3.8584336e-06
2.5343753e-06
2.5352945e-06
2.5372974e-06
2.5404121e-06
2.5449999e-06
2.5514753e-06
2.5598305e-06
2.570476e-06
2.5836223e-06
2.5995934e-06
2.6188527e-06
2.6407508e-06
2.6657151e-06
2.6945767e-06
2.7267884e-06
2.7621152e-06
2.8017196e-06
2.8458951e-06
2.893811e-06
2.9456212e-06
3.0025391e-06
3.0644411e-06
3.1298094e-06
3.1985385e-06
3.2722272e-06
3.3520033e-06
3.4368457e-06
3.5252046e-06
3.6143288e-06
3.7024725e-06
3.7869982e-06
3.86154e-06
3.9251065e-06
2.5355166e-06
2.5362167e-06
2.5371759e-06
2.5379885e-06
2.5392342e-06
2.5413236e-06
2.5444623e-06
2.5492504e-06
2.5558395e-06
2.5642347e-06
2.5749815e-06
2.5883017e-06
2.6044594e-06
2.6232768e-06
2.6450967e-06
2.6707172e-06
2.6998414e-06
2.7316818e-06
2.7671584e-06
2.8072001e-06
2.8512031e-06
2.8986168e-06
2.9505611e-06
3.0077358e-06
3.0689737e-06
3.1333617e-06
3.2020389e-06
3.2764749e-06
3.3564688e-06
3.4404958e-06
3.5270477e-06
3.6161264e-06
3.7058918e-06
3.790412e-06
3.8647274e-06
3.9268606e-06
2.5428623e-06
2.5393761e-06
2.5375812e-06
2.5383737e-06
2.5395296e-06
2.5406226e-06
2.5415689e-06
2.5429928e-06
2.5451525e-06
2.5484543e-06
2.5534476e-06
2.5600659e-06
2.5685607e-06
2.579471e-06
2.593027e-06
2.6092592e-06
2.627943e-06
2.6501758e-06
2.6761148e-06
2.7046434e-06
2.7363493e-06
2.7724514e-06
2.8127597e-06
2.856213e-06
2.9034384e-06
2.9557737e-06
3.0128134e-06
3.0731892e-06
3.1372481e-06
3.2065208e-06
3.2813879e-06
3.3605892e-06
3.4431219e-06
3.5296137e-06
3.6194606e-06
3.7091191e-06
3.7932836e-06
3.866341e-06
3.9283661e-06
3.9859689e-06
2.5536213e-06
2.5452196e-06
2.5466209e-06
2.5494211e-06
2.5459628e-06
2.5423458e-06
2.5405809e-06
2.541546e-06
2.5426925e-06
2.5438803e-06
2.5450733e-06
2.5466496e-06
2.5488855e-06
2.5524023e-06
2.5575446e-06
2.5642245e-06
2.5729267e-06
2.5840304e-06
2.5977362e-06
2.6136394e-06
2.6327079e-06
2.6554578e-06
2.6809817e-06
2.7092001e-06
2.7414934e-06
2.7781569e-06
2.8180295e-06
2.8609779e-06
2.9086228e-06
2.9613288e-06
3.0177203e-06
3.0773816e-06
3.1417157e-06
3.2115821e-06
3.2860457e-06
3.3640214e-06
3.4460823e-06
3.5327748e-06
3.6226553e-06
3.7117877e-06
3.7946096e-06
3.8669615e-06
3.9283232e-06
3.9855416e-06
2.6328384e-06
2.6291797e-06
2.6170373e-06
2.586997e-06
2.5567359e-06
2.5479304e-06
2.5490484e-06
2.5521287e-06
2.5487292e-06
2.5452202e-06
2.5434696e-06
2.5445479e-06
2.5458014e-06
2.5471475e-06
2.5485586e-06
2.5502168e-06
2.5525644e-06
2.5562885e-06
2.5615133e-06
2.5683135e-06
2.5772386e-06
2.5885048e-06
2.6020682e-06
2.6182302e-06
2.6378019e-06
2.6605901e-06
2.6855575e-06
2.7141593e-06
2.7470838e-06
2.7835302e-06
2.8226524e-06
2.8659122e-06
2.914275e-06
2.9666966e-06
3.0221497e-06
3.0818002e-06
3.146894e-06
3.2168442e-06
3.2901638e-06
3.3670289e-06
3.4488434e-06
3.5356829e-06
3.6250506e-06
3.7126241e-06
3.794001e-06
3.8656305e-06
3.9272411e-06
3.9847514e-06
4.0494782e-06
2.6504051e-06
2.6496514e-06
2.6459002e-06
2.6394758e-06
2.6369298e-06
2.6365269e-06
2.635984e-06
2.6325378e-06
2.6205039e-06
2.5906008e-06
2.5597313e-06
2.5504871e-06
2.5513821e-06
2.5546965e-06
2.5514104e-06
2.5479697e-06
2.5463364e-06
2.5474956e-06
2.548806e-06
2.5503534e-06
2.5519311e-06
2.5536607e-06
2.5561884e-06
2.5600862e-06
2.5653579e-06
2.5723496e-06
2.5814862e-06
2.5928694e-06
2.6064489e-06
2.6230468e-06
2.6429081e-06
2.6649769e-06
2.6903032e-06
2.7197082e-06
2.7527429e-06
2.7882327e-06
2.8273867e-06
2.8714903e-06
2.9199865e-06
2.9714407e-06
3.0266036e-06
3.0870392e-06
3.1525905e-06
3.2215469e-06
3.2934624e-06
3.3700051e-06
3.4522724e-06
3.5389312e-06
3.6268632e-06
3.7127121e-06
3.7929943e-06
3.8642572e-06
3.9254418e-06
3.9819396e-06
4.0459074e-06
2.6446941e-06
2.6968089e-06
2.7032671e-06
2.6709319e-06
2.6476661e-06
2.6491523e-06
2.6576864e-06
2.6574294e-06
2.6542807e-06
2.6533171e-06
2.6525509e-06
2.648785e-06
2.6422109e-06
2.6395546e-06
2.6392337e-06
2.6385359e-06
2.6351242e-06
2.6233529e-06
2.5938423e-06
2.5624903e-06
2.5530271e-06
2.5537612e-06
2.5572288e-06
2.5540424e-06
2.5507432e-06
2.5491589e-06
2.5503862e-06
2.5518049e-06
2.5535504e-06
2.5552237e-06
2.5570625e-06
2.5597945e-06
2.5637827e-06
2.5691253e-06
2.5763396e-06
2.5856631e-06
2.5971405e-06
2.6109719e-06
2.6277753e-06
2.6471917e-06
2.6695851e-06
2.6955674e-06
2.7253091e-06
2.7575064e-06
2.792888e-06
2.8328089e-06
2.8773394e-06
2.9249505e-06
2.9758327e-06
3.0316907e-06
3.0928802e-06
3.1577605e-06
3.2251595e-06
3.2965326e-06
3.3736272e-06
3.4560431e-06
3.541503e-06
3.6277059e-06
3.7125207e-06
3.7924799e-06
3.8632027e-06
3.9231775e-06
3.9784057e-06
4.0413104e-06
2.2222871e-05
2.5438883e-06
2.580157e-06
2.5818495e-06
2.5814813e-06
2.5812805e-06
2.5812021e-06
2.581176e-06
2.5811683e-06
2.5811662e-06
2.5811656e-06
2.5811655e-06
2.5811654e-06
2.5811654e-06
2.5811654e-06
2.5811654e-06
2.5811654e-06
2.5811654e-06
2.5811654e-06
2.5811654e-06
2.5811656e-06
2.58118e-06
2.5813805e-06
2.5824811e-06
2.5865531e-06
2.5981127e-06
2.6252791e-06
2.6625096e-06
2.654736e-06
2.6213137e-06
2.605127e-06
2.6044989e-06
2.6066049e-06
2.6049811e-06
2.6015655e-06
2.5982321e-06
2.596566e-06
2.5974069e-06
2.6014388e-06
2.6137615e-06
2.6450911e-06
2.6973053e-06
2.705839e-06
2.6731901e-06
2.6496984e-06
2.6512726e-06
2.6600884e-06
2.6600097e-06
2.6569353e-06
2.6554897e-06
2.654653e-06
2.650873e-06
2.644209e-06
2.6415666e-06
2.6413964e-06
2.6408296e-06
2.6375877e-06
2.626156e-06
2.5969172e-06
2.5651508e-06
2.5554587e-06
2.5560294e-06
2.5596189e-06
2.5565816e-06
2.5533926e-06
2.5517972e-06
2.5531299e-06
2.5547655e-06
2.5566518e-06
2.5583956e-06
2.5604037e-06
2.5633056e-06
2.5673406e-06
2.5728376e-06
2.5802714e-06
2.5897283e-06
2.6012992e-06
2.6153718e-06
2.6322154e-06
2.6518642e-06
2.6746196e-06
2.7009716e-06
2.7299291e-06
2.7621133e-06
2.7982566e-06
2.8387491e-06
2.88257e-06
2.9294098e-06
2.980812e-06
3.0375638e-06
3.0983569e-06
3.1615727e-06
3.2282346e-06
3.3002945e-06
3.377973e-06
3.4595227e-06
3.5432344e-06
3.6284034e-06
3.7131998e-06
3.7931086e-06
3.8626909e-06
3.9204304e-06
3.9732833e-06
4.0352008e-06
2.2274998e-05
2.5437173e-06
2.5801689e-06
2.581853e-06
2.5814821e-06
2.581281e-06
2.5812023e-06
2.5811761e-06
2.5811683e-06
2.5811662e-06
2.5811656e-06
2.5811655e-06
2.5811654e-06
2.5811654e-06
2.5811654e-06
2.5811654e-06
2.5811654e-06
2.5811654e-06
2.5811654e-06
2.5811654e-06
2.5811656e-06
2.5811795e-06
2.5813759e-06
2.5824614e-06
2.5864947e-06
2.5979811e-06
2.6251675e-06
2.6628626e-06
2.6561973e-06
2.6223175e-06
2.6056994e-06
2.6050905e-06
2.6073033e-06
2.6057209e-06
2.6023344e-06
2.598987e-06
2.597428e-06
2.5982816e-06
2.6021998e-06
2.6144035e-06
2.6455606e-06
2.6979047e-06
2.7079579e-06
2.6749137e-06
2.6510189e-06
2.652616e-06
2.6616783e-06
2.6617737e-06
2.658763e-06
2.657356e-06
2.6565749e-06
2.6528989e-06
2.6462876e-06
2.6436928e-06
2.6436112e-06
2.6431453e-06
2.6400964e-06
2.6288899e-06
2.5997276e-06
2.5676139e-06
2.5577951e-06
2.5582557e-06
2.5619727e-06
2.5590922e-06
2.5559576e-06
2.5544146e-06
2.5559244e-06
2.5577172e-06
2.5596857e-06
2.5615487e-06
2.5637376e-06
2.5667186e-06
2.5708231e-06
2.5765345e-06
2.584112e-06
2.5936561e-06
2.6053577e-06
2.6197258e-06
2.636888e-06
2.6567882e-06
2.6796671e-06
2.7053977e-06
2.7345905e-06
2.7673745e-06
2.8040017e-06
2.8440203e-06
2.8871366e-06
2.9344012e-06
2.9866675e-06
3.0432503e-06
3.102467e-06
3.1648315e-06
3.2321844e-06
3.3050708e-06
3.3821373e-06
3.4619055e-06
3.5444947e-06
3.6297619e-06
3.7147324e-06
3.7935779e-06
3.8607118e-06
3.9155597e-06
3.9665972e-06
4.0286067e-06
2.2319723e-05
2.5435715e-06
2.5801518e-06
2.5818537e-06
2.5814827e-06
2.5812814e-06
2.5812025e-06
2.5811762e-06
2.5811683e-06
2.5811662e-06
2.5811656e-06
2.5811655e-06
2.5811654e-06
2.5811654e-06
2.5811654e-06
2.5811654e-06
2.5811654e-06
2.5811654e-06
2.5811654e-06
2.5811654e-06
2.5811656e-06
2.5811792e-06
2.5813724e-06
2.5824469e-06
2.5864535e-06
2.5978935e-06
2.6251313e-06
2.663249e-06
2.6575428e-06
2.6232372e-06
2.6062598e-06
2.6056747e-06
2.6079849e-06
2.6064494e-06
2.6030791e-06
2.5997301e-06
2.5982792e-06
2.5991056e-06
2.6029054e-06
2.6149773e-06
2.646063e-06
2.6985884e-06
2.7099477e-06
2.6765924e-06
2.6524031e-06
2.654049e-06
2.6633532e-06
2.6636237e-06
2.6606664e-06
2.6592789e-06
2.6585215e-06
2.6549139e-06
2.6483265e-06
2.6457567e-06
2.6457534e-06
2.6454065e-06
2.6424935e-06
2.631367e-06
2.602254e-06
2.5699573e-06
2.5600351e-06
2.5603812e-06
2.5642187e-06
2.5614683e-06
2.5583985e-06
2.5569693e-06
2.5586005e-06
2.5604569e-06
2.5625622e-06
2.564656e-06
2.5669771e-06
2.5699793e-06
2.5742304e-06
2.5801562e-06
2.5878466e-06
2.5974882e-06
2.6094217e-06
2.624069e-06
2.6413018e-06
2.661093e-06
2.6839525e-06
2.7102432e-06
2.7398771e-06
2.7728076e-06
2.8090545e-06
2.8486254e-06
2.8922197e-06
2.9403549e-06
2.9926707e-06
3.0477814e-06
3.106045e-06
3.1690504e-06
3.2373338e-06
3.3097688e-06
3.3849579e-06
3.4634114e-06
3.5461925e-06
3.6319788e-06
3.7160927e-06
3.7922755e-06
3.8559942e-06
3.908336e-06
3.9589383e-06
4.0224335e-06
2.235687e-05
2.5434507e-06
2.580138e-06
2.5818542e-06
2.5814832e-06
2.5812817e-06
2.5812026e-06
2.5811762e-06
2.5811684e-06
2.5811662e-06
2.5811656e-06
2.5811655e-06
2.5811654e-06
2.5811654e-06
2.5811654e-06
2.5811654e-06
2.5811654e-06
2.5811654e-06
2.5811654e-06
2.5811654e-06
2.5811656e-06
2.5811789e-06
2.5813701e-06
2.5824375e-06
2.5864293e-06
2.5978498e-06
2.6251705e-06
2.6636864e-06
2.6587667e-06
2.6240694e-06
2.6068069e-06
2.6062508e-06
2.6086521e-06
2.6071674e-06
2.6037994e-06
2.600468e-06
2.5991091e-06
2.5998956e-06
2.6036017e-06
2.6156019e-06
2.6466986e-06
2.6994321e-06
2.7118341e-06
2.6781961e-06
2.6537771e-06
2.6554807e-06
2.6650193e-06
2.6654238e-06
2.6624984e-06
2.661125e-06
2.6604139e-06
2.6568689e-06
2.6503196e-06
2.6477898e-06
2.6478666e-06
2.6476129e-06
2.64477e-06
2.6337215e-06
2.6046958e-06
2.572207e-06
2.5621334e-06
2.5624318e-06
2.5664234e-06
2.5637923e-06
2.5608041e-06
2.5594982e-06
2.561221e-06
2.5631778e-06
2.5654959e-06
2.5677388e-06
2.5701092e-06
2.573188e-06
2.5776427e-06
2.5836715e-06
2.5914505e-06
2.601246e-06
2.6134555e-06
2.6282104e-06
2.6453417e-06
2.6654173e-06
2.6887666e-06
2.7154082e-06
2.7449076e-06
2.77748e-06
2.813725e-06
2.8538825e-06
2.898035e-06
2.9460861e-06
2.9971925e-06
3.0516315e-06
3.1106266e-06
3.1745711e-06
3.2424238e-06
3.3129017e-06
3.3867035e-06
3.4654608e-06
3.5490595e-06
3.6343367e-06
3.7159161e-06
3.7884466e-06
3.8489536e-06
3.8998181e-06
3.9511709e-06
4.0165407e-06
2.2386475e-05
2.5433546e-06
2.580127e-06
2.5818547e-06
2.5814836e-06
2.5812819e-06
2.5812027e-06
2.5811762e-06
2.5811684e-06
2.5811662e-06
2.5811656e-06
2.5811655e-06
2.5811654e-06
2.5811654e-06
2.5811654e-06
2.5811654e-06
2.5811654e-06
2.5811654e-06
2.5811654e-06
2.5811654e-06
2.5811656e-06
2.5811788e-06
2.5813689e-06
2.582433e-06
2.5864218e-06
2.5978488e-06
2.62529e-06
2.6641867e-06
2.6598661e-06
2.6248136e-06
2.607341e-06
2.6068194e-06
2.6093079e-06
2.607874e-06
2.6044977e-06
2.601204e-06
2.5999044e-06
2.600642e-06
2.6043063e-06
2.6162649e-06
2.647468e-06
2.7004521e-06
2.7136162e-06
2.679734e-06
2.6551635e-06
2.6569297e-06
2.6666941e-06
2.6671886e-06
2.6642805e-06
2.6629185e-06
2.6622771e-06
2.6587774e-06
2.652265e-06
2.6497839e-06
2.6499275e-06
2.6497402e-06
2.6469414e-06
2.6359421e-06
2.6068836e-06
2.5741925e-06
2.5640607e-06
2.5644368e-06
2.5685534e-06
2.5659805e-06
2.5630859e-06
2.561908e-06
2.5637206e-06
2.5658294e-06
2.5682813e-06
2.5705778e-06
2.5730393e-06
2.5763541e-06
2.580955e-06
2.5870351e-06
2.5949031e-06
2.6049451e-06
2.6174243e-06
2.6322515e-06
2.6496025e-06
2.6700653e-06
2.6936259e-06
2.7198846e-06
2.7492483e-06
2.7823384e-06
2.8192653e-06
2.8597253e-06
2.903469e-06
2.9505239e-06
3.001344e-06
3.0566476e-06
3.1164994e-06
3.179935e-06
3.2458331e-06
3.3149988e-06
3.3892128e-06
3.4688921e-06
3.5520938e-06
3.6350059e-06
3.7133277e-06
3.7831182e-06
3.8418747e-06
3.8922185e-06
3.9441573e-06
2.2408585e-05
2.5432831e-06
2.5801188e-06
2.581855e-06
2.5814838e-06
2.581282e-06
2.5812028e-06
2.5811763e-06
2.5811684e-06
2.5811662e-06
2.5811656e-06
2.5811655e-06
2.5811654e-06
2.5811654e-06
2.5811654e-06
2.5811654e-06
2.5811654e-06
2.5811654e-06
2.5811654e-06
2.5811654e-06
2.5811656e-06
2.5811788e-06
2.5813688e-06
2.5824335e-06
2.586431e-06
2.5978929e-06
2.6254924e-06
2.6647558e-06
2.660835e-06
2.6254665e-06
2.60786e-06
2.6073794e-06
2.6099538e-06
2.6085657e-06
2.605177e-06
2.6019366e-06
2.60065e-06
2.6013505e-06
2.605014e-06
2.6170114e-06
2.6483514e-06
2.701655e-06
2.7152996e-06
2.6812167e-06
2.6565495e-06
2.6583904e-06
2.6683817e-06
2.668914e-06
2.6660043e-06
2.6646553e-06
2.6641046e-06
2.6606365e-06
2.6541575e-06
2.6517332e-06
2.6519318e-06
2.6517917e-06
2.649012e-06
2.6379888e-06
2.6088258e-06
2.5760384e-06
2.5659625e-06
2.566429e-06
2.5705893e-06
2.5680893e-06
2.5653408e-06
2.564272e-06
2.5661857e-06
2.56845e-06
2.5709931e-06
2.5733703e-06
2.5760058e-06
2.5794731e-06
2.5841217e-06
2.590235e-06
2.5983189e-06
2.60863e-06
2.6212349e-06
2.6360395e-06
2.6536366e-06
2.6741998e-06
2.6977176e-06
2.7241979e-06
2.7541062e-06
2.787768e-06
2.8245656e-06
2.8643845e-06
2.9076825e-06
2.955004e-06
3.006685e-06
3.0625664e-06
3.1216953e-06
3.1832515e-06
3.2481499e-06
3.317949e-06
3.3931652e-06
3.4725395e-06
3.5535075e-06
3.6335026e-06
3.7097185e-06
3.7781556e-06
3.8357454e-06
3.8850843e-06
3.9362856e-06
2.2423259e-05
2.5432359e-06
2.5801133e-06
2.5818552e-06
2.581484e-06
2.5812821e-06
2.5812028e-06
2.5811763e-06
2.5811684e-06
2.5811662e-06
2.5811656e-06
2.5811655e-06
2.5811654e-06
2.5811654e-06
2.5811654e-06
2.5811654e-06
2.5811654e-06
2.5811654e-06
2.5811654e-06
2.5811654e-06
2.5811656e-06
2.5811789e-06
2.5813698e-06
2.582439e-06
2.5864573e-06
2.5979816e-06
2.6257794e-06
2.6653995e-06
2.6616728e-06
2.6260263e-06
2.6083617e-06
2.6079295e-06
2.6105892e-06
2.609238e-06
2.6058366e-06
2.6026554e-06
2.601345e-06
2.6020229e-06
2.6057637e-06
2.6178315e-06
2.6493903e-06
2.7030324e-06
2.7168829e-06
2.6826557e-06
2.657943e-06
2.659856e-06
2.6700656e-06
2.6705994e-06
2.6676802e-06
2.6663593e-06
2.6658968e-06
2.6624467e-06
2.655996e-06
2.6536372e-06
2.6538811e-06
2.653767e-06
2.650976e-06
2.6398868e-06
2.6105706e-06
2.5777431e-06
2.5677262e-06
2.5682778e-06
2.5725011e-06
2.5701287e-06
2.5674844e-06
2.5664936e-06
2.56853e-06
2.5709416e-06
2.5735694e-06
2.5760543e-06
2.5788034e-06
2.5823196e-06
2.5870175e-06
2.5933864e-06
2.6017332e-06
2.6122204e-06
2.6247773e-06
2.6398799e-06
2.6578918e-06
2.678719e-06
2.7021101e-06
2.7286963e-06
2.7589061e-06
2.7922794e-06
2.8287848e-06
2.8688486e-06
2.9127867e-06
2.9607421e-06
3.0124894e-06
3.0673161e-06
3.124911e-06
3.1860883e-06
3.2518995e-06
3.3225797e-06
3.3972142e-06
3.4743344e-06
3.5529323e-06
3.631688e-06
3.7071023e-06
3.7739985e-06
3.8290523e-06
3.8756109e-06
2.243057e-05
2.5432127e-06
2.5801107e-06
2.5818552e-06
2.581484e-06
2.5812821e-06
2.5812028e-06
2.5811763e-06
2.5811684e-06
2.5811662e-06
2.5811656e-06
2.5811655e-06
2.5811654e-06
2.5811654e-06
2.5811654e-06
2.5811654e-06
2.5811654e-06
2.5811654e-06
2.5811654e-06
2.5811654e-06
2.5811656e-06
2.5811791e-06
2.5813719e-06
2.5824494e-06
2.5865005e-06
2.5981142e-06
2.6261499e-06
2.666109e-06
2.6623732e-06
2.6264909e-06
2.6088466e-06
2.6084706e-06
2.6112179e-06
2.6098924e-06
2.6064801e-06
2.6033543e-06
2.6019972e-06
2.6027084e-06
2.6065609e-06
2.6187777e-06
2.6505685e-06
2.7046143e-06
2.7183679e-06
2.6840433e-06
2.6593561e-06
2.6613406e-06
2.6717546e-06
2.6722412e-06
2.6692985e-06
2.6680345e-06
2.6676512e-06
2.6642192e-06
2.6577982e-06
2.6555006e-06
2.65577e-06
2.6556613e-06
2.6528385e-06
2.6416467e-06
2.612118e-06
2.5792854e-06
2.569373e-06
2.5701005e-06
2.5744235e-06
2.5721234e-06
2.5695255e-06
2.5686637e-06
2.5708745e-06
2.5734028e-06
2.5760971e-06
2.5786855e-06
2.5815199e-06
2.5850999e-06
2.5899716e-06
2.5965742e-06
2.6051209e-06
2.6155609e-06
2.6283249e-06
2.6437904e-06
2.6618731e-06
2.6824691e-06
2.7060473e-06
2.7329293e-06
2.7631629e-06
2.7966679e-06
2.8335553e-06
2.8740022e-06
2.9180351e-06
2.9655447e-06
3.0163807e-06
3.0704423e-06
3.1281965e-06
3.1902718e-06
3.2567183e-06
3.3266825e-06
3.3992843e-06
3.4746989e-06
3.5528749e-06
3.6314647e-06
3.7054688e-06
3.7691589e-06
3.8197928e-06
3.8627249e-06
2.2430634e-05
2.5432133e-06
2.5801108e-06
2.5818552e-06
2.5814839e-06
2.581282e-06
2.5812028e-06
2.5811763e-06
2.5811684e-06
2.5811662e-06
2.5811656e-06
2.5811655e-06
2.5811654e-06
2.5811654e-06
2.5811654e-06
2.5811654e-06
2.5811654e-06
2.5811654e-06
2.5811654e-06
2.5811654e-06
2.5811656e-06
2.5811794e-06
2.581375e-06
2.5824649e-06
2.5865611e-06
2.598296e-06
2.6266196e-06
2.6668975e-06
2.6629329e-06
2.6268571e-06
2.6093133e-06
2.6090002e-06
2.6118358e-06
2.6105221e-06
2.607105e-06
2.6040217e-06
2.6026402e-06
2.6034398e-06
2.6074518e-06
2.6198356e-06
2.6519256e-06
2.7063823e-06
2.7197497e-06
2.6853744e-06
2.6607694e-06
2.6628335e-06
2.6734569e-06
2.6738449e-06
2.6708693e-06
2.6696756e-06
2.6693512e-06
2.6659428e-06
2.6595653e-06
2.6573226e-06
2.6576038e-06
2.6574887e-06
2.654617e-06
2.6432783e-06
2.6134744e-06
2.5806991e-06
2.5709523e-06
2.571905e-06
2.5762652e-06
2.5739728e-06
2.5714633e-06
2.5707782e-06
2.5731259e-06
2.5757147e-06
2.5784821e-06
2.5811785e-06
2.5840742e-06
2.587747e-06
2.5928006e-06
2.5995579e-06
2.6080928e-06
2.6187761e-06
2.6319303e-06
2.647572e-06
2.6656212e-06
2.6864078e-06
2.7104267e-06
2.7377099e-06
2.7679405e-06
2.8012615e-06
2.8379993e-06
2.8782561e-06
2.9221239e-06
2.9695805e-06
3.0203976e-06
3.0746679e-06
3.1327719e-06
3.1947812e-06
3.2601013e-06
3.3283477e-06
3.4001247e-06
3.4759571e-06
3.5545341e-06
3.6319773e-06
3.7026269e-06
3.7616068e-06
3.8077658e-06
2.242355e-05
2.5432374e-06
2.5801136e-06
2.581855e-06
2.5814836e-06
2.5812819e-06
2.5812027e-06
2.5811762e-06
2.5811684e-06
2.5811662e-06
2.5811656e-06
2.5811655e-06
2.5811654e-06
2.5811654e-06
2.5811654e-06
2.5811654e-06
2.5811654e-06
2.5811654e-06
2.5811654e-06
2.5811654e-06
2.5811656e-06
2.5811798e-06
2.5813794e-06
2.5824854e-06
2.5866386e-06
2.5985199e-06
2.6271653e-06
2.6677552e-06
2.6633576e-06
2.6271333e-06
2.6097703e-06
2.609529e-06
2.6124564e-06
2.6111339e-06
2.6077072e-06
2.6046516e-06
2.6032949e-06
2.6042435e-06
2.608405e-06
2.6210099e-06
2.6534038e-06
2.7083436e-06
2.7210225e-06
2.6866171e-06
2.662172e-06
2.664333e-06
2.6751488e-06
2.6753965e-06
2.6724034e-06
2.6712758e-06
2.6709938e-06
2.6676171e-06
2.6613002e-06
2.6591049e-06
2.6593838e-06
2.6592509e-06
2.6563181e-06
2.6447898e-06
2.6146598e-06
2.5820097e-06
2.5724774e-06
2.5736866e-06
2.5780502e-06
2.5757999e-06
2.5734122e-06
2.572881e-06
2.5753163e-06
2.5779867e-06
2.5808709e-06
2.5836434e-06
2.5865789e-06
2.5903589e-06
2.595547e-06
2.6023744e-06
2.6111253e-06
2.6221447e-06
2.635507e-06
2.6511403e-06
2.669263e-06
2.6903943e-06
2.714535e-06
2.7417e-06
2.771959e-06
2.8053529e-06
2.8421356e-06
2.8826204e-06
2.9267889e-06
2.9742532e-06
3.0248935e-06
3.0790143e-06
3.13677e-06
3.1978474e-06
3.262061e-06
3.3299784e-06
3.4022688e-06
3.4783878e-06
3.5558232e-06
3.6302211e-06
3.6966297e-06
3.7515509e-06
2.2409399e-05
2.5432845e-06
2.580119e-06
2.5818547e-06
2.5814833e-06
2.5812817e-06
2.5812026e-06
2.5811762e-06
2.5811684e-06
2.5811662e-06
2.5811656e-06
2.5811655e-06
2.5811654e-06
2.5811654e-06
2.5811654e-06
2.5811654e-06
2.5811654e-06
2.5811654e-06
2.5811654e-06
2.5811654e-06
2.5811656e-06
2.5811803e-06
2.5813849e-06
2.5825112e-06
2.5867337e-06
2.5987903e-06
2.6278006e-06
2.6686865e-06
2.6636429e-06
2.6273194e-06
2.6102127e-06
2.6100451e-06
2.6130612e-06
2.6117287e-06
2.6082858e-06
2.6052465e-06
2.6039843e-06
2.6051102e-06
2.6094167e-06
2.6222426e-06
2.655036e-06
2.7104468e-06
2.7221701e-06
2.6877749e-06
2.6635316e-06
2.665807e-06
2.6768356e-06
2.6769042e-06
2.6738799e-06
2.6728114e-06
2.6725822e-06
2.6692471e-06
2.6629998e-06
2.6608521e-06
2.6611287e-06
2.6609745e-06
2.6579558e-06
2.646188e-06
2.615684e-06
2.5832197e-06
2.5739474e-06
2.5754442e-06
2.5797914e-06
2.5775717e-06
2.5752603e-06
2.57487e-06
2.5774094e-06
2.5801913e-06
2.5831507e-06
2.5859346e-06
2.5889138e-06
2.5928367e-06
2.5981509e-06
2.6051272e-06
2.6141298e-06
2.6253272e-06
2.6387174e-06
2.6544297e-06
2.6728904e-06
2.6942553e-06
2.7185743e-06
2.7458358e-06
2.7761524e-06
2.8097755e-06
2.8469301e-06
2.8874943e-06
2.9312258e-06
2.9781549e-06
3.0285626e-06
3.0826413e-06
3.1401416e-06
3.2007423e-06
3.2647181e-06
3.3327121e-06
3.404769e-06
3.4796006e-06
3.5545274e-06
3.6259025e-06
3.6892209e-06
2.2388304e-05
2.5433543e-06
2.5801271e-06
2.5818543e-06
2.5814829e-06
2.5812814e-06
2.5812025e-06
2.5811762e-06
2.5811683e-06
2.5811662e-06
2.5811656e-06
2.5811655e-06
2.5811654e-06
2.5811654e-06
2.5811654e-06
2.5811654e-06
2.5811654e-06
2.5811654e-06
2.5811654e-06
2.5811654e-06
2.5811656e-06
2.581181e-06
2.5813916e-06
2.5825422e-06
2.5868469e-06
2.5991082e-06
2.6285208e-06
2.6696786e-06
2.6637905e-06
2.6274198e-06
2.6106452e-06
2.610559e-06
2.6136632e-06
2.6123171e-06
2.608832e-06
2.6058105e-06
2.6046785e-06
2.6059536e-06
2.6104221e-06
2.6235114e-06
2.6568038e-06
2.7127234e-06
2.723165e-06
2.6888228e-06
2.6648657e-06
2.6672751e-06
2.6784992e-06
2.6783553e-06
2.6753074e-06
2.6743012e-06
2.6741338e-06
2.6708104e-06
2.6646312e-06
2.6625541e-06
2.662841e-06
2.6626712e-06
2.6595445e-06
2.6474895e-06
2.616566e-06
2.584366e-06
2.5753722e-06
2.5771765e-06
2.5814825e-06
2.5792727e-06
2.5770451e-06
2.5768205e-06
2.5794947e-06
2.582362e-06
2.5853488e-06
2.5881527e-06
2.5912361e-06
2.5952817e-06
2.6006825e-06
2.6078042e-06
2.6169648e-06
2.6282671e-06
2.6418008e-06
2.6578788e-06
2.6767351e-06
2.6983194e-06
2.7225326e-06
2.7496802e-06
2.780045e-06
2.8138405e-06
2.8510222e-06
2.8913653e-06
2.9349184e-06
2.9819349e-06
3.0325867e-06
3.0866741e-06
3.1437452e-06
3.2038405e-06
3.2674914e-06
3.3349955e-06
3.4060093e-06
3.4792974e-06
3.5525298e-06
3.6218615e-06
3.6823285e-06
2.2360399e-05
2.5434464e-06
2.5801378e-06
2.5818538e-06
2.5814823e-06
2.5812811e-06
2.5812023e-06
2.5811761e-06
2.5811683e-06
2.5811662e-06
2.5811656e-06
2.5811655e-06
2.5811654e-06
2.5811654e-06
2.5811654e-06
2.5811654e-06
2.5811654e-06
2.5811654e-06
2.5811654e-06
2.5811654e-06
2.5811656e-06
2.5811818e-06
2.5813996e-06
2.5825789e-06
2.5869786e-06
2.5994748e-06
2.6293277e-06
2.6707317e-06
2.6638027e-06
2.6274373e-06
2.6110649e-06
2.6110658e-06
2.6142501e-06
2.6128919e-06
2.6093456e-06
2.6063534e-06
2.6053519e-06
2.6067484e-06
2.6113675e-06
2.6247765e-06
2.6586577e-06
2.7151364e-06
2.7239929e-06
2.689761e-06
2.6661585e-06
2.6687358e-06
2.6801497e-06
2.6797617e-06
2.6766658e-06
2.6757443e-06
2.6756553e-06
2.6723272e-06
2.6662037e-06
2.6642087e-06
2.6645079e-06
2.6643125e-06
2.6610596e-06
2.6486849e-06
2.617301e-06
2.58545e-06
2.5767765e-06
2.5789198e-06
2.5831364e-06
2.5809185e-06
2.5787851e-06
2.5787101e-06
2.5814804e-06
2.5843901e-06
2.587393e-06
2.5902375e-06
2.5934089e-06
2.5975193e-06
2.6030216e-06
2.6103355e-06
2.619666e-06
2.6311189e-06
2.6449347e-06
2.6613201e-06
2.6802687e-06
2.7017896e-06
2.726173e-06
2.7536481e-06
2.7843872e-06
2.8182902e-06
2.8552246e-06
2.8953875e-06
2.9390486e-06
2.9862192e-06
3.0366497e-06
3.090011e-06
3.1463199e-06
3.2060209e-06
3.2694724e-06
3.3366325e-06
3.4069686e-06
3.4792205e-06
3.5507341e-06
3.617244e-06
2.2325831e-05
2.5435604e-06
2.5801508e-06
2.5818531e-06
2.5814817e-06
2.5812807e-06
2.5812022e-06
2.581176e-06
2.5811683e-06
2.5811662e-06
2.5811656e-06
2.5811655e-06
2.5811654e-06
2.5811654e-06
2.5811654e-06
2.5811654e-06
2.5811654e-06
2.5811654e-06
2.5811654e-06
2.5811654e-06
2.5811656e-06
2.5811827e-06
2.5814089e-06
2.5826212e-06
2.5871295e-06
2.5998913e-06
2.6302216e-06
2.6718341e-06
2.6636813e-06
2.627373e-06
2.6114725e-06
2.6115679e-06
2.6148208e-06
2.6134569e-06
2.6098357e-06
2.6068891e-06
2.6059679e-06
2.6074514e-06
2.6122362e-06
2.626021e-06
2.6606012e-06
2.7176728e-06
2.7245884e-06
2.6905631e-06
2.6674178e-06
2.6701667e-06
2.6817805e-06
2.6811397e-06
2.6779763e-06
2.6771607e-06
2.6771216e-06
2.673755e-06
2.6676888e-06
2.665817e-06
2.6661607e-06
2.6659345e-06
2.66252e-06
2.6497622e-06
2.6178709e-06
2.5864501e-06
2.5781372e-06
2.58067e-06
2.5847523e-06
2.5825316e-06
2.5804724e-06
2.5805221e-06
2.583391e-06
2.5863578e-06
2.5893826e-06
2.5922744e-06
2.5955093e-06
2.5997141e-06
2.6053552e-06
2.6127941e-06
2.6222167e-06
2.6338306e-06
2.6478602e-06
2.6643766e-06
2.6834506e-06
2.7052367e-06
2.7300289e-06
2.75789e-06
2.7886104e-06
2.8222228e-06
2.8590477e-06
2.8993639e-06
2.9431396e-06
2.9900589e-06
3.0399047e-06
3.0927383e-06
3.1488533e-06
3.208545e-06
3.2718478e-06
3.3385139e-06
3.4079456e-06
3.4785785e-06
3.5475374e-06
2.2284754e-05
2.5436958e-06
2.5801663e-06
2.5818524e-06
2.5814809e-06
2.5812802e-06
2.5812019e-06
2.581176e-06
2.5811683e-06
2.5811662e-06
2.5811656e-06
2.5811655e-06
2.5811654e-06
2.5811654e-06
2.5811654e-06
2.5811654e-06
2.5811654e-06
2.5811654e-06
2.5811654e-06
2.5811654e-06
2.5811656e-06
2.5811838e-06
2.5814196e-06
2.5826696e-06
2.5873003e-06
2.6003591e-06
2.6312025e-06
2.6729755e-06
2.6634313e-06
2.6272307e-06
2.6118729e-06
2.6120694e-06
2.615375e-06
2.6140063e-06
2.6103063e-06
2.6074156e-06
2.606502e-06
2.6080555e-06
2.6130258e-06
2.6272507e-06
2.6625831e-06
2.720305e-06
2.7249475e-06
2.6912339e-06
2.6686366e-06
2.6715809e-06
2.6833631e-06
2.6824556e-06
2.6792345e-06
2.6785531e-06
2.6785348e-06
2.6751047e-06
2.6690966e-06
2.6673668e-06
2.6677649e-06
2.6675123e-06
2.6639153e-06
2.6507242e-06
2.6182925e-06
2.5874013e-06
2.579435e-06
2.5823709e-06
2.5863067e-06
2.5841001e-06
2.5821069e-06
2.5822836e-06
2.5852479e-06
2.5882458e-06
2.591253e-06
2.5941282e-06
2.5974163e-06
2.6017295e-06
2.6075181e-06
2.6151145e-06
2.6247137e-06
2.6365331e-06
2.6507192e-06
2.6674508e-06
2.6868406e-06
2.7090015e-06
2.7339574e-06
2.7615924e-06
2.7921324e-06
2.8258985e-06
2.8631108e-06
2.9037588e-06
2.9473892e-06
2.9937958e-06
3.0432354e-06
3.0959356e-06
3.1520057e-06
3.2113928e-06
3.2738766e-06
3.3393559e-06
3.4072726e-06
3.476097e-06
2.2237335e-05
2.5438522e-06
2.580184e-06
2.5818516e-06
2.5814801e-06
2.5812797e-06
2.5812017e-06
2.5811759e-06
2.5811682e-06
2.5811662e-06
2.5811656e-06
2.5811655e-06
2.5811654e-06
2.5811654e-06
2.5811654e-06
2.5811654e-06
2.5811654e-06
2.5811654e-06
2.5811654e-06
2.5811654e-06
2.5811657e-06
2.5811852e-06
2.5814319e-06
2.5827243e-06
2.5874917e-06
2.6008799e-06
2.6322701e-06
2.6741426e-06
2.6630582e-06
2.627013e-06
2.6122659e-06
2.6125727e-06
2.6159159e-06
2.614537e-06
2.6107601e-06
2.6079295e-06
2.6069688e-06
2.6085679e-06
2.6137639e-06
2.6284501e-06
2.6646214e-06
2.7228567e-06
2.7252664e-06
2.6917119e-06
2.6697905e-06
2.6729892e-06
2.6849095e-06
2.6837026e-06
2.6804399e-06
2.6799008e-06
2.6798692e-06
2.6763567e-06
2.670435e-06
2.6688844e-06
2.6693407e-06
2.6690482e-06
2.6652413e-06
2.6515752e-06
2.6185724e-06
2.5882842e-06
2.5806535e-06
2.5840229e-06
2.5877679e-06
2.5855351e-06
2.5836199e-06
2.5839896e-06
2.5870154e-06
2.5900185e-06
2.5930252e-06
2.5959382e-06
2.5992952e-06
2.6037034e-06
2.6096575e-06
2.6174132e-06
2.6271419e-06
2.6390975e-06
2.6534806e-06
2.6704285e-06
2.6899751e-06
2.7122122e-06
2.7371901e-06
2.7649966e-06
2.7959312e-06
2.830214e-06
2.867721e-06
2.9080056e-06
2.9509809e-06
2.9970906e-06
3.0465582e-06
3.0992808e-06
3.1550921e-06
3.2137426e-06
3.2753187e-06
3.3398593e-06
3.4067533e-06
2.2183748e-05
2.5440292e-06
2.580204e-06
2.5818507e-06
2.5814792e-06
2.5812791e-06
2.5812014e-06
2.5811758e-06
2.5811682e-06
2.5811661e-06
2.5811656e-06
2.5811655e-06
2.5811654e-06
2.5811654e-06
2.5811654e-06
2.5811654e-06
2.5811654e-06
2.5811654e-06
2.5811654e-06
2.5811654e-06
2.5811657e-06
2.5811867e-06
2.5814458e-06
2.5827856e-06
2.5877044e-06
2.6014552e-06
2.6334236e-06
2.6753202e-06
2.6625686e-06
2.6267246e-06
2.6126522e-06
2.61308e-06
2.6164503e-06
2.6150437e-06
2.6112063e-06
2.6084342e-06
2.6073929e-06
2.6090279e-06
2.6144631e-06
2.6296664e-06
2.6666297e-06
2.7253793e-06
2.7255812e-06
2.6919319e-06
2.6709229e-06