/*--------------------------------*- C++ -*----------------------------------*\
| =========                 |                                                 |
| \\      /  F ield         | OpenFOAM: The Open Source CFD Toolbox           |
|  \\    /   O peration     | Version:  2506                                  |
|   \\  /    A nd           | Website:  www.openfoam.com                      |
|    \\/     M anipulation  |                                                 |
\*---------------------------------------------------------------------------*/
FoamFile
{
    version     2.0;
    format      ascii;
    arch        "LSB;label=32;scalar=64";
    class       volScalarField;
    location    "0.007";
    object      p;
}
// * * * * * * * * * * * * * * * * * * * * * * * * * * * * * * * * * * * * * //

dimensions      [1 -1 -2 0 0 0 0];

internalField   nonuniform List<scalar> 
13761
(
37160.929
36889.92
36629.376
38921.997
38611.739
38308.06
38011.823
37723.929
37445.196
37176.192
36917.311
36668.904
40139.707
39822.783
39508.371
39197.766
38892.288
38592.965
38300.666
38016.312
37740.748
37474.562
37218.148
36971.881
36736.086
41639.94
41334.331
41025.472
40714.614
40403.365
40093.1
39784.948
39480.217
39180.221
38885.974
38598.355
38318.3
38046.65
37783.989
37530.754
37287.354
37054.128
42735.045
42455.5
42168.684
41875.895
41578.577
41277.755
40974.69
40670.965
40367.89
40066.577
39768.34
39474.465
39185.945
38903.668
38628.585
38361.545
38103.133
37853.779
37613.915
37383.909
37163.965
43705.726
43462.096
43208.451
42945.844
42675.163
42397.162
42113.142
41824.454
41532.08
41237.299
40941.647
40646.355
40352.502
40061.383
39774.262
39492.106
39215.805
38946.323
38684.497
38430.912
38186.036
37950.323
37724.143
37507.704
37301.08
44530.857
44328.281
44114.465
43889.884
43655.021
43410.303
43156.726
42895.097
42626.171
42351.258
42071.601
41788.094
41502.009
41214.837
40927.742
40641.79
40358.28
40078.432
39803.181
39533.427
39270.14
39014.15
38766.026
38526.225
38295.224
38073.417
37861.021
37658.133
37464.813
45205.269
45044.345
44872.206
44688.924
44494.509
44289.12
44073.235
43847.222
43611.546
43367.172
43114.831
42855.237
42589.678
42319.279
42044.91
41767.867
41489.587
41211.162
40933.638
40658.283
40386.268
40118.488
39855.834
39599.272
39349.614
39107.428
38873.209
38647.447
38430.526
38222.668
38023.979
37834.524
37654.335
45737.651
45615.211
45482.62
45339.581
45185.89
45021.309
44845.898
44659.67
44462.728
44255.575
44038.476
43811.965
43576.917
43333.974
43083.845
42827.837
42566.976
42302.094
42034.46
41765.427
41496.014
41227.255
40960.42
40696.625
40436.737
40181.654
39932.339
39689.576
39453.901
39225.795
39005.765
38794.211
38591.357
38397.331
38212.234
38036.115
46145.666
46056.018
45958.043
45851.134
45734.875
45608.799
45472.607
45326.105
45169.046
45001.479
44823.419
44634.937
44436.539
44228.422
44011.12
43785.46
43552.03
43311.568
43065.321
42814.176
42558.955
42300.937
42041.408
41781.331
41521.741
41263.869
41008.769
40757.259
40510.225
40268.605
40033.147
39804.391
39582.853
39369.037
39163.321
38965.93
38777.001
38596.638
38424.899
38261.767
46512.051
46453.125
46388.975
46318.678
46241.632
46157.102
46064.576
45963.452
45853.311
45733.701
45604.304
45464.939
45315.357
45155.595
44985.67
44805.635
44615.978
44416.825
44208.753
43992.545
43768.713
43537.987
43301.566
43060.258
42814.906
42566.773
42317.047
42066.604
41816.461
41567.83
41321.703
41078.877
40840.25
40606.752
40379.091
40157.765
39943.267
39736.112
39536.682
39345.196
39161.808
38986.648
38819.793
38661.206
46770.471
46731.117
46687.688
46640.578
46589.82
46534.784
46474.767
46408.881
46336.546
46257.053
46169.886
46074.468
45970.365
45857.125
45734.463
45602.14
45459.979
45307.961
45146.104
44974.485
44793.511
44603.331
44404.51
44197.772
43983.531
43762.609
43536.136
43304.815
43069.481
42831.362
42591.558
42350.911
42110.458
41871.371
41634.57
41400.817
41170.993
40945.984
40726.444
40512.883
40305.828
40105.774
39913.07
39727.934
39550.524
39380.967
39219.335
39065.623
38919.764
46987.992
46960.951
46936.817
46914.842
46891.846
46865.653
46834.304
46797.837
46757.526
46713.794
46666.63
46615.436
46559.499
46497.972
46430.291
46355.776
46273.906
46184.122
46085.995
45979.043
45863.044
45737.694
45602.868
45458.532
45304.664
45141.401
44969.054
44787.803
44598.176
44400.854
44196.225
43985.158
43768.651
43547.32
43322.038
43094.036
42864.33
42633.702
42403.168
42173.843
41946.572
41722.101
41501.33
41285.12
41074.088
40868.707
40669.478
40476.895
40291.306
40112.918
39941.898
39778.394
39622.49
39474.163
39333.303
47173.175
47149.971
47126.249
47107.367
47090.462
47076.636
47072.014
47070.352
47059.336
47037.868
47012.457
46990.075
46970.321
46949.68
46926.035
46897.468
46863.86
46826.631
46786.235
46742.606
46695.175
46643.23
46585.974
46522.858
46453.228
46376.562
46292.311
46200.051
46099.292
45989.84
45871.375
45743.784
45607.035
45461.065
45306.067
45142.264
44969.856
44789.372
44601.452
44406.408
44205.149
43998.573
43787.282
43572.171
43354.398
43134.855
42914.297
42693.763
42474.324
42256.766
42041.824
41830.377
41623.224
41420.925
41223.966
41032.878
40848.126
40670.014
40498.752
40334.509
40177.425
40027.57
39884.938
39749.477
46930.572
47040.711
47010.263
46989.864
46978.186
46972.745
46970.828
46970.23
46970.06
46970.015
46970.004
46970.001
46970
46970
46970
46970
46970
46970
46970
46970.003
46970.081
46971.378
46981.392
47024.677
47168.535
47535.481
48278.67
49016.445
48448.837
47783.617
47523.33
47523.374
47515.088
47450.715
47386.686
47334.465
47296.833
47273.453
47250.205
47224.996
47203.241
47179.847
47156.627
47139.102
47124.542
47114.015
47113.205
47114.974
47106.651
47087.13
47063.395
47042.649
47025.018
47006.706
46985.554
46959.719
46928.948
46894.752
46857.663
46817.516
46773.796
46725.778
46672.738
46614.127
46549.316
46477.779
46398.98
46312.492
46217.845
46114.839
46003.171
45882.705
45753.451
45615.265
45468.432
45313.069
45149.421
44978.016
44799.381
44613.839
44422.351
44225.702
44024.432
43819.433
43611.825
43402.438
43192.03
42981.634
42772.234
42564.534
42359.263
42157.295
41959.39
41766.077
41577.819
41395.119
41218.429
41048.058
40884.2
40727.031
40576.702
40433.294
40296.79
40167.089
46930.539
47040.543
47010.292
46989.915
46978.22
46972.762
46970.836
46970.232
46970.061
46970.015
46970.004
46970.001
46970
46970
46970
46970
46970
46970
46970
46970.003
46970.078
46971.326
46981.078
47023.536
47165.696
47529.52
48277.382
49045.043
48494.751
47818.31
47543.803
47545.287
47543.578
47477.708
47412.839
47361.987
47327.775
47305.725
47281.005
47254.756
47232.661
47209.231
47186.567
47170.513
47158.592
47151.49
47154.144
47159.181
47153.57
47135.722
47113.662
47094.504
47079.017
47063.069
47044.361
47021.204
46993.268
46962.071
46928.245
46891.512
46851.417
46807.239
46758.327
46704.118
46644.025
46577.507
46504.047
46423.211
46334.558
46237.882
46132.879
46019.435
45897.53
45767.031
45628.22
45481.195
45326.185
45163.735
44994.271
44818.181
44636.394
44449.557
44258.221
44063.33
43865.941
43666.769
43466.544
43266.287
43066.909
42869.081
42673.545
42481.156
42292.607
42108.376
41928.94
41754.821
41586.432
41424.034
41267.825
41117.984
40974.651
40837.889
40707.678
40583.98
46930.51
47040.39
47010.318
46989.961
46978.25
46972.778
46970.842
46970.235
46970.062
46970.016
46970.004
46970.001
46970
46970
46970
46970
46970
46970
46970
46970.003
46970.075
46971.282
46980.817
47022.586
47163.41
47524.772
48277.656
49072.253
48538.945
47851.552
47564.079
47567.098
47571.535
47504.237
47438.464
47389.461
47358.709
47337.46
47311.398
47284.088
47261.642
47238.387
47216.32
47201.909
47192.862
47189.181
47194.978
47202.966
47199.909
47183.628
47163.243
47145.695
47132.245
47118.549
47102.213
47081.685
47056.578
47028.353
46997.731
46964.36
46927.819
46887.428
46842.573
46792.699
46737.249
46675.666
46607.457
46532.174
46449.41
46358.968
46260.51
46153.981
46039.28
45916.359
45785.43
45646.613
45500.114
45346.506
45186.102
45019.352
44847.123
44670
44488.546
44303.699
44116.408
43927.309
43737.179
43547.036
43357.714
43169.83
42984.12
42801.404
42622.309
42447.29
42276.815
42111.37
41951.353
41797.028
41648.583
41506.198
41370.016
41240.106
41116.45
40998.957
46930.484
47040.252
47010.34
46990.002
46978.277
46972.792
46970.848
46970.237
46970.062
46970.016
46970.004
46970.001
46970
46970
46970
46970
46970
46970
46970
46970.003
46970.073
46971.247
46980.606
47021.819
47161.668
47521.245
48279.469
49098.476
48581.266
47883.188
47584.134
47588.788
47598.912
47530.394
47463.523
47416.886
47389.27
47368.404
47341.261
47312.946
47290.432
47267.52
47246.073
47233.59
47227.631
47227.017
47235.799
47246.379
47245.609
47230.861
47212.04
47196.146
47184.62
47173.237
47159.305
47141.344
47119.044
47093.767
47066.3
47036.228
47003.159
46966.469
46925.568
46879.923
46829.003
46772.234
46709.152
46639.298
46562.302
46477.954
46385.91
46286.141
46178.514
46063.019
45939.827
45809.074
45670.941
45526.025
45374.51
45216.954
45054.162
44886.639
44714.941
44540.012
44362.729
44183.681
44003.663
43823.632
43644.309
43466.289
43290.327
43117.207
42947.503
42781.646
42620.117
42463.404
42311.858
42165.697
42025.112
41890.284
41761.345
41638.339
41521.23
41409.988
46930.462
47040.13
47010.358
46990.037
46978.3
46972.804
46970.853
46970.239
46970.063
46970.016
46970.004
46970.001
46970
46970
46970
46970
46970
46970
46970
46970.003
46970.071
46971.22
46980.442
47021.231
47160.46
47518.94
48282.928
49124.171
48621.566
47913.108
47603.931
47610.341
47625.814
47556.137
47487.94
47444.052
47419.025
47398.332
47370.459
47341.493
47319.291
47296.799
47276.056
47265.845
47263.064
47265.052
47276.505
47289.423
47290.582
47277.323
47259.98
47245.908
47236.193
47227.119
47215.47
47199.958
47180.439
47158.073
47133.711
47106.875
47077.215
47044.157
47007.132
46965.64
46919.166
46867.125
46809.076
46744.55
46673.217
46594.835
46509.09
46415.941
46315.252
46207.031
46091.437
45968.572
45838.671
45702.262
45559.494
45411.01
45257.503
45099.407
44937.313
44772.188
44604.784
44435.634
44265.55
44095.442
43925.98
43757.761
43591.536
43428.035
43267.755
43111.105
42958.551
42810.541
42667.404
42529.366
42396.61
42269.315
42147.607
42031.529
41921.063
46930.442
47040.022
47010.372
46990.067
46978.321
46972.814
46970.857
46970.24
46970.063
46970.016
46970.004
46970.001
46970
46970
46970
46970
46970
46970
46970
46970.003
46970.07
46971.2
46980.325
47020.817
47159.782
47517.867
48288.146
49149.692
48659.67
47941.206
47623.429
47631.742
47652.418
47581.337
47511.74
47470.676
47447.691
47427.244
47399.162
47370.106
47348.473
47326.396
47306.503
47298.988
47299.183
47303.361
47317.043
47332.036
47334.812
47322.977
47307.031
47294.886
47286.949
47280.132
47270.825
47257.798
47241.014
47221.471
47200.139
47176.484
47150.156
47120.641
47087.385
47049.935
47007.788
46960.348
46907.202
46847.872
46782.069
46709.505
46629.906
46543.224
46449.309
46348.201
46240.041
46124.888
46003.056
45874.962
45740.784
45601.174
45456.738
45307.889
45155.266
44999.785
44842.065
44682.655
44522.411
44362.17
44202.51
44044.005
43887.39
43733.328
43582.275
43434.645
43290.922
43151.538
43016.776
42886.819
42761.857
42642.067
42527.56
42418.355
42314.403
46930.424
47039.93
47010.383
46990.092
46978.337
46972.823
46970.861
46970.242
46970.064
46970.016
46970.004
46970.001
46970
46970
46970
46970
46970
46970
46970
46970.003
46970.069
46971.186
46980.252
47020.573
47159.629
47518.035
48295.15
49175.331
48695.404
47967.392
47642.605
47653
47678.873
47605.973
47535.042
47496.526
47475.274
47455.45
47427.988
47399.24
47378.142
47356.433
47337.709
47333.206
47335.929
47341.793
47357.354
47374.201
47378.276
47367.792
47353.203
47342.884
47336.823
47332.236
47325.338
47314.709
47300.562
47283.772
47265.369
47244.829
47221.74
47195.693
47166.131
47132.647
47094.737
47051.805
47003.467
46949.231
46888.841
46821.959
46748.372
46668.012
46580.717
46486.564
46385.659
46278.048
46164.105
46044.122
45918.351
45787.418
45651.884
45512.111
45368.769
45222.718
45074.498
44924.683
44774.105
44623.494
44473.379
44324.365
44177.186
44032.45
43890.56
43751.914
43616.966
43486.094
43359.559
43237.556
43120.268
43007.862
42900.435
42798
46930.407
47039.854
47010.391
46990.111
46978.35
46972.83
46970.864
46970.243
46970.064
46970.016
46970.004
46970.001
46970
46970
46970
46970
46970
46970
46970
46970.003
46970.069
46971.179
46980.224
47020.498
47159.996
47519.448
48304.056
49201.259
48728.566
47991.578
47661.437
47674.117
47705.252
47630.177
47557.95
47521.463
47502.009
47483.635
47457.619
47429.277
47408.405
47387.06
47369.968
47368.395
47373.197
47380.291
47397.323
47415.859
47420.978
47411.76
47398.478
47389.891
47385.772
47383.324
47378.794
47370.67
47359.316
47345.301
47329.665
47312.097
47292.135
47269.469
47243.517
47213.888
47180.09
47141.542
47097.877
47048.596
46993.468
46932.114
46864.385
46790.166
46709.328
46621.946
46528.108
46427.862
46321.6
46209.532
46091.97
45969.519
45842.656
45711.716
45577.445
45440.619
45301.678
45161.227
45020.081
44878.903
44738.2
44598.572
44460.705
44325.114
44192.157
44062.247
43935.846
43813.312
43694.858
43580.654
43470.891
43365.733
43265.257
43169.461
46930.392
47039.793
47010.396
46990.125
46978.36
46972.835
46970.866
46970.243
46970.064
46970.016
46970.004
46970.001
46970
46970
46970
46970
46970
46970
46970
46970.003
46970.069
46971.179
46980.239
47020.588
47160.887
47522.127
48314.957
49227.632
48759.053
48013.743
47679.944
47695.122
47731.568
47654.159
47580.519
47545.428
47528.246
47512.445
47488.456
47460.292
47439.284
47418.424
47403.331
47404.447
47410.782
47418.687
47436.915
47456.871
47462.843
47454.871
47442.828
47435.932
47433.744
47433.369
47431.222
47425.595
47416.96
47405.776
47392.85
47378.117
47361.141
47341.747
47319.324
47293.471
47263.702
47229.446
47190.35
47145.917
47095.926
47039.968
46977.952
46909.722
46835.173
46754.395
46667.432
46574.362
46475.568
46371.203
46261.639
46147.435
46028.995
45906.68
45781.283
45653.431
45523.536
45392.252
45260.35
45128.399
44996.857
44866.334
44737.479
44610.756
44486.516
44365.178
44247.161
44132.759
44022.173
43915.589
43813.191
43715.118
43621.423
46930.377
47039.747
47010.398
46990.134
46978.366
46972.838
46970.868
46970.244
46970.064
46970.016
46970.004
46970.001
46970
46970
46970
46970
46970
46970
46970
46970.003
46970.07
46971.185
46980.296
47020.845
47162.307
47526.083
48327.942
49254.444
48786.674
48033.837
47698.12
47716.015
47757.791
47678.075
47602.806
47568.434
47554.203
47542.096
47520.25
47491.943
47470.749
47450.652
47437.682
47441.025
47448.428
47456.821
47476.003
47497.117
47503.878
47497.046
47486.221
47481.008
47480.701
47482.435
47482.607
47479.41
47473.432
47465.212
47455.174
47443.204
47429.02
47412.718
47393.703
47371.531
47345.679
47315.595
47280.928
47241.195
47196.175
47145.461
47088.983
47026.568
46958.13
46883.757
46803.464
46717.374
46625.821
46528.953
46427.154
46320.97
46210.716
46096.815
45980.031
45860.873
45739.764
45617.384
45494.425
45371.381
45248.729
45127.093
45007.068
44889.04
44773.33
44660.349
44550.497
44444.036
44341.131
44241.951
44146.685
44055.464
46930.363
47039.717
47010.398
46990.137
46978.369
46972.84
46970.869
46970.244
46970.065
46970.016
46970.004
46970.001
46970
46970
46970
46970
46970
46970
46970
46970.003
46970.071
46971.198
46980.397
47021.268
47164.259
47531.336
48343.143
49282.032
48811.428
48051.849
47715.949
47736.703
47783.795
47701.862
47624.785
47590.533
47579.88
47572.075
47552.136
47523.703
47502.698
47483.697
47472.65
47477.729
47485.846
47494.555
47514.431
47536.512
47543.999
47538.233
47528.625
47525.125
47526.603
47530.511
47532.964
47532.201
47528.821
47523.377
47516.121
47507.042
47495.654
47482.259
47466.481
47447.871
47425.845
47399.854
47369.506
47334.365
47294.185
47248.58
47197.493
47140.724
47078.23
47010.079
46936.253
46856.947
46772.405
46682.807
46588.548
46490.131
46387.796
46282.045
46173.594
46062.856
45950.292
45836.566
45722.304
45607.954
45493.986
45381.002
45269.514
45159.843
45052.327
44947.397
44845.401
44746.548
44651.015
44558.997
44470.666
46930.35
47039.701
47010.394
46990.136
46978.368
46972.84
46970.869
46970.244
46970.065
46970.016
46970.004
46970.001
46970
46970
46970
46970
46970
46970
46970
46970.003
46970.072
46971.218
46980.541
47021.86
47166.749
47537.92
48360.269
49310.197
48833.259
48067.834
47733.51
47757.265
47809.605
47725.444
47646.388
47611.824
47604.989
47601.262
47583.091
47555.041
47534.947
47517.313
47507.706
47514.109
47522.716
47531.744
47552.09
47574.972
47583.142
47578.385
47569.999
47568.203
47571.544
47577.616
47582.307
47583.933
47583.077
47580.33
47575.804
47569.64
47561.263
47550.671
47537.907
47522.662
47504.334
47482.318
47456.157
47425.464
47389.955
47349.296
47303.422
47252.118
47195.382
47133.234
47065.683
46992.922
46915.174
46832.611
46745.654
46654.732
46560.06
46462.228
46361.841
46259.249
46154.935
46049.556
45943.666
45837.657
45732.01
45627.321
45524.035
45422.454
45322.933
45225.871
45131.563
45040.19
44951.899
44866.86
44785.23
46930.336
47039.701
47010.388
46990.13
46978.364
46972.838
46970.868
46970.244
46970.065
46970.016
46970.004
46970.001
46970
46970
46970
46970
46970
46970
46970
46970.003
46970.073
46971.245
46980.73
47022.624
47169.807
47546.035
48380.171
49339.031
48851.893
48081.621
47750.615
47777.507
47835.063
47748.641
47667.658
47632.537
47629.125
47628.546
47612.212
47585.558
47567.158
47550.997
47542.285
47549.739
47558.755
47568.227
47588.891
47612.414
47621.268
47617.425
47610.292
47610.234
47615.462
47623.764
47630.633
47634.658
47636.218
47636.131
47634.2
47630.697
47625.245
47617.685
47607.91
47595.816
47580.995
47562.825
47540.75
47514.398
47483.434
47447.588
47406.774
47360.771
47309.615
47253.274
47191.796
47125.371
47054.178
46978.416
46898.515
46814.808
46727.549
46637.351
46544.7
46449.933
46353.58
46256.26
46158.443
46060.504
45962.956
45866.346
45771.033
45677.28
45585.438
45495.882
45408.858
45324.52
45243.048
45164.64
46930.324
47039.715
47010.379
46990.118
46978.357
46972.835
46970.867
46970.244
46970.064
46970.016
46970.004
46970.001
46970
46970
46970
46970
46970
46970
46970
46970.003
46970.075
46971.278
46980.964
47023.559
47173.392
47555.336
48401.604
49368.621
48867.73
48093.539
47767.661
47797.677
47860.063
47771.218
47688.415
47652.856
47651.844
47653.257
47639.151
47614.977
47598.893
47584.014
47575.902
47584.312
47593.776
47603.754
47624.693
47648.76
47658.321
47655.292
47649.536
47651.168
47658.458
47668.912
47677.956
47684.334
47688.294
47690.724
47691.311
47690.391
47687.794
47683.297
47676.68
47667.609
47656.039
47641.513
47623.377
47601.226
47574.655
47543.461
47507.519
47466.632
47420.848
47370.121
47314.495
47254.175
47189.302
47120.094
47046.986
46970.213
46890.109
46807.249
46722.033
46634.817
46546.136
46456.56
46366.483
46276.279
46186.464
46097.518
46009.733
45923.396
45838.896
45756.573
45676.628
45599.207
45524.472
46930.312
47039.742
47010.368
46990.102
46978.347
46972.83
46970.865
46970.243
46970.064
46970.016
46970.004
46970.001
46970
46970
46970
46970
46970
46970
46970
46970.003
46970.077
46971.319
46981.245
47024.672
47177.54
47566.028
48425.462
49398.708
48880.469
48103.405
47784.322
47817.527
47884.711
47793.453
47709.279
47673.154
47672.902
47675.112
47663.948
47643.108
47629.609
47615.738
47608.271
47617.593
47627.594
47638.124
47659.369
47683.946
47694.227
47692.009
47687.799
47691.033
47700.49
47713.085
47724.296
47732.967
47739.32
47744.111
47747.167
47748.693
47748.778
47747.112
47743.64
47737.861
47729.432
47718.317
47703.924
47685.831
47663.542
47636.874
47605.645
47569.72
47529.125
47483.808
47433.832
47379.39
47320.595
47257.716
47191.121
47121.017
47047.792
46971.967
46893.879
46813.898
46732.569
46650.387
46567.696
46484.896
46402.506
46320.934
46240.436
46161.318
46083.933
46008.548
45935.317
45864.378
46930.301
47039.784
47010.354
46990.081
46978.334
46972.824
46970.862
46970.242
46970.064
46970.016
46970.004
46970.001
46970
46970
46970
46970
46970
46970
46970
46970.003
46970.08
46971.367
46981.575
47025.966
47182.262
47578.134
48451.305
49429.052
48890.344
48111.45
47800.921
47837.17
47908.793
47815.015
47729.783
47693.71
47693.03
47695.289
47687.071
47669.386
47658.575
47645.795
47639.316
47649.522
47660.086
47671.186
47692.826
47717.947
47728.972
47727.622
47725.058
47729.939
47741.56
47756.278
47769.642
47780.559
47789.26
47796.294
47801.743
47805.623
47808.314
47809.423
47808.994
47806.534
47801.368
47793.483
47782.572
47768.326
47750.159
47727.856
47701.169
47670.018
47634.407
47594.286
47549.743
47500.945
47447.993
47391.184
47330.823
47267.122
47200.496
47131.395
47060.116
46987.059
46912.757
46837.639
46762.018
46686.322
46611.023
46536.445
46462.827
46390.484
46319.756
46250.879
46184.008
46930.291
47039.838
47010.338
46990.056
46978.318
46972.816
46970.859
46970.241
46970.064
46970.016
46970.004
46970.001
46970
46970
46970
46970
46970
46970
46970
46970.003
46970.084
46971.423
46981.954
47027.449
47187.572
47591.688
48479.299
49459.725
48897.394
48117.708
47817.385
47856.452
47932.549
47836.034
47750.296
47714.504
47712.814
47715.209
47709.157
47694.325
47685.487
47673.908
47668.996
47680.06
47691.167
47702.86
47724.988
47750.728
47762.572
47762.138
47761.299
47767.87
47781.679
47798.507
47814.005
47827.105
47838.081
47847.323
47855.042
47861.218
47866.396
47870.144
47872.53
47873.153
47871.396
47866.916
47859.335
47848.679
47834.443
47816.347
47794.061
47767.537
47736.729
47701.607
47662.294
47618.9
47571.569
47520.577
47466.185
47408.62
47348.304
47285.615
47220.837
47154.407
47086.821
47018.416
46949.509
46880.544
46811.94
46743.973
46676.898
46611.05
46546.733
46484.128
46930.281
47039.906
47010.319
46990.027
46978.299
46972.806
46970.855
46970.24
46970.063
46970.016
46970.004
46970.001
46970
46970
46970
46970
46970
46970
46970
46970.003
46970.088
46971.487
46982.387
47029.126
47193.486
47606.72
48509.423
49490.287
48901.7
48122.221
47833.82
47875.394
47956.292
47856.452
47770.462
47735.307
47732.485
47735.096
47729.79
47716.958
47710.574
47700.805
47697.426
47709.05
47720.711
47733.107
47755.849
47782.313
47795.065
47795.581
47796.529
47804.851
47820.858
47839.8
47857.396
47872.604
47885.8
47897.218
47907.071
47915.49
47923.015
47929.34
47934.476
47938.104
47939.607
47938.588
47934.404
47927.116
47916.536
47902.416
47884.359
47862.282
47836.079
47805.75
47771.44
47733.232
47691.278
47645.843
47597.152
47545.454
47491.155
47434.564
47375.985
47315.865
47254.632
47192.579
47130.059
47067.505
47005.275
46943.61
46882.77
46823.068
46764.754
46930.274
47039.986
47010.298
46989.993
46978.278
46972.796
46970.851
46970.238
46970.063
46970.016
46970.004
46970.001
46970
46970
46970
46970
46970
46970
46970
46970.004
46970.093
46971.562
46982.874
47031.004
47200.022
47623.263
48541.669
49520.561
48903.385
48125.045
47850.279
47893.864
47980.068
47876.293
47790.35
47755.633
47751.65
47754.022
47748.881
47738.053
47734.114
47726.476
47724.912
47737.069
47748.723
47761.823
47785.429
47812.755
47826.456
47828.07
47830.71
47840.97
47859.146
47880.162
47899.802
47917.085
47932.424
47945.936
47957.819
47968.421
47978.186
47987.016
47994.77
48001.228
48005.758
48008.004
48007.442
48003.608
47996.481
47986.073
47972.032
47954.223
47932.453
47906.752
47877.243
47843.997
47807.184
47767.053
47723.799
47677.699
47629.12
47578.322
47525.639
47471.522
47416.308
47360.285
47303.826
47247.328
47191.084
47135.311
47080.286
47026.316
46973.613
46930.268
47040.077
47010.274
46989.956
46978.254
46972.784
46970.846
46970.236
46970.062
46970.016
46970.004
46970.001
46970
46970
46970
46970
46970
46970
46970
46970.004
46970.099
46971.646
46983.419
47033.092
47207.199
47641.35
48576.021
49550.226
48902.566
48126.255
47866.822
47911.894
48003.591
47895.632
47810.288
47775.219
47770
47771.523
47766.6
47757.916
47756.587
47751.395
47751.164
47763.386
47775.452
47789.237
47813.657
47842.078
47856.893
47859.588
47863.934
47876.234
47896.58
47919.63
47941.239
47960.58
47977.946
47993.449
48007.297
48019.982
48031.912
48043.159
48053.451
48062.667
48070.15
48075.564
48078.382
48078.118
48074.455
48067.501
48057.187
48043.4
48025.866
48004.602
47979.682
47951.174
47919.261
47884.177
47846.104
47805.328
47762.164
47716.857
47669.787
47621.335
47571.796
47521.471
47470.733
47419.93
47369.304
47319.094
47269.599
47221.085
46930.263
47040.18
47010.248
46989.914
46978.227
46972.77
46970.84
46970.235
46970.062
46970.016
46970.004
46970.001
46970
46970
46970
46970
46970
46970
46970
46970.004
46970.105
46971.741
46984.026
47035.399
47215.037
47661.013
48612.448
49578.989
48899.369
48125.885
47883.558
47929.78
48026.204
47914.288
47830.824
47794.671
47787.811
47787.913
47783.56
47777.148
47778.324
47775.442
47776.269
47788.48
47800.751
47815.459
47841.071
47870.373
47886.325
47890.222
47896.31
47910.689
47933.151
47958.165
47981.694
48003.076
48022.376
48039.769
48055.518
48070.154
48084.183
48097.75
48110.535
48122.38
48132.674
48141.041
48147.022
48150.174
48150.222
48146.734
48139.914
48129.857
48116.33
48099.316
48078.787
48054.809
48027.573
47997.28
47964.127
47928.403
47890.356
47850.267
47808.503
47765.396
47721.206
47676.252
47630.897
47585.43
47540.077
47495.09
47450.743
46930.261
47040.294
47010.219
46989.87
46978.198
46972.756
46970.834
46970.232
46970.061
46970.015
46970.004
46970.001
46970
46970
46970
46970
46970
46970
46970
46970.004
46970.113
46971.848
46984.697
47037.934
47223.557
47682.284
48650.904
49606.541
48893.921
48123.976
47900.583
47947.917
48047.169
47931.916
47852.169
47815.056
47805.749
47804.33
47800.536
47796.205
47799.504
47798.559
47800.229
47812.406
47824.96
47840.629
47867.386
47897.984
47914.936
47919.898
47927.88
47944.352
47968.869
47995.773
48021.19
48044.507
48065.681
48084.879
48102.443
48118.924
48134.998
48150.795
48166.011
48180.38
48193.424
48204.668
48213.726
48220.126
48223.589
48223.705
48220.372
48213.767
48203.949
48190.927
48174.561
48154.9
48132.111
48106.374
48077.891
48046.932
48013.717
47978.563
47941.804
47903.712
47864.549
47824.658
47784.35
47743.867
47703.443
47663.33
46930.262
47040.417
47010.188
46989.821
46978.167
46972.741
46970.828
46970.23
46970.06
46970.015
46970.004
46970.001
46970
46970
46970
46970
46970
46970
46970
46970.004
46970.121
46971.968
46985.437
47040.708
47232.781
47705.194
48691.335
49632.55
48886.4
48120.684
47917.916
47966.589
48065.982
47948.259
47874.113
47837.164
47824.854
47822.016
47818.166
47815.238
47820.242
47820.683
47823.203
47835.445
47848.347
47864.964
47893.005
47924.772
47942.823
47948.984
47958.456
47977.18
48003.721
48032.456
48059.739
48084.891
48107.865
48128.783
48148.048
48166.326
48184.384
48202.341
48219.895
48236.712
48252.409
48266.378
48278.33
48287.748
48294.432
48298.021
48298.378
48295.215
48288.864
48279.514
48267.038
48251.476
48232.921
48211.501
48187.447
48160.973
48132.329
48101.824
48069.766
48036.375
48001.932
47966.775
47931.161
47895.321
47859.491
46930.265
47040.55
47010.154
46989.77
46978.135
46972.724
46970.821
46970.228
46970.059
46970.015
46970.004
46970.001
46970
46970
46970
46970
46970
46970
46970
46970.005
46970.131
46972.102
46986.249
47043.731
47242.728
47729.773
48733.674
49656.66
48877.022
48116.182
47935.521
47985.983
48082.489
47963.187
47896.258
47861.297
47846.357
47841.678
47836.495
47834.26
47840.483
47841.908
47845.427
47857.925
47871.185
47888.739
47918.032
47950.965
47969.916
47977.442
47988.452
48009.04
48037.725
48068.262
48097.34
48124.268
48148.953
48171.482
48192.339
48212.408
48232.377
48252.413
48272.199
48291.406
48309.626
48326.236
48340.985
48353.342
48363.102
48369.923
48373.653
48374.087
48371.201
48365.254
48356.338
48344.586
48330.008
48312.681
48292.807
48270.564
48246.228
48220.097
48192.431
48163.426
48133.415
48102.679
48071.439
48039.925
46930.272
47040.692
47010.118
46989.715
46978.1
46972.707
46970.814
46970.225
46970.059
46970.015
46970.004
46970.001
46970
46970
46970
46970
46970
46970
46970
46970.005
46970.142
46972.252
46987.137
47047.016
47253.422
47756.048
48777.85
49678.51
48865.99
48110.686
47953.354
48006.229
48097.052
47976.348
47918.015
47887.169
47870.661
47862.906
47855.167
47853.148
47860.216
47862.56
47867.244
47880.215
47893.745
47912.114
47942.636
47976.658
47996.349
48005.193
48017.754
48040.511
48070.773
48103.209
48134.046
48162.712
48188.961
48212.96
48235.332
48257.114
48278.92
48300.984
48322.93
48344.457
48365.092
48384.247
48401.644
48416.769
48429.401
48439.263
48446.213
48450.078
48450.782
48448.227
48442.632
48434.363
48423.447
48409.951
48394.011
48375.761
48355.475
48333.446
48309.873
48284.985
48259.107
48232.474
48205.29
46930.282
47040.843
47010.079
46989.658
46978.064
46972.689
46970.807
46970.223
46970.058
46970.014
46970.004
46970.001
46970
46970
46970
46970
46970
46970
46970
46970.005
46970.155
46972.418
46988.107
47050.574
47264.883
47784.041
48823.78
49697.737
48853.488
48104.448
47971.37
48027.54
48110.486
47987.28
47938.414
47913.538
47896.303
47884.391
47873.831
47871.936
47879.715
47882.989
47889.052
47902.535
47916.155
47935.303
47966.964
48001.861
48022.19
48032.231
48046.488
48071.074
48103.356
48137.126
48169.95
48200.151
48227.857
48253.223
48277.056
48300.46
48324.045
48348.074
48372.13
48395.876
48418.828
48440.439
48460.36
48478.167
48493.583
48506.384
48516.34
48523.337
48527.308
48528.201
48525.96
48520.976
48513.414
48503.428
48491.125
48476.622
48460.15
48441.964
48422.202
48401.16
48379.122
48356.283
48332.85
46930.296
47041.001
47010.038
46989.599
46978.026
46972.67
46970.799
46970.22
46970.057
46970.014
46970.003
46970.001
46970
46970
46970
46970
46970
46970
46970
46970.006
46970.169
46972.601
46989.162
47054.419
47277.132
47813.766
48871.382
49713.988
48839.68
48097.736
47989.535
48050.171
48123.227
47996.509
47956.388
47938.356
47920.998
47905.155
47892.516
47890.96
47899.23
47903.712
47911.004
47924.978
47938.568
47958.334
47991.055
48026.691
48047.439
48058.616
48074.481
48100.974
48134.978
48170.597
48204.74
48236.566
48265.602
48292.242
48317.475
48342.446
48367.762
48393.702
48419.815
48445.682
48470.867