/*--------------------------------*- C++ -*----------------------------------*\
| =========                 |                                                 |
| \\      /  F ield         | OpenFOAM: The Open Source CFD Toolbox           |
|  \\    /   O peration     | Version:  2506                                  |
|   \\  /    A nd           | Website:  www.openfoam.com                      |
|    \\/     M anipulation  |                                                 |
\*---------------------------------------------------------------------------*/
FoamFile
{
    version     2.0;
    format      ascii;
    arch        "LSB;label=32;scalar=64";
    class       volScalarField;
    location    "2.05";
    object      p;
}
// * * * * * * * * * * * * * * * * * * * * * * * * * * * * * * * * * * * * * //

dimensions      [1 -1 -2 0 0 0 0];

internalField   nonuniform List<scalar> 
19257
(
47049.805
47044.662
47041.902
47043.1
47042.345
47041.492
47040.168
47039.713
47039.461
47037.612
47037.742
47036.182
47036.45
47034.738
47031.69
47029.267
47029.439
47030.22
47028.901
47025.541
47023.329
47021.794
47019.081
47016.627
47012.627
47008.375
47003.576
46996.744
46995.376
46996.871
46992.916
46996.195
46996.411
46989.421
46993.394
46992.514
46992.559
46985.103
46984.985
46996.88
46988.42
46966.162
46971.199
46931.021
46823.323
46786.216
46471.079
46699.359
46338.204
47050.269
47044.402
47041.667
47042.958
47042.763
47041.595
47039.929
47039.783
47039.334
47037.803
47038.151
47036.931
47037.147
47035.812
47033.271
47030.712
47030.764
47031.413
47030.669
47028.018
47025.037
47024.827
47022.712
47020.968
47017.816
47013.998
47010.546
47004.491
47002.507
47004.421
47004.12
47006.157
47012.689
47008.951
47011.115
47022.524
47020.145
47023.119
47043.64
47048.845
47050.82
47050.37
47040.656
47014.722
46968.664
46906.822
46914.622
46704.269
45885.336
47051.991
47043.543
47041.375
47042.998
47043.035
47041.742
47040.494
47039.309
47038.888
47038.912
47038.708
47038.002
47037.709
47037.005
47035.201
47032.808
47032.113
47032.421
47032.675
47030.739
47027.576
47027.256
47026.029
47025.422
47023.293
47020.266
47017.742
47013.488
47009.973
47012.191
47015.403
47016.608
47025.804
47027.864
47029.364
47043.558
47052.916
47058.734
47067.796
47073.711
47094.474
47095.765
47107.328
47118.551
47088.038
47030.425
46957.532
46855.466
46345.663
47053.05
47043.46
47041.318
47043.304
47043.475
47042.375
47041.387
47039.413
47040.055
47039.164
47039.313
47039.223
47038.699
47038.245
47036.98
47034.336
47033.546
47033.832
47034.826
47033.42
47030.621
47029.729
47029.838
47029.613
47028.728
47026.953
47024.841
47022.348
47018.812
47020.689
47026.228
47028.037
47037.221
47045.822
47047.11
47061.417
47074.416
47086.92
47100.426
47118.416
47135.967
47165.97
47199.24
47215.66
47210.366
47172.132
47161.47
47096.522
46494.923
47054.081
47044.446
47041.984
47043.421
47043.823
47042.618
47041.997
47040.499
47041.105
47040.381
47040.28
47039.792
47039.637
47039.48
47038.458
47035.903
47035.187
47035.229
47036.375
47036.076
47033.91
47033.201
47033.574
47033.604
47034.502
47033.639
47031.41
47030.865
47028.555
47029.735
47036.906
47040.439
47048.721
47061.283
47066.083
47078.33
47099.291
47117.292
47132.851
47156.527
47188.381
47229.03
47250.687
47283.776
47307.064
47311.854
47301.854
47291.861
46791.311
47053.551
47045.471
47042.539
47042.89
47043.567
47042.848
47042.676
47041.488
47041.813
47041.497
47040.578
47040.66
47040.532
47040.703
47039.813
47037.819
47037.041
47036.465
47037.719
47038.507
47037.601
47036.843
47037.278
47038.384
47040.079
47040.112
47038.724
47039.31
47038.484
47039.394
47047.236
47053.439
47061.057
47075.042
47084.361
47096.638
47118.269
47140.665
47162.897
47191.581
47229.166
47263.029
47307.089
47360.797
47398.346
47434.298
47477.747
47472.955
47080.397
47052.388
47046.204
47042.422
47042.072
47043.454
47043.427
47043.035
47042.27
47042.533
47042.437
47041.628
47041.725
47041.501
47041.946
47041.53
47039.956
47039.005
47038.338
47039.173
47041.122
47041.281
47040.546
47041.445
47043.048
47045.615
47047.094
47046.454
47047.535
47048.399
47049.44
47057.48
47066.484
47074.651
47088.91
47101.559
47115.053
47138.559
47164.79
47193.055
47225.882
47266.391
47310.968
47368.169
47414.301
47476.213
47545.201
47614.159
47641.421
47389.527
47053.194
47046.277
47041.864
47041.936
47043.441
47043.613
47043.347
47043.197
47043.207
47043.482
47043.006
47042.685
47042.516
47043.143
47043.231
47042.43
47041.099
47040.761
47041.69
47043.9
47044.843
47044.649
47045.487
47047.729
47050.986
47053.865
47054.567
47056.026
47058.231
47060.001
47067.919
47079.274
47088.843
47103.89
47118.296
47133.462
47156.445
47185.506
47216.131
47251.504
47297.971
47349.765
47402.66
47468.46
47552.766
47641.849
47743.091
47810.512
47694.34
47055.033
47047.107
47042.257
47042.634
47044.268
47044.419
47043.943
47044.02
47044.139
47044.455
47044.589
47043.96
47043.515
47044.051
47044.558
47044.485
47043.096
47043.268
47044.467
47046.444
47048.361
47048.895
47049.899
47052.503
47056.168
47060.347
47062.763
47064.817
47068.174
47070.959
47078.331
47091.445
47102.991
47119.203
47135.832
47151.94
47175.316
47206.7
47238.867
47281.251
47327.227
47384.056
47449.897
47530.643
47618.143
47728.253
47859.095
47968.755
47974.908
47056.427
47047.698
47042.571
47042.701
47044.227
47045.315
47044.512
47044.324
47044.695
47045.393
47045.768
47044.938
47044.752
47045.539
47046.322
47046.179
47045.057
47045.415
47046.853
47048.822
47051.492
47052.972
47054.586
47057.401
47061.245
47066.487
47070.624
47073.64
47077.964
47081.771
47088.567
47102.798
47116.81
47133.957
47153.648
47170.959
47195.103
47226.738
47263.696
47305.445
47357.624
47423.258
47493.91
47572.091
47672.628
47809.147
47958.92
48123.439
48235.782
47058.392
47048.737
47042.442
47042.451
47044.369
47045.505
47044.795
47044.798
47045.237
47045.638
47045.829
47045.775
47046.068
47046.906
47048.133
47048.326
47047.543
47047.923
47049.573
47051.59
47054.493
47056.888
47059.221
47062.274
47066.25
47072.273
47077.869
47082.045
47087.422
47092.409
47098.829
47113.167
47129.882
47147.889
47170.463
47190.21
47214.489
47248.157
47288.243
47333.81
47389.827
47454.762
47530.024
47619.335
47734.603
47880.846
48058.115
48266.68
48469.084
47059.733
47049.294
47042.161
47041.896
47044.211
47045.49
47046.118
47045.827
47045.565
47045.648
47046.1
47046.14
47046.513
47047.524
47049.636
47050.651
47050.454
47050.731
47052.596
47054.677
47057.573
47060.587
47063.663
47067.137
47071.286
47077.829
47084.728
47090.112
47096.627
47102.95
47109.376
47122.9
47141.721
47161.1
47185.62
47208.681
47233.405
47268.09
47311.789
47361.34
47419.015
47489.251
47571.877
47666.057
47785.872
47941.031
48146.641
48393.914
48680.135
47062.388
47049.97
47041.804
47041.377
47043.585
47045.051
47046.745
47046.353
47046.102
47046.069
47046.702
47047.062
47047.293
47048.157
47050.586
47052.37
47052.929
47053.326
47055.381
47057.645
47060.579
47064.017
47067.801
47071.862
47076.292
47083.071
47091.116
47097.66
47105.2
47113.024
47120.101
47132.379
47152.029
47173.223
47198.947
47225.508
47251.528
47286.319
47332.782
47386.748
47448.951
47520.765
47605.078
47703.499
47831.426
48001.631
48225.005
48513.632
48866.227
47064.892
47050.657
47041.829
47041.51
47043.248
47045.717
47046.71
47046.138
47046.24
47046.725
47047.649
47048.375
47048.726
47049.339
47051.596
47053.877
47054.829
47055.529
47057.664
47060.22
47063.22
47067.055
47071.638
47076.339
47080.943
47087.691
47096.643
47104.421
47112.861
47122.12
47130.512
47141.86
47161.12
47183.981
47210.528
47240.015
47268.391
47303.31
47351.25
47409.001
47473.936
47550.658
47638.331
47742.942
47875.591
48055.611
48292.651
48616.798
49028.204
47067.519
47051.719
47041.992
47041.614
47044.047
47046.955
47046.285
47046.281
47046.727
47047.288
47048.277
47049.319
47050.075
47050.735
47052.78
47055.381
47056.554
47057.507
47059.665
47062.478
47065.561
47069.722
47075.078
47080.497
47085.242
47091.798
47101.281
47110.262
47119.534
47129.968
47139.997
47151.235
47169.516
47193.306
47220.559
47251.935
47283.1
47318.999
47368.095
47428.14
47496.207
47575.747
47667.509
47775.707
47913.528
48100.131
48356.706
48706.458
49167.415
47070.102
47052.939
47042.081
47041.494
47044.206
47046.417
47047.313
47047.633
47047.46
47047.928
47048.985
47050.147
47050.978
47051.711
47053.719
47056.745
47058.333
47059.497
47061.758
47064.705
47067.681
47071.899
47077.86
47084.093
47089.051
47095.364
47105.049
47115.023
47125.104
47136.425
47147.973
47159.9
47177.35
47201.292
47229.215
47261.385
47295.017
47332.942
47383.175
47444.86
47514.899
47596.841
47692.175
47804.936
47948.734
48142.472
48412.177
48780.655
49283.526
47071.845
47053.994
47042.232
47041.742
47044.495
47046.264
47048.083
47048.512
47047.998
47048.212
47049.263
47050.688
47051.677
47052.488
47054.368
47057.636
47059.674
47061.057
47063.547
47066.746
47069.627
47073.706
47079.981
47086.951
47092.206
47098.303
47107.99
47118.674
47129.476
47141.445
47154.118
47167.068
47184.196
47207.886
47236.213
47268.546
47303.642
47344.06
47395.884
47458.459
47529.675
47613.202
47711.334
47827.959
47976.017
48175.755
48452.825
48840.715
49372.848
47073.046
47054.837
47042.456
47041.741
47044.412
47046.6
47047.972
47049.002
47049.005
47048.698
47049.463
47050.954
47052.177
47053.059
47054.815
47058.144
47060.458
47061.942
47064.653
47068.187
47071.102
47074.999
47081.39
47088.956
47094.487
47100.356
47109.875
47120.989
47132.401
47144.881
47158.266
47172.071
47189.263
47212.629
47240.804
47272.719
47308.347
47351.101
47404.86
47467.763
47539.069
47623.148
47723.022
47842.724
47994.497
48198.409
48482.853
48881.015
49434.236
47073.737
47055.492
47042.718
47041.949
47044.47
47046.747
47047.967
47049.023
47049.531
47049.239
47049.595
47051.071
47052.544
47053.607
47055.214
47058.424
47060.864
47062.377
47065.194
47068.911
47071.841
47075.547
47081.963
47089.963
47095.705
47101.307
47110.475
47121.783
47133.661
47146.562
47160.315
47174.535
47191.903
47215.056
47242.622
47273.631
47309.506
47354.267
47409.403
47472.039
47542.824
47626.626
47726.965
47848.513
48002.541
48208.802
48495.878
48900.939
49466.225
47074.058
47056.144
47043.158
47042.192
47044.655
47046.552
47048.161
47049.419
47049.319
47049.164
47049.588
47051.109
47052.911
47054.192
47055.589
47058.51
47060.981
47062.558
47065.443
47069.182
47072.031
47075.569
47081.957
47090.183
47096.056
47101.458
47110.237
47121.581
47133.788
47147.056
47160.948
47175.222
47192.789
47215.92
47242.749
47272.777
47309.215
47355.644
47411.222
47473.041
47543.123
47626.504
47726.822
47849.156
48004.127
48210.879
48498.317
48905.45
49474.596
47073.971
47056.419
47043.606
47042.328
47044.537
47046.505
47048.432
47049.542
47049.564
47049.382
47049.886
47051.477
47053.344
47054.516
47055.729
47058.441
47060.921
47062.617
47065.568
47069.196
47071.903
47075.353
47081.669
47089.897
47095.799
47101.096
47109.547
47120.861
47133.311
47146.918
47160.8
47174.972
47192.769
47215.956
47242.001
47271.277
47308.759
47356.6
47411.689
47472.183
47541.558
47624.762
47724.937
47847.394
48002.645
48209.157
48496.609
48901.658
49465.819
47073.198
47056.055
47043.9
47042.49
47044.578
47046.887
47048.218
47048.734
47049.806
47050.043
47050.333
47051.789
47053.496
47054.463
47055.689
47058.295
47060.608
47062.384
47065.334
47068.714
47071.271
47074.686
47080.871
47088.849
47094.56
47099.758
47107.915
47119.117
47131.719
47145.557
47159.184
47173.127
47191.101
47214.173
47239.33
47268.317
47307.206
47355.896
47409.386
47467.768
47536.207
47619.276
47718.817
47840.297
47994.155
48200.161
48486.28
48882.967
49437.048
47071.737
47055.088
47044.012
47042.909
47044.933
47046.669
47047.365
47048.069
47049.544
47050.241
47050.432
47051.63
47053.089
47053.979
47055.36
47057.84
47059.863
47061.65
47064.48
47067.494
47069.885
47073.206
47079.183
47086.713
47092.036
47097.118
47104.959
47115.914
47128.566
47142.382
47155.428
47169.029
47186.94
47209.485
47233.777
47263.046
47302.971
47351.141
47401.936
47457.75
47525.012
47607.511
47705.734
47824.153
47976.119
48175.469
48466.896
48844.617
49377.623
47069.829
47053.951
47043.803
47043.261
47045.203
47046.353
47046.889
47047.65
47048.847
47049.683
47049.905
47050.875
47052.175
47053.246
47054.767
47056.963
47058.61
47060.327
47063.001
47065.689
47067.934
47071.106
47076.862
47083.828
47088.667
47093.599
47101.082
47111.668
47124.242
47137.66
47149.908
47163.055
47180.61
47202.299
47226.088
47256.041
47295.965
47341.893
47389.075
47442.443
47509.171
47590.555
47684.829
47801.241
47947.267
48146.664
48421.173
48780.874
49282.271
47067.557
47052.735
47043.488
47043.385
47045.353
47046.237
47046.717
47047.153
47047.898
47048.598
47048.711
47049.647
47051.07
47052.267
47053.679
47055.53
47056.953
47058.686
47061.187
47063.572
47065.655
47068.675
47074.157
47080.427
47084.689
47089.384
47096.512
47106.674
47119.003
47131.65
47143.004
47155.587
47172.681
47193.5
47217.268
47247.768
47286.534
47328.599
47372.363
47424.071
47489.394
47569.729
47661.223
47770.403
47915.67
48098.712
48378.781
48717.952
49165.916
47065.202
47051.509
47043.131
47043.225
47045.357
47046.277
47046.348
47046.302
47046.973
47047.37
47047.622
47048.634
47049.993
47050.991
47052.124
47053.651
47054.953
47056.692
47059.065
47061.188
47063.005
47065.84
47070.954
47076.467
47080.102
47084.472
47091.242
47100.946
47112.812
47124.401
47134.799
47146.81
47163.555
47183.663
47207.705
47238.027
47274.027
47311.879
47352.621
47403.516
47468.946
47544.886
47631.45
47736.11
47878.854
48047.947
48290.768
48621.301
49034.031
47062.9
47050.363
47042.707
47043.219
47045.551
47046.289
47046.237
47045.929
47046.345
47046.44
47046.775
47047.795
47048.876
47049.67
47050.466
47051.766
47052.989
47054.564
47056.624
47058.353
47059.774
47062.352
47067.149
47071.968
47075.071
47079.119
47085.5
47094.696
47105.77
47116.084
47125.435
47137.137
47153.667
47173.123
47197.186
47226.087
47258.131
47291.961
47331.403
47381.662
47445.903
47518.416
47598.301
47704.993
47832.62
48020.494
48199.423
48490.683
48867.034
47060.425
47049.12
47042.522
47043.439
47045.944
47046.261
47046.028
47045.79
47045.771
47045.691
47046.167
47046.839
47047.575
47048.172
47048.788
47049.923
47051.109
47052.602
47054.151
47055.164
47056.112
47058.429
47062.95
47067.002
47069.696
47073.425
47079.389
47088.044
47098.064
47107.009
47115.352
47127.211
47143.232
47161.957
47185.258
47211.24
47239.271
47269.923
47309.663
47359.05
47420.945
47488.119
47560.318
47659.797
47797.342
47976.777
48142.933
48374.861
48674.744
47058.823
47048.063
47042.275
47042.928
47045.513
47045.673
47045.478
47045.222
47045.024
47044.952
47045.356
47045.95
47046.43
47046.648
47047.079
47048.034
47049.042
47050.36
47051.481
47051.692
47052.332
47054.376
47058.468
47061.686
47064.097
47067.509
47072.92
47080.85
47089.659
47097.277
47105.058
47117.311
47132.046
47150.032
47171.119
47193.755
47218.143
47248.19
47286.73
47336.51
47392.721
47453.314
47525.092
47606.775
47742.101
47887.391
48121.051
48263.43
48463.495
47056.332
47046.859
47042.116
47042.464
47044.171
47044.851
47044.758
47044.462
47044.225
47044.195
47044.736
47044.993
47045.273
47045.023
47045.429
47046.217
47047.001
47047.866
47048.632
47048.123
47048.553
47050.536
47054.016
47056.348
47058.344
47061.227
47066.037
47073.091
47080.682
47087.127
47094.968
47107.156
47119.953
47136.899
47154.614
47174.4
47196.351
47226.102
47263.246
47309.291
47363.496
47412.279
47478.507
47572.919
47685.015
47805.648
47988.298
48120.097
48232.399
47054.57
47046.373
47042.138
47042.822
47043.404
47043.915
47044.122
47043.596
47043.565
47043.331
47043.633
47043.812
47043.86
47043.273
47043.774
47044.349
47045.002
47045.425
47045.485
47044.796
47044.765
47046.498
47049.213
47050.825
47052.514
47054.695
47058.864
47064.877
47071.317
47076.954
47085.218
47096.246
47107.043
47122.015
47136.221
47153.843
47175.392
47202.554
47240.196
47281.049
47329.824
47373.562
47425.4
47510.093
47619.952
47757.272
47808.659
47929.474
47970.451
47052.613
47045.907
47042.506
47043.139
47043.233
47043.421
47043.657
47043.132
47042.86
47042.678
47042.578
47042.542
47041.997
47041.566
47042.289
47042.595
47042.767
47043.204
47042.522
47041.323
47040.882
47042.44
47044.269
47045.412
47046.792
47048.266
47051.783
47056.87
47062.129
47067.126
47075.563
47084.537
47093.531
47105.167
47116.899
47133.767
47153.658
47180.25
47212.628
47251.367
47290.098
47334.031
47385.754
47450.288
47534.756
47672.921
47689.786
47763.364
47674.856
47051.624
47045.658
47042.409
47042.945
47042.835
47043.357
47043.046
47042.667
47042.234
47042.228
47042.255
47041.749
47040.541
47040.135
47040.742
47040.757
47040.506
47040.447
47039.17
47038.103
47036.893
47038.11
47039.641
47040.81
47041.549
47042.094
47044.571
47048.996
47053.439
47057.825
47065.722
47072.064
47079.339
47086.817
47098.073
47114.179
47131.67
47156.353
47184.815
47221.979
47251.683
47282.542
47334.742
47404.157
47465.21
47551.612
47616.556
47620.718
47383.18
47051.55
47045.408
47042.218
47042.571
47042.698
47043.278
47042.323
47042.068
47041.521
47041.367
47041.488
47040.88
47039.012
47038.687
47039.862
47039.132
47038.333
47037.673
47036.007
47035.046
47033.579
47033.988
47035.574
47036.542
47036.423
47036.121
47037.638
47041.241
47044.767
47048.768
47055.541
47058.958
47064.008
47068.281
47080.241
47094.802
47110.291
47131.031
47158.036
47184.053
47215.934
47238.959
47274.92
47331.763
47397.714
47430.827
47471.291
47427.156
47084.756
47051.861
47045.001
47041.954
47042.21
47042.634
47043.078
47041.805
47041.469
47040.625
47040.556
47040.296
47039.349
47037.396
47038.517
47038.816
47038.055
47036.715
47035.102
47033.155
47031.839
47030.851
47030.994
47032.022
47031.868
47030.617
47029.682
47031.241
47034.146
47036.155
47039.828
47044.945
47045.469
47047.5
47050.702
47063.534
47075.337
47087.406
47104.601
47128.843
47151.338
47170.77
47195.35
47226.366
47260.367
47309.528
47316.236
47316.656
47296.099
46700.344
47050.495
47044.699
47041.94
47042.073
47042.495
47042.863
47041.218
47040.944
47039.94
47040.283
47039.601
47038.333
47036.135
47038.283
47037.794
47036.742
47035.138
47032.918
47030.72
47028.559
47028.049
47028.331
47028.631
47026.927
47024.958
47023.515
47024.685
47027.16
47027.884
47031.125
47033.776
47031.547
47030.796
47034.842
47047.2
47055.871
47064.454
47082.232
47099.534
47118.16
47129.514
47147.232
47167.396
47196.121
47218.428
47212.05
47138.938
47168.092
46429.171
47050.14
47043.797
47041.954
47042.031
47042.244
47042.436
47040.798
47040.609
47039.805
47039.647
47039.133
47037.484
47035.406
47037.159
47036.841
47035.615
47033.379
47030.828
47028.568
47025.991
47025.853
47025.672
47025.158
47022.269
47019.586
47018.423
47018.936
47019.825
47019.734
47022.334
47021.967
47017.692
47014.785
47020.908
47030.154
47034.596
47038.698
47053.283
47069.584
47074.921
47086.441
47096.399
47095.062
47102.349
47111.604
47074.579
46962.023
47018.244
46254.32
47050.493
47044.289
47042.174
47042.021
47041.999
47041.792
47040.513
47040.401
47039.581
47039.13
47038.333
47036.788
47035.353
47036.278
47034.678
47034.019
47031.488
47029.166
47026.6
47023.823
47023.663
47023.188
47021.882
47018.053
47015.057
47013.313
47013.212
47012.873
47012.509
47013.6
47008.25
47003.963
47001.282
47007.492
47012.299
47012.244
47017.446
47025.934
47035.512
47037.514
47037.252
47034.442
47025.164
47009.776
47001.704
46938.985
46774.457
46846.345
46067.524
47050.128
47045.142
47042.189
47042.169
47041.807
47041.344
47040.037
47039.493
47038.851
47038.757
47037.686
47036.079
47034.885
47035.978
47032.123
47031.505
47029.833
47027.414
47024.446
47021.587
47021.519
47020.677
47018.777
47014.105
47010.597
47008.258
47007.054
47005.734
47005.516
47004.436
46994.763
46989.833
46989.035
46993.099
46990.945
46990.919
46992.145
46996.04
46987.514
46992.416
46998.584
46979.134
46965.882
46946.666
46927.551
46826.366
46546.652
46619.437
45986.376
47536.38
47449.552
47422.077
47339.441
47318.793
47285.463
47255.094
47228.002
47202.642
47179.204
47154.623
47134.421
47116.199
47097.181
47083.65
47074.505
47066.244
47056.462
47046.461
47041.506
47038.511
47034.172
47029.993
47027.357
47026.26
47026.742
47027.083
47027.6
47028.431
47029.453
47031.125
47031.933
47031.642
47032.058
47033.624
47035.115
47036.079
47037.074
47036.852
47036.964
47037.648
47038.342
47038.595
47039.241
47039.284
47040.135
47039.71
47040.374
47040.397
47255.503
47263.311
47239.955
47240.478
47222.682
47207.735
47190.923
47172.74
47153.968
47136.271
47120.125
47104.236
47089.611
47079.329
47067.038
47055.625
47045.63
47039.303
47035.213
47031.256
47028.666
47025.591
47022.796
47022.151
47022.515
47023.98
47024.855
47025.359
47026.471
47027.833
47029.625
47030.814
47030.855
47031.41
47033.053
47034.712
47035.732
47036.801
47036.631
47036.726
47037.502
47038.229
47038.539
47039.142
47039.282
47040.05
47039.722
47040.285
47040.322
47126.903
47128.434
47135.627
47126.754
47124.925
47117.514
47109.499
47102.336
47094.222
47085.457
47076.11
47067.136
47058.437
47049.746
47041.831
47034.504
47029.064
47026.638
47022.961
47020.243
47019.249
47017.709
47016.564
47017.112
47018.854
47020.658
47021.963
47022.642
47024.213
47026.09
47028.088
47029.672
47030.158
47030.828
47032.528
47034.326
47035.426
47036.563
47036.431
47036.514
47037.373
47038.128
47038.448
47039.03
47039.215
47039.979
47039.717
47040.208
47040.26
46977.173
47010.938
47008.271
47026.779
47029.645
47036.199
47038.377
47039.445
47038.146
47036.104
47033.304
47030.831
47026.258
47021.403
47017.818
47015.261
47012.357
47010.333
47009.414
47008.842
47009.038
47009.631
47009.809
47012.076
47014.756
47017.081
47018.86
47019.926
47022.106
47024.472
47026.702
47028.604
47029.443
47030.256
47032.034
47033.959
47035.154
47036.339
47036.221
47036.324
47037.247
47038.01
47038.339
47038.92
47039.122
47039.932
47039.708
47040.135
47040.211
46906.595
46911.043
46928.165
46939.941
46950.524
46960.984
46968.256
46975.629
46979.758
46984.106
46986.349
46987.659
46988.726
46990.693
46991.251
46991.648
46991.294
46991.987
46995.886
46997.911
46998.717
47000.871
47003.776
47007.525
47010.504
47013.481
47015.78
47017.358
47020.117
47022.821
47025.324
47027.519
47028.706
47029.645
47031.572
47033.599
47034.888
47036.111
47035.992
47036.157
47037.114
47037.882
47038.232
47038.818
47039.022
47039.896
47039.704
47040.067
47040.177
46802.281
46837.636
46841.169
46864.854
46875.559
46892.107
46903.005
46915.324
46924.909
46934.93
46942.3
46949.803
46954.319
46958.509
46962.524
46968.198
46973.09
46976.183
46980.774
46985.752
46989.152
46992.68
46997.683
47002.621
47005.808
47009.532
47012.574
47014.784
47018.152
47021.159
47023.963
47026.504
47027.947
47029.025
47031.116
47033.255
47034.61
47035.865
47035.75
47036.006
47036.975
47037.756
47038.1
47038.72
47038.951
47039.858
47039.715
47040.014
47040.164
46755.455
46755.405
46780.545
46795.998
46809.436
46829.862
46840.609
46857.795
46870.708
46885.444
46898.181
46909.771
46919.278
46929.756
46936.361
46943.669
46952.494
46959.403
46965.299
46973
46979.507
46984.775
46990.629
46996.813
47001.064
47005.616
47009.584
47012.563
47016.336
47019.542
47022.623
47025.474
47027.133
47028.39
47030.667
47032.9
47034.313
47035.6
47035.498
47035.869
47036.827
47037.624
47037.941
47038.623
47038.893
47039.783
47039.727
47039.982
47040.168
46667.63
46714.832
46707.759
46733.227
46743.62
46770.111
46784.087
46805.029
46821.622
46839.617
46855.449
46872.347
46886.315
46900.023
46911.592
46919.452
46929.826
46942.765
46951.482
46960.336
46969.482
46977.45
46983.949
46990.747
46996.663
47002.023
47006.654
47010.507
47014.523
47017.841
47021.289
47024.471
47026.265
47027.762
47030.231
47032.526
47033.993
47035.322
47035.253
47035.747
47036.672
47037.474
47037.811
47038.507
47038.842
47039.717
47039.731
47039.973
47040.191
46646.65
46594.745
46645.916
46677.197
46689.805
46720.167
46736.025
46758.853
46777.242
46797.669
46816.095
46835.408
46851.618
46868.543
46887.498
46902.941
46910.202
46923.411
46938.07
46950.027
46959.742
46969.716
46977.935
46985.257
46992.319
46998.515
47003.724
47008.407
47012.761
47016.165
47019.97
47023.515
47025.381
47027.135
47029.827
47032.146
47033.631
47035.037
47035.018
47035.628
47036.507
47037.322
47037.752
47038.418
47038.81
47039.688
47039.726
47039.981
47040.238
46510.312
46612.761
46586.738
46636.165
46640.124
46678.816
46692.847
46717.95
46736.396
46759.512
46781.124
46804.904
46824.87
46841.276
46860.224
46885.289
46897.899
46906.93
46921.818
46939.39
46951.9
46962.077
46971.938
46980.51
46988.13
46995.006
47000.933
47006.187
47010.986
47014.592
47018.645
47022.536
47024.547
47026.521
47029.445
47031.771
47033.233
47034.733
47034.801
47035.509
47036.338
47037.19
47037.686
47038.322
47038.783
47039.704
47039.713
47040.014
47040.298
46514.343
46447.418
46482.9
46584.723
46571.354
46628.303
46642.694
46676.156
46696.587
46721.732
46744.841
46771.436
46799.768
46824.648
46837.144
46861.089
46886.387
46899.446
46908.202
46926.107
46943.929
46955.626
46965.993
46975.994
46984.162
46991.403
46998.245
47003.948
47009.111
47013.125
47017.383
47021.507
47023.781
47025.97
47029.059
47031.405
47032.829
47034.41
47034.612
47035.386
47036.178
47037.057
47037.598
47038.256
47038.752
47039.654
47039.712
47040.09
47040.363
46357.13
46655.272
46514.133
46567.796
46534.772
46576.382
46595.369
46633.67
46663.264
46692.783
46713.706
46739.843
46768.903
46806.079
46826.472
46839.838
46864.666
46889.805
46902.745
46914.389
46934.207
46949.591
46960.634
46971.497
46980.408
46987.89
46995.576
47001.947
47007.295
47011.683
47016.205
47020.477
47023.051
47025.5
47028.666
47031.04
47032.446
47034.113
47034.453
47035.254
47036.03
47036.93
47037.553
47038.203
47038.651
47039.565
47039.737
47040.206
47040.413
46534.926
46260.94
46408.777
46479.954
46492.377
46535.146
46554.451
46591.673
46626.581
46664.812
46689.993
46716.096
46739.718
46778.351
46811.471
46832.654
46846.103
46871.232
46894.53
46908.795
46924.993
46942.791
46955.902
46967.171
46976.965
46984.989
46993.017
47000.106
47005.738
47010.259
47015.022
47019.545
47022.339
47025.102
47028.287
47030.681
47032.102
47033.857
47034.293
47035.087
47035.896
47036.841
47037.493
47038.127
47038.541
47039.532
47039.744
47040.313
47040.442
46155.779
46489.711
46352.195
46444.794
46442.951
46509.113
46525.962
46560.31
46585.353
46629.433
46667.051
46703.506
46724.5
46749.392
46785.6
46822.218
46841.184
46856.016
46881.066
46901.981
46918.759
46936.248
46951.256
46963.259
46973.684
46982.723
46990.981
46998.324
47004.355
47008.98
47013.857
47018.696
47021.691
47024.722
47027.924
47030.357
47031.795
47033.587
47034.095
47034.876
47035.769
47036.776
47037.372
47038.07
47038.491
47039.525
47039.724
47040.421
47040.452
46274.353
46397.304
46330.356
46402.766
46399.191
46465.594
46498.146
46546.068
46562.005
46599.333
46635.487
46681.291
46712.052
46734.622
46759.619
46800.761
46834.528
46853.481
46870.219
46892.566
46913.372
46930.9
46946.732
46959.844
46970.596
46980.665
46989.604
46996.762
47002.939
47007.851
47012.762
47017.881
47021.157
47024.312
47027.549
47030.077
47031.531
47033.275
47033.868
47034.683
47035.672
47036.69
47037.242
47038.026
47038.488
47039.501
47039.716
47040.563
47040.438
46245.649
46284.225
46292.982
46378.459
46386.08
46422.354
46453.276
46513.696
46553.814
46586.604
46608.207
46647.85
46687.099
46731.751
46752.878
46777.352
46818.144
46854.004
46868.629
46885.582
46907.23
46926.524
46942.43
46956.724
46968.35
46978.597
46988.216
46995.536
47001.485
47006.7
47011.816
47017.136
47020.692
47023.921
47027.154
47029.8
47031.311
47032.967
47033.649
47034.556
47035.588
47036.575
47037.174
47037.986
47038.456
47039.528
47039.715
47040.722
47040.407
46200.157
46257.7
46266.26
46322.8
46358.212
46405.351
46420.193
46473.672
46518.849
46574.573
46596.251
46629.718
46665.351
46712.846
46749.677
46775.174
46807.965
46839.093
46864.817
46883.209
46902.155
46922.187
46938.731
46953.656
46966.755
46977.084
46986.678
46994.161
47000.13
47005.64
47011.012
47016.443
47020.292
47023.621
47026.793
47029.494
47031.098
47032.709
47033.44
47034.458
47035.519
47036.514
47037.107
47037.923
47038.428
47039.569
47039.663
47040.869
47040.385
46145.964
46243.915
46232.937
46303.754
46308.401
46395.061
46398.835
46457.944
46481.064
46540.486
46585.158
46624.428
46656.897
46694.858
46734.359
46777.592
46801.912
46829.474
46858.068
46881.695
46898.504
46918.079
46936.008
46950.919
46964.977
46976.14
46985.204
46992.584
46998.911
47004.721
47010.302
47015.812
47019.959
47023.403
47026.528
47029.165
47030.876
47032.462
47033.236
47034.355
47035.49
47036.471
47037.015
47037.875
47038.43
47039.485
47039.661
47040.976
47040.401
46128.583
46214.822
46192.209
46281.541
46256.135
46360.678
46380.046
46453.209
46466.396
46518.54
46557.927
46615.06
46658.725
46690.047
46725.339
46764.667
46793.314
46824.488
46854.402
46878.321
46895.546
46914.903
46934.029
46949.43
46962.967
46974.579
46983.998
46991.301
46997.802
47003.801
47009.665
47015.303
47019.66
47023.221
47026.33
47028.835
47030.652
47032.209
47033.055
47034.279
47035.484
47036.395
47036.921
47037.929
47038.367
47039.38
47039.7
47041
47040.487
46069.724
46189.864
46132.078
46255.817
46238.644
46321.501
46356.919
46436.812
46454.738
46520.289
46549.357
46606.29
46645.528
46683.898
46722.634
46754.297
46785.912
46822.07
46853.553
46875.345
46893.134
46913.545
46932.644
46948.64
46961.387
46972.868
46982.633
46990.403
46996.913
47002.885
47009.095
47014.946
47019.374
47023.043
47026.146
47028.525
47030.437
47031.982
47032.907
47034.258
47035.418
47036.311
47036.876
47037.999
47038.27
47039.449
47039.783
47040.961
47040.625
46002.263
46117.71
46131.436
46221.06
46236.407
46298.433
46326.315
46405.238
46437.231
46516.966
46548.871
46609.312
46636.671
46681.945
46721.028
46752.354
46785.282
46821.962
46852.104
46873.298
46892.909
46912.754
46931.473
46947.513
46960.549
46972.029
46981.519
46989.491
46996.126
47002.127
47008.632
47014.732
47019.164
47022.835
47025.971
47028.306
47030.238
47031.773
47032.812
47034.227
47035.35
47036.277
47036.84
47037.999
47038.263
47039.563
47039.8
47040.929
47040.831
45994.27
46054.651