/*--------------------------------*- C++ -*----------------------------------*\
| =========                 |                                                 |
| \\      /  F ield         | OpenFOAM: The Open Source CFD Toolbox           |
|  \\    /   O peration     | Version:  2506                                  |
|   \\  /    A nd           | Website:  www.openfoam.com                      |
|    \\/     M anipulation  |                                                 |
\*---------------------------------------------------------------------------*/
FoamFile
{
    version     2.0;
    format      ascii;
    arch        "LSB;label=32;scalar=64";
    class       volVectorField;
    location    "1.55";
    object      U;
}
// * * * * * * * * * * * * * * * * * * * * * * * * * * * * * * * * * * * * * //

dimensions      [0 1 -1 0 0 0 0];

internalField   nonuniform List<vector> 
1376
(
(94.026376 -0.015885708 -1.8205164e-18)
(94.279222 -0.008484628 1.8021575e-18)
(94.420619 -0.015177245 -1.4261437e-17)
(94.488661 -0.01822175 2.1156684e-17)
(93.750611 0.019953677 2.8946893e-17)
(94.048558 -0.011414771 -1.6129255e-17)
(94.29926 -0.0050105208 1.5966719e-17)
(94.438598 -0.013040567 1.9402463e-22)
(94.50516 -0.017365387 -1.3890372e-17)
(94.534824 -0.021693474 0)
(94.548014 -0.025820069 1.3576161e-17)
(94.554284 -0.030362195 1.341287e-17)
(94.557371 -0.034314956 0)
(94.558439 -0.038162498 -3.9233538e-17)
(94.558283 -0.041943956 1.290805e-17)
(93.772814 0.02414158 -1.4245129e-17)
(94.071273 -0.006914049 1.2348865e-17)
(94.320252 -0.00091168984 -1.2225475e-17)
(94.457586 -0.009421274 2.7653132e-17)
(94.522602 -0.014420816 6.8391417e-18)
(94.551299 -0.01940855 -6.7636801e-18)
(94.563877 -0.023900784 0)
(94.569619 -0.028144826 0)
(94.572139 -0.03271209 1.3048996e-17)
(94.572737 -0.034907615 1.2888638e-17)
(94.572355 -0.039769027 -1.1824593e-22)
(94.571131 -0.042840611 1.2545466e-17)
(94.569074 -0.04591635 0)
(94.566564 -0.049316376 -1.2175628e-17)
(94.563821 -0.052908 -2.3966733e-17)
(94.560961 -0.056796161 1.1785435e-17)
(93.796385 0.022227891 1.4021278e-17)
(94.095925 -0.010831121 0)
(94.343359 -0.0046218605 1.3755042e-17)
(94.478587 -0.014489574 -1.3612783e-17)
(94.541901 -0.020540662 6.7338216e-18)
(94.569373 -0.026734561 -6.6600275e-18)
(94.581083 -0.03322982 1.3169167e-17)
(94.586062 -0.039330534 1.301276e-17)
(94.587729 -0.044074293 -3.8556769e-17)
(94.587783 -0.049879965 -1.2696745e-17)
(94.586976 -0.054826117 -1.1594432e-22)
(94.585265 -0.05920393 1.2364797e-17)
(94.582788 -0.062520625 0)
(94.579941 -0.065592129 2.4015015e-17)
(94.57686 -0.068013719 0)
(94.57368 -0.070057737 0)
(94.57051 -0.071469516 -1.143354e-17)
(94.567418 -0.072855486 1.7318556e-22)
(94.564491 -0.074552166 0)
(94.561666 -0.075367078 3.5182451e-22)
(93.821494 0.023462419 -1.380682e-17)
(94.122578 -0.010994752 1.7101504e-18)
(94.368466 -0.0034433937 -1.6934349e-18)
(94.501701 -0.013397341 3.3522294e-18)
(94.563517 -0.019518942 9.9503825e-18)
(94.589966 -0.025593828 0)
(94.600866 -0.032023272 -1.2975251e-17)
(94.605111 -0.039101684 -2.5644082e-17)
(94.606175 -0.044467739 2.534588e-17)
(94.60572 -0.0509883 1.3658923e-22)
(94.604237 -0.057594293 1.235652e-17)
(94.601786 -0.063539206 -2.4377793e-17)
(94.598648 -0.069288155 1.2017035e-17)
(94.59512 -0.074762384 -1.1841145e-17)
(94.591301 -0.079932478 -1.1659993e-17)
(94.587368 -0.084816003 0)
(94.583454 -0.089248678 1.1283679e-17)
(94.579654 -0.092849087 1.7599824e-22)
(94.576069 -0.095814471 0)
(94.572809 -0.099030045 4.2726496e-17)
(94.569829 -0.10022015 -2.0941674e-17)
(94.56698 -0.099208044 2.050947e-17)
(94.564316 -0.10037566 -2.006812e-17)
(94.561641 -0.099127032 0)
(94.558557 -0.096278113 0)
(93.845799 0.026774954 0)
(94.147497 -0.0064266923 -1.3473849e-17)
(94.391207 0.001505406 3.3359668e-18)
(94.522231 -0.0073140695 -3.3022805e-18)
(94.582559 -0.012623843 -1.3071774e-17)
(94.608174 -0.017942154 6.4657395e-18)
(94.618531 -0.023447226 2.5209945e-23)
(94.622384 -0.029179101 -6.3192253e-18)
(94.623379 -0.033750169 -1.2494454e-17)
(94.622999 -0.040113516 0)
(94.621352 -0.04624333 0)
(94.618816 -0.052086516 1.2022309e-17)
(94.615634 -0.057914199 -1.1855033e-17)
(94.611934 -0.064019357 0)
(94.607807 -0.070746914 1.1506038e-17)
(94.603379 -0.077323424 -1.1324079e-17)
(94.598733 -0.08421701 0)
(94.594057 -0.091614573 -2.1892446e-17)
(94.589461 -0.098263538 2.149984e-17)
(94.585 -0.10406239 -4.2195643e-17)
(94.580869 -0.11115774 -1.188805e-22)
(94.577105 -0.11703604 2.026704e-17)
(94.573559 -0.12011562 3.9675797e-17)
(94.570316 -0.12514232 -1.9400967e-17)
(94.56724 -0.12732238 0)
(94.564051 -0.12651089 1.8497548e-17)
(94.560776 -0.12685258 -5.4095946e-17)
(94.557217 -0.12338729 3.5109937e-17)
(94.552902 -0.12084254 -3.4126179e-17)
(93.870259 0.018475794 0)
(94.171341 -0.015089995 1.6582418e-17)
(94.41224 -0.006525323 -3.2844079e-18)
(94.540601 -0.015407235 9.7537632e-18)
(94.599134 -0.020378518 3.2175682e-18)
(94.623608 -0.025760456 1.2733092e-17)
(94.633215 -0.031622493 -6.2964446e-18)
(94.63656 -0.037479572 6.2243826e-18)
(94.637369 -0.041826925 2.4617765e-17)
(94.636967 -0.04828046 -2.4330746e-17)
(94.635308 -0.053217951 -1.2010333e-17)
(94.633022 -0.058343382 -1.3715397e-22)
(94.630263 -0.062151333 0)
(94.627041 -0.066315165 -1.1525998e-17)
(94.623433 -0.069981733 0)
(94.619444 -0.073533662 1.117965e-17)
(94.615073 -0.077027052 2.1996886e-17)
(94.610398 -0.080685596 -2.1624281e-17)
(94.60558 -0.085915617 -1.4800819e-22)
(94.600699 -0.091393398 4.1697406e-17)
(94.59571 -0.096192335 2.0445078e-17)
(94.59083 -0.10385058 -2.7954481e-22)
(94.586152 -0.11184045 1.9611704e-17)
(94.581491 -0.11752599 -2.4413718e-22)
(94.576962 -0.12603655 3.7486588e-17)
(94.572499 -0.13260808 0)
(94.568061 -0.13867548 3.5689367e-17)
(94.563872 -0.14360614 -3.4771267e-17)
(94.559911 -0.14775611 1.6919467e-17)
(94.55594 -0.15247614 -1.6443403e-17)
(94.551609 -0.15286863 1.5955754e-17)
(94.546955 -0.14959183 1.5462556e-17)
(94.542423 -0.1444036 -2.9937215e-17)
(93.896771 0.011718446 1.6479792e-18)
(94.197034 -0.024829526 -1.7964395e-17)
(94.434996 -0.014424043 6.469463e-18)
(94.560708 -0.023854336 -1.601067e-17)
(94.61756 -0.028179133 -1.2675422e-17)
(94.640937 -0.033161769 -1.2540589e-17)
(94.649752 -0.038885792 2.5752817e-22)
(94.652429 -0.044779731 6.1303203e-18)
(94.652801 -0.049611067 -6.0617485e-18)
(94.651903 -0.056646304 0)
(94.649766 -0.06276163 2.366534e-17)
(94.647142 -0.068787265 1.1680249e-17)
(94.644172 -0.074492897 -1.1524056e-17)
(94.640933 -0.080747061 1.136401e-17)
(94.637485 -0.086185011 0)
(94.633747 -0.091387179 1.1030096e-17)
(94.629784 -0.096601662 2.1712799e-17)
(94.625599 -0.10079536 -2.1354935e-17)
(94.621161 -0.10373259 1.0493169e-17)
(94.616637 -0.10716022 -2.0609296e-17)
(94.612057 -0.10954417 -2.0220803e-17)
(94.607217 -0.10913223 -3.9641661e-17)
(94.6023 -0.11083044 1.9411876e-17)
(94.597357 -0.11284542 -3.798378e-17)
(94.592138 -0.11441384 -4.3922435e-22)
(94.586783 -0.11941711 0)
(94.581216 -0.1221406 -1.7672863e-17)
(94.575551 -0.13022369 -1.721753e-17)
(94.570117 -0.13668295 1.6759421e-17)
(94.56488 -0.14396184 1.6297605e-17)
(94.559729 -0.15348051 -3.1656081e-17)
(94.554522 -0.16215297 0)
(94.549699 -0.16999403 1.486852e-17)
(94.545502 -0.17426005 -1.4389129e-17)
(94.541522 -0.1761914 -2.7819632e-17)
(94.53736 -0.17310154 5.3700279e-17)
(93.922407 0.01702357 1.2988315e-17)
(94.221538 -0.020555403 1.2872223e-17)
(94.456569 -0.009677964 3.1870493e-18)
(94.579923 -0.019424603 -2.2085663e-17)
(94.635477 -0.023412264 1.8736305e-17)
(94.658254 -0.02786101 -1.2358645e-17)
(94.666813 -0.033039914 1.2223783e-17)
(94.669361 -0.038042363 1.208513e-17)
(94.669661 -0.042185977 -1.1951073e-17)
(94.66872 -0.049720144 -1.1813587e-17)
(94.666548 -0.055340407 -1.1666509e-17)
(94.663807 -0.061961413 1.1102471e-22)
(94.660707 -0.06858407 1.1363786e-17)
(94.657361 -0.07620698 -1.0934606e-22)
(94.653799 -0.083591588 0)
(94.649919 -0.091295442 -7.6978286e-23)
(94.645725 -0.098634781 1.0712608e-17)
(94.641284 -0.10657723 -1.0792873e-22)
(94.636625 -0.11406316 -1.0361015e-17)
(94.631692 -0.12003094 -4.0712662e-17)
(94.626705 -0.12720851 3.9965232e-17)
(94.621753 -0.13364926 -1.9599042e-17)
(94.616641 -0.13693854 1.9205738e-17)
(94.611591 -0.1409124 0)
(94.606607 -0.14114022 -1.8392078e-17)
(94.601504 -0.13987112 3.5938939e-17)
(94.596403 -0.13988245 -1.7537473e-17)
(94.591061 -0.13381017 1.7095425e-17)
(94.585434 -0.13140847 0)
(94.579841 -0.12937539 -1.6185312e-17)
(94.574421 -0.12971174 -1.161181e-22)
(94.569155 -0.13273775 1.5251455e-17)
(94.563262 -0.14043142 1.4773243e-17)
(94.556459 -0.15475464 -2.8588138e-17)
(94.549695 -0.16669331 0)
(94.544013 -0.17819603 -2.6704865e-17)
(94.539023 -0.1870701 -3.8648535e-17)
(94.533092 -0.19622904 -1.2408218e-17)
(94.524427 -0.19756819 2.3855411e-17)
(93.94612 0.015456499 -1.2791869e-17)
(94.2438 -0.021938435 0)
(94.476246 -0.012235571 3.1384795e-18)
(94.597457 -0.022827451 2.1749404e-17)
(94.65175 -0.027533974 6.1506761e-18)
(94.673985 -0.033049389 6.0865619e-18)
(94.682383 -0.038790501 1.8062124e-17)
(94.684921 -0.044589277 5.9535437e-18)
(94.685215 -0.047778082 -2.3555189e-17)
(94.684401 -0.055199807 1.1644742e-17)
(94.682491 -0.05910345 1.1502823e-17)
(94.680042 -0.063517712 1.1358477e-17)
(94.677316 -0.067501155 2.2420925e-17)
(94.674417 -0.071681984 -2.2117909e-17)
(94.671323 -0.075719826 0)
(94.668009 -0.080574897 2.148634e-17)
(94.664357 -0.085454015 -3.1735176e-17)
(94.660198 -0.091082312 1.0408603e-17)
(94.655621 -0.099014955 -1.0234862e-17)
(94.650558 -0.10755024 0)
(94.644785 -0.11547892 1.9744798e-17)
(94.638597 -0.12609122 1.9370055e-17)
(94.632127 -0.13586646 0)
(94.625335 -0.14390491 0)
(94.618727 -0.15480267 -1.8194829e-17)
(94.61242 -0.16175247 -1.7787096e-17)
(94.606407 -0.16765394 -1.7372421e-17)
(94.600707 -0.17192403 1.6076624e-22)
(94.595138 -0.17346278 1.6518115e-17)
(94.589685 -0.17086463 0)
(94.584699 -0.16527171 1.5629028e-17)
(94.581232 -0.160247 -3.0362772e-17)
(94.579418 -0.15147126 2.945524e-17)
(94.577064 -0.14355242 1.891491e-22)
(94.570271 -0.14191734 0)
(94.559821 -0.14840478 -1.3281267e-17)
(94.550248 -0.15982011 -1.2815042e-17)
(94.542135 -0.17231079 2.4711735e-17)
(94.533592 -0.18748946 -2.3787706e-17)
(94.522961 -0.19520617 -2.2860507e-17)
(94.510844 -0.20635371 0)
(94.497768 -0.20701208 -2.1025e-17)
(93.971554 0.0081924606 0)
(94.268708 -0.031293082 0)
(94.4993 -0.020670125 3.0908037e-18)
(94.618667 -0.032158524 -2.1419504e-17)
(94.671738 -0.036834771 6.0574444e-18)
(94.693292 -0.042851468 0)
(94.701266 -0.049342029 -1.1859839e-17)
(94.703304 -0.055307975 -1.1736148e-17)
(94.70314 -0.060613512 3.1599785e-22)
(94.701726 -0.067975382 -1.1473048e-17)
(94.699258 -0.0733865 1.1335298e-17)
(94.696302 -0.07856494 -1.1195167e-17)
(94.693128 -0.08402142 -1.1052249e-17)
(94.689948 -0.089222836 -1.0905782e-17)
(94.686778 -0.093798919 1.0755661e-17)
(94.683661 -0.097625809 -2.1204005e-17)
(94.680565 -0.1010837 -1.0444328e-17)
(94.677319 -0.10331496 0)
(94.673693 -0.10407713 2.0229751e-17)
(94.669734 -0.10616301 -9.9430888e-18)
(94.665238 -0.10780242 -9.7661252e-18)
(94.659761 -0.10894267 -1.916499e-17)
(94.653491 -0.11499564 -1.8788823e-17)
(94.646357 -0.12138012 1.8401961e-17)
(94.638291 -0.12946725 3.6012557e-17)
(94.629861 -0.14209038 1.7603764e-17)
(94.621236 -0.15278571 3.4388297e-17)
(94.612903 -0.16788825 -3.3558027e-17)
(94.605043 -0.17740653 2.5045431e-22)
(94.597612 -0.18836566 -1.593021e-17)
(94.591084 -0.19555208 -1.5495501e-17)
(94.585903 -0.19774891 3.0105016e-17)
(94.583225 -0.20092948 -2.9217423e-17)
(94.583111 -0.20172603 1.1079952e-22)
(94.584181 -0.1980598 -1.3737687e-17)
(94.581062 -0.18837596 2.6541978e-17)
(94.570834 -0.18023267 0)
(94.55953 -0.17424507 1.2320499e-17)
(94.548523 -0.17604118 -1.1859725e-17)
(94.536169 -0.18240383 2.2804604e-17)
(94.522094 -0.18847472 -1.0949161e-17)
(94.50787 -0.20548226 -1.0501898e-17)
(94.493921 -0.21064018 -2.0119555e-17)
(94.479102 -0.21938757 3.8493142e-17)
(94.463003 -0.23278362 3.6759205e-17)
(93.998852 0.01458263 0)
(94.296685 -0.028447706 0)
(94.525832 -0.01711383 0)
(94.643569 -0.030639889 6.0320298e-18)
(94.695628 -0.036285622 -1.7913105e-17)
(94.716671 -0.042926238 5.9090929e-18)
(94.724406 -0.051033492 5.8459065e-18)
(94.726275 -0.057345487 0)
(94.725812 -0.064189449 1.1444687e-17)
(94.723809 -0.073502433 0)
(94.72078 -0.080443265 0)
(94.717085 -0.087746188 -1.1037714e-17)
(94.713072 -0.09570425 1.0896935e-17)
(94.708952 -0.10353119 0)
(94.704864 -0.11121242 -2.0922663e-22)
(94.700829 -0.11800634 2.0913398e-17)
(94.696765 -0.12417342 1.0303453e-17)
(94.692747 -0.1308774 2.029343e-17)
(94.688686 -0.13642831 -2.9957074e-17)
(94.684452 -0.14057676 9.820626e-18)
(94.680276 -0.14589827 9.6516786e-18)
(94.676021 -0.14923005 -9.4776862e-18)
(94.67135 -0.1496117 -1.8597683e-17)
(94.666397 -0.15061614 0)
(94.660742 -0.14744398 -1.7850187e-17)
(94.654075 -0.14582496 -3.491676e-17)
(94.646525 -0.14644459 1.7056522e-17)
(94.637844 -0.14642156 2.7438458e-22)
(94.628475 -0.15457451 1.6227063e-17)
(94.618864 -0.16264294 0)
(94.608984 -0.17648759 0)
(94.599672 -0.18938874 1.4933202e-17)
(94.592216 -0.19891999 1.4493444e-17)
(94.587658 -0.20693648 2.8135281e-17)
(94.586115 -0.21537332 -1.3649188e-17)
(94.585304 -0.22207765 -6.2064249e-23)
(94.581734 -0.22739374 3.8291032e-17)
(94.574881 -0.23078345 0)
(94.565656 -0.22893716 1.1850637e-17)
(94.5543 -0.22920469 -3.4189351e-17)
(94.540078 -0.21894584 4.210644e-22)
(94.524625 -0.21410839 0)
(94.509521 -0.2251535 0)
(94.493665 -0.22968548 -5.7771639e-17)
(94.477704 -0.2485659 -3.6813639e-17)
(94.456004 -0.18890489 -3.0729815e-17)
(94.445773 -0.32918302 -3.766207e-17)
(94.024809 0.025112912 0)
(94.323384 -0.017102369 0)
(94.55112 -0.0069630413 0)
(94.66714 -0.021415064 0)
(94.718073 -0.028437033 1.17707e-17)
(94.738682 -0.036299621 -1.1650125e-17)
(94.746375 -0.044609944 -1.1526255e-17)
(94.748606 -0.052506678 0)
(94.748622 -0.056970668 -1.1279295e-17)
(94.746807 -0.067407382 1.115538e-17)
(94.744056 -0.072199045 0)
(94.740554 -0.078871344 1.0890075e-17)
(94.736674 -0.085206417 -1.0752961e-17)
(94.732506 -0.09186182 0)
(94.728153 -0.098713935 -1.0469289e-17)
(94.72364 -0.10661721 0)
(94.718809 -0.11483653 0)
(94.713642 -0.12384203 -1.0016e-17)
(94.708398 -0.13484022 9.8579837e-18)
(94.702943 -0.14496266 9.6956615e-18)
(94.697192 -0.15417775 -9.5299187e-18)
(94.69161 -0.16516847 9.3616178e-18)
(94.686032 -0.17374492 0)
(94.680368 -0.18164108 -1.8024334e-17)
(94.675078 -0.19087806 0)
(94.669894 -0.19501122 3.4593485e-17)
(94.664912 -0.19887643 0)
(94.659875 -0.19645191 3.3065398e-17)
(94.654346 -0.19703407 -1.6132935e-17)
(94.648546 -0.19234108 3.1448559e-17)
(94.641358 -0.18154994 -1.5302905e-17)
(94.632071 -0.18362679 -1.4872458e-17)
(94.620543 -0.18046446 -2.886859e-17)
(94.609102 -0.18689218 2.5061188e-22)
(94.600339 -0.19082093 -1.3547751e-17)
(94.594872 -0.20536324 1.3123566e-17)
(94.590831 -0.21366479 -2.5406813e-17)
(94.584923 -0.22217932 0)
(94.577015 -0.23620258 0)
(94.567619 -0.24646237 2.277111e-17)
(94.556359 -0.26347589 3.2838876e-17)
(94.543617 -0.26270527 2.1018755e-17)
(94.529784 -0.26449884 2.291686e-22)
(94.513413 -0.26171768 9.6464551e-18)
(94.496588 -0.27415731 3.6896367e-17)
(94.4789 -0.21722749 3.5227309e-17)
(94.470719 -0.359901 4.1988578e-18)
(94.409544 -0.12801567 -3.9889525e-18)
(94.475373 -0.47565413 0)
(94.051034 0.017232891 0)
(94.350457 -0.024933666 0)
(94.577181 -0.015215976 -2.9572676e-18)
(94.6916 -0.029607541 8.7844074e-18)
(94.741284 -0.036570557 5.7974497e-18)
(94.761244 -0.044931406 -5.7384961e-18)
(94.768526 -0.053050061 2.2712535e-17)
(94.77052 -0.060077931 5.6171007e-18)
(94.770561 -0.067548648 1.111675e-17)
(94.768587 -0.075502286 -1.0996682e-17)
(94.76558 -0.081789247 -1.0869396e-17)
(94.762005 -0.087593328 2.1479679e-17)
(94.758139 -0.093883532 0)
(94.754171 -0.099605246 0)
(94.750076 -0.10450045 0)
(94.745884 -0.10919151 -2.0386303e-17)
(94.74167 -0.11407922 2.0095816e-17)
(94.73725 -0.11720757 9.8985704e-18)
(94.732559 -0.11997123 -2.9235919e-17)
(94.727842 -0.12499401 -9.5886026e-18)
(94.722685 -0.12867543 2.8278045e-17)
(94.716908 -0.13530797 0)
(94.710736 -0.14707551 0)
(94.703386 -0.15735632 2.0732258e-22)
(94.695097 -0.17211593 3.4937953e-17)
(94.68648 -0.18700009 -1.710677e-17)
(94.677924 -0.19820251 -1.6740036e-17)
(94.670876 -0.21368382 -1.6370511e-17)
(94.665002 -0.21674723 0)
(94.659529 -0.22591034 -4.6816182e-17)
(94.655285 -0.23878159 3.0435872e-17)
(94.651377 -0.23772541 -1.4819337e-17)
(94.645267 -0.2390739 -4.5102737e-22)
(94.63673 -0.23447562 1.3971498e-17)
(94.626559 -0.22614667 0)
(94.616611 -0.20911633 -1.3097862e-17)
(94.608574 -0.21064564 1.2665722e-17)
(94.60156 -0.20609395 -1.2235775e-17)
(94.593425 -0.20677008 1.1803088e-17)
(94.5837 -0.21407208 -1.1370562e-17)
(94.571898 -0.21733777 -1.0939197e-17)
(94.558306 -0.2382086 -2.1023141e-17)
(94.544725 -0.26022811 0)
(94.530384 -0.28346091 0)
(94.514876 -0.29040221 1.8495219e-17)
(94.504413 -0.25137994 0)
(94.505731 -0.3988544 0)
(94.426123 -0.1434703 -2.0060531e-18)
(94.477425 -0.56554759 -2.8655971e-17)
(94.080698 0.013637073 -1.1875941e-17)
(94.381395 -0.031849157 2.9424615e-18)
(94.607299 -0.021075354 1.3876102e-23)
(94.720327 -0.036801856 -8.6577741e-18)
(94.769025 -0.043967044 -1.7142482e-17)
(94.788379 -0.052231244 -5.6559193e-18)
(94.79517 -0.061242743 -5.596655e-18)
(94.796659 -0.067951982 0)
(94.796082 -0.07721106 2.3336099e-22)
(94.79333 -0.087139666 -1.0838983e-17)
(94.789406 -0.09524183 0)
(94.784915 -0.10315351 -1.058781e-17)
(94.780079 -0.11198086 0)
(94.775163 -0.1198413 0)
(94.77022 -0.12755368 0)
(94.765193 -0.13353492 -1.0056897e-17)
(94.760178 -0.13926571 1.9834241e-17)
(94.755272 -0.14465069 0)
(94.750224 -0.14766964 0)
(94.745296 -0.15020769 0)
(94.740901 -0.15252935 2.7973029e-17)
(94.736699 -0.15048184 1.2963103e-22)
(94.732891 -0.14947508 -9.0041142e-18)
(94.729542 -0.14699204 0)
(94.725395 -0.14278927 1.7326884e-17)
(94.719138 -0.14883759 -1.3529696e-22)
(94.708715 -0.15544465 -1.6586752e-17)
(94.69567 -0.16956775 -9.3995686e-23)
(94.683812 -0.19424627 3.1666166e-17)
(94.673387 -0.20944026 1.838016e-22)
(94.664284 -0.21971447 0)
(94.656461 -0.23492202 2.9379828e-17)
(94.64961 -0.24982646 -2.8589409e-17)
(94.642167 -0.25620467 0)
(94.633947 -0.26894533 1.3482974e-17)
(94.627088 -0.2776131 -1.3072618e-17)
(94.620846 -0.26795621 1.2653492e-17)
(94.614169 -0.27330144 -2.4457723e-17)
(94.607476 -0.25809655 -3.5413967e-17)
(94.599999 -0.25500833 1.1377771e-17)
(94.590857 -0.24986312 -1.0947952e-17)
(94.57795 -0.23301215 1.0518333e-17)
(94.562662 -0.24339107 -1.0095962e-17)
(94.54822 -0.2617962 2.9040364e-17)
(94.532487 -0.28217704 4.6347431e-18)
(94.521291 -0.22852463 -4.4346302e-18)
(94.537082 -0.40748766 -3.3889785e-17)
(94.457973 -0.11116341 0)
(94.477431 -0.6315461 3.0728129e-17)
(94.111523 0.024976805 1.1708175e-17)
(94.412756 -0.022341989 0)
(94.63718 -0.011166791 2.8735524e-18)
(94.748658 -0.028216584 -1.4227649e-17)
(94.79656 -0.035975424 1.6904404e-17)
(94.815587 -0.044680081 5.5775802e-18)
(94.822381 -0.054140449 1.1038813e-17)
(94.824088 -0.061517439 -2.1854715e-17)
(94.823641 -0.071327276 2.1627005e-17)
(94.820811 -0.082221582 1.0691094e-17)
(94.816807 -0.089773187 0)
(94.812065 -0.099439343 -1.0444159e-17)
(94.806778 -0.10900092 0)
(94.801043 -0.11878736 0)
(94.79504 -0.12925473 2.0112373e-17)
(94.78873 -0.14018741 -2.9764269e-17)
(94.781961 -0.15074055 -9.783427e-18)
(94.774974 -0.16222766 -2.8929832e-17)
(94.767967 -0.17373569 1.8999412e-17)
(94.760951 -0.18220467 1.8705945e-17)
(94.754523 -0.19073999 -2.7612242e-17)
(94.748882 -0.19835158 -1.8103584e-17)
(94.743789 -0.20240926 1.7791034e-17)
(94.739836 -0.20722944 0)
(94.737257 -0.20873664 -1.7148125e-17)
(94.736172 -0.2076886 1.3377067e-22)
(94.735848 -0.20507812 -3.3004303e-17)
(94.731553 -0.1895608 1.6124563e-17)
(94.721558 -0.18721003 -2.2982476e-22)
(94.709517 -0.1892446 1.5359646e-17)
(94.694354 -0.19359049 -3.7035024e-22)
(94.680051 -0.20757458 1.7986033e-22)
(94.667237 -0.21726086 0)
(94.655245 -0.24602054 0)
(94.644134 -0.24637439 1.3391301e-17)
(94.633511 -0.26661806 1.8388676e-22)
(94.625487 -0.28393858 -5.0376396e-17)
(94.619121 -0.28364954 3.6558052e-17)
(94.612263 -0.30279908 1.2005921e-22)
(94.605712 -0.29971179 0)
(94.600048 -0.31006054 1.0961602e-17)
(94.59325 -0.29797996 -1.0545421e-17)
(94.583681 -0.30064322 0)
(94.573177 -0.30730453 -2.4618308e-22)
(94.556239 -0.30972738 -2.2946351e-22)
(94.541762 -0.24979192 0)
(94.56389 -0.46177379 5.6428323e-22)
(94.496123 -0.095924865 3.2495087e-17)
(94.481467 -0.66852587 0)
(94.14091 0.021660052 -1.442433e-18)
(94.441428 -0.02395237 4.2886396e-18)
(94.663835 -0.012529238 1.0860894e-23)
(94.773541 -0.028576623 2.8045385e-18)
(94.820364 -0.035491015 -5.5531663e-18)
(94.838817 -0.043969959 -5.4977823e-18)
(94.845417 -0.052621654 -1.6322609e-17)
(94.847244 -0.058923695 1.0774175e-17)
(94.847177 -0.069037354 -1.0663502e-17)
(94.844676 -0.077424043 -2.1469287e-22)
(94.841161 -0.084376555 0)
(94.837083 -0.092237808 1.0305716e-17)
(94.832679 -0.10079506 0)
(94.827887 -0.10877792 0)
(94.822671 -0.1169521 0)
(94.817093 -0.12685396 0)
(94.810874 -0.13717145 9.6638193e-18)
(94.803792 -0.1475135 1.9050793e-17)
(94.796318 -0.15987237 0)
(94.788365 -0.17095673 0)
(94.779935 -0.18099694 -9.0914251e-18)
(94.771831 -0.19494442 0)
(94.76364 -0.20754273 -8.7865111e-18)
(94.755229 -0.21836395 8.6284444e-18)
(94.747867 -0.23141451 -1.6940935e-17)
(94.742372 -0.24109803 3.3251536e-17)
(94.739039 -0.25024449 0)
(94.736647 -0.26125134 -3.1961067e-17)
(94.732446 -0.26475214 1.5646159e-17)
(94.727205 -0.26720089 -1.5299394e-17)
(94.720428 -0.26257224 1.4926092e-17)
(94.711134 -0.26741611 2.9085754e-17)
(94.698987 -0.23885207 5.8974743e-23)
(94.685832 -0.23270994 -2.7502797e-17)
(94.674708 -0.2529291 1.3355873e-17)
(94.660084 -0.21582831 0)
(94.644364 -0.24581046 1.2540976e-17)
(94.633256 -0.26610088 0)
(94.623635 -0.26398588 2.347694e-17)
(94.613707 -0.29426684 2.2673492e-17)
(94.604679 -0.29723738 -1.0941014e-17)
(94.597982 -0.31285977 -2.0285481e-22)
(94.5938 -0.3119545 3.043947e-17)
(94.589915 -0.33374274 -1.94958e-17)
(94.581975 -0.35038307 -2.6495971e-22)
(94.569794 -0.26012957 4.4721622e-18)
(94.59121 -0.48000041 6.4171917e-17)
(94.532228 -0.10063021 -6.5409586e-17)
(94.493926 -0.72491904 0)
(94.171964 0.011195895 0)
(94.47145 -0.035139291 2.8172231e-18)
(94.691945 -0.023924659 8.3709185e-18)
(94.800062 -0.039893071 0)
(94.845758 -0.046672263 1.0943161e-17)
(94.863414 -0.055458778 -5.4162835e-18)
(94.869297 -0.064394827 1.4647246e-23)
(94.870591 -0.07121542 -5.3076101e-18)
(94.870006 -0.082445765 0)
(94.867043 -0.091488673 0)
(94.863072 -0.098921127 2.0554009e-17)
(94.858606 -0.10756027 -2.0321091e-17)
(94.854019 -0.11602778 -1.00426e-17)
(94.849433 -0.12386006 -9.9226228e-18)
(94.844689 -0.13047709 9.8000307e-18)
(94.839857 -0.13684171 9.6752018e-18)
(94.835046 -0.14369022 -9.5479413e-18)
(94.829867 -0.14907319 9.4160874e-18)
(94.824248 -0.15407665 9.2821684e-18)
(94.818358 -0.16024897 -4.5719567e-17)
(94.811675 -0.1631452 1.8002327e-17)
(94.804806 -0.16838542 -2.1317672e-22)
(94.798283 -0.17654512 2.6120548e-17)
(94.790676 -0.1813553 -3.4207605e-17)
(94.781617 -0.19385005 3.3565189e-17)
(94.770413 -0.20925997 -1.6447973e-17)
(94.757392 -0.22402558 -8.0537142e-18)
(94.746879 -0.24949769 0)
(94.737828 -0.25768617 1.5466411e-17)
(94.72849 -0.27540908 0)
(94.7207 -0.29188929 -8.68042e-23)
(94.712126 -0.28992415 0)
(94.704049 -0.3182367 -1.4068376e-17)
(94.696926 -0.31742095 1.3704796e-17)
(94.688768 -0.3156526 -2.8795844e-23)
(94.681605 -0.34070808 3.8862589e-17)
(94.671112 -0.29902057 -1.2550722e-17)
(94.658341 -0.28282762 0)
(94.648486 -0.29460225 -1.1754286e-17)
(94.635782 -0.27750053 -4.0030308e-22)
(94.620698 -0.27352157 0)
(94.61056 -0.28591612 1.054392e-17)
(94.603955 -0.28439728 -1.0157903e-17)
(94.598985 -0.29995517 0)
(94.596752 -0.33857689 -1.8760519e-17)
(94.581468 -0.2372386 1.7975832e-17)
(94.606991 -0.51603549 -1.2924024e-17)
(94.554722 -0.044361443 -2.0567119e-18)
(94.514895 -0.76223497 -1.9604607e-18)
(94.207457 0.012103366 0)
(94.505733 -0.037725824 8.3313394e-18)
(94.724123 -0.026622702 -8.2527093e-18)
(94.83075 -0.044574659 0)
(94.875552 -0.052227665 5.3943051e-18)
(94.892601 -0.062234977 1.0680281e-17)
(94.897869 -0.072093376 2.469314e-23)
(94.898569 -0.079775428 -5.2323957e-18)
(94.897225 -0.093045432 1.03581e-17)
(94.893618 -0.10308288 1.0245439e-17)
(94.888783 -0.11262144 -2.0264072e-17)
(94.883228 -0.12262264 1.1085813e-22)
(94.87729 -0.13271105 9.9010271e-18)
(94.871311 -0.14254417 9.7834714e-18)
(94.865264 -0.15172319 -1.9327977e-17)
(94.8591 -0.15967209 9.5420441e-18)
(94.853082 -0.16830641 -1.8837957e-17)
(94.847169 -0.1768217 0)
(94.840926 -0.18363346 9.1642787e-18)
(94.834549 -0.19135301 9.0327139e-18)
(94.828061 -0.19838009 -2.6692239e-17)
(94.821307 -0.20230865 3.5034799e-17)
(94.815237 -0.2076956 -1.7236008e-17)
(94.810088 -0.2089688 8.473699e-18)
(94.806052 -0.20776802 0)
(94.803496 -0.20745418 -1.6356494e-17)
(94.79838 -0.19256549 8.0125592e-18)
(94.788315 -0.18969232 3.1369554e-17)
(94.776263 -0.20611468 -3.0680161e-17)
(94.759887 -0.20274692 0)
(94.743149 -0.2447514 -2.9266482e-17)
(94.728658 -0.26063969 1.4284913e-17)
(94.715959 -0.28259667 -1.3947518e-17)
(94.705198 -0.30633752 1.3604223e-17)
(94.693993 -0.31212917 1.13478e-22)
(94.683238 -0.33133533 -1.2880065e-17)
(94.675053 -0.36047927 1.2508929e-17)
(94.666028 -0.36621891 -1.2134402e-17)
(94.656003 -0.35720792 2.7748612e-22)
(94.645936 -0.36255096 -2.276076e-17)
(94.635703 -0.36847969 -1.0987648e-17)
(94.625229 -0.33856781 1.0593248e-17)
(94.615512 -0.32008719 -1.0195669e-17)
(94.611698 -0.32889075 -9.8055607e-18)
(94.610118 -0.33909993 -9.4186707e-18)
(94.596566 -0.21707292 -1.3538535e-17)
(94.610408 -0.51998159 -1.7320348e-17)
(94.576157 -0.028600648 3.7290099e-17)
(94.550465 -0.73170611 -3.1626083e-17)
(94.244356 0.019882362 1.381925e-18)
(94.540903 -0.030860815 -1.2324455e-17)
(94.756553 -0.018788647 -1.0850407e-17)
(94.86133 -0.037912155 -5.3726223e-18)
(94.905168 -0.045904384 5.3197475e-18)
(94.921678 -0.056671804 1.0532707e-17)
(94.92675 -0.068086384 -5.2122455e-18)
(94.927373 -0.075547993 -5.1607047e-18)
(94.925982 -0.091925733 -1.0216919e-17)
(94.922566 -0.10259443 1.0105939e-17)
(94.917904 -0.11372864 -9.9946724e-18)
(94.912368 -0.12663134 9.8817581e-18)
(94.906129 -0.13880738 -9.7667457e-18)
(94.899445 -0.15118482 -9.650449e-18)
(94.892502 -0.16389299 -3.0311258e-22)
(94.88526 -0.17565593 3.7648614e-17)
(94.877863 -0.18640081 -1.8579902e-17)
(94.870593 -0.19824516 0)
(94.863083 -0.20868318 9.0396712e-18)
(94.855148 -0.21832534 0)
(94.847182 -0.23016065 2.6339512e-17)
(94.838673 -0.23947477 -1.7290291e-17)
(94.829874 -0.24871835 -2.5524698e-17)
(94.821757 -0.25980463 1.6738333e-17)
(94.814306 -0.2693081 -1.6454192e-17)
(94.808901 -0.28170358 1.6166733e-17)
(94.80602 -0.29345033 -7.9377018e-18)
(94.803757 -0.29436269 0)
(94.802614 -0.28564332 -7.643208e-18)
(94.800749 -0.27460484 0)
(94.793099 -0.24565737 1.4604152e-17)
(94.780002 -0.26592118 0)
(94.760718 -0.22350107 -1.3893854e-17)
(94.741981 -0.27100215 0)
(94.727043 -0.28056563 1.3177563e-17)
(94.709804 -0.29034463 -2.5613408e-17)
(94.693143 -0.31807273 1.437732e-22)
(94.677487 -0.32549254 2.8096688e-23)
(94.661275 -0.3531432 3.5156896e-17)
(94.648228 -0.37313087 -1.1353088e-17)
(94.637044 -0.36920687 1.0979287e-17)
(94.626377 -0.3852801 -3.1794661e-17)
(94.619014 -0.39148518 -3.0659357e-17)
(94.617518 -0.39134101 9.8495747e-18)
(94.620327 -0.42842977 0)
(94.61367 -0.28117266 0)
(94.614752 -0.53835833 4.3542397e-18)
(94.586502 -0.08649811 -2.0825086e-17)
(94.585509 -0.7081931 3.1929907e-17)
(94.278856 0.021315994 -1.3625368e-18)
(94.573735 -0.028583515 -1.3500501e-18)
(94.786914 -0.01752146 2.1393407e-17)
(94.890013 -0.036720011 -7.9439491e-18)
(94.932896 -0.045248119 -1.0487694e-17)
(94.94892 -0.056750739 -5.1917516e-18)
(94.953957 -0.068582745 -5.1384639e-18)
(94.954775 -0.077597152 1.0176163e-17)
(94.953854 -0.092995769 -1.0073903e-17)
(94.951211 -0.10420202 -9.9664006e-18)
(94.947736 -0.1155449 -9.8579706e-18)
(94.943687 -0.12905349 1.9497821e-17)
(94.939054 -0.14179077 -9.6376574e-18)
(94.933755 -0.15480673 0)
(94.927841 -0.16873787 -9.410104e-18)
(94.921324 -0.18307637 9.2929214e-18)
(94.914202 -0.19640625 4.4318527e-22)
(94.906834 -0.21034339 1.8107847e-17)
(94.899239 -0.22436855 -2.6793291e-17)
(94.890992 -0.23597846 -8.805822e-18)
(94.882548 -0.24913632 8.6775485e-18)
(94.873687 -0.26330306 0)
(94.863476 -0.27263024 0)
(94.852756 -0.28561166 -8.2735722e-18)
(94.841504 -0.29702873 1.6262949e-17)
(94.829679 -0.30718373 -1.5970794e-17)
(94.8195 -0.32067662 7.8437006e-18)
(94.811344 -0.33332311 0)
(94.804809 -0.34286269 1.2511163e-22)
(94.801725 -0.3594436 0)
(94.799955 -0.36701151 1.4513337e-17)
(94.795078 -0.35669488 0)
(94.78804 -0.37071394 0)
(94.77805 -0.33795641 2.7041965e-17)
(94.765581 -0.34299091 -2.6354162e-17)
(94.755019 -0.3221199 2.5650577e-17)
(94.739747 -0.29732446 -1.2459482e-17)
(94.718595 -0.33538969 -2.3162743e-22)
(94.693317 -0.31561968 -1.1711452e-17)
(94.669791 -0.3138375 -1.1337528e-17)
(94.651377 -0.35080556 1.853973e-23)
(94.636865 -0.36090973 2.1190673e-17)
(94.625772 -0.36660106 2.0465152e-17)
(94.620507 -0.37454635 0)
(94.622277 -0.41595114 0)
(94.61267 -0.29338441 0)
(94.617782 -0.57349518 -4.3831925e-18)
(94.579984 -0.10182598 2.0988979e-17)
(94.602663 -0.76791665 1.6114078e-17)
(94.31364 0.016224406 0)
(94.607542 -0.034564104 5.3227942e-18)
(94.819006 -0.025400983 -1.0543774e-17)
(94.920988 -0.045743567 1.0440867e-17)
(94.963257 -0.055070842 1.5507038e-17)
(94.979037 -0.067442696 5.1175201e-18)
(94.984067 -0.079699574 -1.5196785e-17)
(94.984966 -0.088093528 1.0032282e-17)
(94.984289 -0.10464034 9.9328485e-18)
(94.98211 -0.11364298 9.8274211e-18)
(94.979435 -0.12435272 9.7229149e-18)
(94.976521 -0.13558183 4.2947748e-23)
(94.973432 -0.14641914 -9.5106767e-18)
(94.969963 -0.15741794 0)
(94.965887 -0.16882989 9.2924665e-18)
(94.961073 -0.18137611 -1.8360298e-17)
(94.955278 -0.19399919 9.065639e-18)
(94.948586 -0.20713601 0)