/*--------------------------------*- C++ -*----------------------------------*\
| =========                 |                                                 |
| \\      /  F ield         | OpenFOAM: The Open Source CFD Toolbox           |
|  \\    /   O peration     | Version:  2506                                  |
|   \\  /    A nd           | Website:  www.openfoam.com                      |
|    \\/     M anipulation  |                                                 |
\*---------------------------------------------------------------------------*/
FoamFile
{
    version     2.0;
    format      ascii;
    arch        "LSB;label=32;scalar=64";
    class       volVectorField;
    location    "1.55";
    object      U;
}
// * * * * * * * * * * * * * * * * * * * * * * * * * * * * * * * * * * * * * //

dimensions      [0 1 -1 0 0 0 0];

internalField   nonuniform List<vector> 
1376
(
(93.992406 -0.013463149 -1.8112733e-18)
(94.249911 -0.0044454134 1.7933818e-18)
(94.392381 -0.0094717619 -1.4193276e-17)
(94.460182 -0.011762684 2.105717e-17)
(93.705817 0.014108596 2.8789591e-17)
(94.013027 -0.016027335 -1.6045336e-17)
(94.267234 -0.0068029076 1.5885739e-17)
(94.407174 -0.012182096 2.5313064e-22)
(94.473545 -0.014298185 -1.3821158e-17)
(94.502816 -0.016621454 0)
(94.515468 -0.019195696 1.3508324e-17)
(94.520926 -0.022032609 1.3344983e-17)
(94.522986 -0.025347397 0)
(94.52336 -0.028173644 -3.9033617e-17)
(94.522636 -0.031188631 1.2841909e-17)
(93.728563 0.013189308 -1.4167452e-17)
(94.03311 -0.018298075 1.2282732e-17)
(94.284036 -0.009339436 -1.2160577e-17)
(94.421485 -0.015861976 2.7506653e-17)
(94.486447 -0.018482027 6.8029234e-18)
(94.515079 -0.021168533 -6.7278406e-18)
(94.527551 -0.023991685 0)
(94.532999 -0.026659108 0)
(94.535073 -0.029473727 1.2979521e-17)
(94.535496 -0.031757113 1.2820136e-17)
(94.534786 -0.034122304 -1.215776e-22)
(94.532907 -0.037781782 1.2478474e-17)
(94.530361 -0.039946713 0)
(94.527345 -0.042556012 -1.2111586e-17)
(94.524069 -0.045537461 -2.3841223e-17)
(94.520652 -0.048640437 1.1724063e-17)
(93.752627 0.013247315 1.3945759e-17)
(94.054713 -0.020468408 0)
(94.30242 -0.010646819 1.3680309e-17)
(94.437257 -0.018577628 -1.3538426e-17)
(94.500597 -0.021931744 6.6970586e-18)
(94.528331 -0.025678674 -6.6238057e-18)
(94.540377 -0.029685391 1.3097972e-17)
(94.54563 -0.033754446 1.2943564e-17)
(94.547527 -0.037504109 -3.8352947e-17)
(94.547794 -0.040722554 -1.2629492e-17)
(94.546992 -0.045001968 -1.2183908e-22)
(94.545081 -0.048853383 1.229848e-17)
(94.542533 -0.051780386 0)
(94.539511 -0.054752688 2.3886483e-17)
(94.53622 -0.057799698 0)
(94.532777 -0.060468796 0)
(94.529223 -0.062901753 -1.1372202e-17)
(94.525594 -0.065116434 1.5593211e-22)
(94.521935 -0.067222043 0)
(94.518312 -0.069149835 3.0331173e-22)
(93.777303 0.016068132 -1.3731719e-17)
(94.077709 -0.019668211 1.7006319e-18)
(94.322591 -0.0096378889 -1.6838354e-18)
(94.455043 -0.01850921 3.3329682e-18)
(94.516786 -0.022231304 9.8929544e-18)
(94.54358 -0.026521624 0)
(94.555095 -0.03095496 -1.2901267e-17)
(94.56004 -0.035778554 -2.5499265e-17)
(94.561648 -0.040082819 2.5188719e-17)
(94.561689 -0.043472302 1.2795838e-22)
(94.560673 -0.048972061 1.2288778e-17)
(94.558631 -0.052944926 -2.4244601e-17)
(94.555942 -0.056713009 1.1951948e-17)
(94.552805 -0.060614795 -1.1777262e-17)
(94.549377 -0.064772607 -1.1597358e-17)
(94.545764 -0.068592279 0)
(94.542012 -0.072410694 1.1222863e-17)
(94.53816 -0.076077102 1.7239483e-22)
(94.534249 -0.079631807 0)
(94.530351 -0.082984164 4.2486718e-17)
(94.526499 -0.086150485 -2.0822865e-17)
(94.522658 -0.089064692 2.0392388e-17)
(94.518699 -0.091661364 -1.9951613e-17)
(94.514484 -0.093766637 0)
(94.509984 -0.094911756 0)
(93.801838 0.020355408 0)
(94.101178 -0.016668257 -1.339626e-17)
(94.343604 -0.0078559414 3.3162598e-18)
(94.473866 -0.017861941 -3.2823851e-18)
(94.534081 -0.022624098 -1.2992113e-17)
(94.559983 -0.027565533 6.4261549e-18)
(94.570964 -0.032482522 3.2629881e-23)
(94.575569 -0.037657453 -6.2805896e-18)
(94.576956 -0.042020489 -1.2419179e-17)
(94.576839 -0.045352514 0)
(94.575617 -0.051435043 0)
(94.573488 -0.055056256 1.1951345e-17)
(94.570701 -0.058908688 -1.1786143e-17)
(94.567511 -0.062975191 0)
(94.564046 -0.067127857 1.1441898e-17)
(94.560385 -0.070948032 -1.1262296e-17)
(94.55658 -0.074813722 0)
(94.552673 -0.078736505 -2.1776897e-17)
(94.548669 -0.082768705 2.1387492e-17)
(94.544551 -0.086860366 -4.1975358e-17)
(94.5403 -0.091316733 -1.3182818e-22)
(94.535888 -0.096188587 2.0157034e-17)
(94.531217 -0.1012613 3.9453288e-17)
(94.526157 -0.10640268 -1.9285545e-17)
(94.520721 -0.11177921 0)
(94.515129 -0.11697573 1.8376465e-17)
(94.509624 -0.12106292 -5.373114e-17)
(94.504336 -0.12391498 3.4875783e-17)
(94.499354 -0.12568688 -3.392e-17)
(93.8273 0.021958373 0)
(94.126183 -0.015877383 1.6490067e-17)
(94.36639 -0.0063171353 -3.2657718e-18)
(94.494424 -0.01724054 9.6976725e-18)
(94.553007 -0.022925156 3.1989313e-18)
(94.577889 -0.029078055 1.2658991e-17)
(94.588198 -0.035304297 -6.2596572e-18)
(94.592295 -0.041741555 6.1879433e-18)
(94.593397 -0.046940486 2.4473089e-17)
(94.593085 -0.052343779 -2.4187181e-17)
(94.591583 -0.059012396 -1.1939172e-17)
(94.589256 -0.063244093 -1.6195151e-22)
(94.586281 -0.067612207 0)
(94.582937 -0.072120416 -1.1457582e-17)
(94.579345 -0.076238587 0)
(94.57557 -0.079881515 1.1115139e-17)
(94.571674 -0.083125447 2.1873182e-17)
(94.567715 -0.08612222 -2.1506629e-17)
(94.563719 -0.0888405 -1.299984e-22)
(94.559639 -0.091314648 4.1486592e-17)
(94.555417 -0.093594453 2.0345769e-17)
(94.551012 -0.09595523 -3.0611191e-22)
(94.546395 -0.098973741 1.9519352e-17)
(94.541476 -0.10266004 -2.9977602e-22)
(94.536086 -0.10690295 3.7298344e-17)
(94.530166 -0.1127158 0)
(94.523809 -0.12068008 3.5479005e-17)
(94.517078 -0.12992433 -3.4544465e-17)
(94.51006 -0.13893498 1.6799161e-17)
(94.50311 -0.14676393 -1.6323183e-17)
(94.496791 -0.1543351 1.5846535e-17)
(94.491408 -0.15833328 1.5367759e-17)
(94.487134 -0.15660202 -2.9777916e-17)
(93.85305 0.022599046 1.6391149e-18)
(94.152198 -0.016297839 -1.7866375e-17)
(94.390607 -0.0058380189 6.4338877e-18)
(94.516747 -0.016712901 -1.5922491e-17)
(94.573952 -0.021733776 -1.2605737e-17)
(94.597961 -0.027508273 -1.2472138e-17)
(94.607646 -0.033483085 3.3915492e-22)
(94.611152 -0.039641271 6.0971768e-18)
(94.611864 -0.044632539 -6.0290838e-18)
(94.611246 -0.051091713 0)
(94.60931 -0.057923216 2.3537647e-17)
(94.60655 -0.063206761 1.1616555e-17)
(94.603186 -0.069063469 -1.1460385e-17)
(94.599467 -0.075240541 1.1300537e-17)
(94.595521 -0.081237143 0)
(94.591389 -0.08704007 1.0967243e-17)
(94.587105 -0.09260867 2.1588197e-17)
(94.582718 -0.097999736 -2.123262e-17)
(94.57827 -0.10306925 1.0433719e-17)
(94.573742 -0.10772802 -2.0493668e-17)
(94.569113 -0.11179998 -2.0109841e-17)
(94.564383 -0.11475721 -3.9432536e-17)
(94.559606 -0.11646264 1.9313407e-17)
(94.554883 -0.11731268 -3.7802761e-17)
(94.550259 -0.11719664 -4.0188877e-22)
(94.545648 -0.1157425 0)
(94.540937 -0.11371971 -1.7605119e-17)
(94.535998 -0.11294152 -1.7151871e-17)
(94.530326 -0.11509411 1.6686572e-17)
(94.522852 -0.12171706 1.6208141e-17)
(94.513201 -0.13213757 -3.144667e-17)
(94.50306 -0.1485155 0)
(94.494559 -0.16278204 1.4764993e-17)
(94.488669 -0.16643037 -1.4295842e-17)
(94.485804 -0.17731525 -2.7665237e-17)
(94.484619 -0.17852135 5.3480319e-17)
(93.878443 0.023181238 1.291447e-17)
(94.177865 -0.016265393 1.2798512e-17)
(94.414492 -0.0064183053 3.1688062e-18)
(94.538867 -0.017921177 -2.1959869e-17)
(94.594955 -0.023284468 1.8630095e-17)
(94.61837 -0.028948912 -1.2289149e-17)
(94.627688 -0.034865295 1.2155745e-17)
(94.630852 -0.040374878 1.2018208e-17)
(94.631311 -0.044775065 -1.1885398e-17)
(94.630516 -0.051863063 -1.1749514e-17)
(94.628308 -0.057611742 -1.1603708e-17)
(94.625234 -0.063001284 1.0169824e-22)
(94.62163 -0.068583136 1.1303167e-17)
(94.617681 -0.074811737 -9.0293547e-23)
(94.613544 -0.080781368 0)
(94.609225 -0.08685614 -8.8754893e-23)
(94.604708 -0.093011994 1.0655057e-17)
(94.599966 -0.09925542 -8.0056452e-23)
(94.594975 -0.10554897 -1.0303816e-17)
(94.589703 -0.11196723 -4.0485291e-17)
(94.584127 -0.11818153 3.9736284e-17)
(94.578265 -0.12424397 -1.9484305e-17)
(94.572243 -0.12995231 1.9091937e-17)
(94.566237 -0.13496917 0)
(94.560427 -0.13958878 -1.8282669e-17)
(94.554955 -0.14362396 3.5731969e-17)
(94.549913 -0.14618606 -1.7441292e-17)
(94.545474 -0.14657507 1.7009722e-17)
(94.542049 -0.14467107 0)
(94.539902 -0.13961427 -1.6135786e-17)
(94.53732 -0.13247517 -2.1856805e-22)
(94.530226 -0.12618521 1.5178437e-17)
(94.518022 -0.13387695 1.4685754e-17)
(94.504834 -0.15843084 -2.8394556e-17)
(94.494698 -0.16114356 0)
(94.489152 -0.17571496 -2.6546351e-17)
(94.485853 -0.18381346 -3.8443252e-17)
(94.480051 -0.19385136 -1.2343978e-17)
(94.469926 -0.20292492 2.3729824e-17)
(93.904978 0.020324388 -1.2720798e-17)
(94.204594 -0.019517935 0)
(94.439177 -0.0087994448 3.1212834e-18)
(94.561425 -0.021101556 2.1631704e-17)
(94.616153 -0.027340508 6.1176107e-18)
(94.638794 -0.034235953 6.0540104e-18)
(94.64763 -0.04163525 1.7965435e-17)
(94.650434 -0.048803878 5.9215721e-18)
(94.650681 -0.053388578 -2.3428428e-17)
(94.64966 -0.062202084 1.1581921e-17)
(94.647212 -0.067557247 1.1440463e-17)
(94.643909 -0.072880849 1.1296507e-17)
(94.640123 -0.077831654 2.2297798e-17)
(94.636034 -0.083199249 -2.1995737e-17)
(94.631819 -0.087754856 0)
(94.627498 -0.092556617 2.1367823e-17)
(94.623087 -0.097369609 -3.1562206e-17)
(94.618507 -0.10216291 1.0352743e-17)
(94.613643 -0.10701301 -1.018028e-17)
(94.60841 -0.1122706 0)
(94.60274 -0.11796059 1.9641032e-17)
(94.596577 -0.12383958 1.9266129e-17)
(94.589963 -0.13024918 0)
(94.583041 -0.13724324 0)
(94.575918 -0.14412432 -1.8085263e-17)
(94.568665 -0.15119949 -1.7674412e-17)
(94.561419 -0.15820964 -1.7257323e-17)
(94.554393 -0.16491808 2.872593e-23)
(94.548095 -0.17068951 1.6406692e-17)
(94.543521 -0.17636565 0)
(94.54165 -0.18017638 1.5536448e-17)
(94.54202 -0.17937966 -3.0210115e-17)
(94.542071 -0.17052892 2.9300339e-17)
(94.536326 -0.15918318 2.8764525e-22)
(94.522137 -0.16091298 0)
(94.507775 -0.16478072 -1.3201252e-17)
(94.49777 -0.17112857 -1.2737893e-17)
(94.489954 -0.18133061 2.4572886e-17)
(94.480452 -0.19197616 -2.3656399e-17)
(94.467898 -0.2076182 -2.2731372e-17)
(94.453707 -0.21670861 0)
(94.438485 -0.23182381 -2.0904091e-17)
(93.932142 0.017070593 0)
(94.232172 -0.02424062 0)
(94.464815 -0.011791112 3.0753237e-18)
(94.584973 -0.023725901 -2.1313914e-17)
(94.638317 -0.028624561 6.0278779e-18)
(94.660065 -0.034629481 0)
(94.668225 -0.041563904 -1.1802051e-17)
(94.670448 -0.04783075 -1.1678989e-17)
(94.670357 -0.053935159 2.7694751e-22)
(94.668806 -0.062353955 -1.1416062e-17)
(94.665905 -0.069001615 1.1278147e-17)
(94.662234 -0.075170508 -1.1137671e-17)
(94.658118 -0.08200051 -1.0994377e-17)
(94.653785 -0.08877089 -1.0847461e-17)
(94.64935 -0.09509498 1.0696994e-17)
(94.644872 -0.10168998 -2.108594e-17)
(94.640404 -0.10829822 -1.0385037e-17)
(94.63588 -0.11483986 0)
(94.63119 -0.12122828 2.0114094e-17)
(94.626257 -0.12732224 -9.8861924e-18)
(94.621061 -0.13323123 -9.711276e-18)
(94.615608 -0.13899147 -1.906193e-17)
(94.609875 -0.14411019 -1.8691705e-17)
(94.603822 -0.14889513 1.8311689e-17)
(94.597396 -0.15405841 3.5844021e-17)
(94.590379 -0.15885252 1.7522003e-17)
(94.582487 -0.16427707 3.4222624e-17)
(94.573719 -0.16988262 -3.3380293e-17)
(94.564386 -0.17687301 2.4755955e-22)
(94.555291 -0.18354634 -1.5818788e-17)
(94.548291 -0.19086725 -1.5387526e-17)
(94.544686 -0.19724021 2.9948572e-17)
(94.543367 -0.20505183 -2.9092113e-17)
(94.542562 -0.20852446 5.3192521e-23)
(94.540065 -0.21247226 -1.3668933e-17)
(94.532033 -0.20537087 2.6382993e-17)
(94.519762 -0.19870677 0)
(94.50879 -0.19729747 1.2254766e-17)
(94.498014 -0.19109268 -1.1797064e-17)
(94.485488 -0.19852096 2.2683326e-17)
(94.469578 -0.20143454 -1.0888919e-17)
(94.453463 -0.21888095 -1.0443169e-17)
(94.436666 -0.2347392 -2.0005225e-17)
(94.419673 -0.24719939 3.8269925e-17)
(94.403367 -0.26474717 3.6562365e-17)
(93.958995 0.018327437 0)
(94.25893 -0.025218353 0)
(94.489471 -0.014127044 0)
(94.607578 -0.027933413 6.0001312e-18)
(94.659649 -0.033875974 -1.7818773e-17)
(94.680704 -0.040891567 5.87811e-18)
(94.688445 -0.048436069 5.8152224e-18)
(94.690417 -0.055321772 0)
(94.690263 -0.06155554 1.1386114e-17)
(94.688434 -0.070811428 0)
(94.685434 -0.077142529 0)
(94.681687 -0.08293281 -1.0980994e-17)
(94.677453 -0.08907987 1.0841097e-17)
(94.672983 -0.094584222 0)
(94.668324 -0.099509733 -1.9053827e-22)
(94.663555 -0.1044059 2.0804573e-17)
(94.658703 -0.10905779 1.024899e-17)
(94.653721 -0.11373711 2.0183365e-17)
(94.648534 -0.11840045 -2.9791106e-17)
(94.643105 -0.12322647 9.7650096e-18)
(94.637457 -0.12807628 9.5952373e-18)
(94.631675 -0.13336173 -9.4213103e-18)
(94.625858 -0.13922601 -1.848726e-17)
(94.620007 -0.14487129 0)
(94.614076 -0.15026733 -1.7749912e-17)
(94.60807 -0.15607771 -3.4735596e-17)
(94.60187 -0.16078607 1.69759e-17)
(94.59522 -0.16660783 2.8788702e-22)
(94.587959 -0.17209237 1.6160379e-17)
(94.579676 -0.17932087 0)
(94.56999 -0.18568929 0)
(94.560156 -0.19499709 1.485074e-17)
(94.552132 -0.20281439 1.4406472e-17)
(94.547025 -0.20920608 2.7995861e-17)
(94.543774 -0.22267946 -1.3576226e-17)
(94.539409 -0.23282214 -9.699356e-23)
(94.532602 -0.24691205 3.805933e-17)
(94.52424 -0.24485612 0)
(94.515537 -0.25642306 1.1788095e-17)
(94.505472 -0.24042447 -3.4020149e-17)
(94.491945 -0.24757283 3.8528754e-22)
(94.475975 -0.22748008 0)
(94.457984 -0.24434066 0)
(94.439183 -0.24741218 -5.7448623e-17)
(94.420602 -0.26839374 -3.660528e-17)
(94.403742 -0.22773885 -3.0578889e-17)
(94.399877 -0.37129882 -3.7479701e-17)
(93.987525 0.01839761 0)
(94.286912 -0.0264 0)
(94.515101 -0.0156763 0)
(94.630939 -0.031221035 0)
(94.681573 -0.038730636 1.1703375e-17)
(94.701882 -0.047691401 -1.1583289e-17)
(94.709321 -0.057208094 -1.1460056e-17)
(94.711276 -0.064959859 0)
(94.711265 -0.073238171 -1.1222498e-17)
(94.709458 -0.083094882 1.1091923e-17)
(94.706694 -0.089871889 0)
(94.703137 -0.09580015 1.0828627e-17)
(94.699031 -0.1024804 -1.069267e-17)
(94.694595 -0.10800139 0)
(94.689871 -0.11370803 -1.0411727e-17)
(94.684965 -0.11941866 0)
(94.679888 -0.12545457 0)
(94.674637 -0.13179497 -9.9635086e-18)
(94.669165 -0.13841159 9.8065071e-18)
(94.663423 -0.14493687 9.6454097e-18)
(94.65739 -0.15159537 -9.4801924e-18)
(94.651095 -0.15801074 9.3111211e-18)
(94.644564 -0.16422946 0)
(94.637815 -0.17088857 -1.7920629e-17)
(94.630798 -0.17706289 0)
(94.623596 -0.18254598 3.4375388e-17)
(94.616569 -0.18852161 0)
(94.609872 -0.1910252 3.2853636e-17)
(94.603411 -0.19323631 -1.6034963e-17)
(94.597343 -0.19413573 3.1272683e-17)
(94.591601 -0.19484029 -1.5226987e-17)
(94.585072 -0.19161872 -1.4802608e-17)
(94.576724 -0.19255997 -2.873016e-17)
(94.567693 -0.19157132 1.684295e-22)
(94.560057 -0.19756829 -1.3487417e-17)
(94.553528 -0.20559185 1.30616e-17)
(94.546348 -0.21334331 -2.5264326e-17)
(94.537176 -0.23321264 0)
(94.527142 -0.23879521 0)
(94.517297 -0.26762253 2.2644086e-17)
(94.507696 -0.2712922 3.2667118e-17)
(94.495241 -0.27999281 2.0910912e-17)
(94.481334 -0.28436612 1.572034e-22)
(94.464058 -0.28658088 9.5962487e-18)
(94.445192 -0.28736022 3.6688302e-17)
(94.433266 -0.2359868 3.504409e-17)
(94.434983 -0.39850769 4.1781665e-18)
(94.339744 -0.14298215 -3.9731936e-18)
(94.404873 -0.5902581 0)
(94.017648 0.016374738 0)
(94.31687 -0.030666144 0)
(94.543022 -0.018104048 -2.9417235e-18)
(94.65681 -0.033789865 8.7380796e-18)
(94.706124 -0.040278937 5.7667538e-18)
(94.725624 -0.048144726 -5.7079074e-18)
(94.732533 -0.057220468 2.259069e-17)
(94.734297 -0.0646722 5.5903175e-18)
(94.734152 -0.073554893 1.1063034e-17)
(94.732234 -0.084841388 -1.0936267e-17)
(94.729562 -0.092336333 -1.0809454e-17)
(94.726115 -0.10087333 2.1360041e-17)
(94.722211 -0.10967223 0)
(94.717946 -0.11740466 0)
(94.713352 -0.1249759 0)
(94.70851 -0.13220076 -2.0268735e-17)
(94.703448 -0.13911415 1.9979408e-17)
(94.698195 -0.14567134 9.8417941e-18)
(94.692764 -0.15192283 -2.906971e-17)
(94.687133 -0.15764142 -9.534466e-18)
(94.681257 -0.16293337 2.8123201e-17)
(94.675128 -0.16841796 0)
(94.668694 -0.17405971 0)
(94.661884 -0.17992289 1.5443804e-22)
(94.654595 -0.1868928 3.4771073e-17)
(94.646541 -0.19417954 -1.7022042e-17)
(94.637753 -0.20156876 -1.6649636e-17)
(94.62878 -0.21315664 -1.6272569e-17)
(94.619803 -0.22140202 0)
(94.610951 -0.22914426 -4.6501487e-17)
(94.603076 -0.23650565 3.0217988e-17)
(94.596621 -0.24357674 -1.4711821e-17)
(94.591145 -0.24625416 -3.8421904e-22)
(94.586068 -0.24267924 1.3891974e-17)
(94.580485 -0.23615815 0)
(94.574648 -0.22640908 -1.3038145e-17)
(94.568219 -0.21929244 1.260693e-17)
(94.560306 -0.21897827 -1.2171719e-17)
(94.54912 -0.21961406 1.1733538e-17)
(94.536697 -0.22840157 -1.1300962e-17)
(94.52409 -0.23530929 -1.0875301e-17)
(94.510492 -0.25664537 -2.0902839e-17)
(94.496442 -0.27319131 0)
(94.481578 -0.30178486 0)
(94.467116 -0.31043171 1.8396593e-17)
(94.458244 -0.25989543 0)
(94.475632 -0.4258913 0)
(94.383206 -0.12541861 -1.9980752e-18)
(94.403011 -0.65732336 -2.8543826e-17)
(94.046595 0.022119985 -1.1814145e-17)
(94.345357 -0.025684886 2.9271725e-18)
(94.569839 -0.013478912 2.1673192e-23)
(94.682133 -0.029879804 -8.6121153e-18)
(94.730588 -0.036559437 -1.7051913e-17)
(94.749672 -0.044663617 -5.6259653e-18)
(94.756225 -0.052767727 -5.5669749e-18)
(94.75776 -0.059675641 0)
(94.757475 -0.069095251 2.1759316e-22)
(94.755509 -0.0788974 -1.0781705e-17)
(94.752739 -0.08482417 0)
(94.749259 -0.092395151 -1.0532314e-17)
(94.74538 -0.099064075 0)
(94.741076 -0.10472322 0)
(94.736372 -0.11012771 0)
(94.731322 -0.11531989 -1.0002569e-17)
(94.725981 -0.12072001 1.9724335e-17)
(94.720403 -0.1264669 0)
(94.714642 -0.13274997 0)
(94.70872 -0.13952434 0)
(94.702634 -0.14670073 2.7801668e-17)
(94.696387 -0.15393304 2.040923e-22)
(94.689983 -0.1613852 -8.9472327e-18)
(94.683413 -0.16887096 0)
(94.676773 -0.17642754 1.7221725e-17)
(94.670135 -0.1834894 -2.1301686e-22)
(94.663049 -0.18994557 -1.6514198e-17)
(94.655067 -0.19550378 -1.528262e-22)
(94.646012 -0.2075975 3.1535631e-17)
(94.635267 -0.21854833 3.4577693e-22)
(94.622938 -0.23028377 0)
(94.61117 -0.24408341 2.91869e-17)
(94.601609 -0.25485607 -2.8403344e-17)
(94.594038 -0.26691798 0)
(94.587701 -0.27558955 1.3400178e-17)
(94.582619 -0.28170646 -1.2991867e-17)
(94.578367 -0.28343983 1.2580995e-17)
(94.574287 -0.2807473 -2.433387e-17)
(94.569164 -0.2818071 -3.5234704e-17)
(94.561357 -0.26599261 1.131521e-17)
(94.549509 -0.26994584 -1.0884775e-17)
(94.535937 -0.25471463 1.0458833e-17)
(94.519469 -0.26169534 -1.0037682e-17)
(94.503056 -0.28809103 2.8873466e-17)
(94.48759 -0.31342593 4.608993e-18)
(94.472526 -0.24620287 -4.4098011e-18)
(94.505846 -0.46085365 -3.3724244e-17)
(94.430674 -0.085432074 0)
(94.404984 -0.6930694 3.0513297e-17)
(94.076894 0.02341214 1.1640297e-17)
(94.374574 -0.025796454 0)
(94.597562 -0.015789773 2.8563345e-18)
(94.708678 -0.034208227 -1.4141396e-17)
(94.756518 -0.042698923 1.6801444e-17)
(94.775482 -0.05355705 5.5434639e-18)
(94.782061 -0.063792738 1.0971423e-17)
(94.783539 -0.071203266 -2.1722679e-17)
(94.783318 -0.0845598 2.1497831e-17)
(94.781394 -0.094101291 1.0627726e-17)
(94.778433 -0.10286544 0)
(94.774872 -0.11288326 -1.0383995e-17)
(94.770881 -0.12253575 0)
(94.76639 -0.13180268 0)
(94.761406 -0.14114807 2.0003073e-17)
(94.755982 -0.15030656 -2.9605385e-17)
(94.75019 -0.15891928 -9.732235e-18)
(94.744115 -0.16698156 -2.8779852e-17)
(94.737833 -0.17385337 1.8901792e-17)
(94.731363 -0.17930631 1.8610431e-17)
(94.724694 -0.18342535 -2.7467565e-17)
(94.717805 -0.18640188 -1.800576e-17)
(94.710697 -0.18866276 1.769181e-17)
(94.703408 -0.19036822 0)
(94.696001 -0.19178493 -1.7042999e-17)
(94.688766 -0.19563879 3.0011954e-22)
(94.682064 -0.19923855 -3.273219e-17)
(94.675743 -0.2026228 1.6016003e-17)
(94.669534 -0.2042207 -1.7841066e-22)
(94.66279 -0.20951895 1.5288872e-17)
(94.653831 -0.21389158 -3.9975103e-22)
(94.641371 -0.21806848 1.9075574e-22)
(94.626986 -0.23211874 0)
(94.613592 -0.23800477 0)
(94.602265 -0.25489605 1.3316427e-17)
(94.593136 -0.26492882 1.6706691e-22)
(94.586007 -0.28097197 -5.0077604e-17)
(94.579689 -0.29287257 3.6353351e-17)
(94.573613 -0.29888466 3.3707056e-22)
(94.567988 -0.30993822 0)
(94.561992 -0.308263 1.0903152e-17)
(94.555195 -0.30855295 -1.0491126e-17)
(94.547299 -0.30119562 0)
(94.53701 -0.31360128 -4.6059989e-22)
(94.519051 -0.32891922 -4.0299005e-22)
(94.49569 -0.24260206 0)
(94.524928 -0.50357443 7.4132263e-22)
(94.470006 -0.077621419 3.2338033e-17)
(94.417152 -0.7175369 0)
(94.112148 0.023312577 -1.4342533e-18)
(94.409289 -0.02630367 4.2636808e-18)
(94.631032 -0.013712153 9.0756893e-24)
(94.740995 -0.032019267 2.7880719e-18)
(94.788099 -0.040171787 -5.520308e-18)
(94.806685 -0.050763374 -5.4653589e-18)
(94.813134 -0.061953564 -1.6226201e-17)
(94.814618 -0.069385309 1.0710071e-17)
(94.814472 -0.084300636 -1.0600058e-17)
(94.812518 -0.094253778 -2.4890668e-22)
(94.809533 -0.10445629 0)
(94.806071 -0.11627831 1.0244813e-17)
(94.802146 -0.12771124 0)
(94.79766 -0.13875849 0)
(94.79253 -0.14978032 0)
(94.786739 -0.16013379 0)
(94.780348 -0.17055006 9.6104721e-18)
(94.773514 -0.1808031 1.8949631e-17)
(94.76639 -0.19124398 0)
(94.759067 -0.20198099 0)
(94.751563 -0.21276325 -9.0491364e-18)
(94.743851 -0.22350816 0)
(94.735893 -0.23391426 -8.7485869e-18)
(94.727628 -0.24439243 8.5923404e-18)
(94.719082 -0.25354031 -1.6865692e-17)
(94.710336 -0.25710704 3.3077731e-17)
(94.701644 -0.26213055 0)
(94.693503 -0.26538446 -3.1735961e-17)
(94.686175 -0.26871594 1.552464e-17)
(94.679815 -0.2699414 -1.5176331e-17)
(94.673934 -0.27266892 1.4819879e-17)
(94.667495 -0.27340287 2.8905127e-17)
(94.658526 -0.25892861 -2.5327837e-23)
(94.646428 -0.26622843 -2.735441e-17)
(94.633585 -0.25886966 1.3281342e-17)
(94.620827 -0.26574072 0)
(94.608689 -0.26400261 1.2480795e-17)
(94.597312 -0.26850648 0)
(94.586234 -0.27459506 2.334651e-17)
(94.576184 -0.29705433 2.255487e-17)
(94.567107 -0.29702542 -1.0884031e-17)
(94.5592 -0.31074325 -1.9340956e-22)
(94.554857 -0.31195691 3.0281201e-17)
(94.554369 -0.330004 -1.9408614e-17)
(94.55006 -0.36249244 -3.6773594e-22)
(94.529254 -0.24317067 4.4465869e-18)
(94.545004 -0.52051699 6.3804747e-17)
(94.500763 -0.070192491 -6.5064713e-17)
(94.437485 -0.75013769 0)
(94.14742 0.031870712 0)
(94.444304 -0.017472685 2.8030661e-18)
(94.664958 -0.002524117 8.3290488e-18)
(94.773757 -0.019817884 0)
(94.819929 -0.026723855 1.0889376e-17)
(94.8377 -0.036050367 -5.3897026e-18)
(94.843497 -0.04575163 2.322709e-23)
(94.84469 -0.051863547 -5.2812397e-18)
(94.844058 -0.065090497 0)
(94.841552 -0.072630424 0)
(94.838146 -0.080420995 2.0450769e-17)
(94.834298 -0.088882593 -2.0218407e-17)
(94.830054 -0.096916559 -9.9909726e-18)
(94.825342 -0.10532201 -9.8705177e-18)
(94.820118 -0.11395544 9.7474896e-18)
(94.814348 -0.12307588 9.6216936e-18)
(94.808084 -0.13265155 -9.4934729e-18)
(94.801465 -0.1429892 9.361464e-18)
(94.794594 -0.1537717 9.2276783e-18)
(94.787518 -0.16516693 -4.5450388e-17)
(94.780192 -0.17708299 1.7898937e-17)
(94.772531 -0.18924633 -2.0139822e-22)
(94.764525 -0.20219597 2.5974324e-17)
(94.756116 -0.21411062 -3.4028027e-17)
(94.747102 -0.22743399 3.3407313e-17)
(94.737575 -0.24629303 -1.638595e-17)
(94.72758 -0.25934075 -8.0300804e-18)
(94.716911 -0.27585283 0)
(94.70605 -0.28964127 1.5387484e-17)
(94.696001 -0.30515863 0)
(94.687207 -0.31292576 -2.9862644e-22)
(94.678826 -0.32369706 0)
(94.670682 -0.3415176 -1.3992813e-17)
(94.662238 -0.33435469 1.3627821e-17)
(94.653187 -0.34796286 -1.5503774e-22)
(94.644188 -0.33607385 3.8622496e-17)
(94.63381 -0.32798052 -1.2483314e-17)
(94.622574 -0.32598261 0)
(94.610977 -0.32396348 -1.1690491e-17)
(94.597245 -0.30292027 -4.2376359e-22)
(94.583568 -0.31217891 0)
(94.571639 -0.30307182 1.0483393e-17)
(94.563265 -0.30090502 -1.0094921e-17)
(94.560043 -0.31187203 0)
(94.561585 -0.35060713 -1.8658727e-17)
(94.546369 -0.22982667 1.787954e-17)
(94.5599 -0.54235379 -1.2841858e-17)
(94.52036 -0.036492591 -2.0452985e-18)
(94.46495 -0.7687233 -1.950682e-18)
(94.179782 0.033994905 0)
(94.475234 -0.016787398 8.2880038e-18)
(94.694474 -0.0055756567 -8.2097487e-18)
(94.802146 -0.025485118 0)
(94.847528 -0.034375789 5.3662137e-18)
(94.86473 -0.04602186 1.0624746e-17)
(94.870169 -0.057060033 2.0799166e-23)
(94.871184 -0.065083653 -5.2049957e-18)
(94.869961 -0.079999945 1.0303766e-17)
(94.866799 -0.089676259 1.0191816e-17)
(94.862681 -0.10030136 -2.0158387e-17)
(94.858097 -0.11306037 1.2219402e-22)
(94.853185 -0.12530291 9.8495151e-18)
(94.847938 -0.13763328 9.732001e-18)
(94.842414 -0.14962877 -1.9225365e-17)
(94.836549 -0.16009985 9.4907398e-18)
(94.830347 -0.16912257 -1.8734377e-17)
(94.823844 -0.17574855 0)
(94.817043 -0.18047401 9.1123808e-18)
(94.809982 -0.18355473 8.980732e-18)
(94.802724 -0.18538925 -2.6537721e-17)
(94.795299 -0.18659625 3.4830615e-17)
(94.787713 -0.18740781 -1.7132076e-17)
(94.780086 -0.19172624 8.4210683e-18)
(94.77236 -0.19503665 0)
(94.764036 -0.19529306 -1.6238029e-17)
(94.755196 -0.20554748 7.9624582e-18)
(94.745849 -0.21122856 3.1207513e-17)
(94.735077 -0.22462987 -3.0544502e-17)
(94.722796 -0.23708178 0)
(94.710351 -0.27174745 -2.9178693e-17)
(94.698128 -0.28385534 1.4240841e-17)
(94.685451 -0.29446318 -1.3889921e-17)
(94.672968 -0.32003556 1.3537003e-17)
(94.660901 -0.3245125 5.7059422e-23)
(94.649601 -0.34932635 -1.2811808e-17)
(94.639454 -0.36656619 1.2441236e-17)
(94.629232 -0.36907848 -1.2066289e-17)
(94.618658 -0.3718466 1.9123889e-22)
(94.607975 -0.38234566 -2.2615463e-17)
(94.598071 -0.37365334 -1.0921708e-17)
(94.586918 -0.36826088 1.0528452e-17)
(94.576616 -0.35505715 -1.0133314e-17)
(94.570735 -0.3478683 -9.7409899e-18)
(94.571298 -0.37747373 -9.3630443e-18)
(94.562834 -0.22578687 -1.3473731e-17)
(94.567428 -0.54479032 -1.7219865e-17)
(94.537883 -0.04230726 3.7121419e-17)
(94.503461 -0.75048122 -3.1463762e-17)
(94.215729 0.031834643 1.3738259e-18)
(94.509571 -0.020417513 -1.2251455e-17)
(94.727215 -0.011142349 -1.0785819e-17)
(94.833824 -0.033202517 -5.3405027e-18)
(94.878643 -0.04416764 5.2878947e-18)
(94.895692 -0.0579899 1.0469996e-17)
(94.901334 -0.071471314 -5.181324e-18)
(94.902657 -0.080970161 -5.130229e-18)
(94.901515 -0.099530168 -1.0156885e-17)
(94.898414 -0.11048946 1.004663e-17)
(94.894406 -0.1243661 -9.936691e-18)
(94.889939 -0.13827794 9.8253807e-18)
(94.885007 -0.15164747 -9.7120171e-18)
(94.879596 -0.16580543 -9.5972934e-18)
(94.873672 -0.17872909 -3.7873435e-22)
(94.86708 -0.19159011 3.7447996e-17)
(94.859794 -0.20386539 -1.8481927e-17)
(94.851836 -0.21652652 0)
(94.843353 -0.22952397 8.9923215e-18)
(94.834579 -0.24300463 0)
(94.825793 -0.25664706 2.6201326e-17)
(94.817224 -0.26930728 -1.7201157e-17)
(94.808983 -0.28019349 -2.5394307e-17)
(94.801042 -0.285312 1.6651805e-17)
(94.793432 -0.29105719 -1.6369199e-17)
(94.785942 -0.2954818 1.6079076e-17)
(94.777878 -0.29147783 -7.8904521e-18)
(94.769615 -0.29554442 0)
(94.761476 -0.29011554 -7.5829251e-18)
(94.752544 -0.2891156 0)
(94.741549 -0.26307488 1.4509922e-17)
(94.729151 -0.2874036 0)
(94.71612 -0.29068889 -1.3823824e-17)
(94.70133 -0.29046378 0)
(94.686064 -0.30571154 1.3109114e-17)
(94.671096 -0.31131947 -2.5492021e-17)
(94.656144 -0.32790457 1.9561522e-22)
(94.641742 -0.34591743 -2.0068682e-23)
(94.627506 -0.36326985 3.4962996e-17)
(94.614271 -0.37248919 -1.128787e-17)
(94.602208 -0.38572818 1.091808e-17)
(94.591433 -0.39434047 -3.1624301e-17)
(94.581918 -0.3930976 -3.0485429e-17)
(94.576773 -0.402041 9.7839451e-18)
(94.579213 -0.43857975 0)
(94.575992 -0.29507195 0)
(94.575375 -0.56982367 4.3313507e-18)
(94.54015 -0.088619882 -2.072959e-17)
(94.537228 -0.74530463 3.176075e-17)
(94.25558 0.034048096 -1.354991e-18)
(94.54903 -0.018412977 -1.342518e-18)
(94.765284 -0.0055144885 2.1275075e-17)
(94.870773 -0.02551637 -7.9003922e-18)
(94.914834 -0.03413285 -1.0430607e-17)
(94.931326 -0.045089915 -5.1639484e-18)
(94.936558 -0.056390013 -5.1111649e-18)
(94.937691 -0.06404784 1.0122364e-17)
(94.936433 -0.080484052 -1.0021084e-17)
(94.933373 -0.088564891 -9.9149139e-18)
(94.929747 -0.098875241 -9.8077075e-18)
(94.925799 -0.10965209 1.9399888e-17)
(94.921514 -0.12082353 -9.5900369e-18)
(94.916982 -0.13182075 0)
(94.91199 -0.14345102 -9.3652284e-18)
(94.906347 -0.15627254 9.2488749e-18)
(94.899948 -0.17010515 5.0944527e-22)
(94.892666 -0.18466148 1.8020718e-17)
(94.884458 -0.20068487 -2.6661637e-17)
(94.875389 -0.21750181 -8.7619923e-18)
(94.86557 -0.23477038 8.6332361e-18)
(94.855092 -0.25297787 0)
(94.844124 -0.27213463 0)
(94.833056 -0.29494883 -8.2340439e-18)
(94.822065 -0.31314095 1.6192263e-17)
(94.811189 -0.33345413 -1.5910852e-17)
(94.800483 -0.35138999 7.8118281e-18)
(94.789591 -0.36044346 0)
(94.779323 -0.37657334 2.0560336e-22)
(94.769978 -0.38199542 0)
(94.761201 -0.40355561 1.4418031e-17)
(94.7512 -0.38267982 0)
(94.739861 -0.3965976 0)
(94.729871 -0.3927484 2.6874633e-17)
(94.720112 -0.38784059 -2.6189434e-17)
(94.707724 -0.36834189 2.5485182e-17)
(94.691266 -0.3680053 -1.2382855e-17)
(94.672868 -0.36182911 -2.7551104e-22)
(94.655524 -0.36214676 -1.1656298e-17)
(94.63754 -0.34797777 -1.128773e-17)
(94.619891 -0.36327688 1.2146044e-22)
(94.60586 -0.37051319 2.110239e-17)
(94.593122 -0.37206033 2.036381e-17)
(94.584891 -0.36536982 0)
(94.583967 -0.42236164 0)
(94.577068 -0.27967665 0)
(94.581901 -0.59605437 -4.3620001e-18)
(94.534571 -0.099825866 2.082486e-17)
(94.55306 -0.79566937 1.6023492e-17)
(94.291217 0.03489127 0)
(94.584356 -0.018981289 5.296102e-18)
(94.798994 -0.0069685273 -1.0491693e-17)
(94.903107 -0.028341758 1.0389781e-17)
(94.946229 -0.037357837 1.5431331e-17)
(94.961842 -0.049143822 5.0923409e-18)
(94.966127 -0.060417392 -1.5121773e-17)
(94.966474 -0.069196457 9.9818807e-18)
(94.96414 -0.08651404 9.8823763e-18)
(94.960202 -0.096003934 9.7778333e-18)
(94.955919 -0.1091457 9.6734717e-18)
(94.951515 -0.12131446 7.3928957e-23)
(94.947184 -0.13385318 -9.4608798e-18)
(94.943006 -0.14575183 0)
(94.938804 -0.15692632 9.2441908e-18)
(94.934445 -0.16600184 -1.8266716e-17)
(94.929721 -0.17283937 9.0207224e-18)
(94.924416 -0.1776023 0)