/*--------------------------------*- C++ -*----------------------------------*\
| =========                 |                                                 |
| \\      /  F ield         | OpenFOAM: The Open Source CFD Toolbox           |
|  \\    /   O peration     | Version:  2506                                  |
|   \\  /    A nd           | Website:  www.openfoam.com                      |
|    \\/     M anipulation  |                                                 |
\*---------------------------------------------------------------------------*/
FoamFile
{
    version     2.0;
    format      ascii;
    arch        "LSB;label=32;scalar=64";
    class       volScalarField;
    location    "0.035";
    object      omega;
}
// * * * * * * * * * * * * * * * * * * * * * * * * * * * * * * * * * * * * * //

dimensions      [0 0 -1 0 0 0 0];

internalField   nonuniform List<scalar> 
19257
(
56.681897
52.154454
51.323384
51.31593
51.299917
51.292726
51.298915
51.306665
51.307827
51.308115
51.309404
51.310813
51.312162
51.313632
51.315284
51.317089
51.319064
51.321224
51.323592
51.326225
51.329225
51.332762
51.337086
51.342559
51.349689
51.359197
51.372109
51.389904
51.414739
51.449778
51.499685
51.571227
51.673536
51.81694
52.013435
52.284723
52.669007
53.227103
54.05611
55.313794
57.271549
60.415094
65.583209
74.873358
90.22445
124.16376
165.27656
353.98855
1588.0456
56.809302
52.365636
51.32865
51.317823
51.301901
51.293084
51.297531
51.305032
51.30771
51.308535
51.309494
51.310775
51.312177
51.313654
51.315229
51.316951
51.31886
51.320967
51.323288
51.325878
51.328835
51.332319
51.336569
51.341926
51.348871
51.358086
51.370541
51.387632
51.411391
51.444795
51.492226
51.560021
51.656741
51.792172
51.977524
52.232944
52.594295
53.118474
53.896503
55.076608
56.91591
59.870611
64.767725
73.497905
89.28023
122.00176
163.13287
349.50369
1564.4709
57.061183
52.662264
51.33779
51.320221
51.303742
51.293602
51.296393
51.303567
51.307449
51.308597
51.309498
51.31076
51.31218
51.313614
51.315108
51.316752
51.318596
51.320643
51.322911
51.325451
51.328358
51.331782
51.335946
51.34117
51.347907
51.356796
51.368751
51.385084
51.407699
51.439384
51.484242
51.548183
51.639233
51.766673
51.940928
52.180683
52.519418
53.010102
53.737652
54.840644
56.560771
59.324248
63.927739
72.103254
87.180854
117.52158
161.46417
338.43524
1544.6422
57.275742
53.002961
51.363403
51.32332
51.305512
51.294417
51.295533
51.302224
51.306936
51.308515
51.309581
51.310837
51.312192
51.313564
51.315
51.316584
51.318364
51.320351
51.322567
51.325063
51.327928
51.331302
51.335394
51.340503
51.347056
51.355655
51.36716
51.382807
51.404387
51.434518
51.477053
51.53753
51.623492
51.743755
51.908096
52.13397
52.452803
52.914157
53.597683
54.633736
56.250436
58.848425
63.194219
70.892259
85.415451
112.23044
159.72661
332.10305
1526.9958
57.485225
53.354937
51.431962
51.326507
51.307676
51.295627
51.29487
51.300939
51.30606
51.308332
51.309685
51.310893
51.312161
51.313494
51.314899
51.316432
51.318147
51.320072
51.322236
51.324692
51.327522
51.330854
51.334881
51.339886
51.346267
51.354594
51.365677
51.380678
51.401283
51.429951
51.470303
51.527535
51.608743
51.722301
51.877407
52.090441
52.390927
52.825298
53.468411
54.443162
55.964898
58.411552
62.514815
69.787394
83.60864
107.90308
153.73397
325.72366
1510.8745
57.681231
53.706227
51.549445
51.329282
51.310988
51.297445
51.294408
51.299596
51.304944
51.308052
51.30969
51.310873
51.312108
51.313428
51.314808
51.316292
51.317942
51.319806
51.321924
51.324344
51.327144
51.33044
51.334411
51.339321
51.345545
51.35362
51.364308
51.378703
51.398389
51.425682
51.463983
51.518172
51.594928
51.702201
51.848674
52.049777
52.333267
52.74271
53.348623
54.267161
55.701856
58.010506
61.889072
68.779491
81.854404
104.10632
146.70341
312.05242
1495.5845
57.863552
54.054078
51.719265
51.331983
51.314874
51.299906
51.294332
51.298274
51.303675
51.307532
51.309496
51.310802
51.312074
51.313375
51.314713
51.316148
51.317745
51.319558
51.321636
51.324027
51.3268
51.330065
51.333987
51.338811
51.344893
51.352735
51.363055
51.376883
51.395709
51.421709
51.458084
51.509418
51.582
51.683363
51.821743
52.011711
52.279353
52.665608
53.237046
54.103657
55.458021
57.63989
61.309755
67.8542
80.143928
100.81736
140.59663
293.95872
1480.6344
58.030867
54.393301
51.946388
51.334563
51.319136
51.303142
51.294891
51.297047
51.302271
51.306735
51.309183
51.310727
51.312034
51.313289
51.314586
51.31599
51.317553
51.319332
51.321377
51.323741
51.326492
51.329728
51.333606
51.338356
51.344308
51.351938
51.361919
51.37522
51.393243
51.418035
51.452606
51.501268
51.56994
51.665754
51.796552
51.976115
52.228932
52.593554
53.132945
53.951407
55.231374
57.296241
60.772525
66.998926
78.521587
97.931801
135.15519
273.75401
1465.8425
58.182452
54.717756
52.236276
51.341262
51.323853
51.307019
51.296164
51.295932
51.300819
51.305715
51.308723
51.310565
51.311909
51.313132
51.314425
51.315827
51.317374
51.319126
51.321145
51.323487
51.326217
51.329429
51.33327
51.337954
51.343793
51.351231
51.360903
51.373718
51.390997
51.414667
51.447561
51.493738
51.558767
51.649394
51.773132
51.942989
52.18195
52.52642
53.036049
53.809856
55.020883
56.977603
60.274539
66.205689
77.072223
95.386666
130.37406
256.30525
1451.0023
58.318034
55.021673
52.548494
51.381656
51.329828
51.310648
51.298011
51.295061
51.299354
51.30443
51.308032
51.310248
51.311694
51.31295
51.314264
51.31567
51.317202
51.318931
51.320931
51.323257
51.325971
51.329165
51.332976
51.337605
51.343345
51.350613
51.360004
51.372377
51.388974
51.411613
51.442962
51.486848
51.548511
51.63433
51.751549
51.912391
52.13846
52.46426
52.946368
53.678886
54.826199
56.683116
59.814357
65.472753
75.756735
93.124406
126.16384
241.74955
1436.2098
58.437726
55.300864
52.855992
51.467697
51.336359
51.314417
51.300049
51.294651
51.297909
51.302893
51.30711
51.309767
51.311399
51.312733
51.314073
51.315483
51.31701
51.318734
51.320727
51.323047
51.325753
51.328934
51.332721
51.337305
51.342961
51.350079
51.359221
51.371195
51.387175
51.408877
51.43882
51.480617
51.539205
51.620619
51.731869
51.884406
52.098605
52.407272
52.864126
53.558738
54.647558
56.412912
59.392077
64.799365
74.570409
91.11218
122.4889
229.50099
1421.6178
58.541829
55.552386
53.150286
51.595741
51.342176
51.319123
51.302552
51.294766
51.296476
51.301193
51.305971
51.309082
51.31098
51.312444
51.313827
51.31525
51.316796
51.318539
51.320542
51.322862
51.325562
51.328734
51.332503
51.337052
51.342636
51.349624
51.358546
51.370166
51.385594
51.406458
51.43514
51.475059
51.530878
51.608319
51.714137
51.859125
52.062558
52.355694
52.789628
53.449808
54.485476
56.167624
59.008508
64.186828
73.506071
89.328207
119.32439
219.18116
1407.34
58.63111
55.774949
53.424006
51.761644
51.345647
51.323506
51.30571
51.295544
51.295123
51.299476
51.304622
51.308182
51.310436
51.312088
51.313538
51.314994
51.316576
51.318352
51.320372
51.322694
51.325392
51.328559
51.332318
51.336839
51.342364
51.349241
51.357971
51.36928
51.384225
51.404351
51.43192
51.470179
51.523548
51.597465
51.698417
51.83666
52.030492
52.309758
52.723203
53.352573
54.340642
55.948227
58.665069
63.637468
72.561059
87.763834
116.67662
210.48108
1393.0548
58.706434
55.967567
53.670244
51.955906
51.347539
51.327169
51.309271
51.296961
51.294048
51.297883
51.303126
51.307119
51.30979
51.311666
51.313202
51.314709
51.316342
51.318157
51.320197
51.322528
51.325232
51.328402
51.332159
51.336661
51.342137
51.348918
51.357483
51.368527
51.383056
51.402545
51.429152
51.465973
51.517217
51.588071
51.684771
51.817112
52.002543
52.269669
52.665165
53.267515
54.213781
55.755821
58.363434
63.154217
71.734775
86.421003
114.32493
203.33383
1379.6168
58.768616
56.129882
53.88389
52.146937
51.363567
51.330639
51.312567
51.29867
51.293472
51.296525
51.301591
51.305973
51.309067
51.311187
51.312831
51.314408
51.3161
51.317955
51.320018
51.322363
51.32508
51.328263
51.332022
51.33651
51.341945
51.348646
51.357073
51.367893
51.382073
51.401028
51.426825
51.462431
51.511879
51.580139
51.673225
51.800538
51.978813
52.235591
52.615778
53.195049
54.10555
55.59144
58.105231
62.739923
71.028395
85.292956
112.29779
197.69851
1367.3678
58.818378
56.261985
54.061845
52.314699
51.396475
51.334662
51.314634
51.300204
51.293342
51.295382
51.300144
51.304834
51.308319
51.310682
51.312446
51.314107
51.315862
51.317755
51.31984
51.322205
51.324942
51.328141
51.331906
51.336382
51.341782
51.348415
51.356729
51.367367
51.381265
51.399785
51.424922
51.45954
51.507523
51.573664
51.663788
51.786977
51.959377
52.207656
52.575259
53.135533
54.016534
55.456052
57.892036
62.397395
70.443512
84.379788
110.57818
193.54265
1356.6842
58.856181
56.364129
54.202007
52.451895
51.436952
51.33823
51.31629
51.301458
51.293483
51.294495
51.298912
51.303802
51.307611
51.310187
51.312068
51.313823
51.315642
51.317567
51.319671
51.322056
51.324815
51.328032
51.331803
51.336268
51.341639
51.348218
51.356443
51.366941
51.38062
51.398804
51.423431
51.457282
51.50413
51.568629
51.656455
51.776436
51.944266
52.185929
52.543725
53.089172
53.94708
55.350228
57.724754
62.128004
69.980463
83.675965
109.16439
190.67739
1347.8187
58.882435
56.436718
54.3029
52.553429
51.47466
51.340883
51.318114
51.302465
51.293664
51.293891
51.298027
51.302972
51.307017
51.309749
51.311732
51.31358
51.315459
51.31741
51.319527
51.321926
51.324702
51.327933
51.331708
51.336165
51.341512
51.348052
51.356212
51.36661
51.380132
51.398076
51.42234
51.455647
51.501689
51.565022
51.651216
51.768916
51.933494
52.170444
52.521242
53.056082
53.897394
55.274318
57.603972
61.93252
69.640264
83.176368
108.055
189.00096
1341.1829
58.897981
56.480172
54.363705
52.615961
51.500821
51.34305
51.319315
51.303077
51.293843
51.29358
51.297504
51.302419
51.306611
51.309437
51.311486
51.313402
51.315326
51.317298
51.319423
51.321829
51.324614
51.32785
51.331626
51.336076
51.341408
51.347922
51.356042
51.366377
51.379805
51.397606
51.421655
51.454639
51.500206
51.562852
51.648084
51.764441
51.927103
52.161272
52.507929
53.036471
53.867857
55.229012
57.531139
61.813634
69.429132
82.87857
107.29367
188.35783
1337.0773
58.90314
56.49472
54.383999
52.63714
51.510198
51.344014
51.319834
51.303316
51.293912
51.293473
51.297318
51.302205
51.306453
51.309318
51.311389
51.313326
51.315265
51.317244
51.319371
51.321779
51.324565
51.327802
51.331576
51.336022
51.341348
51.347851
51.355957
51.366272
51.37967
51.397428
51.42141
51.454298
51.499723
51.562166
51.647115
51.76308
51.925184
52.158542
52.503985
53.030665
53.859068
55.215419
57.508807
61.776553
69.359729
82.784777
106.99848
188.33263
1335.6593
58.897981
56.480173
54.363703
52.615968
51.500807
51.343024
51.31929
51.303048
51.293804
51.293527
51.297447
51.302375
51.306569
51.309394
51.31144
51.313353
51.315275
51.317245
51.319369
51.321774
51.324555
51.327788
51.331559
51.336006
51.341336
51.34785
51.355973
51.366314
51.37975
51.397565
51.421635
51.454654
51.500274
51.563002
51.648355
51.764889
51.927809
52.162352
52.509554
53.038894
53.871445
55.234296
57.538815
61.824898
69.443347
82.894727
107.31575
188.36257
1337.082
58.882435
56.436718
54.302897
52.553437
51.474646
51.340831
51.318058
51.302397
51.293574
51.293776
51.297913
51.302881
51.306931
51.309658
51.311633
51.313473
51.315346
51.317294
51.319408
51.321802
51.324571
51.327792
51.331558
51.336007
51.34135
51.347888
51.356051
51.366457
51.379994
51.397964
51.422271
51.455645
51.501793
51.565291
51.651727
51.769782
51.93488
52.172584
52.524483
53.060935
53.904598
55.28494
57.619391
61.955099
69.668547
83.208702
108.09605
189.02244
1341.191
58.856181
56.364129
54.202003
52.451904
51.436923
51.338155
51.316208
51.301353
51.293341
51.294321
51.298748
51.303666
51.307481
51.310045
51.311911
51.313654
51.315465
51.317385
51.319484
51.32186
51.324606
51.327808
51.331565
51.336019
51.341381
51.347956
51.356183
51.366691
51.380391
51.398613
51.423303
51.457256
51.504265
51.569014
51.65721
51.777733
51.946356
52.189172
52.54865
53.096559
53.958054
55.366404
57.748191
62.162206
70.022983
83.724741
109.22293
190.71956
1347.8296
58.818378
56.261984
54.06184
52.314713
51.396423
51.33457
51.314528
51.30006
51.293144
51.295155
51.299934
51.304654
51.308141
51.310487
51.312229
51.313875
51.315621
51.317508
51.319585
51.321936
51.324655
51.327833
51.331579
51.33604
51.341428
51.348055
51.356369
51.36702
51.380945
51.399517
51.42474
51.459496
51.507699
51.574182
51.664813
51.788742
51.962228
52.212086
52.581994
53.145638
54.03154
55.478144
57.923965
62.443769
70.500751
84.445425
110.65428
193.60416
1356.6978
58.768616
56.129881
53.883886
52.146959
51.363489
51.330529
51.312434
51.298479
51.29321
51.29625
51.301339
51.305748
51.30884
51.310936
51.312554
51.314114
51.315797
51.317645
51.319695
51.322021
51.324714
51.327871
51.331607
51.336075
51.341497
51.34819
51.356618
51.367453
51.381669
51.40069
51.426597
51.462383
51.512116
51.580819
51.674558
51.802829
51.982508
52.241328
52.624496
53.208122
54.124942
55.619933
58.146278
62.799192
71.101009
85.376018
112.39116
197.78538
1367.3851
58.706436
55.967568
53.670242
51.955937
51.34743
51.327036
51.309102
51.296714
51.29372
51.297563
51.302836
51.306848
51.309511
51.31136
51.312868
51.314357
51.315981
51.317788
51.319812
51.322117
51.32479
51.32793
51.331659
51.336139
51.341599
51.348372
51.35694
51.368003
51.382577
51.402149
51.428894
51.465939
51.51754
51.588949
51.686464
51.819997
52.007183
52.276861
52.676084
53.283868
54.238001
55.791317
58.414376
63.227247
71.823552
86.522086
114.43554
203.44424
1379.6407
58.631114
55.774951
53.424006
51.761663
51.345516
51.323345
51.305494
51.29523
51.294735
51.299115
51.304301
51.307871
51.310111
51.311734
51.313156
51.314595
51.316169
51.317934
51.319932
51.322222
51.324883
51.328014
51.331742
51.336237
51.341744
51.348611
51.357346
51.368681
51.383682
51.403909
51.431649
51.470183
51.523989
51.598585
51.700533
51.840228
52.036198
52.318582
52.736579
53.372578
54.370213
55.99144
58.726821
63.725258
72.666905
87.883498
116.80486
210.60964
1393.0689
58.541834
55.552386
53.150285
51.595726
51.34203
51.31893
51.302281
51.294385
51.296049
51.300803
51.305628
51.308744
51.310619
51.31205
51.313405
51.314812
51.316347
51.318075
51.32005
51.322331
51.32499
51.328121
51.331856
51.336377
51.341941
51.34892
51.357849
51.369501
51.384999
51.405986
51.434875
51.475126
51.531474
51.609732
51.716735
51.863465
52.069472
52.366355
52.805756
53.473888
54.521004
56.219382
59.08213
64.290508
73.630002
89.467019
119.46983
219.32329
1407.3676
58.437727
55.300856
52.855984
51.467644
51.336204
51.314176
51.299716
51.294212
51.297461
51.302492
51.306755
51.309411
51.311012
51.31231
51.313622
51.315012
51.316523
51.318223
51.320181
51.322456
51.325116
51.328255
51.332006
51.33656
51.342195
51.349305
51.358459
51.370475
51.386539
51.408391
51.438582
51.480775
51.539993
51.622386
51.735012
51.889599
52.106865
52.419997
52.883344
53.587379
54.689732
56.474164
59.478785
64.920207
74.713551
91.270793
122.6503
229.65222
1421.6009
58.318022
55.02165
52.548481
51.381561
51.329637
51.310357
51.297622
51.29458
51.298895
51.304028
51.307668
51.309872
51.311284
51.312505
51.313795
51.315182
51.316692
51.318386
51.320337
51.32261
51.325273
51.328423
51.332195
51.336794
51.342514
51.349777
51.359187
51.371612
51.388312
51.411129
51.442772
51.487126
51.54953
51.636497
51.755338
51.918563
52.148214
52.479278
52.969038
53.712629
54.875799
56.754945
59.915548
65.612218
75.920315
93.303546
126.33993
241.90518
1436.2306
58.182419
54.717717
52.236262
51.341125
51.32361
51.306662
51.295723
51.295423
51.300342
51.305305
51.308346
51.310168
51.311463
51.312646
51.31392
51.315312
51.316839
51.31855
51.320512
51.322793
51.325466
51.32863
51.332431
51.337084
51.342904
51.350341
51.360038
51.372919
51.390321
51.414203
51.447442
51.494165
51.560055
51.652009
51.777667
51.950286
52.193369
52.543972
53.062558
53.849301
55.078798
57.061256
60.391838
66.365444
77.257692
95.587182
130.56245
256.45609
1451.0363
58.030809
54.393252
51.946366
51.334396
51.318816
51.302714
51.294407
51.296511
51.301765
51.306298
51.308778
51.310315
51.311576
51.312777
51.314046
51.315437
51.316979
51.318716
51.320703
51.323005
51.325696
51.328881
51.332716
51.337433
51.343368
51.351001
51.361017
51.374398
51.392568
51.417608
51.452579
51.501874
51.571536
51.668867
51.801905
51.984672
52.242213
52.613912
53.163714
53.997223
55.298624
57.393194
60.907884
67.18113
78.730106
98.154782
135.35133
273.9006
1465.8948
57.863468
54.054029
51.719237
51.331787
51.31445
51.299422
51.293831
51.297712
51.30314
51.30707
51.309046
51.310344
51.311594
51.312855
51.314159
51.315565
51.317127
51.318894
51.320915
51.323246
51.325962
51.329174
51.333051
51.337843
51.343909
51.35176
51.362125
51.37605
51.395049
51.421337
51.458171
51.510232
51.583946
51.687032
51.827986
52.02166
52.29471
52.689082
53.272549
54.156605
55.53579
57.751876
61.465512
68.061169
80.378867
101.0643
140.79227
293.99336
1480.6986
57.681115
53.706183
51.549418
51.329022
51.310443
51.296942
51.293922
51.298995
51.304369
51.307616
51.309249
51.310362
51.311565
51.312872
51.314234
51.315683
51.317285
51.319092
51.321151
51.323516
51.326261
51.329507
51.333435
51.338313
51.344525
51.352616
51.363359
51.377869
51.397757
51.42538
51.464206
51.519223
51.597265
51.706481
51.855884
52.061247
52.350924
52.769654
53.389421
54.328155
55.791627
58.13984
62.068353
69.015772
82.108757
104.38065
146.89298
311.69143
1495.6506
57.485076
53.354901
51.431919
51.326142
51.307022
51.295152
51.294378
51.300248
51.305391
51.307878
51.309288
51.31039
51.311577
51.312891
51.314291
51.315797
51.317455
51.319313
51.321415
51.323815
51.326594
51.329879
51.333867
51.338843
51.345218
51.353569
51.364721
51.379857
51.400693
51.429739
51.470685
51.528854
51.611515
51.727257
51.885671
52.103571
52.411131
52.856116
53.515149
54.513265
56.068343
58.560723
62.721126
70.056479
83.876371
108.20511
153.8087
324.99037
1510.9303
57.275539
53.002929
51.363299
51.322785
51.304833
51.294034
51.294989
51.301378
51.3062
51.307981
51.309133
51.310329
51.311599
51.312931
51.314358
51.315917
51.317639
51.319554
51.321701
51.32414
51.326956
51.330287
51.334342
51.339429
51.34598
51.354612
51.366201
51.382005
51.403849
51.434406
51.477608
51.539138
51.626732
51.749437
51.917495
52.148901
52.475814
52.949322
53.651206
54.714407
56.370172
59.022205
63.432891
71.210855
85.680588
112.58687
159.27709
330.69152
1527.0601
57.060945
52.662247
51.337568
51.31951
51.303111
51.293352
51.29578
51.302497
51.306735
51.308012
51.308909
51.310169
51.311563
51.312963
51.314435
51.31605
51.317838
51.319812
51.32201
51.324491
51.327349
51.330733
51.334866
51.340074
51.346819
51.355754
51.367811
51.384326
51.407244
51.439412
51.485022
51.55015
51.643033
51.773206
51.951644
52.197683
52.545656
53.050276
53.799013
54.933779
56.699208
59.526511
64.20538
72.47342
87.446269
117.95041
160.75587
338.42017
1544.7122
56.808816
52.365598
51.328306
51.316976
51.301344
51.292985
51.296864
51.303729
51.30701
51.30798
51.308809
51.310076
51.311511
51.312976
51.314521
51.316205
51.318058
51.320093
51.322344
51.324871
51.327777
51.331221
51.335441
51.340786
51.347745
51.357013
51.36958
51.386871
51.410958
51.444887
51.493137
51.562226
51.660949
51.799364
51.989334
52.251775
52.623538
53.163601
53.965969
55.182572
57.076025
60.108515
65.07446
73.988454
89.293077
122.46078
162.09818
346.65022
1564.5657
56.682298
52.154541
51.322932
51.314949
51.299471
51.292772
51.298171
51.305255
51.307228
51.307655
51.308709
51.310067
51.311486
51.312963
51.314573
51.316334
51.318255
51.32035
51.322653
51.325229
51.328184
51.331689
51.335998
51.341478
51.348648
51.358244
51.371317
51.389379
51.414636
51.450333
51.501251
51.574373
51.679089
51.826032
52.028033
52.307702
52.704589
53.281922
54.141349
55.44781
57.469682
60.731457
66.011886
75.546591
91.03723
128.14175
163.68527
361.04412
1587.9349
2489.429
1189.1815
417.80094
207.78201
145.49985
116.60332
98.413229
85.515281
76.340939
69.775231
65.081121
61.669218
59.155162
57.245024
55.790915
54.669263
53.804232
53.131825
52.621188
52.246982
51.983144
51.800173
51.673405
51.584887
51.522467
51.477906
51.445756
51.421974
51.402779
51.385381
51.369558
51.35565
51.343407
51.332901
51.324577
51.318562
51.314185
51.311297
51.308751
51.307732
51.306308
51.306627
51.30474
51.306532
51.306642
51.307118
51.304944
51.303794
51.440829
2527.5298
968.10919
333.27773
188.7888
137.96611
111.59434
94.688165
82.819484
74.473133
68.47093
64.172247
61.01916
58.690411
56.900987
55.538339
54.481197
53.666253
53.030324
52.548121
52.195193
51.946761
51.774259
51.654569
51.570904
51.511904
51.46979
51.43934
51.41683
51.399119
51.383212
51.368296
51.354987
51.343346
51.33321
51.324947
51.318848
51.314382
51.311414
51.308828
51.307786
51.306327
51.306597
51.304809
51.306601
51.30661
51.307002
51.304874
51.303785
51.441215
2551.2831
894.8784
315.7307
183.26936
134.94799
109.14712
92.809358
81.386615
73.429141
67.688689
63.605356
60.593228
58.37548
56.659155
55.357955
54.344035
53.564885
52.95499
52.493448
52.155906
51.918646
51.753808
51.639404
51.559435
51.503071
51.462888
51.433825
51.412311
51.395658
51.381088
51.367124
51.354335
51.343179
51.333428
51.32527
51.319102
51.314546
51.311502
51.308868
51.3078
51.306346
51.306533
51.304839
51.306659
51.306536
51.306782
51.30475
51.30378
51.441473
2565.4186
840.95818
302.46312
178.27875
132.23602
107.0676
91.194523
80.134506
72.504615
66.981866
63.089764
60.198079
58.080841
56.429563
55.186309
54.212826
53.468066
52.883048
52.441378
52.11858
51.891995
51.734459
51.625083
51.548629
51.494757
51.456375
51.428634
51.408076
51.392241
51.378832
51.365897
51.353655
51.342896
51.333542
51.325556
51.319357
51.314718
51.311605
51.308922
51.307829
51.306369
51.306471
51.304878
51.306714
51.306458
51.30658
51.304627
51.303777
51.441671
2572.8819
805.4645
293.77487
175.12112
130.30369
105.48161
89.936371
79.146352
71.75975
66.39425
62.653898
59.855446
57.822171
56.223709
55.031479
54.093299
53.379624
52.817111
52.39359
52.084268
51.867427
51.71657
51.611806
51.538591
51.487024
51.450298
51.423764
51.404109
51.388982
51.376493
51.364612
51.352969
51.342539
51.333553
51.325789
51.319601
51.314889
51.311711
51.308981
51.307862
51.306393
51.306408
51.304914
51.306763
51.306366
51.306372
51.304496
51.303776
51.441818
2574.8708
777.46391
286.35125
172.5205
128.69968
104.15636
88.868239
78.308769
71.119178
65.880124
62.268556
59.54745
57.586928
56.033889
54.888018
53.981768
53.296826
52.755256
52.348703
52.052027
51.844308
51.699719
51.599286
51.529119
51.479728
51.444567
51.419147
51.400348
51.385896
51.374086
51.363216
51.352257
51.342144
51.333467
51.325964
51.319831
51.315062
51.311823
51.309047
51.3079
51.306421
51.306346
51.304953
51.30681
51.306265
51.306158
51.304357
51.303777
51.441919
2572.164
754.12527
280.01215
170.27893
127.38532
103.0163
87.939842
77.587458
70.557962
65.42502
61.923464
59.268345
57.370793
55.858082
54.754298
53.877282
53.218871
52.696932
52.306282
52.02155
51.822415
51.683749
51.587412
51.520129
51.472804
51.439136
51.414762
51.39676
51.382963
51.371694
51.36169
51.351504
51.341739
51.333302
51.326073
51.320043
51.31524
51.311938
51.309119
51.307944
51.30645
51.306287
51.304994
51.306858
51.306147
51.305929
51.304213
51.303783
51.441978
2565.33
733.7582
274.41794
168.37641
126.18037
102.04736
87.111323
76.951449
70.052763
65.015176
61.608331
59.012179
57.169331
55.694231
54.628474
53.778804
53.144916
52.641585
52.265914
51.992555
51.80155
51.668524
51.576088
51.511555
51.466207
51.433958
51.410591
51.393322
51.380147
51.369388
51.360058
51.350693
51.341324
51.333082
51.326112
51.320227
51.315418
51.312056
51.309196
51.307993
51.306482
51.306231
51.305038
51.306908
51.30603
51.305676
51.304061
51.303792
51.442002
2554.7849
715.36581
269.35709
166.71632
125.08682
101.12796
86.359173
76.38422
69.591482
64.64444
61.317665
58.776636
56.980608
55.541845
54.509884
53.686212
53.074799
52.58916
52.227555
51.965016
51.781697
51.654033
51.565309
51.503393
51.459921
51.429025
51.406631
51.390038
51.377429
51.367192
51.358335
51.349799
51.340899
51.332838
51.326082
51.320376
51.315595
51.312177
51.309278
51.308048
51.306517
51.30618
51.305083
51.306961
51.305911
51.305419
51.303888
51.303805
51.442006
2541.1449
698.41695
264.71222
165.25179
124.06833
100.2962
85.660535
75.873691
69.161756
64.306188
61.045208
58.558813
56.801848
55.399518
54.397263
53.59889
53.008005
52.539345
52.190986
51.938782
51.762751
51.640202
51.555023
51.495608
51.453919
51.424311
51.40286
51.386918
51.374806
51.365093
51.35661
51.348772
51.34044
51.3326
51.325993
51.320481
51.315763
51.312299
51.309363
51.308108
51.306556
51.306134
51.305129
51.307015
51.305787
51.305171
51.303695
51.303821
51.441975
2524.45
682.45121
260.34654
163.92794
123.08984
99.518269
84.99396
75.406698
68.750911
63.993387
60.783934
58.35493
56.629425
55.265129
54.288764
53.515699
52.943646
52.49153
52.155776
51.91355
51.744506
51.626884
51.545125
51.488132
51.448142
51.419768
51.399232
51.383932
51.372276
51.363054
51.354945
51.347637
51.339941
51.332364
51.325858
51.320535
51.315915
51.312422
51.309451
51.308172
51.306597
51.306095
51.305175
51.307076
51.305659
51.304911
51.303489
51.303846
51.441933
2504.8874
667.21761
256.19699
162.7032
122.14042
98.796576
84.347283
74.978128
68.351633
63.703251
60.529953
58.163625
56.46162
55.137975
54.183635
53.436301
52.881464
52.445563
52.121835
51.889256
51.726922
51.614052
51.535599
51.480934
51.442582
51.415391
51.395735
51.381074
51.369843
51.361034
51.353345
51.346391
51.339384
51.332127
51.325705
51.320534
51.316042
51.312543
51.309541
51.308239
51.306639
51.30606
51.305218
51.307153
51.305524
51.304642
51.303278
51.303883
51.441881
2482.6982
652.64301
252.23956
161.56972
121.21182
98.12698
83.714743
74.586809
67.960464
63.435433
60.28163
57.984917
56.298093
55.018169
54.08189
53.360825
52.821612
52.401562
52.089276
51.865972
51.710063
51.601752
51.526496
51.47404
51.437257
51.411196
51.392377
51.378345
51.367525
51.359052
51.351799
51.345122
51.338727
51.331867
51.325564
51.320477
51.316135
51.31266
51.309632
51.30831
51.306683
51.306033
51.305262
51.307239
51.30538
51.304364
51.303057
51.303934
51.441832
2458.5801
638.75108
248.45714
160.51569
120.28925
97.506687
83.090438
74.229586
67.572263
63.187856
60.03611
57.817533
56.137605
54.904876
53.982959
53.288838
52.763864
52.359342
52.058001
51.84362
51.693883
51.589957
51.517762
51.467432
51.432154
51.407172
51.389149
51.375726
51.365323
51.357139
51.350316
51.343906
51.337963
51.331577
51.325442
51.320377
51.316186
51.31277
51.309725
51.308383
51.30673
51.306012
51.305311
51.307343
51.305221
51.304077
51.30283
51.304001
51.441777
2432.183
625.42828
244.78735
159.52435
119.34902
96.930532
82.466336
73.90049
67.179727
62.956463
59.789156
57.658849
55.977864
54.796389
53.885734
53.219359
52.707599
52.318407
52.02769
51.821965
51.678224
51.57858
51.509321
51.461051
51.427228
51.403287
51.386027
51.373191
51.363217
51.355292
51.34882
51.342729
51.337086
51.331246
51.325322
51.320261
51.31619
51.312867
51.309821
51.308457
51.306779
51.305998
51.305374
51.307461
51.305036
51.303783
51.302602
51.30408
51.441748
2403.7719
612.52002
241.21229
158.58913
118.38381
96.397311
81.836743
73.597355
66.780566
62.739946
59.539755
57.508054
55.818718
54.692288
53.790264
53.152206
52.652875
52.278733
51.998375
51.801023
51.663111
51.567591
51.501182
51.454905
51.422486
51.399547
51.383017
51.37074
51.361199
51.353524
51.347301
51.341571
51.336159
51.330843
51.3252
51.32016
51.316145
51.312937
51.309921
51.308534
51.306827
51.305992
51.305454
51.307598
51.304813
51.303482
51.302381
51.304175
51.441773
2373.9005
600.00874
237.72826
157.70739
117.38823
95.906956
81.200568
73.318139
66.374344
62.537018
59.288066
57.364325
55.660757
54.5921
53.696878
53.087302
52.599873
52.240356
51.970131
51.780846
51.64861
51.557021
51.493363
51.449007
51.417937
51.395959
51.380127
51.368377
51.359259
51.351853
51.345819
51.340476
51.33527
51.330311
51.325047
51.320091
51.316062
51.31297
51.310022
51.308618
51.306866
51.305997
51.305545
51.307768
51.304539
51.303167
51.302174
51.304291
51.441891
2342.9048
588.11531
234.32758
156.87671
116.35614
95.457757
80.557051
73.058439
65.958714
62.344615
59.033234
57.225555
55.503834
54.494518
53.605501
53.024091
52.548437
52.203063
51.942857
51.7614
51.634602
51.54683
51.485833
51.443336
51.413567
51.39251
51.377346
51.366099
51.357384
51.350268
51.3444
51.339392
51.334405
51.329677
51.32487
51.320043
51.315966
51.312963
51.310111
51.30872
51.306889
51.306015
51.305652
51.307975
51.304224
51.302828
51.301973
51.304439
51.442153
2310.4427
576.87518
230.9529
156.08561
115.27796
95.043368
79.909793
72.812248
65.52961
62.158197
58.773989
57.088757
55.347535
54.397906
53.51582
52.961774
52.498262
52.166548
51.916379
51.742461
51.621007
51.536957
51.478549
51.437858
51.40935
51.389184
51.374663
51.363896
51.355563
51.348752
51.343031
51.338235
51.333534
51.328984
51.324632
51.320008
51.315892
51.312924
51.310173
51.308844
51.306898
51.306042
51.305784
51.308181
51.303888
51.30247
51.301784
51.304628
51.442666
2276.8579
565.86778
227.58529
155.33791
114.17271
94.669715
79.293248
72.577888
65.087778
61.974256
58.511983
56.951705
55.192944
54.301366
53.428206
52.900064
52.44944
52.130803
51.890769
51.724054
51.607825
51.527402
51.471514
51.432575
51.405288
51.385981
51.372078
51.361771
51.353798
51.347291
51.341736
51.337064
51.33272
51.328328
51.324238
51.31997
51.315858
51.312864
51.310201
51.30898
51.306895
51.306064
51.305977
51.308358
51.30352
51.302098
51.301613
51.304866
51.443582
2242.3986
555.5255
224.27198
154.66078
113.1334
94.362393
78.625827
72.339489
64.641161
61.789028
58.251121
56.812406
55.041822
54.204402
53.34342
52.838809
52.402253
52.095981
51.865956
51.706234
51.595091
51.518187
51.464742
51.427498
51.40139
51.382909
51.369597
51.359728
51.352093
51.345876
51.34052
51.335945
51.331924
51.327704
51.323714
51.319916
51.315861
51.312796
51.310212
51.309102
51.306884
51.306092
51.306222
51.308491
51.303113
51.301701
51.301467
51.305167