/*--------------------------------*- C++ -*----------------------------------*\
| =========                 |                                                 |
| \\      /  F ield         | OpenFOAM: The Open Source CFD Toolbox           |
|  \\    /   O peration     | Version:  2506                                  |
|   \\  /    A nd           | Website:  www.openfoam.com                      |
|    \\/     M anipulation  |                                                 |
\*---------------------------------------------------------------------------*/
FoamFile
{
    version     2.0;
    format      ascii;
    arch        "LSB;label=32;scalar=64";
    class       volScalarField;
    location    "0.0305";
    object      alphat;
}
// * * * * * * * * * * * * * * * * * * * * * * * * * * * * * * * * * * * * * //

dimensions      [1 -1 -1 0 0 0 0];

internalField   nonuniform List<scalar> 
13761
(
2.3498103e-06
2.3525097e-06
2.3398637e-06
2.3312817e-06
2.3309667e-06
2.3201378e-06
2.3064735e-06
2.2985675e-06
2.2855082e-06
2.2678561e-06
2.2491642e-06
2.2312879e-06
2.2161978e-06
2.1916444e-06
2.1523881e-06
2.119007e-06
2.1012713e-06
2.0654282e-06
2.0017384e-06
1.9617544e-06
1.9730412e-06
1.9939333e-06
1.9898152e-06
1.9827943e-06
1.9984394e-06
2.0321329e-06
2.0646127e-06
2.0876604e-06
2.1084536e-06
2.133281e-06
2.1612191e-06
2.1856767e-06
2.2079413e-06
2.2350779e-06
2.2669265e-06
2.2997146e-06
2.3318913e-06
2.3625407e-06
2.3933284e-06
2.4284217e-06
2.469107e-06
2.5149683e-06
2.5673205e-06
2.6270178e-06
2.6937144e-06
2.7666145e-06
2.8448966e-06
2.9275922e-06
3.0137475e-06
3.1020039e-06
3.1903842e-06
3.2766131e-06
3.3589746e-06
3.4400712e-06
3.5545085e-06
3.9672237e-06
6.7132927e-06
2.9997162e-05
0.00016141035
0.00041491393
0.00065094519
0.00083766612
0.00098167353
0.0010892661
0.0011659114
0.0012162754
0.0012443715
0.0012536691
0.0012471813
0.0012275396
0.0011970413
0.0011577006
0.0011112787
0.0010593169
0.0010031708
0.0009440313
0.00088294206
0.00082081549
0.00075845217
0.00069654723
0.00063571136
0.00057646648
0.00051925914
0.0004644654
0.00041238558
0.00036326574
0.00031728676
0.00027456605
0.00023518574
0.0001991841
0.00016654103
0.00013719745
0.00011106367
8.8024539e-05
6.7945924e-05
5.0679002e-05
3.6061707e-05
2.3955449e-05
1.4294455e-05
7.1372377e-06
2.6425313e-06
6.1575515e-07
7.421113e-08
4.074206e-09
1.2562006e-09
2.3500337e-06
2.3528011e-06
2.3403679e-06
2.3316907e-06
2.3313121e-06
2.3206757e-06
2.3069826e-06
2.2990045e-06
2.2860609e-06
2.2684354e-06
2.2497101e-06
2.231754e-06
2.2166447e-06
2.1923061e-06
2.1531919e-06
2.1196576e-06
2.101881e-06
2.0667049e-06
2.0036364e-06
1.9628473e-06
1.9726626e-06
1.9930703e-06
1.9893595e-06
1.9819873e-06
1.9962966e-06
2.0288948e-06
2.0613657e-06
2.0848753e-06
2.1056929e-06
2.130092e-06
2.1575191e-06
2.1819238e-06
2.2043256e-06
2.2312213e-06
2.2627797e-06
2.2957929e-06
2.3287733e-06
2.3607719e-06
2.3930415e-06
2.4290602e-06
2.4700667e-06
2.5159583e-06
2.5680732e-06
2.6272908e-06
2.6934687e-06
2.7659456e-06
2.843985e-06
2.9266724e-06
3.013089e-06
3.1019348e-06
3.1913036e-06
3.2789585e-06
3.3632166e-06
3.447258e-06
3.5715181e-06
4.0469546e-06
7.2369561e-06
3.2599739e-05
0.00016536531
0.00041825784
0.00065501635
0.00084097363
0.00098362997
0.0010896091
0.0011645974
0.0012133616
0.0012399721
0.0012479327
0.001240284
0.0012196724
0.0011884094
0.0011485101
0.0011017373
0.0010496247
0.00099351821
0.00093459689
0.00087388595
0.0008122816
0.00075056044
0.00068939795
0.00062937834
0.00057100138
0.00051468757
0.00046079028
0.0004095865
0.00036130167
0.00031609753
0.00027407518
0.00023530285
0.00019980723
0.00016756013
0.00013849668
0.00011252485
8.9529776e-05
6.9382361e-05
5.1943817e-05
3.7070327e-05
2.4652654e-05
1.467202e-05
7.2564308e-06
2.6357598e-06
5.9931886e-07
7.0679212e-08
3.5358811e-09
7.9903187e-10
2.3530872e-06
2.3408675e-06
2.3321115e-06
2.331668e-06
2.3212227e-06
2.3075013e-06
2.2994496e-06
2.2866242e-06
2.2690316e-06
2.2502736e-06
2.2322371e-06
2.2171125e-06
2.1930028e-06
2.1540375e-06
2.120335e-06
2.1025181e-06
2.0680398e-06
2.0056092e-06
1.9639868e-06
1.9722917e-06
1.9922122e-06
1.9889305e-06
1.9812292e-06
1.9941919e-06
2.0256391e-06
2.0580362e-06
2.0819931e-06
2.1028711e-06
2.1268785e-06
2.1538152e-06
2.1781472e-06
2.2006439e-06
2.2272794e-06
2.2585268e-06
2.2916951e-06
2.3254012e-06
2.3586448e-06
2.3923192e-06
2.4292761e-06
2.4706486e-06
2.5166397e-06
2.5685437e-06
2.6272671e-06
2.692849e-06
2.7647666e-06
2.8423798e-06
2.9248428e-06
3.0112838e-06
3.100475e-06
3.1906064e-06
3.2795151e-06
3.3656139e-06
3.4527937e-06
3.587833e-06
4.1310149e-06
7.7867521e-06
3.5008709e-05
0.00016700773
0.00041649889
0.00065356233
0.00083943103
0.00098175027
0.0010871954
0.0011615504
0.001209597
0.0012354164
0.0012425307
0.0012340055
0.0012125216
0.001180423
0.0011397574
0.0010923137
0.0010396494
0.00098312788
0.00092393981
0.00086311698
0.00080155429
0.0007400237
0.00067918862
0.00061961951
0.0005617972
0.00050612251
0.00045292669
0.00040246499
0.00035494057
0.00031049469
0.00026920914
0.00023113518
0.00019628545
0.00016462116
0.00013607067
0.00011053924
8.791391e-05
6.8071766e-05
5.0884715e-05
3.6223003e-05
2.3993707e-05
1.419381e-05
6.9597702e-06
2.5027691e-06
5.646766e-07
6.6397267e-08
3.3717694e-09
8.1515768e-10
2.3533772e-06
2.341359e-06
2.3325417e-06
2.3320355e-06
2.3217804e-06
2.3080312e-06
2.2999041e-06
2.2871994e-06
2.2696469e-06
2.2508578e-06
2.2327407e-06
2.2176045e-06
2.1937376e-06
2.1549298e-06
2.1210459e-06
2.1031863e-06
2.0694341e-06
2.0076628e-06
1.9651881e-06
1.9719445e-06
1.991368e-06
1.9885354e-06
1.9805342e-06
1.9921475e-06
2.0223889e-06
2.054642e-06
2.0790257e-06
2.0999983e-06
2.1236525e-06
2.1501198e-06
2.1743606e-06
2.1969153e-06
2.2232745e-06
2.2541874e-06
2.2874369e-06
2.3217559e-06
2.3561154e-06
2.3910912e-06
2.4289943e-06
2.4708495e-06
2.5170132e-06
2.5687526e-06
2.626995e-06
2.6918525e-06
2.7630804e-06
2.8400943e-06
2.9221214e-06
3.0083475e-06
3.0976268e-06
3.1882592e-06
3.2781743e-06
3.3659051e-06
3.456118e-06
3.6022711e-06
4.2161312e-06
8.34364e-06
3.7148377e-05
0.00016637462
0.00040919221
0.00064504322
0.0008306183
0.00097277616
0.0010780427
0.0011522656
0.0012002125
0.001225963
0.0012330408
0.0012245177
0.0012030868
0.0011711032
0.0011306203
0.0010834303
0.0010310912
0.00097496527
0.0009162399
0.00085594069
0.00079495444
0.00073404176
0.00067385368
0.00061494633
0.00055778635
0.00050276009
0.00045018535
0.00040030515
0.00035331215
0.0003093392
0.00026846202
0.00023072809
0.00019614867
0.00016468607
0.00013627198
0.00011081708
8.8215581e-05
6.8353632e-05
5.1113721e-05
3.6378406e-05
2.4069015e-05
1.4199789e-05
6.926783e-06
2.4714197e-06
5.5303161e-07
6.4640359e-08
3.2171338e-09
7.1919446e-10
2.3536838e-06
2.3418409e-06
2.3329785e-06
2.332415e-06
2.3223501e-06
2.3085728e-06
2.3003678e-06
2.2877854e-06
2.2702803e-06
2.2514619e-06
2.2332643e-06
2.218119e-06
2.1945075e-06
2.1558676e-06
2.1217896e-06
2.1038814e-06
2.0708797e-06
2.0097932e-06
1.9664558e-06
1.971626e-06
1.9905353e-06
1.9881688e-06
1.9799025e-06
1.9901712e-06
2.0191535e-06
2.0511873e-06
2.0759711e-06
2.0970694e-06
2.1204099e-06
2.1464301e-06
2.1705638e-06
2.1931448e-06
2.219215e-06
2.2497694e-06
2.283025e-06
2.317841e-06
2.3531823e-06
2.3893497e-06
2.4281772e-06
2.4705624e-06
2.5169466e-06
2.5685511e-06
2.626317e-06
2.6904888e-06
2.760949e-06
2.837222e-06
2.9186263e-06
3.004416e-06
3.0935354e-06
3.1844053e-06
3.2750686e-06
3.3641453e-06
3.457314e-06
3.6150003e-06
4.3024622e-06
8.905842e-06
3.9094716e-05
0.00016430737
0.00039820203
0.00063190148
0.00081752788
0.00096016297
0.0010659136
0.0011406436
0.0011890685
0.0012152545
0.0012227216
0.0012145427
0.001193431
0.0011617605
0.001121597
0.0010747428
0.0010227652
0.00096703338
0.00090874028
0.00084891425
0.00078844099
0.00072807628
0.0006684632
0.00061014792
0.00055358566
0.00049915075
0.00044714901
0.00039781213
0.00035132249
0.00030780434
0.00026732671
0.0002299324
0.00019563039
0.0001643832
0.00013612515
0.00011077187
8.8224848e-05
6.837947e-05
5.1129275e-05
3.6369002e-05
2.4032691e-05
1.4146889e-05
6.8770629e-06
2.4428603e-06
5.4452192e-07
6.3508525e-08
3.1543226e-09
7.006472e-10
2.3540195e-06
2.3423152e-06
2.3334187e-06
2.3328057e-06
2.3229327e-06
2.3091271e-06
2.3008409e-06
2.2883817e-06
2.270931e-06
2.2520857e-06
2.2338076e-06
2.2186548e-06
2.1953102e-06
2.1568501e-06
2.1225666e-06
2.1046006e-06
2.0723701e-06
2.0119977e-06
1.9677956e-06
1.9713427e-06
1.9897137e-06
1.9878267e-06
1.9793356e-06
1.9882723e-06
2.0159447e-06
2.0476798e-06
2.0728299e-06
2.0940815e-06
2.1171485e-06
2.1427454e-06
2.1667585e-06
2.1893392e-06
2.2151111e-06
2.2452837e-06
2.2784711e-06
2.3136672e-06
2.3498519e-06
2.3870948e-06
2.4268108e-06
2.469757e-06
2.5164044e-06
2.5679098e-06
2.6252154e-06
2.6886759e-06
2.758291e-06
2.8336963e-06
2.914308e-06
2.9994588e-06
3.0881921e-06
3.1790583e-06
3.2702237e-06
3.3604317e-06
3.4558552e-06
3.6210445e-06
4.3520142e-06
9.1890637e-06
3.9470202e-05
0.00015942148
0.00038421858
0.00061531273
0.00080103514
0.00094411087
0.0010508286
0.0011265445
0.0011759063
0.0012029661
0.0012112394
0.0012037876
0.0011833456
0.0011523058
0.0011127415
0.0010664643
0.0010150504
0.00095987649
0.00090214192
0.00084288343
0.00078298947
0.00072321321
0.00066419233
0.0006064655
0.00055047944
0.00049659938
0.0004451221
0.00039627077
0.00035022008
0.00030708803
0.00026693915
0.00022981356
0.00019571957
0.00016462124
0.00013645633
0.00011114585
8.8598326e-05
6.8717776e-05
5.14076e-05
3.6573401e-05
2.4160717e-05
1.4208176e-05
6.8930048e-06
2.4409969e-06
5.4235859e-07
6.3109135e-08
3.1086758e-09
6.6676136e-10
2.3543932e-06
2.3427877e-06
2.3338585e-06
2.3332062e-06
2.3235286e-06
2.3096952e-06
2.3013238e-06
2.2889874e-06
2.2715984e-06
2.2527287e-06
2.2343704e-06
2.2192107e-06
2.1961435e-06
2.1578764e-06
2.1233771e-06
2.1053413e-06
2.0738989e-06
2.014273e-06
1.9692126e-06
1.9711011e-06
1.9889029e-06
1.987505e-06
1.9788334e-06
1.9864585e-06
2.0127742e-06
2.0441278e-06
2.0696036e-06
2.0910312e-06
2.1138651e-06
2.1390638e-06
2.1629457e-06
2.185504e-06
2.2109716e-06
2.2407409e-06
2.2737884e-06
2.3092488e-06
2.3461368e-06
2.3843331e-06
2.4248881e-06
2.4684104e-06
2.515357e-06
2.5668032e-06
2.623677e-06
2.68642e-06
2.7551373e-06
2.8295747e-06
2.9092493e-06
2.9935798e-06
3.0817157e-06
3.1723436e-06
3.2637618e-06
3.3547976e-06
3.4516301e-06
3.6188927e-06
4.3519368e-06
9.1209304e-06
3.8065549e-05
0.00015089095
0.00036650398
0.00059544009
0.00078199761
0.00092625341
0.0010342417
0.0011112087
0.0011617489
0.0011898976
0.001199185
0.0011926993
0.0011731479
0.0011429082
0.0011040666
0.0010584517
0.0010076555
0.00095306524
0.00089588179
0.00083717136
0.00077783039
0.0007186089
0.00066014095
0.00060296023
0.00054750721
0.00049414021
0.00044314943
0.00039475109
0.00034911272
0.00030634615
0.00026651124
0.00022964503
0.0001957547
0.00016480518
0.00013673702
0.00011147582
8.8936442e-05
6.9030743e-05
5.1671306e-05
3.6773737e-05
2.4294037e-05
1.4281233e-05
6.9220132e-06
2.4475807e-06
5.4294593e-07
6.3103225e-08
3.0952568e-09
6.5169781e-10
2.343268e-06
2.3342943e-06
2.3336143e-06
2.3241375e-06
2.3102786e-06
2.3018172e-06
2.2896021e-06
2.2722817e-06
2.2533907e-06
2.2349524e-06
2.2197854e-06
2.1970051e-06
2.1589457e-06
2.1242219e-06
2.106101e-06
2.0754598e-06
2.0166156e-06
1.9707115e-06
1.9709076e-06
1.9881034e-06
1.9871994e-06
1.9783951e-06
1.9847367e-06
2.0096534e-06
2.0405406e-06
2.0662943e-06
2.0879156e-06
2.1105557e-06
2.1353828e-06
2.159126e-06
2.1816443e-06
2.2068051e-06
2.2361525e-06
2.2689923e-06
2.3046043e-06
2.3420558e-06
2.3810789e-06
2.4224104e-06
2.4665081e-06
2.5137824e-06
2.5652112e-06
2.6216922e-06
2.6837303e-06
2.7515221e-06
2.824919e-06
2.9035395e-06
2.9868931e-06
3.0742394e-06
3.1644064e-06
3.2558302e-06
3.3473876e-06
3.4448251e-06
3.6092487e-06
4.3087464e-06
8.7778063e-06
3.5423675e-05
0.00013978217
0.00034581535
0.00057272401
0.00076064382
0.00090655803
0.0010162271
0.001094803
0.0011468369
0.0011763491
0.0011868694
0.0011814921
0.0011629337
0.0011335836
0.0010955422
0.0010506546
0.0010005308
0.00094657849
0.00089002076
0.00083190673
0.00077313404
0.00071446166
0.00065652748
0.00059986475
0.00054491001
0.00049201466
0.0004414701
0.00039349001
0.00034823299
0.00030580432
0.00026625914
0.00022963146
0.00019592723
0.00016511201
0.00013712878
0.00011190722
8.9367879e-05
6.9429664e-05
5.2013348e-05
3.7043575e-05
2.448588e-05
1.4399038e-05
6.9794559e-06
2.4668882e-06
5.4680449e-07
6.3499463e-08
3.0993935e-09
6.3783357e-10
2.343769e-06
2.3347229e-06
2.3340271e-06
2.3247584e-06
2.3108787e-06
2.3023224e-06
2.2902253e-06
2.2729801e-06
2.2540711e-06
2.2355533e-06
2.220378e-06
2.1978928e-06
2.160057e-06
2.1251014e-06
2.1068778e-06
2.0770467e-06
2.0190218e-06
1.9722963e-06
1.9707691e-06
1.9873161e-06
1.9869059e-06
1.9780189e-06
1.9831129e-06
2.006594e-06
2.0369285e-06
2.0629058e-06
2.0847322e-06
2.1072164e-06
2.1316997e-06
2.1552998e-06
2.1777646e-06
2.2026194e-06
2.23153e-06
2.2640999e-06
2.2997558e-06
2.3376332e-06
2.3773532e-06
2.4193871e-06
2.4640449e-06
2.5116665e-06
2.5631196e-06
2.6192549e-06
2.6806176e-06
2.74748e-06
2.8197912e-06
2.8972694e-06
2.9795163e-06
3.065904e-06
3.155404e-06
3.246596e-06
3.3383834e-06
3.4357568e-06
3.5936133e-06
4.2339869e-06
8.2517747e-06
3.2031165e-05
0.00012701324
0.00032286751
0.00054763049
0.00073734304
0.00088534266
0.00099705564
0.0010775523
0.0011313479
0.0011624533
0.0011744014
0.0011702954
0.0011528631
0.001124507
0.0010873425
0.0010432314
0.00099380124
0.00094047694
0.00088449785
0.00082692717
0.00076867385
0.00071050498
0.00065306335
0.00059688414
0.00054240353
0.00048997087
0.00043986398
0.00039228636
0.00034739375
0.00030528784
0.00026602046
0.00022962306
0.00019610027
0.00016541787
0.00013752051
0.00011234104
8.9805906e-05
6.9840493e-05
5.2372435e-05
3.7334371e-05
2.4700436e-05
1.4538199e-05
7.0530546e-06
2.4945098e-06
5.5301912e-07
6.4204696e-08
3.1222517e-09
6.3104477e-10
2.3443029e-06
2.3351432e-06
2.3344413e-06
2.3253896e-06
2.3114963e-06
2.3028407e-06
2.2908571e-06
2.2736928e-06
2.2547695e-06
2.236173e-06
2.2209873e-06
2.1988042e-06
2.1612092e-06
2.1260165e-06
2.1076702e-06
2.0786538e-06
2.0214874e-06
1.9739708e-06
1.9706923e-06
1.9865425e-06
1.9866205e-06
1.9777024e-06
1.981592e-06
2.0036074e-06
2.0333026e-06
2.0594426e-06
2.081479e-06
2.1038432e-06
2.1280116e-06
2.151467e-06
2.1738689e-06
2.1984221e-06
2.2268853e-06
2.2591294e-06
2.2947283e-06
2.3328984e-06
2.3731843e-06
2.4158365e-06
2.4610251e-06
2.5090036e-06
2.5605199e-06
2.6163623e-06
2.6770933e-06
2.7430442e-06
2.8142511e-06
2.8905271e-06
2.9715656e-06
3.0568505e-06
3.1454977e-06
3.2362347e-06
3.3279834e-06
3.4247939e-06
3.5737502e-06
4.1400118e-06
7.6260247e-06
2.8268392e-05
0.00011328756
0.00029818733
0.00052044419
0.00071228078
0.00086275151
0.00097683677
0.0010595364
0.001115338
0.0011482477
0.0011618051
0.0011591243
0.0011429458
0.0011156864
0.0010794776
0.0010361987
0.00098749618
0.00093481417
0.00087941058
0.00082236545
0.00076460188
0.00070689786
0.00064990356
0.000594158
0.00054009818
0.00048807165
0.00043835264
0.00039113987
0.00034658382
0.00030478104
0.0002657789
0.00022960529
0.00019626258
0.00016571586
0.00013791069
0.00011278234
9.0259925e-05
7.0273758e-05
5.2758539e-05
3.765457e-05
2.4944025e-05
1.4702664e-05
7.1446045e-06
2.5308859e-06
5.6160966e-07
6.5210642e-08
3.1603922e-09
6.2768688e-10
2.3448791e-06
2.3355573e-06
2.3348534e-06
2.3260285e-06
2.3121322e-06
2.3033736e-06
2.2914976e-06
2.2744195e-06
2.2554856e-06
2.236811e-06
2.2216123e-06
2.1997373e-06
2.1624011e-06
2.1269679e-06
2.1084766e-06
2.0802754e-06
2.0240081e-06
1.9757381e-06
1.9706842e-06
1.9857848e-06
1.9863395e-06
1.9774425e-06
1.9801778e-06
2.0007044e-06
2.029675e-06
2.0559108e-06
2.0781552e-06
2.1004322e-06
2.1243151e-06
2.1476275e-06
2.1699606e-06
2.19422e-06
2.2222299e-06
2.2540998e-06
2.2895488e-06
2.3278845e-06
2.3686062e-06
2.4117848e-06
2.4574621e-06
2.5057966e-06
2.5574104e-06
2.6130149e-06
2.6731693e-06
2.7382454e-06
2.8083541e-06
2.8833956e-06
2.9631522e-06
3.0472171e-06
3.1348485e-06
3.2249255e-06
3.3163942e-06
3.4123113e-06
3.5513519e-06
4.0379317e-06
6.96914e-06
2.4435396e-05
9.9214661e-05
0.00027227453
0.00049143218
0.0006856226
0.00083892146
0.00095568073
0.0010408414
0.0010988723
0.0011337797
0.001149113
0.0011479992
0.0011331931
0.0011071263
0.0010719467
0.0010295518
0.00098160812
0.00092958038
0.00087474709
0.00081820774
0.00076090259
0.00070362372
0.00064703187
0.00059167289
0.00053798726
0.00048632292
0.00043695212
0.00039006996
0.00034582226
0.0003043006
0.00026554773
0.00022958743
0.0001964191
0.00016600622
0.00013829421
0.00011321967
9.0714574e-05
7.0713471e-05
5.3156671e-05
3.7991043e-05
2.5205955e-05
1.4884645e-05
7.2495303e-06
2.5742288e-06
5.7219777e-07
6.6480204e-08
3.2130966e-09
6.2857013e-10
2.3359712e-06
2.3352596e-06
2.3266722e-06
2.3127861e-06
2.3039225e-06
2.2921475e-06
2.2751596e-06
2.2562189e-06
2.2374673e-06
2.2222521e-06
2.2006898e-06
2.1636313e-06
2.1279565e-06
2.1092963e-06
2.0819061e-06
2.0265789e-06
1.9776008e-06
1.9707516e-06
1.9850458e-06
1.9860595e-06
1.9772353e-06
1.978873e-06
1.9978956e-06
2.0260581e-06
2.0523177e-06
2.0747609e-06
2.09698e-06
2.1206071e-06
2.1437806e-06
2.1660427e-06
2.1900194e-06
2.2175753e-06
2.2490307e-06
2.2842461e-06
2.3226282e-06
2.3636582e-06
2.4072656e-06
2.4533783e-06
2.5020571e-06
2.5537958e-06
2.6092175e-06
2.6688581e-06
2.7331121e-06
2.8021505e-06
2.8759514e-06
2.9543806e-06
3.0371358e-06
3.1236139e-06
3.2128471e-06
3.3038218e-06
3.3986549e-06
3.5278219e-06
3.9364471e-06
6.3318822e-06
2.0752381e-05
8.5305522e-05
0.00024558866
0.00046082314
0.00065748139
0.00081394279
0.00093365562
0.0010215148
0.0010819806
0.0011190654
0.0011363316
0.001136921
0.0011236029
0.0010988245
0.00106475
0.0010232951
0.00097614658
0.00092479046
0.00087052731
0.0008144781
0.00075760286
0.00070071079
0.00064447636
0.00058945543
0.0005360948
0.00048474532
0.00043567928
0.00038908962
0.0003451184
0.00030385269
0.00026533053
0.00022957127
0.00019657062
0.00016628957
0.00013867237
0.00011365585
9.1173707e-05
7.1163666e-05
5.3570589e-05
3.834701e-05
2.5488689e-05
1.5085704e-05
7.3685138e-06
2.6246503e-06
5.8475312e-07
6.8002062e-08
3.2789382e-09
6.3266121e-10
2.3363948e-06
2.3356569e-06
2.3273174e-06
2.313457e-06
2.3044886e-06
2.2928075e-06
2.2759129e-06
2.2569691e-06
2.2381417e-06
2.2229058e-06
2.2016596e-06
2.1648984e-06
2.128983e-06
2.1101285e-06
2.0835406e-06
2.0291946e-06
1.9795608e-06
1.9709015e-06
1.9843292e-06
1.9857775e-06
1.9770764e-06
1.9776791e-06
1.9951908e-06
2.022465e-06
2.0486721e-06
2.0712974e-06
2.0934837e-06
2.1168842e-06
2.1399256e-06
2.1621177e-06
2.1858258e-06
2.2129322e-06
2.2439413e-06
2.2788497e-06
2.3171684e-06
2.3583839e-06
2.402319e-06
2.4488042e-06
2.4978053e-06
2.5496884e-06
2.6049794e-06
2.6641739e-06
2.7276709e-06
2.7956861e-06
2.8682644e-06
2.9453475e-06
3.0267312e-06
3.111945e-06
3.2001746e-06
3.2904676e-06
3.3841271e-06
3.5041976e-06
3.8415991e-06
5.7483491e-06
1.7371653e-05
7.1993617e-05
0.0002185904
0.00042885196
0.00062795703
0.00078789787
0.00091082544
0.0010016016
0.0010646913
0.0011041199
0.0011234661
0.0011258878
0.00111417
0.001090775
0.0010578832
0.0010174279
0.00097111556
0.00092045387
0.00086676604
0.00081119596
0.00075472558
0.00069818385
0.00064226206
0.00058752926
0.00053444172
0.00048335599
0.00043454681
0.00038820678
0.00034447552
0.00030343626
0.00026512258
0.00022954908
0.00019670722
0.0001665546
0.00013903321
0.00011407894
9.1625992e-05
7.1614036e-05
5.3991371e-05
3.8715163e-05
2.5786683e-05
1.5302104e-05
7.4995305e-06
2.6814185e-06
5.9912568e-07
6.9760568e-08
3.3573226e-09
6.3999568e-10
2.3368411e-06
2.3360442e-06
2.3279603e-06
2.3141432e-06
2.3050725e-06
2.2934789e-06
2.2766797e-06
2.257736e-06
2.238834e-06
2.2235725e-06
2.2026446e-06
2.1662007e-06
2.1300485e-06
2.110973e-06
2.085174e-06
2.0318498e-06
1.9816193e-06
1.9711407e-06
1.983639e-06
1.985491e-06
1.9769613e-06
1.9765967e-06
1.992599e-06
2.0189093e-06
2.0449838e-06
2.0677675e-06
2.0899412e-06
2.1131437e-06
2.1360618e-06
2.1581875e-06
2.1816443e-06
2.2083109e-06
2.2388506e-06
2.2733892e-06
2.3115453e-06
2.35283e-06
2.3969909e-06
2.4437783e-06
2.4930698e-06
2.5451078e-06
2.6003153e-06
2.6591329e-06
2.7219473e-06
2.7890028e-06
2.860398e-06
2.9361419e-06
3.0161199e-06
3.0999865e-06
3.1870783e-06
3.2765267e-06
3.3689845e-06
3.4811561e-06
3.756951e-06
5.2381323e-06
1.4385933e-05
5.9629303e-05
0.00019174422
0.00039576594
0.00059713703
0.00076085797
0.00088724547
0.00098113883
0.0010470246
0.0010889497
0.0011105128
0.0011148899
0.0011048817
0.0010829656
0.001051337
0.0010119461
0.00096651821
0.00091658179
0.00086348275
0.00080838853
0.00075230441
0.00069608133
0.0006404301
0.0005859361
0.00053306827
0.000482192
0.00043358726
0.00038744861
0.00034391498
0.00030306689
0.00026493397
0.00022952615
0.00019683019
0.00016679947
0.00013937269
0.00011448355
9.2065423e-05
7.2058606e-05
5.4413534e-05
3.9090852e-05
2.6096315e-05
1.5531362e-05
7.6412219e-06
2.7440452e-06
6.1521713e-07
7.1745013e-08
3.4476145e-09
6.5032399e-10
2.3373231e-06
2.3364235e-06
2.3285972e-06
2.3148423e-06
2.305674e-06
2.2941629e-06
2.2774603e-06
2.2585198e-06
2.2395442e-06
2.2242516e-06
2.2036425e-06
2.1675363e-06
2.1311534e-06
2.1118296e-06
2.0868015e-06
2.0345383e-06
1.9837767e-06
1.9714759e-06
1.98298e-06
1.9851982e-06
1.9768847e-06
1.9756252e-06
1.9901285e-06
2.0154045e-06
2.0412639e-06
2.0641751e-06
2.0863514e-06
2.1093827e-06
2.1321882e-06
2.154254e-06
2.1774793e-06
2.2037209e-06
2.2337768e-06
2.2678941e-06
2.3057997e-06
2.3470457e-06
2.3913315e-06
2.4383458e-06
2.4878872e-06
2.5400813e-06
2.5952461e-06
2.6537551e-06
2.7159673e-06
2.7821394e-06
2.8524105e-06
2.9268458e-06
3.0054106e-06
3.087875e-06
3.173722e-06
3.2621867e-06
3.3534449e-06
3.4590728e-06
3.6840334e-06
4.8092825e-06
1.1838863e-05
4.8476701e-05
0.00016552498
0.00036184176
0.00056511064
0.00073289378
0.00086297297
0.00096016593
0.0010290025
0.0010735618
0.0010974676
0.0011039153
0.0010957218
0.0010753789
0.0010450962
0.0010068394
0.00096235106
0.00091317938
0.00086069199
0.00080607975
0.00075037188
0.00069444274
0.00063902493
0.00058472292
0.00053202155
0.00048129833
0.00043284157
0.0003868506
0.00034346588
0.00030276691
0.00026478043
0.00022951205
0.00019694372
0.000167024
0.00013968732
0.00011486394
9.2485029e-05
7.2490048e-05
5.4830136e-05
3.9468052e-05
2.6412852e-05
1.5770225e-05
7.7918145e-06
2.811901e-06
6.3290382e-07
7.3942989e-08
3.5493376e-09
6.6363317e-10
2.3378504e-06
2.3368007e-06
2.3292252e-06
2.3155515e-06
2.3062923e-06
2.2948608e-06
2.2782555e-06
2.2593206e-06
2.2402725e-06
2.2249424e-06
2.2046513e-06
2.1689031e-06
2.1322985e-06
2.1126986e-06
2.0884187e-06
2.0372539e-06
1.9860326e-06
1.9719134e-06
1.9823577e-06
1.9848979e-06
1.9768413e-06
1.9747626e-06
1.9877863e-06
2.0119641e-06
2.0375248e-06
2.0605259e-06
2.082714e-06
2.1055993e-06
2.128304e-06
2.1503184e-06
2.1733345e-06
2.1991707e-06
2.2287369e-06
2.2623927e-06
2.2999723e-06
2.3410813e-06
2.3853949e-06
2.4325578e-06
2.4823016e-06
2.5346443e-06
2.5897995e-06
2.6480651e-06
2.7097586e-06
2.7751338e-06
2.8443558e-06
2.9175346e-06
2.9947045e-06
3.0757402e-06
3.1602634e-06
3.247629e-06
3.3376972e-06
3.4381014e-06
3.6228693e-06
4.4612927e-06
9.7352233e-06
3.8708e-05
0.00014040968
0.00032739295
0.00053197517
0.00070407617
0.00083806803
0.00093872551
0.0010106492
0.0010579645
0.0010843257
0.0010929497
0.0010866701
0.0010679924
0.0010391392
0.0010020901
0.00095860321
0.00091024463
0.00085840217
0.00080428915
0.00074895836
0.00069330823
0.00063809452
0.00058394318
0.00053135772
0.00048073107
0.00043236321
0.00038646144
0.00034317056
0.00030257136
0.00026468921
0.00022952648
0.00019706054
0.00016723493
0.00013997897
0.00011521838
9.2880694e-05
7.2902987e-05
5.5235477e-05
3.9841495e-05
2.6731982e-05
1.6015645e-05
7.9496156e-06
2.8843776e-06
6.5206871e-07
7.6343011e-08
3.6620221e-09
6.7989072e-10
2.3371853e-06
2.3298431e-06
2.3162677e-06
2.3069259e-06
2.2955733e-06
2.2790662e-06
2.2601391e-06
2.2410193e-06
2.2256445e-06
2.2056691e-06
2.1702991e-06
2.1334843e-06
2.1135806e-06
2.0900215e-06
2.0399898e-06
1.9883858e-06
1.9724594e-06
1.981778e-06
1.9845894e-06
1.9768258e-06
1.9740065e-06
1.9855785e-06
2.0086016e-06
2.0337795e-06
2.0568267e-06
2.0790302e-06
2.101792e-06
2.1244086e-06
2.146382e-06
2.1692129e-06
2.1946678e-06
2.2237468e-06
2.2569122e-06
2.2941029e-06
2.3349877e-06
2.3792375e-06
2.4264704e-06
2.4763637e-06
2.5288396e-06
2.5840104e-06
2.6420931e-06
2.7033521e-06
2.7680238e-06
2.8362855e-06
2.9082794e-06
2.9840967e-06
3.0637043e-06
3.1468539e-06
3.2330289e-06
3.3219126e-06
3.4182563e-06
3.5724912e-06
4.1878787e-06
8.0512373e-06
3.0402965e-05
0.00011686211
0.00029277865
0.00049784597
0.00067447911
0.00081259696
0.0009168672
0.00099199592
0.0010421714
0.001071086
0.0010819804
0.0010777059
0.0010607803
0.001033439
0.00099767295
0.00095525451
0.00090776527
0.0008566112
0.0008030265
0.00074808591
0.00069271217
0.00063768387
0.00058365078
0.00053113638
0.00048055294
0.00043221443
0.00038634052
0.00034308271
0.00030252681
0.00026469837
0.00022959887
0.00019720147
0.00016744542
0.00014025411
0.00011554819
9.3249923e-05
7.3292643e-05
5.5623722e-05
4.0205409e-05
2.7048756e-05
1.6264024e-05
8.1125707e-06
2.9607078e-06
6.7255611e-07
7.8929105e-08
3.7850877e-09
6.9914556e-10
2.3375902e-06
2.3304532e-06
2.3169872e-06
2.3075726e-06
2.2963007e-06
2.2798934e-06
2.2609759e-06
2.2417851e-06
2.2263577e-06
2.2066938e-06
2.1717217e-06
2.1347111e-06
2.1144761e-06
2.0916062e-06
2.0427392e-06
1.990834e-06
1.9731193e-06
1.9812474e-06
1.9842731e-06
1.9768327e-06
1.9733528e-06
1.9835099e-06
2.0053299e-06
2.030042e-06
2.053086e-06
2.0753024e-06
2.0979601e-06
2.1205015e-06
2.1424455e-06
2.1651171e-06
2.1902188e-06
2.2188208e-06
2.251478e-06
2.28823e-06
2.3288151e-06
2.3729172e-06
2.4201434e-06
2.4701305e-06
2.5227175e-06
2.5779215e-06
2.6358758e-06
2.6967831e-06
2.7608495e-06
2.8282504e-06
2.8991478e-06
2.9736769e-06
3.0518839e-06
3.1336387e-06
3.2185572e-06
3.3062541e-06
3.3994837e-06
3.5313912e-06
3.9793599e-06
6.7441066e-06
2.3554573e-05
9.5307363e-05
0.00025840965
0.00046286661
0.00064418127
0.00078663364
0.00089464918
0.00097308194
0.0010262036
0.001057753
0.0010709985
0.0010688091
0.0010537156
0.0010279639
0.00099355581
0.00095227532
0.00090571754
0.0008553043
0.00080228813
0.00074776429
0.00069267771
0.00063783014
0.00058389452
0.00053141668
0.00048082939
0.00043246457
0.00038655661
0.0003432682
0.00030269267
0.00026485959
0.00022977129
0.00019739907
0.00016767832
0.00014052719
0.00011586043
9.3594277e-05
7.365659e-05
5.5990239e-05
4.0554309e-05
2.7358052e-05
1.6511394e-05
8.2782868e-06
3.0399435e-06
6.9416148e-07
8.1679522e-08
3.9177528e-09
7.2146696e-10
2.3380278e-06
2.3310611e-06
2.3177065e-06
2.3082298e-06
2.2970427e-06
2.2807378e-06
2.2618321e-06
2.2425709e-06
2.2270819e-06
2.2077238e-06
2.1731684e-06
2.135979e-06
2.1153863e-06
2.0931693e-06
2.0454948e-06
1.9933742e-06
1.9738982e-06
1.9807726e-06
1.9839499e-06
1.9768569e-06
1.9727971e-06
1.9815841e-06
2.0021613e-06
2.0263267e-06
2.0493135e-06
2.0715342e-06
2.0941039e-06
2.1165827e-06
2.13851e-06
2.1610492e-06
2.1858292e-06
2.2139718e-06
2.2461136e-06
2.2823898e-06
2.3226124e-06
2.3664922e-06
2.4136392e-06
2.4636635e-06
2.5163347e-06
2.5715826e-06
2.6294571e-06
2.6900929e-06
2.7536546e-06
2.8203029e-06
2.8902065e-06
2.963532e-06
3.0403908e-06
3.1207584e-06
3.204381e-06
3.2908836e-06
3.3817175e-06
3.4978761e-06
3.8245778e-06
5.7604112e-06
1.8081759e-05
7.6100203e-05
0.00022475278
0.00042722249
0.00061326963
0.0007602623
0.00087214068
0.00095395765
0.0010100922
0.00104434
0.0010600012
0.0010599639
0.0010467716
0.0010226802
0.00098970053
0.00094962677
0.00090406537
0.00085445165
0.00080205395
0.00074798561
0.00069321159
0.0006385552
0.00058471177
0.00053224957
0.00048162307
0.00043318416
0.00038718486
0.00034380241
0.00030314131
0.00026523867
0.00023010088
0.00019770005
0.00016796964
0.00014082364
0.00011617115
9.3921872e-05
7.3997013e-05
5.6333201e-05
4.0884262e-05
2.765539e-05
1.6753928e-05
8.4443117e-06
3.121063e-06
7.1665637e-07
8.456948e-08
4.059141e-09
7.4697934e-10
2.3385073e-06
2.3316762e-06
2.3184231e-06
2.3088948e-06
2.2977981e-06
2.2815998e-06
2.2627088e-06
2.2433777e-06
2.2278175e-06
2.2087575e-06
2.1746368e-06
2.137288e-06
2.1163122e-06
2.0947078e-06
2.0482492e-06
1.9960024e-06
1.9748005e-06
1.980361e-06
1.9836216e-06
1.9768933e-06
1.9723338e-06
1.9798031e-06
1.9991074e-06
2.0226485e-06
2.0455201e-06
2.0677307e-06
2.0902244e-06
2.1126529e-06
2.1345764e-06
2.1570108e-06
2.1815035e-06
2.2092107e-06
2.2408401e-06
2.276616e-06
2.3164264e-06
2.3600197e-06
2.4070213e-06
2.4570276e-06
2.5097532e-06
2.5650502e-06
2.6228878e-06
2.6833289e-06
2.7464876e-06
2.812498e-06
2.8815232e-06
2.9537479e-06
3.0293349e-06
3.1083508e-06
3.1906657e-06
3.2759672e-06
3.3649168e-06
3.470324e-06
3.712331e-06
5.0429876e-06
1.3847617e-05
5.9491521e-05
0.00019233107
0.00039115674
0.00058184638
0.00073358114
0.00084942469
0.0009346869
0.00099388095
0.0010308713
0.0010489949
0.0010511606
0.001039925
0.0010175532
0.00098606437
0.0009472612
0.0009027597
0.00085400656
0.00080228351
0.00074871935
0.00069429649
0.00063985742
0.000586118
0.00053366785
0.00048298289
0.00043443585
0.00038829816
0.00034476432
0.00030395335
0.00026591356
0.00023065918
0.00019816666
0.00016837042
0.0001411825
0.00011650767
9.424951e-05
7.432205e-05
5.6654351e-05
4.1192989e-05
2.7936678e-05
1.6987518e-05
8.6077371e-06
3.2027529e-06
7.397247e-07
8.7562943e-08
4.207919e-09
7.7582485e-10
2.3323104e-06
2.3191362e-06
2.3095642e-06
2.298565e-06
2.2824794e-06
2.2636072e-06
2.2442067e-06
2.2285651e-06
2.2097936e-06
2.1761241e-06
2.1386377e-06
2.117255e-06
2.0962192e-06
2.0509948e-06
1.9987134e-06
1.9758295e-06
1.9800197e-06
1.983291e-06
1.9769373e-06
1.9719568e-06
1.9781679e-06
1.9961787e-06
2.0190224e-06
2.0417181e-06
2.0638984e-06
2.0863242e-06
2.1087129e-06
2.1306456e-06
2.1530031e-06
2.1772452e-06
2.204547e-06
2.2356761e-06
2.2709395e-06
2.3103011e-06
2.3535549e-06
2.4003526e-06
2.4502894e-06
2.5030386e-06
2.5583857e-06
2.6162242e-06
2.6765439e-06
2.7394016e-06
2.8048943e-06
2.8731677e-06
2.9444118e-06
3.0188261e-06
3.096554e-06
3.1775789e-06
3.261681e-06
3.3490902e-06