/*--------------------------------*- C++ -*----------------------------------*\
| =========                 |                                                 |
| \\      /  F ield         | OpenFOAM: The Open Source CFD Toolbox           |
|  \\    /   O peration     | Version:  2506                                  |
|   \\  /    A nd           | Website:  www.openfoam.com                      |
|    \\/     M anipulation  |                                                 |
\*---------------------------------------------------------------------------*/
FoamFile
{
    version     2.0;
    format      ascii;
    arch        "LSB;label=32;scalar=64";
    class       volScalarField;
    location    "0.022";
    object      alphat;
}
// * * * * * * * * * * * * * * * * * * * * * * * * * * * * * * * * * * * * * //

dimensions      [1 -1 -1 0 0 0 0];

internalField   nonuniform List<scalar> 
13761
(
5.8045825e-10
2.4578605e-09
4.8956574e-08
4.2467453e-07
1.952709e-06
5.6654419e-06
1.1937407e-05
2.057432e-05
3.1371249e-05
4.4262704e-05
5.9294676e-05
7.6572983e-05
9.6225611e-05
5.9172119e-10
2.495677e-09
4.9648515e-08
4.3024327e-07
1.9746119e-06
5.7161507e-06
1.2022519e-05
2.0697861e-05
3.1541004e-05
4.4490627e-05
5.9595351e-05
7.6961509e-05
9.6714164e-05
0.0001189901
0.00014393122
0.0001716754
0.00020235267
0.00023607642
0.00027292919
0.0003129744
0.00035626698
0.00040282649
0.00045263702
0.00050565295
0.00056177476
0.00062084876
6.0000752e-10
2.5275563e-09
5.0257076e-08
4.3519928e-07
1.994596e-06
5.7645619e-06
1.2109223e-05
2.0833466e-05
3.1741568e-05
4.4778583e-05
5.9999017e-05
7.751409e-05
9.7452289e-05
0.00011995214
0.00014515528
0.00017319734
0.00020420364
0.00023828085
0.00027550189
0.00031591904
0.00035957382
0.00040647156
0.00045658091
0.00050984209
0.0005661441
0.00062532772
0.00068717317
0.00075138596
0.00081758987
0.00088530521
0.00095392667
0.0010226981
6.0592121e-10
2.5527768e-09
5.0752288e-08
4.3926932e-07
2.0113448e-06
5.8066278e-06
1.2188167e-05
2.0962748e-05
3.1939939e-05
4.5070524e-05
6.041399e-05
7.8085284e-05
9.8214853e-05
0.00012094125
0.00014640409
0.00017473476
0.00020605224
0.00024045469
0.00027800456
0.00031874196
0.00036269526
0.00040985575
0.00046017797
0.00051358847
0.00056996394
0.00062913457
0.00069087267
0.00075487894
0.00082077601
0.00088808824
0.0009562214
0.0010244432
0.0010918515
0.0011573516
0.0012196213
0.001277049
7.8405479e-11
1.5661221e-10
2.3284966e-09
2.1285823e-08
1.1516562e-07
4.361179e-07
1.2580698e-06
2.9056498e-06
5.6051236e-06
9.4098277e-06
1.4260141e-05
2.0065198e-05
2.6739399e-05
3.4214776e-05
4.2440957e-05
5.138122e-05
6.100891e-05
7.1300458e-05
8.2224486e-05
9.3737371e-05
0.00010577625
0.00011824261
0.00013099674
0.00014385626
0.0001565899
0.00016892035
0.00018052243
0.0001910204
0.00019998228
0.000206907
0.00021120651
0.0002121829
0.00020900252
0.00020067577
0.00018605646
0.0001639165
0.00013324098
9.4216874e-05
5.1327286e-05
1.8374852e-05
5.6250323e-06
3.2042229e-06
2.8702427e-06
2.8080312e-06
2.7758506e-06
2.7467962e-06
2.7196992e-06
2.6958428e-06
2.6751244e-06
2.655198e-06
2.6319278e-06
2.6010826e-06
7.9776168e-11
1.6055303e-10
2.3992532e-09
2.1934618e-08
1.1860686e-07
4.4856418e-07
1.2912074e-06
2.9739591e-06
5.7202055e-06
9.5776386e-06
1.4482415e-05
2.034158e-05
2.7068636e-05
3.4595242e-05
4.2870971e-05
5.1859406e-05
6.1534756e-05
7.1875122e-05
8.2851856e-05
9.4425303e-05
0.00010653784
0.00011909724
0.00013197067
0.00014498269
0.00015790836
0.00017047555
0.00018236277
0.00019319636
0.00020254516
0.00020990803
0.00021469649
0.00021621219
0.00021362067
0.00020592951
0.00019198292
0.00017052265
0.00014044105
0.0001016315
5.7727179e-05
2.1654653e-05
6.356373e-06
3.2994818e-06
2.8849851e-06
2.8141642e-06
2.7803705e-06
2.7505199e-06
2.7230864e-06
2.6994304e-06
2.679471e-06
2.6608038e-06
2.6391566e-06
2.6100587e-06
2.5716686e-06
2.5272225e-06
2.4835021e-06
2.4461894e-06
2.4169905e-06
2.3942606e-06
2.374139e-06
2.3538247e-06
2.3362795e-06
2.3249839e-06
8.0956462e-11
1.6428612e-10
2.4686909e-09
2.2572585e-08
1.2199349e-07
4.6082491e-07
1.3238981e-06
3.0415022e-06
5.8343968e-06
9.744929e-06
1.4705183e-05
2.0620075e-05
2.740203e-05
3.4982097e-05
4.3309509e-05
5.2347817e-05
6.2071727e-05
7.2460577e-05
8.3487968e-05
9.5117756e-05
0.00010729717
0.00011994003
0.00013292044
0.00014607028
0.00015917172
0.00017195893
0.00018411546
0.00019527125
0.00020499736
0.00021279378
0.00021807252
0.00022013543
0.00021814774
0.0002111149
0.00019787296
0.0001771371
0.00014771736
0.00010924661
6.4573191e-05
2.5496677e-05
7.2891307e-06
3.4217487e-06
2.9022069e-06
2.8206343e-06
2.7850678e-06
2.7543283e-06
2.7264097e-06
2.702778e-06
2.6834182e-06
2.6659097e-06
2.6458763e-06
2.618629e-06
2.5819855e-06
2.5387351e-06
2.495417e-06
2.4575634e-06
2.4268929e-06
2.4020189e-06
2.3794372e-06
2.3565687e-06
2.3366972e-06
2.323864e-06
2.3117045e-06
2.297059e-06
2.3060741e-06
2.3675522e-06
2.4607244e-06
8.1859837e-11
1.6766677e-10
2.5349364e-09
2.3182903e-08
1.2523818e-07
4.7259685e-07
1.3553788e-06
3.106807e-06
5.9453838e-06
9.9085326e-06
1.4924487e-05
2.0896031e-05
2.7734372e-05
3.5369742e-05
4.3750766e-05
5.2840674e-05
6.2614301e-05
7.3051814e-05
8.412861e-05
9.5811581e-05
0.00010805239
0.00012077063
0.00013384728
0.00014712181
0.00016038409
0.00017337556
0.00018578611
0.00019725076
0.00020734434
0.00021556942
0.00022133976
0.00022395845
0.00022259131
0.00021624271
0.00020374219
0.00018378188
0.00015509877
0.00011709379
7.1894291e-05
2.9983131e-05
8.486367e-06
3.5816894e-06
2.9229088e-06
2.8275319e-06
2.7899787e-06
2.7582646e-06
2.7297148e-06
2.7059243e-06
2.6869895e-06
2.6705188e-06
2.6520672e-06
2.6267418e-06
2.592018e-06
2.5502125e-06
2.5075807e-06
2.4694588e-06
2.4375224e-06
2.4106046e-06
2.3855458e-06
2.3599867e-06
2.3375738e-06
2.3230181e-06
2.3098415e-06
2.2934574e-06
2.299773e-06
2.3594424e-06
2.4528832e-06
2.5305844e-06
2.5721577e-06
2.5850623e-06
2.5844188e-06
8.2464024e-11
1.7052864e-10
2.5943051e-09
2.3731732e-08
1.2816288e-07
4.8324607e-07
1.3840039e-06
3.1665792e-06
6.0477568e-06
1.0060721e-05
1.5130233e-05
2.1157021e-05
2.8050996e-05
3.574139e-05
4.4176017e-05
5.3317527e-05
6.314057e-05
7.3625771e-05
8.474991e-05
9.6482514e-05
0.00010877931
0.00012156542
0.00013472866
0.00014811629
0.00016152648
0.00017470887
0.00018736095
0.00019912438
0.00020957941
0.00021823294
0.00022450207
0.00022769258
0.00022697221
0.00022134557
0.00020963742
0.00019051981
0.0001626641
0.00012526197
7.9776371e-05
3.5236104e-05
1.0039938e-05
3.795916e-06
2.9487146e-06
2.835039e-06
2.7951886e-06
2.7624151e-06
2.7330874e-06
2.7089452e-06
2.6902441e-06
2.6746694e-06
2.6577455e-06
2.6343903e-06
2.6017175e-06
2.5615952e-06
2.5199373e-06
2.48184e-06
2.4488777e-06
2.4200558e-06
2.3925374e-06
2.3641687e-06
2.3389922e-06
2.3225003e-06
2.3081775e-06
2.2899602e-06
2.2934416e-06
2.3511973e-06
2.4448825e-06
2.5241121e-06
2.5670623e-06
2.580631e-06
2.5802506e-06
2.583122e-06
2.5807536e-06
2.5554098e-06
8.222243e-11
1.7250581e-10
2.6487666e-09
2.4241677e-08
1.3090276e-07
4.9335066e-07
1.4116229e-06
3.2253441e-06
6.1503037e-06
1.0215797e-05
1.5342971e-05
2.1430145e-05
2.8385531e-05
3.6137012e-05
4.4631272e-05
5.3830053e-05
6.3707472e-05
7.424423e-05
8.5418069e-05
9.7200715e-05
0.00010955157
0.00012240094
0.00013564336
0.00014913401
0.00016267978
0.00017603933
0.00018891896
0.00020096845
0.00021177529
0.0002208526
0.00022762284
0.00023139636
0.00023134471
0.00022647473
0.00021560875
0.00019740243
0.00017046926
0.00013381348
8.8290485e-05
4.1388382e-05
1.2075025e-05
4.0897201e-06
2.9820865e-06
2.8433791e-06
2.8007731e-06
2.7668601e-06
2.7366107e-06
2.7119152e-06
2.6932384e-06
2.6783955e-06
2.6629213e-06
2.6415628e-06
2.6110607e-06
2.5728444e-06
2.5324464e-06
2.4946852e-06
2.4609722e-06
2.4304286e-06
2.4005074e-06
2.369232e-06
2.3410638e-06
2.3223982e-06
2.3067669e-06
2.2866066e-06
2.2870989e-06
2.342817e-06
2.4367105e-06
2.5174853e-06
2.5618732e-06
2.5761144e-06
2.5759206e-06
2.5796186e-06
2.5789296e-06
2.5554203e-06
2.5093239e-06
2.4591171e-06
2.41043e-06
8.2099549e-11
1.7480722e-10
2.708928e-09
2.4803727e-08
1.3391959e-07
5.0447621e-07
1.4421283e-06
3.2907455e-06
6.2658534e-06
1.0393396e-05
1.5591161e-05
2.1754944e-05
2.8790844e-05
3.6624781e-05
4.5201564e-05
5.4481216e-05
6.4436466e-05
7.5047188e-05
8.6291131e-05
9.8141211e-05
0.0001105595
0.00012348061
0.00013680495
0.00015039511
0.00016406647
0.00017758688
0.00019067198
0.00020298057
0.00021410856
0.00022357658
0.00023081369
0.00023513597
0.0002357197
0.00023157485
0.00022152282
0.00020420663
0.00017819289
0.00014233311
9.6980199e-05
4.8172522e-05
1.461355e-05
4.4801466e-06
3.024575e-06
2.8524162e-06
2.8065015e-06
2.7714127e-06
2.740163e-06
2.7147695e-06
2.6959337e-06
2.681641e-06
2.6674804e-06
2.6480693e-06
2.6198029e-06
2.5836889e-06
2.5448501e-06
2.5077765e-06
2.4736428e-06
2.441615e-06
2.4093954e-06
2.3751659e-06
2.3438214e-06
2.3227446e-06
2.3056209e-06
2.2834408e-06
2.2808936e-06
2.3345066e-06
2.4285334e-06
2.5107989e-06
2.5566422e-06
2.5715535e-06
2.571472e-06
2.5758727e-06
2.5767869e-06
2.5551118e-06
2.5103579e-06
2.461075e-06
2.4134969e-06
2.3517372e-06
2.2640012e-06
8.3146148e-11
1.781286e-10
2.7707671e-09
2.5371714e-08
1.3693627e-07
5.1543986e-07
1.4716915e-06
3.3532706e-06
6.3757185e-06
1.0563038e-05
1.5831491e-05
2.2075854e-05
2.9201015e-05
3.7131228e-05
4.5809189e-05
5.5192559e-05
6.5251699e-05
7.59644e-05
8.7306931e-05
9.9251774e-05
0.00011176199
0.00012477479
0.00013819501
0.00015189138
0.00016568691
0.0001793582
0.00019263031
0.00020517159
0.00021658718
0.00022640634
0.00023406585
0.0002388886
0.00024005646
0.00023658333
0.00022729101
0.00021081336
0.0001856806
0.00015062436
0.00010559816
5.5374276e-05
1.767227e-05
4.9897405e-06
3.0786245e-06
2.8621792e-06
2.8122447e-06
2.7759713e-06
2.7436904e-06
2.717497e-06
2.6983433e-06
2.6844165e-06
2.6714009e-06
2.6538338e-06
2.627815e-06
2.593955e-06
2.5569562e-06
2.5209283e-06
2.4867345e-06
2.4535047e-06
2.4191379e-06
2.3819551e-06
2.3472909e-06
2.3235735e-06
2.3047552e-06
2.2804798e-06
2.2748946e-06
2.3263703e-06
2.4204449e-06
2.5041304e-06
2.551425e-06
2.5670013e-06
2.5669686e-06
2.5719344e-06
2.5743493e-06
2.5544698e-06
2.5110875e-06
2.4627957e-06
2.416376e-06
2.3558948e-06
2.2686258e-06
2.1753679e-06
2.1167298e-06
8.4480561e-11
1.8157132e-10
2.8297591e-09
2.5910491e-08
1.3978176e-07
5.2566823e-07
1.4988074e-06
3.4094623e-06
6.4725883e-06
1.0710672e-05
1.6039716e-05
2.235513e-05
2.9562271e-05
3.7585165e-05
4.636547e-05
5.5859081e-05
6.6034062e-05
7.686568e-05
8.8327792e-05
0.00010039108
0.00011301791
0.00012614625
0.00013968337
0.00015350236
0.00016743236
0.00018125764
0.00019471211
0.00020747364
0.00021915712
0.00022930131
0.0002373519
0.00024263976
0.00024435356
0.00024151227
0.00023293954
0.00021726296
0.00019298443
0.00015874012
0.00011416245
6.294206e-05
2.1304694e-05
5.6542202e-06
3.148454e-06
2.8729356e-06
2.8179854e-06
2.7805242e-06
2.7472044e-06
2.7201291e-06
2.7005108e-06
2.686768e-06
2.6747183e-06
2.6588655e-06
2.6350661e-06
2.6035638e-06
2.5686476e-06
2.5340096e-06
2.500131e-06
2.4660196e-06
2.4297058e-06
2.3896148e-06
2.3515161e-06
2.3249348e-06
2.3042073e-06
2.277734e-06
2.2690933e-06
2.318396e-06
2.4124445e-06
2.4975022e-06
2.5462499e-06
2.562494e-06
2.5624576e-06
2.5678673e-06
2.5716723e-06
2.5535332e-06
2.5115231e-06
2.4642847e-06
2.4190677e-06
2.3598971e-06
2.2731652e-06
2.1790065e-06
2.1189642e-06
2.0912495e-06
8.5715703e-11
1.8490327e-10
2.8879824e-09
2.6442546e-08
1.4258725e-07
5.3570745e-07
1.5251802e-06
3.463336e-06
6.5637804e-06
1.0846992e-05
1.6228729e-05
2.2605576e-05
2.988434e-05
3.7990093e-05
4.6864832e-05
5.6463956e-05
6.6754254e-05
7.7709105e-05
8.9300121e-05
0.00010149582
0.00011425696
0.00012752088
0.0001411956
0.00015515665
0.0001692374
0.00018322815
0.00019687038
0.00020985075
0.00022179377
0.00023224808
0.00024066911
0.00024639686
0.00024862804
0.00024638796
0.00023850357
0.00022359873
0.00020015313
0.00016672603
0.00012268936
7.0821771e-05
2.5549027e-05
6.5165325e-06
3.2396694e-06
2.8850586e-06
2.8237031e-06
2.7850474e-06
2.7507047e-06
2.7226881e-06
2.7024738e-06
2.6887379e-06
2.677466e-06
2.6631715e-06
2.6415204e-06
2.6124288e-06
2.5797956e-06
2.5468724e-06
2.513695e-06
2.4790601e-06
2.4410511e-06
2.3981473e-06
2.3565322e-06
2.3268756e-06
2.3040163e-06
2.2752153e-06
2.2634736e-06
2.3105572e-06
2.404518e-06
2.490921e-06
2.5411297e-06
2.5580503e-06
2.5579685e-06
2.5637175e-06
2.5687981e-06
2.5523323e-06
2.5116924e-06
2.4655633e-06
2.421598e-06
2.3637617e-06
2.2776245e-06
2.1826205e-06
2.1212374e-06
2.0927953e-06
2.0649051e-06
2.0324064e-06
8.6923247e-11
1.8823965e-10
2.9468884e-09
2.6980975e-08
1.4542363e-07
5.4583114e-07
1.5516454e-06
3.5169772e-06
6.653601e-06
1.0979486e-05
1.6409773e-05
2.2842088e-05
3.0184895e-05
3.8364856e-05
4.7325144e-05
5.7021708e-05
6.7421184e-05
7.8496108e-05
9.021667e-05
0.00010254969
0.00011545434
0.00012886681
0.00014269483
0.00015681491
0.00017106294
0.00018523343
0.00019907377
0.00021227814
0.0002244798
0.0002352371
0.0002440155
0.00025016492
0.00025289122
0.00025122737
0.00024400512
0.00022984693
0.00020721539
0.00017460746
0.00013118266
7.8955989e-05
3.0424087e-05
7.6271215e-06
3.3597432e-06
2.8990811e-06
2.8293893e-06
2.7895193e-06
2.7541934e-06
2.7251995e-06
2.7042751e-06
2.6903762e-06
2.6796875e-06
2.6667707e-06
2.6471527e-06
2.6204713e-06
2.5902734e-06
2.5593632e-06
2.5272767e-06
2.4925099e-06
2.4531107e-06
2.4075434e-06
2.3623688e-06
2.3294429e-06
2.3042271e-06
2.2729436e-06
2.25802e-06
2.3028209e-06
2.3966433e-06
2.484385e-06
2.5360692e-06
2.5536781e-06
2.5535176e-06
2.5595143e-06
2.5657552e-06
2.5508853e-06
2.5116077e-06
2.466635e-06
2.4239801e-06
2.3675262e-06
2.2820383e-06
2.186215e-06
2.123544e-06
2.0944329e-06
2.0657296e-06
2.0309372e-06
2.0430619e-06
8.810447e-11
1.9158759e-10
3.006622e-09
2.7527171e-08
1.4829959e-07
5.5608094e-07
1.5783628e-06
3.5708941e-06
6.7433489e-06
1.1110866e-05
1.6587646e-05
2.3072086e-05
3.0474171e-05
3.8722232e-05
4.7760945e-05
5.7547388e-05
6.8048825e-05
7.9237865e-05
9.1084196e-05
0.00010355374
0.00011660465
0.00013017212
0.0001441633
0.00015845491
0.00017288414
0.00018724816
0.00020129868
0.00021473578
0.00022720026
0.0002382593
0.00024738818
0.000253947
0.00025715152
0.00025604344
0.00024946076
0.00023602662
0.00021419083
0.00018239993
0.00013963958
8.7287907e-05
3.5926303e-05
9.0429747e-06
3.5185452e-06
2.9157468e-06
2.8350459e-06
2.7939148e-06
2.7576674e-06
2.7276853e-06
2.7059568e-06
2.6917361e-06
2.6814343e-06
2.6696951e-06
2.6519543e-06
2.6276297e-06
2.5999662e-06
2.5713325e-06
2.5407212e-06
2.5062406e-06
2.465807e-06
2.4177831e-06
2.3690495e-06
2.332685e-06
2.3048942e-06
2.2709519e-06
2.2527242e-06
2.2951545e-06
2.3887964e-06
2.4778893e-06
2.5310703e-06
2.5493812e-06
2.5491137e-06
2.5552768e-06
2.562564e-06
2.5492024e-06
2.5112664e-06
2.4674869e-06
2.4262101e-06
2.3712119e-06
2.2864316e-06
2.1898128e-06
2.1258992e-06
2.0961673e-06
2.0667068e-06
2.0296215e-06
2.0389513e-06
2.1292701e-06
8.9273286e-11
1.9496094e-10
3.0672331e-09
2.8081425e-08
1.5121593e-07
5.6645908e-07
1.6053525e-06
3.6251913e-06
6.8333878e-06
1.1242072e-05
1.6764298e-05
2.3298996e-05
3.0757456e-05
3.9069579e-05
4.8181583e-05
5.8051899e-05
6.8648859e-05
7.9945752e-05
9.1912512e-05
0.00010451496
0.0001177109
0.00013143509
0.0001455943
0.00016006528
0.00017468585
0.00018925486
0.00020352694
0.00021720663
0.0002299408
0.00024130434
0.00025078153
0.00025774246
0.00026141304
0.00026084445
0.00025488211
0.00024215164
0.00022109373
0.00019011414
0.00014805563
9.576654e-05
4.2030462e-05
1.0825777e-05
3.7289839e-06
2.9360826e-06
2.8406895e-06
2.7982024e-06
2.7611147e-06
2.7301581e-06
2.7075537e-06
2.6928671e-06
2.6827595e-06
2.6719857e-06
2.6559337e-06
2.6338619e-06
2.6087768e-06
2.5826404e-06
2.5538726e-06
2.5201134e-06
2.4790476e-06
2.4288322e-06
2.376589e-06
2.3366485e-06
2.3060799e-06
2.2692867e-06
2.2475887e-06
2.2875305e-06
2.3809548e-06
2.4714293e-06
2.5261364e-06
2.5451632e-06
2.5447632e-06
2.5510199e-06
2.5592433e-06
2.5472921e-06
2.5106596e-06
2.4680969e-06
2.428272e-06
2.3748222e-06
2.2908143e-06
2.1934239e-06
2.1283076e-06
2.0980207e-06
2.06786e-06
2.0284853e-06
2.0349213e-06
2.1243174e-06
2.2391231e-06
2.3045339e-06
9.0429826e-11
1.9835135e-10
3.1285326e-09
2.8642048e-08
1.5416397e-07
5.7693688e-07
1.6325462e-06
3.6797594e-06
6.9236323e-06
1.1373203e-05
1.6940257e-05
2.3524095e-05
3.1037125e-05
3.9410654e-05
4.8592365e-05
5.8542077e-05
6.922938e-05
8.0628591e-05
9.2710387e-05
0.00010544109
0.00011877886
0.00013265858
0.00014698712
0.00016164142
0.00017645982
0.00019124225
0.00020574536
0.00021967693
0.0002326886
0.00024436164
0.00025418832
0.00026154801
0.00026567662
0.00026563513
0.00026027719
0.0002482324
0.00022793531
0.00019775865
0.00015642728
0.00010434963
4.8692837e-05
1.3038898e-05
4.0077051e-06
2.9614865e-06
2.8463574e-06
2.8023438e-06
2.7645111e-06
2.7326167e-06
2.7090876e-06
2.6938096e-06
2.6837134e-06
2.6736892e-06
2.6591142e-06
2.6391476e-06
2.6166291e-06
2.5931611e-06
2.5665777e-06
2.5339801e-06
2.4927229e-06
2.4406389e-06
2.384989e-06
2.341375e-06
2.3078512e-06
2.2680059e-06
2.2426274e-06
2.2799288e-06
2.3730989e-06
2.4650006e-06
2.5212717e-06
2.5410292e-06
2.5404722e-06
2.5467575e-06
2.5558131e-06
2.5451666e-06
2.5097791e-06
2.4684419e-06
2.4301452e-06
2.3783493e-06
2.2951852e-06
2.1970456e-06
2.1307617e-06
2.1000023e-06
2.0692216e-06
2.0275674e-06
2.0310002e-06
2.1193558e-06
2.2354632e-06
2.301958e-06
2.341787e-06
9.1579286e-11
2.0176215e-10
3.1904713e-09
2.9208428e-08
1.5714015e-07
5.8749975e-07
1.6599031e-06
3.7345247e-06
7.0139988e-06
1.1504234e-05
1.711569e-05
2.3747922e-05
3.131432e-05
3.9747448e-05
4.8996328e-05
5.902213e-05
6.9795747e-05
8.129269e-05
9.3484688e-05
0.00010633899
0.00011981461
0.00013384715
0.00014834406
0.00016318286
0.00017820253
0.00019320393
0.00020794521
0.00022213654
0.0002354332
0.00024742165
0.000257601
0.00026535898
0.00026994094
0.0002704176
0.00026565129
0.00025427669
0.00023472458
0.00020534091
0.00016475267
0.0001130039
5.5855447e-05
1.5743139e-05
4.3757619e-06
2.9938275e-06
2.8521142e-06
2.8062937e-06
2.7678184e-06
2.7350431e-06
2.710564e-06
2.6945903e-06
2.6843382e-06
2.6748537e-06
2.6615322e-06
2.6434883e-06
2.6234715e-06
2.6027876e-06
2.5786898e-06
2.5476854e-06
2.5067058e-06
2.4531309e-06
2.3942351e-06
2.3468969e-06
2.3102739e-06
2.2671745e-06
2.2378652e-06
2.2723385e-06
2.3652127e-06
2.458598e-06
2.5164797e-06
2.5369849e-06
2.5362466e-06
2.5425034e-06
2.5522959e-06
2.5428428e-06
2.5086228e-06
2.4685034e-06
2.4318101e-06
2.3817805e-06
2.2995388e-06
2.2006696e-06
2.1332469e-06
2.1021056e-06
2.0708059e-06
2.0268926e-06
2.0272235e-06
2.1144134e-06
2.2317665e-06
2.2993553e-06
2.3389587e-06
2.4074429e-06
9.2720249e-11
2.0518536e-10
3.2528834e-09
2.9779156e-08
1.6013717e-07
5.9812229e-07
1.6873605e-06
3.7893694e-06
7.1043154e-06
1.1634981e-05
1.7290481e-05
2.3970557e-05
3.1589472e-05
4.0080917e-05
4.9395146e-05
5.9494601e-05
7.035144e-05
8.1942438e-05
9.4240535e-05
0.00010721418
0.00012082362
0.00013500561
0.00014966866
0.00016469132
0.00017991347
0.00019513699
0.00021012132
0.00022457849
0.00023816664
0.00025047639
0.00026101255
0.00026917021
0.00027420338
0.00027519213
0.00027100758
0.0002602902
0.00024146882
0.00021286751
0.00017303168
0.00012170405
6.3451115e-05
1.8991687e-05
4.8591767e-06
3.0355631e-06
2.8580611e-06
2.8100003e-06
2.770985e-06
2.7374018e-06
2.7119694e-06
2.6952191e-06
2.6846652e-06
2.6755252e-06
2.6632344e-06
2.6469069e-06
2.6292791e-06
2.6114353e-06
2.5900732e-06
2.5610699e-06
2.5208531e-06
2.4662148e-06
2.4042937e-06
2.3532337e-06
2.3134083e-06
2.2668601e-06
2.2333357e-06
2.2647586e-06
2.3572853e-06
2.4522141e-06
2.511761e-06
2.5330349e-06
2.5320913e-06
2.53827e-06
2.5487143e-06
2.5403423e-06
2.5071953e-06
2.4682694e-06
2.4332507e-06
2.3851037e-06
2.3038692e-06
2.2042884e-06
2.1357477e-06
2.1043152e-06
2.0726109e-06
2.0264706e-06
2.0236116e-06
2.1095231e-06
2.2280637e-06
2.2967486e-06
2.3360876e-06
2.4046547e-06
2.4819704e-06
9.3853839e-11
2.08619e-10
3.3157046e-09
3.0353536e-08
1.6315114e-07
6.0878986e-07
1.7148779e-06
3.844212e-06
7.1944599e-06
1.1765295e-05
1.7464493e-05
2.4191951e-05
3.1862715e-05
4.0411504e-05
4.9789715e-05
5.9960962e-05
7.0898622e-05
8.2580731e-05
9.4981512e-05
0.00010807079
0.00012181027
0.0001361382
0.00015096457
0.00016616932
0.0001815936
0.00019704053
0.00021227083
0.00022699817
0.00024088299
0.00025351926
0.00026441657
0.00027297632
0.00027846032
0.00027995739
0.00027634723
0.00026627647
0.00024817334
0.00022034389
0.0001812651
0.00013043074
7.140859e-05
2.2825111e-05
5.4893045e-06
3.0898819e-06
2.8643471e-06
2.8134097e-06
2.7739479e-06
2.7396411e-06
2.7132721e-06
2.695689e-06
2.6847128e-06
2.6757454e-06
2.6642742e-06
2.6494455e-06
2.634053e-06
2.6190447e-06
2.6006075e-06
2.5739751e-06
2.5350081e-06
2.479776e-06
2.4151113e-06
2.3603893e-06
2.3173045e-06
2.2671279e-06
2.2290792e-06
2.2571988e-06
2.3493112e-06
2.4458393e-06
2.5071116e-06
2.5291812e-06
2.5280092e-06
2.5340668e-06
2.5450901e-06
2.5376888e-06
2.5055072e-06
2.4677339e-06
2.4344544e-06
2.3883075e-06
2.3081727e-06
2.2078987e-06
2.1382516e-06
2.1066121e-06
2.0746251e-06
2.0263019e-06
2.0201717e-06
2.1047016e-06
2.2243864e-06
2.2941713e-06
2.3331973e-06
2.4017945e-06
2.4802109e-06
9.4976281e-11
2.1205161e-10
3.3787351e-09
3.0929807e-08
1.6617354e-07
6.1947432e-07
1.7423856e-06
3.8989216e-06
7.2842327e-06
1.1894918e-05
1.7637445e-05
2.4411834e-05
3.2133868e-05
4.0739224e-05
5.0180338e-05
6.0421918e-05
7.1438499e-05
8.3209338e-05
9.5709964e-05
0.00010891165
0.00012277773
0.0001372482
0.0001522348
0.00016761922
0.00018324423
0.00019891446
0.00021439206
0.00022939225
0.0002435775
0.00025654456
0.000267807
0.00027677164
0.00028270719
0.00028471047
0.00028166938
0.00027223684
0.00025484134
0.00022777398
0.00018945389
0.00013916875
7.9657477e-05
2.7267401e-05
6.3029336e-06
3.1608857e-06
2.8711853e-06
2.8164699e-06
2.7766377e-06
2.741698e-06
2.7144261e-06
2.6959777e-06
2.6844873e-06
2.6755499e-06
2.6647095e-06
2.6511623e-06
2.6378196e-06
2.6255824e-06
2.6101913e-06
2.5862482e-06
2.5490054e-06
2.493682e-06
2.426614e-06
2.3683509e-06
2.3219996e-06
2.2680375e-06
2.2251397e-06
2.2496785e-06
2.3412922e-06
2.4394618e-06
2.5025227e-06
2.5254229e-06
2.5240014e-06
2.5299003e-06
2.5414425e-06
2.5349077e-06
2.5035741e-06
2.466896e-06
2.4354115e-06
2.3913815e-06
2.3124464e-06
2.2115017e-06
2.1407502e-06
2.1089788e-06
2.0768346e-06
2.0263826e-06
2.0169048e-06
2.0999529e-06
2.2207464e-06
2.2916409e-06
2.3303209e-06
2.3988895e-06
2.4783863e-06
2.5202638e-06
9.6091641e-11
2.1548896e-10
3.4420082e-09
3.1508081e-08
1.6920384e-07
6.3017079e-07
1.7698689e-06
3.9534622e-06
7.37356e-06
1.2023736e-05
1.7809185e-05
2.4630039e-05
3.2402777e-05
4.1063975e-05
5.056704e-05
6.0877705e-05
7.1971597e-05
8.3829147e-05
9.6427178e-05
0.00010973844
0.00012372801
0.00013833776
0.00015348141
0.00016904271
0.00018486634
0.0002007587
0.00021648362
0.00023175794
0.00024624597
0.00025954694
0.00027117778
0.00028054998
0.00028693829
0.00028944681
0.00028697111
0.00027817025
0.00026147364
0.00023515975
0.00019759832
0.00014790529
8.8132226e-05
3.2323838e-05
7.3420429e-06
3.2538276e-06
2.8788732e-06
2.8191374e-06
2.7789852e-06
2.7435045e-06
2.7153768e-06
2.6960529e-06
2.683985e-06
2.6749681e-06
2.6645993e-06
2.652127e-06
2.6406265e-06
2.6310402e-06
2.6187445e-06
2.597747e-06
2.5626764e-06
2.5077856e-06
2.4387094e-06
2.3770883e-06
2.3275153e-06
2.2696384e-06
2.2215622e-06
2.2422264e-06
2.3332369e-06
2.4330695e-06
2.497981e-06
2.5217555e-06
2.5200667e-06
2.5257739e-06
2.5377884e-06
2.5320246e-06
2.501415e-06
2.4657592e-06
2.4361138e-06
2.3943146e-06
2.3166872e-06
2.2151013e-06
2.1432378e-06
2.1114002e-06
2.0792263e-06
2.0267089e-06
2.0138102e-06
2.0952752e-06
2.2171415e-06
2.2891599e-06
2.3274749e-06
2.3959741e-06
2.4765166e-06
2.519313e-06
2.535713e-06
9.7195928e-11
2.1891945e-10
3.5053434e-09
3.2087037e-08
1.7223588e-07
6.4085879e-07
1.7972757e-06
4.0077346e-06
7.4622965e-06
1.2151559e-05
1.7979481e-05
2.4846308e-05
3.2669178e-05
4.138552e-05
5.0949656e-05
6.1328285e-05
7.2498055e-05
8.4440535e-05
9.7133807e-05
0.00011055211
0.00012466228
0.00013940819
0.00015470571
0.00017044083
0.00018646044
0.00020257298
0.00021854415
0.00023409257
0.00024888444
0.00026252122
0.00027452279
0.00028430472
0.00029114709
0.00029416052
0.00029224769
0.00028407359
0.00026806889
0.00024250121
0.00020569764
0.0001566293
9.6775311e-05
3.7981136e-05
8.6531668e-06
3.3754205e-06
2.8878188e-06
2.8213824e-06
2.780927e-06
2.7449947e-06
2.7160675e-06
2.695877e-06
2.683196e-06
2.6740242e-06
2.6640012e-06
2.6524162e-06
2.6425375e-06
2.635433e-06
2.6262102e-06
2.6083451e-06
2.5758556e-06
2.5219301e-06
2.4512889e-06
2.3865544e-06
2.3338576e-06
2.271969e-06
2.2183903e-06
2.2348776e-06
2.325161e-06
2.426651e-06
2.4934703e-06
2.5181712e-06
2.5162028e-06
2.5216891e-06
2.5341425e-06
2.5290653e-06
2.4990521e-06
2.4643309e-06
2.4365542e-06
2.3970943e-06
2.3208905e-06
2.2187012e-06
2.1457102e-06
2.113863e-06
2.0817886e-06
2.0272781e-06
2.0108898e-06
2.090667e-06
2.2135647e-06
2.2867239e-06
2.3246616e-06
2.3930647e-06
2.4746295e-06
2.5183077e-06
2.5347509e-06
2.55907e-06
9.8288513e-11
2.2233958e-10
3.5686386e-09
3.266557e-08
1.7526392e-07
6.5151854e-07
1.8245579e-06
4.0616477e-06
7.5503004e-06
1.2278195e-05
1.8148092e-05
2.5060364e-05
3.2932781e-05
4.1703575e-05
5.1327948e-05
6.17735e-05
7.3017842e-05
8.5043631e-05
9.7830171e-05
0.00011135316
0.00012558123
0.00014046029
0.00015590847
0.00017181419
0.00018802672
0.0002043568
0.00022057225
0.00023639366
0.00025148917
0.0002654624
0.00027783596
0.00028802905
0.00029532647
0.00029884474
0.00029749308
0.00028994209
0.0002746239
0.00024979668
0.00021375
0.00016533108
0.00010553894
4.4209517e-05
1.0286285e-05
3.5342262e-06
2.8985734e-06
2.8231938e-06
2.7824107e-06
2.7461107e-06
2.7164465e-06
2.6954138e-06
2.6821083e-06
2.6727376e-06
2.6629691e-06
2.6521078e-06
2.6436271e-06
2.6387949e-06
2.6325544e-06
2.6179359e-06
2.5883865e-06
2.5359548e-06
2.4642312e-06
2.3966871e-06
2.3410164e-06
2.2750551e-06
2.2156648e-06
2.2276723e-06
2.3170852e-06
2.4201967e-06
2.4889726e-06
2.5146592e-06
2.5124056e-06
2.5176459e-06
2.530518e-06
2.526056e-06
2.4965106e-06
2.4626221e-06
2.4367266e-06
2.399707e-06
2.3250496e-06
2.2223046e-06
2.1481628e-06
2.1163546e-06
2.0845111e-06
2.0280886e-06
2.0081478e-06
2.0861299e-06
2.2100107e-06
2.284327e-06
2.321877e-06
2.3901629e-06
2.4727412e-06
2.5172737e-06
2.5337401e-06
2.5579928e-06
2.5900511e-06
9.9369474e-11
2.2574847e-10
3.6318738e-09
3.3243367e-08
1.7828563e-07
6.6214076e-07
1.8516905e-06
4.1151551e-06
7.6374982e-06
1.2403541e-05
1.8314891e-05
2.5272045e-05
3.3193397e-05
4.2017944e-05
5.1701722e-05
6.2213186e-05
7.3530861e-05
8.5638438e-05
9.8516397e-05
0.00011214187
0.00012648525
0.00014149454
0.00015709019
0.00017316315
0.00018956524
0.00020610972
0.00022256674
0.00023865904
0.00025405686
0.00026836602
0.00028111173
0.00029171648
0.00029946939
0.00030349234
0.00030270058
0.00029576999
0.00028113428
0.00025704317
0.00022175269
0.00017400223
0.0001143854
5.0966076e-05
1.2293199e-05
3.7411252e-06
2.9118722e-06
2.824581e-06
2.7833977e-06
2.7468074e-06
2.7164721e-06
2.6946333e-06
2.6807112e-06
2.6711249e-06
2.6615509e-06
2.6512763e-06
2.643974e-06
2.6411742e-06
2.6377651e-06
2.6264352e-06
2.6001266e-06
2.5496995e-06
2.4774053e-06
2.4074105e-06
2.3489674e-06
2.2789106e-06
2.2134224e-06
2.2206528e-06
2.3090336e-06
2.4136999e-06
2.4844702e-06
2.5112071e-06
2.5086704e-06
2.5136441e-06
2.5269272e-06
2.5230228e-06
2.4938178e-06
2.4606469e-06
2.436626e-06
2.4021379e-06
2.3291558e-06
2.2259122e-06
2.1505905e-06
2.1188622e-06
2.0873832e-06
2.0291384e-06
2.0055902e-06
2.0816688e-06
2.2064781e-06
2.2819662e-06
2.3191171e-06
2.3872633e-06
2.4708549e-06
2.516247e-06
2.5327082e-06
2.5568601e-06
2.5892104e-06
1.0043333e-10
2.2913239e-10
3.6948602e-09
3.3818921e-08
1.8129369e-07
6.7270255e-07
1.8786189e-06
4.168159e-06
7.7237475e-06
1.2527411e-05
1.8479651e-05
2.5481098e-05
3.3450753e-05
4.2328356e-05
5.2070718e-05
6.2647116e-05
7.4036952e-05
8.6224885e-05
9.919253e-05
0.00011291841
0.00012737467
0.00014251136
0.00015825134
0.00017448811
0.00019107623
0.00020783158
0.00022452687
0.00024088721
0.00025658508
0.00027122859
0.00028434551
0.0002953615
0.00030356966
0.00030809681
0.00030786383
0.00030155158
0.00028759538
0.0002642373
0.00022970283
0.00018263612
0.00012328658
5.8198864e-05
1.4725423e-05
4.0098625e-06
2.9286848e-06
2.8255764e-06
2.7838639e-06
2.7470541e-06
2.7161157e-06
2.693515e-06
2.6789984e-06
2.6692001e-06
2.6597869e-06
2.6499877e-06
2.6436552e-06
2.6426286e-06
2.6418497e-06
2.6337825e-06
2.6109521e-06
2.5630101e-06
2.4906745e-06
2.4186372e-06
2.3576728e-06
2.283539e-06
2.2116968e-06
2.2138613e-06
2.3010308e-06
2.4071566e-06
2.4799476e-06
2.5078014e-06
2.5049917e-06
2.5096839e-06
2.5233819e-06
2.519992e-06
2.4910034e-06
2.4584225e-06
2.4362483e-06
2.4043721e-06
2.333199e-06
2.2295228e-06
2.1529873e-06
2.1213727e-06
2.0903933e-06
2.0304253e-06
2.003223e-06
2.0772901e-06
2.2029695e-06
2.2796414e-06
2.3163811e-06
2.3843601e-06
2.4689657e-06
2.5152442e-06
2.5316921e-06
2.5557003e-06
2.5883095e-06
2.6127465e-06
1.0147974e-10
2.3249015e-10
3.7575439e-09
3.4391659e-08
1.8428526e-07
6.8319324e-07
1.9053193e-06
4.2206169e-06
7.8089867e-06
1.2649727e-05
1.8642285e-05
2.5687428e-05
3.3704748e-05
4.2634696e-05
5.2434842e-05
6.3075232e-05
7.4536103e-05
8.6803039e-05
9.9858739e-05
0.00011368307
0.0001282499
0.00014351133
0.00015939257
0.0001757898
0.00019256032
0.00020952284
0.00022645276
0.00024307772
0.00025907264
0.00027404806
0.00028753435
0.00029896026
0.0003076227
0.00031265314
0.00031297775
0.00030728215
0.00029400326
0.00027137612
0.00023759811
0.00019122821
0.00013222269
6.5850913e-05
1.763171e-05
4.3576523e-06
2.9502811e-06
2.8262353e-06
2.7837978e-06
2.7468347e-06
2.7153627e-06
2.6920494e-06
2.6769688e-06
2.6669753e-06
2.6577086e-06
2.6482968e-06
2.6427406e-06
2.6432199e-06
2.6448322e-06
2.639941e-06
2.62076e-06
2.5757417e-06
2.503899e-06
2.4302692e-06
2.3670831e-06
2.2889354e-06
2.2105182e-06
2.2073378e-06
2.2930994e-06
2.4005655e-06
2.4753924e-06
2.5044289e-06
2.5013641e-06
2.5057662e-06
2.5198936e-06
2.5169895e-06