/*--------------------------------*- C++ -*----------------------------------*\
| =========                 |                                                 |
| \\      /  F ield         | OpenFOAM: The Open Source CFD Toolbox           |
|  \\    /   O peration     | Version:  2506                                  |
|   \\  /    A nd           | Website:  www.openfoam.com                      |
|    \\/     M anipulation  |                                                 |
\*---------------------------------------------------------------------------*/
FoamFile
{
    version     2.0;
    format      ascii;
    arch        "LSB;label=32;scalar=64";
    class       volScalarField;
    location    "0.022";
    object      p;
}
// * * * * * * * * * * * * * * * * * * * * * * * * * * * * * * * * * * * * * //

dimensions      [1 -1 -2 0 0 0 0];

internalField   nonuniform List<scalar> 
13761
(
45720.178
45720.18
45720.182
45720.187
45720.197
45720.212
45720.236
45720.27
45720.314
45720.369
45720.436
45720.516
45720.61
45729.155
45729.156
45729.159
45729.164
45729.173
45729.188
45729.21
45729.242
45729.283
45729.335
45729.398
45729.473
45729.562
45729.665
45729.784
45729.921
45730.077
45730.254
45730.455
45730.681
45730.936
45731.223
45731.545
45731.906
45732.31
45732.762
45740.533
45740.535
45740.537
45740.541
45740.55
45740.564
45740.585
45740.614
45740.652
45740.701
45740.761
45740.835
45740.922
45741.022
45741.135
45741.264
45741.409
45741.575
45741.763
45741.975
45742.215
45742.485
45742.789
45743.13
45743.511
45743.939
45744.417
45744.951
45745.548
45746.214
45746.956
45747.784
45753.35
45753.351
45753.354
45753.36
45753.371
45753.389
45753.417
45753.456
45753.508
45753.572
45753.648
45753.739
45753.845
45753.971
45754.119
45754.283
45754.456
45754.638
45754.829
45755.031
45755.251
45755.499
45755.779
45756.094
45756.447
45756.843
45757.287
45757.783
45758.339
45758.96
45759.655
45760.43
45761.296
45762.26
45763.335
45764.531
45738.462
45738.463
45738.466
45738.471
45738.481
45738.499
45738.526
45738.565
45738.615
45738.678
45738.755
45738.848
45738.958
45739.083
45739.223
45739.375
45739.536
45739.708
45739.89
45740.086
45740.303
45740.548
45740.825
45741.136
45741.485
45741.877
45742.316
45742.808
45743.358
45743.973
45744.661
45745.429
45746.286
45747.241
45748.305
45749.49
45750.809
45752.275
45753.905
45755.715
45757.723
45759.95
45762.42
45765.165
45768.149
45771.385
45774.854
45778.584
45782.59
45786.891
45791.505
45796.453
45725.731
45725.732
45725.734
45725.738
45725.746
45725.76
45725.78
45725.809
45725.846
45725.893
45725.951
45726.019
45726.101
45726.198
45726.313
45726.445
45726.593
45726.758
45726.943
45727.153
45727.389
45727.656
45727.955
45728.291
45728.668
45729.09
45729.562
45730.09
45730.68
45731.338
45732.073
45732.892
45733.804
45734.82
45735.951
45737.209
45738.606
45740.158
45741.881
45743.792
45745.91
45748.255
45750.853
45753.738
45756.879
45760.282
45763.936
45767.858
45772.064
45776.567
45781.386
45786.539
45792.046
45797.929
45804.209
45810.912
45818.06
45825.681
45833.799
45842.444
45851.653
45861.467
45714.428
45714.429
45714.431
45714.436
45714.444
45714.459
45714.481
45714.511
45714.552
45714.603
45714.665
45714.739
45714.826
45714.928
45715.046
45715.181
45715.335
45715.511
45715.71
45715.934
45716.187
45716.472
45716.791
45717.15
45717.551
45717.999
45718.5
45719.059
45719.682
45720.377
45721.151
45722.013
45722.971
45724.037
45725.222
45726.539
45728
45729.622
45731.42
45733.413
45735.619
45738.059
45740.76
45743.756
45747.024
45750.56
45754.349
45758.406
45762.746
45767.386
45772.344
45777.636
45783.281
45789.301
45795.717
45802.554
45809.834
45817.587
45825.838
45834.615
45843.949
45853.877
45864.442
45875.691
45887.674
45900.436
45914.021
45705.647
45705.648
45705.651
45705.656
45705.664
45705.68
45705.703
45705.736
45705.779
45705.833
45705.899
45705.978
45706.071
45706.179
45706.304
45706.447
45706.61
45706.795
45707.004
45707.24
45707.505
45707.804
45708.138
45708.512
45708.93
45709.398
45709.918
45710.499
45711.145
45711.864
45712.664
45713.552
45714.539
45715.635
45716.85
45718.198
45719.692
45721.347
45723.179
45725.206
45727.446
45729.92
45732.654
45735.681
45738.991
45742.579
45746.424
45750.54
45754.938
45759.632
45764.641
45769.982
45775.677
45781.746
45788.212
45795.1
45802.434
45810.24
45818.545
45827.377
45836.767
45846.748
45857.362
45868.644
45880.65
45893.421
45907.003
45921.448
45936.801
45953.103
45970.406
45699.541
45699.542
45699.544
45699.549
45699.558
45699.574
45699.599
45699.633
45699.679
45699.736
45699.806
45699.89
45699.987
45700.101
45700.232
45700.382
45700.553
45700.747
45700.966
45701.212
45701.489
45701.8
45702.147
45702.535
45702.967
45703.449
45703.986
45704.582
45705.245
45705.982
45706.799
45707.705
45708.708
45709.82
45711.05
45712.411
45713.917
45715.582
45717.422
45719.452
45721.692
45724.16
45726.88
45729.884
45733.166
45736.707
45740.497
45744.55
45748.882
45753.511
45758.456
45763.737
45769.375
45775.39
45781.807
45788.649
45795.943
45803.714
45811.99
45820.801
45830.175
45840.143
45850.743
45862.013
45873.996
45886.734
45900.276
45914.674
45929.974
45946.224
45963.471
45981.75
46001.113
46021.6
45699.181
45699.182
45699.183
45699.187
45699.195
45699.208
45699.229
45699.26
45699.3
45699.35
45699.412
45699.487
45699.574
45699.675
45699.791
45699.925
45700.076
45700.248
45700.442
45700.661
45700.906
45701.182
45701.49
45701.835
45702.219
45702.649
45703.127
45703.659
45704.25
45704.908
45705.638
45706.45
45707.35
45708.349
45709.457
45710.686
45712.048
45713.558
45715.23
45717.081
45719.13
45721.395
45723.9
45726.682
45729.751
45733.088
45736.678
45740.533
45744.67
45749.108
45753.867
45758.97
45764.437
45770.292
45776.558
45783.259
45790.42
45798.068
45806.23
45814.936
45824.216
45834.101
45844.625
45855.824
45867.735
45880.399
45893.862
45908.176
45923.39
45939.552
45956.71
45974.899
45994.167
46014.551
46036.092
46058.801
46082.717
45703.812
45703.813
45703.813
45703.816
45703.821
45703.83
45703.845
45703.866
45703.894
45703.931
45703.976
45704.03
45704.095
45704.17
45704.258
45704.358
45704.473
45704.603
45704.751
45704.917
45705.104
45705.315
45705.551
45705.816
45706.112
45706.444
45706.815
45707.229
45707.692
45708.209
45708.786
45709.43
45710.148
45710.949
45711.843
45712.839
45713.95
45715.187
45716.566
45718.101
45719.811
45721.712
45723.828
45726.193
45728.835
45731.761
45734.969
45738.466
45742.267
45746.389
45750.85
45755.667
45760.861
45766.455
45772.471
45778.934
45785.872
45793.311
45801.278
45809.804
45818.919
45828.652
45839.038
45850.107
45861.896
45874.441
45887.787
45901.981
45917.074
45933.116
45950.152
45968.222
45987.37
46007.633
46029.048
46051.618
46075.392
46100.388
46126.612
45706.702
45706.702
45706.703
45706.705
45706.709
45706.716
45706.728
45706.745
45706.768
45706.798
45706.834
45706.879
45706.932
45706.995
45707.068
45707.152
45707.25
45707.361
45707.488
45707.631
45707.793
45707.975
45708.18
45708.411
45708.669
45708.958
45709.282
45709.645
45710.052
45710.506
45711.016
45711.585
45712.223
45712.936
45713.733
45714.624
45715.62
45716.733
45717.976
45719.364
45720.913
45722.639
45724.561
45726.707
45729.1
45731.736
45734.629
45737.791
45741.246
45745.017
45749.13
45753.605
45758.466
45763.736
45769.438
45775.599
45782.246
45789.404
45797.104
45805.377
45814.256
45823.772
45833.958
45844.846
45856.467
45868.853
45882.045
45896.088
45911.031
45926.922
45943.808
45961.731
45980.737
46000.859
46022.132
46044.554
46068.176
46093.019
46119.089
46146.358
46174.79
45707.951
45707.951
45707.952
45707.954
45707.958
45707.965
45707.976
45707.993
45708.015
45708.043
45708.077
45708.119
45708.169
45708.228
45708.297
45708.377
45708.469
45708.574
45708.694
45708.83
45708.984
45709.158
45709.354
45709.574
45709.821
45710.097
45710.406
45710.752
45711.14
45711.573
45712.057
45712.599
45713.206
45713.884
45714.641
45715.489
45716.436
45717.495
45718.679
45720.001
45721.479
45723.127
45724.966
45727.023
45729.322
45731.838
45734.583
45737.563
45740.801
45744.323
45748.16
45752.34
45756.892
45761.845
45767.227
45773.068
45779.398
45786.247
45793.644
45801.623
45810.218
45819.466
45829.4
45840.054
45851.459
45863.647
45876.65
45890.511
45905.274
45920.988
45937.698
45955.448
45974.287
45994.247
46015.361
46037.624
46061.082
46085.763
46111.671
46138.782
46167.066
46196.459
45708.517
45708.517
45708.518
45708.52
45708.524
45708.531
45708.542
45708.558
45708.58
45708.607
45708.64
45708.68
45708.729
45708.785
45708.851
45708.928
45709.016
45709.117
45709.233
45709.364
45709.513
45709.681
45709.87
45710.083
45710.322
45710.59
45710.89
45711.226
45711.601
45712.02
45712.489
45713.013
45713.599
45714.253
45714.984
45715.8
45716.713
45717.733
45718.873
45720.147
45721.57
45723.159
45724.932
45726.916
45729.146
45731.593
45734.267
45737.158
45740.284
45743.668
45747.339
45751.326
45755.657
45760.365
45765.483
45771.044
45777.08
45783.627
45790.722
45798.399
45806.695
45815.648
45825.299
45835.684
45846.837
45858.789
45871.573
45885.225
45899.786
45915.302
45931.818
45949.376
45968.027
45987.806
46008.742
46030.838
46054.12
46078.629
46104.367
46131.314
46159.441
46188.69
46218.975
46250.183
45708.546
45708.546
45708.547
45708.549
45708.553
45708.56
45708.571
45708.587
45708.607
45708.634
45708.666
45708.706
45708.752
45708.807
45708.872
45708.946
45709.031
45709.129
45709.241
45709.368
45709.513
45709.676
45709.86
45710.067
45710.299
45710.56
45710.852
45711.179
45711.544
45711.952
45712.408
45712.918
45713.487
45714.123
45714.834
45715.629
45716.516
45717.508
45718.616
45719.854
45721.236
45722.779
45724.5
45726.424
45728.587
45730.97
45733.587
45736.419
45739.479
45742.786
45746.361
45750.231
45754.423
45758.967
45763.897
45769.247
45775.053
45781.352
45788.184
45795.586
45803.599
45812.264
45821.624
45831.722
45842.596
45854.285
45866.82
45880.237
45894.574
45909.873
45926.175
45943.524
45961.969
45981.548
46002.289
46024.205
46047.301
46071.627
46097.186
46123.961
46151.925
46181.022
46211.172
46242.265
46274.196
45708.157
45708.157
45708.158
45708.16
45708.164
45708.171
45708.181
45708.197
45708.217
45708.243
45708.274
45708.313
45708.358
45708.412
45708.475
45708.547
45708.63
45708.726
45708.834
45708.958
45709.098
45709.257
45709.436
45709.638
45709.865
45710.119
45710.405
45710.724
45711.081
45711.48
45711.927
45712.425
45712.982
45713.603
45714.297
45715.072
45715.938
45716.904
45717.984
45719.19
45720.536
45722.038
45723.714
45725.586
45727.69
45730.009
45732.565
45735.34
45738.344
45741.593
45745.105
45748.9
45753.002
45757.439
45762.241
45767.442
45773.078
45779.186
45785.806
45792.979
45800.747
45809.155
45818.248
45828.071
45838.668
45850.083
45862.353
45875.516
45889.612
45904.679
45920.755
45937.883
45956.11
45975.474
45996.007
46017.73
46040.629
46064.762
46090.134
46116.729
46144.523
46173.462
46203.47
46234.441
46266.275
46298.841
45707.472
45707.472
45707.473
45707.475
45707.479
45707.485
45707.496
45707.511
45707.531
45707.556
45707.587
45707.625
45707.67
45707.722
45707.783
45707.854
45707.935
45708.028
45708.134
45708.255
45708.392
45708.547
45708.721
45708.918
45709.14
45709.388
45709.667
45709.979
45710.329
45710.719
45711.156
45711.644
45712.188
45712.796
45713.474
45714.231
45715.077
45716.021
45717.076
45718.253
45719.567
45721.034
45722.669
45724.494
45726.544
45728.807
45731.301
45734.015
45736.96
45740.152
45743.607
45747.344
45751.383
45755.746
45760.461
45765.557
45771.072
45777.04
45783.5
45790.489
45798.054
45806.241
45815.097
45824.67
45835.007
45846.154
45858.156
45871.056
45884.898
45899.72
45915.558
45932.453
45950.45
45969.588
45989.9
46011.415
46034.112
46058.042
46083.218
46109.625
46137.24
46166.014
46195.873
46226.716
46258.445
46290.934
46324.009
46357.452
45706.569
45706.57
45706.571
45706.573
45706.576
45706.583
45706.594
45706.608
45706.628
45706.653
45706.683
45706.72
45706.764
45706.815
45706.875
45706.944
45707.024
45707.115
45707.218
45707.337
45707.47
45707.622
45707.792
45707.985
45708.201
45708.444
45708.717
45709.022
45709.364
45709.746
45710.173
45710.65
45711.182
45711.777
45712.44
45713.181
45714.009
45714.932
45715.963
45717.114
45718.398
45719.831
45721.429
45723.211
45725.211
45727.425
45729.862
45732.517
45735.4
45738.529
45741.922
45745.597
45749.574
45753.873
45758.519
45763.537
45768.958
45774.817
45781.151
45787.999
45795.404
45803.411
45812.068
45821.425
45831.529
45842.429
45854.175
45866.817
45880.402
45894.973
45910.566
45927.221
45944.982
45963.886
45983.966
46005.261
46027.75
46051.468
46076.439
46102.65
46130.08
46158.681
46188.385
46219.092
46250.709
46283.116
46316.138
46349.563
46383.175
45705.507
45705.508
45705.509
45705.511
45705.514
45705.521
45705.531
45705.546
45705.565
45705.589
45705.619
45705.655
45705.698
45705.749
45705.807
45705.875
45705.953
45706.042
45706.144
45706.259
45706.39
45706.538
45706.706
45706.894
45707.106
45707.343
45707.61
45707.909
45708.244
45708.618
45709.036
45709.504
45710.026
45710.608
45711.259
45711.985
45712.795
45713.699
45714.709
45715.835
45717.093
45718.495
45720.059
45721.802
45723.757
45725.927
45728.314
45730.915
45733.739
45736.806
45740.133
45743.742
45747.652
45751.885
45756.464
45761.413
45766.761
45772.537
45778.771
45785.502
45792.773
45800.629
45809.118
45818.287
45828.187
45838.865
45850.375
45862.77
45876.103
45890.421
45905.767
45922.178
45939.698
45958.362
45978.205
45999.266
46021.54
46045.041
46069.8
46095.808
46123.045
46151.467
46181.007
46211.571
46243.07
46275.386
46308.348
46341.749
46375.373
46409.001
45704.348
45704.348
45704.349
45704.351
45704.355
45704.361
45704.372
45704.386
45704.405
45704.429
45704.458
45704.494
45704.536
45704.585
45704.643
45704.709
45704.786
45704.873
45704.973
45705.086
45705.215
45705.36
45705.523
45705.708
45705.915
45706.148
45706.41
45706.703
45707.031
45707.398
45707.808
45708.266
45708.778
45709.349
45709.987
45710.698
45711.493
45712.379
45713.369
45714.473
45715.706
45717.081
45718.613
45720.32
45722.232
45724.363
45726.701
45729.255
45732.026
45735.034
45738.298
45741.838
45745.677
45749.837
45754.342
45759.217
45764.488
45770.184
45776.334
45782.97
45790.132
45797.863
45806.209
45815.218
45824.939
45835.421
45846.717
45858.884
45871.977
45886.05
45901.148
45917.313
45934.589
45953.011
45972.611
45993.429
46015.48
46038.761
46063.301
46089.099
46116.137
46144.373
46173.742
46204.156
46235.529
46267.747
46300.641
46334.01
46367.639
46401.313
46434.807
45703.117
45703.117
45703.118
45703.12
45703.124
45703.13
45703.14
45703.154
45703.172
45703.196
45703.225
45703.26
45703.301
45703.35
45703.406
45703.472
45703.547
45703.632
45703.73
45703.841
45703.967
45704.11
45704.27
45704.451
45704.654
45704.883
45705.139
45705.426
45705.748
45706.108
45706.51
45706.959
45707.461
45708.022
45708.648
45709.346
45710.125
45710.995
45711.965
45713.049
45714.257
45715.605
45717.108
45718.782
45720.654
45722.748
45725.042
45727.553
45730.277
45733.232
45736.437
45739.913
45743.682
45747.769
45752.198
45756.995
45762.185
45767.795
45773.857
45780.402
45787.465
45795.086
45803.309
45812.179
45821.744
45832.053
45843.158
45855.118
45867.99
45881.829
45896.686
45912.607
45929.64
45947.82
45967.175
45987.746
46009.564
46032.624
46056.938
46082.523
46109.355
46137.398
46166.59
46196.847
46228.087
46260.199
46293.018
46326.347
46359.974
46393.687
46427.261
45701.866
45701.867
45701.867
45701.869
45701.873
45701.879
45701.889
45701.903
45701.921
45701.944
45701.973
45702.007
45702.048
45702.095
45702.151
45702.215
45702.289
45702.373
45702.469
45702.578
45702.702
45702.841
45702.999
45703.176
45703.376
45703.6
45703.851
45704.133
45704.449
45704.802
45705.196
45705.637
45706.13
45706.68
45707.293
45707.979
45708.743
45709.597
45710.549
45711.611
45712.797
45714.12
45715.594
45717.235
45719.07
45721.128
45723.378
45725.848
45728.528
45731.434
45734.584
45738
45741.704
45745.72
45750.072
45754.787
45759.89
45765.413
45771.384
45777.837
45784.807
45792.328
45800.44
45809.187
45818.611
45828.763
45839.695
45851.465
45864.131
45877.75
45892.375
45908.057
45924.846
45942.782
45961.893
45982.215
46003.792
46026.626
46050.711
46076.077
46102.698
46130.543
46159.552
46189.644
46220.745
46252.743
46285.48
46318.76
46352.377
46386.122
46419.769
46453.073
45700.581
45700.582
45700.582
45700.584
45700.588
45700.594
45700.604
45700.617
45700.635
45700.658
45700.686
45700.72
45700.76
45700.807
45700.861
45700.924
45700.997
45701.079
45701.174
45701.281
45701.402
45701.539
45701.694
45701.868
45702.064
45702.284
45702.531
45702.807
45703.117
45703.463
45703.85
45704.283
45704.767
45705.306
45705.909
45706.582
45707.332
45708.17
45709.105
45710.148
45711.312
45712.61
45714.057
45715.668
45717.468
45719.489
45721.698
45724.129
45726.767
45729.628
45732.728
45736.088
45739.731
45743.68
45747.958
45752.593
45757.613
45763.046
45768.922
45775.277
45782.146
45789.564
45797.568
45806.199
45815.5
45825.513
45836.29
45847.885
45860.361
45873.775
45888.182
45903.635
45920.186
45937.881
45956.75
45976.826
45998.156
46020.757
46044.619
46069.759
46096.164
46123.806
46152.626
46182.548
46213.502
46245.379
46278.027
46311.251
46344.851
46378.618
46412.332
46445.745
46478.594
45699.321
45699.322
45699.322
45699.324
45699.328
45699.334
45699.343
45699.356
45699.374
45699.396
45699.424
45699.457
45699.497
45699.543
45699.597
45699.659
45699.73
45699.811
45699.904
45700.009
45700.128
45700.263
45700.415
45700.586
45700.779
45700.995
45701.237
45701.509
45701.813
45702.153
45702.534
45702.959
45703.434
45703.964
45704.556
45705.217
45705.955
45706.778
45707.697
45708.722
45709.865
45711.141
45712.563
45714.147
45715.914
45717.899
45720.071
45722.465
45725.064
45727.881
45730.933
45734.241
45737.824
45741.706
45745.912
45750.47
45755.408
45760.755
45766.542
45772.801
45779.567
45786.875
45794.766
45803.279
45812.455
45822.335
45832.966
45844.4
45856.695
45869.913
45884.11
45899.341
45915.66
45933.118
45951.745
45971.577
45992.658
46015.021
46038.655
46063.567
46089.751
46117.187
46145.812
46175.559
46206.359
46238.108
46270.659
46303.819
46337.394
46371.178
46404.95
46438.465
46471.458
46503.662
45698.072
45698.072
45698.073
45698.075
45698.078
45698.084
45698.093
45698.106
45698.124
45698.146
45698.173
45698.206
45698.244
45698.29
45698.343
45698.404
45698.474
45698.554
45698.645
45698.748
45698.866
45698.998
45699.148
45699.316
45699.505
45699.717
45699.956
45700.222
45700.521
45700.856
45701.229
45701.647
45702.114
45702.635
45703.217
45703.866
45704.591
45705.4
45706.303
45707.311
45708.435
45709.689
45711.087
45712.643
45714.379
45716.328
45718.468
45720.826
45723.386
45726.162
45729.17
45732.429
45735.958
45739.781
45743.921
45748.406
45753.26
45758.519
45764.21
45770.372
45777.031
45784.229
45792.004
45800.397
45809.448
45819.197
45829.688
45840.97
45853.099
45866.133
45880.13
45895.149
45911.246
45928.473
45946.864
45966.454
45987.288
46009.41
46032.815
46057.497
46083.458
46110.682
46139.109
46168.674
46199.316
46230.931
46263.378
46296.467
46330.008
46363.8
46397.624
46431.233
46464.364
46496.747
46528.162
45696.888
45696.888
45696.889
45696.89
45696.894
45696.9
45696.909
45696.922
45696.939
45696.96
45696.987
45697.019
45697.057
45697.102
45697.154
45697.214
45697.283
45697.361
45697.451
45697.553
45697.668
45697.798
45697.945
45698.11
45698.296
45698.505
45698.739
45699.001
45699.294
45699.623
45699.99
45700.4
45700.859
45701.371
45701.942
45702.58
45703.292
45704.087
45704.974
45705.964
45707.068
45708.3
45709.674
45711.204
45712.909
45714.823
45716.934
45719.254
45721.778
45724.515
45727.48
45730.693
45734.172
45737.939
45742.018
45746.434
45751.215
45756.39
45761.99
45768.05
45774.603
45781.688
45789.344
45797.612
45806.533
45816.146
45826.495
45837.627
45849.594
45862.45
45876.255
45891.068
45906.948
45923.949
45942.106
45961.457
45982.047
46003.924
46027.095
46051.549
46077.282
46104.291
46132.514
46161.894
46192.37
46223.845
46256.181
46289.193
46322.694
46356.486
46390.353
46424.05
46457.312
46489.866
46521.493
45695.75
45695.75
45695.751
45695.753
45695.756
45695.762
45695.771
45695.783
45695.8
45695.821
45695.848
45695.879
45695.917
45695.961
45696.012
45696.071
45696.138
45696.216
45696.304
45696.404
45696.517
45696.645
45696.79
45696.952
45697.135
45697.34
45697.57
45697.828
45698.116
45698.439
45698.8
45699.203
45699.653
45700.156
45700.718
45701.345
45702.044
45702.825
45703.696
45704.669
45705.753
45706.964
45708.313
45709.816
45711.49
45713.366
45715.45
45717.73
45720.218
45722.916
45725.839
45729.006
45732.435
45736.147
45740.165
45744.513
45749.219
45754.312
45759.822
45765.782
45772.231
45779.206
45786.746
45794.891
45803.681
45813.157
45823.364
45834.348
45846.157
45858.844
45872.465
45887.081
45902.752
45919.531
45937.461
45956.578
45976.927
45998.559
46021.493
46045.717
46071.223
46098.012
46126.028
46155.218
46185.524
46216.853
46249.072
46281.998
46315.452
46349.237
46383.139
46416.917
46450.302
46483.023
46514.855
46545.583
45694.693
45694.694
45694.694
45694.696
45694.699
45694.705
45694.714
45694.726
45694.743
45694.764
45694.789
45694.82
45694.857
45694.9
45694.951
45695.009
45695.075
45695.152
45695.238
45695.337
45695.448
45695.574
45695.716
45695.876
45696.055
45696.257
45696.483
45696.736
45697.02
45697.337
45697.691
45698.088
45698.53
45699.024
45699.576
45700.192
45700.879
45701.646
45702.502
45703.457
45704.523
45705.711
45707.036
45708.512
45710.154
45711.993
45714.048
45716.289
45718.741
45721.399
45724.279
45727.399
45730.777
45734.434
45738.393
45742.677
45747.314
45752.331
45757.758
45763.625
45769.971
45776.833
45784.253
45792.27
45800.926
45810.262
45820.323
45831.155
45842.806
45855.326
45868.768
45883.192
45898.658
45915.221
45932.926
45951.813
45971.924
45993.311
46016.004
46039.999
46065.277
46091.845
46119.648
46148.645
46178.776
46209.954
46242.049
46274.883
46308.282
46342.053
46375.982
46409.833
46443.334
46476.215
46508.247
46539.213
46568.906
45693.739
45693.739
45693.74
45693.741
45693.745
45693.75
45693.759
45693.771
45693.787
45693.808
45693.833
45693.864
45693.9
45693.943
45693.992
45694.049
45694.115
45694.19
45694.275
45694.372
45694.481
45694.605
45694.745
45694.902
45695.078
45695.276
45695.499
45695.747
45696.026
45696.338
45696.686
45697.075
45697.51
45697.995
45698.537
45699.142
45699.817
45700.57
45701.41
45702.348
45703.393
45704.56
45705.861
45707.309
45708.919
45710.72
45712.741
45714.94
45717.353
45719.97
45722.805
45725.876
45729.2
45732.8
45736.698
45740.916
45745.481
45750.421
45755.764
45761.542
45767.789
45774.544
45781.846
45789.737
45798.259
45807.456
45817.369
45828.048
45839.539
45851.891
45865.158
45879.396
45894.663
45911.015
45928.498
45947.158
45967.035
45988.179
46010.63
46034.39
46059.444
46085.787
46113.375
46142.174
46172.125
46203.147
46235.112
46267.849
46301.186
46334.934
46368.884
46402.8
46436.411
46469.445
46501.672
46532.87
46562.825
45692.905
45692.906
45692.906
45692.908
45692.911
45692.916
45692.925
45692.937
45692.953
45692.973
45692.998
45693.028
45693.063
45693.105
45693.153
45693.209
45693.273
45693.347
45693.43
45693.525
45693.633
45693.754
45693.891
45694.044
45694.217
45694.411
45694.629
45694.873
45695.146
45695.451
45695.792
45696.173
45696.599
45697.074
45697.605
45698.197
45698.859
45699.597
45700.42
45701.339
45702.364
45703.507
45704.782
45706.202
45707.78
45709.543
45711.526
45713.681
45716.054
45718.628
45721.417
45724.438
45727.709
45731.251
45735.086
45739.238
45743.733
45748.598
45753.856
45759.54
45765.687
45772.335
45779.522
45787.289
45795.677
45804.732
45814.498
45825.022
45836.354
45848.54
45861.631
45875.684
45890.758
45906.905
45924.171
45942.605
45962.252
45983.159
46005.365
46028.889
46053.718
46079.837
46107.207
46135.804
46165.572
46196.433
46228.262
46260.895
46294.162
46327.882
46361.844
46395.818
46429.529
46462.711
46495.126
46526.553
46556.767
46585.546
45692.302
45692.302
45692.303
45692.304
45692.307
45692.313
45692.321
45692.332
45692.348
45692.367
45692.391
45692.42
45692.455
45692.495
45692.542
45692.596
45692.659
45692.73
45692.811
45692.903
45693.007
45693.125
45693.258
45693.407
45693.575
45693.764
45693.975
45694.212
45694.477
45694.774
45695.106
45695.477
45695.891
45696.353
45696.87
45697.446
45698.09
45698.809
45699.611
45700.506
45701.505
45702.62
45703.863
45705.247
45706.787
45708.505
45710.439
45712.543
45714.869
45717.395
45720.134
45723.101
45726.315
45729.796
45733.566
45737.648
45742.068
45746.848
45752.023
45757.619
45763.673
45770.219
45777.296
45784.944
45793.202
45802.114
45811.729
45822.097
45833.266
45845.286
45858.203
45872.071
45886.95
45902.894
45919.946
45938.157
45957.575
45978.247
46000.211
46023.495
46048.096
46073.991
46101.142
46129.534
46159.115
46189.811
46221.498
46254.02
46287.211
46320.894
46354.862
46388.887
46422.693
46456.015
46488.613
46520.263
46550.733
46579.793
46607.298
45691.72
45691.721
45691.721
45691.723
45691.726
45691.731
45691.739
45691.75
45691.765
45691.783
45691.807
45691.835
45691.868
45691.907
45691.953
45692.006
45692.066
45692.135
45692.214
45692.303
45692.405
45692.519
45692.648
45692.793
45692.957
45693.14
45693.345
45693.576
45693.834
45694.122
45694.445
45694.806
45695.209
45695.659
45696.162
45696.723
45697.35
45698.05
45698.832
45699.704
45700.678
45701.765
45702.977
45704.328
45705.829
45707.503
45709.387
45711.448
45713.725
45716.202
45718.889
45721.803
45724.961
45728.383
45732.091
45736.106
45740.452
45745.155
45750.244
45755.751
45761.708
45768.152
45775.119
45782.651
45790.786
45799.565
45809.035
45819.248
45830.254
45842.106
45854.85
45868.538
45883.225
45898.968
45915.812
45933.804
45952.997
45973.437
45995.162
46018.206
46042.576
46068.249
46095.181
46123.364
46152.753
46183.279
46214.819
46247.225
46280.332
46313.972
46347.937
46382.005
46415.899
46449.356
46482.13
46513.998
46544.72
46574.06
46601.862
45691.084
45691.085
45691.085
45691.087
45691.09
45691.094
45691.102
45691.113
45691.128
45691.146
45691.169
45691.196
45691.229
45691.268
45691.312
45691.364
45691.423
45691.491
45691.568
45691.656
45691.755
45691.867
45691.994
45692.136
45692.296
45692.476
45692.677
45692.903
45693.156
45693.439
45693.755
45694.108
45694.503
45694.944
45695.437
45695.987
45696.602
45697.288
45698.054
45698.909
45699.863
45700.929
45702.117
45703.441
45704.914
45706.552
45708.395
45710.429
45712.661
45715.093
45717.733
45720.595
45723.697
45727.06
45730.704
45734.651
45738.926
45743.552
45748.561
45753.981
45759.846
45766.189
45773.047
45780.46
45788.472
45797.121
45806.45
45816.511
45827.356
45839.034
45851.6
45865.104
45879.601
45895.143
45911.777
45929.553
45948.521
45968.73
45990.218
46013.021
46037.155
46062.604
46089.319
46117.289
46146.483
46176.834
46208.224
46240.507
46273.525
46307.113
46341.07
46375.175
46409.15
46442.733
46475.679
46507.759
46538.73
46568.347
46596.447
46622.89
45690.407
45690.407
45690.408
45690.41
45690.412
45690.417
45690.425
45690.435
45690.45
45690.468
45690.49
45690.517
45690.549
45690.587
45690.631
45690.682
45690.74
45690.806
45690.882
45690.968
45691.066
45691.176
45691.3
45691.44
45691.597
45691.773
45691.971
45692.193
45692.441
45692.719
45693.03
45693.377
45693.765
45694.198
45694.682
45695.222
45695.825
45696.498
45697.25
45698.089
45699.026
45700.071
45701.237
45702.536
45703.981
45705.586
45707.387
45709.395
45711.585
45713.98
45716.576
45719.39
45722.441
45725.747
45729.33
45733.211
45737.415
45741.972
45746.903
45752.242
45758.017
45764.262
45771.014
45778.314
45786.204
45794.723
45803.916
45813.832
45824.522
45836.035
45848.426
45861.748
45876.057
45891.402
45907.832
45925.393
45944.139
45964.12
45985.376
46007.938
46031.834
46057.054
46083.556
46111.311
46140.306
46170.477
46201.711
46233.867
46266.789
46300.319
46334.26
46368.393
46402.443
46436.146
46469.257
46501.544
46532.759
46562.652
46591.05
46617.797
45689.754
45689.754
45689.755
45689.756
45689.759
45689.764
45689.771
45689.782
45689.796
45689.814
45689.836
45689.862
45689.894
45689.931
45689.974
45690.023
45690.081
45690.146
45690.22
45690.305
45690.4
45690.508
45690.63
45690.768
45690.922
45691.095
45691.289
45691.507
45691.75
45692.023
45692.328
45692.669
45693.049
45693.475
45693.95
45694.48
45695.072
45695.733
45696.471
45697.295
45698.215
45699.241
45700.386
45701.662
45703.08
45704.656
45706.419
45708.398
45710.549
45712.909
45715.467
45718.241
45721.246
45724.501
45728.03
45731.852
45735.993
45740.478
45745.333
45750.589
45756.273
45762.423
45769.075
45776.266
45784.036
45792.427
45801.483
45811.252
45821.786
45833.135
45845.351
45858.491
45872.611
45887.759
45903.982
45921.33
45939.855
45959.609
45980.632
46002.956
46026.611
46051.598
46077.885
46105.426
46134.218
46164.204
46195.278
46227.301
46260.123
46293.588
46327.507
46361.661
46395.778
46429.595
46462.865
46495.353
46526.807
46556.972
46585.668
46612.724
46638.055
45689.084
45689.085
45689.085
45689.087
45689.089
45689.094
45689.101
45689.112
45689.125
45689.143
45689.164
45689.191
45689.221
45689.258
45689.3
45689.349
45689.405
45689.469
45689.542
45689.625
45689.719
45689.825
45689.945
45690.08
45690.231
45690.401
45690.592
45690.806
45691.045
45691.313
45691.612
45691.947
45692.321
45692.738
45693.205
45693.725
45694.307
45694.956
45695.681
45696.49
45697.393
45698.401
45699.526
45700.779
45702.172
45703.72
45705.448
45707.395
45709.504
45711.83
45714.354
45717.088
45720.05
45723.259
45726.734
45730.499
45734.576
45738.991
45743.771
45748.945
45754.544
45760.604
45767.16
45774.248
45781.906
45790.175
45799.101
45808.73
45819.115
45830.304
45842.352
45855.313
45869.246
45884.199
45900.218
45917.355
45935.663
45955.191
45975.983
45998.072
46021.486
46046.236
46072.304
46099.633
46128.22
46158.015
46188.926
46220.811
46253.527
46286.921
46320.809
46354.975
46389.153
46423.075
46456.498
46489.183
46520.871
46551.305
46580.298
46607.664
46633.305
45688.423
45688.423
45688.424
45688.425
45688.428
45688.432
45688.439
45688.45
45688.463
45688.48
45688.501
45688.527
45688.557
45688.593
45688.635
45688.682
45688.738
45688.8
45688.872
45688.954
45689.046
45689.15
45689.268
45689.4
45689.549
45689.716
45689.903
45690.113
45690.348
45690.611
45690.905
45691.234