/*--------------------------------*- C++ -*----------------------------------*\
  =========                 |
  \\      /  F ield         | OpenFOAM: The Open Source CFD Toolbox
   \\    /   O peration     | Website:  https://openfoam.org
    \\  /    A nd           | Version:  13
     \\/     M anipulation  |
\*---------------------------------------------------------------------------*/
FoamFile
{
    format      ascii;
    class       volScalarField;
    location    "600";
    object      alphat;
}
// * * * * * * * * * * * * * * * * * * * * * * * * * * * * * * * * * * * * * //

dimensions      [1 -1 -1 0 0 0 0];

internalField   nonuniform List<scalar> 
19257
(
0.30948314
0.23857387
0.1860202
0.16420454
0.15164758
0.14262765
0.13655291
0.13271508
0.13032632
0.12877948
0.12772881
0.12697443
0.12640751
0.12596381
0.12560585
0.1253097
0.12505997
0.12484619
0.12466118
0.12449985
0.1243586
0.12423484
0.12412682
0.12403364
0.12395517
0.12389205
0.12384572
0.12381847
0.12381376
0.12383671
0.123895
0.12400032
0.12417045
0.1244324
0.12482726
0.1254179
0.12630168
0.12763329
0.12966407
0.132836
0.13794222
0.14681425
0.16460248
0.20731979
0.28252605
0.3315262
0.26833218
0.14411865
0.017567528
0.31923405
0.23575646
0.18327046
0.16208084
0.1505151
0.14214097
0.13643167
0.13275355
0.13041947
0.12888875
0.12783898
0.12708202
0.12651141
0.12606424
0.12570302
0.12540391
0.12515146
0.12493514
0.12474772
0.12458408
0.12444053
0.12431445
0.12420407
0.12410842
0.12402736
0.12396154
0.12391242
0.1238823
0.12387456
0.12389408
0.12394811
0.1240475
0.12420875
0.12445694
0.12483027
0.12538735
0.1262192
0.12747031
0.12937677
0.13235119
0.13713296
0.14537189
0.16158643
0.20092969
0.27708398
0.33854157
0.28460615
0.15481032
0.01794931
0.35124926
0.23228456
0.180456
0.16015912
0.14926912
0.14154445
0.13624269
0.1327601
0.13050385
0.12900086
0.12795692
0.12719828
0.12662346
0.12617167
0.12580604
0.12550301
0.1252471
0.12502775
0.1248376
0.12467144
0.12452551
0.12439709
0.12428434
0.12418622
0.12410255
0.12403396
0.12398191
0.1239487
0.12393768
0.12395356
0.12400321
0.12409683
0.12424978
0.12448541
0.12483931
0.1253662
0.12615125
0.12732976
0.12912347
0.13191788
0.1364042
0.14407984
0.15893043
0.19497849
0.27056332
0.34307694
0.30003822
0.16509933
0.018328083
0.32768999
0.22158368
0.1767567
0.15823321
0.14791368
0.1408239
0.13596428
0.13271521
0.13056415
0.1291057
0.12807668
0.12732005
0.12674209
0.1262855
0.12591478
0.12560702
0.12534691
0.1251239
0.12493056
0.12476156
0.12461303
0.12448216
0.12436699
0.12426641
0.12418013
0.12410873
0.12405366
0.12401722
0.12400271
0.12401476
0.12405994
0.12414789
0.12429305
0.12451726
0.12485381
0.12535397
0.12609769
0.12721218
0.12890626
0.13154153
0.1357679
0.14295879
0.15667806
0.18975173
0.26377106
0.34538886
0.31407635
0.17442196
0.018662887
0.29032138
0.20942916
0.17207961
0.15592586
0.14635952
0.13993967
0.13557223
0.1326037
0.13058998
0.12919596
0.12819361
0.12744473
0.12686595
0.12640513
0.12602908
0.125716
0.12545106
0.12522381
0.12502679
0.1248546
0.12470325
0.12456981
0.1244522
0.12434916
0.12426031
0.12418615
0.12412805
0.12408829
0.12407016
0.12407818
0.12411871
0.12420096
0.12433855
0.12455203
0.12487266
0.12534859
0.12605503
0.12711186
0.12871617
0.13120808
0.13520076
0.14196333
0.1547197
0.18511815
0.25685679
0.34576321
0.32679222
0.18311935
0.018977188
0.25297826
0.19506642
0.16609915
0.15292617
0.1445321
0.13887577
0.13505274
0.13241524
0.13057411
0.12926587
0.1283034
0.12756959
0.12699348
0.12652979
0.12614868
0.12583001
0.12555971
0.12532766
0.12512647
0.12495069
0.12479624
0.12466006
0.12453993
0.12443446
0.12434311
0.12426625
0.12420518
0.1241621
0.12414027
0.12414412
0.12417984
0.12425626
0.12438634
0.12458949
0.12489518
0.12534876
0.12602115
0.12702548
0.12854808
0.1309096
0.13468993
0.14106888
0.15299247
0.18100957
0.25001688
0.34455035
0.33805651
0.1911244
0.019277226
0.21663094
0.17967204
0.1591328
0.1492059
0.14240214
0.13764062
0.13440999
0.13214783
0.13051314
0.12931107
0.1284014
0.12769084
0.12712199
0.12665773
0.12627253
0.12594844
0.12567255
0.12543528
0.12522946
0.12504969
0.12489183
0.12475271
0.12462998
0.12452207
0.12442829
0.12434885
0.12428492
0.12423862
0.12421311
0.12421275
0.12424357
0.12431407
0.12443664
0.12462973
0.12492122
0.12535396
0.12599496
0.12695121
0.12839909
0.13064153
0.13422788
0.1402603
0.15145326
0.17736022
0.24338139
0.34208391
0.34783201
0.19847655
0.019568998
0.18804039
0.16592207
0.15209127
0.14507218
0.14006155
0.1363045
0.13368957
0.13182102
0.13041359
0.12933201
0.12848496
0.127805
0.12724842
0.12678659
0.12639894
0.12607017
0.12578882
0.12554614
0.12533536
0.12515123
0.12498964
0.12484735
0.12472187
0.12461149
0.12451533
0.12443343
0.1243668
0.12431744
0.12428838
0.12428387
0.12430978
0.12437433
0.12448942
0.12467264
0.12495048
0.12536359
0.12597543
0.12688739
0.12826671
0.13040016
0.13380884
0.13952665
0.15007131
0.17411187
0.23703638
0.33865854
0.35613797
0.20523431
0.019856797
0.16789992
0.15491391
0.14582994
0.14112119
0.1377868
0.13502315
0.13298599
0.13148134
0.13029437
0.12933498
0.1285542
0.12790952
0.12736965
0.12691356
0.12652562
0.12619344
0.12590724
0.12565929
0.12544341
0.12525467
0.12508907
0.12494336
0.12481496
0.12470201
0.12460348
0.12451922
0.12445005
0.12439782
0.12436542
0.12435695
0.12437809
0.12443679
0.12454448
0.12471802
0.12498269
0.12537717
0.12596176
0.12683277
0.12814908
0.13018271
0.13342872
0.13886045
0.14882552
0.17121627
0.23103819
0.33452542
0.36303954
0.21146588
0.020143122
0.15419313
0.14721257
0.14124656
0.13809266
0.13596648
0.13399393
0.13240866
0.13118485
0.13017986
0.12932947
0.12861154
0.12800317
0.12748299
0.12703571
0.1266499
0.126316
0.126026
0.12577329
0.12555248
0.12535906
0.12518925
0.12503989
0.12490835
0.1247927
0.12469174
0.12460516
0.12453359
0.12447871
0.12444323
0.12443106
0.12444768
0.12450074
0.12460125
0.12476539
0.12501736
0.1253941
0.12595313
0.12678617
0.12804451
0.12998686
0.13308429
0.1382563
0.14770169
0.16863603
0.22542849
0.32990231
0.36862714
0.21721788
0.020427856
0.14700289
0.14304272
0.13867351
0.13625313
0.13476518
0.13329058
0.13199657
0.13095585
0.13008249
0.12932086
0.12865869
0.12808522
0.12758622
0.12715029
0.12676905
0.12643537
0.12614297
0.12588641
0.12566113
0.12546317
0.12528911
0.12513591
0.12500104
0.12488249
0.12477897
0.12469002
0.12461614
0.12455878
0.12452048
0.12450495
0.12451739
0.12456516
0.12465885
0.12481398
0.1250538
0.12541371
0.12594874
0.12674655
0.12795162
0.12981072
0.13277307
0.13771046
0.14669074
0.16634391
0.22024342
0.32498759
0.37301083
0.22251123
0.020709295
0.14299282
0.14062693
0.13716123
0.13513781
0.1339757
0.13280126
0.13169506
0.13077523
0.12999706
0.12930781
0.12869516
0.12815475
0.12767757
0.12725492
0.12688048
0.12654905
0.12625588
0.12599665
0.12576766
0.12556557
0.12538736
0.12523027
0.12509187
0.1249702
0.12486393
0.12477252
0.1246963
0.12463659
0.1245957
0.12457711
0.12458577
0.1246287
0.12471603
0.1248627
0.12509104
0.12543508
0.12594765
0.12671283
0.12786907
0.12965255
0.13249288
0.13721986
0.14578624
0.16431922
0.2155134
0.31996473
0.37631699
0.22735238
0.020983552
0.1403325
0.1389672
0.13611004
0.13434843
0.13337985
0.13241212
0.1314492
0.130622
0.12991792
0.12928926
0.128721
0.1282116
0.12775611
0.12734793
0.12698207
0.12665476
0.12636246
0.12610194
0.12587024
0.12566466
0.12548264
0.12532172
0.1251797
0.12505471
0.12494548
0.12485141
0.12477277
0.12471071
0.12466738
0.12464602
0.12465128
0.12468984
0.12477137
0.12491022
0.12512789
0.12545714
0.12594886
0.12668399
0.1277957
0.12951091
0.13224192
0.13678204
0.1449837
0.16254654
0.21126559
0.31500885
0.37868285
0.23172737
0.02124536
0.1385971
0.13784076
0.13537591
0.13377372
0.13292222
0.13210284
0.13125153
0.13049585
0.12984821
0.12926838
0.1287383
0.12825691
0.12782193
0.12742845
0.12707231
0.12675057
0.12646069
0.12620025
0.125967
0.12575879
0.12557349
0.12540901
0.12526339
0.12513497
0.12502258
0.12492566
0.12484444
0.12477998
0.12473426
0.1247103
0.12471248
0.1247471
0.12482342
0.12495518
0.12516309
0.12547878
0.12595138
0.12665911
0.12773055
0.12938469
0.13201885
0.1363952
0.14427999
0.16101431
0.20752369
0.31028857
0.38025612
0.23560827
0.021488913
0.1374059
0.13705904
0.13487749
0.13337239
0.13258617
0.13186848
0.13109979
0.13039637
0.12978955
0.12924723
0.12874871
0.12829164
0.12787526
0.12749594
0.12714997
0.12683485
0.12654867
0.12628966
0.12605609
0.12584624
0.12565839
0.12549079
0.1253418
0.12521
0.12509436
0.12499445
0.12491051
0.12484354
0.12479539
0.12476891
0.12476821
0.12479928
0.12487094
0.12499638
0.12519555
0.12549904
0.12595443
0.12663757
0.12767313
0.12927342
0.1318231
0.13605847
0.1436733
0.15971404
0.20430733
0.30596395
0.38119036
0.23894936
0.021707358
0.13657416
0.13650912
0.13454054
0.13309209
0.13233586
0.13168762
0.1309815
0.13031703
0.12973949
0.12922551
0.12875251
0.12831605
0.12791601
0.12754974
0.12721387
0.12690601
0.12662458
0.12636822
0.12613553
0.12592515
0.12573564
0.1255656
0.1254137
0.12527876
0.12516
0.1250571
0.12497037
0.12490081
0.12485019
0.1248212
0.12481777
0.1248456
0.12491313
0.12503303
0.12522458
0.1255174
0.12595773
0.12661937
0.12762372
0.12917762
0.13165539
0.1357725
0.14316372
0.15864028
0.2016312
0.30218093
0.38165141
0.24173366
0.021897972
0.13599047
0.136127
0.13432297
0.13290438
0.13215366
0.13155091
0.13089157
0.13025515
0.12969727
0.12920342
0.12875002
0.12833018
0.12794379
0.12758901
0.12726265
0.12696227
0.12668634
0.12643365
0.12620301
0.12599323
0.12580313
0.12563158
0.1254775
0.12534
0.12521851
0.12511287
0.12502347
0.12495135
0.12489826
0.12486683
0.12486083
0.12488575
0.12494971
0.12506493
0.12525009
0.12553399
0.12596171
0.12660534
0.12758361
0.12909902
0.13151778
0.1355394
0.14275258
0.15778882
0.1995012
0.29905813
0.38180556
0.24399997
0.022055914
0.13558542
0.13587056
0.13419406
0.13278597
0.1320242
0.13144918
0.13082385
0.1302066
0.12966056
0.12917979
0.1287405
0.12833331
0.12795773
0.12761253
0.12729469
0.12700158
0.12673151
0.12648325
0.12625567
0.12604765
0.12585815
0.12568624
0.12553105
0.12539192
0.12526844
0.12516062
0.12506895
0.12499455
0.12493921
0.12490557
0.12489732
0.12491979
0.12498087
0.12509245
0.12527271
0.12554976
0.12596775
0.12659737
0.12755528
0.12904066
0.13141372
0.13536257
0.14244231
0.15715696
0.19792075
0.29669182
0.38179295
0.2457528
0.022174256
0.13532307
0.1357136
0.13412944
0.13271971
0.13193862
0.13137727
0.13077385
0.13016806
0.12962778
0.12915419
0.12872381
0.12832525
0.12795748
0.12761966
0.12730889
0.12702231
0.12675795
0.12651448
0.12629068
0.12608543
0.12589773
0.12572672
0.12557168
0.12543209
0.12530767
0.12519854
0.12510532
0.12502924
0.12497223
0.12493694
0.12492706
0.12494787
0.12500711
0.12511646
0.12529377
0.12556666
0.12597854
0.12659909
0.12754344
0.12900847
0.13135034
0.13525004
0.14224136
0.15675077
0.19690663
0.29516841
0.3817226
0.24692323
0.022247152
0.13522974
0.13566022
0.13411006
0.13269541
0.13190164
0.13134185
0.13074459
0.13014142
0.1296018
0.12912991
0.12870259
0.12830765
0.12794377
0.12761018
0.12730397
0.12702204
0.12676221
0.12652294
0.12630286
0.12610073
0.12591549
0.12574627
0.12559238
0.12545334
0.12532895
0.12521943
0.12512556
0.12504875
0.12499107
0.12495525
0.12494505
0.12496573
0.12502503
0.12513457
0.12531205
0.12558483
0.12599593
0.12661443
0.12755458
0.12901196
0.13134079
0.13521906
0.14217253
0.15659963
0.19652037
0.29459312
0.38167091
0.24735302
0.022271017
0.13535656
0.1357466
0.13415683
0.13274285
0.13195793
0.13139271
0.13078572
0.13017698
0.12963449
0.12915952
0.1287287
0.12833065
0.12796427
0.12762858
0.12732051
0.1270369
0.12677553
0.12653477
0.12631316
0.12610942
0.12592245
0.1257514
0.12559561
0.12545461
0.12532829
0.125217
0.12512171
0.12504394
0.1249858
0.12495005
0.12494042
0.1249622
0.12502316
0.12513495
0.12531534
0.12559177
0.12600737
0.12663137
0.12757826
0.12904417
0.13138449
0.13527974
0.14226426
0.15676446
0.19689601
0.29511195
0.38167484
0.24689159
0.022245417
0.13565464
0.13593699
0.13424876
0.13283175
0.13206185
0.131479
0.13084689
0.13022435
0.12967457
0.12919177
0.1287523
0.12834669
0.12797425
0.12763344
0.12732082
0.12703326
0.12676849
0.12652478
0.12630057
0.12609453
0.12590553
0.12573269
0.12557532
0.12543299
0.12530566
0.1251938
0.12509842
0.12502106
0.12496378
0.12492927
0.12492126
0.12494505
0.12500846
0.12512328
0.12530747
0.12558877
0.12601077
0.1266434
0.12760241
0.12908595
0.13145342
0.13539287
0.1424613
0.15716253
0.19788809
0.29657948
0.38170367
0.24567763
0.022171194
0.13610477
0.13623217
0.13440809
0.13297426
0.13220972
0.13159451
0.13092521
0.13028149
0.12971891
0.12922312
0.12877059
0.12835417
0.12797328
0.12762546
0.1273069
0.12701436
0.12674553
0.12649847
0.12627151
0.12606322
0.12587244
0.12569824
0.12553989
0.12539698
0.12526953
0.12515802
0.12506349
0.1249874
0.12493174
0.12489916
0.12489337
0.12491972
0.12498617
0.12510468
0.12529352
0.12558092
0.12601118
0.12665547
0.12763151
0.12914085
0.13154933
0.13555731
0.14275705
0.1577788
0.1994429
0.29889094
0.38168211
0.2438746
0.022051555
0.13675099
0.13666254
0.13466146
0.13318842
0.13241047
0.1317442
0.13102489
0.13035147
0.12976896
0.12925407
0.12878403
0.1283537
0.12796213
0.12760574
0.12728014
0.12698197
0.12670871
0.12645823
0.12622864
0.12601841
0.12582629
0.12565126
0.12549259
0.12534984
0.12522304
0.12511267
0.12501967
0.12494545
0.12489192
0.12486172
0.12485858
0.12488794
0.12495791
0.12508074
0.12527513
0.12556995
0.12601057
0.1266698
0.12766817
0.12921194
0.13167581
0.13577722
0.143156
0.15861926
0.20155167
0.30196253
0.38150073
0.241557
0.021892303
0.13767575
0.13727588
0.13504253
0.13349843
0.13267927
0.13193693
0.13115193
0.1304386
0.12982758
0.12928672
0.12879443
0.12834717
0.12794279
0.12757626
0.12724264
0.12693829
0.1266604
0.12640648
0.12617447
0.12596264
0.12576963
0.12559433
0.12543591
0.12529393
0.12516837
0.12505963
0.12496862
0.12489663
0.12484556
0.12481802
0.12481779
0.12485046
0.12492434
0.12505204
0.1252528
0.12555636
0.12600944
0.12668702
0.12771322
0.12930038
0.13183447
0.13605489
0.14366147
0.15969144
0.2042139
0.30569895
0.38101817
0.23872129
0.021700364
0.13901611
0.13814767
0.13559982
0.13393474
0.13303365
0.13218154
0.13131134
0.13054603
0.12989683
0.12932255
0.12880348
0.12833642
0.12791718
0.12753912
0.12719662
0.12688565
0.12660292
0.12634562
0.12611136
0.12589824
0.12570473
0.12552954
0.12537182
0.12523104
0.12510709
0.12500034
0.12491156
0.12484203
0.12479359
0.12476887
0.12477174
0.12480792
0.124886
0.12501903
0.12522692
0.12554048
0.12600811
0.12670746
0.12776703
0.12940661
0.13202581
0.13639088
0.14427432
0.16100065
0.20742367
0.30998102
0.38006637
0.23532807
0.021480556
0.14101214
0.13940168
0.13640694
0.13454117
0.13349899
0.1324918
0.13151108
0.1306786
0.12997927
0.12936335
0.12881268
0.12832299
0.1278869
0.12749593
0.12714378
0.12682578
0.12653811
0.12627743
0.12604111
0.12582697
0.12563324
0.12545856
0.12530186
0.12516257
0.1250405
0.12493591
0.12484954
0.1247826
0.1247369
0.12471511
0.12472118
0.12476101
0.12484353
0.12498228
0.12519802
0.12552281
0.12600707
0.12673159
0.12783008
0.12953107
0.13225012
0.13678515
0.14499426
0.16255085
0.21116412
0.31466088
0.37847724
0.23139388
0.021235561
0.14410585
0.14125855
0.137572
0.13537315
0.13410057
0.13287757
0.13175638
0.13083918
0.13007612
0.12940958
0.12882268
0.12830747
0.12785257
0.12744754
0.12708512
0.12675986
0.12646714
0.12620323
0.12596503
0.12575012
0.1255565
0.12538256
0.12522718
0.12508963
0.12496963
0.1248674
0.12478355
0.12471929
0.12467641
0.1246576
0.12466693
0.12471051
0.12479764
0.12494249
0.12516677
0.12550405
0.12600703
0.1267602
0.1279032
0.12967458
0.13250803
0.13723803
0.14582156
0.16434778
0.21541252
0.3195758
0.37609463
0.22696438
0.020972209
0.14929611
0.14414257
0.13930032
0.1365378
0.13488122
0.13335257
0.13205265
0.13102939
0.13018672
0.12946079
0.1288332
0.12828976
0.12781419
0.12739411
0.12702103
0.12668836
0.12639071
0.12612372
0.12588398
0.12566863
0.12547543
0.12530259
0.1251488
0.12501322
0.1248955
0.12479574
0.12471455
0.12465304
0.12461302
0.12459723
0.12460984
0.12465722
0.12474912
0.12490043
0.12513396
0.125485
0.12600889
0.12679422
0.12798735
0.12983807
0.13280027
0.13774999
0.14675702
0.16639981
0.22014188
0.32455433
0.37276792
0.2220678
0.020696285
0.15974856
0.1492269
0.14202407
0.13821132
0.13589077
0.13393092
0.13240518
0.13124873
0.13030894
0.12951538
0.1288433
0.12826899
0.12777124
0.12733549
0.1269516
0.12661164
0.12630928
0.12603963
0.1257987
0.12558333
0.12539094
0.12521952
0.12506763
0.1249343
0.12481905
0.12472194
0.12464348
0.12458479
0.12454765
0.12453485
0.12455073
0.12460195
0.12469876
0.1248569
0.12510044
0.12546659
0.12601363
0.12683474
0.12808368
0.1300227
0.13312786
0.138322
0.14780297
0.16871973
0.22532232
0.32941902
0.3683569
0.21671899
0.020413044
0.18452463
0.16118172
0.14737723
0.14090943
0.13726134
0.13465
0.13282327
0.131495
0.13043909
0.12957125
0.12885131
0.12824392
0.12772296
0.12727134
0.12687677
0.12652982
0.12622325
0.12595143
0.12570989
0.12549499
0.12530387
0.1251343
0.12498463
0.12485379
0.12474121
0.12464686
0.12457124
0.12451538
0.12448111
0.12447127
0.12449037
0.12454544
0.12464732
0.1248127
0.12506707
0.12544977
0.12602231
0.12688292
0.12819343
0.13022976
0.13349206
0.13895568
0.14896409
0.1713265
0.23092134
0.33398466
0.36273201
0.21091284
0.02012637
0.18794155
0.17131955
0.15386985
0.14439626
0.13896811
0.13551754
0.13330717
0.13176202
0.13057273
0.12962537
0.12885491
0.12821298
0.12766858
0.12720137
0.1267966
0.12644329
0.12613317
0.12585989
0.12561833
0.12540447
0.12521511
0.12504777
0.12490067
0.12477258
0.12466286
0.12457139
0.12449863
0.1244456
0.12441413
0.12440717
0.12442943
0.12448837
0.12459551
0.1247686
0.12503471
0.12543553
0.12603606
0.12694002
0.128318
0.1304608
0.13389463
0.13965389
0.15024871
0.17424687
0.2369014
0.3380518
0.35577967
0.2046302
0.019837968
0.20832726
0.18046084
0.16021241
0.14812648
0.14085322
0.13649455
0.13384028
0.13204021
0.13070508
0.1296745
0.12885148
0.12817464
0.12760735
0.12712532
0.12671119
0.12635239
0.12603962
0.12576564
0.12552483
0.12531262
0.12512552
0.12496084
0.1248166
0.12469147
0.12458473
0.1244962
0.12442631
0.12437606
0.12434731
0.12434313
0.12436848
0.12443132
0.12454396
0.12472533
0.12500422
0.12542485
0.12605603
0.12700739
0.12845896
0.13071781
0.13433828
0.14042167
0.15167131
0.17751882
0.24321964
0.34140193
0.34740535
0.19782625
0.019547949
0.22061458
0.1915423
0.16698822
0.15192591
0.14279532
0.13752693
0.13439543
0.13231869
0.1308318
0.12971528
0.12883878
0.12812776
0.12753887
0.12704326
0.12662095
0.12625781
0.12594337
0.12566961
0.12543024
0.12522028
0.12503591
0.12487423
0.12473313
0.12461113
0.12450747
0.12442189
0.12435481
0.12430724
0.12428109
0.12427957
0.12430797
0.1243748
0.12449325
0.12468358
0.12497643
0.12541875
0.12608344
0.12708654
0.12861825
0.13100344
0.13482711
0.14126708
0.1532546
0.18119239
0.24981871
0.34378315
0.33753915
0.19043449
0.019253802
0.25591244
0.20853831
0.17500767
0.15579408
0.14471712
0.1385584
0.13494144
0.13258641
0.13094823
0.12974474
0.12881517
0.12807168
0.12746294
0.12695536
0.12652636
0.12616017
0.12584519
0.12557254
0.12533537
0.12512823
0.12494701
0.12478865
0.12465086
0.12453208
0.12443151
0.12434883
0.12428448
0.12423945
0.12421576
0.12421679
0.12424821
0.12431919
0.12444387
0.12464397
0.12495212
0.12541821
0.12611956
0.12717914
0.12879821
0.13132125
0.13536706
0.14220231
0.15503207
0.18532839
0.2566111
0.34489928
0.32615643
0.18239758
0.01895116
0.30774516
0.22650847
0.18298645
0.15935935
0.14649781
0.13953008
0.13545093
0.13283357
0.13104968
0.12976044
0.12877987
0.12800629
0.12737986
0.12686222
0.1264282
0.12606035
0.12574594
0.12547529
0.12524098
0.12503715
0.12485942
0.12470457
0.12457021
0.12445469
0.12435714
0.12427726
0.12421548
0.12417283
0.12415145
0.12415495
0.1241894
0.12426475
0.1243962
0.12460702
0.12493202
0.12542425
0.12616579
0.12728722
0.12900193
0.13167627
0.13596691
0.14324556
0.15705236
0.18999775
0.26346537
0.34441306
0.31328957
0.17367975
0.01863386
0.34993516
0.24419951
0.19034107
0.16240357
0.14805354
0.14039608
0.13590556
0.13305257
0.13113192
0.12976082
0.12873268
0.12793186
0.12729015
0.12676454
0.12632724
0.12595913
0.12564639
0.12537854
0.12514769
0.12494757
0.12477355
0.12462233
0.12449141
0.12437908
0.12428448
0.12420726
0.12414789
0.12410746
0.12408828
0.12409418
0.12413177
0.12421182
0.12435074
0.12457344
0.1249171
0.12543818
0.12622405
0.12741366
0.12923388
0.13207578
0.13663935
0.14442299
0.15938248
0.19526928
0.27017215
0.34195277
0.29906552
0.16434927
0.01829528
0.37321267
0.25907621
0.19637551
0.16479051
0.14935043
0.14113814
0.1362995
0.13323835
0.13119129
0.12974445
0.12867331
0.12784856
0.12719423
0.12666292
0.12622417
0.12585724
0.1255472
0.12528288
0.12505587
0.12485974
0.12468963
0.12454211
0.12441465
0.12430545
0.12421363
0.1241389
0.12408175
0.1240433
0.12402605
0.12403416
0.12407484
0.12415986
0.12430698
0.12454289
0.12490736
0.12546067
0.12629613
0.12756223
0.12950128
0.13253314
0.13740969
0.14578914
0.16215652
0.20129807
0.27655265
0.33714371
0.28347929
0.15418948
0.017910428
0.39225603
0.26953637
0.2009802
0.16656107
0.15039397
0.14175317
0.13663529
0.1333911
0.13122947
0.12971443
0.12860522
0.12775993
0.1270956
0.12656055
0.12612183
0.1257571
0.12545041
0.12518997
0.124967
0.12477477
0.12460838
0.12446434
0.12434001
0.12423366
0.12414436
0.12407187
0.1240167
0.12398006
0.12396464
0.12397502
0.12401916
0.12410996
0.12426669
0.124518
0.12490652
0.12549685
0.1263889
0.12774199
0.12981575
0.1330626
0.13829688
0.14737943
0.16544461
0.20779366
0.28133059
0.32887675
0.26735252
0.14426947
0.017520637
0.0075213218
0.028003202
0.041934279
0.064733174
0.092821635
0.12205968
0.14891485
0.16970775
0.18082123
0.18047738
0.17096019
0.15797781
0.14655521
0.13843261
0.13310882
0.12961382
0.12724041
0.12557829
0.1243942
0.12354616
0.12293971
0.12250851
0.12220409
0.12199168
0.12184509
0.12174725
0.12168376
0.12164881
0.12163309
0.12164025
0.12166026
0.12170689
0.12176316
0.12186347
0.12197195
0.12216801
0.12236609
0.12276371
0.12314149
0.12404106
0.12489844
0.12731841
0.129695
0.13815589
0.14716415
0.17410349
0.23937345
0.35162994
0.71278153
0.0078791046
0.028276447
0.046262379
0.072655663
0.10269747
0.13249948
0.15861917
0.17720492
0.18476659
0.18054667
0.16846308
0.15493565
0.14419054
0.13692705
0.13221651
0.1290866
0.12692511
0.12539164
0.12429054
0.12349832
0.12293029
0.1225258
0.12224005
0.12204078
0.12190354
0.12181248
0.121754
0.12172294
0.1217103
0.12172009
0.12174232
0.12179104
0.12184915
0.12195125
0.12206109
0.12225777
0.12245682
0.12285307
0.12323363
0.12412811
0.12499529
0.12740215
0.12979845
0.13826065
0.14733075
0.17426164
0.24198328
0.35300167
0.71003064
0.0081280854
0.029637459
0.050253315
0.078796732
0.11012557
0.14039315
0.16592049
0.18255719
0.18699803
0.17962213
0.16582253
0.15228457
0.14229663
0.13575656
0.13151763
0.12866329
0.12666522
0.12523482
0.12420244
0.12345764
0.12292287
0.12254186
0.12227276
0.12208537
0.12195669
0.12187191
0.12181814
0.12179071
0.12178097
0.12179314
0.12181742
0.1218678
0.12192755
0.12203086
0.12214217
0.1223391
0.12254005
0.12293453
0.12331957
0.12420758
0.1250872
0.12747864
0.12989508
0.13836322
0.14747873
0.17448619
0.24458054
0.35358051
0.7077747
0.0083395852
0.030716541
0.053375736
0.083616968
0.11610324
0.14684583
0.17182805
0.18660553
0.18817248
0.17815732
0.16323423
0.14998749
0.14074287
0.13480598
0.13093984
0.1283037
0.12643929
0.12509636
0.12412406
0.12342158
0.12291694
0.12255749
0.12230386
0.12212765
0.12200715
0.12192842
0.12187929
0.12185542
0.1218486
0.12186305
0.12188941
0.12194128
0.12200273
0.12210686
0.12221994
0.1224165
0.12262026
0.12301169
0.12340338
0.12428206
0.1251785
0.1275492
0.12999302
0.13846503
0.1476227
0.17479029
0.24699305
0.35327718
0.70623195
0.0085249676
0.031695899
0.056132809
0.087860555
0.12139971
0.15255875
0.17694344
0.18984281
0.18867793
0.1764182
0.16079627
0.14800407
0.13944792
0.13401244
0.13044675
0.12798906
0.12623772
0.12497126
0.12405279
0.12338887
0.12291206
0.12257273
0.12233371
0.12216817
0.12205558
0.12198279
0.12193825
0.12191791
0.12191403
0.12193073
0.12195921
0.12201244
0.12207567
0.12218037
0.12229549
0.12249122
0.12269859
0.12308602
0.12348625
0.12435343
0.12527037
0.12761659
0.13009287
0.13857084
0.14774978
0.17517774
0.24900275
0.35191568
0.70291543
0.0086974666
0.032601895
0.058669797
0.091778943
0.12631957
0.15784547
0.18155627
0.19251557
0.18871406
0.1745363
0.15853353
0.14628187
0.13834868
0.13333288
0.13001485
0.12770731
0.12605428
0.12485622
0.12398689
0.12335869
0.12290794
0.12258764
0.1223626
0.12220737
0.12210251
0.12203557
0.1219956
0.12197879
0.12197787
0.1219968
0.12202742
0.12208195
0.12214704
0.12225216
0.12236958
0.1225642
0.12277587
0.12315866
0.123569
0.12442329
0.12536363
0.12768306
0.13019552
0.13868291
0.14785203
0.17564316
0.25038671
0.34963331
0.70477425
0.0088629113
0.033476384
0.061105711
0.095545478
0.13105599
0.162894
0.18582988
0.19475475
0.18838723
0.17257842
0.15644257
0.14477359
0.13739921
0.13273852
0.12962886
0.12745073
0.125885
0.12474914
0.12392523
0.12333046
0.12290435
0.12260224
0.12239066
0.12224547
0.12214822
0.12208707
0.12205168
0.1220384
0.12204045
0.12206162
0.12209442
0.12215022
0.12221725
0.12232272
0.12244268
0.12263606
0.12285263
0.12323048
0.12365223
0.12449288
0.12545889
0.12775029
0.13030144
0.13880177
0.14792072
0.1761715
0.25093392
0.34661285
0.71332803
0.0090254203
0.034348714
0.063510414
0.099261248
0.13572453
0.16781623
0.18985575
0.19662902
0.18775735
0.17058138
0.15451052
0.14344014
0.13656609
0.13220936
0.12927845
0.12721415
0.12572727
0.12464872
0.12386725
0.12330403
0.12290138
0.12261672
0.12241821
0.12228283
0.12219308
0.12213768
0.12210684
0.12209708
0.12210213
0.12212552
0.12216053
0.12221759
0.12228666
0.12239247
0.12251522
0.12270735
0.12292939
0.12330224
0.12373649
0.1245633
0.12555662
0.1278196
0.13041093
0.13892611
0.14794886
0.17673781
0.25046898
0.34276396
0.71395227
0.0091875459
0.035236844
0.065926681
0.10298829
0.14039476
0.17267478
0.1936777
0.19816937
0.18686232
0.16857172
0.15272601
0.14225273
0.13582614
0.13173232
0.12895716
0.12699453
0.12557974
0.12455441
0.12381277
0.12327942
0.12289918
0.12263132
0.12244547
0.12231969
0.12223732
0.12218759
0.12216129
0.12215503
0.12216307
0.12218867
0.12222592
0.12228427
0.12235549
0.12246169
0.1225875
0.12277848
0.12300653
0.12337455
0.12382217
0.12463543
0.12565711
0.12789182
0.13052402
0.13905286
0.14793154
0.17730718
0.24887834
0.33842395
0.72151731
0.0093487035
0.036145382
0.068356073
0.10672546
0.145058
0.17745019
0.19727148
0.19937307
0.18574232
0.16659183
0.151096
0.14119972
0.13516896
0.13130217
0.12866321
0.12679166
0.12544271
0.12446662
0.12376217
0.12325694
0.12289792
0.12264609
0.12247242
0.12235592
0.12228074
0.12223658
0.12221472
0.12221191
0.12222291
0.12225073
0.12229024
0.12234993
0.12242341
0.12253015
0.12265928
0.1228494
0.12308387
0.12344762
0.12390909
0.12470977
0.12575994
0.12796724
0.13063992
0.13917715
0.14786668
0.17783562
0.24614462
0.33361783
0.73136881
0.0095124241
0.037093625
0.070850815
0.11055274
0.14980921
0.18222964
0.2006931
0.20026549
0.18441082
0.1646317
0.14958582
0.14024656
0.13457137
0.13090553
0.128389
0.12660113
0.12531362
0.12438394
0.12371478
0.12323637
0.12289773
0.12266139
0.12249954
0.12239211
0.12232398
0.12228528
0.12226781
0.1222684
0.12228234
0.12231237
0.12235419
0.1224153
0.12249118
0.12259865
0.12273135
0.12292102
0.12316224
0.1235225
0.123998
0.12478749
0.12586564
0.12804663
0.13075891
0.13929421
0.14775741
0.17827559
0.24237498
0.32852486
0.74630423
0.0096798184
0.038090739
0.073431518
0.11450111
0.15468072
0.18703185
0.20393977
0.20084398
0.1828877
0.16270301
0.14818491
0.13937785
0.13402303
0.13053691
0.12813189
0.12642177
0.12519206
0.12430634
0.12367078
0.12321803
0.12289896
0.12267757
0.12252718
0.12242857
0.12236731
0.12233395
0.12232076
0.1223247
0.12234154
0.1223738
0.12241796
0.1224806
0.12255901
0.12266749
0.12280401
0.12299373
0.12324198
0.12359971
0.12408919
0.12486912
0.12597426
0.12812985
0.13088066
0.13939738
0.14760983
0.17857462
0.23780783
0.32297857
0.75108992
0.0098515515
0.039145621
0.076114149
0.11859322
0.15969214
0.19185904
0.20699387
0.20110199
0.1811963
0.16082002
0.14688642
0.13858284
0.13351697
0.13019292
0.12789046
0.12625309
0.12507795
0.12423397
0.1236304
0.12320215
0.12290185
0.12269484
0.12255551
0.12246544
0.12241083
0.12238265
0.12237364
0.12238084
0.12240055
0.12243504
0.12248161
0.12254592
0.12262704
0.12273683
0.12287744
0.12306779
0.12332331
0.12367957
0.12418284
0.12495491
0.12608569
0.12821623
0.1310046
0.13947927
0.14743314
0.17868306
0.23277524
0.31718116
0.75296619
0.010025161
0.040251427
0.078873301
0.12278976
0.16478745
0.19664075
0.20979378
0.20103481
0.17938558
0.15901841
0.1456987
0.13786104
0.13305292
0.12987434
0.12766589
0.12609625
0.12497228
0.12416754
0.12359413
0.12318905
0.12290653
0.12271318
0.1225844
0.12250248
0.12245425
0.12243103
0.12242604
0.12243642
0.12245895
0.12249571
0.12254475
0.12261092
0.12269494
0.12280642
0.12295138
0.12314307
0.123406
0.12376202
0.12427859
0.1250447
0.12619924
0.12830476
0.13112947
0.13953251
0.1472386
0.17855984
0.22765363
0.31119955
0.74576024
0.010204383
0.041421148
0.081755955
0.12716662
0.1700533
0.20144191
0.21236227
0.20064708
0.17745699
0.15727908
0.14459464
0.13719223
0.13261844
0.12957377
0.12745362
0.12594837
0.12487327
0.12410608
0.12356154
0.12317864
0.12291318
0.12273296
0.12261432
0.12254023
0.12249813
0.1224797
0.12247859
0.12249209
0.12251741
0.1225565
0.1226081
0.12267634
0.12276345
0.12287706
0.12302661
0.12322039
0.12349079
0.12384782
0.12437708
0.12513896
0.1263152
0.12839492
0.13125508
0.13955144
0.14704014
0.17818028
0.22282547
0.30576943
0.7434326
0.010390017
0.042660472
0.084777968
0.13174784
0.17550688
0.20625406
0.21467157
0.19993835
0.17543503
0.15560873
0.14356743
0.13656959
0.13220983
0.12928949
0.12725293
0.12580924
0.12478097
0.12404975
0.12353285
0.12317121
0.12292208
0.12275441
0.12264547
0.12257888
0.12254264
0.1225288
0.12253144
0.12254798
0.12257609
0.12261756
0.12267185
0.12274239
0.12283282
0.122949
0.12310339
0.12329998
0.12357793