/*--------------------------------*- C++ -*----------------------------------*\
| =========                 |                                                 |
| \\      /  F ield         | OpenFOAM: The Open Source CFD Toolbox           |
|  \\    /   O peration     | Version:  2506                                  |
|   \\  /    A nd           | Website:  www.openfoam.com                      |
|    \\/     M anipulation  |                                                 |
\*---------------------------------------------------------------------------*/
FoamFile
{
    version     2.0;
    format      ascii;
    arch        "LSB;label=32;scalar=64";
    class       volScalarField;
    location    "0.00031";
    object      alphat;
}
// * * * * * * * * * * * * * * * * * * * * * * * * * * * * * * * * * * * * * //

dimensions      [1 -1 -1 0 0 0 0];

internalField   nonuniform List<scalar> 
3416
(
1.5107491e-09
1.4950001e-09
1.5005792e-09
1.4975455e-09
1.4883499e-09
1.4857922e-09
1.5040715e-09
1.5132002e-09
1.501843e-09
1.5142263e-09
1.5402094e-09
1.5468933e-09
1.5432548e-09
1.6272373e-09
1.57779e-09
1.6213886e-09
1.5389361e-09
1.5049491e-09
1.4998975e-09
1.5035398e-09
1.5291025e-09
1.5460677e-09
1.5410361e-09
1.5577934e-09
1.5839386e-09
1.5874508e-09
1.5743683e-09
1.5602668e-09
1.5534409e-09
1.5607644e-09
1.5874981e-09
1.6051276e-09
1.5900815e-09
1.554832e-09
1.581361e-09
1.7933911e-09
1.8711173e-09
1.8429873e-09
1.7541583e-09
1.651227e-09
1.5702743e-09
1.5384628e-09
1.5361033e-09
1.5408353e-09
1.5661964e-09
1.5823811e-09
1.572293e-09
1.5806026e-09
1.5990723e-09
1.5969957e-09
1.5764944e-09
1.5522499e-09
1.5262539e-09
1.5252626e-09
1.553584e-09
1.5826668e-09
1.5748148e-09
1.6114583e-09
1.8275818e-09
1.9081981e-09
1.8792789e-09
1.7879729e-09
1.6825014e-09
1.5982932e-09
1.5635088e-09
1.5571712e-09
1.5572376e-09
1.5783039e-09
1.5910974e-09
1.5762936e-09
1.5786785e-09
1.5859283e-09
1.5683208e-09
1.541509e-09
1.5185141e-09
1.5022688e-09
1.5074951e-09
1.5402631e-09
1.573056e-09
1.5682881e-09
1.5544175e-09
1.5330726e-09
1.6261019e-09
1.8429542e-09
1.9230187e-09
1.8920355e-09
1.7984351e-09
1.6908037e-09
1.6042743e-09
1.5668589e-09
1.5573671e-09
1.5529703e-09
1.5659327e-09
1.566163e-09
1.5451165e-09
1.5447739e-09
1.5544362e-09
1.5450828e-09
1.5238834e-09
1.5050935e-09
1.4922425e-09
1.4999976e-09
1.534585e-09
1.5688775e-09
1.5652759e-09
1.6869237e-09
1.681119e-09
1.5958398e-09
1.5462918e-09
1.6167108e-09
1.6424901e-09
1.5572043e-09
1.5335214e-09
1.6234519e-09
1.838686e-09
1.9175585e-09
1.8837178e-09
1.7853496e-09
1.6714902e-09
1.5813752e-09
1.541096e-09
1.5292134e-09
1.5240359e-09
1.5384125e-09
1.5441844e-09
1.5270988e-09
1.5295629e-09
1.5418849e-09
1.5350978e-09
1.5164012e-09
1.4994998e-09
1.4881571e-09
1.4968906e-09
1.531972e-09
1.5667519e-09
1.5636326e-09
1.6753803e-09
1.6702514e-09
1.586517e-09
1.5296135e-09
1.59657e-09
1.6245331e-09
1.5400795e-09
1.5131138e-09
1.5983191e-09
1.8089004e-09
1.8862295e-09
1.8529807e-09
1.7577319e-09
1.6488889e-09
1.5626997e-09
1.5248025e-09
1.5148043e-09
1.5113657e-09
1.5269972e-09
1.5344536e-09
1.5191966e-09
1.5228827e-09
1.5363772e-09
1.5308496e-09
1.5132767e-09
1.4971488e-09
1.4864291e-09
1.4954775e-09
1.5305226e-09
1.5653974e-09
1.5625789e-09
1.6605323e-09
1.6553178e-09
1.5731442e-09
1.5144077e-09
1.5795389e-09
1.6091537e-09
1.5270483e-09
1.4998353e-09
1.5837487e-09
1.7924215e-09
1.86988e-09
1.837862e-09
1.744673e-09
1.6379579e-09
1.5537922e-09
1.517165e-09
1.5081807e-09
1.5056259e-09
1.5217448e-09
1.5301115e-09
1.5157799e-09
1.5198813e-09
1.5337959e-09
1.5288944e-09
1.5118946e-09
1.4960791e-09
1.4856085e-09
1.494685e-09
1.5295065e-09
1.5643823e-09
1.5617939e-09
1.6516851e-09
1.6463342e-09
1.5634161e-09
1.5059054e-09
1.5714928e-09
1.6007664e-09
1.519411e-09
1.4928647e-09
1.576714e-09
1.7840166e-09
1.860785e-09
1.8295408e-09
1.7378038e-09
1.632444e-09
1.5495139e-09
1.5135736e-09
1.5050894e-09
1.5029243e-09
1.5191359e-09
1.5279991e-09
1.5141805e-09
1.5183701e-09
1.5324003e-09
1.5278305e-09
1.5111791e-09
1.4954872e-09
1.4851063e-09
1.4941226e-09
1.5286628e-09
1.563542e-09
1.5611094e-09
1.5366283e-09
1.6458072e-09
1.6400029e-09
1.5557917e-09
1.5014695e-09
1.568634e-09
1.5965584e-09
1.5147133e-09
1.4891883e-09
1.573432e-09
1.7796325e-09
1.8553898e-09
1.8246244e-09
1.7338123e-09
1.6292223e-09
1.547108e-09
1.5116312e-09
1.5034455e-09
1.5014834e-09
1.5176481e-09
1.5268156e-09
1.5133033e-09
1.5174012e-09
1.5314108e-09
1.5270499e-09
1.510657e-09
1.4950607e-09
1.4847379e-09
1.4936777e-09
1.5279042e-09
1.5627241e-09
1.5603392e-09
1.5360498e-09
1.6462459e-09
1.6403625e-09
1.6349038e-09
1.5506974e-09
1.4989028e-09
1.5670522e-09
1.5938076e-09
1.5115281e-09
1.4866698e-09
1.5710826e-09
1.7764773e-09
1.8516911e-09
1.8212901e-09
1.7310779e-09
1.627014e-09
1.5454914e-09
1.5103854e-09
1.5024071e-09
1.500564e-09
1.5166002e-09
1.525949e-09
1.5126328e-09
1.5165312e-09
1.5304604e-09
1.5263386e-09
1.5102039e-09
1.494713e-09
1.4844485e-09
1.4932433e-09
1.527067e-09
1.5617267e-09
1.5593969e-09
1.6448969e-09
1.6351567e-09
1.631168e-09
1.5479624e-09
1.4963833e-09
1.5645759e-09
1.5914424e-09
1.5094713e-09
1.4846409e-09
1.5686292e-09
1.7734118e-09
1.8487001e-09
1.8186269e-09
1.7288549e-09
1.6252661e-09
1.5441996e-09
1.5093909e-09
1.5015662e-09
1.4998026e-09
1.515652e-09
1.5250859e-09
1.5119398e-09
1.5156517e-09
1.5294949e-09
1.5256643e-09
1.5098144e-09
1.4943491e-09
1.4840972e-09
1.4926823e-09
1.5260285e-09
1.560532e-09
1.5583035e-09
1.6446031e-09
1.6315459e-09
1.6286281e-09
1.5466924e-09
1.4937691e-09
1.5613889e-09
1.5894086e-09
1.5085157e-09
1.4831021e-09
1.5662231e-09
1.7703508e-09
1.8459584e-09
1.8161423e-09
1.7268519e-09
1.6237798e-09
1.5430473e-09
1.5084423e-09
1.5007535e-09
1.4990698e-09
1.5147086e-09
1.5241727e-09
1.5112191e-09
1.5148058e-09
1.5285507e-09
1.5249388e-09
1.5093872e-09
1.4938906e-09
1.4835506e-09
1.4919538e-09
1.524853e-09
1.5592539e-09
1.557089e-09
1.6438007e-09
1.6288347e-09
1.6267422e-09
1.5460373e-09
1.4920075e-09
1.5589282e-09
1.5879876e-09
1.508082e-09
1.4820193e-09
1.5642581e-09
1.7675579e-09
1.8432968e-09
1.8137547e-09
1.7250336e-09
1.6224146e-09
1.5419595e-09
1.5075417e-09
1.4999904e-09
1.498389e-09
1.5138098e-09
1.5232683e-09
1.5104889e-09
1.5139674e-09
1.5276338e-09
1.5241269e-09
1.5087543e-09
1.4932773e-09
1.4828778e-09
1.4911354e-09
1.5236406e-09
1.8085962e-09
1.641176e-09
1.6276479e-09
1.625496e-09
1.5455158e-09
1.491012e-09
1.5572528e-09
1.5868597e-09
1.5077513e-09
1.4811123e-09
1.5625916e-09
1.7649627e-09
1.8408169e-09
1.8116217e-09
1.7233662e-09
1.6211507e-09
1.5409715e-09
1.5067183e-09
1.4992712e-09
1.4977332e-09
1.5129689e-09
1.5224389e-09
1.5098054e-09
1.5130805e-09
1.5266426e-09
1.5232817e-09
1.5079998e-09
1.4925269e-09
1.4821151e-09
1.4901252e-09
1.5221683e-09
1.8035952e-09
1.6389988e-09
1.6270631e-09
1.6245171e-09
1.5448438e-09
1.4903276e-09
1.5561351e-09
1.5858266e-09
1.5072816e-09
1.4802442e-09
1.5610571e-09
1.7625329e-09
1.8384959e-09
1.8095363e-09
1.7217032e-09
1.6199475e-09
1.5400704e-09
1.5059482e-09
1.4985588e-09
1.4970773e-09
1.5121283e-09
1.5216691e-09
1.5091743e-09
1.5121532e-09
1.5254608e-09
1.5222764e-09
1.5071426e-09
1.4915109e-09
1.4810257e-09
1.4887963e-09
1.5201717e-09
1.8126369e-09
1.6418436e-09
1.6257625e-09
1.6228342e-09
1.5437618e-09
1.4894788e-09
1.5549579e-09
1.5846875e-09
1.5067167e-09
1.4793541e-09
1.5594375e-09
1.760036e-09
1.8360547e-09
1.8073611e-09
1.7201086e-09
1.6187437e-09
1.5392154e-09
1.505204e-09
1.4978793e-09
1.4964252e-09
1.5112055e-09
1.5207674e-09
1.5084062e-09
1.5111298e-09
1.5240717e-09
1.5208882e-09
1.5059383e-09
1.490169e-09
1.4794053e-09
1.8224679e-09
1.6419809e-09
1.6237288e-09
1.6208685e-09
1.5425908e-09
1.4885332e-09
1.5534928e-09
1.5836384e-09
1.5064442e-09
1.4784579e-09
1.5575061e-09
1.7571179e-09
1.8334926e-09
1.8052029e-09
1.7184655e-09
1.6174373e-09
1.5382556e-09
1.5043536e-09
1.4971112e-09
1.4956823e-09
1.5101393e-09
1.5195451e-09
1.5072007e-09
1.5096949e-09
1.5223721e-09
1.5191096e-09
1.5041641e-09
1.4885528e-09
1.4780167e-09
1.8375777e-09
1.6405413e-09
1.6218329e-09
1.619057e-09
1.54219e-09
1.4875581e-09
1.5514554e-09
1.5824661e-09
1.5063221e-09
1.4774558e-09
1.5551502e-09
1.7537157e-09
1.8307423e-09
1.8028952e-09
1.7165994e-09
1.6159145e-09
1.5370156e-09
1.5031971e-09
1.4960022e-09
1.4945915e-09
1.508737e-09
1.5180259e-09
1.5056296e-09
1.5077701e-09
1.5203718e-09
1.5175086e-09
1.5028963e-09
1.4876673e-09
1.4776566e-09
1.8440901e-09
1.6399025e-09
1.6200401e-09
1.6177012e-09
1.5422198e-09
1.4863804e-09
1.5490725e-09
1.5812052e-09
1.5062596e-09
1.476357e-09
1.5525193e-09
1.7498723e-09
1.8275689e-09
1.8001363e-09
1.7144263e-09
1.6140228e-09
1.5354649e-09
1.5017249e-09
1.4945e-09
1.4930649e-09
1.5069857e-09
1.5164684e-09
1.5044396e-09
1.5065143e-09
1.5192423e-09
1.5169411e-09
1.5029354e-09
1.4886831e-09
1.4807411e-09
1.8283065e-09
1.6350429e-09
1.6174886e-09
1.6161283e-09
1.5420363e-09
1.4851167e-09
1.5466053e-09
1.579765e-09
1.5060637e-09
1.4750013e-09
1.5495658e-09
1.7456808e-09
1.82401e-09
1.7969982e-09
1.7118448e-09
1.611909e-09
1.5339497e-09
1.5005358e-09
1.4934392e-09
1.492127e-09
1.5059862e-09
1.5157927e-09
1.5042273e-09
1.5066139e-09
1.5199684e-09
1.519065e-09
1.5081133e-09
1.4958738e-09
1.488307e-09
2.3742422e-09
1.7986435e-09
1.6280325e-09
1.6152213e-09
1.6145376e-09
1.5418677e-09
1.4840096e-09
1.5442132e-09
1.5782714e-09
1.5055702e-09
1.4737595e-09
1.5472722e-09
1.7424868e-09
1.8212675e-09
1.7946098e-09
1.7100882e-09
1.6108051e-09
1.5333792e-09
1.5002542e-09
1.493387e-09
1.4923908e-09
1.5065233e-09
1.5171867e-09
1.5072604e-09
1.5114307e-09
1.5261426e-09
1.5259576e-09
1.5140675e-09
1.4999224e-09
1.4908116e-09
2.2978702e-09
1.7752234e-09
1.6221793e-09
1.6134933e-09
1.6136847e-09
1.542012e-09
1.483477e-09
1.5430211e-09
1.5776631e-09
1.5054692e-09
1.4734075e-09
1.5464605e-09
1.7412841e-09
1.8204176e-09
1.7941063e-09
1.7100928e-09
1.611343e-09
1.5346598e-09
1.5022682e-09
1.4965361e-09
1.4966383e-09
1.5113522e-09
1.5228728e-09
1.5129446e-09
1.515909e-09
1.5293418e-09
1.5284126e-09
1.5148119e-09
1.4982723e-09
2.2028503e-09
1.7511222e-09
1.6191557e-09
1.6129183e-09
1.6137553e-09
1.543099e-09
1.4838628e-09
1.5431918e-09
1.5785471e-09
1.5076926e-09
1.474976e-09
1.5470241e-09
1.7414649e-09
1.8214556e-09
1.7960194e-09
1.7131066e-09
1.6150172e-09
1.5388696e-09
1.506369e-09
1.500226e-09
1.4997359e-09
1.5138131e-09
1.5250396e-09
1.514423e-09
1.5160567e-09
1.527181e-09
1.5232717e-09
1.5085428e-09
1.492352e-09
3.3616154e-09
2.1595075e-09
1.7372545e-09
1.6160482e-09
1.6134234e-09
1.615255e-09
1.5450173e-09
1.4861668e-09
1.5454813e-09
1.5810725e-09
1.5102563e-09
1.4772699e-09
1.5489684e-09
1.7428876e-09
1.8229736e-09
1.7975575e-09
1.7146404e-09
1.6165028e-09
1.5403014e-09
1.5074218e-09
1.5007572e-09
1.4995208e-09
1.512136e-09
1.5212152e-09
1.5093003e-09
1.5100295e-09
1.5211201e-09
1.518738e-09
1.5052826e-09
1.4899294e-09
3.3617991e-09
2.1692717e-09
1.7363539e-09
1.6151879e-09
1.6135568e-09
1.6157408e-09
1.5457813e-09
1.4867848e-09
1.5460161e-09
1.5816724e-09
1.511012e-09
1.4776345e-09
1.5488516e-09
1.7420799e-09
1.8216428e-09
1.7957242e-09
1.7121227e-09
1.6132993e-09
1.5368412e-09
1.5031901e-09
1.4959092e-09
1.4943093e-09
1.5066035e-09
1.5166391e-09
1.5057474e-09
1.5069323e-09
1.5183899e-09
1.5165533e-09
1.5037076e-09
1.4886857e-09
3.4343452e-09
2.1985937e-09
1.7406131e-09
1.6133276e-09
1.6110989e-09
1.6135536e-09
1.544019e-09
1.484758e-09
1.5432374e-09
1.5785648e-09
1.5083992e-09
1.4743455e-09
1.5445015e-09
1.7360317e-09
1.8148236e-09
1.7889087e-09
1.7059919e-09
1.6082913e-09
1.5328882e-09
1.4997129e-09
1.4927471e-09
1.4915433e-09
1.5038887e-09
1.5143769e-09
1.5040016e-09
1.5053091e-09
1.5168188e-09
1.5152721e-09
1.5027599e-09
1.4878906e-09
4.9257352e-09
3.5014798e-09
2.2076576e-09
1.7385706e-09
1.6096446e-09
1.6069358e-09
1.6091528e-09
1.5407998e-09
1.4817114e-09
1.5394099e-09
1.5751038e-09
1.5058684e-09
1.4713885e-09
1.5408048e-09
1.7312673e-09
1.8099645e-09
1.7844138e-09
1.7021934e-09
1.6052058e-09
1.5305772e-09
1.4977322e-09
1.4910057e-09
1.4900737e-09
1.5023149e-09
1.5130375e-09
1.5029825e-09
1.5042645e-09
1.5157035e-09
1.5143497e-09
1.5020685e-09
1.4873093e-09
5.0004682e-09
3.4638963e-09
2.1706992e-09
1.7231971e-09
1.6048464e-09
1.6038126e-09
1.6062594e-09
1.5390819e-09
1.4796392e-09
1.536633e-09
1.572833e-09
1.504294e-09
1.4692699e-09
1.5380235e-09
1.7276131e-09
1.8062977e-09
1.7810419e-09
1.699325e-09
1.602975e-09
1.5290381e-09
1.4965031e-09
1.4899559e-09
1.4891743e-09
1.5012302e-09
1.5120588e-09
1.5022566e-09
1.5034614e-09
1.5147652e-09
1.5135543e-09
1.5014929e-09
1.4868422e-09
5.5512125e-09
4.9673422e-09
3.2990679e-09
2.0908789e-09
1.699629e-09
1.5993836e-09
1.6013357e-09
1.604369e-09
1.5379196e-09
1.477892e-09
1.5345986e-09
1.5712556e-09
1.5031166e-09
1.4676283e-09
1.5358943e-09
1.7247542e-09
1.8032325e-09
1.7781389e-09
1.6968416e-09
1.601148e-09
1.5278363e-09
1.4956002e-09
1.489176e-09
1.4884769e-09
1.500335e-09
1.5112107e-09
1.5016357e-09
1.5027406e-09
1.5138628e-09
1.5127783e-09
1.5009722e-09
1.48641e-09
5.6875455e-09
4.8358989e-09
3.1054448e-09
2.0140019e-09
1.6775725e-09
1.5938367e-09
1.5989438e-09
1.6029255e-09
1.536892e-09
1.4763793e-09
1.5331198e-09
1.5700689e-09
1.5021825e-09
1.466311e-09
1.5341558e-09
1.7223028e-09
1.800425e-09
1.7754663e-09
1.6946167e-09
1.599466e-09
1.5267602e-09
1.4947966e-09
1.4884427e-09
1.4878132e-09
1.4994831e-09
1.5103779e-09
1.5010116e-09
1.5019999e-09
1.5129325e-09
1.5119922e-09
1.5004738e-09
1.4859878e-09
5.7211766e-09
4.7081919e-09
2.9932234e-09
1.9700009e-09
1.6646007e-09
1.5891698e-09
1.5964762e-09
1.6015456e-09
1.5359954e-09
1.4752147e-09
1.5319857e-09
1.5690523e-09
1.5013746e-09
1.465163e-09
1.5325516e-09
1.7199332e-09
1.797803e-09
1.7729843e-09
1.6924555e-09
1.597781e-09
1.5257143e-09
1.4939589e-09
1.4876422e-09
1.4871106e-09
1.4985918e-09
1.5095019e-09
1.5003388e-09
1.5012108e-09
1.5119712e-09
1.5111698e-09
1.4999355e-09
1.4855503e-09
5.6258078e-09
4.6541916e-09
2.9745555e-09
1.9612962e-09
1.658575e-09
1.5856511e-09
1.594313e-09
1.600281e-09
1.5352485e-09
1.4741327e-09
1.5308411e-09
1.5679712e-09
1.5005166e-09
1.464046e-09
1.5308668e-09
1.7174487e-09
1.795147e-09
1.7703617e-09
1.6901705e-09
1.5960126e-09
1.5246045e-09
1.4930026e-09
1.486754e-09
1.4863591e-09
1.4976548e-09
1.5085788e-09
1.4996082e-09
1.5003763e-09
1.5109422e-09
1.5102609e-09
1.4993301e-09
1.4850622e-09
5.5454282e-09
4.6876258e-09
3.0156024e-09
1.9750691e-09
1.6595043e-09
1.5833944e-09
1.5921046e-09
1.5987475e-09
1.5342227e-09
1.4728697e-09
1.529428e-09
1.5668081e-09
1.4998049e-09
1.4629739e-09
1.5290816e-09
1.7146992e-09
1.7922168e-09
1.7674536e-09
1.687746e-09
1.5941618e-09
1.5233571e-09
1.4919558e-09
1.4858477e-09
1.4855862e-09
1.4966781e-09
1.5075889e-09
1.4988151e-09
1.4994918e-09
1.5098367e-09
1.5092685e-09
1.4986613e-09
1.4844982e-09
1.4750378e-09
7.5045809e-09
5.8172973e-09
5.5593674e-09
4.7583663e-09
3.0568661e-09
1.9850636e-09
1.661667e-09
1.5821702e-09
1.5900591e-09
1.5971735e-09
1.53347e-09
1.471962e-09
1.5280069e-09
1.5655824e-09
1.4991119e-09
1.4618367e-09
1.527243e-09
1.7118712e-09
1.7890738e-09
1.7644046e-09
1.6852633e-09
1.5922897e-09
1.5219941e-09
1.4909291e-09
1.4849589e-09
1.4847803e-09
1.4956538e-09
1.5065529e-09
1.4979806e-09
1.4985645e-09
1.5087009e-09
1.5082444e-09
1.4979442e-09
1.4838759e-09
1.4744764e-09
7.6189876e-08
1.604955e-08
7.57829e-09
5.9223087e-09
5.6823385e-09
4.8132847e-09
3.0570543e-09
1.9778777e-09
1.657042e-09
1.5802677e-09
1.588953e-09
1.596208e-09
1.5331284e-09
1.4713577e-09
1.5266427e-09
1.5641276e-09
1.4982316e-09
1.4606403e-09
1.5255345e-09
1.7092008e-09
1.7858584e-09
1.7614028e-09
1.6828499e-09
1.5903919e-09
1.5206423e-09
1.4899662e-09
1.4840419e-09
1.4839224e-09
1.4945917e-09
1.5054979e-09
1.4971216e-09
1.4976154e-09
1.5075662e-09
1.5072216e-09
1.4971742e-09
1.4832124e-09
1.4738535e-09
7.6744946e-08
1.6328977e-08
7.7713238e-09
6.1227897e-09
5.8255914e-09
4.8219826e-09
2.9959209e-09
1.943951e-09
1.6481593e-09
1.5786423e-09
1.5887625e-09
1.5958982e-09
1.5327417e-09
1.4706218e-09
1.525321e-09
1.5626318e-09
1.4970669e-09
1.4593976e-09
1.5239604e-09
1.7066473e-09
1.7827106e-09
1.7586081e-09
1.6805452e-09
1.5884698e-09
1.5193979e-09
1.4889792e-09
1.4830647e-09
1.483005e-09
1.4935035e-09
1.504424e-09
1.4962614e-09
1.4966664e-09
1.5064201e-09
6.0142061e-07
7.7229357e-08
1.6743519e-08
8.0656267e-09
6.3445857e-09
5.9390456e-09
4.7883933e-09
2.9302557e-09
1.9125703e-09
1.6388101e-09
1.5771615e-09
1.5887205e-09
1.5957147e-09
1.531721e-09
1.4693439e-09
1.5239888e-09
1.5612496e-09
1.4957174e-09
1.458085e-09
1.5223204e-09
1.7040328e-09
1.7798183e-09
1.7559796e-09
1.6781437e-09
1.5865274e-09
1.5181903e-09
1.4879116e-09
1.4820441e-09
1.4820518e-09
1.4923983e-09
1.5033113e-09
1.4953684e-09
1.4956993e-09
1.5052075e-09
0.00021232108
0.0001297234
5.9208524e-05
1.0625894e-05
6.3612928e-07
8.0998754e-08
1.7675383e-08
8.3845187e-09
6.4670596e-09
5.9704677e-09
4.7653961e-09
2.9195736e-09
1.9011676e-09
1.6307588e-09
1.5748675e-09
1.5881021e-09
1.5942492e-09
1.5295693e-09
1.4676744e-09
1.5225203e-09
1.5597068e-09
1.494264e-09
1.4566387e-09
1.5204156e-09
1.7012768e-09
1.7770741e-09
1.7531561e-09
1.6755275e-09
1.5846929e-09
1.5169411e-09
1.4867977e-09
1.4810084e-09
1.4810827e-09
1.4912746e-09
1.502147e-09
1.4944033e-09
1.4946586e-09
1.5039234e-09
0.00021697594
0.00013346998
6.1839021e-05
1.179255e-05
7.0800328e-07
8.8333753e-08
1.9201445e-08
8.7125503e-09
6.480597e-09
5.9650931e-09
4.7945139e-09
2.927067e-09
1.900358e-09
1.6293743e-09
1.5729275e-09
1.5858993e-09
1.5913805e-09
1.5273269e-09
1.466101e-09
1.5206925e-09
1.5576938e-09
1.4928059e-09
1.4551679e-09
1.5183776e-09
1.6984182e-09
1.7740148e-09
1.7498993e-09
1.6730246e-09
1.5830153e-09
1.5155948e-09
1.4856469e-09
1.4799537e-09
1.4800805e-09
1.4901188e-09
1.50094e-09
1.4933651e-09
1.4935349e-09
1.5026094e-09
0.00022141032
0.00013682117
6.4054674e-05
1.2702761e-05
7.6613641e-07
9.4966711e-08
2.1093617e-08
9.2423337e-09
6.698096e-09
6.0931713e-09
4.7871773e-09
2.881562e-09
1.8850233e-09
1.6258853e-09
1.5707672e-09
1.5833037e-09
1.5885516e-09
1.5251688e-09
1.4641611e-09
1.5181997e-09
1.5555108e-09
1.4915585e-09
1.4538083e-09
1.5163256e-09
1.6952705e-09
1.770439e-09
1.7466911e-09
1.6709382e-09
1.5813301e-09
1.514096e-09
1.4844542e-09
1.4788603e-09
1.4790251e-09
1.4889189e-09
1.4997222e-09
1.4923861e-09
1.4925265e-09
0.00022405857
0.00013870037
6.5222905e-05
1.310903e-05
7.8185708e-07
9.9334985e-08
2.2818896e-08
9.6340434e-09
6.8857574e-09
6.1922791e-09
4.7285467e-09
2.8044445e-09
1.85375e-09
1.616886e-09
1.5683298e-09
1.5807601e-09
1.5855336e-09
1.5222748e-09
1.4615553e-09
1.515831e-09
1.553837e-09
1.4906264e-09
1.4525169e-09
1.5141463e-09
1.6917157e-09
1.7670423e-09
1.7441252e-09
1.6690513e-09
1.5794297e-09
1.51245e-09
1.4832486e-09
1.477798e-09
1.4780361e-09
1.4878366e-09
1.4986916e-09
1.491759e-09
0.00022554073
0.00013974368
6.5887031e-05
1.3383358e-05
7.7692645e-07
1.0311109e-07
2.3810107e-08
9.7450281e-09
6.9294138e-09
6.2057945e-09
4.6477276e-09
2.7455149e-09
1.8309112e-09
1.6088857e-09
1.5647996e-09
1.5772949e-09
1.5819839e-09
1.5190723e-09
1.459387e-09
1.5141034e-09
1.5525119e-09
1.4898883e-09
1.4511351e-09
1.5117687e-09
1.6882974e-09
1.7645051e-09
1.742105e-09
1.666938e-09
1.5772639e-09
1.5108342e-09
1.4821761e-09
1.4769647e-09
1.4773811e-09
1.4871877e-09
1.4981169e-09
1.4915322e-09
0.00022825357
0.00014204655
6.7755415e-05
1.4384983e-05
8.385412e-07
1.0988615e-07
2.4594925e-08
9.7665191e-09
6.8932632e-09
6.1775694e-09
4.635172e-09
2.7406121e-09
1.8220867e-09
1.6020551e-09
1.5599e-09
1.5728612e-09
1.5784484e-09
1.5171395e-09
1.4580369e-09
1.5121985e-09
1.5509636e-09
1.4894023e-09
1.4498581e-09
1.5096003e-09
1.6855439e-09
1.7624933e-09
1.7400789e-09
1.6644985e-09
1.5751204e-09
1.5095025e-09
1.4813877e-09
1.4764292e-09
1.477045e-09
1.4868815e-09
1.4978321e-09
0.00023332218
0.00014621386
7.0841963e-05
1.5999877e-05
9.5939936e-07
1.1780001e-07
2.542905e-08
9.7624616e-09
6.8229322e-09
6.1716833e-09
4.6839792e-09
2.7573714e-09
1.8206669e-09
1.5970834e-09
1.555797e-09
1.5693142e-09
1.5759882e-09
1.5165544e-09
1.4569831e-09
1.5096406e-09
1.5494164e-09
1.4894353e-09
1.4492701e-09
1.5080758e-09
1.6831111e-09
1.7601925e-09
1.7375101e-09
1.661977e-09
1.5731267e-09
1.5083983e-09
1.4807493e-09
1.4759388e-09
1.4766309e-09
1.4863253e-09
1.4971197e-09
0.00023821206
0.0001499861
7.3428714e-05
1.7207081e-05
1.0437897e-06
1.2191859e-07
2.5897354e-08
9.8265693e-09
6.9291964e-09
6.2788512e-09
4.6965719e-09
2.7237057e-09
1.8057866e-09
1.5927573e-09
1.5534312e-09
1.5669202e-09
1.5741781e-09
1.5164405e-09
1.4560963e-09
1.5072348e-09
1.548552e-09
1.4900744e-09
1.4491737e-09
1.5068136e-09
1.6801761e-09
1.7569057e-09
1.7342431e-09
1.6592727e-09
1.5709051e-09
1.5070198e-09
1.4797611e-09
1.4749409e-09
1.4753662e-09
1.4845525e-09
1.4950676e-09
0.00024114258
0.00015217863
7.4908794e-05
1.7850335e-05
1.0735121e-06
1.2249919e-07
2.5699308e-08
9.7213455e-09
7.0253444e-09
6.3245109e-09
4.6101539e-09
2.6553782e-09
1.7801181e-09
1.5861289e-09
1.5511177e-09
1.5646543e-09
1.5723133e-09
1.516222e-09
1.4555955e-09
1.5055549e-09
1.5481025e-09
1.4904892e-09
1.4491037e-09
1.5050643e-09
1.676412e-09
1.7528954e-09
1.7305594e-09
1.6560566e-09
1.5681246e-09
1.5050285e-09
1.4780894e-09
1.4732899e-09
1.4737284e-09
1.4828514e-09
1.4934211e-09
0.00070488804
0.00061933397
0.00052893431
0.00043414292
0.00033806806
0.00024339868
0.00015400541
7.6312934e-05
1.8621879e-05
1.1017226e-06
1.212756e-07
2.4128748e-08
9.4151891e-09
6.9749575e-09
6.2724837e-09
4.5253151e-09
2.6049855e-09
1.761842e-09
1.5797549e-09
1.5483728e-09
1.5623708e-09
1.5706816e-09
1.51608e-09
1.4552886e-09
1.5038349e-09
1.5471296e-09
1.4904389e-09
1.4477093e-09
1.5024962e-09
1.6726259e-09
1.749001e-09
1.7268346e-09
1.652584e-09
1.5652935e-09
1.5031434e-09
0.00078998913
0.0007098479
0.00062406902
0.00053335938
0.00043831485
0.00034190273
0.00024686712
0.00015699776
7.8704558e-05
1.997569e-05
1.1783265e-06
1.187026e-07
2.2656558e-08
9.2833233e-09
6.9845663e-09
6.302598e-09
4.5036165e-09
2.5641605e-09
1.7445234e-09
1.5745064e-09
1.5463297e-09
1.5607138e-09
1.5694766e-09
1.5160314e-09
1.4544061e-09
1.5011539e-09
1.544617e-09
1.4885513e-09
1.4452376e-09
1.4999883e-09
1.6695568e-09
1.7454524e-09
1.7231502e-09
1.649178e-09
1.5626535e-09
1.5014208e-09
0.00087040703
0.00079718331
0.00071675722
0.00063063818
0.00053952494
0.00044398355
0.00034705304
0.00025134058
0.0001606947
8.1477569e-05
2.1497576e-05
1.271443e-06
1.1523514e-07
2.1774013e-08
9.3909653e-09
7.2590256e-09
6.4820548e-09
4.4771649e-09
2.5071773e-09
1.7229133e-09
1.569866e-09
1.5452014e-09
1.5594152e-09
1.5681551e-09
1.5152638e-09
1.4522028e-09
1.4981897e-09
1.5418556e-09
1.4861505e-09
1.4431095e-09
1.4980057e-09
1.6669718e-09
1.7419384e-09
1.719432e-09
1.6459063e-09
1.5601639e-09
1.4997348e-09
0.00094454718
0.0008782308
0.00080452094
0.00072353555
0.00063683809
0.00054516555
0.00044897934
0.00035136781
0.00025492638
0.0001635383
8.3499467e-05
2.25022e-05
1.3295271e-06
1.105321e-07
2.1367615e-08
9.9057354e-09
7.6828447e-09
6.5785727e-09
4.365843e-09
2.4426262e-09
1.7025092e-09
1.564253e-09
1.5434e-09
1.5569889e-09
1.5654054e-09
1.512575e-09
1.4497175e-09
1.4959109e-09
1.5396717e-09
1.484185e-09
1.4413314e-09
1.4963459e-09
1.6645787e-09
1.7384267e-09
1.7158181e-09
1.6427485e-09
0.0010108212
0.00095122088
0.00088435805
0.00081005999
0.00072848942
0.00064125021
0.00054905643
0.00045238679
0.00035428222
0.00025737526
0.00016549987
8.497244e-05
2.3243892e-05
1.3596347e-06
1.0570194e-07
2.1354277e-08
1.0605993e-08
8.0298862e-09
6.5149601e-09
4.2345447e-09
2.3854029e-09
1.6853359e-09
1.5583243e-09
1.5396943e-09
1.5533663e-09
1.5620605e-09
1.5095848e-09
1.447787e-09
1.4942427e-09
1.5376641e-09
1.4821493e-09
1.439607e-09
1.4948241e-09
1.6623231e-09
1.7350294e-09
1.7123449e-09
1.6397694e-09
0.0010679502
0.0010168308
0.0009568523
0.00088956131
0.00081488973
0.00073299095
0.00064539627
0.00055284942
0.00045584922
0.00035736751
0.00026009828
0.00016779025
8.6711736e-05
2.4189659e-05
1.3954475e-06
1.0278157e-07
2.1899384e-08
1.1491769e-08
8.3252647e-09
6.49539e-09
4.1687192e-09
2.3411868e-09
1.6681342e-09
1.5519493e-09
1.5357577e-09
1.5501695e-09
1.5593042e-09
1.507031e-09
1.4460898e-09
1.4926219e-09
1.5354547e-09
1.4800108e-09
1.4379567e-09
1.4933413e-09
1.6599495e-09
1.731665e-09
1.7090511e-09
1.6369671e-09
0.001115059
0.0010741671
0.0010228911
0.00096275375
0.00089529589
0.00082046584
0.00073841139
0.00065063172
0.00055780956
0.00046047386
0.0003615591
0.00026371246
0.00017069432
8.8767922e-05
2.5303834e-05
1.4693673e-06
1.0147949e-07
2.2974244e-08
1.2583624e-08
8.6914338e-09
6.5681699e-09
4.1180684e-09
2.2968522e-09
1.6516816e-09
1.5462194e-09
1.5327362e-09
1.5475447e-09
1.5567059e-09
1.5043017e-09
1.4444275e-09
1.4910677e-09
1.533329e-09
1.4781602e-09
1.4365533e-09
1.4917327e-09
1.657101e-09
1.7282381e-09
1.7058201e-09
1.6341117e-09
0.0011539488
0.0011223297
0.0010813099
0.0010299339
0.00096965143
0.00090199016
0.00082691977
0.00074459343
0.00065646282
0.00056320691
0.00046533422
0.00036579299
0.00026722311
0.00017338225
9.058714e-05
2.6212582e-05
1.5410583e-06
1.0153949e-07
2.4433959e-08
1.3626904e-08
8.9743596e-09
6.5848109e-09
4.0201762e-09
2.2489049e-09
1.63758e-09
1.5409072e-09
1.5296734e-09
1.5447592e-09
1.5537316e-09
1.5012429e-09
1.442913e-09
1.4896465e-09
1.5314756e-09
1.4767728e-09
1.4352863e-09
1.4896952e-09
1.6534947e-09
1.7235912e-09
1.7008712e-09
0.0011875492
0.0011625977
0.0011304599
0.0010890487
0.0010374176
0.00097677786
0.00090856817
0.00083297397
0.0007502327
0.00066161437
0.0005677549
0.00046930752
0.00036919661
0.00027006406
0.00017557516
9.2049439e-05
2.6869569e-05
1.5934273e-06
1.018848e-07
2.5747778e-08
1.4387965e-08
9.0716073e-09
6.462957e-09
3.9210404e-09
2.2074017e-09
1.6232319e-09
1.5333914e-09
1.5245642e-09
1.5404629e-09
1.5492909e-09
1.497289e-09
1.4402956e-09
1.4865567e-09
1.5283611e-09
1.4749293e-09
1.4329497e-09
1.4856501e-09
1.6475832e-09
1.719413e-09
1.6973307e-09
0.0012141465
0.0011954711
0.0011701418
0.0011375933
0.0010957571
0.0010437121
0.00098268099
0.00091407947
0.00083806697
0.00075489591
0.00066582993
0.00057150449
0.00047257993
0.00037194532
0.00027223542
0.00017713902
9.2960397e-05
2.7133011e-05
1.5970299e-06
9.919895e-08
2.6755573e-08
1.4906976e-08
9.1458206e-09
6.4163594e-09
3.855189e-09
2.1698255e-09
1.6101232e-09
1.5275311e-09
1.5212756e-09
1.5380453e-09
1.5470773e-09
1.4952387e-09
1.4390065e-09
1.4846898e-09
1.5267919e-09
1.4743563e-09
1.4317031e-09
1.4828674e-09
1.6424548e-09
1.7166357e-09
0.0012327506
0.0012218412
0.001202795
0.0011771009
0.0011441833
0.0011019892
0.0010495543
0.00098809453
0.00091904893
0.00084258075
0.00075892551
0.00066936848
0.00057456707
0.00047516629
0.0003740015
0.00027380323
0.00017820765
9.3478726e-05
2.7121825e-05
1.5637442e-06
9.6141107e-08
2.7697684e-08
1.538084e-08
9.218464e-09
6.4100892e-09
3.75585e-09
2.120481e-09
1.5959279e-09
1.523456e-09
1.5202626e-09
1.5373131e-09
1.5463637e-09
1.4948184e-09
1.4385492e-09
1.483673e-09
1.5263619e-09
1.4745238e-09
1.4313869e-09
1.4811585e-09
1.6387602e-09
1.7124862e-09
0.0012422508
0.0012388757
0.001227737
0.0012085358
0.0011827289
0.0011497241
0.0011074227
0.0010548417
0.00099318879
0.00092392303
0.0008472064
0.00076326309
0.00067337474
0.00057820507
0.00047836026
0.00037669082
0.00027590074
0.00017969292
9.4318605e-05
2.7380065e-05
1.5823612e-06
9.6655389e-08
2.9390973e-08
1.6468333e-08
9.5673142e-09
6.4018959e-09
3.6769743e-09
2.0808411e-09
1.5832416e-09
1.5190958e-09
1.5178355e-09
1.5348737e-09
1.544217e-09
1.4940458e-09
1.436888e-09
1.4803275e-09
1.5240748e-09
1.4739302e-09
1.4296974e-09
1.4778162e-09
1.6335496e-09
1.708574e-09
0.0012441954
0.0012483549
0.0012447086
0.0012332928
0.001213945
0.0011880654
0.0011550403
0.0011127467
0.0010601891
0.00099854405
0.00092924264
0.00085243449
0.00076834208
0.00067822278
0.00058272691
0.0004824761
0.00038027978
0.0002787892
0.0001817478
9.5573942e-05
2.7897104e-05
1.6350158e-06
9.8908039e-08
3.2061082e-08
1.8206053e-08
1.024717e-08
6.427944e-09
3.612113e-09
2.0493504e-09
1.5725564e-09
1.5159273e-09
1.5158178e-09
1.5323082e-09
1.5420171e-09
1.493708e-09
1.4352302e-09
1.4765627e-09
1.5215536e-09
1.4733473e-09
1.4281868e-09
1.4747997e-09
1.6286732e-09
0.0012414388
0.0012535224
0.0012572901
0.0012532971
0.0012414627
0.0012218176
0.0011956884
0.0011624569
0.0011199865
0.0010672999
0.0010055598
0.00093615492
0.00085920182
0.00077491402
0.00068451457
0.00058861946
0.00048785136
0.00038498988
0.00028264791
0.00018453171
9.7286163e-05
2.874437e-05
1.7480715e-06
1.0360194e-07
3.4735228e-08
1.986186e-08
1.1019781e-08
6.5800822e-09
3.559387e-09
2.0144919e-09
1.5616818e-09
1.5130213e-09
1.5139362e-09
1.5294987e-09
1.539455e-09
1.4932976e-09
1.4335482e-09
1.4727657e-09
1.5190269e-09
1.4727392e-09
1.4268103e-09
1.4719088e-09
1.623752e-09
0.0012325256
0.0012528209
0.0012648011
0.0012684608
0.0012643752
0.0012524224
0.0012326745
0.0012063976
0.0011729782
0.0011303118
0.0010774387
0.0010154915
0.00094582035
0.000868528
0.00078385189
0.00069298974
0.00059651106
0.00049505228
0.00039132497
0.00028794855
0.00018863058
0.00010013603
3.0538087e-05
2.0209795e-06
1.1194182e-07
3.6582938e-08
2.1019416e-08
1.1759317e-08
6.7410819e-09
3.4994682e-09
1.9753367e-09
1.5501309e-09
1.5099412e-09
1.5119839e-09
1.5265157e-09
1.5366979e-09
1.4925021e-09
1.4319796e-09
1.4693537e-09
1.5166648e-09
1.472115e-09
1.4255427e-09
1.4690491e-09
0.0012178891
0.0012471684
0.0012677192
0.0012799032
0.001283745
0.0012797975
0.0012679442
0.0012481736
0.0012217542
0.0011881062
0.0011451906
0.0010920235
0.001029635
0.00095936929
0.00088141053
0.00079601724
0.0007043245
0.00060689746
0.00050438264
0.00039944013
0.00029469729
0.00019385333
0.00010377985
3.2796895e-05
2.3532091e-06
1.2154729e-07
3.7835139e-08
2.1605358e-08
1.2139003e-08
6.7728215e-09
3.4214978e-09
1.939708e-09
1.5389267e-09
1.5064877e-09
1.5098618e-09
1.5236131e-09
1.5340873e-09
1.4917146e-09
1.4305134e-09
1.4662934e-09
1.5143362e-09
1.4714293e-09
1.4243194e-09
1.4660946e-09
0.0012375696
0.0012672019
0.0012880371
0.0013004246
0.0013044023
0.0013005146
0.0012886061
0.0012686101
0.0012418045
0.0012076294