/*--------------------------------*- C++ -*----------------------------------*\
| =========                 |                                                 |
| \\      /  F ield         | OpenFOAM: The Open Source CFD Toolbox           |
|  \\    /   O peration     | Version:  2506                                  |
|   \\  /    A nd           | Website:  www.openfoam.com                      |
|    \\/     M anipulation  |                                                 |
\*---------------------------------------------------------------------------*/
FoamFile
{
    version     2.0;
    format      ascii;
    arch        "LSB;label=32;scalar=64";
    class       volScalarField;
    location    "0.031";
    object      T;
}
// * * * * * * * * * * * * * * * * * * * * * * * * * * * * * * * * * * * * * //

dimensions      [0 0 0 1 0 0 0];

internalField   nonuniform List<scalar> 
13761
(
242.13047
241.89482
241.64794
241.39015
241.12154
240.8427
240.55418
240.25696
239.9521
239.64096
239.32503
239.00607
238.68586
238.3664
238.04955
237.7373
237.43141
237.13384
236.84602
236.56934
236.30513
236.05415
235.81732
235.59492
235.38736
235.19462
235.01653
234.85292
234.70329
234.56695
234.44324
234.33143
234.23071
234.14011
234.05868
233.98548
233.91959
233.85999
233.80609
233.75687
233.71151
233.6695
233.63022
233.59306
233.55743
233.52291
233.48933
233.45636
233.42373
233.39126
233.35882
233.32625
233.29339
233.2606
233.23144
233.22534
233.33831
234.02036
235.68406
237.18083
238.1444
238.76815
239.17692
239.44172
239.6069
239.70182
239.74676
239.75606
239.74007
239.70637
239.66055
239.60674
239.54803
239.48671
239.42449
239.36263
239.30205
239.2434
239.18716
239.13363
239.08301
239.03543
238.99096
238.9496
238.91137
238.87624
238.84421
238.81525
238.78938
238.76663
238.74706
238.73074
238.71781
238.70842
238.70278
238.70104
238.70335
238.70962
238.71944
238.7316
238.74391
238.75365
238.75945
238.76187
238.7624
242.13533
241.89986
241.65308
241.39532
241.12662
240.84757
240.55866
240.26089
239.95526
239.64312
239.32595
239.00549
238.6835
238.36199
238.04284
237.72803
237.41935
237.11879
236.8278
236.54784
236.28023
236.02579
235.78549
235.55963
235.34864
235.15256
234.97123
234.80449
234.65189
234.51274
234.38639
234.27214
234.16917
234.07654
233.99329
233.91851
233.85129
233.79064
233.73588
233.68605
233.64034
233.5983
233.55931
233.52275
233.48811
233.45497
233.42321
233.39254
233.36279
233.33387
233.30586
233.27894
233.25359
233.23131
233.21807
233.23949
233.40742
234.16028
235.86608
237.40403
238.3975
239.05417
239.50034
239.80646
240.0161
240.15779
240.25096
240.30918
240.34211
240.35669
240.35803
240.34985
240.33494
240.31539
240.29278
240.26829
240.24284
240.21709
240.19156
240.16664
240.14259
240.11963
240.0979
240.0775
240.05849
240.04092
240.02481
240.01016
239.99699
239.98529
239.97504
239.96623
239.95883
239.95282
239.94815
239.94474
239.94246
239.94115
239.94054
239.94024
239.93987
239.93925
239.93861
239.93822
239.93813
241.90489
241.65826
241.40055
241.13181
240.8526
240.56338
240.26512
239.95881
239.64577
239.32745
239.00559
238.68194
238.35849
238.03715
237.71989
237.40852
237.10507
236.81102
236.52783
236.25689
235.99905
235.7553
235.526
235.3116
235.11216
234.92755
234.75766
234.60202
234.46
234.33095
234.21419
234.10892
234.01421
233.92913
233.85275
233.7842
233.72256
233.66704
233.6168
233.5711
233.52938
233.49104
233.45553
233.42233
233.39105
233.36157
233.33359
233.30691
233.28139
233.25696
233.23358
233.2113
233.19097
233.1776
233.19571
233.35528
234.0742
235.7367
237.28843
238.28882
238.94423
239.3828
239.67664
239.87069
239.99461
240.06875
240.10739
240.12071
240.11607
240.09881
240.07283
240.04101
240.00547
239.96779
239.92915
239.8904
239.85218
239.81495
239.77903
239.74464
239.71195
239.68103
239.65196
239.62474
239.5994
239.57591
239.55425
239.53442
239.51639
239.50016
239.4857
239.47302
239.46212
239.45302
239.44571
239.4402
239.43644
239.4343
239.43353
239.43366
239.43408
239.4344
239.43453
239.43453
241.91011
241.66362
241.40599
241.13723
240.85787
240.56836
240.26963
239.96265
239.64873
239.32928
239.00603
238.68072
238.35535
238.0318
237.71209
237.39803
237.09166
236.79451
236.50806
236.23375
235.97246
235.72521
235.4924
235.27451
235.07164
234.88369
234.71058
234.55185
234.4069
234.2751
234.15579
234.0482
233.9514
233.86448
233.78656
233.71675
233.65419
233.59805
233.54752
233.50191
233.46061
233.42308
233.38875
233.35712
233.32781
233.30056
233.27513
233.25127
233.2288
233.20762
233.18769
233.16908
233.15277
233.14406
233.16799
233.3333
234.03031
235.64831
237.23644
238.27777
238.96639
239.43267
239.75056
239.96613
240.1096
240.20167
240.25677
240.2852
240.29437
240.28967
240.27503
240.25337
240.22689
240.19724
240.16566
240.1331
240.10026
240.06769
240.03577
240.00479
239.97496
239.94643
239.91929
239.89361
239.86942
239.84674
239.82555
239.80586
239.78766
239.77092
239.75562
239.74175
239.72929
239.71823
239.70856
239.70026
239.69332
239.6877
239.68338
239.6803
239.67834
239.67727
239.67681
239.67669
241.91546
241.66915
241.41161
241.14285
240.86336
240.57359
240.27442
239.9668
239.65202
239.33148
239.00687
238.67993
238.35266
238.02693
237.70478
237.38804
237.07876
236.7785
236.48879
236.21109
235.94631
235.69553
235.45917
235.23775
235.0314
234.84005
234.66364
234.50175
234.3538
234.21919
234.09727
233.98729
233.88835
233.79957
233.72006
233.64898
233.58546
233.52868
233.47786
233.4323
233.3914
233.35459
233.32132
233.29104
233.26338
233.23803
233.2147
233.19313
233.17308
233.1544
233.13699
233.12087
233.10693
233.10029
233.12542
233.28697
233.94401
235.4899
237.10269
238.18153
238.89442
239.37536
239.70132
239.92068
240.0652
240.15656
240.20984
240.23575
240.24209
240.23441
240.21675
240.1921
240.16269
240.13018
240.09582
240.06057
240.02514
239.99004
239.95566
239.92228
239.89011
239.85928
239.82989
239.80198
239.7756
239.75075
239.72742
239.7056
239.6853
239.66648
239.64912
239.63322
239.61876
239.60576
239.59422
239.58417
239.57563
239.56865
239.5633
239.55957
239.55732
239.55619
239.55573
239.55561
241.92097
241.67484
241.41742
241.14867
240.86908
240.57906
240.27948
239.97126
239.65564
239.33403
239.00809
238.67955
238.35039
238.02252
237.69794
237.37851
237.06633
236.76296
236.46996
236.18885
235.92055
235.6662
235.42623
235.20123
234.99134
234.79651
234.61674
234.45162
234.3006
234.16309
234.03848
233.92604
233.82489
233.73416
233.65299
233.58054
233.51596
233.45844
233.4072
233.36153
233.32082
233.2845
233.25198
233.2227
233.19626
233.17229
233.1505
233.13057
233.11222
233.0953
233.07966
233.06529
233.05304
233.04774
233.07257
233.22548
233.83587
235.30734
236.94614
238.0725
238.81949
239.3248
239.66876
239.90168
240.05675
240.15653
240.21669
240.2482
240.2593
240.25564
240.24135
240.21953
240.19245
240.16186
240.12904
240.09498
240.06044
240.02597
239.99198
239.95877
239.92656
239.89552
239.86576
239.83734
239.81031
239.7847
239.7605
239.73771
239.71633
239.69634
239.67771
239.66044
239.64451
239.62994
239.61674
239.60493
239.59459
239.58582
239.57878
239.57366
239.57045
239.5688
239.56813
239.56797
241.92662
241.6807
241.4234
241.1547
240.87503
240.58478
240.28482
239.97601
239.65959
239.33693
239.00969
238.67958
238.34856
238.01854
237.69155
237.36946
237.05436
236.74788
236.45158
236.16703
235.89519
235.63722
235.3936
235.16496
234.95146
234.7531
234.56989
234.40147
234.24728
234.1068
233.97941
233.8644
233.76094
233.66814
233.58518
233.51122
233.44543
233.38697
233.33509
233.28905
233.24822
233.21203
233.17985
233.15112
233.12536
233.1022
233.08132
233.06235
233.045
233.02908
233.01442
233.00099
232.9895
232.98433
233.00667
233.14584
233.70149
235.08939
236.74959
237.92663
238.70857
239.23707
239.59664
239.84017
240.00248
240.10723
240.17085
240.2049
240.21764
240.21501
240.20137
240.17991
240.15297
240.12233
240.08928
240.05485
240.01984
239.9848
239.95013
239.91614
239.88307
239.85108
239.8203
239.79081
239.76267
239.73589
239.71048
239.68645
239.66379
239.64249
239.62252
239.60389
239.58659
239.57062
239.55603
239.54285
239.53118
239.52117
239.51306
239.50713
239.50344
239.50155
239.50079
239.50061
241.68672
241.42957
241.16092
240.88119
240.59075
240.29042
239.98105
239.66387
239.34019
239.01167
238.68
238.34715
238.01502
237.68563
237.36087
237.04286
236.73325
236.43365
236.14563
235.87021
235.60858
235.36127
235.12893
234.91177
234.7098
234.52308
234.35126
234.19383
234.05027
233.91999
233.80231
233.69639
233.60139
233.51647
233.44082
233.37358
233.31395
233.26113
233.2144
233.17309
233.13661
233.10432
233.07561
233.05
233.02707
233.00647
232.98783
232.97083
232.95525
232.94092
232.92777
232.91641
232.91068
232.92947
233.05256
233.55023
234.8473
236.5228
237.75674
238.57861
239.13414
239.51254
239.76948
239.94154
240.0535
240.12256
240.16079
240.17679
240.17677
240.16522
240.14543
240.11985
240.09027
240.05806
240.02425
239.98961
239.95472
239.92002
239.88586
239.85246
239.82003
239.78868
239.75854
239.72967
239.70209
239.67581
239.65085
239.6272
239.60485
239.5838
239.56402
239.54554
239.52835
239.5125
239.49805
239.48511
239.47388
239.46466
239.45785
239.45357
239.45138
239.45051
239.4503
241.6929
241.43591
241.16734
240.88757
240.59696
240.29629
239.98639
239.66846
239.34379
239.01402
238.68083
238.34617
238.01193
237.68015
237.35274
237.03183
236.71908
236.41615
236.12465
235.84561
235.5803
235.32924
235.09315
234.87225
234.66661
234.47629
234.301
234.14022
233.99347
233.86018
233.73969
233.63118
233.53379
233.44673
233.36916
233.30023
233.23914
233.18507
233.13727
233.09509
233.05788
233.02501
232.99582
232.96981
232.94655
232.92567
232.90678
232.88954
232.87373
232.85916
232.84574
232.83394
232.82707
232.84151
232.9472
233.3855
234.58417
236.26419
237.55939
238.42455
239.009
239.40721
239.67795
239.85976
239.9787
240.05282
240.09478
240.11359
240.1157
240.1058
240.0873
240.06271
240.03389
240.00224
239.9688
239.93437
239.89955
239.86478
239.83041
239.79671
239.76386
239.73202
239.70127
239.6717
239.64335
239.61623
239.59038
239.5658
239.54248
239.52041
239.4996
239.48004
239.46176
239.44482
239.42928
239.41526
239.40301
239.39289
239.38537
239.38063
239.3782
239.37724
239.37701
241.69925
241.44244
241.17396
240.89417
240.60341
240.30242
239.99202
239.67337
239.34774
239.01675
238.68205
238.3456
238.00928
237.67513
237.34506
237.02125
236.70537
236.39909
236.10408
235.82141
235.55235
235.29751
235.0576
234.83291
234.62352
234.42952
234.25066
234.08644
233.93639
233.79997
233.67652
233.56524
233.46529
233.37587
233.29613
233.22524
233.16238
233.10671
233.05748
233.01401
232.97564
232.94171
232.91156
232.88466
232.86057
232.8389
232.81925
232.80127
232.78475
232.76947
232.75533
232.74269
232.73429
232.74405
232.83225
233.21194
234.30614
235.97696
237.33752
238.25033
238.86666
239.28678
239.57289
239.76564
239.89249
239.9724
240.01869
240.04077
240.04543
240.03753
240.02064
239.99734
239.96957
239.93875
239.90595
239.87199
239.83748
239.80288
239.76854
239.73474
239.70168
239.66952
239.63835
239.60828
239.57934
239.55158
239.52502
239.49967
239.47554
239.45263
239.43094
239.41047
239.39126
239.37336
239.35685
239.34188
239.32871
239.31775
239.30955
239.30436
239.30169
239.30064
239.30039
241.70576
241.44915
241.18078
240.90099
240.6101
240.30882
239.99794
239.67859
239.35203
239.01984
238.68367
238.34544
238.00706
237.67056
237.33785
237.01113
236.69211
236.38247
236.08393
235.79758
235.52476
235.26607
235.0223
234.79374
234.58053
234.38277
234.20025
234.03248
233.87901
233.73931
233.61276
233.49854
233.39583
233.30382
233.22167
233.14854
233.08358
233.02598
232.97494
232.92978
232.88983
232.85441
232.82285
232.7946
232.76922
232.74631
232.72546
232.70633
232.68867
232.6723
232.65707
232.64325
232.63305
232.63805
232.70932
233.03263
234.01794
235.66264
237.09082
238.05547
238.70636
239.15013
239.45276
239.65721
239.79244
239.87843
239.92918
239.95461
239.96182
239.95592
239.94061
239.9186
239.89188
239.86191
239.8298
239.79638
239.76226
239.72792
239.69372
239.65994
239.62678
239.59442
239.56295
239.53249
239.50309
239.47478
239.44762
239.42161
239.39677
239.37311
239.35063
239.32935
239.3093
239.29055
239.27319
239.25737
239.24339
239.23171
239.22292
239.21734
239.21446
239.21333
239.21306
241.45604
241.1878
240.90803
240.61703
240.31548
240.00415
239.68413
239.35666
239.0233
238.68567
238.34571
238.00527
237.66643
237.33109
237.00147
236.67929
236.36629
236.06419
235.77414
235.4975
235.23493
234.98723
234.75475
234.53763
234.33604
234.14975
233.97832
233.82131
233.67821
233.5484
233.43106
233.32539
233.23056
233.14575
233.07009
233.00274
232.94286
232.88966
232.84243
232.80051
232.7632
232.72982
232.69982
232.67275
232.6482
232.62577
232.60511
232.58598
232.56818
232.55156
232.53629
232.52412
232.52446
232.5799
232.85027
233.72456
235.32415
236.81998
237.84109
238.52959
238.99902
239.3196
239.53678
239.68113
239.77373
239.82933
239.85836
239.86831
239.86453
239.85092
239.83028
239.8047
239.77569
239.74438
239.71162
239.67803
239.6441
239.6102
239.57659
239.5435
239.51109
239.47949
239.44879
239.41907
239.39037
239.36274
239.3362
239.31077
239.28648
239.26332
239.24132
239.22054
239.20102
239.18289
239.1663
239.15158
239.13923
239.12989
239.12392
239.12085
239.11964
239.11936
241.46311
241.19502
240.91529
240.6242
240.32241
240.01064
239.68998
239.36163
239.02713
238.68807
238.34638
238.00392
237.66275
237.32478
236.99226
236.66693
236.35054
236.04487
235.75108
235.47059
235.20408
234.9524
234.71592
234.49483
234.28931
234.09917
233.92397
233.76331
233.61666
233.48343
233.36281
233.25398
233.15611
233.06839
232.98993
232.91989
232.85743
232.80173
232.75209
232.70784
232.66827
232.63271
232.6006
232.57148
232.54495
232.52061
232.4981
232.4772
232.45769
232.43942
232.42248
232.40821
232.40411
232.44511
232.66679
233.43044
234.96475
236.52492
237.60737
238.33657
238.83369
239.17362
239.40452
239.55871
239.65839
239.71914
239.75198
239.76477
239.76317
239.75127
239.73202
239.70759
239.67956
239.64909
239.61705
239.58408
239.55066
239.51716
239.48386
239.45098
239.41867
239.38708
239.3563
239.3264
239.29744
239.26947
239.24253
239.21664
239.19182
239.1681
239.14549
239.12406
239.10388
239.08505
239.06778
239.05238
239.0394
239.02955
239.02323
239.01996
239.01867
239.01837
241.47036
241.20243
240.92277
240.63161
240.3296
240.01742
239.69615
239.36694
239.03131
238.69085
238.34746
238.00299
237.65951
237.31893
236.9835
236.65501
236.33522
236.02596
235.7284
235.44402
235.17352
234.9178
234.67727
234.45213
234.24259
234.0485
233.86944
233.70499
233.55467
233.41787
233.29379
233.18161
233.0805
232.98963
232.90813
232.83514
232.7698
232.71131
232.65894
232.61203
232.56989
232.53183
232.49729
232.46581
232.437
232.41046
232.38584
232.3629
232.34145
232.3213
232.3025
232.28603
232.27776
232.30585
232.48365
233.13959
234.58872
236.20576
237.35473
238.12795
238.65489
239.01567
239.26141
239.42622
239.53357
239.59987
239.63675
239.65254
239.6532
239.64306
239.62521
239.60194
239.5749
239.5453
239.51402
239.48173
239.4489
239.41591
239.38304
239.3505
239.31845
239.28701
239.2563
239.22639
239.19733
239.16917
239.14197
239.11576
239.09055
239.06637
239.04327
239.0213
239.00055
238.98113
238.96324
238.94725
238.93371
238.92337
238.91672
238.91326
238.9119
238.91159
241.4778
241.21005
240.93047
240.63926
240.33705
240.02449
239.70262
239.37258
239.03586
238.69402
238.34895
238.00249
237.65671
237.31352
236.9752
236.64354
236.32034
236.00745
235.7061
235.41778
235.14325
234.88344
234.63878
234.40951
234.19589
233.99775
233.81471
233.64638
233.49225
233.35174
233.22404
233.10834
233.0038
232.90958
232.8248
232.74861
232.68014
232.61859
232.56323
232.51339
232.4684
232.42755
232.3903
232.3562
232.32485
232.29587
232.2689
232.24369
232.22008
232.19786
232.17703
232.15829
232.14613
232.16288
232.30186
232.85537
234.2011
235.86262
237.08347
237.90411
238.46303
238.84623
239.10795
239.28424
239.39986
239.47213
239.51333
239.53228
239.53528
239.52691
239.51045
239.48831
239.46223
239.43346
239.40294
239.37134
239.33915
239.30674
239.27439
239.2423
239.21063
239.1795
239.14901
239.11923
239.09023
239.06205
239.03474
239.00835
238.98289
238.9584
238.93492
238.91253
238.89131
238.87139
238.85299
238.83646
238.82241
238.81164
238.80467
238.80104
238.79961
238.79928
241.48543
241.21788
240.93839
240.64715
240.34476
240.03185
239.70941
239.37856
239.04077
238.69758
238.35084
238.00242
237.65435
237.30856
236.96734
236.63251
236.30589
235.98936
235.68418
235.39189
235.11328
234.84931
234.60047
234.367
234.14919
233.94693
233.75982
233.58747
233.42942
233.28506
233.15361
233.03423
232.92608
232.82832
232.74008
232.66048
232.58867
232.52383
232.46525
232.41225
232.36416
232.3203
232.28012
232.24317
232.20906
232.17743
232.14789
232.12024
232.09427
232.06981
232.0468
232.02572
232.00994
232.01685
232.12211
232.58047
233.80767
235.49609
236.79393
237.66551
238.25866
238.66591
238.94483
239.13352
239.25808
239.3368
239.38266
239.40495
239.4104
239.40382
239.38874
239.36768
239.34249
239.31451
239.2847
239.25376
239.22221
239.19041
239.15863
239.12707
239.09589
239.06519
239.03506
239.00558
238.97679
238.94875
238.92151
238.89509
238.86954
238.84489
238.82119
238.79852
238.77696
238.75665
238.73783
238.72087
238.7064
238.69524
238.68798
238.6842
238.6827
238.68236
241.2259
240.94653
240.65529
240.35274
240.03949
239.71651
239.38488
239.04604
238.70151
238.35314
238.00277
237.65242
237.30405
236.95993
236.62193
236.29186
235.97167
235.66263
235.36633
235.08359
234.81541
234.56232
234.32458
234.10252
233.89603
233.70475
233.5283
233.36621
233.21789
233.08255
232.95934
232.84745
232.746
232.65413
232.57095
232.49562
232.42732
232.36532
232.30898
232.25762
232.21056
232.16726
232.12727
232.09023
232.05576
232.0235
231.99323
231.96476
231.93791
231.91258
231.88911
231.86994
231.86839
231.94485
232.31686
233.41466
235.1075
236.48652
237.41265
238.04235
238.47531
238.77271
238.97477
239.109
239.1947
239.24556
239.27145
239.27946
239.27473
239.261
239.24096
239.21659
239.18929
239.16011
239.12976
239.09879
239.06757
239.03637
239.00538
238.97474
238.94457
238.91492
238.88587
238.85746
238.82973
238.80271
238.77646
238.75099
238.72634
238.70258
238.67976
238.65801
238.63745
238.61833
238.60104
238.58622
238.57475
238.56725
238.56332
238.56178
238.56142
241.23414
240.9549
240.66367
240.36098
240.04742
239.72391
239.39153
239.05167
238.70583
238.35585
238.00353
237.65093
237.29998
236.95297
236.61178
236.27826
235.95439
235.64146
235.34111
235.05419
234.78175
234.52434
234.28226
234.05586
233.84507
233.64953
233.46887
233.30264
233.15025
233.01091
232.88377
232.768
232.66274
232.56712
232.48024
232.40126
232.32936
232.26382
232.20399
232.14922
232.09882
232.05227
232.00911
231.969
231.93156
231.89645
231.86343
231.83233
231.80296
231.77522
231.74929
231.72693
231.71818
231.77044
232.06585
233.02838
234.6993
236.16174
237.14615
237.81479
238.27519
238.59239
238.80882
238.9535
239.04675
239.10305
239.1328
239.14354
239.14073
239.12835
239.10928
239.08563
239.05891
239.03022
239.00035
238.96986
238.93913
238.90845
238.87801
238.84794
238.81833
238.78925
238.76074
238.73283
238.70556
238.67895
238.65303
238.62782
238.60337
238.57972
238.55694
238.53515
238.51449
238.4952
238.47769
238.4626
238.45086
238.44313
238.43906
238.43745
238.43708
241.24258
240.96349
240.67229
240.36949
240.05563
239.73163
239.39851
239.05766
238.71053
238.35895
238.00472
237.64987
237.29634
236.94645
236.60207
236.26509
235.93751
235.62065
235.31622
235.02507
234.74831
234.48652
234.24003
234.00923
233.79405
233.59416
233.40921
233.23875
233.08219
232.93875
232.80759
232.68786
232.5787
232.47923
232.38857
232.30586
232.23028
232.16112
232.09773
232.03946
231.98565
231.93575
231.88935
231.84608
231.80559
231.76752
231.73167
231.69786
231.66589
231.63565
231.60722
231.58185
231.56695
231.59918
231.82816
232.65485
234.27538
235.82023
236.8668
237.57687
238.06648
238.40481
238.63667
238.7926
238.89403
238.9562
238.99014
239.00382
239.00305
238.99205
238.97392
238.9509
238.92464
238.8963
238.86675
238.83657
238.8062
238.77592
238.74594
238.71638
238.68732
238.65882
238.63091
238.6036
238.57691
238.55086
238.52545
238.5007
238.47664
238.45331
238.43078
238.40915
238.38859
238.36931
238.35174
238.33655
238.32464
238.31677
238.31261
238.31097
238.31059
241.25123
240.9723
240.68116
240.37826
240.06414
239.73966
239.40583
239.064
238.71561
238.36245
238.00632
237.64924
237.29315
236.94036
236.59279
236.25233
235.92102
235.60021
235.29165
234.99623
234.7151
234.44886
234.1979
233.96261
233.74297
233.53866
233.34933
233.17455
233.01375
232.86614
232.73087
232.60711
232.494
232.39063
232.29615
232.20967
232.1304
232.0576
231.99063
231.92886
231.87161
231.81836
231.76867
231.72222
231.67864
231.6376
231.59887
231.56229
231.52767
231.49489
231.46396
231.43573
231.4156
231.43149
231.60412
232.29943
233.84132
235.46289
236.57574
237.32979
237.85037
238.21119
238.45953
238.62754
238.73778
238.80633
238.84482
238.86169
238.8631
238.85357
238.83637
238.81393
238.78801
238.75989
238.73048
238.70044
238.67023
238.64018
238.61049
238.5813
238.5527
238.52472
238.49739
238.47071
238.44467
238.41928
238.39453
238.37041
238.34693
238.32413
238.30207
238.28083
238.26057
238.24152
238.22408
238.20892
238.19698
238.18902
238.18479
238.18311
238.18272
240.98135
240.69027
240.3873
240.07293
239.748
239.41347
239.0707
238.72106
238.36635
238.00834
237.64904
237.29039
236.93471
236.58394
236.23999
235.90492
235.58014
235.26741
234.96767
234.6821
234.41137
234.15586
233.91601
233.69183
233.48302
233.28925
233.11008
232.94497
232.79312
232.6537
232.52587
232.40876
232.30149
232.20318
232.11296
232.03002
231.95362
231.88313
231.81791
231.7573
231.70075
231.64784
231.59825
231.55163
231.50762
231.46603
231.4267
231.38944
231.35411
231.32071
231.28976
231.26518
231.26793
231.39381
231.96653
233.4043
235.09111
236.27449
237.07512
237.62842
238.01307
238.27894
238.45987
238.57957
238.655
238.69842
238.71877
238.72258
238.71462
238.69841
238.67654
238.65089
238.62286
238.59343
238.56334
238.53309
238.50303
238.47342
238.4444
238.41606
238.38845
238.36159
238.33546
238.31006
238.28535
238.26133
238.23796
238.21524
238.19317
238.1718
238.1512
238.13151
238.11294
238.09588
238.081
238.06921
238.06132
238.05711
238.05543
238.05504
240.99062
240.69963
240.39661
240.082
239.75664
239.42146
239.07775
238.72689
238.37064
238.01077
237.64926
237.28806
236.92949
236.57552
236.22805
235.88921
235.56041
235.24347
234.93937
234.64932
234.37402
234.1139
233.86943
233.64064
233.42726
233.22896
233.04534
232.87586
232.71973
232.57612
232.4442
232.3231
232.21194
232.10984
232.01593
231.9294
231.8495
231.77561
231.70708
231.64325
231.58356
231.52759
231.47502
231.42549
231.37866
231.33432
231.29233
231.2525
231.21469
231.17887
231.14538
231.117
231.10931
231.19726
231.65952
232.9729
234.70714
235.96516
236.81494
237.40267
237.81245
238.0969
238.29156
238.42137
238.50418
238.55294
238.57707
238.58349
238.57728
238.56216
238.5409
238.51551
238.4875
238.45794
238.42763
238.39714
238.36686
238.33707
238.30795
238.27961
238.25212
238.2255
238.19974
238.17482
238.15072
238.12738
238.10479
238.08289
238.06169
238.04118
238.02144
238.00255
237.9847
237.96828
237.95387
237.9424
237.93466
237.9305
237.92883
237.92844
241.00013
240.70924
240.40618
240.09137
239.7656
239.42977
239.08515
238.73309
238.37533
238.0136
237.6499
237.28615
236.9247
236.5675
236.21651
235.87388
235.54103
235.21984
234.91132
234.61673
234.33681
234.07201
233.82285
233.58938
233.37135
233.16848
232.98035
232.80644
232.646
232.49818
232.36216
232.23708
232.12207
232.01624
231.91873
231.82872
231.74547
231.66835
231.59671
231.52989
231.46731
231.40855
231.35327
231.30113
231.25175
231.20493
231.16053
231.11834
231.07824
231.04018
231.00435
230.97275
230.95688
231.01476
231.38085
232.55665
234.31466
235.65065
236.552
237.1758
237.61198
237.91599
238.12517
238.26571
238.3564
238.41088
238.43911
238.4484
238.44412
238.43023
238.40967
238.3846
238.35661
238.32688
238.29626
238.26537
238.23468
238.20448
238.175
238.14638
238.1187
238.09201
238.06631
238.0416
238.01784
237.99501
237.97304
237.95191
237.93157
237.91202
237.89328
237.87541
237.85857
237.84307
237.82946
237.81858
237.8112
237.80721
237.8056
237.80522
240.7191
240.41602
240.10102
239.77486
239.4384
239.0929
238.73966
238.38039
238.01683
237.65094
237.28465
236.92031
236.55989
236.20536
235.8589
235.52197
235.19649
234.88351
234.58432
234.29971
234.03017
233.77624
233.53803
233.3153
233.10777
232.91508
232.73671
232.57192
232.41987
232.27976
232.15073
232.03192
231.92244
231.82144
231.72809
231.64166
231.56151
231.48701
231.41746
231.35231
231.2911
231.2335
231.17914
231.12766
231.07881
231.03244
230.98835
230.94639
230.90649
230.86874
230.83456
230.81247
230.84714
231.13239
232.16558
233.91943
235.33492
236.29002
236.95137
237.41511
237.73961
237.96404
238.11588
238.21491
238.27549
238.30812
238.32052
238.31838
238.3059
238.28618
238.26152
238.23363
238.20375
238.17281
238.14149
238.11027
238.07952
238.04948
238.02032
237.99216
237.96506
237.93906
237.91417
237.89037
237.86765
237.84598
237.8253
237.8056
237.78685
237.76906
237.75226
237.73656
237.7222
237.70965
237.69961
237.69277
237.68904
237.68753
237.68717
240.7292
240.42613
240.11095
239.78442
239.44736
239.10098
238.74658
238.38583
238.02044
237.65237
237.28354
236.91631
236.55266
236.19456
235.84426
235.50321
235.1734
234.8559
234.55205
234.26269
233.98834
233.72959
233.48656
233.25906
233.04683
232.84952
232.66666
232.49748
232.3412
232.19701
232.06407
231.9415
231.82846
231.72407
231.62753
231.53809
231.45512
231.37798
231.30599
231.23858
231.17529
231.11577
231.05965
231.00656
230.95624
230.90852
230.86317
230.82004
230.77901
230.74009
230.70429
230.67793
230.69551
230.9155
231.80952
233.52988
235.02352
236.03417
236.73434
237.2266
237.57234
237.81261
237.97625
238.08401
238.151
238.1883
238.20405
238.20426
238.19336
238.17466
238.15057
238.12291
238.09302
238.06186
238.03017
237.99847
237.96716
237.93651
237.90671
237.8779
237.85017
237.82357
237.79813
237.77388
237.75081
237.72891
237.70817
237.68857
237.67012
237.65284
237.63678
237.62201
237.60876
237.59738
237.58844
237.58244
237.5792
237.57789
237.57757
240.73956
240.43649
240.12117
239.79428
239.45663
239.1094
238.75385
238.39163
238.02443
237.65419
237.28283
236.9127
236.5458
236.18413
235.82994
235.48475
235.15056
234.82849
234.51993
234.22576
233.94653
233.68288
233.43497
233.20264
232.98565
232.78368
232.59627
232.4227
232.26218
232.11391
231.97708
231.85083
231.73429
231.62662
231.52701
231.43472
231.34911
231.26955
231.19536
231.12595
231.06088
230.99977
230.94228
230.888
230.83667
230.78813
230.74213
230.69851
230.65712
230.61793
230.58164
230.55305
230.55912
230.7293
231.49566
233.15558
234.72255
235.79051
236.53084
237.0526
237.42032
237.67699
237.85283
237.96961
238.04323
238.08534
238.10453
238.10715
238.0979
238.08024
238.05677
238.0294
237.99953
237.96821
237.93621
237.9041
237.87228
237.84106
237.81064
237.78117
237.75276
237.72545
237.6993
237.67434
237.65058
237.62802
237.60666
237.58651
237.5676
237.54998
237.5337
237.51887
237.50572
237.49458
237.48597
237.48028
237.47728
237.47608
237.4758
240.75017
240.44714
240.13168
239.80446
239.46624
239.11818
238.7615
238.39783
238.02883
237.65643
237.28254
236.90951
236.53937
236.1741
235.81601
235.46663
235.12802
234.80133
234.48801
234.18897
233.9048
233.63619
233.38334
233.14611
232.9243
232.71762
232.52564
232.34764
232.18287
232.03054
231.88985
231.75994
231.63998
231.52911
231.42654
231.33151
231.2434
231.16158
231.08536
231.01416
230.94751
230.88504
230.8264
230.77117
230.71909
230.66999
230.62363
230.57982
230.53843
230.4994
230.46324
230.43377
230.43277
230.5674
231.2241
232.80207
234.4332
235.55987
236.3419
236.8946
237.28574
237.56025
237.74968
237.87684
237.95836
238.00649
238.03027
238.03637
238.02976
238.01411
237.99214
237.96588
237.93683
237.90609
237.87449
237.84263
237.81094
237.77974
237.74926
237.71966
237.69105
237.66348
237.63702
237.61168
237.58749
237.56445
237.54256
237.52183
237.50228
237.48396
237.46694
237.45134
237.43738
237.42546
237.41614
237.40995
237.40667
237.40536
237.40505
240.45811
240.14253
239.81501
239.47625
239.12738
238.7696
238.4045
238.03372
237.65918
237.28277
236.90685
236.53345
236.16458
235.80257
235.44898
235.10592
234.77457
234.45643
234.15245
233.86329
233.58965
233.33179
233.0896
232.86293
232.65149
232.45488
232.27244
232.1034
231.947
231.80246
231.66893
231.54558
231.43157
231.32609
231.22842
231.1379
231.05392
230.97578
230.90288
230.83476
230.77103
230.71134
230.65525
230.60248
230.55285
230.50611
230.46206
230.42056
230.3815
230.34525
230.31486
230.30811
230.41423
230.97369
232.45193
234.13513
235.32161
236.14616
236.73033
237.14531
237.43801
237.64135
237.77914
237.86879
237.92314
237.95168
237.96143
237.95759
237.94406
237.92369
237.89864
237.87048
237.8404
237.80926
237.7777
237.7462
237.71509
237.68461
237.65495
237.62621
237.59848
237.5718
237.54621
237.52172
237.49835
237.47608
237.45494
237.43494
237.41613
237.39857
237.38239
237.36782
237.35527
237.34538
237.33874
237.33518
237.33376
237.33342
240.46943
240.15377
239.82596
239.48669
239.13705
238.77819
238.41169
238.03916
237.6625
237.28359
236.90479
236.52814
236.15565
235.78971
235.43188
235.08433
234.74828
234.42526
234.1163
233.82208
233.54335
233.28042
233.03321
232.8016
232.58535
232.38408
232.19714
232.02381
231.86334
231.71494
231.5778
231.45108
231.33395
231.22562
231.12533
231.03245
230.94635
230.86632
230.79177
230.7222
230.65723
230.59648
230.53951
230.486
230.43579
230.38857
230.34415
230.30236
230.26305
230.22647
230.19496
230.18279
230.26331
230.73187
232.09459
233.81656
235.0659
235.93494
236.55169
236.99116
237.30235
237.51964
237.66789
237.76534
237.82547
237.85824
237.87105
237.86939
237.85736
237.83799
237.81355
237.78571
237.75573
237.72452
237.69277
237.66099
237.62953
237.59866
237.56856
237.53936
237.51114
237.48397
237.45788
237.4329
237.40902
237.38626
237.36461
237.34413
237.32483
237.30681
237.29019
237.27521
237.26231
237.25214
237.24531
237.24167
237.24021