/*--------------------------------*- C++ -*----------------------------------*\
| =========                 |                                                 |
| \\      /  F ield         | OpenFOAM: The Open Source CFD Toolbox           |
|  \\    /   O peration     | Version:  2506                                  |
|   \\  /    A nd           | Website:  www.openfoam.com                      |
|    \\/     M anipulation  |                                                 |
\*---------------------------------------------------------------------------*/
FoamFile
{
    version     2.0;
    format      ascii;
    arch        "LSB;label=32;scalar=64";
    class       volScalarField;
    location    "2e-05";
    object      T;
}
// * * * * * * * * * * * * * * * * * * * * * * * * * * * * * * * * * * * * * //

dimensions      [0 0 0 1 0 0 0];

internalField   nonuniform List<scalar> 
13761
(
245.48001
245.48001
245.48
245.48001
245.48001
245.48
245.48001
245.48
245.48001
245.48
245.48001
245.48
245.48001
245.48
245.48
245.48
245.48
245.48001
245.48
245.48
245.48001
245.48
245.48
245.48001
245.48
245.48
245.48001
245.48
245.48
245.48001
245.48
245.48
245.48001
245.48
245.48
245.48
245.48
245.48
245.48
245.48
245.48001
245.48
245.48
245.48
245.48001
245.48
245.48
245.48
245.48001
245.48
245.48
245.48
245.48001
245.48
245.48
245.48
245.48
245.48
245.48
245.48
245.48
245.48001
245.48
245.48
245.48
245.48
245.48001
245.48
245.48
245.48
245.48
245.48001
245.48
245.48
245.48
245.48
245.48001
245.48
245.48
245.48
245.48
245.48001
245.48
245.48
245.48
245.48
245.48
245.48001
245.48
245.48
245.48
245.48
245.48
245.48
245.48
245.48
245.48
245.48
245.48
245.48001
245.48
245.48
245.48
245.48
245.48
245.48001
245.48
245.48
245.48
245.48
245.48
245.48001
245.48
245.48
245.48
245.48
245.48
245.48001
245.48
245.48
245.48
245.48
245.48
245.48
245.48001
245.48
245.48
245.48
245.48
245.48
245.48
245.48001
245.48
245.48
245.48
245.48
245.48
245.48
245.48
245.48
245.48
245.48
245.48
245.48
245.48
245.48001
245.48
245.48
245.48
245.48
245.48
245.48
245.48001
245.48
245.48
245.48
245.48
245.48
245.48
245.48
245.48001
245.48
245.48
245.48
245.48
245.48
245.48
245.48
245.48001
245.48
245.48
245.48
245.48
245.48
245.48
245.48
245.48001
245.48
245.48
245.48
245.48
245.48
245.48
245.48
245.48001
245.48
245.48
245.48
245.48
245.48
245.48
245.48
245.48
245.48
245.48
245.48
245.48
245.48
245.48
245.48
245.48001
245.48
245.48
245.48
245.48
245.48
245.48
245.48
245.48
245.48001
245.48
245.48
245.48
245.48
245.48
245.48
245.48
245.48
245.48
245.48
245.48
245.48
245.48
245.48
245.48
245.48
245.48
245.48
245.48
245.48
245.48
245.48
245.48
245.48
245.48
245.48
245.48
245.48
245.48
245.48
245.48
245.48
245.48
245.48
245.48
245.48
245.48
245.48
245.48
245.48
245.48
245.48
245.48
245.48
245.48
245.48
245.48
245.48
245.48
245.48
245.48
245.48
245.48
245.48
245.48
245.48
245.48
245.48
245.48
245.48
245.48
245.48
245.48
245.48
245.48
245.48
245.48
245.48
245.48
245.48
245.48
245.48
245.48
245.48
245.48
245.48
245.48
245.48
245.48
245.48
245.48
245.48
245.48
245.48
245.48
245.48
245.48
245.48
245.48
245.48
245.48
245.48
245.48
245.48
245.48
245.48
245.48
245.48
245.48
245.48
245.48
245.48
245.48
245.48
245.48
245.48
245.48
245.48
245.48
245.48
245.48
245.48
245.48
245.48
245.48
245.48
245.48
245.48
245.48
245.48
245.48
245.48
245.48
245.48
245.48
245.48
245.48
245.48
245.48
245.48
245.48
245.48
245.48
245.48
245.48
245.48
245.48
245.48
245.48
245.48
245.48
245.48
245.48
245.48
245.48
245.48
245.48
245.48
245.48
245.48
245.48
245.48
245.48
245.48
245.48
245.48
245.48
245.48
245.48
245.48
245.48
245.48
245.48
245.48
245.48
245.48
245.48
245.48
245.48
245.48
245.48
245.48
245.48
245.48
245.48
245.48
245.48
245.48
245.48
245.48
245.48
245.48
245.48
245.48
245.48
245.48
245.48
245.48
245.48
245.48
245.48
245.48
245.48
245.48
245.48
245.48
245.48
245.48
245.48
245.48
245.48
245.48
245.48
245.48
245.48
245.48
245.48
245.48
245.48
245.48
245.48
245.48
245.48
245.48
245.48
245.48
245.48
245.48
245.48
245.48
245.48
245.48
245.48
245.48
245.48
245.48
245.48
245.48
245.48
245.48
245.48
245.48
245.48
245.48
245.48
245.48
245.48
245.48
245.48
245.48
245.48
245.48
245.48
245.48
245.48
245.48
245.48
245.48
245.48
245.48
245.48
245.48
245.48
245.48
245.48
245.48
245.48
245.48
245.48
245.48
245.48
245.48
245.48
245.48
245.48
245.48
245.48
245.48
245.48
245.48
245.48
245.48
245.48
245.48
245.48
245.48
245.48
245.48
245.48
245.48
245.48
245.48
245.48
245.48
245.48
245.48
245.48
245.48
245.48
245.48
245.48
245.48
245.48
245.48
245.48
245.48
245.48
245.48
245.48
245.48
245.48
245.48
245.48
245.48
245.48
245.48
245.48
245.48
245.48
245.48
245.48
245.48
245.48
245.48
245.48
245.48
245.48
245.48
245.48
245.48
245.48
245.48
245.48
245.48
245.48
245.48
245.48
245.48
245.48
245.48
245.48
245.48
245.48
245.48
245.48
245.48
245.48
245.48
245.48
245.48
245.48
245.48
245.48
245.48
245.48
245.48
245.48
245.48
245.48
245.48
245.48
245.48
245.48
245.48
245.48
245.48
245.48
245.48
245.48
245.48
245.48
245.48
245.48
245.48
245.48
245.48
245.48
245.48
245.48
245.48
245.48
245.48
245.48
245.48
245.48
245.48
245.48
245.48
245.48
245.48
245.48
245.48
245.48
245.48
245.48
245.48
245.48
245.48
245.48
245.48
245.48
245.48
245.48
245.48
245.48
245.48
245.48
245.48
245.48
245.48
245.48
245.48
245.48
245.48
245.48
245.48
245.48
245.48
245.48
245.48
245.48
245.48
245.48
245.48
245.48
245.48
245.48
245.48
245.48
245.48
245.48
245.48
245.48
245.48
245.48
245.48
245.48
245.48
245.48
245.48
245.48
245.48
245.48
245.48
245.48
245.48
245.48
245.48
245.48
245.48
245.48
245.48
245.48
245.48
245.48
245.48
245.48
245.48
245.48
245.48
245.48
245.48
245.48
245.48
245.48
245.48
245.48
245.48
245.48
245.48
245.48
245.48
245.48
245.48
245.48
245.48
245.48
245.48
245.48
245.48
245.48
245.48
245.48
245.48
245.48
245.48
245.48
245.48
245.48
245.48
245.48
245.48
245.48
245.48
245.48
245.48
245.48
245.48
245.48
245.48
245.48
245.48
245.48
245.48
245.48
245.48
245.48
245.48
245.48
245.48
245.48
245.48
245.48
245.48
245.48
245.48
245.48
245.48
245.48
245.48
245.48
245.48
245.48
245.48
245.48
245.48
245.48
245.48
245.48
245.48
245.48
245.48
245.48
245.48
245.48
245.48
245.48
245.48
245.48
245.48
245.48
245.48
245.48
245.48
245.48
245.48
245.48
245.48
245.48
245.48
245.48
245.48
245.48
245.48
245.48
245.48
245.48
245.48
245.48
245.48
245.48
245.48
245.48
245.48
245.48
245.48
245.48
245.48
245.48
245.48
245.48
245.48
245.48
245.48
245.48
245.48
245.48
245.48
245.48
245.48
245.48
245.48
245.48
245.48
245.48
245.48
245.48
245.48
245.48
245.48
245.48
245.48
245.48
245.48
245.48
245.48
245.48
245.48
245.48
245.48
245.48
245.48
245.48
245.48
245.48
245.48
245.48
245.48
245.48
245.48
245.48
245.48
245.48
245.48
245.48
245.48
245.48
245.48
245.48
245.48
245.48
245.48
245.48
245.48
245.48
245.48
245.48
245.48
245.48
245.48
245.48
245.48
245.48
245.48
245.48
245.48
245.48
245.48
245.48
245.48
245.48
245.48
245.48
245.48
245.48
245.48
245.48
245.48
245.48
245.48
245.48
245.48
245.48
245.48
245.48
245.48
245.48
245.48
245.48
245.48
245.48
245.48
245.48
245.48
245.48
245.48
245.48
245.48
245.48
245.48
245.48
245.48
245.48
245.48
245.48
245.48
245.48
245.48
245.48
245.48
245.48
245.48
245.48
245.48
245.48
245.48
245.48
245.48
245.48
245.48
245.48
245.48
245.48
245.48
245.48
245.48
245.48
245.48
245.48
245.48
245.48
245.48
245.48
245.48
245.48
245.48
245.48
245.48
245.48
245.48
245.48
245.48
245.48
245.48
245.48
245.48
245.48
245.48
245.48
245.48
245.48
245.48
245.48
245.48
245.48
245.48
245.48
245.48
245.48
245.48
245.48
245.48
245.48
245.48
245.48
245.48
245.48
245.48
245.48
245.48
245.48
245.48
245.48
245.48
245.48
245.48
245.48
245.48
245.48
245.48
245.48
245.48
245.48
245.48
245.48
245.48
245.48
245.48
245.48
245.48
245.48
245.48
245.48
245.48
245.48
245.48
245.48
245.48
245.48
245.48
245.48
245.48
245.48
245.48
245.48
245.48
245.48
245.48
245.48
245.48
245.48
245.48
245.48
245.48
245.48
245.48
245.48
245.48
245.48
245.48
245.48
245.48
245.48
245.48
245.48
245.48
245.48
245.48
245.48
245.48
245.48
245.48
245.48
245.48
245.48
245.48
245.48
245.48
245.48
245.48
245.48
245.48
245.48
245.48
245.48
245.48
245.48
245.48
245.48
245.48
245.48
245.48
245.48
245.48
245.48
245.48
245.48
245.48
245.48
245.48
245.48
245.48
245.48
245.48
245.48
245.48
245.48
245.48
245.48
245.48
245.48
245.48
245.48
245.48
245.48
245.48
245.48
245.48
245.48
245.48
245.48
245.48
245.48
245.48
245.48
245.48
245.48
245.48
245.48
245.48
245.48
245.48
245.48
245.48
245.48
245.48
245.48
245.48
245.48
245.48
245.48
245.48
245.48
245.48
245.48
245.48
245.48
245.48
245.48
245.48
245.48
245.48
245.48
245.48
245.48
245.48
245.48
245.48
245.48
245.48
245.48
245.48
245.48
245.48
245.48
245.48
245.48
245.48
245.48
245.48
245.48
245.48
245.48
245.48
245.48
245.48
245.48
245.48
245.48
245.48
245.48
245.48
245.48
245.48
245.48
245.48
245.48
245.48
245.48
245.48
245.48
245.48
245.48
245.48
245.48
245.48
245.48
245.48
245.48
245.48
245.48
245.48
245.48
245.48
245.48
245.48
245.48
245.48
245.48
245.48
245.48
245.48
245.48
245.48
245.48
245.48
245.48
245.48
245.48
245.48
245.48
245.48
245.48
245.48
245.48
245.48
245.48
245.48
245.48
245.48
245.48
245.48
245.48
245.48
245.48
245.48
245.48
245.48
245.48
245.48
245.48
245.48
245.48
245.48
245.48
245.48
245.48
245.48
245.48
245.48
245.48
245.48
245.48
245.48
245.48
245.48
245.48
245.48
245.48
245.48
245.48
245.48
245.48
245.48
245.48
245.48
245.48
245.48
245.48
245.48
245.48
245.48
245.48
245.48
245.48
245.48
245.48
245.48
245.48
245.48
245.48
245.48
245.48
245.48
245.48
245.48
245.48
245.48
245.48
245.48
245.48
245.48
245.48
245.48
245.48
245.48
245.48
245.48
245.48
245.48
245.48
245.48
245.48
245.48
245.48
245.48
245.48
245.48
245.48
245.48
245.48
245.48
245.48
245.48
245.48
245.48
245.48
245.48
245.48
245.48
245.48
245.48
245.48
245.48
245.48
245.48
245.48
245.48
245.48
245.48
245.48
245.48
245.48
245.48
245.48
245.48
245.48
245.48
245.48
245.48
245.48
245.48
245.48
245.48
245.48
245.48
245.48
245.48
245.48
245.48
245.48
245.48
245.48
245.48
245.48
245.48
245.48
245.48
245.48
245.48
245.48
245.48
245.48
245.48
245.48
245.48
245.48
245.48
245.48
245.48
245.48
245.48
245.48
245.48
245.48
245.48
245.48
245.48
245.48
245.48
245.48
245.48
245.48
245.48
245.48
245.48
245.48
245.48
245.48
245.48
245.48
245.48
245.48
245.48
245.48
245.48
245.48
245.48
245.48
245.48
245.48
245.48
245.48
245.48
245.48
245.48
245.48
245.48
245.48
245.48
245.48
245.48
245.48
245.48
245.48
245.48
245.48
245.48
245.48
245.48
245.48
245.48
245.48
245.48
245.48
245.48
245.48
245.48
245.48
245.48
245.48
245.48
245.48
245.48
245.48
245.48
245.48
245.48
245.48
245.48
245.48
245.48
245.48
245.48
245.48
245.48
245.48
245.48
245.48
245.48
245.48
245.48
245.48
245.48
245.48
245.48
245.48
245.48
245.48
245.48
245.48
245.48
245.48
245.48
245.48
245.48
245.48
245.48
245.48
245.48
245.48
245.48
245.48
245.48
245.48
245.48
245.48
245.48
245.48
245.48
245.48
245.48
245.48
245.48
245.48
245.48
245.48
245.48
245.48
245.48
245.48
245.48
245.48
245.48
245.48
245.48
245.48
245.48
245.48
245.48
245.48
245.48
245.48
245.48
245.48
245.48
245.48
245.48
245.48
245.48
245.48
245.48
245.48
245.48
245.48
245.48
245.48
245.48
245.48
245.48
245.48
245.48
245.48
245.48
245.48
245.48
245.48
245.48
245.48
245.48
245.48
245.48
245.48
245.48
245.48
245.48
245.48
245.48
245.48
245.48
245.48
245.48
245.48
245.48
245.48
245.48
245.48
245.48
245.48
245.48
245.48
245.48
245.48
245.48
245.48
245.48
245.48
245.48
245.48
245.48
245.48
245.48
245.48
245.48
245.48
245.48
245.48
245.48
245.48
245.48
245.48
245.48
245.48
245.48
245.48
245.48
245.48
245.48
245.48
245.48
245.48
245.48
245.48
245.48
245.48
245.48
245.48
245.48
245.48
245.48
245.48
245.48
245.48
245.48
245.48
245.48
245.48
245.48
245.48
245.48
245.48
245.48
245.48
245.48
245.48
245.48
245.48
245.48
245.48
245.48
245.48
245.48
245.48
245.48
245.48
245.48
245.48
245.48
245.48
245.48
245.48
245.48
245.48
245.48
245.48
245.48
245.48
245.48
245.48
245.48
245.48
245.48
245.48
245.48
245.48
245.48
245.48
245.48
245.48
245.48
245.48
245.48
245.48
245.48
245.48
245.48
245.48
245.48
245.48
245.48
245.48
245.48
245.48
245.48
245.48
245.48
245.48
245.48
245.48
245.48
245.48
245.48
245.48
245.48
245.48
245.48
245.48
245.48
245.48
245.48
245.48
245.48
245.48
245.48
245.48
245.48
245.48
245.48
245.48
245.48
245.48
245.48
245.48
245.48
245.48
245.48
245.48
245.48
245.48
245.48
245.48
245.48
245.48
245.48
245.48
245.48
245.48
245.48
245.48
245.48
245.48
245.48
245.48
245.48
245.48
245.48
245.48
245.48
245.48
245.48
245.48
245.48
245.48
245.48
245.48
245.48
245.48
245.48
245.48
245.48
245.48
245.48
245.48
245.48
245.48
245.48
245.48
245.48
245.48
245.48
245.48
245.48
245.48
245.48
245.48
245.48
245.48
245.48
245.48
245.48
245.48
245.48
245.48
245.48
245.48
245.48
245.48
245.48
245.48
245.48
245.48
245.48
245.48
245.48
245.48
245.48
245.48
245.48
245.48
245.48
245.48
245.48
245.48
245.48
245.48
245.48
245.48
245.48
245.48
245.48
245.48
245.48
245.48
245.48
245.48
245.48
245.48
245.48
245.48
245.48
245.48
245.48
245.48
245.48
245.48
245.48
245.48
245.48
245.48
245.48
245.48
245.48
245.48
245.48
245.48
245.48
245.48
245.48
245.48
245.48
245.48
245.48
245.48
245.48
245.48
245.48
245.48
245.48
245.48
245.48
245.48
245.48
245.48
245.48
245.48
245.48
245.48
245.48
245.48
245.48
245.48
245.48
245.48
245.48
245.48
245.48
245.48
245.48
245.48
245.48
245.48
245.48
245.48
245.48
245.48
245.48
245.48
245.48
245.48
245.48
245.48
245.48
245.48
245.48
245.48
245.48
245.48
245.48
245.48
245.48
245.48
245.48
245.48
245.48
245.48
245.48
245.48
245.48
245.48
245.48
245.48
245.48
245.48
245.48
245.48
234.59853
234.25987
233.48875
231.984
230.09205
228.66991
229.30884
232.29692
236.30762
240.67874
243.7409
245.0684
245.42439
245.48093
245.48338
245.48124
245.48025
245.48004
245.48001
245.48
245.48
245.48
245.48
245.48
245.48
245.48
245.48
245.48
245.48
245.48
245.48
245.48
245.48
245.48
245.48
245.48
245.48
245.48
245.48
245.48
245.48
245.48
245.48
245.48
245.48
245.48
245.48
245.48
245.48
245.48
245.48
245.48
245.48
245.48
245.48
245.48
245.48
245.48
245.48
245.48
245.48
245.48
245.48
245.48
245.48
245.48
245.48
245.48
245.48
245.48
245.48
245.48
245.48
245.48
245.48
245.48
245.48
245.48
245.48
245.48
245.48
245.48
245.48
245.48
245.48
245.48
245.48
245.48
233.46418
233.91514
234.27119
234.59603
234.60943
234.29881
233.53898
232.03652
230.13973
228.71317
229.33355
232.31437
236.31574
240.67894
243.74209
245.07026
245.42511
245.48124
245.48354
245.48129
245.48026
245.48004
245.48001
245.48
245.48
245.48
245.48
245.48
245.48
245.48
245.48
245.48
245.48
245.48
245.48
245.48
245.48
245.48
245.48
245.48
245.48
245.48
245.48
245.48
245.48
245.48
245.48
245.48
245.48
245.48
245.48
245.48
245.48
245.48
245.48
245.48
245.48
245.48
245.48
245.48
245.48
245.48
245.48
245.48
245.48
245.48
245.48
245.48
245.48
245.48
245.48
245.48
245.48
245.48
245.48
245.48
245.48
245.48
245.48
245.48
245.48
245.48
245.48
245.48
245.48
245.48
245.48
245.48
245.48
245.48
245.48
245.48
232.61157
232.79429
233.08243
233.46037
233.92771
234.29437
234.62055
234.6341
234.32011
233.5596
232.06195
230.17461
228.75483
229.3744
232.34444
236.33711
240.6966
243.75332
245.07324
245.42547
245.48134
245.48357
245.48128
245.48025
245.48004
245.48001
245.48
245.48
245.48
245.48
245.48
245.48
245.48
245.48
245.48
245.48
245.48
245.48
245.48
245.48
245.48
245.48
245.48
245.48
245.48
245.48
245.48
245.48
245.48
245.48
245.48
245.48
245.48
245.48
245.48
245.48
245.48
245.48
245.48
245.48
245.48
245.48
245.48
245.48
245.48
245.48
245.48
245.48
245.48
245.48
245.48
245.48
245.48
245.48
245.48
245.48
245.48
245.48
245.48
245.48
245.48
245.48
245.48
245.48
245.48
245.48
245.48
245.48
245.48
245.48
245.48
245.48
245.48
245.48
245.48
232.81975
232.59963
232.52915
232.60179
232.79774
233.10404
233.4826
233.94573
234.31165
234.64184
234.6578
234.34688
233.59088
232.09713
230.21228
228.79277
229.41027
232.37416
236.3598
240.71049
243.75855
245.07324
245.42503
245.48125
245.4835
245.48125
245.48024
245.48004
245.48001
245.48
245.48
245.48
245.48
245.48
245.48
245.48
245.48
245.48
245.48
245.48
245.48
245.48
245.48
245.48
245.48
245.48
245.48
245.48
245.48
245.48
245.48
245.48
245.48
245.48
245.48
245.48
245.48
245.48
245.48
245.48
245.48
245.48
245.48
245.48
245.48
245.48
245.48
245.48
245.48
245.48
245.48
245.48
245.48
245.48
245.48
245.48
245.48
245.48
245.48
245.48
245.48
245.48
245.48
245.48
245.48
245.48
245.48
245.48
245.48
245.48
245.48
245.48
245.48
245.48
245.48
245.48
245.48
245.48
235.45656
234.87535
234.2648
233.67348
233.1633
232.79055
232.586
232.53997
232.62701
232.82512
233.1288
233.50438
233.96443
234.32564
234.64986
234.66319
234.35794
233.61077
232.12514
230.24317
228.82433
229.44433
232.40561
236.38659
240.72527
243.76186
245.07195
245.42415
245.48086
245.48334
245.48121
245.48024
245.48004
245.48001
245.48
245.48
245.48
245.48
245.48
245.48
245.48
245.48
245.48
245.48
245.48
245.48
245.48
245.48
245.48
245.48
245.48
245.48
245.48
245.48
245.48
245.48
245.48
245.48
245.48
245.48
245.48
245.48
245.48
245.48
245.48
245.48
245.48
245.48
245.48
245.48
245.48
245.48
245.48
245.48
245.48
245.48
245.48
245.48
245.48
245.48
245.48
245.48
245.48
245.48
245.48
245.48
245.48
245.48
245.48
245.48
245.48
245.48
245.48
245.48
245.48
245.48
245.48
245.48
245.48
245.48
245.48
245.48
245.48
237.68246
237.54424
237.35576
237.10874
236.79532
236.41
235.95139
235.42514
234.84645
234.24493
233.66747
233.17094
232.80814
232.60749
232.56051
232.64697
232.84552
233.15058
233.52721
233.9867
234.34636
234.66724
234.68325
234.3772
233.62355
232.13956
230.25668
228.83706
229.44688
232.40935
236.39105
240.72323
243.75679
245.06895
245.42276
245.48026
245.48312
245.48116
245.48023
245.48004
245.48001
245.48
245.48
245.48
245.48
245.48
245.48
245.48
245.48
245.48
245.48
245.48
245.48
245.48
245.48
245.48
245.48
245.48
245.48
245.48
245.48
245.48
245.48
245.48
245.48
245.48
245.48
245.48
245.48
245.48
245.48
245.48
245.48
245.48
245.48
245.48
245.48
245.48
245.48
245.48
245.48
245.48
245.48
245.48
245.48
245.48
245.48
245.48
245.48
245.48
245.48
245.48
245.48
245.48
245.48
245.48
245.48
245.48
245.48
245.48
245.48
245.48
245.48
245.48
245.48
245.48
245.48
245.48
245.48
237.64448
237.63198
237.63049
237.6273
237.6292
237.63557
237.64645
237.66219
237.67821
237.69786
237.71772
237.74033
237.76294
237.78717
237.81052
237.8335
237.85326
237.86892
237.87689
237.87482
237.85813
237.82281
237.76304
237.67268
237.54378
237.36752
237.13438
236.83536
236.46313
236.01444
235.49343
234.91535
234.31119
233.72922
233.22651
232.85731
232.65307
232.60362
232.68688
232.88313
233.18612
233.5662
234.02842
234.39283
234.70981
234.73551
234.43667
233.69068
232.21044
230.31122
228.86648
229.43306
232.3814
236.35818
240.69647
243.74502
245.06692
245.42221
245.47982
245.48291
245.4811
245.48022
245.48004
245.48001
245.48
245.48
245.48
245.48
245.48
245.48
245.48
245.48
245.48
245.48
245.48
245.48
245.48
245.48
245.48
245.48
245.48
245.48
245.48
245.48
245.48
245.48
245.48
245.48
245.48
245.48
245.48
245.48
245.48
245.48
245.48
245.48
245.48
245.48
245.48
245.48
245.48
245.48
245.48
245.48
245.48
245.48
245.48
245.48
245.48
245.48
245.48
245.48
245.48
245.48
245.48
245.48
245.48
245.48
245.48
245.48
245.48
245.48
245.48
245.48
245.48
245.48
245.48
245.48
245.48
245.48
245.48
245.48
237.06669
237.07671
237.10229
237.1421
237.20008
237.27438
237.35876
237.44296
237.51285
237.57072
237.61761
237.65964
237.69636
237.73114
237.76252
237.79211
237.81783
237.8398
237.85512
237.86241
237.85794
237.83878
237.80015
237.73733
237.64375
237.51204
237.3332
237.09793
236.79735
236.42489
235.97823
235.46219
234.89111
234.29395
233.71804
233.22136
232.8585
232.65832
232.61256
232.69962
232.89728
233.19872
233.57393
234.03233
234.39161
234.71343
234.72899
234.42501
233.68051
232.20118
230.32628
228.90842
229.50074
232.446
236.41145
240.7367
243.7643
245.07263
245.42308
245.47975
245.48282
245.48107
245.48022
245.48004
245.48001
245.48
245.48
245.48
245.48
245.48
245.48
245.48
245.48
245.48
245.48
245.48
245.48
245.48
245.48
245.48
245.48
245.48
245.48
245.48
245.48
245.48
245.48
245.48
245.48
245.48
245.48
245.48
245.48
245.48
245.48
245.48
245.48
245.48
245.48
245.48
245.48
245.48
245.48
245.48
245.48
245.48
245.48
245.48
245.48
245.48
245.48
245.48
245.48
245.48
245.48
245.48
245.48
245.48
245.48
245.48
245.48
245.48
245.48
245.48
245.48
245.48
245.48
245.48
245.48
245.48
245.48
245.48
245.48
236.97498
236.98955
237.02114
237.07328
237.145
237.23716
237.33864
237.43675
237.51544
237.57902
237.6297
237.67425
237.71265
237.74846
237.78038
237.8101
237.83569
237.85733
237.87221
237.87903
237.87412
237.85462
237.81581
237.75302
237.6597
237.52848
237.35039
237.11617
236.81696
236.44604
236.00099
235.48663
234.91714
234.32141
233.74634
233.25006
232.8864
232.68576
232.63928
232.72542
232.92226
233.22329
233.59798
234.05497
234.41453
234.73572
234.75321
234.45219
233.71092
232.23746
230.3635
228.94143
229.52091
232.45695
236.41632
240.73705
243.76374
245.07204
245.42277
245.47966
245.48277
245.48105
245.48021
245.48003
245.48001
245.48
245.48
245.48
245.48
245.48
245.48
245.48
245.48
245.48
245.48
245.48
245.48
245.48
245.48
245.48
245.48
245.48
245.48
245.48
245.48
245.48
245.48
245.48
245.48
245.48
245.48
245.48
245.48
245.48
245.48
245.48
245.48
245.48
245.48
245.48
245.48
245.48
245.48
245.48
245.48
245.48
245.48
245.48
245.48
245.48
245.48
245.48
245.48
245.48
245.48
245.48
245.48
245.48
245.48
245.48
245.48
245.48
245.48
245.48
245.48
245.48
245.48
245.48
245.48
245.48
245.48
245.48
245.48
237.00312
237.01781
237.05009
237.10253
237.17502
237.26718
237.36811
237.46367
237.53959
237.60093
237.65006
237.69342
237.73096
237.76604
237.79736
237.82651
237.8516
237.87275
237.88723
237.8937
237.88854
237.86891
237.8301
237.76745
237.67446
237.54376
237.36641
237.13316
236.83513
236.46557
236.02199
235.5091
234.94088
234.34613
233.77182
233.27594
232.91284
232.71236
232.66594
232.75185
232.94815
233.24793
233.62152
234.07881
234.43701
234.75812
234.77617
234.47691
233.73815
232.26855
230.39628
228.97379
229.547
232.4755
236.42827
240.74496
243.769
245.07359
245.42299
245.47959
245.48269
245.48101
245.4802
245.48003
245.48001
245.48
245.48
245.48
245.48
245.48
245.48
245.48
245.48
245.48
245.48
245.48
245.48
245.48
245.48
245.48
245.48
245.48
245.48
245.48
245.48
245.48
245.48
245.48
245.48
245.48
245.48
245.48
245.48
245.48
245.48
245.48
245.48
245.48
245.48
245.48
245.48
245.48
245.48
245.48
245.48
245.48
245.48
245.48
245.48
245.48
245.48
245.48
245.48
245.48
245.48
245.48
245.48
245.48
245.48
245.48
245.48
245.48
245.48
245.48
245.48
245.48
245.48
245.48
245.48
245.48
245.48
245.48
245.48
237.07543
237.08821
237.11736
237.16428
237.23042
237.31472
237.40804
237.49717
237.56856
237.62678
237.67374
237.71552
237.75186
237.78599
237.81654
237.84505
237.8696
237.89029
237.90438
237.91052
237.90511
237.88531
237.84645
237.78388
237.69111
237.56079
237.38398
237.15138
236.85411
236.48542
236.04286
235.53106
234.96394
234.37026
233.79688
233.30155
232.93904
232.73887
232.69261
232.77842
232.97429
233.2734
233.64626
234.10271
234.45992
234.77998
234.7981
234.50015
233.76337
232.29708
230.42637
229.00353
229.57225
232.49681
236.44466
240.75427
243.77107
245.07195
245.42127
245.47874
245.48238
245.48094
245.48019
245.48003
245.48001
245.48
245.48
245.48
245.48
245.48
245.48
245.48
245.48
245.48
245.48
245.48
245.48
245.48
245.48
245.48
245.48
245.48
245.48
245.48
245.48
245.48
245.48
245.48
245.48
245.48
245.48
245.48
245.48
245.48
245.48
245.48
245.48
245.48
245.48
245.48
245.48
245.48
245.48
245.48
245.48
245.48
245.48
245.48
245.48
245.48
245.48
245.48
245.48
245.48
245.48
245.48
245.48
245.48
245.48
245.48
245.48
245.48
245.48
245.48
245.48
245.48
245.48
245.48
245.48
245.48
245.48
245.48
245.48
237.04258
237.05701
237.08838
237.13971
237.21024
237.30051
237.40005
237.49678
237.57463
237.63745
237.68735
237.7311
237.76868
237.80363
237.83469
237.86353
237.88825
237.90901
237.92308
237.92917
237.92369
237.90382
237.86489
237.8023
237.70961
237.57948
237.40301
237.17095
236.87436
236.50652
236.06497
235.55429
234.9885
234.39624
233.82425
233.33009
232.96836
232.76828
232.72178
232.80714
233.00245
233.30074
233.67292
234.12799
234.48428
234.80236
234.8197
234.52305
233.78932
232.3271
230.45829
229.03507
229.59762
232.51598
236.45721
240.76022
243.77374
245.073
245.42066
245.47812
245.48213
245.48089
245.48018
245.48003
245.48001
245.48
245.48
245.48
245.48
245.48
245.48
245.48
245.48
245.48
245.48
245.48
245.48
245.48
245.48
245.48
245.48
245.48
245.48
245.48
245.48
245.48
245.48
245.48
245.48
245.48
245.48
245.48
245.48
245.48
245.48
245.48
245.48
245.48
245.48
245.48
245.48
245.48
245.48
245.48
245.48
245.48
245.48
245.48
245.48
245.48
245.48
245.48
245.48
245.48
245.48
245.48
245.48
245.48
245.48
245.48
245.48
245.48
245.48
245.48
245.48
245.48
245.48
245.48
245.48
245.48
245.48
245.48
237.11947
237.1317
237.15987
237.20487
237.26853
237.34946
237.44057
237.53074
237.60478
237.66513
237.71322
237.75562
237.79211
237.82615
237.85644
237.88464
237.9088
237.92906
237.94265
237.94826
237.94228
237.9219
237.88245
237.81934
237.72614
237.59561
237.41893
237.18687
236.89058
236.5234
236.08296
235.5739
235.01026
234.42047
233.85077
233.35839
232.99744
232.79715
232.74988
232.83438
233.02882
233.3261
233.69756
234.15124
234.50707
234.82487
234.84294
234.54737
233.8164
232.3586
230.49204
229.06864
229.62544
232.5375
236.47219
240.76867
243.77815
245.07593
245.42193
245.47843
245.48221
245.48091
245.48019
245.48003
245.48001
245.48
245.48
245.48
245.48
245.48
245.48
245.48
245.48
245.48
245.48
245.48
245.48
245.48
245.48
245.48
245.48
245.48
245.48
245.48
245.48
245.48
245.48
245.48
245.48
245.48
245.48
245.48
245.48
245.48
245.48
245.48
245.48
245.48
245.48
245.48
245.48
245.48
245.48
245.48
245.48
245.48
245.48
245.48
245.48
245.48
245.48
245.48
245.48
245.48
245.48
245.48
245.48
245.48
245.48
245.48
245.48
245.48
245.48
245.48
245.48
245.48
245.48
245.48
245.48
245.48
245.48
245.48
237.07797
237.09182
237.12289
237.17312
237.24324
237.33252
237.43202
237.52965
237.60911
237.67318
237.72385
237.76807
237.80595
237.84101
237.872
237.90062
237.92494
237.94514
237.95849
237.96372
237.95727
237.93635
237.89637
237.83279
237.73924
237.6085
237.43175
237.19992
236.90431
236.53844
236.09994
235.59351
235.03307
234.44665
233.87999
233.38928
233.0285
232.82682
232.7776
232.86037
233.05322
233.34908
233.71984
234.17223
234.52834
234.84661
234.86662
234.57393
233.84614
232.39307
230.5297
229.10646
229.65693
232.56137
236.48841
240.7775
243.78247
245.07868
245.42386
245.4795
245.48267
245.48103
245.48021
245.48004
245.48001
245.48
245.48
245.48
245.48
245.48
245.48
245.48
245.48
245.48
245.48
245.48
245.48
245.48
245.48
245.48
245.48
245.48
245.48
245.48
245.48
245.48
245.48
245.48
245.48
245.48
245.48
245.48
245.48
245.48
245.48
245.48
245.48
245.48
245.48
245.48
245.48
245.48
245.48
245.48
245.48
245.48
245.48
245.48
245.48
245.48
245.48
245.48
245.48
245.48
245.48
245.48
245.48
245.48
245.48
245.48
245.48
245.48
245.48
245.48
245.48
245.48
245.48
245.48
245.48
245.48
245.48
245.48
237.10128
237.11595
237.14832
237.20081
237.2736
237.36617
237.46751
237.56291
237.63827
237.69879
237.7471
237.78949
237.82601
237.85978
237.88959
237.91696
237.94004
237.95896
237.97109
237.97515
237.96764
237.94581
237.90513
237.84107
237.74731
237.6167
237.44057
237.20991
236.91612
236.55276
236.11744
235.61469
235.05806
234.47507
233.91079
233.42139
233.06021
232.85708
232.80621
232.88763
233.07936
233.37407
233.74404
234.19526
234.55143
234.86967
234.89066
234.60021
233.87517
232.42615
230.56612
229.14388
229.68971
232.58773
236.50797
240.78938
243.78791
245.08023
245.42429
245.47976
245.48278
245.48105
245.48021
245.48004
245.48001
245.48
245.48
245.48
245.48
245.48
245.48
245.48
245.48
245.48
245.48
245.48
245.48
245.48
245.48
245.48
245.48
245.48
245.48
245.48
245.48
245.48
245.48
245.48
245.48
245.48
245.48
245.48
245.48
245.48
245.48
245.48
245.48
245.48
245.48
245.48
245.48
245.48
245.48
245.48
245.48
245.48
245.48
245.48
245.48
245.48
245.48
245.48
245.48
245.48
245.48
245.48
245.48
245.48
245.48
245.48
245.48
245.48
245.48
245.48
245.48
245.48
245.48
245.48
245.48
245.48
245.48
245.48
237.16917
237.18268
237.21415
237.26432
237.33612
237.42644
237.52353
237.61018
237.67719
237.73148
237.77556
237.81475
237.84892
237.88068
237.90882
237.93463
237.95635
237.97401
237.98506
237.9882
237.98
237.95774
237.91692
237.85304
237.75981
237.63008
237.45517
237.22609
236.93421
236.57297
236.1399
235.63932
235.08447
234.50281
233.93955
233.45036
233.08915
232.88578
232.83482
232.91616
233.10756
233.40167
233.7709
234.22154
234.57692
234.89437
234.91529
234.62616
233.90331
232.4584
230.60135
229.17989
229.7212
232.61373
236.52773
240.80128
243.79254
245.08106
245.42412
245.4795
245.48261
245.48099
245.4802
245.48003
245.48001
245.48
245.48
245.48
245.48
245.48
245.48
245.48
245.48
245.48
245.48
245.48
245.48
245.48
245.48
245.48
245.48
245.48
245.48
245.48
245.48
245.48
245.48
245.48
245.48
245.48
245.48
245.48
245.48
245.48
245.48
245.48
245.48
245.48
245.48
245.48
245.48
245.48
245.48
245.48
245.48
245.48
245.48
245.48
245.48
245.48
245.48
245.48
245.48
245.48
245.48
245.48
245.48
245.48
245.48
245.48
245.48
245.48
245.48
245.48
245.48
245.48
245.48
245.48
245.48
245.48
245.48
245.48
237.13253
237.14778
237.1828
237.2388
237.3185
237.41825
237.5238
237.61584
237.68609
237.74252
237.78816
237.8284
237.86328
237.89541
237.92372
237.94954
237.97116
237.98867
237.99957
238.0026
237.9944
237.97226
237.93174
237.86834
237.77579
237.64695
237.47312
237.24529
236.95479
236.595
236.16342
235.66426
235.11057
234.52977
233.96703
233.4784
233.11778
232.91498
232.86441
232.94577
233.13681
233.43023
233.79867
234.24834
234.60209
234.91784
234.93927
234.65238
233.93226
232.49194
230.63731
229.21613
229.7514
232.63789
236.54501
240.81081
243.79617
245.08259
245.42474
245.47955
245.48256
245.48096
245.48019
245.48003
245.48001
245.48
245.48
245.48
245.48
245.48
245.48
245.48