/*--------------------------------*- C++ -*----------------------------------*\
| =========                 |                                                 |
| \\      /  F ield         | OpenFOAM: The Open Source CFD Toolbox           |
|  \\    /   O peration     | Version:  2506                                  |
|   \\  /    A nd           | Website:  www.openfoam.com                      |
|    \\/     M anipulation  |                                                 |
\*---------------------------------------------------------------------------*/
FoamFile
{
    version     2.0;
    format      ascii;
    arch        "LSB;label=32;scalar=64";
    class       volScalarField;
    location    "0.003";
    object      nut;
}
// * * * * * * * * * * * * * * * * * * * * * * * * * * * * * * * * * * * * * //

dimensions      [0 2 -1 0 0 0 0];

internalField   nonuniform List<scalar> 
192657
(
3.2349832e-05
1.0875103e-05
1.0899768e-05
1.0900182e-05
1.0900165e-05
1.0900163e-05
1.0900162e-05
1.0900162e-05
1.0900162e-05
1.0900162e-05
1.0900162e-05
1.0900161e-05
1.090016e-05
1.0900159e-05
1.0900161e-05
1.090016e-05
1.0900159e-05
1.0900157e-05
1.0900159e-05
1.0900158e-05
1.0900155e-05
1.0900154e-05
1.090015e-05
1.0900151e-05
1.0900145e-05
1.0900147e-05
1.0900145e-05
1.0900147e-05
1.0900239e-05
1.0901226e-05
1.0905706e-05
1.0920413e-05
1.0956881e-05
1.1019494e-05
1.1081917e-05
1.110698e-05
1.1106471e-05
1.1085749e-05
1.104993e-05
1.1018561e-05
1.0993337e-05
1.0956304e-05
1.0899844e-05
1.0853141e-05
1.0824693e-05
1.0806133e-05
1.0794367e-05
1.0784032e-05
1.0778293e-05
1.0778643e-05
1.0781389e-05
1.0786406e-05
1.079641e-05
1.0808117e-05
1.0819772e-05
1.0832638e-05
1.0847605e-05
1.0860347e-05
1.0870859e-05
1.0878076e-05
1.0870025e-05
1.0828851e-05
1.0713582e-05
1.0605717e-05
1.0636383e-05
1.0842961e-05
1.1128218e-05
1.1207543e-05
1.1215076e-05
1.1198574e-05
1.1232071e-05
1.1291917e-05
1.1359172e-05
1.1429696e-05
1.1503775e-05
1.1586641e-05
1.1683587e-05
1.1794452e-05
1.1915586e-05
1.2048703e-05
1.2198657e-05
1.2371954e-05
1.2570406e-05
1.2795183e-05
1.3049204e-05
1.3340654e-05
1.3679773e-05
1.4076802e-05
1.4535846e-05
1.5057746e-05
1.5646157e-05
1.6281972e-05
1.691861e-05
1.7558329e-05
1.8222608e-05
1.8909904e-05
1.9606139e-05
2.0289669e-05
2.0966321e-05
2.1630525e-05
2.2240342e-05
2.275259e-05
2.3162559e-05
2.3517469e-05
2.3890019e-05
2.4425443e-05
2.5643574e-05
4.4191673e-05
0.00015875527
0.00032146903
0.00044804497
0.00054175949
0.00061137538
0.00066153609
0.00069537188
0.0007153537
0.00072356662
0.00072187177
0.00071196596
0.00069493728
0.0006711088
0.00064240914
0.00061017527
0.00057540896
0.00053891963
0.00050138477
0.00046337833
0.00042539195
0.00038783328
0.00035104627
0.00031530788
0.00028081705
0.00024775183
0.00021625439
0.00018642247
0.00015826707
0.00013185439
0.0001072963
8.4708737e-05
6.4232205e-05
4.6078988e-05
3.0542524e-05
1.7979376e-05
8.7658757e-06
3.1522786e-06
7.174324e-07
8.5610108e-08
4.8918958e-09
1.6988644e-09
3.2341863e-05
1.0874899e-05
1.0899767e-05
1.0900182e-05
1.0900165e-05
1.0900163e-05
1.0900162e-05
1.0900162e-05
1.0900162e-05
1.0900162e-05
1.0900162e-05
1.090016e-05
1.090016e-05
1.0900159e-05
1.0900161e-05
1.090016e-05
1.0900159e-05
1.0900157e-05
1.0900159e-05
1.0900158e-05
1.0900155e-05
1.0900154e-05
1.090015e-05
1.090015e-05
1.0900145e-05
1.0900147e-05
1.0900147e-05
1.0900147e-05
1.0900239e-05
1.0901224e-05
1.0905627e-05
1.0920193e-05
1.0956447e-05
1.1019063e-05
1.1081797e-05
1.1107141e-05
1.1106864e-05
1.1086346e-05
1.105048e-05
1.1019191e-05
1.0993959e-05
1.0957044e-05
1.0900704e-05
1.085388e-05
1.0825302e-05
1.080664e-05
1.0794641e-05
1.0784487e-05
1.0778728e-05
1.07791e-05
1.0781749e-05
1.0786622e-05
1.0796608e-05
1.0808317e-05
1.0819854e-05
1.0832588e-05
1.0847592e-05
1.0860527e-05
1.0871161e-05
1.0878977e-05
1.0872214e-05
1.0833885e-05
1.0723159e-05
1.0609693e-05
1.0634567e-05
1.0827056e-05
1.1116282e-05
1.1207068e-05
1.1221357e-05
1.1205131e-05
1.1233385e-05
1.1292474e-05
1.1361107e-05
1.1433347e-05
1.1508679e-05
1.1591792e-05
1.1688644e-05
1.1799789e-05
1.1922277e-05
1.2055729e-05
1.2205686e-05
1.2378172e-05
1.2575812e-05
1.2799044e-05
1.3050079e-05
1.3337808e-05
1.3674401e-05
1.4069069e-05
1.4526106e-05
1.5047426e-05
1.5638419e-05
1.6288687e-05
1.6946148e-05
1.7610865e-05
1.8295166e-05
1.9014699e-05
1.9752022e-05
2.047566e-05
2.1179274e-05
2.1868952e-05
2.2517288e-05
2.3075891e-05
2.3524262e-05
2.3895337e-05
2.42742e-05
2.479834e-05
2.7297918e-05
5.7386219e-05
0.00019260758
0.0003552213
0.00047426524
0.00056152136
0.0006254584
0.00067045074
0.00069949428
0.00071507708
0.00071916497
0.00071345362
0.00069968015
0.00067926686
0.00065343852
0.00062333146
0.00058994486
0.00055415872
0.00051675283
0.00047841529
0.00043974725
0.00040127456
0.00036343721
0.00032660787
0.00029107997
0.00025708111
0.00022479349
0.00019433932
0.00016581436
0.00013937422
0.00011510954
9.3035488e-05
7.315017e-05
5.5450854e-05
3.9898599e-05
2.6532747e-05
1.5562409e-05
7.4254681e-06
2.5610997e-06
5.5664302e-07
6.4268616e-08
3.3891851e-09
9.6196623e-10
3.2459163e-05
1.0874674e-05
1.0899747e-05
1.0900182e-05
1.0900165e-05
1.0900163e-05
1.0900162e-05
1.0900161e-05
1.0900162e-05
1.0900162e-05
1.090016e-05
1.0900159e-05
1.090016e-05
1.0900159e-05
1.0900161e-05
1.090016e-05
1.0900159e-05
1.0900157e-05
1.0900157e-05
1.0900157e-05
1.0900155e-05
1.0900154e-05
1.090015e-05
1.0900147e-05
1.0900146e-05
1.0900145e-05
1.0900151e-05
1.0900147e-05
1.0900236e-05
1.0901144e-05
1.0905529e-05
1.0919989e-05
1.0956101e-05
1.1018569e-05
1.1081567e-05
1.1107265e-05
1.1107268e-05
1.1086969e-05
1.1051119e-05
1.101989e-05
1.0994645e-05
1.0957915e-05
1.090177e-05
1.0854697e-05
1.0826129e-05
1.0807161e-05
1.0794946e-05
1.0784977e-05
1.077912e-05
1.0779511e-05
1.0782101e-05
1.0786792e-05
1.079675e-05
1.0808451e-05
1.0819899e-05
1.0832502e-05
1.0847537e-05
1.086069e-05
1.0871401e-05
1.087987e-05
1.0874513e-05
1.0839212e-05
1.0733468e-05
1.0615064e-05
1.0632861e-05
1.080925e-05
1.110051e-05
1.1206107e-05
1.1227297e-05
1.1212353e-05
1.1234275e-05
1.1292098e-05
1.136185e-05
1.1435624e-05
1.1512e-05
1.1595066e-05
1.1691422e-05
1.1802363e-05
1.1925093e-05
1.2058877e-05
1.2208695e-05
1.2380156e-05
1.2575804e-05
1.2796321e-05
1.3043437e-05
1.3324987e-05
1.3650963e-05
1.4033082e-05
1.4475795e-05
1.4983628e-05
1.5566142e-05
1.6229889e-05
1.6929565e-05
1.7611448e-05
1.8310426e-05
1.9045884e-05
1.981182e-05
2.0572902e-05
2.1305593e-05
2.2020007e-05
2.2708836e-05
2.3323272e-05
2.3821438e-05
2.4212595e-05
2.4569527e-05
2.5038978e-05
2.7185413e-05
5.554585e-05
0.00019247029
0.00035635636
0.00047452428
0.0005605829
0.00062305687
0.00066674571
0.00069457243
0.00070917899
0.00071253955
0.00070645163
0.0006923436
0.00067172495
0.00064576742
0.0006156486
0.00058235864
0.00054675922
0.00050961327
0.00047159073
0.00043327656
0.00039518629
0.00035775989
0.00032138295
0.00028637853
0.00025293657
0.00022119536
0.00019129491
0.00016331296
0.00013729054
0.00011325531
9.1275839e-05
7.141703e-05
5.3725511e-05
3.8254125e-05
2.5105923e-05
1.4505311e-05
6.8238573e-06
2.3306237e-06
5.0476728e-07
5.8375713e-08
3.1844645e-09
1.0014322e-09
3.2520282e-05
1.087445e-05
1.0899741e-05
1.0900182e-05
1.0900165e-05
1.0900163e-05
1.0900162e-05
1.0900161e-05
1.0900162e-05
1.0900162e-05
1.090016e-05
1.0900159e-05
1.090016e-05
1.0900159e-05
1.0900161e-05
1.090016e-05
1.0900159e-05
1.0900157e-05
1.0900157e-05
1.0900158e-05
1.0900155e-05
1.0900155e-05
1.090015e-05
1.0900147e-05
1.0900146e-05
1.0900144e-05
1.0900151e-05
1.0900147e-05
1.0900234e-05
1.0901129e-05
1.0905465e-05
1.0919799e-05
1.0955703e-05
1.1018081e-05
1.1081359e-05
1.1107366e-05
1.1107629e-05
1.1087649e-05
1.1051754e-05
1.1020553e-05
1.0995289e-05
1.0958722e-05
1.0902757e-05
1.0855574e-05
1.0827091e-05
1.0807605e-05
1.0795269e-05
1.0785407e-05
1.077943e-05
1.0779807e-05
1.0782431e-05
1.0786913e-05
1.0796823e-05
1.0808537e-05
1.0819927e-05
1.0832442e-05
1.0847491e-05
1.0860838e-05
1.0871606e-05
1.0880684e-05
1.0876636e-05
1.0844204e-05
1.0743404e-05
1.0620749e-05
1.0632375e-05
1.0792643e-05
1.1082965e-05
1.120451e-05
1.1232219e-05
1.1219604e-05
1.1235701e-05
1.1291654e-05
1.1362373e-05
1.1437565e-05
1.1515103e-05
1.1598375e-05
1.1694407e-05
1.1805317e-05
1.1928323e-05
1.2062416e-05
1.2212095e-05
1.238276e-05
1.2576823e-05
1.2794852e-05
1.3038549e-05
1.3314901e-05
1.363402e-05
1.4008184e-05
1.4441313e-05
1.4938623e-05
1.5510963e-05
1.6162657e-05
1.6887617e-05
1.7599778e-05
1.8317471e-05
1.9067815e-05
1.9858049e-05
2.0659754e-05
2.1432227e-05
2.2173113e-05
2.289656e-05
2.3566945e-05
2.4126031e-05
2.4557216e-05
2.4912827e-05
2.5315602e-05
2.7073978e-05
5.1374645e-05
0.00017996135
0.00034664595
0.00046500901
0.00055119148
0.00061409804
0.00065826522
0.00068653703
0.00070167352
0.00070553032
0.00069988919
0.00068623526
0.00066597635
0.00064057196
0.00061109878
0.00057849174
0.00054357718
0.00050709413
0.0004696955
0.00043195545
0.00039437197
0.00035736226
0.00032128778
0.00028644882
0.00025309687
0.00022143067
0.00019160235
0.00016371589
0.0001378322
0.0001139767
9.2150259e-05
7.2344868e-05
5.4569577e-05
3.8913032e-05
2.553217e-05
1.471222e-05
6.8808662e-06
2.3310959e-06
5.0111933e-07
5.766509e-08
3.0799221e-09
9.1224589e-10
3.2600734e-05
1.0874217e-05
1.0899734e-05
1.0900181e-05
1.0900166e-05
1.0900163e-05
1.0900162e-05
1.0900162e-05
1.0900162e-05
1.0900162e-05
1.090016e-05
1.0900159e-05
1.090016e-05
1.0900159e-05
1.090016e-05
1.090016e-05
1.0900159e-05
1.0900157e-05
1.0900158e-05
1.0900158e-05
1.0900155e-05
1.0900155e-05
1.090015e-05
1.0900148e-05
1.0900147e-05
1.0900144e-05
1.090015e-05
1.0900147e-05
1.0900232e-05
1.090111e-05
1.0905393e-05
1.0919597e-05
1.0955291e-05
1.101757e-05
1.1081135e-05
1.1107476e-05
1.1107991e-05
1.1088324e-05
1.105241e-05
1.1021232e-05
1.0995945e-05
1.0959553e-05
1.0903764e-05
1.0856467e-05
1.0827663e-05
1.0808069e-05
1.0795748e-05
1.0785815e-05
1.077977e-05
1.0780067e-05
1.0782801e-05
1.078707e-05
1.0796889e-05
1.0808617e-05
1.081998e-05
1.0832424e-05
1.0847464e-05
1.0860966e-05
1.0871823e-05
1.088141e-05
1.0878693e-05
1.0849027e-05
1.0753234e-05
1.0627136e-05
1.0632854e-05
1.0776681e-05
1.1063385e-05
1.1202254e-05
1.1236235e-05
1.1227047e-05
1.1237826e-05
1.1291291e-05
1.1362542e-05
1.1439026e-05
1.1517779e-05
1.160137e-05
1.1697105e-05
1.1807916e-05
1.193115e-05
1.2065503e-05
1.2214995e-05
1.2384956e-05
1.257769e-05
1.2793415e-05
1.3033816e-05
1.3305572e-05
1.3617858e-05
1.3983238e-05
1.4405497e-05
1.4890322e-05
1.5449598e-05
1.6090968e-05
1.6811324e-05
1.7575515e-05
1.8310166e-05
1.9074468e-05
1.9882052e-05
2.0718275e-05
2.1536845e-05
2.2312153e-05
2.3065525e-05
2.3786147e-05
2.4410363e-05
2.4895504e-05
2.5271982e-05
2.5649067e-05
2.7014183e-05
4.7429004e-05
0.00016878965
0.00033765064
0.00045680261
0.00054304027
0.0006056591
0.00064953743
0.00067819306
0.00069325093
0.00069716232
0.00069171894
0.00067846678
0.00065877012
0.00063382857
0.000604724
0.00057255594
0.00053813437
0.00050214648
0.00046523568
0.00042799157
0.00039090965
0.00035440017
0.00031881418
0.00028443612
0.00025149653
0.0002201841
0.00019062446
0.00016289943
0.00013707406
0.00011320562
9.1343109e-05
7.1544663e-05
5.3866945e-05
3.83601e-05
2.514236e-05
1.4468817e-05
6.7539813e-06
2.282379e-06
4.8956691e-07
5.6262133e-08
2.997259e-09
8.8146874e-10
3.2677451e-05
1.0873978e-05
1.0899726e-05
1.0900181e-05
1.0900166e-05
1.0900163e-05
1.0900162e-05
1.0900162e-05
1.0900162e-05
1.0900162e-05
1.090016e-05
1.0900159e-05
1.0900159e-05
1.0900159e-05
1.090016e-05
1.090016e-05
1.0900159e-05
1.0900157e-05
1.0900158e-05
1.0900157e-05
1.0900155e-05
1.0900155e-05
1.0900151e-05
1.0900149e-05
1.0900148e-05
1.0900145e-05
1.0900152e-05
1.0900148e-05
1.0900229e-05
1.0901091e-05
1.0905322e-05
1.0919396e-05
1.0954875e-05
1.1017054e-05
1.1080909e-05
1.110758e-05
1.1108342e-05
1.1089013e-05
1.1053093e-05
1.1021919e-05
1.0996602e-05
1.0960396e-05
1.0904784e-05
1.0857381e-05
1.0828324e-05
1.0808677e-05
1.079628e-05
1.0786156e-05
1.0780133e-05
1.0780298e-05
1.078319e-05
1.0787267e-05
1.0796957e-05
1.0808683e-05
1.0820057e-05
1.0832437e-05
1.0847448e-05
1.0861058e-05
1.0872017e-05
1.0882054e-05
1.088064e-05
1.0853613e-05
1.0762884e-05
1.0634093e-05
1.0634146e-05
1.0761778e-05
1.1042045e-05
1.1199008e-05
1.1238861e-05
1.1234413e-05
1.1240744e-05
1.1291176e-05
1.1362376e-05
1.1440004e-05
1.1520032e-05
1.1604105e-05
1.1699619e-05
1.1810304e-05
1.1933699e-05
1.2068242e-05
1.22175e-05
1.2386867e-05
1.25786e-05
1.2792438e-05
1.3029869e-05
1.3297326e-05
1.3603695e-05
1.3960433e-05
1.4372129e-05
1.4844326e-05
1.5388735e-05
1.6015669e-05
1.6726123e-05
1.7512098e-05
1.8290481e-05
1.9068757e-05
1.988971e-05
2.0752123e-05
2.1617324e-05
2.2439348e-05
2.3223714e-05
2.3985976e-05
2.4673726e-05
2.5223292e-05
2.5634794e-05
2.5989712e-05
2.6979766e-05
4.3155103e-05
0.00015262889
0.0003231387
0.0004447105
0.000532012
0.00059534676
0.00063978888
0.00066859809
0.00068432953
0.00068893021
0.00068417961
0.0006716015
0.00065259446
0.00062839286
0.00060005505
0.00056843149
0.00053445597
0.00049895849
0.00046260993
0.00042588979
0.00038928035
0.0003531866
0.00031795635
0.00028387323
0.00025116641
0.00022002401
0.00019059871
0.00016299357
0.00013727887
0.00011350094
9.1696162e-05
7.1892408e-05
5.4142798e-05
3.853311e-05
2.5212311e-05
1.446821e-05
6.7278616e-06
2.2639193e-06
4.8395594e-07
5.5506932e-08
2.938791e-09
8.4863547e-10
3.2758177e-05
1.0873731e-05
1.0899718e-05
1.0900181e-05
1.0900166e-05
1.0900163e-05
1.0900162e-05
1.0900162e-05
1.0900162e-05
1.0900162e-05
1.090016e-05
1.0900159e-05
1.0900159e-05
1.0900159e-05
1.090016e-05
1.090016e-05
1.0900159e-05
1.0900157e-05
1.0900158e-05
1.0900158e-05
1.0900156e-05
1.0900155e-05
1.0900151e-05
1.0900149e-05
1.090015e-05
1.0900146e-05
1.0900153e-05
1.0900149e-05
1.0900227e-05
1.0901072e-05
1.0905251e-05
1.0919192e-05
1.0954452e-05
1.1016522e-05
1.1080673e-05
1.1107681e-05
1.1108688e-05
1.1089711e-05
1.1053796e-05
1.1022617e-05
1.0997261e-05
1.0961252e-05
1.090582e-05
1.0858315e-05
1.082898e-05
1.0809264e-05
1.0796773e-05
1.0786458e-05
1.0780525e-05
1.0780551e-05
1.0783597e-05
1.0787535e-05
1.0797047e-05
1.080876e-05
1.0820158e-05
1.0832493e-05
1.0847424e-05
1.0861106e-05
1.0872192e-05
1.0882621e-05
1.0882456e-05
1.0858001e-05
1.0772346e-05
1.0641732e-05
1.0635911e-05
1.0748111e-05
1.1019238e-05
1.1194602e-05
1.1240075e-05
1.1241602e-05
1.1244492e-05
1.1291354e-05
1.1361854e-05
1.1440506e-05
1.1521859e-05
1.1606595e-05
1.1701956e-05
1.1812436e-05
1.1935888e-05
1.2070513e-05
1.2219458e-05
1.2388285e-05
1.2579263e-05
1.2791615e-05
1.3026537e-05
1.3290128e-05
1.3591402e-05
1.3939598e-05
1.434097e-05
1.4800466e-05
1.5329426e-05
1.5939035e-05
1.6636616e-05
1.7418448e-05
1.8253158e-05
1.9050784e-05
1.9883384e-05
2.0763496e-05
2.1667796e-05
2.2545443e-05
2.3369963e-05
2.4166296e-05
2.4911146e-05
2.5532439e-05
2.6001797e-05
2.6374211e-05
2.7223298e-05
3.9717737e-05
0.00013700112
0.00030798256
0.00043234857
0.00052075204
0.0005847104
0.00062966491
0.00065898798
0.00067517744
0.00068031492
0.0006761222
0.00066407387
0.0006455774
0.00062189143
0.00059409816
0.00056315423
0.00052989064
0.00049503056
0.00045921421
0.00042301819
0.00038690523
0.00035127245
0.00031645589
0.00028273104
0.0002503213
0.00021941646
0.00019017305
0.00016270004
0.00013707591
0.00011335841
9.1595099e-05
7.1833916e-05
5.4130367e-05
3.8551702e-05
2.5241654e-05
1.4490057e-05
6.7365604e-06
2.2650245e-06
4.8372009e-07
5.5435044e-08
2.9204646e-09
8.3010417e-10
3.2841055e-05
1.0873476e-05
1.089971e-05
1.0900181e-05
1.0900166e-05
1.0900163e-05
1.0900162e-05
1.0900162e-05
1.0900162e-05
1.0900161e-05
1.090016e-05
1.0900159e-05
1.090016e-05
1.090016e-05
1.0900159e-05
1.0900161e-05
1.0900159e-05
1.0900158e-05
1.0900158e-05
1.0900158e-05
1.0900156e-05
1.0900155e-05
1.0900151e-05
1.0900149e-05
1.090015e-05
1.0900148e-05
1.0900153e-05
1.0900149e-05
1.0900224e-05
1.0901052e-05
1.0905179e-05
1.0918984e-05
1.095402e-05
1.1015976e-05
1.1080428e-05
1.1107776e-05
1.1109032e-05
1.1090417e-05
1.1054523e-05
1.1023323e-05
1.0997919e-05
1.0962122e-05
1.0906875e-05
1.0859266e-05
1.0829653e-05
1.0810025e-05
1.0797206e-05
1.0786766e-05
1.0780917e-05
1.0780855e-05
1.0784005e-05
1.0787883e-05
1.0797179e-05
1.0808844e-05
1.0820291e-05
1.0832573e-05
1.0847397e-05
1.0861108e-05
1.0872354e-05
1.088311e-05
1.0884166e-05
1.0862168e-05
1.0781604e-05
1.0650166e-05
1.0637781e-05
1.073586e-05
1.0995398e-05
1.1188777e-05
1.1240098e-05
1.1248515e-05
1.1249052e-05
1.1291721e-05
1.1361022e-05
1.1440623e-05
1.1523323e-05
1.1608857e-05
1.1704111e-05
1.1814298e-05
1.1937708e-05
1.2072322e-05
1.2220898e-05
1.238922e-05
1.2579615e-05
1.2790855e-05
1.3023767e-05
1.3284046e-05
1.358019e-05
1.3920849e-05
1.4312408e-05
1.4759575e-05
1.5273095e-05
1.5864215e-05
1.6544388e-05
1.7317138e-05
1.8168335e-05
1.9023664e-05
1.9865564e-05
2.0757936e-05
2.169013e-05
2.2622814e-05
2.3502108e-05
2.4331411e-05
2.5121532e-05
2.5813463e-05
2.6350731e-05
2.6755103e-05
2.744742e-05
3.6785836e-05
0.00012025
0.00028972792
0.00041818463
0.00050827624
0.0005732477
0.00061898694
0.00064901841
0.00066589165
0.00067167162
0.00066813189
0.00065687141
0.00063907593
0.00061606971
0.00058892785
0.0005586093
0.00052595645
0.00049170017
0.00045646683
0.00042083039
0.00038521182
0.000350004
0.00031554737
0.0002821256
0.00024996742
0.00021926623
0.0001901808
0.00016282246
0.0001372719
0.00011359029
9.1829002e-05
7.2039126e-05
5.4284835e-05
3.8649926e-05
2.52913e-05
1.4505339e-05
6.7343099e-06
2.2605427e-06
4.8208735e-07
5.5198488e-08
2.8976033e-09
8.1441689e-10
3.2926439e-05
1.0873213e-05
1.0899702e-05
1.0900181e-05
1.0900166e-05
1.0900163e-05
1.0900162e-05
1.0900163e-05
1.0900162e-05
1.0900161e-05
1.090016e-05
1.090016e-05
1.090016e-05
1.090016e-05
1.0900159e-05
1.0900161e-05
1.0900159e-05
1.0900158e-05
1.0900158e-05
1.0900158e-05
1.0900156e-05
1.0900155e-05
1.0900152e-05
1.0900148e-05
1.0900151e-05
1.0900149e-05
1.0900154e-05
1.090015e-05
1.090022e-05
1.0901033e-05
1.0905106e-05
1.0918775e-05
1.095358e-05
1.1015417e-05
1.1080172e-05
1.1107864e-05
1.1109378e-05
1.1091139e-05
1.1055267e-05
1.1024037e-05
1.099858e-05
1.0963008e-05
1.0907953e-05
1.0860235e-05
1.0830335e-05
1.0810985e-05
1.0797681e-05
1.078714e-05
1.0781274e-05
1.0781215e-05
1.0784403e-05
1.0788283e-05
1.079736e-05
1.0808959e-05
1.0820444e-05
1.0832668e-05
1.0847363e-05
1.0861075e-05
1.0872504e-05
1.0883562e-05
1.0885766e-05
1.0866106e-05
1.0790691e-05
1.065935e-05
1.0639692e-05
1.0725029e-05
1.0970977e-05
1.1181264e-05
1.1239554e-05
1.125504e-05
1.1254369e-05
1.1292133e-05
1.1359997e-05
1.144042e-05
1.1524441e-05
1.1610883e-05
1.1706092e-05
1.1815942e-05
1.1939228e-05
1.2073736e-05
1.2221875e-05
1.2389657e-05
1.2579536e-05
1.2789939e-05
1.3021253e-05
1.3278842e-05
1.3570238e-05
1.3904107e-05
1.4286389e-05
1.4721862e-05
1.5220435e-05
1.5793034e-05
1.6452763e-05
1.7210608e-05
1.805847e-05
1.8964377e-05
1.9837796e-05
2.0739023e-05
2.1688825e-05
2.2665938e-05
2.3610306e-05
2.4483057e-05
2.5308752e-05
2.6066091e-05
2.6683113e-05
2.7143278e-05
2.7731094e-05
3.4588636e-05
0.00010447963
0.00027015424
0.0004032523
0.00049529233
0.00056141831
0.00060802875
0.00063882655
0.00065642681
0.00066291721
0.0006600745
0.00064946794
0.00063254685
0.00061025236
0.00058379007
0.00055410978
0.00052206216
0.00048836148
0.00045362861
0.00041839444
0.00038320859
0.00034839044
0.00031428356
0.00028117469
0.00024928847
0.00021881474
0.000189909
0.00016268291
0.00013722426
0.00011360279
9.1876839e-05
7.2104409e-05
5.4354489e-05
3.8713e-05
2.5338998e-05
1.4534169e-05
6.7477183e-06
2.2645842e-06
4.8279879e-07
5.5262344e-08
2.8936436e-09
8.0651953e-10
3.301439e-05
1.0872941e-05
1.0899693e-05
1.090018e-05
1.0900166e-05
1.0900163e-05
1.0900162e-05
1.0900163e-05
1.0900162e-05
1.0900161e-05
1.090016e-05
1.0900161e-05
1.090016e-05
1.090016e-05
1.0900159e-05
1.090016e-05
1.0900159e-05
1.0900158e-05
1.0900159e-05
1.0900158e-05
1.0900156e-05
1.0900155e-05
1.0900153e-05
1.0900149e-05
1.0900152e-05
1.090015e-05
1.0900154e-05
1.090015e-05
1.0900217e-05
1.0901015e-05
1.0905032e-05
1.0918561e-05
1.0953131e-05
1.1014844e-05
1.1079905e-05
1.1107945e-05
1.1109732e-05
1.1091875e-05
1.1056021e-05
1.1024756e-05
1.0999247e-05
1.0963913e-05
1.0909054e-05
1.086122e-05
1.083104e-05
1.0811554e-05
1.0798277e-05
1.0787635e-05
1.078158e-05
1.0781618e-05
1.0784801e-05
1.0788697e-05
1.0797583e-05
1.0809114e-05
1.0820612e-05
1.0832772e-05
1.084731e-05
1.0861043e-05
1.087264e-05
1.088399e-05
1.0887246e-05
1.0869849e-05
1.079956e-05
1.0669236e-05
1.0641694e-05
1.0715563e-05
1.0946509e-05
1.1171701e-05
1.1238336e-05
1.1260954e-05
1.1260342e-05
1.1292649e-05
1.1358954e-05
1.1439966e-05
1.1525265e-05
1.161271e-05
1.1707953e-05
1.1817435e-05
1.1940509e-05
1.2074818e-05
1.2222467e-05
1.2389647e-05
1.2579018e-05
1.2788778e-05
1.3018817e-05
1.3274268e-05
1.3561664e-05
1.3889308e-05
1.4262843e-05
1.4687469e-05
1.5172e-05
1.5726799e-05
1.6365261e-05
1.7102204e-05
1.7940529e-05
1.8858532e-05
1.9799869e-05
2.0710478e-05
2.1670751e-05
2.2677643e-05
2.3684629e-05
2.461754e-05
2.5476526e-05
2.6286927e-05
2.6984249e-05
2.7514562e-05
2.8062955e-05
3.2922664e-05
8.9374761e-05
0.00024864762
0.00038709789
0.00048156757
0.00054913958
0.00059681233
0.00062850734
0.00064691642
0.00065415477
0.00065201095
0.00064205791
0.0006256899
0.00060416799
0.00057835991
0.00054929788
0.00051786708
0.00048477651
0.00045065362
0.00041602231
0.00038130786
0.00034696862
0.00031329085
0.00028054366
0.00024895084
0.0002187049
0.00018996985
0.00016286548
0.00013748733
0.0001139113
9.2196328e-05
7.2404994e-05
5.4611934e-05
3.8914902e-05
2.5483005e-05
1.4624353e-05
6.7930409e-06
2.2806902e-06
4.8631094e-07
5.5659205e-08
2.9065427e-09
8.0265579e-10
3.3105018e-05
1.0872661e-05
1.0899684e-05
1.090018e-05
1.0900166e-05
1.0900163e-05
1.0900163e-05
1.0900163e-05
1.0900162e-05
1.0900161e-05
1.090016e-05
1.0900161e-05
1.0900161e-05
1.0900161e-05
1.0900159e-05
1.0900159e-05
1.0900159e-05
1.0900158e-05
1.0900159e-05
1.0900158e-05
1.0900156e-05
1.0900155e-05
1.0900154e-05
1.0900149e-05
1.0900153e-05
1.090015e-05
1.0900154e-05
1.0900149e-05
1.0900214e-05
1.0900997e-05
1.0904956e-05
1.0918345e-05
1.0952674e-05
1.1014255e-05
1.1079625e-05
1.110802e-05
1.1110092e-05
1.1092625e-05
1.1056783e-05
1.1025479e-05
1.0999923e-05
1.0964839e-05
1.0910176e-05
1.0862217e-05
1.083176e-05
1.08122e-05
1.0798851e-05
1.0788186e-05
1.0781848e-05
1.0782019e-05
1.0785214e-05
1.078909e-05
1.0797844e-05
1.0809297e-05
1.0820792e-05
1.0832864e-05
1.0847254e-05
1.086101e-05
1.0872785e-05
1.088436e-05
1.0888634e-05
1.0873401e-05
1.0808191e-05
1.0679783e-05
1.0643882e-05
1.0707395e-05
1.09224e-05
1.1159693e-05
1.1236576e-05
1.1265844e-05
1.1266788e-05
1.1293818e-05
1.1358127e-05
1.1439348e-05
1.1525818e-05
1.1614309e-05
1.1709669e-05
1.1818794e-05
1.1941602e-05
1.2075676e-05
1.2222819e-05
1.2389314e-05
1.2578118e-05
1.2787322e-05
1.3016289e-05
1.3269919e-05
1.3553959e-05
1.38758e-05
1.4241432e-05
1.4656163e-05
1.5127758e-05
1.5665855e-05
1.6283427e-05
1.699611e-05
1.7815998e-05
1.8733969e-05
1.9713477e-05
2.0675643e-05
2.1640693e-05
2.2664415e-05
2.3719673e-05
2.4724853e-05
2.5630133e-05
2.6482288e-05
2.7256811e-05
2.7870105e-05
2.8422791e-05
3.18524e-05
7.6146218e-05
0.0002260745
0.00037001155
0.00046728545
0.00053649536
0.00058534495
0.00061802444
0.00063732083
0.00064537566
0.00064397977
0.00063470706
0.00061897731
0.00059808415
0.00057312449
0.00054480571
0.00051396074
0.00048138805
0.00044774993
0.00041357937
0.00037932888
0.00034536729
0.00031207442
0.00027967348
0.00024838911
0.00021840957
0.00018989941
0.00016297001
0.00013770739
0.0001141879
9.2488964e-05
7.2685395e-05
5.486131e-05
3.9119663e-05
2.5634891e-05
1.4722036e-05
6.8432949e-06
2.2988686e-06
4.9032268e-07
5.6116411e-08
2.9229303e-09
8.0003032e-10
3.3198307e-05
1.0872371e-05
1.0899675e-05
1.090018e-05
1.0900165e-05
1.0900163e-05
1.0900163e-05
1.0900163e-05
1.0900162e-05
1.0900162e-05
1.090016e-05
1.0900162e-05
1.0900161e-05
1.0900161e-05
1.090016e-05
1.0900158e-05
1.0900159e-05
1.0900158e-05
1.0900159e-05
1.0900158e-05
1.0900156e-05
1.0900155e-05
1.0900154e-05
1.090015e-05
1.0900153e-05
1.090015e-05
1.0900154e-05
1.0900149e-05
1.0900212e-05
1.0900979e-05
1.0904881e-05
1.0918125e-05
1.0952209e-05
1.101365e-05
1.1079333e-05
1.1108089e-05
1.1110456e-05
1.1093384e-05
1.1057549e-05
1.1026207e-05
1.1000612e-05
1.0965785e-05
1.0911319e-05
1.0863225e-05
1.0832493e-05
1.0812813e-05
1.0799579e-05
1.0788698e-05
1.078213e-05
1.0782372e-05
1.0785644e-05
1.0789433e-05
1.0798126e-05
1.0809513e-05
1.0820958e-05
1.0832948e-05
1.0847191e-05
1.0860977e-05
1.0872961e-05
1.0884709e-05
1.0889951e-05
1.087677e-05
1.0816583e-05
1.0690877e-05
1.0646478e-05
1.0700505e-05
1.0899077e-05
1.1145199e-05
1.1234385e-05
1.1269798e-05
1.1273488e-05
1.129589e-05
1.1357677e-05
1.1438596e-05
1.1526078e-05
1.1615659e-05
1.1711267e-05
1.1820098e-05
1.1942621e-05
1.207645e-05
1.2223073e-05
1.2388771e-05
1.2576895e-05
1.2785536e-05
1.3013574e-05
1.3265551e-05
1.3546664e-05
1.3863485e-05
1.4221905e-05
1.4627729e-05
1.5087649e-05
1.5610482e-05
1.6208279e-05
1.6896076e-05
1.7690496e-05
1.8598865e-05
1.9592158e-05
2.0615666e-05
2.1604089e-05
2.2635039e-05
2.3719834e-05
2.4793327e-05
2.5765985e-05
2.6655059e-05
2.7493737e-05
2.8193536e-05
2.8783439e-05
3.1201483e-05
6.467464e-05
0.0002023972
0.00035169523
0.00045235662
0.00052349809
0.00057369504
0.00060746746
0.00062772574
0.00063665571
0.00063606166
0.00062751601
0.00061242217
0.00059204148
0.00056751276
0.0005398613
0.00050972526
0.00047781503
0.00044474932
0.00041108663
0.00037730348
0.00034378297
0.00031083988
0.00027878666
0.00024779599
0.00021805588
0.00018972063
0.0001629164
0.00013774662
0.00011429638
9.2641254e-05
7.2857429e-05
5.5032201e-05
3.9272654e-05
2.5757785e-05
1.4807643e-05
6.8909453e-06
2.3173105e-06
4.9458462e-07
5.6615013e-08
2.9438776e-09
8.0082831e-10
3.3294391e-05
1.0872071e-05
1.0899665e-05
1.090018e-05
1.0900165e-05
1.0900163e-05
1.0900163e-05
1.0900163e-05
1.0900162e-05
1.0900162e-05
1.0900161e-05
1.0900162e-05
1.0900161e-05
1.0900161e-05
1.090016e-05
1.0900158e-05
1.0900159e-05
1.0900158e-05
1.0900159e-05
1.0900157e-05
1.0900156e-05
1.0900155e-05
1.0900155e-05
1.090015e-05
1.0900153e-05
1.090015e-05
1.0900154e-05
1.0900148e-05
1.0900209e-05
1.090096e-05
1.0904805e-05
1.0917903e-05
1.0951735e-05
1.1013031e-05
1.1079029e-05
1.1108153e-05
1.1110823e-05
1.1094149e-05
1.1058319e-05
1.1026943e-05
1.1001316e-05
1.0966752e-05
1.0912484e-05
1.086425e-05
1.083324e-05
1.0813384e-05
1.0800512e-05
1.078919e-05
1.0782467e-05
1.0782657e-05
1.0786085e-05
1.0789725e-05
1.0798407e-05
1.0809749e-05
1.0821122e-05
1.083302e-05
1.0847119e-05
1.0860963e-05
1.0873138e-05
1.0885061e-05
1.089119e-05
1.087998e-05
1.0824689e-05
1.0702438e-05
1.064955e-05
1.0694808e-05
1.0876846e-05
1.1128273e-05
1.1231631e-05
1.1272544e-05
1.1280231e-05
1.1298849e-05
1.1357577e-05
1.14377e-05
1.1526026e-05
1.161673e-05
1.171274e-05
1.1821352e-05
1.1943584e-05
1.2077182e-05
1.2223293e-05
1.2388113e-05
1.2575435e-05
1.2783445e-05
1.3010646e-05
1.326107e-05
1.3539509e-05
1.3851975e-05
1.4203982e-05
1.4601741e-05
1.5051216e-05
1.5560334e-05
1.6139766e-05
1.6803433e-05
1.7569352e-05
1.8455802e-05
1.9453512e-05
2.0505479e-05
2.1558568e-05
2.2596553e-05
2.369461e-05
2.4818352e-05
2.5874854e-05
2.6814175e-05
2.7704313e-05
2.848846e-05
2.9136357e-05
3.0885142e-05
5.5451937e-05
0.00017846414
0.00033215717
0.00043676316
0.0005100773
0.00056175859
0.00059672579
0.00061803117
0.00062790787
0.00062817062
0.00062039083
0.00060597291
0.00058618323
0.00056216357
0.00053494198
0.00050539103
0.00047405074
0.00044155115
0.00040842747
0.00037513557
0.00034205234
0.0003094982
0.00027773737
0.000247029
0.00021753323
0.00018941084
0.00016278394
0.00013775201
0.00011440028
9.2806884e-05
7.3052324e-05
5.5229194e-05
3.9450553e-05
2.5901486e-05
1.4908333e-05
6.9474452e-06
2.3393958e-06
4.9973329e-07
5.7221396e-08
2.9705992e-09
8.032625e-10
3.339329e-05
1.0871762e-05
1.0899654e-05
1.090018e-05
1.0900165e-05
1.0900162e-05
1.0900163e-05
1.0900163e-05
1.0900162e-05
1.0900162e-05
1.0900161e-05
1.0900161e-05
1.0900161e-05
1.0900161e-05
1.090016e-05
1.0900158e-05
1.0900159e-05
1.0900158e-05
1.0900159e-05
1.0900157e-05
1.0900157e-05
1.0900155e-05
1.0900155e-05
1.0900151e-05
1.0900153e-05
1.090015e-05
1.0900154e-05
1.0900148e-05
1.0900206e-05
1.090094e-05
1.0904728e-05
1.0917679e-05
1.0951253e-05
1.1012396e-05
1.1078714e-05
1.1108212e-05
1.1111188e-05
1.1094918e-05
1.1059094e-05
1.1027694e-05
1.1002036e-05
1.0967733e-05
1.0913671e-05
1.086529e-05
1.0833996e-05
1.0813981e-05
1.0801069e-05
1.0789668e-05
1.0782903e-05
1.0782883e-05
1.0786511e-05
1.0789991e-05
1.079866e-05
1.080998e-05
1.0821286e-05
1.0833073e-05
1.0847036e-05
1.086095e-05
1.0873326e-05
1.0885407e-05
1.0892372e-05
1.088305e-05
1.0832477e-05
1.0714396e-05
1.0652906e-05
1.0690263e-05
1.0855948e-05
1.110908e-05
1.1228196e-05
1.1273991e-05
1.1286711e-05
1.1302692e-05
1.1357706e-05
1.1436669e-05
1.1525651e-05
1.1617455e-05
1.1714027e-05
1.1822529e-05
1.1944516e-05
1.2077952e-05
1.2223592e-05
1.2387479e-05
1.2573868e-05
1.2781117e-05
1.3007499e-05
1.3256439e-05
1.3532379e-05
1.3840852e-05
1.4187527e-05
1.4577861e-05
1.501804e-05
1.5515053e-05
1.6077801e-05
1.6718973e-05
1.7456457e-05
1.8313295e-05
1.9299329e-05
2.0371921e-05
2.1468309e-05
2.2553705e-05
2.3655641e-05
2.4806164e-05
2.5941651e-05
2.6956758e-05
2.7887662e-05
2.874633e-05
2.9466855e-05
3.07983e-05
4.8205049e-05
0.00015464678
0.00031117224
0.00042046168
0.00049626304
0.00054959879
0.00058586663
0.00060829683
0.00061918654
0.00062037136
0.00061342546
0.00059974948
0.0005806036
0.00055711861
0.00053030307
0.0005010573
0.00047019054
0.00043816165
0.0004054989
0.00037264761
0.00033998384
0.00030782967
0.00027644973
0.00024605372
0.00021683956
0.00018895567
0.00016252663
0.00013765226
0.00011441895
9.2907181e-05
7.3200866e-05
5.539696e-05
3.9613454e-05
2.604069e-05
1.5010657e-05
7.0073061e-06
2.3635865e-06
5.0549825e-07
5.790862e-08
3.0027856e-09
8.083008e-10
3.3495131e-05
1.0871442e-05
1.0899643e-05
1.090018e-05
1.0900165e-05
1.0900162e-05
1.0900163e-05
1.0900163e-05
1.0900162e-05
1.0900162e-05
1.0900161e-05