/*--------------------------------*- C++ -*----------------------------------*\
| =========                 |                                                 |
| \\      /  F ield         | OpenFOAM: The Open Source CFD Toolbox           |
|  \\    /   O peration     | Version:  2506                                  |
|   \\  /    A nd           | Website:  www.openfoam.com                      |
|    \\/     M anipulation  |                                                 |
\*---------------------------------------------------------------------------*/
FoamFile
{
    version     2.0;
    format      ascii;
    arch        "LSB;label=32;scalar=64";
    class       volScalarField;
    location    "0.95";
    object      T;
}
// * * * * * * * * * * * * * * * * * * * * * * * * * * * * * * * * * * * * * //

dimensions      [0 0 0 1 0 0 0];

internalField   nonuniform List<scalar> 
1375
(
245.66229
245.67252
245.68518
245.69871
245.71101
245.72631
245.74555
245.76877
245.79597
245.82519
245.8593
245.89846
245.94196
245.9922
246.05227
246.12294
246.20481
246.30113
246.4206
246.57647
246.77923
247.03598
247.36389
247.79309
248.41718
248.98188
245.59556
245.59361
245.57534
245.5844
245.58497
245.58705
245.58945
245.59129
245.59383
245.59648
245.59959
245.60338
245.60755
245.611
245.61391
245.61795
245.62278
245.62706
245.63022
245.6355
245.64203
245.64776
245.65387
245.66131
245.67157
245.68414
245.6979
245.7102
245.72471
245.74364
245.7673
245.79437
245.82292
245.85647
245.8956
245.9393
245.98933
246.04893
246.119
246.19968
246.29465
246.41414
246.57285
246.77838
247.03319
247.35521
247.77784
248.39468
248.95228
245.59337
245.59201
245.57506
245.58474
245.58535
245.58697
245.58919
245.59161
245.59394
245.59585
245.59855
245.60236
245.60672
245.61031
245.61328
245.61725
245.62194
245.62599
245.62915
245.63427
245.64062
245.6462
245.65186
245.65929
245.66949
245.68191
245.69564
245.70763
245.72141
245.73999
245.76387
245.79037
245.81795
245.85069
245.88951
245.9331
245.98268
246.04131
246.11004
246.18882
246.28224
246.40227
246.56338
246.76875
247.01694
247.32966
247.74414
248.35187
248.89737
245.59055
245.59013
245.57501
245.58531
245.58703
245.58879
245.59106
245.59282
245.59451
245.59632
245.59847
245.60192
245.60614
245.6097
245.61271
245.6164
245.62063
245.62415
245.62717
245.63214
245.63841
245.64376
245.64894
245.65644
245.66651
245.67876
245.69221
245.70366
245.71689
245.73522
245.75916
245.78485
245.81143
245.84331
245.88156
245.92495
245.97413
246.0316
246.09886
246.17557
246.26761
246.38852
246.55097
246.75339
246.99292
247.2967
247.70018
248.29426
248.81083
245.58779
245.58861
245.57678
245.58371
245.58616
245.58876
245.59136
245.59287
245.59438
245.59598
245.59814
245.60169
245.60562
245.60895
245.61173
245.61499
245.61876
245.62173
245.62468
245.62942
245.63552
245.64038
245.64512
245.65265
245.66248
245.67437
245.68713
245.6978
245.71059
245.7287
245.75217
245.77653
245.80205
245.83298
245.87045
245.91323
245.96149
246.01751
246.08274
246.1571
246.24804
246.36986
246.53236
246.72779
246.95801
247.25058
247.64115
248.21083
248.69354
245.58632
245.58824
245.57835
245.58224
245.58519
245.58756
245.59057
245.5928
245.59412
245.59511
245.59744
245.60109
245.60451
245.60733
245.60978
245.61281
245.6163
245.61882
245.6219
245.62649
245.63231
245.63628
245.64062
245.64801
245.65742
245.66874
245.68046
245.69035
245.70283
245.72059
245.74303
245.76566
245.78998
245.81982
245.85633
245.89809
245.94496
245.99921
246.06151
246.13353
246.22401
246.34602
246.50403
246.69035
246.9107
247.1935
247.56363
248.1029
248.53557
245.58486
245.58729
245.57874
245.5813
245.58461
245.58793
245.59138
245.5935
245.59408
245.59468
245.59671
245.60003
245.60269
245.60485
245.60709
245.61
245.61316
245.61529
245.61841
245.6229
245.62837
245.63123
245.63538
245.64243
245.65115
245.66178
245.67226
245.68153
245.69375
245.71087
245.73184
245.75262
245.77568
245.80431
245.8397
245.88001
245.92529
245.97719
246.03624
246.10627
246.19525
246.31513
246.46639
246.64329
246.85421
247.12389
247.47642
247.97183
248.34867
245.58321
245.58591
245.57918
245.58092
245.58339
245.58774
245.59114
245.59322
245.59353
245.59395
245.5957
245.59852
245.60047
245.60222
245.60439
245.60726
245.60981
245.61149
245.6147
245.61912
245.62367
245.62518
245.62936
245.63615
245.64396
245.65381
245.66294
245.67169
245.68343
245.6995
245.71879
245.73774
245.7595
245.78692
245.82107
245.85947
245.90292
245.9519
246.0076
246.07605
246.16147
246.27865
246.4237
246.58783
246.78873
247.03687
247.37025
247.82593
248.12173
245.58283
245.58522
245.57974
245.58105
245.58321
245.58795
245.59076
245.59157
245.5919
245.59261
245.5942
245.5962
245.59752
245.59944
245.60199
245.60459
245.60658
245.60775
245.61053
245.615
245.61856
245.61909
245.62306
245.6294
245.63612
245.64515
245.65305
245.66129
245.67211
245.68672
245.70421
245.72144
245.74184
245.76812
245.80063
245.83676
245.87802
245.92353
245.97696
246.04006
246.12052
246.23552
246.37079
246.52937
246.71853
246.95958
247.2452
247.64825
247.86777
245.58195
245.58349
245.5794
245.58165
245.58495
245.58933
245.59102
245.59116
245.59102
245.59141
245.59284
245.59452
245.59562
245.59695
245.599
245.60059
245.60166
245.60326
245.60606
245.61062
245.61272
245.61272
245.61651
245.62203
245.62769
245.63594
245.64289
245.65059
245.66006
245.67287
245.68847
245.7041
245.72308
245.74821
245.77839
245.81196
245.85084
245.89313
245.94192
245.99915
246.07943
246.18854
246.30991
246.44945
246.62528
246.85533
247.12832
247.45639
247.57118
245.58437
245.58369
245.57805
245.58058
245.58428
245.58956
245.59086
245.59111
245.59056
245.59039
245.59122
245.59276
245.5938
245.59508
245.59672
245.59741
245.59698
245.59848
245.60121
245.60535
245.60594
245.60595
245.60977
245.61427
245.61907
245.62648
245.63251
245.63925
245.64702
245.6582
245.67208
245.68603
245.70355
245.72726
245.75438
245.78549
245.82178
245.86039
245.90367
245.9523
246.0328
246.13913
246.24937
246.38091
246.53855
246.7393
246.96543
247.24383
247.23875
245.58433
245.5832
245.5783
245.58151
245.58552
245.59013
245.5906
245.59
245.59161
245.59173
245.59032
245.59064
245.59138
245.59302
245.59425
245.59464
245.59354
245.59456
245.59722
245.59993
245.59928
245.59922
245.60297
245.60636
245.61075
245.61716
245.62198
245.62716
245.63302
245.64287
245.65521
245.66742
245.68354
245.70513
245.72881
245.75747
245.79158
245.82401
245.8601
245.90919
245.98823
246.07402
246.17004
246.2808
246.43736
246.6222
246.82236
247.01308
246.88238
245.59043
245.58277
245.58065
245.58287
245.5871
245.58989
245.59018
245.58768
245.58275
245.59005
245.59099
245.58972
245.58945
245.59016
245.59101
245.5915
245.59077
245.5918
245.59347
245.59473
245.59342
245.59326
245.59658
245.59877
245.6028
245.60783
245.61117
245.61414
245.61851
245.62744
245.63808
245.64817
245.66283
245.68162
245.70167
245.72946
245.75866
245.78666
245.81588
245.86194
245.9438
246.02655
246.11589
246.20675
246.31928
246.47194
246.64012
246.7852
246.47435
245.59148
245.58546
245.58387
245.58591
245.58957
245.59028
245.58812
245.58834
245.58393
245.58179
245.58826
245.58857
245.58836
245.58814
245.58788
245.5878
245.58755
245.58808
245.58964
245.58946
245.588
245.58724
245.58944
245.59109
245.59474
245.59854
245.60067
245.60084
245.60375
245.61201
245.62078
245.62878
245.64169
245.65675
245.67462
245.70119
245.72583
245.74654
245.77115
245.82479
245.88517
245.96208
246.05068
246.12618
246.22435
246.33824
246.43873
246.52491
246.08936
245.58748
245.581
245.58194
245.58569
245.59051
245.58977
245.58648
245.58447
245.58871
245.58603
245.58715
245.58711
245.58681
245.58622
245.58566
245.58484
245.58466
245.58447
245.5851
245.58431
245.58242
245.58148
245.58218
245.58372
245.58663
245.58924
245.58982
245.58804
245.58991
245.59699
245.60319
245.60951
245.62021
245.63116
245.64809
245.67282
245.69116
245.70667
245.73364
245.7847
245.84297
245.91864
245.99781
246.05217
246.10272
246.16904
246.24543
246.27238
245.62908
245.5845
245.57445
245.57807
245.58482
245.5893
245.58783
245.58554
245.58154
245.58382
245.5869
245.58522
245.58443
245.58507
245.58387
245.58266
245.5825
245.58183
245.58189
245.58122
245.57963
245.57797
245.57648
245.57567
245.57737
245.57903
245.58095
245.57865
245.57504
245.57713
245.58252
245.58605
245.59061
245.59834
245.60603
245.62229
245.64347
245.6552
245.66901
245.69142
245.73828
245.77859
245.84417
245.92447
245.9777
246.01751
246.01806
245.97661
245.96362
245.26899
245.58265
245.57375
245.57635
245.58358
245.58729
245.58556
245.58465
245.58226
245.58279
245.58511
245.58382
245.58063
245.58219
245.58073
245.57978
245.57892
245.57882
245.57819
245.57748
245.57505
245.57294
245.57117
245.57001
245.57128
245.57203
245.57264
245.56781
245.56297
245.56441
245.56799
245.56943
245.572
245.57596
245.58245
245.59846
245.61314
245.62054
245.62859
245.66004
245.69321
245.74306
245.75065
245.80601
245.84949
245.87941
245.84876
245.78482
245.70715
244.83337
245.57796
245.57691
245.57837
245.58305
245.58492
245.58326
245.58329
245.58352
245.5834
245.58386
245.58344
245.58165
245.57986
245.57738
245.57779
245.57583
245.57605
245.57424
245.57291
245.57168
245.56823
245.56485
245.56457
245.56516
245.56542
245.56371
245.55592
245.55255
245.55286
245.55354
245.55281
245.55382
245.5536
245.55916
245.57336
245.5825
245.5846
245.59631
245.6144
245.64213
245.68116
245.67273
245.70252
245.75933
245.74188
245.68282
245.45448
245.35594
244.53462
245.57516
245.57726
245.5793
245.58311
245.58289
245.58142
245.58128
245.58274
245.58384
245.58379
245.5827
245.58172
245.58
245.57449
245.57571
245.57481
245.57433
245.57241
245.56883
245.56821
245.56446
245.55968
245.55974
245.55955
245.55865
245.55396
245.54466
245.54199
245.54123
245.53857
245.53692
245.53422
245.53147
245.53748
245.54663
245.54863
245.54769
245.5548
245.57155
245.57576
245.61207
245.55185
245.48598
245.57409
245.6114
245.50223
245.19912
245.08168
244.33729
245.57541
245.58066
245.5799
245.58294
245.58143
245.58015
245.57962
245.58177
245.58344
245.58341
245.58166
245.58014
245.57988
245.57503
245.57371
245.57309
245.57247
245.57049
245.56667
245.56474
245.56032
245.55658
245.55561
245.55478
245.55234
245.54421
245.53457
245.53163
245.53003
245.52341
245.51997
245.51469
245.51141
245.51634
245.51805
245.51464
245.51238
245.50976
245.52497
245.52698
245.50944
245.48119
245.5171
245.42206
245.2928
245.30005
244.99443
244.74096
244.18082
244.1459
244.50571
244.57908
245.04088
245.16365
245.34981
245.47186
245.35876
245.33018
245.44957
245.45036
245.47471
245.47283
245.47944
245.48752
245.49381
245.49126
245.4936
245.50142
245.50821
245.51708
245.52122
245.52408
245.53468
245.54508
245.54979
245.55092
245.55284
245.55619
245.56134
245.5639
245.56708
245.56909
245.56993
245.57131
245.57507
245.57886
245.57832
245.58044
245.58247
245.58277
245.58112
245.5785
245.57892
245.57995
245.58286
245.58024
245.57921
245.56735
243.98773
244.36882
244.5633
244.87155
244.98363
245.16684
245.10726
245.2826
245.34515
245.37867
245.40059
245.41959
245.43032
245.44292
245.45607
245.46882
245.47051
245.47389
245.48354
245.49262
245.50269
245.51047
245.5143
245.52545
245.53687
245.54383
245.54629
245.54919
245.55209
245.55695
245.55964
245.56266
245.56623
245.56814
245.56966
245.57444
245.57753
245.57874
245.57965
245.58144
245.58224
245.58
245.57759
245.57775
245.57886
245.58285
245.58028
245.57831
245.56405
243.86608
244.15357
244.4959
244.77667
244.76281
245.00711
245.0851
245.28513
245.31045
245.31974
245.3613
245.37225
245.39085
245.40857
245.42399
245.44331
245.45047
245.45627
245.46591
245.4761
245.48746
245.49889
245.50515
245.51584
245.52797
245.53749
245.54202
245.54522
245.54764
245.55155
245.55635
245.56063
245.56358
245.56673
245.56915
245.57418
245.57623
245.57915
245.57902
245.58039
245.58151
245.57931
245.57722
245.57671
245.57819
245.58237
245.58037
245.57699
245.55769
243.94019
244.04931
244.31668
244.62398
244.60188
244.95165
245.05311
245.17951
245.14513
245.25421
245.2951
245.3354
245.34864
245.36797
245.3905
245.41395
245.42682
245.43711
245.44827
245.45986
245.47367
245.4869
245.4962
245.50681
245.51953
245.53075
245.53716
245.54093
245.54433
245.54938
245.55406
245.55804
245.5622
245.56559
245.56809
245.57333
245.57506
245.57857
245.5786
245.57919
245.58033
245.57885
245.5773
245.57697
245.57733
245.58157
245.58048
245.57627
245.55213
244.09299
243.91272
244.35315
244.51879
244.53198
244.80152
244.90803
245.0094
245.10462
245.21233
245.22967
245.26627
245.30961
245.33493
245.35641
245.38196
245.40169
245.4181
245.43326
245.44666
245.46047
245.47511
245.48642
245.49728
245.51218
245.52428
245.53167
245.5369
245.54057
245.54791
245.55225
245.55631
245.56045
245.56402
245.56601
245.5709
245.57376
245.57806
245.5781
245.57887
245.57973
245.57896
245.57751
245.57679
245.57635
245.58125
245.5809
245.57598
245.55312
243.99436
243.75674
244.34383
244.49757
244.51167
244.74554
244.75171
244.93655
245.12255
245.15019
245.18513
245.22184
245.26772
245.29578
245.32678
245.35618
245.37867
245.39937
245.41771
245.43348
245.44795
245.4633
245.47776
245.48948
245.50408
245.51809
245.52784
245.53377
245.53673
245.54196
245.5493
245.55652
245.55892
245.56205
245.56488
245.56862
245.57223
245.57656
245.57764
245.57859
245.57941
245.57902
245.57799
245.57696
245.57572
245.58126
245.58183
245.5758
245.55469
244.43546
244.7223
244.73653
244.90892
244.97164
245.04444
245.10613
245.18001
245.2326
245.26639
245.29482
245.32444
245.35161
245.37644
245.40095
245.42032
245.43794
245.45412
245.46929
245.48204
245.49675
245.50992
245.52239
245.53166
245.53538
245.54107
245.54749
245.55163
245.55701
245.56039
245.56441
245.56787
245.57107
245.57467
245.57712
245.57827
245.57916
245.57908
245.5786
245.57817
245.57641
245.58121
245.58272
245.57637
245.55552
245.1885
245.23875
245.26955
245.30203
245.3292
245.3595
245.38626
245.4084
245.42647
245.44311
245.45988
245.47486
245.49089
245.50218
245.5151
245.52656
245.53252
245.5392
245.5457
245.55196
245.55586
245.55944
245.56365
245.56716
245.57016
245.57344
245.57653
245.57809
245.57944
245.57965
245.57907
245.57907
245.57722
245.58194
245.5839
245.57746
245.55607
245.45292
245.47024
245.48476
245.49896
245.51193
245.51999
245.52804
245.53332
245.54311
245.55194
245.55505
245.55879
245.56292
245.56631
245.56919
245.57287
245.5758
245.57737
245.57929
245.58017
245.5799
245.57975
245.57834
245.58274
245.58505
245.57788
245.55631
245.56221
245.56561
245.56835
245.57243
245.57615
245.5774
245.57898
245.58087
245.58112
245.58045
245.57923
245.58322
245.58515
245.57783
245.55542
)
;

boundaryField
{
    Side
    {
        type            empty;
    }
    Inlet
    {
        type            totalTemperature;
        gamma           1.4;
        T0              uniform 250;
        value           nonuniform List<scalar> 
29
(
245.59014
245.59044
245.59087
245.59136
245.59183
245.59223
245.59254
245.59272
245.59287
245.59294
245.59313
245.59318
245.59347
245.59358
245.59318
245.59298
245.59299
245.59266
245.59224
245.59119
245.58764
245.58457
245.58247
245.58276
245.58316
245.58334
245.58332
245.58308
245.58252
)
;
    }
    Airfoil
    {
        type            zeroGradient;
    }
    Outlet
    {
        type            inletOutlet;
        inletValue      nonuniform List<scalar> 0();
        value           nonuniform List<scalar> 0();
    }
    procBoundary0to1
    {
        type            processor;
        value           nonuniform List<scalar> 
53
(
244.0818
243.76217
244.1513
244.43061
244.43061
244.35739
244.6734
244.69564
244.84462
244.86613
244.96485
244.99103
245.09212
245.09212
245.1387
245.18201
245.23923
245.28144
245.31243
245.34113
245.36943
245.39486
245.4157
245.43389
245.43389
245.44439
245.46461
245.47945
245.49325
245.50823
245.51929
245.52788
245.53589
245.54175
245.54678
245.55358
245.55808
245.55808
245.56162
245.565
245.56761
245.57184
245.57582
245.57782
245.57951
245.58141
245.5821
245.58162
245.57947
245.5829
245.58503
245.57759
245.5545
)
;
    }
    procBoundary0to7
    {
        type            processor;
        value           nonuniform List<scalar> 
50
(
245.66156
245.67167
245.68429
245.69719
245.70921
245.72511
245.74436
245.76688
245.79381
245.82326
245.85754
245.8963
245.9392
245.98931
246.04912
246.11955
246.20184
246.29862
246.41756
246.57004
246.76826
247.02339
247.3523
247.77969
248.39536
248.95216
245.59659
245.59441
245.57543
245.58397
245.58536
245.58795
245.58988
245.59215
245.59432
245.59639
245.59924
245.60316
245.60756
245.61122
245.61419
245.61815
245.62291
245.6271
245.63025
245.63575
245.64235
245.64813
245.65465
245.65465
)
;
    }
}


// ************************************************************************* //
