/*--------------------------------*- C++ -*----------------------------------*\
| =========                 |                                                 |
| \\      /  F ield         | OpenFOAM: The Open Source CFD Toolbox           |
|  \\    /   O peration     | Version:  2506                                  |
|   \\  /    A nd           | Website:  www.openfoam.com                      |
|    \\/     M anipulation  |                                                 |
\*---------------------------------------------------------------------------*/
FoamFile
{
    version     2.0;
    format      ascii;
    arch        "LSB;label=32;scalar=64";
    class       volVectorField;
    location    "0.009";
    object      U;
}
// * * * * * * * * * * * * * * * * * * * * * * * * * * * * * * * * * * * * * //

dimensions      [0 1 -1 0 0 0 0];

internalField   nonuniform List<vector> 
13761
(
(3.3011108 0.77358242 1.4682235e-17)
(10.203554 2.3915214 0)
(17.70565 4.150166 4.5760093e-22)
(25.7372 6.0331899 0)
(33.877045 7.9419311 4.0075731e-22)
(41.400651 9.7065242 -1.2013007e-17)
(47.854332 11.220544 1.0891715e-17)
(53.264914 12.490251 0)
(57.847144 13.565979 0)
(61.80674 14.495932 8.1345276e-18)
(65.30128 15.317033 -7.4310011e-18)
(68.443182 16.055622 8.3164558e-22)
(71.310678 16.730029 7.653414e-22)
(3.3246069 0.7926542 1.4890612e-17)
(10.271397 2.4491879 4.8800619e-22)
(17.816101 4.2483705 -9.2844406e-22)
(25.886087 6.1729677 -1.4340434e-17)
(34.054732 8.1212864 2.6638403e-17)
(41.593682 9.9196184 -1.217933e-17)
(48.05208 11.460394 0)
(53.461236 12.751066 6.0950547e-22)
(58.038606 13.84349 0)
(61.991182 14.787021 -1.0061456e-21)
(65.476879 15.619303 0)
(68.608318 16.367181 -8.4272123e-22)
(71.464288 17.049429 -7.7539656e-22)
(74.102256 17.679738 7.1540297e-22)
(76.565462 18.268415 0)
(78.886886 18.823317 1.225198e-21)
(81.092354 19.350602 1.1364982e-21)
(83.20237 19.855158 0)
(85.233062 20.340831 -1.9628416e-21)
(87.198138 20.810891 0)
(89.110076 21.268323 0)
(90.97946 21.715664 0)
(92.815577 22.155154 -1.4756726e-21)
(94.627162 22.588914 0)
(96.421907 23.018827 2.6207991e-18)
(98.206959 23.446663 -2.4417982e-18)
(3.3301194 0.80657673 -1.5105915e-17)
(10.284754 2.4912055 -1.6225133e-17)
(17.83385 4.3198407 1.5432238e-17)
(25.904511 6.2748805 -1.4547392e-17)
(34.071432 8.2533246 -3.9900436e-24)
(41.608651 10.079306 1.2358225e-17)
(48.066002 11.643745 6.8377494e-22)
(53.474158 12.954069 -1.0136411e-17)
(58.050131 14.062848 1.8379531e-17)
(62.000803 15.020186 5.2345456e-22)
(65.484125 15.864329 -1.5280751e-17)
(68.612794 16.622558 7.0046104e-18)
(71.465701 17.313966 6.4446731e-18)
(74.100417 17.952484 1.7711309e-23)
(76.560257 18.548587 -1.0996233e-17)
(78.878328 19.110284 5.090813e-18)
(81.080619 19.643863 4.7217717e-18)
(83.187722 20.154302 2.2446627e-23)
(85.215821 20.645522 -4.0734817e-18)
(87.178728 21.120869 3.7955235e-18)
(89.089017 21.583398 -3.5290475e-18)
(90.957334 22.035709 0)
(92.793024 22.480098 -3.0630132e-18)
(94.604994 22.918762 2.8535435e-18)
(96.40121 23.353684 5.1936836e-21)
(98.18903 23.78671 -2.4199168e-21)
(99.975296 24.219586 -2.3062334e-18)
(101.76635 24.653957 -4.2373259e-21)
(103.56818 25.091417 3.9977875e-18)
(105.38617 25.533447 -1.8647071e-18)
(107.22535 25.981475 0)
(109.09053 26.436917 1.6212927e-18)
(3.3371312 0.81989717 -1.5326785e-17)
(10.303214 2.5314689 1.646198e-17)
(17.86104 4.3884735 -9.5479453e-22)
(25.937081 6.3728 0)
(34.106002 8.3800086 4.1765559e-22)
(41.642636 10.231886 0)
(48.097318 11.817897 -6.9227376e-22)
(53.500724 13.145575 0)
(58.069886 14.268245 0)
(62.011823 15.236759 0)
(65.484693 16.089955 -9.4265811e-22)
(68.60146 16.855562 0)
(71.441337 17.553028 6.5076646e-18)
(74.062413 18.196761 -1.200394e-17)
(76.508947 18.797226 5.5558061e-18)
(78.814313 19.362943 0)
(81.00493 19.900295 1.166153e-21)
(83.10176 20.414375 0)
(85.121155 20.909352 -2.0163184e-21)
(87.077253 21.388694 -1.8762523e-21)
(88.983121 21.855478 -1.746599e-21)
(90.84976 22.31248 1.6265852e-21)
(92.686711 22.762094 0)
(94.502716 23.206508 -2.824462e-21)
(96.305441 23.647663 -2.6330614e-21)
(98.102104 24.087407 0)
(99.899465 24.527498 2.336575e-18)
(101.7037 24.969576 -2.1811982e-18)
(103.5207 25.415241 2.035693e-18)
(105.35604 25.866054 3.7328079e-21)
(107.21465 26.323444 -1.7611535e-18)
(109.10057 26.788643 0)
(111.01697 27.262696 0)
(112.96673 27.746588 -1.4176413e-18)
(114.95271 28.24134 1.3226681e-18)
(116.97772 28.748011 -9.5625068e-21)
(1.6363616 -0.40208003 -2.4738273e-22)
(5.0222587 -1.2338979 0)
(8.6667343 -2.1292189 4.9983536e-22)
(12.577135 -3.089784 1.5500916e-17)
(16.719173 -4.1071451 -1.4572013e-17)
(20.967265 -5.1504259 -4.1456099e-22)
(25.087004 -6.1620232 0)
(28.851944 -7.0862954 0)
(32.165072 -7.8994049 1.0585771e-17)
(35.044775 -8.6058656 -9.6991775e-18)
(37.557818 -9.2220688 -1.0851905e-21)
(39.774411 -9.7652451 4.1390722e-25)
(41.75301 -10.249734 0)
(43.540217 -10.686965 0)
(45.172588 -11.085908 0)
(46.67847 -11.453492 -1.4443759e-21)
(48.080068 -11.794895 -5.4836226e-18)
(49.392949 -12.114379 5.0902565e-18)
(50.630432 -12.414807 -2.3103491e-21)
(51.803291 -12.698897 0)
(52.92134 -12.969009 -8.2497374e-25)
(53.993097 -13.227047 1.8522891e-21)
(55.024812 -13.474676 0)
(56.021969 -13.713176 0)
(56.988973 -13.943571 -2.9693413e-21)
(57.929408 -14.166695 1.137035e-24)
(58.846132 -14.38321 2.6256126e-18)
(59.741253 -14.593592 -2.435034e-18)
(60.616217 -14.798157 0)
(61.471739 -14.997037 0)
(62.307833 -15.190191 7.5919778e-21)
(63.12408 -15.377467 -1.7944304e-18)
(63.9199 -15.558669 1.6759644e-18)
(64.694999 -15.733664 6.0403392e-21)
(65.449939 -15.902524 1.4380167e-18)
(66.186708 -16.065659 -1.3368594e-18)
(66.909745 -16.224118 0)
(67.627394 -16.380182 0)
(68.354003 -16.538533 0)
(69.097986 -16.699581 7.6064149e-21)
(69.535694 -16.776642 0)
(69.597439 -16.752474 1.2949315e-20)
(69.588211 -16.708944 0)
(69.575724 -16.659839 7.0392501e-19)
(69.561933 -16.606188 -6.4874014e-19)
(69.547092 -16.54824 1.8687463e-20)
(69.531424 -16.485903 5.6820608e-19)
(69.514775 -16.418776 -9.9966124e-19)
(69.497071 -16.346445 4.9716796e-19)
(69.477888 -16.268577 -4.0425696e-19)
(69.457217 -16.184708 3.9735062e-19)
(69.435547 -16.094353 -4.5768792e-20)
(1.642693 -0.39792727 -1.5979319e-17)
(5.0426976 -1.2214019 3.3991532e-17)
(8.7035247 -2.1080514 -1.6145939e-17)
(12.632704 -3.0596275 -1.527736e-17)
(16.795535 -4.0677134 -1.2281894e-24)
(21.064799 -5.1014782 1.3384631e-17)
(25.203743 -6.1035627 -7.554339e-22)
(28.984891 -7.0188603 0)
(32.311875 -7.8240277 -1.0430221e-17)
(35.204073 -8.5237537 9.5570565e-18)
(37.728914 -9.1343587 -8.7599178e-18)
(39.956951 -9.6729157 8.0459853e-18)
(41.946802 -10.153601 9.0369144e-22)
(43.745126 -10.587697 8.3328059e-22)
(45.38847 -10.984041 -6.3075613e-18)
(46.905233 -11.349487 1.4164955e-21)
(48.317666 -11.68921 5.400844e-18)
(49.642113 -12.007493 0)
(50.89155 -12.307169 -4.6603515e-18)
(52.076532 -12.590771 -2.1245788e-21)
(53.206152 -12.860577 -1.1371429e-23)
(54.288534 -13.118242 3.7390092e-18)
(55.329844 -13.365408 0)
(56.335471 -13.603316 -3.1506761e-21)
(57.309775 -13.832956 2.9282496e-21)
(58.256349 -14.05515 2.7195311e-21)
(59.178009 -14.270537 0)
(60.076777 -14.479565 -2.3951614e-18)
(60.95407 -14.682537 4.4578894e-18)
(61.810717 -14.879614 -2.0653783e-18)
(62.647018 -15.070828 1.9112792e-18)
(63.462851 -15.256103 -1.7887812e-18)
(64.257804 -15.435293 -1.657638e-18)
(65.031656 -15.608293 1.5177427e-18)
(65.784949 -15.775176 1.4111141e-18)
(66.519516 -15.93632 -1.2964941e-18)
(67.239416 -16.092662 -9.4503465e-21)
(67.952202 -16.24617 0)
(68.670944 -16.400858 0)
(69.413267 -16.561163 9.6661054e-19)
(69.929954 -16.658471 1.959117e-23)
(70.024462 -16.644334 -1.273966e-20)
(70.015119 -16.601944 -7.5289751e-19)
(70.000841 -16.554577 7.0472282e-19)
(69.984876 -16.503316 1.9998948e-20)
(69.968003 -16.44775 -6.0775891e-19)
(69.949627 -16.387928 -1.6976011e-20)
(69.930297 -16.323165 -5.9189787e-24)
(69.909805 -16.253375 0)
(69.888021 -16.178226 -2.6561475e-20)
(69.864979 -16.097235 0)
(69.840499 -16.009734 2.256277e-20)
(69.814441 -15.915513 3.741779e-19)
(69.78708 -15.814022 -3.4474755e-19)
(69.758709 -15.704695 0)
(69.72959 -15.587276 -3.2516428e-20)
(69.700382 -15.460941 0)
(69.671296 -15.325202 0)
(69.641829 -15.179175 0)
(69.611553 -15.022232 0)
(69.580481 -14.853661 -4.3180229e-20)
(69.549262 -14.672194 -2.3864139e-19)
(1.6469485 -0.392732 -2.4027014e-22)
(5.0570423 -1.2057646 5.1125858e-22)
(8.7302209 -2.0815612 0)
(12.67429 -3.0219008 4.5947765e-22)
(16.854294 -4.0184337 1.4157037e-17)
(21.141602 -5.0404896 -1.3192419e-17)
(25.297295 -6.0310914 7.448434e-22)
(29.092846 -6.9357407 -6.8431624e-22)
(32.432378 -7.7315712 6.2717512e-22)
(35.336099 -8.4233995 -5.7467671e-22)
(37.871962 -9.0274189 0)
(40.110751 -9.560493 0)
(42.111146 -10.036596 -1.7812126e-21)
(43.919807 -10.466826 -8.2137146e-22)
(45.573276 -10.859852 1.5172455e-21)
(47.099858 -11.22239 0)
(48.52158 -11.559979 0)
(49.856522 -11.876245 -1.2061598e-21)
(51.117101 -12.174536 0)
(52.313587 -12.457192 2.0840664e-21)
(53.454747 -12.726297 -7.5165527e-25)
(54.547949 -12.983411 0)
(55.599358 -13.230025 1.6711187e-21)
(56.614268 -13.46736 3.1060357e-21)
(57.59692 -13.696376 0)
(58.550817 -13.917863 2.7437162e-18)
(59.478768 -14.132444 -2.5477199e-18)
(60.38287 -14.340577 -9.2380549e-21)
(61.264603 -14.542569 -4.2867363e-21)
(62.1248 -14.738573 3.9744792e-21)
(62.963747 -14.928611 0)
(63.781343 -15.112613 6.8333291e-21)
(64.577245 -15.290454 6.3320547e-21)
(65.351307 -15.462055 0)
(66.104115 -15.62751 5.4299317e-21)
(66.837467 -15.7872 -1.2874208e-18)
(67.555176 -15.941988 -1.6123271e-23)
(68.264142 -16.093595 1.0949078e-18)
(68.976197 -16.24545 1.0136046e-18)
(69.709913 -16.403506 -9.450804e-19)
(70.29916 -16.520342 1.3635713e-20)
(70.440727 -16.520471 -7.9260153e-19)
(70.433997 -16.480562 7.4227038e-19)
(70.417508 -16.43534 0)
(70.399547 -16.385751 -6.5019041e-19)
(70.380275 -16.332194 5.9919458e-19)
(70.359888 -16.274536 0)
(70.338126 -16.212435 -1.542387e-20)
(70.315027 -16.145467 0)
(70.290385 -16.073255 -3.9288557e-19)
(70.26431 -15.99536 2.4115044e-20)
(70.237237 -15.911288 3.3360921e-19)
(70.209244 -15.820759 3.4840594e-19)
(70.180102 -15.723087 3.7790652e-20)
(70.14957 -15.617571 -2.7839325e-19)
(70.117906 -15.503907 3.2070622e-20)
(70.085879 -15.381397 -2.0681403e-19)
(70.053706 -15.249643 2.7217376e-19)
(70.020855 -15.107873 2.0062443e-19)
(69.986891 -14.955204 -3.6964642e-19)
(69.952399 -14.791124 1.2770274e-19)
(69.918109 -14.614449 7.8412717e-20)
(69.883729 -14.42441 7.2260189e-20)
(69.849312 -14.219986 -1.9961551e-19)
(69.815256 -14.000065 0)
(69.781241 -13.763348 0)
(69.746129 -13.508935 0)
(1.64854 -0.38640262 -1.5525901e-17)
(5.0634869 -1.1867019 1.651992e-17)
(8.7436859 -2.0492284 -1.5697956e-17)
(12.697254 -2.9758222 1.4856211e-17)
(16.889118 -3.9582442 -4.2638543e-22)
(21.189533 -4.9660978 -1.4676296e-25)
(25.357716 -5.9430189 -7.3497589e-22)
(29.164202 -6.8349394 6.7529792e-22)
(32.513392 -7.6195877 -6.1838906e-22)
(35.426027 -8.3021139 -9.280255e-18)
(37.970649 -8.8982267 8.508893e-18)
(40.218308 -9.4246569 0)
(42.227835 -9.8951527 7.1916907e-18)
(44.045918 -10.320747 -6.6326717e-18)
(45.70925 -10.709969 -1.4960269e-21)
(47.246431 -11.069526 -1.3842933e-21)
(48.680049 -11.404441 0)
(50.027084 -11.718829 1.1908552e-21)
(51.300235 -12.015737 1.1057362e-21)
(52.509818 -12.297499 -2.0550814e-21)
(53.664686 -12.565778 3.9087401e-18)
(54.770943 -12.822588 -3.6329933e-18)
(55.834626 -13.068893 -1.6484066e-21)
(56.860851 -13.305869 3.1354556e-18)
(57.853737 -13.534465 -2.9099862e-18)
(58.816729 -13.755445 2.6412435e-21)
(59.752617 -13.969412 0)
(60.66351 -14.176809 -2.3268887e-18)
(61.55094 -14.37795 2.1631836e-18)
(62.415822 -14.573003 -3.919284e-21)
(63.258504 -14.762006 0)
(64.078942 -14.944902 0)
(64.876851 -15.121584 0)
(65.652125 -15.291983 1.4738312e-18)
(66.405338 -15.456196 -1.3754634e-18)
(67.138186 -15.614587 4.9547254e-21)
(67.854263 -15.767961 3.3059235e-24)
(68.55993 -15.917834 -1.0873385e-18)
(69.265687 -16.067081 1.0222694e-18)
(69.987714 -16.221482 -9.3864986e-19)
(70.634379 -16.353613 8.4701727e-19)
(70.8405 -16.371517 0)
(70.838413 -16.335697 0)
(70.820487 -16.294167 0)
(70.800649 -16.248869 1.9424488e-20)
(70.779736 -16.199475 1.790159e-20)
(70.757186 -16.146037 0)
(70.733517 -16.087878 -1.5203646e-20)
(70.708564 -16.024961 4.4843694e-19)
(70.682357 -15.956983 -4.1323259e-19)
(70.655017 -15.883504 -3.8082664e-19)
(70.62632 -15.803821 7.2374383e-19)
(70.596002 -15.717638 -6.6690662e-19)
(70.564241 -15.624328 2.9793399e-19)
(70.531381 -15.523285 -2.402284e-19)
(70.497744 -15.414213 2.5294639e-19)
(70.463695 -15.296317 -2.9137924e-20)
(70.428977 -15.169145 1.0737161e-19)
(70.393288 -15.031999 -3.4621942e-19)
(70.356805 -14.88421 1.8225437e-19)
(70.319871 -14.724876 1.4395896e-23)
(70.282958 -14.552962 -3.0936719e-19)
(70.245926 -14.367773 1.4250382e-19)
(70.208649 -14.168258 1.3124845e-19)
(70.171356 -13.953293 0)
(70.134 -13.721682 0)
(70.095837 -13.472043 -1.0254965e-19)
(70.056932 -13.203462 1.8886159e-19)
(70.018966 -12.914581 8.6955923e-20)
(69.982392 -12.603983 -8.0058875e-20)
(69.945002 -12.270974 -1.474699e-19)
(1.6455122 -0.37854714 2.3356173e-22)
(5.056892 -1.163225 -1.6293686e-17)
(8.7364002 -2.0096856 4.7180911e-22)
(12.692772 -2.9198981 1.4659104e-17)
(16.891181 -3.8858377 0)
(21.201084 -4.8774443 -7.8453674e-22)
(25.379872 -5.8388202 -1.1890117e-17)
(29.196423 -6.7171221 -5.2569963e-24)
(32.554889 -7.4901342 1.0002968e-17)
(35.476576 -8.1623823 -9.1663985e-18)
(38.030118 -8.7500225 8.4014028e-18)
(40.286789 -9.2693882 0)
(42.30561 -9.7340365 -7.1033943e-18)
(44.133591 -10.15463 6.5516702e-18)
(45.807443 -10.539674 6.0559087e-18)
(47.355532 -10.895708 -5.6027194e-18)
(48.799929 -11.227748 5.1904639e-18)
(50.15766 -11.539702 -4.8120492e-18)
(51.441624 -11.834488 -4.4697003e-18)
(52.662081 -12.11439 4.1548291e-18)
(53.827427 -12.381594 0)
(54.944789 -12.637407 3.581165e-18)
(56.019851 -12.88313 -6.65299e-18)
(57.057464 -13.119859 3.0910009e-18)
(58.061486 -13.348432 -5.6087689e-21)
(59.03511 -13.569522 -2.6048708e-21)
(59.9809 -13.783662 2.4179212e-21)
(60.900783 -13.991238 2.2985381e-18)
(61.796174 -14.192523 -4.1479929e-21)
(62.667935 -14.387662 -1.9779067e-18)
(63.516413 -14.576684 0)
(64.34159 -14.759538 6.6372183e-21)
(65.14322 -14.93612 1.5807305e-18)
(65.921215 -15.106371 5.7169917e-21)
(66.676126 -15.270382 -1.3504448e-18)
(67.409535 -15.428493 -1.6139498e-24)
(68.124797 -15.581459 1.8086195e-20)
(68.82795 -15.730679 1.071556e-18)
(69.528567 -15.87862 -9.9189774e-19)
(70.239864 -16.030061 7.1702404e-21)
(70.926208 -16.174061 0)
(71.212966 -16.215298 1.2231278e-20)
(71.222513 -16.184964 7.2186254e-19)
(71.203334 -16.146384 1.041293e-20)
(71.18261 -16.103522 -1.9144662e-20)
(71.160401 -16.057201 -5.8272519e-19)
(71.136913 -16.007244 1.6270968e-20)
(71.111992 -15.953307 -4.49928e-19)
(71.085792 -15.89475 8.8453369e-19)
(71.058212 -15.831053 -4.0755601e-19)
(71.029382 -15.76179 -2.3477816e-20)
(70.999673 -15.686532 -3.4609432e-19)
(70.969056 -15.60495 -1.6296011e-23)
(70.93729 -15.516369 2.9384485e-19)
(70.904259 -15.420082 -6.7691281e-20)
(70.870071 -15.315714 2.1831134e-19)
(70.834843 -15.202534 -2.298595e-19)
(70.798292 -15.080151 5.2956083e-20)
(70.760345 -14.947839 -1.6587573e-23)
(70.721781 -14.804783 0)
(70.68332 -14.650444 2.0702979e-19)
(70.644612 -14.483498 -7.6263654e-20)
(70.605236 -14.303349 1.4056855e-19)
(70.56569 -14.108882 -1.294454e-19)
(70.526509 -13.898901 -5.9600085e-20)
(70.487006 -13.672085 -1.0982128e-19)
(70.445709 -13.427872 -1.0115347e-19)
(70.403342 -13.165178 9.3134828e-20)
(70.362139 -12.882296 8.5176066e-24)
(70.320708 -12.578121 1.7063181e-23)
(70.277409 -12.252476 1.4542434e-19)
(70.237424 -11.902605 2.0083631e-19)
(70.203954 -11.526667 1.9995411e-23)
(70.176036 -11.124298 5.6759402e-20)
(1.6357123 -0.36883695 1.5096599e-17)
(5.0299687 -1.1341203 -3.2139433e-17)
(8.694769 -1.9605184 1.5273035e-17)
(12.6397 -2.8501614 4.4130427e-22)
(16.8308 -3.7953884 0)
(21.137861 -4.7668505 7.7374858e-22)
(25.317595 -5.7096946 0)
(29.137906 -6.5715801 -6.5783206e-22)
(32.502426 -7.3307735 6.0295761e-22)
(35.432221 -7.9920216 5.5255132e-22)
(37.99589 -8.5707908 0)
(40.264396 -9.0830681 -7.624182e-18)
(42.296237 -9.5420286 1.4037834e-17)
(44.137735 -9.958098 -6.4730618e-18)
(45.825083 -10.339413 0)
(47.386203 -10.692248 1.3511093e-21)
(48.842872 -11.021489 -5.1244307e-18)
(50.212115 -11.330954 4.7479848e-18)
(51.507004 -11.623565 -1.0761804e-21)
(52.738128 -11.901683 4.0915358e-18)
(53.914471 -12.167307 -7.6047392e-18)
(55.043113 -12.421994 3.531739e-18)
(56.129719 -12.666984 -4.4439308e-25)
(57.179086 -12.903315 0)
(58.194963 -13.131785 2.834772e-18)
(59.180395 -13.35303 -2.6300629e-18)
(60.137776 -13.567535 -4.7697532e-21)
(61.068847 -13.775635 0)
(61.974856 -13.977555 2.107183e-18)
(62.856519 -14.173395 -1.9504326e-18)
(63.714069 -14.36315 0)
(64.547405 -14.546739 -6.5465429e-21)
(65.356208 -14.724039 1.5525161e-18)
(66.140323 -14.894971 1.6917961e-23)
(66.900213 -15.059598 -1.3313612e-18)
(67.637322 -15.218223 -9.6296633e-21)
(68.354746 -15.371541 -8.915296e-21)
(69.057998 -15.520818 8.2526149e-21)
(69.755647 -15.668144 -7.6388813e-21)
(70.459095 -15.817051 -7.0698099e-21)
(71.166349 -15.967783 -1.3069031e-20)
(71.552396 -16.037265 -1.2067164e-20)
(71.582299 -16.018136 7.1202499e-19)
(71.563358 -15.98665 -6.6649361e-19)
(71.54215 -15.950772 0)
(71.520184 -15.910557 0)
(71.496872 -15.865931 5.1370093e-19)
(71.472635 -15.81631 -4.8819712e-19)
(71.447256 -15.761907 2.7262804e-20)
(71.420703 -15.702556 4.0205036e-19)
(71.393022 -15.637843 -3.7048265e-19)
(71.363894 -15.567077 -3.6274002e-19)
(71.333084 -15.48993 3.1458148e-19)
(71.300871 -15.405827 -3.6228469e-20)
(71.26753 -15.314178 3.3393097e-20)
(71.232834 -15.214637 6.1527479e-20)
(71.196483 -15.106368 -2.8340212e-20)
(71.158558 -14.988893 0)
(71.119808 -14.861491 -4.8130598e-20)
(71.080728 -14.723316 4.4327414e-20)
(71.041225 -14.573626 -1.6338423e-19)
(71.001141 -14.411662 7.5260385e-20)
(70.960334 -14.236565 2.3167568e-23)
(70.91968 -14.047265 2.5543115e-19)
(70.878996 -13.842548 -5.8802973e-20)
(70.836211 -13.621636 -1.0833219e-19)
(70.790959 -13.383543 -1.995687e-19)
(70.74592 -13.126917 -9.1236524e-24)
(70.701653 -12.850054 8.46247e-20)
(70.655544 -12.552293 0)
(70.609493 -12.231593 -1.4352575e-19)
(70.567874 -11.885997 -6.6075143e-20)
(70.53087 -11.515682 -6.0805109e-20)
(70.498669 -11.120383 1.1195999e-19)
(70.475411 -10.696848 0)
(70.464787 -10.243284 0)
(70.465627 -9.7603623 1.30874e-19)
(1.630454 -0.36254436 0)
(5.0147791 -1.1149517 2.4183963e-22)
(8.6700288 -1.9276619 0)
(12.606089 -2.8028213 -1.4252995e-17)
(16.78936 -3.7329625 -8.9928185e-25)
(21.0898 -4.6891803 -3.8241424e-22)
(25.263738 -5.6173095 1.1551347e-17)
(29.078507 -6.4656296 6.4796956e-22)
(32.437683 -7.2127077 9.7266726e-18)
(35.362769 -7.8633044 -8.9121907e-18)
(37.922902 -8.4327506 9.9694465e-22)
(40.189442 -8.9372418 7.5083966e-18)
(42.221534 -9.3897011 1.6942724e-21)
(44.065932 -9.8002426 -6.3834768e-18)
(45.758742 -10.177232 -1.4394051e-21)
(47.327712 -10.526777 1.3317768e-21)
(48.794242 -10.853584 5.0530109e-18)
(50.174826 -11.161297 -9.3666305e-18)
(51.482018 -11.452681 4.348762e-18)
(52.726001 -11.729967 0)
(53.915477 -11.995052 -3.7473162e-18)
(55.057346 -12.249427 1.69178e-21)
(56.15717 -12.494288 -9.5688024e-24)
(57.219694 -12.730644 3.0093995e-18)
(58.24864 -12.959275 0)
(59.247024 -13.180801 2.5328174e-21)
(60.217193 -13.395691 6.2111562e-25)
(61.160821 -13.60426 0)
(62.079057 -13.806706 0)
(62.972503 -14.003099 3.7565304e-21)
(63.841267 -14.193402 0)
(64.685114 -14.377499 0)
(65.503597 -14.55523 -1.5369877e-18)
(66.29643 -14.726483 1.4123895e-18)
(67.063934 -14.891289 -1.3127806e-18)
(67.80738 -15.049898 2.4400573e-18)
(68.529601 -15.202939 -1.133654e-18)
(69.235641 -15.351554 0)
(69.933308 -15.497545 -9.6370182e-19)
(70.633204 -15.64365 8.9190786e-19)
(71.3456 -15.794293 8.3775594e-19)
(71.839111 -15.888091 -7.6163817e-19)
(71.910991 -15.876382 7.0243827e-19)
(71.896913 -15.844637 1.6147232e-23)
(71.878839 -15.808941 -1.8628284e-20)
(71.85885 -15.770183 1.6272782e-23)
(71.837466 -15.72813 -1.0294481e-18)
(71.814589 -15.682327 4.6704903e-19)
(71.790405 -15.631879 -8.3519583e-24)
(71.764749 -15.576128 0)
(71.737631 -15.514757 0)
(71.709385 -15.447531 2.1054647e-20)
(71.680124 -15.374251 0)
(71.649665 -15.294312 3.5754515e-20)
(71.617612 -15.207045 -3.2934887e-20)
(71.583619 -15.111925 -3.0356646e-20)
(71.547853 -15.008152 -1.9575991e-19)
(71.510624 -14.895185 2.061224e-19)
(71.472429 -14.772241 -4.7470878e-20)
(71.433678 -14.638604 -4.3749086e-20)
(71.393916 -14.493706 1.2090839e-19)
(71.352775 -14.336521 -2.2273425e-19)
(71.311076 -14.166583 2.0519677e-19)
(71.269268 -13.982542 -6.3015135e-20)
(71.226075 -13.783418 0)
(71.180372 -13.568181 1.2879116e-23)
(71.133429 -13.335724 1.9691591e-19)
(71.086824 -13.084383 9.0674487e-20)
(71.039596 -12.813099 0)
(70.991254 -12.520644 0)
(70.943566 -12.205708 1.4157811e-19)
(70.898316 -11.867037 -6.5186218e-20)
(70.855954 -11.503804 6.0001607e-20)
(70.819527 -11.1148 0)
(70.794629 -10.696594 0)
(70.7805 -10.248436 -1.8709039e-19)
(70.775362 -9.7736253 -1.721503e-19)
(70.784029 -9.267572 -1.5842741e-19)
(70.808209 -8.7277248 2.5503551e-19)
(1.6344431 -0.35957608 -1.4686076e-17)
(5.0263063 -1.1056181 1.5629706e-17)
(8.6888596 -1.9112322 -1.4850179e-17)
(12.631876 -2.7784965 -1.4053793e-17)
(16.82153 -3.699977 2.6421482e-17)
(21.12729 -4.6469633 1.4459543e-24)
(25.304771 -5.5657003 -2.2761422e-17)
(29.120913 -6.4049259 -2.3106887e-24)
(32.479569 -7.1435016 -5.8744917e-22)
(35.40284 -7.7863252 5.3227116e-22)
(37.960419 -8.3487965 8.0382989e-18)
(40.224236 -8.846448 -7.3873938e-18)
(42.253272 -9.2924644 1.3612872e-17)
(44.094217 -9.6973686 -1.2553825e-17)
(45.783676 -10.068869 5.801895e-18)
(47.34981 -10.413175 -1.3100095e-21)
(48.814393 -10.7354 -1.2140246e-21)
(50.194758 -11.03901 -1.1266332e-21)
(51.503885 -11.326953 -4.2863305e-18)
(52.752108 -11.601466 3.9808118e-18)
(53.947965 -11.864379 0)
(55.097895 -12.117163 -1.6775737e-21)
(56.207026 -12.36085 3.190339e-18)
(57.279706 -12.596339 -2.9682128e-18)
(58.319324 -12.824331 -2.7522485e-18)
(59.328633 -13.045376 2.5585239e-18)
(60.309786 -13.259889 2.3202966e-21)
(61.264303 -13.468146 -2.2050497e-18)
(62.193214 -13.670313 2.0458152e-18)
(63.097008 -13.866437 1.8898929e-18)
(63.97567 -14.056454 -1.7622906e-18)
(64.828827 -14.240221 -1.6362186e-18)
(65.655861 -14.417546 5.8858865e-21)
(66.456293 -14.588271 1.4038387e-18)
(67.230219 -14.752378 -1.299662e-18)
(67.978646 -14.910066 1.1983717e-18)
(68.704079 -15.061892 8.6664483e-21)
(69.411105 -15.208894 -1.0265614e-18)
(70.106885 -15.35271 9.5009232e-19)
(70.801376 -15.495776 8.7932529e-19)
(71.506766 -15.643306 -8.1334824e-19)
(72.086332 -15.757794 0)
(72.217858 -15.759156 6.9302799e-19)
(72.210159 -15.725931 -6.4878547e-19)
(72.195178 -15.688756 -5.887669e-19)
(72.17895 -15.648759 5.4260203e-19)
(72.160699 -15.606182 0)
(72.141054 -15.560246 4.6084499e-19)
(72.119903 -15.510578 -4.7776709e-19)
(72.097274 -15.45652 3.9137422e-19)
(72.07323 -15.397433 -3.6064804e-19)
(72.047411 -15.332701 -2.0767886e-20)
(72.019615 -15.262001 -3.0624904e-19)
(71.990113 -15.184787 5.6437061e-19)
(71.959134 -15.100497 -1.9500587e-19)
(71.926457 -15.008733 2.6953652e-19)
(71.892008 -14.90868 -4.4150164e-19)
(71.856165 -14.799766 -5.0852828e-20)
(71.81922 -14.681113 1.8740113e-19)
(71.780826 -14.551824 1.7265103e-19)
(71.740636 -14.411414 -1.1927947e-19)
(71.699015 -14.259072 -7.3252872e-20)
(71.656731 -14.093902 0)
(71.614119 -13.914894 -1.8650708e-19)
(71.569721 -13.7209 1.7178642e-19)
(71.522697 -13.510897 1.0547755e-19)
(71.474436 -13.283644 -3.1892998e-23)
(71.426115 -13.037966 0)
(71.376756 -12.772407 -1.7514703e-23)
(71.325134 -12.486074 7.5878025e-20)
(71.273523 -12.177477 -2.0963412e-19)
(71.225047 -11.844866 6.4323158e-20)
(71.180218 -11.488345 0)
(71.14283 -11.105098 0)
(71.115026 -10.692601 0)
(71.093522 -10.253871 1.8470597e-19)
(71.082661 -9.7865847 2.1244485e-19)
(71.088409 -9.2865621 3.187535e-24)
(71.106041 -8.7536828 -7.1910542e-20)
(71.13196 -8.1914426 2.976687e-19)
(71.173255 -7.5953201 2.736613e-19)
(1.6395194 -0.35683454 1.448819e-17)
(5.041404 -1.0970611 -1.5420598e-17)
(8.7141806 -1.8962666 4.4707434e-22)
(12.667506 -2.7564751 8.4628479e-22)
(16.867241 -3.6702577 -1.3034894e-17)
(21.182168 -4.6090578 -3.720328e-22)
(25.366994 -5.5194977 1.1228633e-17)
(29.188168 -6.3507527 6.2949797e-22)
(32.549663 -7.0819324 -9.4482521e-18)
(35.474006 -7.7179487 8.6541853e-18)
(38.031383 -8.274083 0)
(40.294072 -8.7660661 -7.2800334e-18)
(42.321619 -9.2068616 6.6976002e-18)
(44.161159 -9.6067393 0)
(45.849465 -9.9737231 -4.0145351e-25)
(47.41496 -10.314013 0)
(48.879814 -10.632093 1.1942588e-21)
(50.260525 -10.93209 0)
(51.570205 -11.216584 1.0302103e-21)
(52.819405 -11.48786 -3.9216011e-18)
(54.016981 -11.747929 -6.5070815e-24)
(55.169952 -11.998161 3.3869729e-18)
(56.283697 -12.239662 0)
(57.362389 -12.473445 0)
(58.409198 -12.700115 2.7142196e-18)
(59.426615 -12.920142 -5.0491111e-18)
(60.416504 -13.133871 2.340785e-18)
(61.380113 -13.341511 0)
(62.318221 -13.543165 2.0178822e-18)
(63.231097 -13.738825 -1.8677512e-18)
(64.118541 -13.928376 3.3889085e-21)
(64.980011 -14.111634 1.6138966e-18)
(65.81473 -14.288366 -1.4951425e-18)
(66.622045 -14.458374 -1.3738612e-18)
(67.401856 -14.621593 2.5586446e-18)
(68.154923 -14.778166 -1.1910925e-18)
(68.883433 -14.928574 0)
(69.591548 -15.073758 -1.0122835e-18)
(70.28587 -15.215226 -1.3284565e-23)
(70.975707 -15.355251 8.6699713e-19)
(71.672199 -15.498181 0)
(72.310899 -15.626476 0)
(72.521626 -15.648351 0)
(72.521315 -15.618086 1.9699041e-20)
(72.507427 -15.581335 5.3451366e-24)
(72.492232 -15.541185 0)
(72.476296 -15.497581 -4.9345823e-19)
(72.459099 -15.450664 4.5474572e-19)
(72.440492 -15.400302 2.6196509e-20)
(72.419948 -15.346131 3.8620726e-19)
(72.397351 -15.287541 -2.2226696e-20)
(72.373138 -15.223951 -3.2793881e-19)
(72.347647 -15.15503 0)
(72.320795 -15.080083 2.7847105e-19)
(72.291987 -14.998387 -2.8866248e-19)
(72.260813 -14.909366 -5.9107521e-20)
(72.227749 -14.812305 0)
(72.193423 -14.706584 5.018634e-20)
(72.158 -14.591456 4.6238889e-20)
(72.120714 -14.466115 1.7037937e-19)
(72.080887 -14.329871 -1.569588e-19)
(72.039553 -14.181857 2.1692297e-19)
(71.99777 -14.021288 -1.3320339e-19)
(71.954826 -13.846844 6.1364813e-20)
(71.909137 -13.657683 -5.6525428e-20)
(71.86072 -13.45282 -3.4027359e-23)
(71.811472 -13.230969 -1.1178411e-23)
(71.761868 -12.990601 -1.7660614e-19)
(71.709808 -12.730791 -8.1341815e-20)
(71.655962 -12.450295 -7.4895272e-20)
(71.604084 -12.146519 6.8953985e-20)
(71.553317 -11.819301 1.2695733e-19)
(71.505006 -11.468607 0)
(71.465072 -11.091527 1.075846e-19)
(71.432049 -10.687342 -1.9804216e-19)
(71.405637 -10.255926 1.8225869e-19)
(71.392552 -9.7939244 2.0964841e-19)
(71.393733 -9.2988776 -1.9288647e-19)
(71.403205 -8.7749461 0)
(71.422657 -8.2190084 0)
(71.457262 -7.6287772 -6.8338266e-23)
(71.509943 -7.0067619 -1.9318623e-19)
(1.6443368 -0.35402257 -2.7343206e-25)
(5.0560511 -1.0883712 1.5215929e-17)
(8.7392423 -1.8811913 -4.4128064e-22)
(12.703523 -2.7344677 -4.1760718e-22)
(16.914461 -3.6407904 1.2862183e-17)
(21.240105 -4.57175 -1.1984628e-17)
(25.434153 -5.4743233 0)
(29.262497 -6.2981156 1.0177493e-17)
(32.6292 -7.0224774 2.4103152e-24)
(35.55712 -7.6523343 -8.5387539e-18)
(38.116764 -8.2028684 7.8235347e-18)
(40.380697 -8.689704 -7.1796232e-18)
(42.408748 -9.1257223 -6.6062876e-18)
(44.248314 -9.5211269 1.2183657e-17)
(45.936373 -9.8838832 -5.6273749e-18)
(47.501493 -10.220157 5.2037163e-18)
(48.965916 -10.534739 -4.8174152e-18)
(50.346933 -10.831133 4.4696624e-18)
(51.657187 -11.112451 5.4167962e-24)
(52.907466 -11.380752 -3.8622949e-18)
(54.106757 -11.637967 3.58904e-18)
(55.261989 -11.885646 -3.3406391e-18)
(56.378673 -12.124945 0)
(57.461405 -12.356694 2.8807979e-18)
(58.513338 -12.581658 -5.3586917e-18)
(59.536904 -12.800298 2.4216706e-21)
(60.533862 -13.012925 2.3131936e-18)
(61.5053 -13.219712 0)
(62.451802 -13.42072 -3.8868098e-21)
(63.373413 -13.615891 1.8459262e-18)
(64.269678 -13.805055 9.8908926e-24)
(65.139781 -13.987965 1.0221613e-23)
(65.982648 -14.164318 -1.4690658e-18)
(66.797316 -14.333841 1.3498372e-18)
(67.583366 -14.496386 -1.2544817e-18)
(68.341235 -14.652009 4.5541581e-21)
(69.072776 -14.801098 0)
(69.781791 -14.944489 -1.0061217e-18)
(70.474446 -15.083576 9.2385412e-19)
(71.159454 -15.220456 6.6784128e-21)
(71.846818 -15.358491 -1.235751e-20)
(72.516388 -15.492647 0)
(72.820792 -15.537122 1.054117e-20)
(72.835598 -15.510774 -9.7217848e-21)
(72.821893 -15.476035 3.5836159e-20)
(72.807367 -15.437214 0)
(72.791651 -15.394868 0)
(72.775302 -15.348626 4.3478128e-19)
(72.757888 -15.298508 -4.1358808e-19)
(72.739072 -15.244368 3.8115192e-19)
(72.718696 -15.186108 -6.8052039e-19)
(72.696484 -15.123191 6.6755409e-19)
(72.672265 -15.05505 -2.9824355e-19)
(72.646136 -14.981024 3.4347698e-20)
(72.618259 -14.900572 3.1649734e-20)
(72.588834 -14.813257 5.8335298e-20)
(72.558248 -14.718299 -1.8813353e-19)
(72.526477 -14.615075 1.9808632e-19)
(72.492509 -14.502669 1.8251809e-19)
(72.455607 -14.380374 1.1588147e-23)
(72.41625 -14.247704 -1.5491266e-19)
(72.375663 -14.103569 0)
(72.334365 -13.94711 0)
(72.291153 -13.777179 0)
(72.24457 -13.592701 0)
(72.195696 -13.392534 -1.0277624e-19)
(72.146393 -13.175298 -9.4629877e-20)
(72.095548 -12.939879 1.7435261e-19)
(72.041841 -12.685244 8.4904768e-24)
(71.987902 -12.409299 -7.3917383e-20)
(71.933739 -12.111321 -1.3611012e-19)
(71.878649 -11.791679 -1.2535764e-19)
(71.828112 -11.447761 0)
(71.7856 -11.076712 -1.0623232e-19)
(71.748972 -10.679395 1.9555695e-19)
(71.719542 -10.254517 -1.7997445e-19)
(71.702969 -9.798599 -5.0911435e-23)
(71.697658 -9.3115183 1.1428883e-19)
(71.700688 -8.7935928 -2.8273376e-24)
(71.714304 -8.2436904 2.9003572e-19)
(71.741078 -7.6615846 -2.9643989e-19)
(71.784619 -7.0475762 2.7256073e-19)
(71.853035 -6.4033479 8.0168336e-19)
(71.957497 -5.7212718 0)
(1.6493011 -0.35122537 2.1518918e-22)
(5.07124 -1.0797457 1.5015675e-17)