/*--------------------------------*- C++ -*----------------------------------*\
| =========                 |                                                 |
| \\      /  F ield         | OpenFOAM: The Open Source CFD Toolbox           |
|  \\    /   O peration     | Version:  2506                                  |
|   \\  /    A nd           | Website:  www.openfoam.com                      |
|    \\/     M anipulation  |                                                 |
\*---------------------------------------------------------------------------*/
FoamFile
{
    version     2.0;
    format      ascii;
    arch        "LSB;label=32;scalar=64";
    class       volScalarField;
    location    "0.65";
    object      k;
}
// * * * * * * * * * * * * * * * * * * * * * * * * * * * * * * * * * * * * * //

dimensions      [0 2 -2 0 0 0 0];

internalField   nonuniform List<scalar> 
19257
(
11.244978
10.213943
9.5678674
9.124562
8.7967385
8.544399
8.3447289
8.1833748
8.0507725
7.9400222
7.8464226
7.7664979
7.6976376
7.6380616
7.5862191
7.5408415
7.5010697
7.4660772
7.4350904
7.407683
7.3836052
7.3625457
7.343613
7.3272544
7.3133057
7.3012074
7.2913427
7.2844099
7.2815625
7.2818511
7.2866985
7.2991659
7.3211283
7.3466191
7.3763717
7.4122316
7.4555295
7.5065397
7.5711718
7.6415679
7.7290335
7.8577139
8.0022628
8.2028211
8.4491843
8.743353
8.9357773
10.503212
10.678443
11.226753
10.246607
9.6224036
9.1824646
8.8535883
8.5986357
8.3957657
8.2311188
8.0953056
7.9815173
7.8850586
7.8024722
7.7311285
7.6692575
7.6152823
7.5679412
7.5263531
7.4896533
7.4570546
7.4282263
7.4027117
7.3804083
7.3603944
7.3427689
7.3276329
7.3146469
7.3039593
7.2959895
7.2918076
7.290525
7.2948683
7.3057974
7.3256333
7.3490257
7.3766601
7.4107412
7.4514937
7.5009895
7.5561988
7.6330233
7.7302151
7.840955
7.9752677
8.1781651
8.3278752
8.6174021
8.9186785
10.460698
10.377018
11.305302
10.349169
9.7163885
9.2687304
8.9327996
8.6709964
8.4618988
8.2916109
8.1507164
8.0324
7.9318344
7.8455205
7.7708727
7.7059392
7.6491663
7.5993598
7.555379
7.5165795
7.4820042
7.4513544
7.4240916
7.4001964
7.3788162
7.359678
7.3431898
7.3291722
7.3174792
7.3079938
7.301921
7.2996492
7.3025875
7.3115681
7.3292851
7.3509299
7.3774213
7.4090771
7.4473074
7.4925881
7.5547245
7.6212689
7.702673
7.8127928
7.9644147
8.145555
8.2782629
8.5406531
8.8838584
10.206694
10.137909
11.347235
10.425109
9.8007747
9.3517868
9.0111918
8.7439252
8.5293091
8.3537405
8.2079649
8.0851712
7.9804801
7.8903936
7.8123274
7.7442731
7.6845819
7.6321763
7.585704
7.5446769
7.5080075
7.4753979
7.4463596
7.4207094
7.3977924
7.3771863
7.3593983
7.3441301
7.3310639
7.3204399
7.3130391
7.3091962
7.3107525
7.3177521
7.3329462
7.3530688
7.3777695
7.408791
7.4450098
7.4892118
7.5408514
7.6088863
7.6930903
7.7957826
7.9283788
8.1026694
8.279462
8.4869473
8.7350093
9.9937973
9.9498183
11.394537
10.50753
9.8903283
9.4398017
9.094653
8.8217692
8.6013694
8.4203007
8.2693315
8.1417373
8.032618
7.9384894
7.8567227
7.7852794
7.7224563
7.6671819
7.6180517
7.5745338
7.5356589
7.5009442
7.4699444
7.4423519
7.4178255
7.3957604
7.3764351
7.3597054
7.3452616
7.3333745
7.3247418
7.3194932
7.3188504
7.324417
7.337484
7.3557697
7.3791383
7.4071729
7.4415516
7.4830871
7.5373132
7.6006008
7.6790049
7.7794516
7.9086994
8.0730865
8.2225293
8.4299324
8.7364565
9.8666781
9.8071258
11.436227
10.586067
9.9796599
9.5295755
9.1808499
8.9027145
8.6767804
8.4902231
8.3339502
8.201386
8.0876643
7.9893007
7.9036585
7.8286447
7.76253
7.7041713
7.6522745
7.6061162
7.5648162
7.5278458
7.4947665
7.4651469
7.4388549
7.4152668
7.3943521
7.3760313
7.3600896
7.3467765
7.3367008
7.3302913
7.3275719
7.3316289
7.3421085
7.3587614
7.380527
7.4074007
7.4396187
7.4804249
7.5277814
7.5905939
7.6671003
7.7654913
7.8959253
8.0448483
8.223082
8.3983524
8.6586675
9.6520091
9.6941265
11.475444
10.663185
10.069344
9.620752
9.2691996
8.9864037
8.7551185
8.5631389
8.4015082
8.2638487
8.145382
8.0426252
7.9529758
7.874248
7.8047166
7.7430955
7.6883121
7.6393425
7.5954492
7.556111
7.5208404
7.48917
7.4609437
7.4356216
7.4129894
7.3930367
7.3756161
7.3609738
7.3493705
7.3412382
7.3368104
7.339173
7.3473613
7.3622009
7.3823784
7.4077507
7.4377686
7.47541
7.5244315
7.5822576
7.6565652
7.7489105
7.8718491
8.0252605
8.173423
8.3561571
8.6107707
9.5283455
9.609114
11.512389
10.737728
10.157737
9.7120079
9.3585401
9.0716956
8.8354299
8.6382107
8.4712821
8.3285229
8.205259
8.0980691
8.0043259
7.921756
7.8486715
7.7836652
7.7258097
7.6739472
7.6273979
7.5856017
7.5480207
7.5142521
7.4839421
7.456686
7.4322796
7.4107282
7.3918424
7.3755933
7.3624334
7.3527747
7.347003
7.3470199
7.3529281
7.3663234
7.3847337
7.4075969
7.4369709
7.4724414
7.5167554
7.5753503
7.6463877
7.7381861
7.858504
8.0010159
8.1586781
8.3311979
8.5792881
9.4170063
9.5435617
11.546491
10.808408
10.243496
9.8020196
9.44765
9.1574471
8.916616
8.7143966
8.5424048
8.3946761
8.2667261
8.1551243
8.0571995
7.9707117
7.8939704
7.825495
7.7644324
7.7096488
7.6603496
7.6159901
7.5759744
7.5399533
7.50755
7.4783932
7.4522616
7.4289869
7.4084277
7.3906421
7.3759107
7.3646584
7.3576587
7.3543815
7.3593435
7.3711024
7.3874223
7.4087817
7.4354061
7.4704527
7.5133808
7.5658033
7.6384247
7.7239548
7.8402292
7.9820797
8.1328104
8.3022117
8.5385579
9.3081587
9.4916637
11.577746
10.874559
10.32538
9.8892462
9.5349203
9.2421293
8.9972913
8.7905331
8.6138435
8.4614288
8.328954
8.2129837
8.1109002
8.0205207
7.9400943
7.8681358
7.8037911
7.7460328
7.6939495
7.6469205
7.6044471
7.5661654
7.5316671
7.5005358
7.4725186
7.4475335
7.4253409
7.405917
7.3895623
7.3766911
7.3682167
7.3628022
7.3662455
7.3759836
7.3902867
7.4096764
7.4352383
7.4674687
7.5105971
7.5617465
7.6264827
7.7157293
7.8271563
7.9644391
8.1126388
8.2794871
8.5158101
9.2467167
9.4516624
11.605206
10.935201
10.401904
9.9718416
9.6186873
9.3242616
9.0762202
8.8655142
8.6845711
8.5277769
8.3909153
8.2707116
8.1645366
8.0702653
7.9861827
7.9108202
7.843215
7.7824706
7.7276415
7.6780056
7.6331116
7.592551
7.5559222
7.522815
7.4929086
7.4661205
7.4422682
7.4212716
7.4033441
7.3889629
7.3787521
7.3714039
7.3735745
7.3810248
7.3935929
7.4111924
7.4355261
7.465935
7.5047836
7.5577673
7.6187641
7.704064
7.816996
7.9491936
8.0925951
8.2573805
8.4872205
9.1744622
9.4188255
11.62966
10.989987
10.471782
10.048447
9.6974318
9.4024328
9.1521686
8.9381146
8.7533916
8.5924889
8.4514408
8.3271579
8.2170571
8.1190595
8.0314322
7.9527177
7.8819564
7.8183111
7.7607954
7.7085997
7.6612938
7.6184769
7.5797486
7.544663
7.512901
7.4844233
7.4590058
7.4364952
7.4170012
7.4010567
7.3891702
7.3806414
7.3806609
7.3859962
7.3968572
7.4133681
7.435212
7.4652808
7.5029976
7.5501269
7.6146688
7.691153
7.8009484
7.9319863
8.0741236
8.2381258
8.4683119
9.1324231
9.3943828
11.651308
11.037984
10.534471
10.118752
9.7706945
9.4758024
9.2239372
9.0070113
8.818715
8.6540182
8.5091386
8.3810973
8.267332
8.165836
8.0749067
7.9930517
7.9192711
7.8527854
7.7926549
7.7380505
7.6884474
7.643453
7.6027113
7.5657659
7.5322503
7.5021006
7.4751348
7.4511759
7.4302403
7.4128389
7.3992931
7.3903497
7.3866285
7.3910983
7.4006815
7.4154817
7.4362466
7.4629825
7.4998039
7.5463274
7.6077321
7.6860683
7.7901618
7.916811
8.0574294
8.2214563
8.4494435
9.0887971
9.3748799
11.670218
11.081555
10.591984
10.183134
9.8377047
9.5432793
9.2902125
9.0706971
8.8791444
8.7110275
8.5626664
8.4312381
8.3141813
8.2095057
8.1155446
8.0308136
7.9542561
7.8851418
7.8225723
7.7657154
7.7139879
7.6669693
7.6243422
7.5856265
7.5504261
7.5187042
7.4902712
7.4649419
7.4426627
7.4238523
7.4088731
7.3988093
7.3926767
7.3961575
7.4043499
7.4176409
7.4367105
7.4631249
7.4972985
7.5433053
7.6000109
7.6791653
7.7811077
7.9047344
8.0442788
8.2082507
8.4366031
9.0551516
9.3612557
11.686082
11.117304
10.639546
10.237162
9.895109
9.6017113
9.3477705
9.1263772
8.9324562
8.7617247
8.610619
8.4763223
8.3563996
8.2489186
8.1522541
8.0649661
7.9859364
7.9144508
7.8496584
7.7907277
7.737051
7.6881819
7.6438421
7.6035673
7.5668837
7.5337612
7.504021
7.4774521
7.4539857
7.433947
7.4176409
7.4065363
7.3982534
7.4007076
7.4075931
7.4195249
7.4371983
7.4622328
7.495503
7.5393935
7.5970216
7.6708144
7.7706802
7.8942292
8.0335311
8.1975178
8.4255699
9.0370105
9.3519979
11.699405
11.147231
10.679396
10.282692
9.9436007
9.6509429
9.3962494
9.1736137
8.9780417
8.8053907
8.6520797
8.5153336
8.3929258
8.283016
8.1840229
8.0945357
8.0133936
7.9398635
7.8731466
7.8124386
7.7570954
7.7066516
7.6608396
7.6192083
7.5812132
7.5468134
7.5158849
7.4881832
7.4636343
7.4425055
7.4250328
7.4129494
7.4028894
7.4044367
7.4101641
7.4209219
7.4375744
7.4612096
7.4937218
7.5361376
7.5921137
7.6645099
7.765442
7.8866279
8.0250165
8.1896597
8.4174508
9.0256016
9.3464368
11.709807
11.170633
10.711017
10.319167
9.9825172
9.6907764
9.436249
9.212889
9.0158305
8.8412705
8.6859023
8.5470737
8.4226436
8.3107847
8.209917
8.118631
8.0357588
7.9605372
7.8922263
7.8300671
7.7733746
7.7216452
7.6746143
7.6318593
7.5927986
7.5573544
7.5254588
7.496828
7.471376
7.4493588
7.4309635
7.418068
7.4065872
7.4073822
7.4122184
7.4221818
7.4379168
7.4607407
7.4921635
7.5341867
7.5887233
7.6609455
7.7577241
7.8795175
8.0199593
8.186402
8.4172839
9.0164791
9.3441761
11.717208
11.187096
10.733215
10.34492
10.010258
9.7193575
9.4646565
9.2405067
9.0424888
8.8667947
8.710247
8.5701559
8.444382
8.3311438
8.2289117
8.136295
8.0521517
7.975687
7.9061918
7.8429485
7.7852627
7.7325981
7.6846863
7.6411149
7.6012825
7.5650901
7.5325188
7.5032663
7.4772507
7.4547266
7.4357979
7.4223604
7.4099765
7.4103044
7.4146756
7.4242404
7.4396321
7.4621085
7.4933258
7.5348694
7.5894285
7.6608259
7.7576934
7.880528
8.0214582
8.1878806
8.4180389
9.0156745
9.3458242
11.721591
11.196908
10.746528
10.360318
10.026763
9.7363684
9.4817061
9.2572111
9.0585925
8.8821763
8.7248501
8.583931
8.4572803
8.3431531
8.240054
8.1466265
8.061736
7.9845522
7.9143662
7.8504949
7.792251
7.739063
7.6906747
7.6466671
7.6064266
7.5698841
7.5370077
7.5075077
7.4813596
7.4588294
7.4399153
7.4264728
7.4141892
7.4146749
7.4190072
7.4284853
7.443855
7.4664086
7.497813
7.5397712
7.5946955
7.6668647
7.765143
7.8869375
8.0262548
8.1911884
8.4213147
9.0334703
9.3514942
11.72302
11.200016
10.750658
10.364905
10.031502
9.7411693
9.4865346
9.2620283
9.063177
8.8864287
8.7287567
8.5874934
8.4605015
8.3460478
8.2426427
8.1489626
8.0638918
7.9865682
7.9162651
7.8522999
7.7939927
7.7407417
7.6923128
7.6482795
7.6080088
7.5714983
7.5386865
7.5092202
7.4830812
7.4605466
7.4416835
7.4283747
7.4166127
7.4175303
7.4220836
7.4316809
7.4472257
7.4700577
7.5018713
7.5443552
7.5999947
7.6731228
7.7727538
7.8939733
8.0323984
8.1967964
8.429355
9.0539307
9.3557502
11.721591
11.197
10.746631
10.360273
10.026607
9.7362159
9.4816336
9.2571946
9.0585479
8.8820925
8.7247604
8.5838418
8.457187
8.3430674
8.2399556
8.1465166
8.061657
7.9845047
7.9143234
7.850447
7.7922335
7.7390593
7.690688
7.6466915
7.6064294
7.5698992
7.5370372
7.507502
7.4812833
7.4586348
7.4395805
7.4259942
7.4137515
7.4143327
7.4187736
7.4282993
7.4437328
7.4663719
7.4978394
7.5398072
7.5947769
7.6669334
7.7651152
7.8867312
8.0258472
8.1907148
8.4208341
9.0230669
9.3471744
11.717127
11.187167
10.733385
10.344939
10.010115
9.7191643
9.4645381
9.2404228
9.0423671
8.8666646
8.7101428
8.5700949
8.4443246
8.331075
8.2287981
8.1361652
8.0520744
7.9756425
7.906116
7.8428443
7.7852137
7.7325861
7.6847211
7.6411558
7.6012676
7.5650697
7.532438
7.5031286
7.4771789
7.4547488
7.4357748
7.4221288
7.4096752
7.410129
7.4145483
7.4240838
7.4395232
7.4621365
7.4934531
7.5350828
7.5893766
7.6611788
7.7575391
7.87978
8.0203131
8.1868133
8.4158594
9.018882
9.3427486
11.709702
11.17067
10.711142
10.319186
9.9823626
9.690621
9.4361181
9.2127862
9.0157297
8.8411262
8.6858425
8.5471011
8.4226601
8.3107504
8.2098071
8.1185066
8.0357054
7.9604971
7.892116
7.8299119
7.7732834
7.7215986
7.6746318
7.6318766
7.5927261
7.5572601
7.5252845
7.4966314
7.4713476
7.4495226
7.4310859
7.4179058
7.4063243
7.4072813
7.4121646
7.4220755
7.4378901
7.4608694
7.4925321
7.5343974
7.5895269
7.6606673
7.7586551
7.8799557
8.0195698
8.1850837
8.4173915
9.0152662
9.3413403
11.699389
11.1474
10.679616
10.282793
9.9434908
9.6506909
9.3961526
9.1736743
8.9780928
8.8053351
8.6520898
8.5154025
8.3929455
8.282959
8.1838874
8.0944037
8.0133391
7.9397853
7.8729571
7.8122258
7.7569856
7.706602
7.6608782
7.6192496
7.5811582
7.5467161
7.5156727
7.4879619
7.4636051
7.442649
7.4250642
7.4126733
7.4025876
7.4043648
7.410152
7.4208357
7.4375088
7.4614911
7.4939815
7.5370926
7.5921429
7.6666611
7.7628167
7.8834288
8.0220433
8.1882029
8.4158829
9.0256663
9.3436488
11.686168
11.117503
10.639606
10.237103
9.8950348
9.6015634
9.3476834
9.1263722
8.9324141
8.7616836
8.6106777
8.4763947
8.3564023
8.2488194
8.1520609
8.0647835
7.9858358
7.9143184
7.8493962
7.7904755
7.7369187
7.6881264
7.6439243
7.603649
7.5668541
7.5336509
7.5037682
7.477224
7.4539822
7.4340883
7.4175856
7.4061616
7.3979289
7.4006697
7.4076018
7.4193834
7.4372287
7.462305
7.4961195
7.5396785
7.597868
7.6713293
7.7731606
7.8941285
8.0314021
8.1940515
8.4243965
9.046585
9.3510144
11.670249
11.081674
10.591962
10.182969
9.8376305
9.5431913
9.2900979
9.0706246
8.8790258
8.7109641
8.5627497
8.431264
8.3141152
8.2093424
8.1153185
8.0306389
7.9541519
7.8849531
7.8222185
7.7654018
7.713804
7.6668569
7.624374
7.585621
7.5503184
7.5185041
7.4899639
7.4647632
7.4427704
7.424067
7.4088014
7.3984152
7.3923506
7.3961395
7.404334
7.417593
7.4366932
7.4627874
7.4979877
7.5436703
7.6024359
7.6774821
7.7803832
7.9046968
8.0434077
8.2060531
8.4326426
9.0580855
9.3603135
11.651365
11.038541
10.535079
10.119106
9.7707834
9.4757246
9.2237487
9.0067745
8.8184065
8.6538741
8.509158
8.3810578
8.2672527
8.1656847
8.074703
7.9929049
7.9191646
7.8525585
7.7922753
7.7377769
7.6883232
7.6434217
7.6028374
7.5657903
7.5321561
7.5018778
7.4748248
7.4510338
7.4303456
7.4129531
7.3990612
7.3898517
7.3863286
7.3911033
7.400766
7.4156054
7.4359106
7.4642438
7.5004212
7.5475077
7.6063665
7.6881322
7.7898134
7.915862
8.0566487
8.2193628
8.4485082
9.1079361
9.3763797
11.629732
10.990039
10.471783
10.048454
9.6972199
9.4021328
9.15193
8.9378198
8.7530307
8.5922817
8.4513825
8.3271386
8.2170016
8.1189314
8.0312753
7.9526127
7.8818408
7.8180066
7.7603622
7.7083479
7.6612019
7.6184952
7.5798881
7.5446546
7.5127963
7.4841669
7.4587296
7.4364552
7.4171624
7.4011599
7.3889237
7.3801429
7.3805555
7.3861668
7.3971992
7.4132731
7.4355892
7.4649302
7.5037184
7.5514797
7.6177769
7.695279
7.7986956
7.9286006
8.0720042
8.2355875
8.4667689
9.1510631
9.3974915
11.605452
10.935513
10.401692
9.9715606
9.6182461
9.3238013
9.0758618
8.8650256
8.6841579
8.5275575
8.3908487
8.2707402
8.1645245
8.0702042
7.9860839
7.9107483
7.8430963
7.7821712
7.7272697
7.6778261
7.633041
7.5925892
7.5560519
7.5227497
7.492723
7.465823
7.4420858
7.4213874
7.403627
7.3891148
7.3785271
7.3709933
7.3736899
7.3814858
7.3938294
7.4112635
7.4350136
7.4672698
7.5064559
7.558306
7.6200547
7.7003599
7.8178941
7.9467482
8.089575
8.2547148
8.488365
9.2115798
9.4240159
11.577833
10.87532
10.325549
9.8891293
9.5346612
9.2419161
8.9970805
8.7900849
8.6134372
8.4612208
8.3288989
8.2130711
8.1109351
8.0205165
7.9400445
7.8681394
7.8036928
7.7457762
7.6936954
7.6468448
7.60448
7.5663469
7.5318742
7.5004825
7.4723066
7.4471891
7.4251614
7.4060084
7.3897545
7.3767511
7.3678771
7.362511
7.3666205
7.3765039
7.3906025
7.4095746
7.4361019
7.4687902
7.5104008
7.5618095
7.6291691
7.7221816
7.8245705
7.9612109
8.109453
8.2764042
8.5143957
9.2948424
9.457365
11.546518
10.809174
10.243957
9.8023242
9.4477449
9.1575455
8.9166164
8.7141327
8.5421642
8.3945783
8.2667464
8.155168
8.0572141
7.9708037
7.8940179
7.8255804
7.7643361
7.7094368
7.66019
7.6159478
7.5760232
7.5401499
7.5077551
7.4783664
7.4520352
7.4286969
7.4083342
7.3907295
7.3760865
7.3645782
7.3572268
7.3543817
7.3598157
7.3716364
7.3875981
7.4087407
7.4361869
7.4705755
7.5140132
7.5696389
7.6389453
7.7233978
7.8391125
7.9792794
8.131101
8.299532
8.5465032
9.3592257
9.4986714
11.512568
10.738459
10.158297
9.7125364
9.3588418
9.0720061
8.8355757
8.638118
8.4712394
8.3285383
8.2053363
8.0981258
8.0043563
7.9218798
7.8487462
7.783726
7.7257513
7.673832
7.6273418
7.585631
7.5481033
7.5144254
7.48402
7.4565978
7.4321365
7.4105767
7.3918664
7.3757696
7.3626048
7.3526641
7.3467592
7.3472397
7.3536585
7.3668716
7.38493
7.4080699
7.4365399
7.4736087
7.5190284
7.5754174
7.6466021
7.7395966
7.8564247
7.999033
8.1537952
8.3268234
8.5887833
9.4428403
9.551981
11.475565
10.663716
10.069829
9.6211641
9.2694472
8.9867059
8.7552524
8.5631906
8.4016131
8.263943
8.1454118
8.0426589
7.9530557
7.8743625
7.8047985
7.7431166
7.6882853
7.6392472
7.5954546
7.5561917
7.5210367
7.4894984
7.4609913
7.4353728
7.4126822
7.3928445
7.3757243
7.3612742
7.3497461
7.341297
7.3368052
7.3396661
7.348184
7.3628548
7.3827326
7.4073755
7.4386775
7.4773052
7.5245414
7.5832096
7.6607716
7.7507285
7.8732559
8.0216448
8.1795122
8.3556949
8.6241246
9.610068
9.6189883
11.436384
10.586422
9.9800689
9.5297898
9.1810004
8.9029703
8.6768769
8.490365
8.3341357
8.2015136
8.0876906
7.9892683
7.9037255
7.8287119
7.7626169
7.7041512
7.6522937
7.6060196
7.5648304
7.5279188
7.4949519
7.4654602
7.4388474
7.4150525
7.3940337
7.3757656
7.3602193
7.34721
7.3370365
7.3302473
7.3277849
7.3322606
7.3429931
7.3592226
7.3803648
7.4074561
7.4411568
7.4812219
7.5294719
7.5951419
7.668082
7.7598539
7.8868039
8.0449
8.2085786
8.3942401
8.6637374
9.7075763
9.7010082
11.395139
10.507901
9.8907199
9.439938
9.0947813
8.8219033
8.6014401
8.4204966
8.2695568
8.1418905
8.0327001
7.9384915
7.8567944
7.7852929
7.7225198
7.6671337
7.6180675
7.57446
7.5356878
7.5010072
7.4701122
7.4425423
7.4176863
7.3956144
7.3762545
7.3594428
7.3451949
7.3337363
7.3252104
7.319497
7.3190406
7.3250435
7.3383988
7.3560453
7.3790872
7.4081981
7.4428029
7.4842207
7.5387038
7.5991408
7.6788502
7.7827387
7.91423
8.0709302
8.238897
8.4260036
8.7423207
9.8758084
9.8129212
11.347973
10.425578
9.8012349
9.352023
9.0113746
8.7440306
8.5293691
8.3539889
8.2082194
8.0853893
7.9805926
7.8904437
7.8123911
7.7442473
7.6846142
7.6321293
7.5856878
7.5446246
7.5081211
7.4755497
7.4465957
7.4207209
7.3975448
7.3770333
7.359221
7.3438472
7.3309206
7.3207188
7.3134213
7.309544
7.3114323
7.3185932
7.3336368
7.3533054
7.3781233
7.4085202
7.4463085
7.490936
7.5434112
7.612085
7.6950298
7.7926115
7.9340884
8.1043626
8.2948533
8.4796326
8.7968056
10.085421
9.9636578
11.306253
10.349908
9.7169398
9.2692026
8.9330734
8.6711151
8.4620051
8.2919071
8.1510185
8.0326736
7.932012
7.8456157
7.7709602
7.7058882
7.6491925
7.5993314
7.5553447
7.5166373
7.4821529
7.4515416
7.4243679
7.400201
7.3785437
7.3594797
7.3429531
7.3290051
7.3172732
7.3082206
7.3025528
7.3002642
7.3033568
7.3127152
7.329662
7.3510428
7.3770988
7.4097817
7.4491506
7.4945052
7.5512906
7.6184978
7.7060955
7.820416
7.9448298
8.1328696
8.2997764
8.5208712
8.853131
10.333003
10.15364
11.227648
10.247189
9.622785
9.1830072
8.8539785
8.598748
8.395918
8.2314572
8.0956459
7.981837
7.8852974
7.8026242
7.7312631
7.6691814
7.6152817
7.5680075
7.5263204
7.4897633
7.4572658
7.4285019
7.4029901
7.3804237
7.3602144
7.3425086
7.3272309
7.3145534
7.3043283
7.2964614
7.2916865
7.2910319
7.295766
7.3070322
7.3260183
7.3491371
7.3777503
7.4133846
7.4522283
7.4985582
7.561895
7.6401949
7.7274855
7.8395274
8.0026069
8.1819957
8.3787261
8.6695521
8.9293458
10.417284
10.393786
11.245811
10.214322
9.5681717
9.1250851
8.7971811
8.5445639
8.3449233
8.1837373
8.0511381
7.9403794
7.8467109
7.7667133
7.6977978
7.6380809
7.5862555
7.540941
7.501147
7.4661974
7.4352493
7.4080068
7.3838517
7.3625166
7.3434955
7.3269487
7.3127492
7.3009451
7.2918139
7.2853817
7.2814246
7.2818262
7.2878179
7.3011153
7.3220249
7.3472231
7.3772059
7.4137097
7.4557243
7.5108041
7.5726837
7.64604
7.7431314
7.8558005
8.003036
8.2471269
8.4477629
8.743459
9.0844213
10.592837
10.691237
34.191189
20.407226
11.221674
9.7876659
9.5899243
9.4542234
9.2912129
9.0774265
8.8607878
8.6309505
8.4300995
8.2315609
8.0534898
7.8748346
7.7132109
7.562655
7.4141771
7.2822713
7.1681063
7.0681407
6.9881203
6.922606
6.8728422
6.8362984
6.8105794
6.7897834
6.7742037
6.7624666
6.7542807
6.7470446
6.7414501
6.7373546
6.7343025
6.7332126
6.7339423
6.7361031
6.7411532
6.7496914
6.762394
6.7802458
6.8046597
6.8375266
6.8816121
6.9410981
7.0224225
7.1364234
7.3024141
7.5611105
8.0813204
33.78301
17.329501
10.716679
9.5880983
9.5719292
9.3635771
9.2206417
9.0080959
8.8037639
8.571092
8.3673462
8.1630158
7.985827
7.8232459
7.6827827
7.5403885
7.4042204
7.2763265
7.1646629
7.0737603
6.9957005
6.9327532
6.8849061
6.8492199
6.8247992
6.8052588
6.7908393
6.7796931
6.7716047
6.7644927
6.7590417
6.7549375
6.751975
6.7509644
6.7518961
6.7541294
6.7593119
6.7679984
6.780862
6.7989253
6.8235855
6.8567198
6.9011389
6.9610325
7.0429208
7.1576494
7.3248046
7.5853144
8.1120966
33.879444
15.801601
10.352384
9.5850526
9.5534048
9.3274762
9.1997248
8.9759735
8.7814445
8.5388443
8.3380862
8.1304091
7.9722885
7.8039333
7.6614863
7.5298267
7.4041094
7.2853382
7.1733237
7.0813801
7.004555
6.9444958
6.8979112
6.8627301
6.8390447
6.820791
6.806922
6.7962157
6.7880032
6.7810946
6.7757637
6.7717241
6.7689507
6.7680372
6.7691575
6.7715475
6.7769059
6.785757
6.7988157
6.8171273
6.8420786
6.87553
6.920338
6.9806988
7.0632117
7.1787142
7.3470534
7.6093465
8.135843
33.25996
15.88137
10.411561
9.5229675
9.5797908
9.2899664
9.1661241
8.9228703
8.7427276
8.4911739
8.2993125
8.0887139
7.9339693
7.7750324
7.6523544
7.5277356
7.406934
7.2881866
7.1839406
7.0891315
7.0096149
6.9545175
6.9095311
6.875911
6.8526092
6.8354586
6.8220329
6.81187
6.803611
6.7970028
6.7918338
6.7879573
6.7854974
6.7847353
6.7860488
6.7887065
6.7943145
6.8033792
6.816698
6.8353234
6.8606432
6.8945012
6.939794
7.0007339
7.0840066
7.2004321
7.3701228
7.6345262
8.1631258
32.751092
15.064306
10.239267
9.5259619
9.5723333
9.2634884
9.1540528
8.8815561
8.7109464
8.45433
8.2810873
8.0636527
7.913779
7.7560305
7.6393782
7.5119668
7.4001763
7.2920149
7.1883671
7.0949047
7.0163041
6.9637404
6.9203628
6.8889521
6.8660032
6.8497851
6.8365766
6.826962
6.8187922
6.812477
6.8075666
6.8039057
6.801771
6.8011877
6.8026974
6.8056987
6.8116149
6.8209386
6.8345717
6.8535637
6.8793151
6.9136567
6.9595144
7.0211286
7.1052758
7.2227424
7.3939181
7.6605884
8.190435
32.319819
15.232974
10.292861
9.5195959
9.5697399
9.2403312
9.1031477
8.8304987
8.6589708
8.4212964
8.2453522
8.032367
7.8949809
7.7370712
7.6289318
7.5108102
7.4001727
7.2905273
7.1896398
7.1006112
7.0242176
6.973484
6.9311682
6.9021137
6.8797515
6.864072
6.8510093
6.8417149
6.8338669
6.8277686
6.823197
6.8197598
6.8178913
6.8175004
6.8192202
6.8226128
6.828886
6.8385267
6.8525268
6.8719393
6.8981848
6.9330902
6.979595
7.0419825
7.1271154
7.2457599
7.4185724
7.6876751
8.2199944
31.672541
14.321487
10.177253
9.5495948
9.5075047
9.2135701
9.056425
8.7811716
8.618855
8.4003083
8.2290389
8.02386
7.8838586
7.7258213
7.618756
7.5085369
7.4002485
7.2904179
7.1902932
7.1066675
7.0344736
6.984752
6.9431249
6.915366
6.893705
6.8781747
6.8654529
6.8562249
6.8489223
6.8429987
6.8388298
6.8356238
6.8339384
6.8337763
6.8357122
6.8395196
6.8461865
6.8562119
6.8706299
6.8905168
6.9173168
6.9528658
7.000099
7.0633617
7.1495863
7.2695492
7.444162
7.7158349
8.2513582
31.319269
14.330286
10.211948
9.5650166
9.5036113
9.2017863
9.034054
8.751312
8.5801462
8.3730288
8.199306
8.0073002
7.8707998
7.7190867
7.6075316
7.4962569
7.3944019
7.2901112
7.1928864
7.1144854
7.0456589
6.9961537
6.9554358
6.9280586
6.907576
6.8920494
6.8799927
6.8706383
6.8639557
6.8581985
6.854479
6.8515363
6.8499688
6.8500846
6.8522436
6.8564744
6.8635627
6.8740458
6.8889344
6.9093511
6.9367659
6.9730395
7.021091
7.0853285
7.1727532
7.2941785
7.4707637
7.7451917
8.2845981
30.733656
13.174385
10.15271
9.581711
9.5090725
9.1849281
9.0328724
8.7337822
8.5550668
8.3337099
8.1716295
7.9906842
7.8498366
7.7091128
7.5937306
7.4841961
7.3880713
7.2922141
7.1978148
7.1231744
7.0563112
7.0067903
6.9675092
6.9399869
6.9210293
6.9055928
6.894366
6.8849054
6.8787927
6.8732257
6.8699795
6.8673888
6.8659416
6.8664172
6.8687961
6.8734707
6.8810051
6.8920183
6.907437
6.9284438
6.9565387
6.9936202
7.0425887
7.1079059
7.1966517
7.3196892
7.4984314
7.7758922
8.3195479
30.841125
13.149042
10.212853
9.5895373
9.5342474
9.1829738
9.0359562
8.7247636
8.5268329
8.2886063
8.1391905
7.9500088
7.8183777
7.6937692
7.5814729
7.4750757
7.3836851
7.2941025
7.2037681
7.1291102
7.0658603
7.0167572
6.9783585
6.951058
6.9337577
6.9187012
6.9083372
6.8990235
6.8932893
6.8880226
6.8852473
6.8831144
6.8818755
6.882801
6.8854182
6.8905493
6.898564
6.9101692
6.9261807
6.9478394
6.9766822
7.014652
7.0646397
7.1311461
7.2213316
7.3461321
7.5272267
7.8079746
8.3555726
30.196652
11.907731
10.138519
9.6114617
9.5421206
9.1762125
9.0165198
8.697282
8.4862654
8.2498734
8.1105175
7.9260925
7.7979731
7.6720887
7.5674125
7.4667462
7.3804522
7.2954232
7.2086913
7.1322482
7.0724714
7.025403
6.9886363
6.9619915
6.9459019
6.9315943
6.9218731
6.9131434
6.9074754
6.9026615
6.9003331
6.898726
6.8978377
6.8992937
6.9022147
6.9078085
6.9163489
6.9285893
6.9452578
6.9676309
6.997291
7.0362289
7.0873323
7.1551472
7.2468937
7.3736084
7.5572572
7.8415772
8.3932223
30.077246
11.652047
10.175188
9.6092466
9.5434803
9.1684423
8.9663993
8.6516961
8.4462946
8.2207374
8.0790674
7.9109573
7.7840765
7.6580203
7.558755
7.4592715
7.3763029
7.2951207
7.2114717
7.1355389
7.077427
7.031797
6.998886
6.9741345
6.9579406
6.9444494
6.934934
6.9272804
6.9215607
6.9171759
6.9152633
6.9142446
6.9138286
6.9158702
6.919216
6.9252779
6.9343924
6.9473082
6.964698
6.9878525
7.0184034
7.0583877
7.110707
7.1799586
7.2733926
7.4021793
7.588588
7.8767291
8.4325557
29.019232
11.121574
10.076746
9.6294103
9.5071595
9.1530904
8.9253158
8.618721
8.4252574
8.2073229
8.053488
7.9034907
7.7755616
7.6496346
7.5519157
7.4532431
7.3708679
7.2930209
7.2112578
7.1387557
7.0844112
7.0380037
7.0078119
6.9871381
6.9704369
6.9573558
6.9475733
6.9411874
6.9357983
6.9316316
6.9300313
6.9296864
6.9298062
6.9324443
6.9363782
6.9429364
6.9526756
6.9663076
6.9844875
7.0084956
7.0400172
7.081135
7.1347771
7.205595
7.3008668
7.4318971
7.6212969
7.9135396
8.4735949
27.621297
11.208365
10.13517
9.6205882
9.5066708
9.1499484
8.8960069
8.599236
8.4093479
8.205342
8.0385101
7.8906822
7.7619889
7.6421478
7.5407143
7.4484403
7.369049
7.2930111
7.2099993
7.1384161
7.0906207
7.0483199
7.016846
6.9981297
6.9833107
6.9704963
6.9603084
6.9547685
6.9501965
6.9462982
6.9447867
6.9450927
6.9458603
6.9490294
6.9537112
6.9608266
6.9712378
6.9856337
7.0046666
7.0296063
7.0621802
7.1045208
7.1595941
7.2321001
7.3293756
7.4628311
7.655481
7.9522793
8.5172084
26.522157
11.056415
10.207777
9.6459734
9.4990063
9.1574813
8.8825421
8.5780985
8.3779681
8.1939394
8.0249335
7.8725147
7.7486429
7.6361093
7.5273423
7.4404973
7.3674791
7.2943133
7.2119103
7.1385919
7.0912667
7.0599823
7.0292683
7.0076368
6.9943799
6.9835121
6.9736444
6.9681465
6.9645842
6.9612361
6.9598524
6.9605495
6.9621301
6.9657413
6.9712736
6.9790296
6.9901693
7.0053805
7.0253302
7.051278
7.0849912
7.128642
7.1852538
7.259577
7.3590169
7.4950993
7.6912668
7.9931538
8.5632974
25.780482
11.221404
10.220708
9.6613422
9.4738957
9.1457242
8.8782171
8.5682963
8.3446512
8.1693991
7.9976343
7.8465358
7.7254311
7.6273154
7.5217602
7.4323064
7.3625691
7.2930085
7.2141154
7.1473864
7.0927229
7.0656662
7.041588
7.0191396
7.0042566
6.9952533
6.9873819
6.981716
6.9788047
6.9761719
6.9753706
6.9761029
6.9785886
6.9826641
6.9890488
6.9975351
7.0094791
7.0255576
7.0464951
7.0735329
7.1084779
7.1535339
7.2117975
7.2880722
7.389829
7.5287615
7.7287334
8.0360799
8.611683
24.522199
10.862701
10.195242
9.6614341
9.4493757
9.111051
8.8250139
8.5624955
8.3151567
8.1567727
7.969442
7.8288403
7.705609
7.6019169
7.5219077
7.4297693
7.3569033
7.2896639
7.213977
7.153152
7.1058745
7.0698134
7.0493036
7.0310931
7.0165641
7.0057999
7.0003489
6.9955344
6.9929686
6.9909283
6.9911215
6.9918979
6.995196
6.9998533
7.0070295
7.0163281
7.0291636
7.0461586
7.0681603
7.0963847
7.1326586
7.1792245
7.239257
7.3176271
7.4218682
7.5638859
7.7679756
8.0810534
8.6628203
23.898174
11.097509
10.216374
9.6610213
9.3919681
9.1051916
8.7457158
8.5515547
8.2717571
8.1490207
7.9474617
7.8222009
7.6950298
7.5886404
7.5077444
7.4300821
7.3545813
7.2877708
7.216952
7.1558783
7.115423
7.081718
7.0554449
7.0409848
7.0291154
7.0184017
7.012434
7.0091898
7.0072214
7.0056792
7.0068705
7.0081012
7.0119812
7.017353
7.0252957
7.0354714
7.0492777
7.0672463
7.0903867
7.119894
7.1575956
7.2057871
7.2677204
7.3483312
7.4552235
7.6005662
7.8090918
8.1284065
8.7167507
22.830908
10.928541
10.173385
9.6750127
9.3489313
9.1007171
8.7083506
8.5394853
8.2421348
8.1279551
7.9228391
7.8162455
7.6909125
7.586648
7.4985218
7.4221571
7.3563415
7.2867647
7.2198878
7.1605489
7.1217157
7.0933448
7.0665213
7.0501025
7.0402881
7.0315983
7.0255556
7.0228244
7.0213786
7.0206969
7.0225695
7.0247201
7.0290392
7.0352116
7.0439444
7.055052
7.0698893
7.0889232
7.1132483
7.1441286
7.1833713
7.2333105
7.2972831
7.3802841
7.490001
7.6389169
7.8521978
8.1782824
8.7739732
21.903383
10.647376
10.237435
9.6782302
9.3346579
9.0543424
8.694071
8.5159841
8.2322428
8.1083258
7.9000709
7.8061084
7.6690202
7.5895778
7.494484
7.4158651
7.3567095
7.2919301
7.2206577
7.1651555
7.129224
7.1025844
7.0786134
7.0617103
7.0509891
7.0438145
7.0390478
7.0370814
7.0355408
7.0359622
7.0383372
7.0416222
7.04643
7.0534361
7.0629845
7.0750974
7.0910177
7.1112113
7.1367956
7.1691432
7.2100288
7.2618427
7.3279933
7.4135512
7.5262893
7.6790329
7.8973757
8.2309363
8.8347237
21.354041
10.694524
10.250472
9.617682
9.3405459
9.0212934
8.6820891
8.4692021
8.2089714
8.0957693
7.881467
7.7970644
7.6461138
7.581595
7.4865692
7.4148502
7.3506979
7.2941271
7.224836
7.1692591
7.1372064
7.1123444
7.0898739
7.073326
7.06262
7.0560336
7.052033
7.0515613
7.0501758
7.051373
7.0542271
7.0586739
7.0641406
7.0720069
7.0824137
7.0956083
7.1126662
7.1341112
7.1610693
7.1949548
7.237595
7.2914326
7.3598954
7.448198
7.5641802
7.7210189
7.9447066
8.2863136
8.8985571
20.43797
10.438668
10.280427
9.5709617