/*--------------------------------*- C++ -*----------------------------------*\
| =========                 |                                                 |
| \\      /  F ield         | OpenFOAM: The Open Source CFD Toolbox           |
|  \\    /   O peration     | Version:  2506                                  |
|   \\  /    A nd           | Website:  www.openfoam.com                      |
|    \\/     M anipulation  |                                                 |
\*---------------------------------------------------------------------------*/
FoamFile
{
    version     2.0;
    format      ascii;
    arch        "LSB;label=32;scalar=64";
    class       volScalarField;
    location    "0.65";
    object      nut;
}
// * * * * * * * * * * * * * * * * * * * * * * * * * * * * * * * * * * * * * //

dimensions      [0 2 -1 0 0 0 0];

internalField   nonuniform List<scalar> 
19257
(
0.19773427
0.19616284
0.19507662
0.19427624
0.19366011
0.19319627
0.19285496
0.19260195
0.19240971
0.19225958
0.19213642
0.19203152
0.1919385
0.19185614
0.19178087
0.19171543
0.19165306
0.19159589
0.19154628
0.19149955
0.19145723
0.19142241
0.19139199
0.19136951
0.19135077
0.19134875
0.19135528
0.19137794
0.19141655
0.19150397
0.19162582
0.1917992
0.18513408
0.15741586
0.11842845
0.098314852
0.074996356
0.060678473
0.062369832
0.042126996
0.034629294
0.02643262
0.030265384
0.016027157
0.016401574
0.0087610574
0.0077984725
0.005503352
0.00072265077
0.19770317
0.19621627
0.19517304
0.19438523
0.19377471
0.19330829
0.19296048
0.19270109
0.19250259
0.19234651
0.19221819
0.19210781
0.19201041
0.19192314
0.19184422
0.19177504
0.19170873
0.19164775
0.19159668
0.19154639
0.19150147
0.19146334
0.19142994
0.19140549
0.1913846
0.19137774
0.19138005
0.19140247
0.19143787
0.19150815
0.19162684
0.19179289
0.19202928
0.15970484
0.12365518
0.098161075
0.08505882
0.064876723
0.047652651
0.041307992
0.032669344
0.026582731
0.015964631
0.013297134
0.010744422
0.0055988475
0.0089183728
0.0049229032
0.00075868188
0.19781278
0.1963802
0.19533112
0.19454356
0.19392955
0.19345275
0.19309225
0.19282142
0.19261312
0.19244836
0.19231267
0.19219528
0.19209174
0.19199967
0.19191633
0.19184165
0.19177117
0.19170678
0.19165241
0.1915979
0.19154935
0.19150689
0.19147181
0.1914435
0.19142099
0.19140816
0.19140928
0.19142645
0.19145722
0.19150922
0.19163071
0.19177316
0.18769252
0.15188671
0.1270879
0.10303642
0.08262498
0.062278475
0.054719259
0.045358949
0.02813117
0.02695289
0.023839012
0.013988374
0.0103541
0.0070124199
0.007731587
0.0044812798
0.00073721996
0.19788638
0.19649734
0.19547302
0.19469717
0.19408478
0.19360151
0.19322993
0.19294832
0.19273036
0.19255674
0.19241284
0.19228874
0.19217879
0.1920813
0.19199217
0.19191232
0.19183804
0.19176885
0.19170909
0.1916517
0.19159963
0.19155401
0.1915166
0.19148385
0.19145874
0.19144226
0.1914389
0.19144853
0.19147837
0.19152123
0.19163436
0.19175789
0.19197393
0.15971883
0.12785068
0.099735342
0.082902831
0.07107145
0.048518331
0.043705427
0.036810858
0.022569092
0.021377616
0.01664847
0.014468354
0.0068723941
0.0056805295
0.003375709
0.00075315195
0.19796547
0.19662861
0.1956269
0.19486242
0.19425084
0.19376093
0.19337804
0.19308487
0.19285649
0.19267346
0.19252051
0.1923892
0.1922722
0.19216798
0.19207337
0.19198803
0.19190846
0.19183438
0.19176889
0.19170903
0.19165359
0.19160449
0.19156322
0.19152767
0.19149771
0.19147739
0.19146997
0.19147712
0.19150002
0.19153542
0.19163409
0.19175091
0.19195134
0.15775251
0.13049789
0.10992622
0.080670928
0.067941142
0.053637097
0.041377387
0.034275349
0.027619946
0.018296759
0.016292853
0.0073654783
0.0063155909
0.0054517518
0.0040253213
0.00080753344
0.19803001
0.19675638
0.19578452
0.19503383
0.19442334
0.19392721
0.19353462
0.19323015
0.19299115
0.19279817
0.19263587
0.192496
0.19237175
0.19226066
0.1921602
0.19206826
0.19198288
0.19190392
0.19183297
0.19177027
0.19171105
0.19165764
0.19161219
0.19157344
0.19154029
0.19151603
0.19150376
0.19150393
0.1915226
0.19155804
0.19162797
0.19175813
0.19192657
0.16589809
0.12956655
0.10496067
0.088906601
0.067997428
0.055270152
0.041246089
0.033164271
0.02454165
0.02201514
0.013212798
0.014129609
0.0091042223
0.0044811779
0.0029225638
0.00079028023
0.19808281
0.1968812
0.19594514
0.19520823
0.19460063
0.19409999
0.19369833
0.1933834
0.19313371
0.19293007
0.19275793
0.19260919
0.19247728
0.19235891
0.19225177
0.19215294
0.19206209
0.19197817
0.19190162
0.19183349
0.19177091
0.1917138
0.19166267
0.19162011
0.19158566
0.1915565
0.19153789
0.19153546
0.19154909
0.19157767
0.19162893
0.19176462
0.19190279
0.16485358
0.13723238
0.10678685
0.085669157
0.068215369
0.056566968
0.0429489
0.035666053
0.025832198
0.018795178
0.017401009
0.0082384655
0.0058302792
0.006324589
0.003592397
0.00087494244
0.19814353
0.19700866
0.19610639
0.19538354
0.19477944
0.19427572
0.19386732
0.19354268
0.19328239
0.19306819
0.1928861
0.19272782
0.19258791
0.19246146
0.1923474
0.19224246
0.19214547
0.19205569
0.19197278
0.19189944
0.19183349
0.19177222
0.19171665
0.19166984
0.19163114
0.19159924
0.19157681
0.19156689
0.19157448
0.19159645
0.1916443
0.19175973
0.19188102
0.169217
0.13678267
0.11101782
0.089014605
0.070637598
0.053871509
0.0437942
0.033035233
0.027272508
0.019851388
0.01340553
0.013662327
0.0063568696
0.0041997682
0.0025855413
0.00086207163
0.1982077
0.19713282
0.19626331
0.19555464
0.1949562
0.19445224
0.19403857
0.19370486
0.1934348
0.19321065
0.19301911
0.19285124
0.19270282
0.19256833
0.19244652
0.19233493
0.19223186
0.19213656
0.19204836
0.19196917
0.19189831
0.1918332
0.19177368
0.19172142
0.19167786
0.1916422
0.19161647
0.19160246
0.19160273
0.19161746
0.19166817
0.19173559
0.19188327
0.1740243
0.13927851
0.11133451
0.089359288
0.072092254
0.057447941
0.043991621
0.033984051
0.026511498
0.019814749
0.015593605
0.009225766
0.0063462212
0.0065032854
0.0033854722
0.00093069215
0.19826822
0.19725329
0.19641399
0.19571987
0.19512836
0.19462581
0.19420853
0.19386809
0.19358964
0.19335655
0.19315611
0.19297899
0.19282105
0.19267787
0.1925482
0.19243015
0.19232035
0.19221851
0.19212473
0.19204008
0.19196418
0.19189477
0.19183105
0.19177484
0.1917272
0.19168771
0.1916571
0.1916376
0.19163178
0.19164098
0.19168561
0.19172113
0.19190256
0.17759837
0.14375982
0.11458185
0.090701456
0.072560317
0.057556175
0.04461519
0.035332899
0.025417885
0.020790389
0.014227899
0.011534057
0.0073750827
0.0039127948
0.0025574649
0.00090030805
0.1983277
0.19736668
0.19655779
0.19587767
0.1952944
0.19479533
0.19437697
0.19403177
0.19374605
0.19350444
0.19329495
0.1931086
0.19294118
0.1927889
0.19265052
0.19252554
0.1924102
0.19230262
0.19220275
0.19211214
0.19203099
0.19195686
0.19188832
0.19182755
0.191776
0.19173275
0.191698
0.19167383
0.1916623
0.1916664
0.1917012
0.19172143
0.1919158
0.1822205
0.14556238
0.11689439
0.092148222
0.074152645
0.058239909
0.045687566
0.034614267
0.027855944
0.019258128
0.014930811
0.0097179991
0.0069632615
0.0060161136
0.0029523429
0.00089178636
0.19838371
0.19746956
0.19668949
0.19602634
0.19545349
0.19496046
0.19454364
0.19419493
0.19390206
0.19365133
0.19343235
0.19323653
0.19305992
0.19289911
0.19275222
0.19261973
0.19249857
0.19238596
0.19228045
0.1921838
0.19209676
0.19201809
0.1919457
0.19188053
0.19182429
0.19177711
0.19173853
0.19171014
0.19169325
0.19169166
0.19171387
0.19173984
0.19191536
0.18638983
0.15041327
0.11901393
0.095167232
0.073804641
0.059665299
0.046420788
0.035214663
0.027133726
0.02022392
0.015718767
0.010360947
0.0075229832
0.0039391145
0.0026601142
0.00094918016
0.19843385
0.19756412
0.19681197
0.19616726
0.19560513
0.19512043
0.19470657
0.19435423
0.19405335
0.193793
0.19356449
0.19335978
0.19317472
0.19300646
0.19285225
0.19271227
0.19258467
0.19246636
0.19235536
0.19225314
0.19216059
0.19207707
0.19200061
0.19193134
0.19187108
0.19181998
0.19177764
0.19174545
0.19172405
0.19171851
0.19172809
0.19177752
0.19187864
0.18944624
0.15362114
0.12049161
0.097057219
0.076228702
0.059446934
0.046681205
0.036022771
0.027103715
0.020600219
0.013662645
0.011846816
0.0063669742
0.0053709994
0.0024850313
0.00090498488
0.19849127
0.19766515
0.19693351
0.19629992
0.19574755
0.19527089
0.19485983
0.19450448
0.19419561
0.19392563
0.19368794
0.19347563
0.19328345
0.19310827
0.19294733
0.19280033
0.19266649
0.19254267
0.19242646
0.19231866
0.19222084
0.19213259
0.19205215
0.19197878
0.19191439
0.19185954
0.19181402
0.19177868
0.19175322
0.1917424
0.19174466
0.19179559
0.19184951
0.19204236
0.15583454
0.12384399
0.096553103
0.078110607
0.060601124
0.046940373
0.036357321
0.026872735
0.020997903
0.0150414
0.0098583419
0.007758005
0.0037997625
0.002893674
0.00095284479
0.19853585
0.19773898
0.19703034
0.19641164
0.19587272
0.19540387
0.19499524
0.1946373
0.19432317
0.19404633
0.19380123
0.19358223
0.19338361
0.19320172
0.19303431
0.19288059
0.19274058
0.19261159
0.19249112
0.19237869
0.19227601
0.19218314
0.1920989
0.19202197
0.19195391
0.19189539
0.19184679
0.19180842
0.19177969
0.19176479
0.19176056
0.19181047
0.19182997
0.19204898
0.15827642
0.12513714
0.098471507
0.077593716
0.061280596
0.047847788
0.036090907
0.027920771
0.019873576
0.01547505
0.010084498
0.0070591898
0.0046809432
0.0023481804
0.00088416292
0.1985792
0.19780678
0.1971127
0.19650652
0.19597927
0.1955172
0.19511028
0.19475076
0.19443366
0.19415279
0.19390292
0.19367782
0.19347211
0.19328325
0.19310966
0.19295021
0.19280485
0.19267124
0.19254691
0.1924307
0.19232391
0.19222691
0.19213917
0.19205908
0.19198793
0.1919264
0.19187529
0.19183456
0.19180316
0.1917847
0.19177464
0.1918219
0.19181277
0.19205225
0.16042702
0.1266258
0.099651313
0.078817679
0.061863924
0.047772163
0.036965348
0.027619842
0.020647158
0.014679693
0.0108367
0.0066111304
0.0042806669
0.0026264837
0.0009564758
0.19861402
0.19786208
0.19718264
0.19658762
0.19606793
0.19561046
0.19520575
0.1948466
0.19452726
0.19424245
0.19398739
0.19375586
0.19354376
0.19334933
0.19317074
0.19300668
0.19285688
0.19271955
0.1925923
0.19247321
0.19236304
0.19226255
0.19217168
0.19208865
0.19201456
0.19195026
0.19189689
0.19185429
0.1918207
0.19179939
0.19178493
0.19182893
0.19179813
0.19205273
0.16419272
0.13020254
0.10192549
0.080663141
0.063495857
0.049158671
0.037495874
0.02832539
0.021105612
0.015133523
0.010564299
0.0072454689
0.0042012072
0.002599798
0.00089341695
0.19864088
0.19790106
0.19723128
0.19664483
0.19613221
0.19568129
0.19527939
0.19491902
0.19459663
0.19430791
0.19404816
0.19381219
0.19359612
0.19339784
0.19321547
0.19304799
0.19289497
0.19275493
0.1926256
0.19250455
0.19239213
0.19228933
0.1921963
0.19211141
0.19203572
0.19196997
0.19191519
0.19187111
0.19183577
0.19181232
0.19179529
0.19183701
0.19179463
0.19205819
0.16821443
0.1333061
0.10436448
0.082240261
0.06478872
0.050170123
0.038316128
0.028893277
0.021347922
0.015532522
0.010752387
0.0071422063
0.0045081087
0.0026286291
0.00093908986
0.19865644
0.19792495
0.19726148
0.19668016
0.196171
0.1957222
0.19532153
0.1949618
0.19463834
0.19434716
0.19408484
0.19384651
0.19362793
0.19342722
0.19324273
0.19307326
0.19291808
0.19277593
0.19264487
0.19252252
0.19240885
0.19230487
0.19221112
0.19212599
0.1920501
0.19198452
0.19193022
0.19188692
0.1918525
0.19183017
0.19181444
0.1918574
0.19181785
0.1920843
0.16463178
0.13056794
0.10226197
0.080488647
0.063225343
0.04899962
0.037415024
0.028186589
0.020857254
0.015020536
0.0104872
0.0069406913
0.0042319062
0.002543444
0.00092159389
0.19866141
0.19793194
0.19727025
0.19669033
0.19618242
0.1957336
0.19533265
0.19497373
0.19465036
0.19435938
0.19409705
0.19385861
0.19363992
0.193439
0.19325427
0.19308412
0.19292766
0.19278377
0.19265113
0.19252748
0.1924126
0.19230799
0.19221433
0.19212983
0.19205469
0.19198966
0.19193607
0.19189375
0.19186051
0.19183957
0.19182511
0.19187045
0.19183875
0.19210544
0.16025373
0.12709795
0.099716435
0.078417173
0.061547024
0.047657667
0.036409278
0.027404247
0.020272903
0.014586828
0.010114067
0.0066644246
0.004033687
0.0023513954
0.00087820306
0.19865602
0.19792458
0.19726123
0.19668009
0.19617115
0.19572152
0.19532012
0.19496049
0.19463709
0.19434587
0.19408317
0.19384475
0.19362638
0.19342581
0.19324163
0.19307246
0.19291732
0.19277518
0.19264468
0.19252271
0.19240875
0.19230466
0.19221063
0.19212519
0.19204884
0.19198236
0.19192746
0.19188378
0.19184906
0.19182672
0.19181138
0.19185498
0.19181437
0.19208005
0.16436227
0.13034408
0.10235762
0.080562344
0.063164347
0.048970732
0.03739359
0.028252627
0.020821547
0.015077818
0.010452187
0.0069544471
0.0042431204
0.0025403076
0.00092484087
0.19864011
0.19790133
0.19723171
0.19664523
0.19613245
0.19567993
0.19527623
0.19491717
0.19459592
0.19430732
0.19404714
0.19381122
0.19359545
0.19339711
0.19321487
0.1930476
0.1928942
0.19275393
0.19262538
0.19250504
0.19239242
0.19228938
0.19219598
0.19211097
0.1920349
0.1919689
0.19191468
0.1918711
0.19183564
0.19181203
0.19179503
0.19183729
0.19179173
0.19205408
0.16693847
0.13233478
0.1043353
0.082106809
0.064553651
0.049994592
0.038433305
0.028840902
0.021556251
0.015439651
0.010803965
0.0071364329
0.0044980847
0.0026165697
0.00091879022
0.19861412
0.19786262
0.1971831
0.19658701
0.19606609
0.19560938
0.19520573
0.19484644
0.19452718
0.19424202
0.19398616
0.19375473
0.19354347
0.19334927
0.19317095
0.1930071
0.19285614
0.19271773
0.19259102
0.19247273
0.19236236
0.19226175
0.19217049
0.19208732
0.19201309
0.19194909
0.19189708
0.19185547
0.19182183
0.19180024
0.19178589
0.1918306
0.19179628
0.1920491
0.16240563
0.12897788
0.10159704
0.080514369
0.062833788
0.049080579
0.037392179
0.028582823
0.021089463
0.0151292
0.010585247
0.0071562667
0.0041585922
0.0026943661
0.00094306467
0.19858025
0.19780719
0.19711225
0.196506
0.19597795
0.19551534
0.19510942
0.19475034
0.19443313
0.19415239
0.193902
0.1936763
0.19347089
0.19328233
0.19310945
0.19295037
0.19280349
0.19266858
0.19254498
0.1924294
0.19232194
0.19222444
0.19213629
0.19205631
0.19198501
0.19192382
0.19187449
0.19183548
0.19180487
0.19178675
0.1917775
0.19182522
0.19181164
0.19204932
0.15882266
0.12550209
0.09961875
0.078322559
0.061720333
0.047752739
0.036753526
0.028039157
0.020373541
0.014984607
0.010636108
0.0067146214
0.004540374
0.002336967
0.00089758475
0.19853731
0.19773991
0.19702806
0.19640908
0.19587238
0.19540514
0.19499582
0.19463722
0.19432283
0.19404623
0.1938007
0.19358079
0.19338172
0.19319952
0.19303292
0.19287964
0.1927382
0.19260835
0.19248916
0.19237739
0.19227384
0.19218022
0.19209579
0.19201937
0.19195153
0.19189401
0.19184789
0.19181163
0.19178354
0.19176856
0.19176509
0.19181468
0.19182852
0.19204695
0.15626545
0.12369648
0.098467729
0.077398226
0.060929441
0.04715375
0.036836446
0.027247036
0.020279027
0.015369073
0.010101069
0.0073155587
0.004025052
0.0028388472
0.00091608869
0.1984921
0.19766385
0.19693044
0.19629656
0.1957484
0.19527349
0.19486145
0.19450434
0.19419564
0.19392606
0.19368728
0.19347385
0.19328099
0.19310515
0.19294521
0.19279855
0.19266355
0.19253974
0.19242577
0.19231862
0.19221945
0.19212998
0.19204948
0.19197701
0.19191316
0.19185935
0.19181623
0.19178285
0.19175774
0.19174686
0.19174978
0.19179996
0.19184615
0.19204188
0.15378766
0.12290958
0.096775614
0.07696178
0.060255936
0.047448363
0.035848099
0.027261611
0.021448438
0.014613379
0.010421422
0.0066885644
0.0046762369
0.0025248514
0.00094745294
0.19843402
0.1975653
0.19681031
0.19616523
0.19560654
0.19512395
0.19470916
0.19435499
0.19405366
0.19379301
0.19356343
0.19335822
0.19317249
0.1930035
0.19285036
0.19271042
0.19258202
0.19246468
0.19235605
0.19225343
0.19215872
0.19207367
0.19199697
0.19192811
0.19186801
0.19181821
0.19177899
0.19174941
0.19172848
0.19172275
0.19173346
0.19178075
0.19187264
0.1895286
0.15130789
0.12014501
0.095512182
0.076130476
0.059483772
0.046487126
0.035741303
0.027867442
0.020248329
0.014328263
0.010740138
0.0075368318
0.0044507438
0.0024863521
0.00089946881
0.19838369
0.19747158
0.19668855
0.19602443
0.19545352
0.19496354
0.19454737
0.19419723
0.19390291
0.19365144
0.19343176
0.19323599
0.1930586
0.19289728
0.19275124
0.1926182
0.19249656
0.19238524
0.19228151
0.19218369
0.19209393
0.19201309
0.19194028
0.19187568
0.19182012
0.19177477
0.19173926
0.19171324
0.19169615
0.19169458
0.19171789
0.19173993
0.19191234
0.1859567
0.14821087
0.11799974
0.095063071
0.073954107
0.059492606
0.045566109
0.036130406
0.026737235
0.020685397
0.014668579
0.010509225
0.0073022322
0.004254414
0.0029101415
0.00095565178
0.1983334
0.19736871
0.19655627
0.19587512
0.19529367
0.19479816
0.1943817
0.19403575
0.19374822
0.19350563
0.19329549
0.19310954
0.19294119
0.19278837
0.1926501
0.1925241
0.19240859
0.19230307
0.19220475
0.19211189
0.19202735
0.19195122
0.19188346
0.19182333
0.19177181
0.19173016
0.19169805
0.19167587
0.19166384
0.19166777
0.19170316
0.19172026
0.19191142
0.18109194
0.14485185
0.11656535
0.091730944
0.073723014
0.057634589
0.04549253
0.034513677
0.028303847
0.018866006
0.015206621
0.011399149
0.0067882721
0.005125374
0.0024796086
0.00087989754
0.19828268
0.19725762
0.19641217
0.19571671
0.19512742
0.19462805
0.19421329
0.19387269
0.19359246
0.19335824
0.19315734
0.19298119
0.19282225
0.19267851
0.19254823
0.192429
0.1923199
0.19222052
0.19212702
0.19203925
0.19196024
0.19188925
0.19182543
0.19176881
0.19172188
0.19168465
0.19165713
0.19163965
0.19163263
0.19164135
0.19168721
0.19171957
0.19189766
0.1775793
0.14201613
0.11362992
0.090787315
0.072100083
0.057003004
0.045035472
0.035531153
0.025530411
0.020669288
0.014980486
0.0098047522
0.007600253
0.0045538937
0.0028183913
0.00092212451
0.19822176
0.19713875
0.19626146
0.19555094
0.1949552
0.19445348
0.1940415
0.19370835
0.19343717
0.19321208
0.19302077
0.19285398
0.19270437
0.19256953
0.19244729
0.19233482
0.19223245
0.19213854
0.19204955
0.19196783
0.19189382
0.19182687
0.19176777
0.19171661
0.19167364
0.19163886
0.1916153
0.19160304
0.1916021
0.19161742
0.19166946
0.19173408
0.19187958
0.17251289
0.13960513
0.11179885
0.088138606
0.071773865
0.057170219
0.043236191
0.034344273
0.027660021
0.019305692
0.01498703
0.010636009
0.0076645126
0.0056594072
0.0027401637
0.00089320199
0.1981528
0.19701223
0.19610714
0.19538091
0.19477817
0.19427634
0.19386924
0.19354486
0.19328388
0.19306899
0.19288761
0.19272998
0.19258939
0.1924634
0.19234887
0.19224338
0.19214709
0.19205837
0.19197459
0.19189818
0.19182881
0.19176676
0.19171153
0.19166413
0.19162479
0.19159489
0.1915767
0.19156781
0.1915705
0.19159362
0.19164528
0.19175789
0.1918759
0.16999554
0.1366256
0.10718234
0.088343518
0.070488705
0.052041815
0.045907739
0.033944349
0.023889162
0.021549572
0.014837004
0.0098887719
0.0078771032
0.0041797519
0.0030193877
0.00088662156
0.19809014
0.19688399
0.19594844
0.19520881
0.19460098
0.19410051
0.19369934
0.19338442
0.19313457
0.19293074
0.19275958
0.19261068
0.19247862
0.19236108
0.19225398
0.19215567
0.19206488
0.19198045
0.19190215
0.19183128
0.19176685
0.19170892
0.19165689
0.19161398
0.19158018
0.19155466
0.19153884
0.19153363
0.19154327
0.19157461
0.19162965
0.19176093
0.19189416
0.16563491
0.13243175
0.10817827
0.086530986
0.06595533
0.060591934
0.040135555
0.031890302
0.028789457
0.019528057
0.013351739
0.012304353
0.0072556747
0.0068992418
0.0032894327
0.00084471403
0.19804024
0.19675899
0.19578912
0.1950367
0.19442604
0.19392892
0.19353529
0.1932304
0.19299154
0.19279878
0.19263758
0.19249687
0.19237307
0.19226366
0.19216369
0.19207176
0.19198616
0.19190659
0.1918337
0.19176754
0.19170763
0.19165293
0.19160494
0.19156649
0.19153536
0.19151376
0.19150388
0.19150254
0.19151744
0.19155723
0.19162486
0.1917513
0.19191803
0.16401678
0.13175003
0.10478767
0.085083087
0.070690818
0.049228594
0.044825095
0.035875163
0.024574183
0.020816372
0.015673707
0.010408038
0.0085945265
0.0040381413
0.0032009395
0.00080333787
0.19797614
0.19663562
0.19563497
0.19486774
0.19425489
0.19376339
0.1933788
0.19308447
0.19285654
0.19267407
0.192522
0.19238946
0.19227416
0.19217216
0.19207778
0.19199145
0.19191156
0.19183676
0.19176822
0.19170714
0.19165155
0.19159975
0.19155693
0.19152035
0.19149317
0.19147474
0.19146771
0.19147363
0.19149714
0.19153887
0.19163002
0.19174584
0.19194561
0.15886945
0.12604357
0.10522415
0.082419477
0.063395939
0.05514434
0.041064475
0.030044794
0.027549841
0.018115351
0.015163885
0.011952999
0.0069227022
0.0075195444
0.0039389562
0.00078954764
0.19789432
0.1965044
0.19548294
0.19470425
0.19408993
0.19360499
0.193231
0.19294753
0.19273023
0.19255734
0.19241392
0.19228911
0.19218188
0.19208633
0.19199693
0.19191589
0.19184066
0.19177066
0.19170653
0.19164933
0.19159779
0.19155021
0.19151102
0.19147745
0.19145455
0.19143987
0.1914325
0.19144333
0.19148018
0.19152533
0.19163143
0.19175057
0.19196847
0.15547323
0.12781895
0.10172836
0.080672739
0.067570682
0.051279885
0.042960738
0.036013134
0.024111082
0.021285174
0.016295548
0.010492335
0.010586884
0.0038728414
0.0037529425
0.00075890688
0.1978271
0.19638219
0.19533776
0.19454939
0.19393411
0.19345649
0.19309365
0.19282088
0.19261356
0.19244917
0.19231365
0.19219605
0.19209597
0.19200603
0.19192225
0.19184565
0.19177479
0.19170913
0.19164983
0.19159576
0.19154627
0.19150321
0.19146688
0.19143754
0.19141924
0.19140652
0.1914
0.19141542
0.19146032
0.19151238
0.19162614
0.19176379
0.18805116
0.15167486
0.12469705
0.10046112
0.082802164
0.066484291
0.052086686
0.03985611
0.035542301
0.024435356
0.020692047
0.014489746
0.013070012
0.0068089343
0.0074661297
0.0031962385
0.00072587027
0.19770939
0.19621568
0.19517579
0.1943894
0.19377792
0.19331163
0.19296219
0.19270119
0.19250386
0.19234775
0.1922196
0.19210901
0.19201541
0.19192859
0.19185123
0.19177993
0.19171254
0.19165082
0.19159538
0.19154486
0.19149845
0.19145859
0.19142452
0.19139998
0.19138658
0.19137273
0.19136967
0.19139274
0.19144076
0.19150631
0.19161863
0.19178115
0.18515607
0.14900653
0.12486186
0.098612117
0.078080345
0.060404681
0.051531072
0.044455898
0.028699124
0.025567426
0.022218864
0.016446495
0.012247679
0.011724885
0.0063193628
0.0041863096
0.00072741571
0.19773282
0.19616112
0.1950784
0.19427906
0.19366155
0.19319789
0.19285615
0.19260265
0.19241145
0.19226118
0.19213812
0.19203336
0.19194549
0.19186354
0.19178833
0.19172073
0.19165615
0.19159829
0.1915459
0.19149792
0.19145512
0.19141781
0.19138715
0.19136406
0.19135623
0.19134178
0.19133951
0.1913698
0.19142125
0.19150368
0.19161394
0.19178883
0.17968472
0.14972993
0.11671043
0.094484449
0.083881702
0.06677512
0.051575633
0.043114884
0.037752312
0.025476868
0.021025951
0.016410467
0.013064626
0.0082303746
0.0076306862
0.0045978868
0.0007638559
0.0029664323
0.011223615
0.021408729
0.019925623
0.054621964
0.036661041
0.062639451
0.074266825
0.08424091
0.10236435
0.12103032
0.11571898
0.16556677
0.17560063
0.15538721
0.19209246
0.19379855
0.19421035
0.1939464
0.19322125
0.19242124
0.191776
0.19129243
0.19090223
0.19061585
0.1904162
0.1902955
0.19020558
0.19013691
0.19008479
0.19005649
0.19002167
0.19000121
0.18998107
0.18997034
0.18996301
0.18996041
0.18996102
0.18996873
0.18998308
0.19000576
0.19003976
0.19008769
0.19015949
0.19026403
0.19042464
0.19068808
0.19117968
0.19179229
0.0026802309
0.015137544
0.022167538
0.041266989
0.050543189
0.075086551
0.085324838
0.095710653
0.10496701
0.11710381
0.12867154
0.16057595
0.15647576
0.17584305
0.18717215
0.19240392
0.19387194
0.19413455
0.19383077
0.19311864
0.19236855
0.19175346
0.19126821
0.19089495
0.1906287
0.19043645
0.19032339
0.19023553
0.19016979
0.19012288
0.19009213
0.19005901
0.1900397
0.190021
0.19001037
0.19000264
0.1900004
0.19000109
0.19000891
0.19002274
0.19004507
0.1900787
0.19012661
0.19019837
0.19030324
0.19046394
0.19072925
0.19122481
0.19187384
0.0025720501
0.015307474
0.02644376
0.043513593
0.060152149
0.061370205
0.062144059
0.071157731
0.075010084
0.088914602
0.097319537
0.12204504
0.12095652
0.14274887
0.18762917
0.1925274
0.19387816
0.19405961
0.19367343
0.19299847
0.19231167
0.19173956
0.19126292
0.19089927
0.19064838
0.19046562
0.19035341
0.19026676
0.1902022
0.19015977
0.19012618
0.19009574
0.19007659
0.19005934
0.19004897
0.19004083
0.19003901
0.1900401
0.19004801
0.19006153
0.19008359
0.19011698
0.19016504
0.1902369
0.19034224
0.19050324
0.19077014
0.19126981
0.19193338
0.0024836184
0.015125119
0.02698677
0.043784726
0.053131393
0.076795291
0.088378885
0.10381272
0.10391865
0.11528038
0.12568315
0.14559779
0.16940874
0.17926298
0.16907515
0.19249813
0.19383187
0.19406205
0.19359259
0.19290359
0.19224134
0.19170859
0.1912508
0.19090452
0.19066561
0.19049154
0.19038004
0.19029821
0.19023294
0.19019471
0.1901596
0.19013169
0.19011274
0.19009647
0.19008647
0.1900783
0.19007689
0.19007859
0.19008664
0.19010013
0.19012199
0.19015534
0.19020373
0.19027592
0.19038198
0.19054357
0.19081229
0.19131618
0.19200139
0.0023933935
0.015289182
0.029399924
0.045217673
0.061665278
0.078835062
0.071082257
0.090616322
0.080031322
0.094566506
0.08970344
0.10910066
0.098926887
0.12347984
0.18907078
0.19245384
0.19371234
0.19404815
0.19353375
0.19283847
0.19218456
0.19166312
0.19123265
0.1909132
0.19068348
0.19051693
0.19040598
0.19032992
0.19026312
0.19022834
0.19019269
0.19016678
0.19014874
0.19013281
0.19012321
0.19011553
0.19011437
0.19011675
0.19012501
0.1901387
0.19016047
0.19019392
0.19024278
0.1903155
0.19042257
0.19058494
0.19085581
0.19136435
0.19207404
0.0023098198
0.015166028
0.029695766
0.045273949
0.060057761
0.080456577
0.079303958
0.1080001
0.10127795
0.11556708
0.11777709
0.13742343
0.15074489
0.16428295
0.14954192
0.19249437
0.19360023
0.19388529
0.19345283
0.19279945
0.19215016
0.19162
0.19121622
0.19092628
0.19070475
0.19054325
0.19043283
0.19036105
0.19029278
0.19026106
0.1902261
0.19020163
0.19018486
0.19016882
0.19015946
0.19015276
0.19015169
0.19015475
0.1901633
0.19017741
0.19019925
0.19023289
0.19028233
0.19035577
0.19046416
0.19062759
0.19090074
0.19141538
0.19215575
0.0022339874
0.015294529
0.030650827
0.047098123
0.065871521
0.083426393
0.072138097
0.094828944
0.081776381
0.10355425
0.10002641
0.11147941
0.10483551
0.13082898
0.16507467
0.19252427
0.19356924
0.19378438
0.19334679
0.19273286
0.19213074
0.19160369
0.19121642
0.19094394
0.19073012
0.19056996
0.19046059
0.19039088
0.1903237
0.19029378
0.19026026
0.19023645
0.19022093
0.19020489
0.19019556
0.19019008
0.19018901
0.19019274
0.19020166
0.19021637
0.19023848
0.19027235
0.19032249
0.19039687
0.19050681
0.19067161
0.19094727
0.19146909
0.19223952
0.002159134
0.015081059
0.030813566
0.048760898
0.068944269
0.084773828
0.074352573
0.09099884
0.090042699
0.12034335
0.11188895
0.1533586
0.15669645
0.16618864
0.14820845
0.16643963
0.19360825
0.1937441
0.19322959
0.19265525
0.19211202
0.19161561
0.19123477
0.19096193
0.19075231
0.19059509
0.19048877
0.19041964
0.19035565
0.19032633
0.1902949
0.19027147
0.19025697
0.1902412
0.19023197
0.19022746
0.19022646
0.19023086
0.19024021
0.19025566
0.19027825
0.19031246
0.1903634
0.19043891
0.19055054
0.19071715
0.19099585
0.1915257
0.19232128
0.0020755991
0.015278709
0.032582828
0.051883228
0.065680928
0.085319056
0.075342015
0.098494044
0.082190828
0.11581188
0.098442132
0.10916579
0.11115785
0.17018167
0.16938384
0.1733326
0.19223608
0.19373593
0.19313236
0.19258426
0.19207972
0.19162805
0.1912534
0.19097572
0.19077058
0.19061742
0.19051583
0.19044718
0.19038831
0.19035913
0.19032961
0.19030636
0.1902928
0.19027768
0.19026868
0.19026479
0.19026407
0.19026913
0.19027898
0.19029528
0.19031859
0.19035327
0.19040511
0.19048189
0.1905954
0.19076432
0.19104664
0.19158487
0.19240349
0.0020262503
0.01496867
0.028971629
0.053830242
0.050432818
0.084957632
0.085276986
0.11646614
0.088890826
0.1260286
0.1056018
0.11836632
0.1194614
0.15554088
0.16191006
0.19257466
0.19351202
0.19371117
0.19316386
0.19254511
0.19204077
0.19162358
0.19125967
0.19098468
0.1907835
0.19063478
0.19054055
0.19047411
0.19041986
0.19039141
0.19036348
0.19034066
0.19032831
0.19031432
0.19030584
0.19030206
0.19030195
0.19030764
0.1903181
0.19033531
0.19035957
0.19039488
0.19044774
0.19052588
0.19064147
0.19081333
0.19109976
0.19164579
0.19248991
0.0019071266
0.01510136
0.034727879
0.055717589
0.054132001
0.083755702
0.079527254
0.12411087
0.080775044
0.10593559
0.10549568
0.1276061
0.099106733
0.12253493
0.14357449
0.18826262
0.19342772
0.19364454
0.19314511
0.19251643
0.19199824
0.19159771
0.19124745
0.19098382
0.1907911
0.19064861
0.19056204
0.19050024
0.19044887
0.19042226
0.19039625
0.19037415
0.19036358
0.19035093
0.19034356
0.19033952
0.19034037
0.1903466
0.19035779
0.19037594
0.19040137
0.19043757
0.19049148
0.19057109
0.19068896
0.19086434
0.1911554
0.19170844
0.19258599
0.0018200058
0.014710197
0.034617233
0.044024747
0.074397476
0.082388587
0.071300264
0.10984527
0.075284608
0.090979348
0.095381578
0.16544293
0.14025885
0.13165774
0.12210943
0.15812657
0.19338557
0.19354265
0.19307917
0.19246919
0.19195091
0.19156606
0.19123119
0.19098198
0.19080002
0.19066479
0.1905829
0.19052615
0.19047628
0.19045146
0.19042776
0.19040677
0.19039832
0.19038731
0.19038163
0.19037739
0.19037941
0.19038618
0.19039815
0.19041728
0.19044403
0.19048134
0.1905364
0.19061764
0.19073799
0.19091739
0.19121374
0.19177543
0.19268855
0.0018142131
0.0093597109
0.029117361
0.024572206
0.047952864
0.081598553
0.059419681
0.10484813
0.079317825
0.092932517
0.079523909
0.10859934
0.1136003
0.17512529
0.14204728
0.1538194
0.17101473
0.19349064
0.19301327
0.19241618
0.19190723
0.19154407
0.19122503
0.1909903
0.19081541
0.19068967
0.19060674
0.19055112
0.19050331
0.19047971
0.19045824
0.19043866
0.19043233
0.19042337
0.1904196
0.19041576
0.19041904
0.19042629
0.19043922
0.19045935
0.19048752
0.19052617
0.19058253
0.19066558
0.19078872
0.19097249
0.19127511
0.19184599
0.19279133
0.0018379082
0.011151631
0.019284467
0.025100273
0.049608979
0.0791602
0.06373007
0.095956099
0.079450228
0.11575915
0.090873091
0.10179269
0.08979113
0.1669625
0.17757429
0.18438419
0.17331043
0.19343779
0.19296313
0.19238399
0.19187815
0.19153598
0.19123294
0.1910124
0.19084189
0.19072264
0.19063605
0.19057644
0.1905314
0.19050842
0.19048864
0.19047068
0.19046546
0.19045933
0.1904573
0.19045469
0.19045928
0.19046713
0.19048105
0.19050241
0.19053193
0.19057225
0.19062996
0.19071508
0.19084126