/*--------------------------------*- C++ -*----------------------------------*\
| =========                 |                                                 |
| \\      /  F ield         | OpenFOAM: The Open Source CFD Toolbox           |
|  \\    /   O peration     | Version:  2506                                  |
|   \\  /    A nd           | Website:  www.openfoam.com                      |
|    \\/     M anipulation  |                                                 |
\*---------------------------------------------------------------------------*/
FoamFile
{
    version     2.0;
    format      ascii;
    arch        "LSB;label=32;scalar=64";
    class       volScalarField;
    location    "0.65";
    object      p;
}
// * * * * * * * * * * * * * * * * * * * * * * * * * * * * * * * * * * * * * //

dimensions      [1 -1 -2 0 0 0 0];

internalField   nonuniform List<scalar> 
19257
(
47068.283
47065.803
47059.256
47061.031
47058.989
47056.078
47055.183
47054.33
47053.046
47052.838
47052.669
47052.502
47051.279
47049.533
47047.418
47048.183
47045.426
47043.052
47042.447
47039.091
47036.841
47035.65
47033.635
47029.842
47024.398
47022.296
47019.031
47017.908
47015.888
47011.22
47008.137
47006.589
47005.143
47004.081
47004.594
47004.005
47002.229
47002.069
46996.946
46989.904
46991.052
46991.614
46970.461
46953.12
46900.006
46866.014
46617.465
46692.316
46064.828
47069.826
47064.081
47059.806
47060.715
47058.968
47055.842
47055.025
47054.826
47053.657
47053.154
47053.089
47052.66
47051.882
47049.701
47048.384
47048.983
47046.284
47044.286
47044.848
47041.722
47039.55
47038.288
47037.027
47034.277
47029.499
47027.094
47024.862
47024.5
47023.977
47021.373
47020.178
47019.596
47018.79
47020.6
47024.233
47027.141
47028.885
47035.399
47036.888
47037.966
47048.69
47048.338
47058.567
47055.031
47058.071
46985.206
46789.122
46877.168
46112.137
47074.85
47058.998
47057.118
47059.631
47058.832
47056.155
47055.504
47055.614
47054.501
47053.728
47053.546
47052.961
47051.969
47050.99
47049.678
47049.815
47048.162
47046.464
47047.317
47044.6
47042.396
47040.725
47040.493
47038.539
47035.222
47032.23
47031.17
47031.049
47031.867
47031.567
47031.865
47032.864
47033.042
47035.732
47041.85
47048.486
47054.035
47064.644
47071.397
47079.127
47097.968
47105.485
47113.184
47137.66
47139.076
47099.705
47012.182
47053.278
46320.825
47072.724
47051.932
47052.727
47057.884
47058.713
47057.177
47056.01
47056.057
47055.124
47054.342
47053.905
47053.768
47053.041
47052.591
47050.809
47051.3
47050.353
47048.517
47048.835
47047.269
47045.29
47043.546
47043.84
47042.828
47041.067
47038.208
47037.471
47037.907
47039.993
47041.458
47043.436
47046.022
47047.262
47051.199
47058.836
47068.583
47078.012
47090.449
47105.216
47119.4
47142.417
47163.923
47181.132
47217.277
47258.867
47244.535
47187.867
47200.018
46545.538
47071.17
47051.644
47050.591
47056.524
47059.018
47058.024
47056.454
47056.203
47055.291
47054.73
47054.26
47054.553
47053.994
47053.224
47052.48
47052.496
47051.662
47050.181
47049.64
47050.082
47048.393
47047.111
47047.155
47047.25
47046.71
47044.759
47044.034
47045.656
47048.191
47050.704
47054.651
47059.028
47062.214
47067.173
47075.824
47087.83
47100.868
47116.174
47136.064
47154.558
47186.014
47215.246
47239.47
47284.617
47335.506
47341.791
47370.808
47383.998
46795.77
47070.805
47051.793
47048.781
47055.824
47058.92
47058.238
47057
47056.223
47055.45
47055.281
47054.969
47055.057
47054.727
47054.34
47054.253
47053.385
47053.045
47052.163
47051.445
47052.967
47052.007
47051.147
47050.784
47051.759
47052.492
47051.798
47051.352
47053.243
47056.499
47059.924
47065.485
47071.952
47077.466
47083.243
47092.715
47106.774
47122.689
47140.954
47163.861
47188.786
47223.106
47264.513
47298.33
47348.743
47408.066
47469.345
47529.897
47535.961
47112.874
47069.702
47049.543
47047.153
47054.761
47058.969
47058.817
47057.085
47056.076
47055.66
47055.884
47055.927
47055.909
47055.58
47055.356
47055.554
47055.041
47054.806
47054.256
47053.814
47055.107
47055.347
47055.272
47055.137
47056.437
47058.341
47058.604
47058.964
47061.052
47065.284
47069.512
47076.193
47084.787
47092.689
47099.865
47109.91
47125.433
47143.759
47164.923
47191.038
47221.851
47258.524
47310.696
47353.777
47409.044
47490.428
47574.635
47670.631
47690.667
47409.907
47068.18
47050.748
47046.765
47054.175
47058.197
47058.096
47056.427
47055.573
47055.719
47056.524
47056.698
47056.354
47056.272
47055.874
47056.568
47056.823
47056.633
47056.215
47055.907
47057.125
47058.798
47059.553
47059.607
47061.133
47063.722
47065.353
47066.95
47069.554
47074.297
47079.426
47086.929
47097.505
47107.774
47116.428
47127.506
47144.41
47164.77
47188.058
47217.813
47252.194
47292.947
47349.075
47405.718
47470.713
47552.825
47663.257
47787.46
47848.447
47719.933
47065.26
47052.139
47046.628
47052.245
47056.185
47056.426
47055.183
47054.455
47055.299
47056.619
47057.044
47056.714
47056.72
47056.531
47057.624
47058.657
47058.886
47058.748
47058.555
47059.922
47062.245
47063.746
47064.293
47065.819
47068.985
47072.029
47074.962
47078.347
47083.24
47089.22
47097.606
47109.906
47122.574
47132.96
47145.214
47163.328
47185.765
47211.081
47243.046
47281.375
47325.749
47384.828
47455.24
47525.748
47624.376
47760.385
47894.109
48002.492
48001.439
47067.639
47054.47
47045.442
47049.678
47053.841
47054.601
47053.364
47053.218
47054.767
47056.419
47057.596
47057.625
47057.628
47057.388
47058.337
47060.417
47061.292
47061.356
47061.315
47062.763
47065.607
47067.911
47069.023
47070.89
47074.535
47078.659
47082.731
47086.952
47091.965
47098.648
47107.959
47121.737
47136.871
47149.185
47162.489
47182.121
47206.513
47233.263
47266.935
47309.591
47357.267
47420.1
47496.62
47582.307
47686.574
47825.102
47992.003
48148.997
48259.007
47071.842
47053.77
47045.004
47049.007
47053.119
47053.764
47052.562
47052.602
47054.308
47056.285
47058.085
47058.533
47058.719
47058.534
47059.081
47061.376
47063.296
47064.08
47064.291
47065.688
47068.733
47071.738
47073.555
47075.985
47080.107
47085.086
47090.025
47095.216
47100.667
47107.699
47117.684
47132.615
47150.261
47164.84
47179.09
47200.092
47226.879
47255.064
47289.988
47335.34
47387.78
47452.582
47535.483
47631.874
47745.047
47899.093
48087.602
48288.668
48493.492
47075.145
47052.293
47043.749
47048.504
47052.6
47053.29
47052.791
47052.58
47053.748
47055.689
47057.976
47059.079
47059.492
47059.521
47059.697
47062.085
47065.006
47066.895
47067.363
47068.624
47071.493
47075.021
47077.681
47080.622
47085.261
47091.107
47096.965
47103.158
47109.29
47116.468
47126.723
47142.489
47162.406
47179.665
47194.859
47216.811
47246.027
47276.447
47311.785
47358.739
47415.759
47482.783
47571.607
47673.951
47803.63
47957.679
48168.476
48415.923
48701.011
47072.416
47051.306
47043.712
47047.92
47051.902
47053.858
47054.12
47053.26
47053.295
47054.852
47057.648
47059.396
47060.222
47060.688
47060.865
47062.806
47066.169
47068.961
47069.958
47071.143
47073.887
47077.894
47081.577
47085.037
47090.077
47096.627
47103.485
47110.706
47117.667
47125.101
47135.404
47151.629
47173.237
47193.278
47209.605
47232.067
47263.395
47296.745
47332.726
47380.291
47440.517
47511.255
47601.967
47713.49
47848.026
48022.615
48242.719
48534.426
48887.407
47072.962
47056.734
47048.229
47050.312
47053.449
47055.628
47055.991
47055.837
47055.2
47055.779
47057.882
47059.995
47061.354
47062.212
47062.704
47064.308
47067.63
47070.917
47072.598
47073.773
47076.451
47080.643
47085.11
47089.205
47094.629
47101.601
47109.402
47117.706
47125.638
47133.53
47143.784
47160.123
47182.876
47205.403
47223.27
47245.812
47278.726
47315.082
47352.744
47400.473
47462.366
47537.133
47629.853
47748.898
47888.577
48075.369
48312.835
48635.544
49047.417
47077.4
47058.559
47048.092
47048.662
47052.184
47054.614
47056.116
47056.89
47056.848
47057.029
47058.181
47060.194
47061.818
47063.05
47064.091
47065.692
47069.027
47072.723
47075.256
47076.724
47079.314
47083.399
47088.285
47092.888
47098.62
47105.86
47114.468
47123.841
47132.803
47141.292
47151.567
47167.805
47191.279
47215.858
47235.531
47258.19
47291.986
47331.095
47370.985
47419.148
47482.018
47559.611
47654.968
47776.927
47927.919
48117.046
48376.995
48719.362
49187.597
47078.331
47059.008
47046.965
47047.091
47051.113
47054.767
47057.278
47057.468
47056.433
47056.285
47057.945
47060.245
47061.862
47063.098
47064.349
47066.076
47069.569
47073.822
47077.315
47079.459
47082.095
47086.039
47091.161
47096.124
47102.073
47109.491
47118.723
47129.021
47138.928
47148.072
47158.489
47174.522
47198.384
47224.56
47246.076
47269.166
47303.226
47344.632
47386.896
47435.838
47499.327
47578.644
47676.961
47801.192
47959.046
48157.234
48424.516
48798.384
49302.22
47081.516
47062.219
47049.268
47048.515
47052.584
47055.651
47057.666
47058.285
47057.444
47057.611
47059.472
47061.323
47062.339
47063.343
47064.511
47066.248
47069.587
47074.032
47078.299
47081.27
47084.181
47088.163
47093.509
47098.751
47104.869
47112.45
47122.123
47133.158
47143.833
47153.57
47164.232
47180.078
47204.029
47231.261
47254.415
47278.238
47312.326
47355.093
47399.613
47449.76
47513.486
47593.971
47694.012
47821.02
47982.197
48189.85
48466.563
48854.785
49388.954
47083.45
47063.882
47050.143
47048.834
47052.468
47056.2
47059.085
47060.115
47059.745
47060.188
47061.424
47062.596
47063.436
47064.376
47065.368
47066.96
47070.013
47074.34
47078.914
47082.352
47085.426
47089.395
47094.84
47100.278
47106.508
47114.283
47124.299
47135.916
47147.199
47157.399
47168.278
47183.978
47207.735
47235.285
47259.632
47284.435
47318.498
47361.748
47407.872
47459.233
47523.317
47604.054
47704.603
47832.827
47997.014
48209.105
48495.308
48894.907
49451.47
47084.192
47065.277
47051.235
47049.547
47052.902
47056.82
47060.064
47061.824
47061.398
47061.285
47062.283
47063.49
47064.169
47064.885
47065.922
47067.669
47070.726
47074.96
47079.614
47083.271
47086.216
47089.965
47095.177
47100.64
47106.95
47114.897
47125.176
47137.182
47148.832
47159.282
47170.218
47185.844
47209.272
47236.498
47261.429
47287.21
47321.329
47364.449
47411.378
47463.65
47528.031
47608.432
47708.483
47836.364
48001.726
48216.913
48507.157
48914.697
49482.243
47084.346
47065.381
47051.351
47049.857
47053.169
47056.48
47059.5
47061.749
47061.543
47061.643
47062.469
47063.535
47064.093
47064.734
47065.946
47067.856
47070.932
47075.187
47080.045
47083.821
47086.575
47090.164
47095.152
47100.523
47106.854
47114.819
47125.283
47137.528
47149.286
47159.79
47170.703
47186.402
47209.567
47236.072
47261.091
47287.748
47322.091
47364.856
47412.028
47464.971
47529.714
47609.726
47708.836
47835.738
48001.006
48217.404
48509.214
48919.313
49489.487
47083.942
47064.895
47050.871
47049.573
47053.137
47056.195
47058.478
47060.183
47060.12
47060.3
47061.183
47062.452
47063.463
47064.466
47065.818
47067.76
47070.671
47074.699
47079.57
47083.388
47086.161
47089.809
47094.878
47100.282
47106.497
47114.333
47124.933
47137.307
47148.986
47159.441
47170.368
47186.297
47209.235
47234.782
47259.603
47287.099
47321.822
47364.168
47411.314
47464.899
47530.143
47609.859
47707.937
47833.523
47998.141
48214.867
48506.758
48914.792
49481.776
47083.069
47063.878
47050.498
47049.251
47052.405
47055.035
47056.857
47058.66
47059.115
47059.287
47059.907
47061.119
47062.421
47063.635
47065.116
47067.148
47069.827
47073.586
47078.478
47082.348
47085.093
47088.851
47093.998
47099.367
47105.388
47113.059
47123.738
47136.046
47147.42
47157.634
47168.572
47184.813
47207.425
47231.725
47256.05
47284.236
47319.345
47361.072
47407.872
47461.958
47527.599
47606.705
47703.394
47826.912
47989.778
48205.045
48494.279
48895.025
49449.487
47081.638
47062.432
47049.806
47048.453
47051.488
47054.061
47056.248
47057.132
47057.117
47057.338
47058.348
47059.779
47061.21
47062.354
47064.024
47066.334
47068.967
47072.609
47077.412
47081.021
47083.497
47087.224
47092.183
47097.29
47103.149
47110.715
47121.375
47133.33
47144.174
47153.885
47164.748
47181.201
47203.193
47226.005
47249.588
47278.122
47313.19
47353.957
47400.013
47454.142
47519.403
47597.286
47691.854
47812.139
47972.124
48183.934
48465.029
48855.986
49389.522
47079.241
47059.64
47047.368
47046.376
47050.291
47053.286
47055.798
47055.908
47055.266
47055.89
47057.444
47059.124
47060.654
47061.771
47063.523
47065.791
47068.263
47071.646
47076.051
47079.06
47081.167
47084.651
47089.284
47094.184
47099.885
47107.449
47117.969
47129.371
47139.492
47148.481
47159.271
47175.77
47196.789
47218.01
47240.744
47269.261
47303.764
47343.183
47388.298
47441.923
47505.891
47581.857
47673.19
47790.237
47946.717
48151.178
48424.904
48794.225
49299.554
47078.776
47059.345
47047.409
47047.026
47051.346
47055.31
47056.6
47056.084
47055.681
47056.363
47057.49
47058.851
47060.316
47061.231
47062.684
47064.486
47066.627
47069.779
47073.858
47076.329
47078.106
47081.299
47085.654
47090.357
47095.892
47103.482
47113.704
47124.44
47133.622
47141.86
47152.706
47169.059
47188.772
47208.263
47230.16
47258.428
47291.958
47329.826
47373.992
47426.511
47488.727
47561.849
47649.633
47764
47913.997
48112.375
48372.618
48722.725
49182.452
47074.123
47056.143
47046.074
47047.629
47052.618
47056.607
47057.176
47055.292
47055.037
47055.939
47057.101
47058.54
47059.593
47059.869
47060.922
47062.394
47064.364
47067.534
47071.279
47073.185
47074.639
47077.647
47081.658
47086.018
47091.434
47099.012
47108.715
47118.596
47126.619
47134.298
47145.251
47161.145
47179.293
47197.018
47218.204
47246.012
47278.104
47314.535
47357.711
47408.62
47468.318
47538.409
47623.399
47732.946
47875.918
48067.788
48310.981
48635.565
49046.463
47072.088
47051.405
47041.913
47045.979
47051.127
47055.01
47056.008
47055.228
47055.717
47056.833
47057.966
47058.819
47058.973
47058.649
47059.382
47060.66
47062.513
47065.527
47068.7
47070.008
47071.221
47074.073
47077.66
47081.692
47086.914
47094.189
47103.051
47111.826
47118.634
47125.977
47136.84
47151.962
47168.366
47184.388
47205.062
47232.057
47262.472
47297.747
47339.455
47388.331
47445.098
47512.297
47593.035
47696.746
47837.565
48017.027
48244.801
48524.323
48883.401
47073.22
47051.266
47041.463
47045.321
47050.59
47053.687
47055.238
47055.607
47056.335
47057.279
47058.084
47058.755
47058.481
47057.849
47058.353
47059.447
47061.136
47063.957
47066.39
47066.988
47068.006
47070.497
47073.633
47077.305
47082.192
47089.041
47096.856
47104.382
47110.117
47117.147
47127.565
47141.73
47156.165
47170.655
47190.939
47216.696
47245.511
47279.475
47319.537
47365.423
47419.524
47482.677
47559.545
47658.089
47793.306
47960.053
48163.583
48415.503
48696.421
47073.511
47053.373
47042.138
47044.513
47049.688
47052.938
47054.725
47055.596
47056.604
47057.382
47057.689
47058.171
47057.561
47056.755
47057.155
47058.199
47059.705
47062.169
47063.749
47063.51
47064.412
47066.344
47069.087
47072.44
47077.149
47083.454
47090.007
47096.32
47101.176
47107.719
47117.609
47130.717
47142.864
47156.138
47175.988
47200.181
47227.476
47259.873
47297.684
47340.162
47391.449
47450.09
47522.045
47618.807
47742.961
47892.172
48072.447
48282.614
48488.934
47068.761
47052.111
47042.024
47045.367
47050.434
47053.057
47054.735
47055.745
47056.753
47057.369
47057.137
47057.323
47056.206
47055.45
47055.869
47056.668
47057.91
47059.865
47060.47
47059.675
47060.405
47061.97
47064.495
47067.466
47071.966
47077.133
47082.394
47087.788
47091.85
47097.698
47107.166
47118.921
47128.623
47141.154
47160.33
47182.837
47208.471
47239.073
47273.82
47313.445
47360.536
47415.217
47481.856
47572
47685.666
47817.075
47987.842
48138.165
48251.178
47068.95
47051.291
47042.773
47047.103
47052.673
47054.527
47055.066
47056.114
47056.944
47057.195
47056.834
47056.438
47055.101
47054.288
47054.671
47054.979
47056.046
47057.508
47056.77
47056.117
47056.495
47057.755
47059.904
47062.746
47066.75
47070.191
47074.55
47079.337
47082.387
47087.651
47096.666
47106.387
47113.796
47126.029
47144.243
47164.752
47188.586
47217.062
47248.303
47284.301
47328.634
47378.089
47440.869
47523.453
47620.037
47743.278
47878.179
47983.198
47996.796
47070.233
47050.664
47045.392
47049.051
47053.663
47055.454
47055.528
47056.144
47056.645
47056.617
47056.326
47055.616
47054.111
47053.505
47053.771
47053.672
47054.3
47055.058
47053.756
47053.162
47053.021
47053.966
47055.42
47058.417
47061.246
47063.105
47067.091
47071.182
47072.871
47077.87
47086.119
47093.172
47098.941
47110.934
47127.779
47146.019
47167.752
47193.354
47221.031
47254.494
47292.412
47337.53
47396.778
47470.342
47550.249
47657.836
47767.492
47821.844
47704.538
47069.408
47049.984
47047.348
47051.648
47054.895
47055.63
47055.391
47055.949
47056.328
47056.063
47055.863
47054.635
47052.995
47052.852
47052.87
47052.873
47052.948
47052.542
47051.241
47050.372
47049.957
47050.338
47051.205
47053.896
47055.186
47056.774
47060.235
47062.902
47063.41
47068.244
47075.136
47079.349
47084.385
47095.95
47111.026
47126.919
47146.144
47169.035
47192.548
47222.93
47257.434
47295.466
47348.843
47411.166
47474.539
47559.766
47640.987
47655.798
47411.108
47069.451
47050.992
47049.111
47054.122
47056.597
47055.966
47055.519
47056.019
47056.119
47055.579
47055.345
47053.418
47051.946
47052.262
47052.273
47052.396
47051.701
47050.292
47048.76
47047.766
47047.016
47046.624
47047.382
47048.982
47049.165
47050.636
47053.644
47054.26
47054.348
47058.752
47063.724
47065.483
47070.369
47080.969
47093.673
47107.368
47123.973
47142.627
47164.148
47189.164
47218.926
47253.457
47299.811
47345.578
47396.546
47445.602
47519.018
47494.35
47090.31
47069.586
47052.557
47052.732
47056.639
47057.905
47056.646
47055.622
47055.838
47055.888
47055.023
47054.382
47052.099
47051.541
47052.161
47051.421
47050.852
47049.976
47048.159
47046.341
47045.269
47044.442
47043.423
47044.126
47043.352
47044.052
47045.435
47046.739
47045.405
47045.5
47049.151
47051.806
47052.101
47056.981
47065.638
47075.722
47087.124
47100.545
47115.406
47132.675
47154.489
47177.12
47206.359
47242.555
47273.122
47308.526
47339.063
47358.046
47323.458
46808.579
47070.395
47053.723
47056.217
47059.265
47059.091
47057.402
47056.042
47055.647
47055.588
47054.556
47053.606
47051.182
47051.596
47051.989
47049.991
47049.378
47048.159
47046.02
47044.152
47042.562
47041.67
47040.405
47040.671
47038.394
47039.247
47040.463
47040.053
47037.083
47036.49
47039.372
47039.81
47039.324
47043.969
47049.901
47057.324
47066.271
47076.513
47087.933
47100.575
47118.436
47136.317
47159.477
47180.68
47201.684
47216.526
47217.668
47215.343
47170.538
46515.316
47072.428
47056.57
47057.872
47060.343
47059.593
47057.367
47056.339
47055.534
47055.224
47054.206
47053.024
47050.841
47051.382
47051.545
47049.442
47048.409
47046.447
47044.228
47042.482
47040.079
47038.654
47037.363
47036.667
47034.083
47034.627
47035.235
47033.226
47029.499
47028.173
47029.241
47028.377
47027.129
47030.633
47033.588
47038.592
47044.822
47051.122
47058.203
47068.236
47078.594
47088.154
47107.82
47112.68
47120.512
47123.692
47098.594
46995.616
47017.927
46347.382
47071.113
47058.635
47058.458
47060.438
47059.346
47057.206
47056.266
47055.45
47054.9
47053.81
47052.866
47050.909
47051.61
47049.676
47048.321
47047.425
47044.995
47042.506
47040.553
47037.925
47036.121
47034.564
47032.923
47030.077
47030.092
47029.417
47026.71
47021.856
47020.266
47019.03
47017.315
47015.538
47015.819
47016.642
47019.087
47022.097
47024.987
47029.359
47032.445
47036.392
47043.176
47048.003
47043.584
47032.421
47019.731
46974.278
46765.077
46878.167
46117.913
47068.464
47057.884
47057.508
47060.364
47058.417
47056.682
47056.271
47055.327
47054.679
47053.501
47052.568
47050.901
47051.597
47048.761
47046.613
47046.309
47043.038
47040.529
47038.068
47035.642
47034.128
47032.082
47029.702
47026.312
47025.783
47023.714
47019.89
47014.371
47012.396
47009.36
47006.159
47003.587
46999.921
46999.337
46999.478
46999.268
46998.291
46998.674
46997.819
46990.712
46987.96
46987.475
46970.337
46941.249
46902.142
46850.493
46663.747
46676.002
45913.942
47558.097
47475.992
47438.761
47323.383
47343.162
47288.879
47261.913
47236.678
47210.422
47186.006
47163.472
47142.446
47126.455
47110.855
47094.639
47085.459
47075.965
47063.964
47056.42
47052.24
47047.674
47042.484
47039.983
47038.783
47037.455
47036.332
47037.096
47037.018
47037.42
47038.451
47040.057
47040.952
47041.318
47041.466
47042.715
47044.032
47045.274
47046.233
47047.27
47048.668
47051.342
47054.81
47057.09
47059.14
47058.579
47058.846
47055.581
47060.187
47055.869
47260.617
47269.803
47240.868
47251.204
47231.208
47217.271
47198.114
47180.479
47163.049
47146.233
47129.505
47115.223
47099.53
47086.817
47079.977
47068.972
47058.732
47052.594
47046.384
47041.717
47038.489
47036.376
47034.792
47033.531
47033.605
47033.477
47034.315
47034.683
47035.606
47037.104
47039.029
47040.199
47040.704
47040.923
47042.286
47043.781
47045.209
47046.26
47047.318
47048.591
47051.225
47054.639
47057.082
47059.336
47058.921
47058.842
47055.545
47058.759
47056.627
47140.498
47142.124
47148.431
47136.281
47132.867
47126.819
47119.941
47113.147
47105.454
47097.298
47088.359
47078.671
47069.536
47061.612
47052.546
47046.355
47042.76
47038.742
47034.739
47032.514
47031.185
47030.337
47028.594
47027.34
47028.831
47029.697
47031.046
47032.465
47034.011
47035.791
47037.977
47039.375
47040.03
47040.331
47041.859
47043.558
47045.163
47046.312
47047.372
47048.561
47051.103
47054.489
47057.066
47059.494
47059.203
47058.948
47055.615
47057.375
47054.972
46989.128
47021.898
47019.285
47040.198
47042.774
47048.591
47050.41
47051.628
47049.579
47047.39
47044.397
47040.994
47036.712
47032.691
47029.422
47027.413
47025.405
47023.582
47022.035
47021.592
47022.06
47021.918
47021.463
47021.146
47023.879
47025.745
47027.955
47030.232
47032.307
47034.398
47036.851
47038.599
47039.385
47039.776
47041.458
47043.369
47045.118
47046.366
47047.427
47048.567
47051.008
47054.36
47057.051
47059.629
47059.513
47059.036
47055.756
47055.815
47051.73
46917.812
46925.957
46942.639
46953.794
46964.18
46974.575
46980.088
46987.4
46991.157
46995.18
46997.747
47001.241
47002.506
47002.969
47003.648
47004.787
47005.587
47007.254
47008.049
47009.801
47011.818
47013.225
47014.703
47015.971
47019.376
47021.834
47024.921
47027.914
47030.624
47033.099
47035.778
47037.858
47038.761
47039.239
47041.061
47043.207
47045.074
47046.406
47047.477
47048.597
47050.957
47054.259
47057.014
47059.712
47059.855
47059.128
47056.058
47054.722
47051.865
46819.353
46854.086
46856.415
46877.573
46889.583
46905.811
46916.887
46929.511
46937.862
46946.07
46952.803
46959.488
46967.685
46974.839
46978.329
46981.925
46985.895
46989.908
46993.817
46997.6
47001.696
47005.091
47008.224
47010.906
47014.779
47018.131
47022.017
47025.531
47028.929
47031.824
47034.711
47037.085
47038.13
47038.754
47040.692
47043.076
47045.033
47046.414
47047.509
47048.647
47050.93
47054.192
47056.963
47059.726
47060.195
47059.278
47056.258
47054.781
47056.754
46771.663
46767.158
46792.495
46812.965
46825.09
46844.824
46856.307
46872.593
46884.67
46898.703
46909.95
46920.596
46930.997
46942.27
46952.386
46960.767
46967.546
46972.742
46979.063
46985.654
46991.719
46997.164
47001.739
47005.471
47010.267
47014.822
47019.266
47023.291
47027.284
47030.586
47033.728
47036.351
47037.521
47038.314
47040.363
47042.95
47044.985
47046.378
47047.521
47048.699
47050.944
47054.122
47056.899
47059.711
47060.514
47059.433
47056.214
47055.773
47059.621
46674.519
46734.782
46724.186
46752.726
46761.12
46783.936
46798.619
46818.966
46837.059
46856.478
46873.394
46888.366
46900.165
46913.568
46925.225
46937.392
46949.565
46958.311
46965.485
46973.68
46981.735
46989.298
46995.566
47000.192
47006.023
47011.657
47016.583
47021.267
47025.811
47029.388
47032.75
47035.589
47036.913
47037.893
47040.072
47042.823
47044.915
47046.302
47047.514
47048.764
47050.988
47054.063
47056.828
47059.677
47060.753
47059.591
47056.209
47057.453
47057.317
46661.9
46607.315
46651.76
46687.023
46697.343
46729.542
46746.398
46771.978
46791.963
46814.057
46834.812
46855.809
46872.051
46888.21
46901.565
46914.365
46929.163
46943.884
46954.059
46962.972
46972.004
46981.081
46989.25
46995.057
47001.643
47008.339
47013.901
47019.332
47024.351
47028.186
47031.737
47034.791
47036.327
47037.506
47039.813
47042.686
47044.811
47046.194
47047.501
47048.852
47051.06
47054.06
47056.753
47059.577
47060.901
47059.762
47056.389
47059.154
47052.178
46480.641
46680.755
46579.155
46656.263
46647.97
46691.85
46704.817
46731.082
46752.191
46775.713
46794.453
46817.622
46841.01
46864.39
46882.651
46897.037
46909.982
46926.768
46941.738
46953.272
46962.984
46972.869
46982.591
46989.899
46997.298
47004.873
47011.309
47017.487
47022.886
47027.047
47030.792
47033.96
47035.734
47037.157
47039.574
47042.527
47044.686
47046.07
47047.5
47048.966
47051.178
47054.135
47056.675
47059.424
47060.907
47060.027
47056.71
47059.915
47048.371
46486.32
46558.87
46541.884
46620.757
46609.904
46649.594
46661.972
46692.051
46715.917
46745.007
46763.578
46783.014
46804.93
46834.131
46861.268
46883.154
46897.332
46910.995
46927.632
46942.93
46954.842
46965.443
46976.044
46984.725
46993.064
47001.391
47008.848
47015.775
47021.398
47025.866
47029.922
47033.177
47035.116
47036.853
47039.367
47042.344
47044.558
47045.95
47047.508
47049.107
47051.369
47054.262
47056.619
47059.252
47060.716
47060.324
47057.06
47059.423
47049.001
46537.129
46444.219
46490.983
46561.598
46567.281
46600.467
46616.257
46653.222
46677.364
46710.479
46741.281
46766.961
46780.273
46805.801
46835.14
46862.671
46885.237
46900.374
46915.29
46932.028
46946.542
46958.787
46970.146
46979.62
46989.018
46998.142
47006.429
47014.136
47020.016
47024.701
47029.085
47032.508
47034.526
47036.556
47039.172
47042.166
47044.425
47045.859
47047.508
47049.265
47051.589
47054.39
47056.595
47059.052
47060.404
47060.578
47057.516
47059.498
47052.069
46617.094
46350.021
46488.024
46471.542
46500.791
46554.382
46572.092
46615.408
46641.561
46671.781
46701.863
46742.949
46770.663
46789.931
46812.096
46839.945
46866.913
46889.57
46906.773
46923.032
46938.359
46952.152
46964.955
46975.096
46985.272
46995.411
47004.243
47012.456
47018.771
47023.703
47028.275
47031.892
47034.012
47036.261
47038.963
47042.032
47044.29
47045.795
47047.492
47049.427
47051.831
47054.574
47056.632
47058.83
47060.065
47060.663
47058.165
47059.323
47052.772
46140.256
46524.114
46374.199
46475.909
46465.965
46523.433
46539.561
46581.362
46611.125
46646.959
46670.177
46701.841
46744.989
46784.18
46800.425
46821.534
46847.812
46874.711
46897.42
46916.236
46931.805
46945.808
46959.862
46971.373
46981.924
46992.995
47002.447
47010.791
47017.491
47022.882
47027.6
47031.26
47033.562
47036.009
47038.732
47041.924
47044.189
47045.73
47047.494
47049.603
47052.105
47054.853
47056.661
47058.616
47059.65
47060.566
47058.827
47058.782
47055.067
46293.737
46421.875
46337.904
46429.562
46430.878
46488.746
46507.418
46548.191
46575.384
46620.663
46653.145
46684.218
46710.153
46752.833
46794.879
46813.882
46834.135
46860.772
46886.387
46908.586
46926.609
46940.796
46954.928
46968.069
46979.288
46990.563
47000.841
47009.404
47016.23
47022.079
47027.055
47030.63
47033.129
47035.778
47038.522
47041.841
47044.143
47045.687
47047.562
47049.806
47052.391
47055.126
47056.676
47058.462
47059.11
47060.34
47059.175
47058.227
47057.799
46250.445
46324.728
46311.753
46394.083
46396.551
46446.927
46474.67
46521.271
46545.256
46585.326
46627.25
46681.667
46701.72
46731.1
46769.085
46806.726
46830.537
46851.681
46877.32
46900.716
46921.102
46937.124
46950.778
46964.959
46977.439
46988.294
46999.098
47008.315
47015.31
47021.212
47026.438
47030.093
47032.662
47035.545
47038.419
47041.778
47044.122
47045.717
47047.629
47050.011
47052.669
47055.343
47056.732
47058.384
47058.582
47060.041
47059.184
47058.183
47058.711
46208.715
46288.626
46277.88
46334.625
46367.131
46415.12
46444.554
46496.066
46526.624
46572.336
46593.751
46656.332
46701.714
46727.279
46752.957
46790.247
46823.156
46848.803
46870.914
46894.665
46915.823
46933.633
46947.791
46961.929
46975.851
46986.854
46997.318
47007.148
47014.777
47020.481
47025.697
47029.528
47032.255
47035.35
47038.396
47041.787
47044.113
47045.738
47047.662
47050.211
47052.913
47055.557
47056.819
47058.343
47058.212
47059.575
47058.865
47059.607
47059.731
46188.743
46225.982
46253.08
46317.908
46325.459
46400.601
46416.615
46470.344
46503.396
46564.043
46590.34
46631.617
46680.061
46724.694
46749.548
46782.125
46814.775
46842.535
46865.877
46889.734
46911.408
46930.22
46945.442
46959.45
46974.093
46986.132
46996.193
47005.804
47014.115
47019.952
47024.924
47028.923
47032.016
47035.202
47038.416
47041.841
47044.105
47045.731
47047.735
47050.4
47053.132
47055.714
47056.887
47058.367
47057.925
47059.135
47058.365
47061.447
47058.916
46136.4
46247.833
46209.984
46315.229
46292.782
46376.686
46386.64
46451.104
46480.705
46542.926
46583.835
46633.912
46668.099
46709.664
46742.802
46779.161
46810.289
46837.862
46862.065
46885.378
46907.681
46926.936
46943.451
46958.401
46972.016
46985.154
46996.024
47004.814
47013.079
47019.205
47024.23
47028.375
47031.86
47035.135
47038.478
47041.862
47044.154
47045.742
47047.891
47050.606
47053.306
47055.818
47056.934
47058.461
47057.675
47059.002
47057.779
47062.128
47058.421
46077.402
46202.25
46156.76
46270.207
46289.984
46365.464
46370.916
46437.159
46468.163
46530.085
46570.558
46626.202
46655.257
46707.372
46739.047
46775.262
46804.307
46834.099
46859.801
46882.901
46905.499
46925.142
46941.231
46957.602
46971.008
46983.774
46995.397
47004.788
47012.089
47018.16
47023.537
47027.949
47031.747
47035.028
47038.656
47042.004
47044.222
47045.847
47048.035
47050.813
47053.446
47055.88
47056.896
47058.579
47057.503
47059.033
47057.366
47062.356
47059.166
46025.711
46137.609
46142.189
46231.242
46257.446
46334.077
46367.009
46443.149
46461.183
46529.304
46551.094
46616.687
46654.766
46705.007
46736.129
46774.151
46802.915
46831.043
46856.607
46882.763
46905.405
46924.29
46939.557
46956.836
46970.376
46983.389
46994.678
47004.198
47011.594
47017.47
47023.015
47027.642
47031.731
47034.925
47038.906
47042.243
47044.354
47045.994
47048.128
47050.971
47053.557
47055.897
47056.768
47058.697
47057.466
47059.173
47057.199
47062.035
47057.759
45999.23