/*--------------------------------*- C++ -*----------------------------------*\
| =========                 |                                                 |
| \\      /  F ield         | OpenFOAM: The Open Source CFD Toolbox           |
|  \\    /   O peration     | Version:  2506                                  |
|   \\  /    A nd           | Website:  www.openfoam.com                      |
|    \\/     M anipulation  |                                                 |
\*---------------------------------------------------------------------------*/
FoamFile
{
    version     2.0;
    format      ascii;
    arch        "LSB;label=32;scalar=64";
    class       volScalarField;
    location    "1.65";
    object      k;
}
// * * * * * * * * * * * * * * * * * * * * * * * * * * * * * * * * * * * * * //

dimensions      [0 2 -2 0 0 0 0];

internalField   nonuniform List<scalar> 
1376
(
6.7645874
6.7559433
6.7494323
6.7438466
6.7399645
6.7374525
6.7365535
6.7373332
6.7404804
6.7461802
6.7553984
6.7689172
6.7877793
6.8136192
6.8485389
6.8952399
6.9578927
7.0430442
7.1606457
7.3300915
7.5917245
8.1016453
6.7666783
6.7611744
6.7574858
6.7550914
6.7543525
6.7552136
6.7584929
6.7643135
6.7737139
6.7874195
6.8065036
6.8326077
6.8678382
6.9149187
6.9780222
7.0637791
7.1821823
7.3527596
7.6160876
8.1318501
6.7778445
6.7743282
6.7720284
6.7714719
6.7724571
6.7758856
6.7818659
6.7914741
6.8053998
6.8247383
6.8511458
6.8867339
6.9342467
6.9978572
7.0842743
7.2035379
7.3752972
7.6402826
8.155267
6.7907266
6.7885481
6.7881977
6.789392
6.7930203
6.7992311
6.8090963
6.8233092
6.8429655
6.8697548
6.905789
6.9538312
7.0180624
7.105265
7.2255363
7.3986737
7.6656178
8.1826085
6.8046412
6.8061226
6.8099863
6.8164907
6.8266486
6.8412028
6.8612318
6.8884694
6.9250197
6.9736743
7.0386235
7.1267112
7.2481096
7.4227726
7.6918759
8.2103375
6.8227422
6.8268769
6.8337325
6.8442209
6.8591693
6.8796314
6.9073835
6.9445195
6.9938727
7.0596408
7.1487173
7.2713711
7.4477111
7.7192043
8.2396826
6.8437639
6.8510176
6.8618802
6.8772709
6.8982314
6.9265628
6.964356
7.0144913
7.0811767
7.1713476
7.2953868
7.473558
7.7476654
8.2703793
6.8683907
6.8796809
6.8955588
6.9170869
6.9460629
6.9845877
7.0355895
7.1032921
7.194671
7.3202242
7.500393
7.7773356
8.3026108
6.8858377
6.8976173
6.9140343
6.9362012
6.9658896
7.0052262
7.0571847
7.1260102
7.2187174
7.3459248
7.5282696
7.8082812
8.3364605
6.9157347
6.9327507
6.9556216
6.9860902
7.0263188
7.0793257
7.1493818
7.2435388
7.3725476
7.5572462
7.8405613
8.3718328
6.9518104
6.9754446
7.0067636
7.0479612
7.1021097
7.1735049
7.2692382
7.4002032
7.5874401
7.8743099
8.4091141
6.9957077
7.0279506
7.0701961
7.1255808
7.1984265
7.295871
7.4289494
7.6189193
7.9095999
8.4482704
7.0496506
7.0930328
7.1497528
7.2241696
7.3234715
7.4588319
7.6517509
7.9465289
8.4894446
7.1165234
7.1746784
7.2507909
7.3520997
7.4899183
7.6860063
7.985186
8.53261
7.2004592
7.2783942
7.3818641
7.5223285
7.7218142
8.0257345
8.5781357
7.3070229
7.4128174
7.5561251
7.759256
8.0682674
8.6261154
7.4450151
7.5913742
7.7984188
8.1128882
8.6768075
7.6281688
7.8394109
8.1597255
8.7303916
7.8823712
8.2089405
8.7871773
8.2606835
8.8472868
17.411697
16.288193
15.528537
14.90532
14.148677
13.236773
12.479832
12.019483
11.653826
11.195281
10.608411
10.025977
9.5552206
9.170357
8.8107094
8.449166
8.0954482
7.7619115
7.4486362
7.1492093
6.854269
6.5655567
6.2954306
17.593913
17.028437
16.297524
15.613991
15.171639
14.75618
14.238237
13.68453
13.189299
12.711447
12.166036
11.571931
11.042432
10.603178
10.18468
9.7388391
9.2797348
8.8429964
8.4367547
8.0515428
7.6788324
7.3193851
6.9826451
10.164361
10.001147
9.7723331
9.5370088
9.4465305
9.4162632
9.3577119
9.2613103
9.1739441
9.1031036
9.0118982
8.8800259
8.7320951
8.5858877
8.4282391
8.2562865
8.086322
7.9266234
7.7642405
7.5857055
7.3906908
7.1825905
6.965938
9.1025123
8.9364208
8.7646877
8.6067283
8.4829759
8.3877756
8.2992361
8.2014598
8.0952589
7.9925883
7.8982698
7.8006868
7.6826562
7.5337887
7.3604934
7.1980007
7.0842832
7.01042
6.9419289
6.8549064
6.7450273
6.6209938
6.4914923
9.1086088
8.9628327
8.8151868
8.6855744
8.5798956
8.4891344
8.3975091
8.2901084
8.1648791
8.038217
7.9261229
7.8211387
7.6990447
7.5398941
7.3475957
7.16155
7.023838
6.9284491
6.8407965
6.7357859
6.6089491
6.4723648
6.3398165
9.1564421
9.0215859
8.8884282
8.7776359
8.6938619
8.6198314
8.5357277
8.4301595
8.3069526
8.1858632
8.0824173
7.9883187
7.8798578
7.7365233
7.5599481
7.3839813
7.2445304
7.1372347
7.0334423
6.9116869
6.769373
6.6192194
6.4746583
9.081494
8.97051
8.8569549
8.7645643
8.6981236
8.6372366
8.5610363
8.4616757
8.3479546
8.2420541
8.1566375
8.0805621
7.9917191
7.8722699
7.7234614
7.5718343
7.4444866
7.3383254
7.2316728
7.1082604
6.9673993
6.820282
6.6770598
8.9404269
8.8482645
8.751508
8.6736345
8.61722
8.5624426
8.4908628
8.3978029
8.2961801
8.2083841
8.14234
8.0841764
8.0139288
7.9174386
7.7966791
7.6714716
7.5602863
7.461012
7.3588006
7.2426832
7.1132216
6.9787295
6.845395
8.7935432
8.7414384
8.670655
8.5934821
8.5290241
8.4795233
8.4293031
8.3630171
8.2785152
8.1907358
8.119715
8.0686329
8.0231397
7.9665683
7.8885196
7.791668
7.6899049
7.5945612
7.5042584
7.4100018
7.3053619
7.1913532
7.0729223
6.9526113
8.5710683
8.5276729
8.4697301
8.4070923
8.3555871
8.3144939
8.2698822
8.2105242
8.1369536
8.0635449
8.0056954
7.9630138
7.9231672
7.8736998
7.80806
7.7293018
7.6462857
7.5648372
7.4840516
7.3993752
7.3076238
7.209429
7.1068583
6.9998086
8.3722674
8.3298864
8.2737811
8.217318
8.1735083
8.1387005
8.0999954
8.0490406
7.9876611
7.9276807
7.8791868
7.8399085
7.8006974
7.7535292
7.6954263
7.6294076
7.5603783
7.4904351
7.4189064
7.3440416
7.2645469
7.1804581
7.0918196
6.9969797
8.1757106
8.1382808
8.0895107
8.0404444
8.0020252
7.9696929
7.93301
7.8869502
7.8348169
7.7854386
7.7435797
7.7056837
7.6654797
7.6188337
7.5655159
7.5081969
7.4491451
7.3883664
7.3252391
7.2593128
7.1901654
7.1174121
7.0401907
7.9870148
7.9488404
7.9046002
7.8663873
7.8371992
7.8086149
7.7727914
7.7281784
7.6806679
7.6377305
7.6004924
7.5641777
7.524159
7.4788018
7.4293917
7.3781349
7.3259343
7.2719926
7.2157333
7.157036
7.0957784
7.031555
6.9632778
7.8062532
7.7671507
7.7264777
7.6953803
7.6724028
7.6474574
7.6144447
7.5733177
7.5301157
7.4909528
7.456005
7.4208975
7.3822417
7.3394583
7.2940164
7.2473895
7.1998076
7.1504713
7.0990961
7.0456124
6.9899781
6.9320269
6.8707779
7.6679374
7.6435015
7.6064818
7.5662947
7.5351551
7.5120278
7.4894603
7.4615517
7.426704
7.3886353
7.3518422
7.316845
7.2811653
7.2433373
7.2034987
7.1623613
7.1199579
7.0757033
7.0291212
6.9806801
6.9306375
6.878992
6.8257157
6.770023
7.511113
7.4854978
7.4502406
7.4172451
7.391959
7.3695941
7.3452331
7.3174382
7.2866001
7.254054
7.2204107
7.1850868
7.1479146
7.110298
7.0732489
7.0361897
6.9973713
6.955372
6.9102333
6.8634638
6.8158339
6.7672809
6.717581
6.6660064
7.3614527
7.3339995
7.3059644
7.2833285
7.2630563
7.2398136
7.2130054
7.1840619
7.1549587
7.1258901
7.0950512
7.0606131
7.0232484
6.9860377
6.9507489
6.9161494
6.8794173
6.838729
6.7946737
6.7494696
6.7040541
6.6580998
6.6110848
6.5623353
7.2261571
7.2034496
7.1799578
7.1587857
7.138019
7.1152261
7.0898797
7.0625488
7.0343176
7.0054939
6.974723
6.9409474
6.9053632
6.8702151
6.8364546
6.8027598
6.7665942
6.7266528
6.6840686
6.6409647
6.5977781
6.5538349
6.508583
6.461612
7.1206605
7.1034721
7.0841235
7.0639592
7.043914
7.0236234
7.0011588
6.9761216
6.948899
6.92069
6.8918824
6.8616376
6.829485
6.7962494
6.7630776
6.7303669
6.6968912
6.6607928
6.6217383
6.5811567
6.5404284
6.4991732
6.4565398
6.4122971
6.3664715
7.0099768
6.9938182
6.9761891
6.9596365
6.9426271
6.9226672
6.8994553
6.8734957
6.846042
6.8184629
6.7908379
6.7619835
6.7314649
6.6998137
6.6677393
6.6353024
6.6015281
6.565509
6.5277642
6.4893555
6.4505968
6.4106524
6.3688152
6.3252618
6.2803566
6.9203961
6.9035736
6.8877784
6.8725588
6.8562113
6.8368413
6.81368
6.787835
6.7608865
6.7345724
6.7081871
6.6801197
6.6501475
6.6189824
6.5872589
6.5548744
6.5211011
6.4857919
6.4495991
6.412847
6.3751604
6.3357353
6.29428
6.2512632
6.2071516
6.8725362
6.8538205
6.8365861
6.8203695
6.8041269
6.7867876
6.7670766
6.7444825
6.7200651
6.6949194
6.6695238
6.6431857
6.6153047
6.5857904
6.5551518
6.5238864
6.4917965
6.458653
6.424571
6.3896579
6.3537098
6.3163053
6.2770021
6.2358065
6.1931865
6.1495667
6.8229122
6.8055781
6.7882383
6.7707267
6.7521996
6.7328555
6.7128973
6.691964
6.6695089
6.6457865
6.6208239
6.5945756
6.5670586
6.5382912
6.5084313
6.4777127
6.4460562
6.4133862
6.3799055
6.3454709
6.3098227
6.2726019
6.2335209
6.1926569
6.1503811
6.10706
6.7868346
6.7701967
6.7525828
6.7344126
6.715521
6.6958709
6.6758786
6.6551218
6.6329677
6.6094589
6.5847279
6.5588424
6.5318949
6.5038366
6.4747084
6.4445
6.4131089
6.3806814
6.3473328
6.313004
6.2775093
6.2405036
6.2017481
6.1613228
6.119504
6.0765735
6.7766173
6.7608804
6.7443613
6.7266649
6.7082088
6.6892199
6.6694986
6.6492291
6.6282137
6.6062093
6.5830882
6.558658
6.5329097
6.50597
6.4780308
6.4491082
6.4191405
6.3880561
6.3559883
6.3229382
6.2888247
6.2534897
6.216701
6.1783286
6.1384158
6.0971304
6.0546631
6.7574439
6.7416365
6.7250876
6.7073739
6.6886445
6.6691588
6.6490389
6.6285185
6.6075126
6.5856359
6.5626573
6.5384905
6.5130479
6.4863184
6.4584941
6.4296609
6.3999876
6.3692928
6.3374929
6.3046374
6.2707232
6.2356309
6.1991899
6.1612642
6.1218649
6.0810684
6.7593588
6.7435189
6.7272724
6.7104327
6.6927559
6.6740791
6.65459
6.63441
6.6136207
6.5922192
6.569984
6.5467711
6.5225213
6.4971854
6.4706927
6.4432282
6.4148583
6.3854405
6.3550124
6.323446
6.2907978
6.2570909
6.222274
6.1861646
6.1486377
6.1096807
6.0693318
6.7477731
6.7320108
6.7157629
6.6989384
6.6811945
6.6625332
6.6430838
6.6230023
6.6022623
6.5807007
6.5584209
6.5352635
6.5110194
6.4856514
6.4592977
6.4320011
6.4038288
6.374616
6.344257
6.3128348
6.2803803
6.2468628
6.2122655
6.1763986
6.1391773
6.1005633
6.060588
6.7389604
6.7230589
6.7066507
6.6896654
6.6719275
6.6533244
6.633915
6.613769
6.5928824
6.5712304
6.5489051
6.5256984
6.501571
6.4765362
6.4505437
6.4235243
6.3954167
6.3663102
6.3361149
6.3049015
6.2726232
6.2392283
6.2047059
6.1690225
6.1320916
6.0938266
6.0542227
6.7325516
6.716632
6.7001139
6.6829418
6.6649814
6.6462094
6.6266276
6.6063657
6.5854543
6.5638662
6.541547
6.5183923
6.4943141
6.4693091
6.4434111
6.416508
6.3885653
6.3596687
6.3297454
6.2987241
6.2666242
6.2334076
6.199059
6.1636009
6.1269531
6.0890357
6.0498023
6.7269469
6.710935
6.6943467
6.6770967
6.6591776
6.6404934
6.6210655
6.6009079
6.5799899
6.5583349
6.5359518
6.5127754
6.4887505
6.4638505
6.4380004
6.4111736
6.383396
6.3545958
6.3248569
6.2940539
6.2621318
6.2290758
6.1949074
6.159675
6.1233296
6.085782
6.046926
6.7229373
6.706763
6.6900146
6.6726628
6.6546899
6.6360425
6.6166854
6.5965887
6.575759
6.5541597
6.5317791
6.508612
6.4845749
6.4596367
6.4338438
6.4072094
6.3796921
6.3511432
6.3215056
6.2908092
6.2590715
6.2262615
6.1923691
6.1573468
6.1211836
6.0838712
6.7203453
6.704041
6.6871665
6.6697077
6.6516244
6.6328918
6.6134649
6.593351
6.5725267
6.5509665
6.528631
6.5054707
6.4814766
6.4566634
6.4310046
6.4044708
6.3769817
6.3485235
6.3190403
6.28858
6.2571384
6.2246329
6.191006
6.1562511
6.1203858
6.0833798
6.7193415
6.7029084
6.6859294
6.6683872
6.6502531
6.6314873
6.6120502
6.5919084
6.5710361
6.5494099
6.5270291
6.5038972
6.4799975
6.4552907
6.429719
6.4032355
6.3758348
6.3475565
6.3183392
6.2881293
6.2568775
6.2245799
6.1912037
6.15673
6.121133
6.0843859
6.7200845
6.7035642
6.6865018
6.6688768
6.6506544
6.6318003
6.6122727
6.5920449
6.5711011
6.5494399
6.5270701
6.5039729
6.4801067
6.455438
6.4299056
6.403493
6.3762194
6.3480437
6.3189416
6.2888913
6.2578649
6.2258394
6.1927843
6.1586457
6.1233887
6.7231463
6.7064807
6.6892683
6.6714865
6.6531095
6.6341131
6.6144793
6.5941941
6.5732462
6.5516165
6.5292766
6.5061866
6.4823146
6.4576331
6.4321361
6.405816
6.3786407
6.3505735
6.3216034
6.2917169
6.2608905
6.2290757
6.1962484
6.1623956
6.1275015
6.7287554
6.711935
6.6945706
6.6766452
6.6581417
6.6390442
6.6193366
6.5989987
6.5780075
6.5563369
6.5339521
6.510831
6.4869492
6.4622997
6.4368782
6.4106437
6.3835699
6.3556559
6.3268444
6.2971193
6.2664811
6.2349093
6.2023718
6.1688432
6.1343063
6.7378343
6.7208209
6.7032859
6.6852052
6.6665632
6.6473379
6.6275076
6.6070532
6.5859519
6.5641877
6.5417362
6.5185846
6.4947073
6.4700908
6.4446977
6.4185087
6.3915042
6.363659
6.3349786
6.305469
6.2750934
6.2438114
6.211587
6.178386
6.7511969
6.7339561
6.7162095
6.6979274
6.6790852
6.6596703
6.6396598
6.619036
6.5977928
6.5759171
6.5534003
6.5302101
6.5063152
6.4816902
6.4563279
6.4302067
6.4033026
6.3756052
6.3471069
6.3177919
6.2876333
6.2565803
6.2245955
6.1916412
6.7698718
6.7523644
6.7343587
6.715838
6.6967815
6.677174
6.6569989
6.636237
6.6148664
6.5928681
6.5702244
6.5469264
6.5229583
6.4982996
6.4729435
6.4468657
6.4200459
6.3924652
6.3640985
6.3349182
6.3048991
6.274012
6.2422183
6.795482
6.7776651
6.7593611
6.7405547
6.721233
6.7013788
6.6809743
6.6600035
6.638447
6.6162855
6.5935009
6.5700788
6.5460133
6.5212905
6.4958925
6.469802
6.4429956
6.4154483
6.3871363
6.358035
6.3281211
6.2973695
6.8301257
6.8119478
6.7932969
6.7741488
6.7544932
6.7343151
6.7136068
6.6923516
6.6705341
6.6481448
6.625165
6.6015806
6.5773744
6.5525323
6.527035
6.5008626
6.473996
6.4464165
6.4180986
6.3890228
6.3591718
6.3285255
6.8764811
6.8578556
6.8387763
6.8192245
6.7991852
6.7786449
6.7575907
6.7360105
6.7138801
6.6911879
6.6679296
6.6440892
6.6196519
6.5946004
6.5689211
6.5425942
6.5156006
6.4879264
6.4595598
6.4304776
6.4006678
6.9387151
6.9195523
6.8999459
6.8798794
6.8593401
6.8383152
6.8167926
6.7947601
6.7722057
6.749115
6.7254757
6.701276
6.6765027
6.6511419
6.6251812
6.5986086
6.5714106
6.5435718
6.515081
6.4859259
7.0232906
7.0034163
6.9831104
6.9623589
6.94115
6.9194733
6.8973192
6.8746779
6.8515406
6.8278988
6.8037406
6.7790559
6.7538331
6.7280601
6.7017235
6.674809
6.6473036
6.6191941
6.5904678
7.1401254
7.1193221
7.0980942
7.0764361
7.0543398
7.0317997
7.0088108
6.9853668
6.9614578
6.9370769
6.9122145
6.8868553
6.8609884
6.8346014
6.8076802
6.7802109
6.7521816
7.3084996
7.2864337
7.2639596
7.2410771
7.2177818
7.1940686
7.1699308
7.1453618
7.120353
7.0948921
7.0689673
7.0425642
7.0156719
6.9882799
6.9603826
6.9319764
7.5686015
7.5447314
7.520447
7.4957597
7.4706703
7.4451781
7.4192801
7.3929705
7.3662444
7.339096
7.3115194
7.2835052
7.2550431
7.2261258
8.0788664
8.0539146
8.028308
8.0022833
7.9758921
7.949149
7.922066
7.8946622
7.8669435
7.8389026
7.8105018
7.7816906
)
;

boundaryField
{
    Side
    {
        type            empty;
    }
    Inlet
    {
        type            turbulentIntensityKineticEnergyInlet;
        intensity       0.03;
        value           nonuniform List<scalar> 
32
(
12.016729
12.016644
12.016556
12.016516
12.016554
12.016647
12.016837
12.017137
12.017411
12.017586
12.017629
12.017527
12.017423
12.017483
12.017849
12.01833
12.018646
12.018756
12.01868
12.018563
12.016783
12.016775
12.016668
12.016475
12.016262
12.016083
12.015926
12.015762
12.015592
12.015425
12.015328
12.015398
)
;
    }
    Airfoil
    {
        type            kqRWallFunction;
        value           nonuniform List<scalar> 0();
    }
    Outlet
    {
        type            inletOutlet;
        inletValue      nonuniform List<scalar> 0();
        value           nonuniform List<scalar> 0();
    }
    procBoundary9to2
    {
        type            processor;
        value           nonuniform List<scalar> 
23
(
6.3328763
6.5971255
6.8639864
7.1426967
7.4563205
7.8109867
8.1786521
8.5198042
8.8273113
9.1366499
9.5033675
9.9638139
10.486397
11.023213
11.593054
12.222049
12.846713
13.410235
14.005999
14.812713
15.835815
16.896265
17.921774
)
;
    }
    procBoundary9to8
    {
        type            processor;
        value           nonuniform List<scalar> 
75
(
6.7761115
6.7761115
6.7814845
6.7732118
6.7732118
6.7832258
6.7832258
6.7940369
6.7940369
6.8068189
6.8047911
6.8047911
6.820898
6.820898
6.839323
6.839323
6.8607016
6.8607016
6.8776774
6.9034024
6.9034024
6.9341312
6.9341312
6.9712498
6.9712498
7.0164061
7.0164061
7.0719099
7.0719099
7.1407667
7.1407667
7.227133
7.227133
7.3367234
7.3367234
7.478542
7.478542
7.6666323
7.6666323
7.9274117
7.9274117
8.3151131
8.9108635
18.936823
18.047892
10.284228
9.2569699
9.2384555
9.276107
9.1739693
9.0116466
9.0116466
8.8295576
8.602143
8.3966979
8.2001665
8.013295
7.8371127
7.8371127
7.6818704
7.5233656
7.3820878
7.2446753
7.2446753
7.1337563
7.0244411
6.9382777
6.9382777
6.8896176
6.8387937
6.8024124
6.8024124
6.79195
6.7731268
6.7731268
)
;
    }
    procBoundary9to10
    {
        type            processor;
        value           nonuniform List<scalar> 
66
(
6.0476588
6.6718694
6.7479298
6.3641138
6.2182715
6.3407901
6.5401441
6.7133763
6.8291537
6.8861616
6.8935783
6.9561405
6.9561405
6.8887974
6.8044664
6.7103684
6.6113596
6.5110278
6.4124544
6.3188619
6.234061
6.1619752
6.1050877
6.0629169
6.0327292
6.0111468
6.0389928
6.0389928
6.0276662
6.019313
6.0133053
6.0092553
6.0067421
6.0453557
6.0453557
6.0451967
6.0464979
6.0870079
6.0870079
6.091557
6.0987292
6.1441837
6.1441837
6.1576911
6.2094852
6.2094852
6.2657593
6.2657593
6.2970714
6.3701138
6.3701138
6.4560859
6.4560859
6.5611103
6.7235832
6.5611103
6.6944075
6.7235832
6.9030567
7.1967442
6.9030567
7.1668868
7.7524421
7.1967442
7.7227177
7.7524421
)
;
    }
}


// ************************************************************************* //
