/*--------------------------------*- C++ -*----------------------------------*\
| =========                 |                                                 |
| \\      /  F ield         | OpenFOAM: The Open Source CFD Toolbox           |
|  \\    /   O peration     | Version:  2506                                  |
|   \\  /    A nd           | Website:  www.openfoam.com                      |
|    \\/     M anipulation  |                                                 |
\*---------------------------------------------------------------------------*/
FoamFile
{
    version     2.0;
    format      ascii;
    arch        "LSB;label=32;scalar=64";
    class       volScalarField;
    location    "0.029";
    object      T;
}
// * * * * * * * * * * * * * * * * * * * * * * * * * * * * * * * * * * * * * //

dimensions      [0 0 0 1 0 0 0];

internalField   nonuniform List<scalar> 
13761
(
245.67299
245.70866
245.64937
245.62746
245.61157
245.65343
245.63953
245.67055
245.60721
245.56003
245.46493
245.67314
245.70873
245.64927
245.62723
245.61161
245.65363
245.63954
245.67083
245.60722
245.56015
245.46456
245.67319
245.70883
245.64907
245.62707
245.61159
245.65383
245.63944
245.67096
245.60712
245.56028
245.46468
245.64619
245.67323
245.70895
245.64893
245.62689
245.61158
245.65407
245.63946
245.67092
245.60709
245.56038
245.4647
245.64619
245.67327
245.70907
245.64876
245.62671
245.61152
245.65426
245.63946
245.67093
245.60711
245.56049
245.46451
245.64619
245.6733
245.7092
245.64864
245.62652
245.61151
245.6545
245.63967
245.67116
245.60715
245.56059
245.46434
245.66702
245.64615
245.67332
245.70932
245.64851
245.62633
245.61145
245.65466
245.63998
245.6718
245.60716
245.56069
245.46431
245.66713
245.64612
245.67335
245.70946
245.64839
245.62618
245.61144
245.65489
245.64037
245.67266
245.60713
245.5608
245.46439
245.6672
245.64607
245.67338
245.70958
245.64826
245.62604
245.61138
245.65505
245.64049
245.67343
245.6071
245.56099
245.46455
245.66675
245.66731
245.64602
245.6734
245.70972
245.64813
245.62591
245.61135
245.65526
245.64051
245.67395
245.60703
245.56114
245.46483
245.6669
245.66737
245.64595
245.67344
245.70985
245.648
245.62577
245.61128
245.6554
245.64046
245.67427
245.60694
245.56124
245.46531
245.66703
245.66747
245.64589
245.67347
245.70998
245.64788
245.62562
245.61126
245.65562
245.64051
245.67446
245.60684
245.56123
245.46596
245.66718
245.66753
245.64582
245.67353
245.7101
245.64773
245.62546
245.6112
245.65578
245.6406
245.67461
245.60671
245.56133
245.46639
245.63049
245.66731
245.66762
245.64576
245.67355
245.71022
245.64754
245.62528
245.6112
245.656
245.64081
245.67479
245.60661
245.56141
245.46625
245.63039
245.66746
245.66767
245.6457
245.67362
245.71035
245.64741
245.62506
245.61115
245.65616
245.64094
245.67503
245.60651
245.56146
245.46606
245.63033
245.66759
245.66776
245.64564
245.67365
245.71047
245.64737
245.62483
245.61115
245.65636
245.64106
245.67529
245.60644
245.56148
245.4659
245.62574
245.63024
245.66776
245.6678
245.64557
245.67373
245.7106
245.64729
245.62457
245.61111
245.6565
245.64109
245.67555
245.6064
245.5615
245.46575
245.62581
245.63016
245.66789
245.66789
245.64549
245.67377
245.71072
245.64714
245.62434
245.6111
245.6567
245.64116
245.67581
245.60639
245.56154
245.4656
245.62592
245.63006
245.66805
245.66794
245.64541
245.67385
245.71085
245.64693
245.62412
245.61107
245.65683
245.64118
245.67604
245.60642
245.56166
245.46559
245.6175
245.626
245.62997
245.66819
245.66803
245.64534
245.6739
245.71095
245.64674
245.62392
245.61107
245.65704
245.64127
245.67622
245.60647
245.56189
245.4653
245.61765
245.62609
245.62986
245.66836
245.66807
245.64528
245.67398
245.71107
245.64657
245.6237
245.61105
245.65719
245.64132
245.67634
245.60654
245.56225
245.46451
245.61775
245.62619
245.62978
245.66851
245.66815
245.64523
245.67403
245.71116
245.64643
245.62345
245.61105
245.65742
245.64138
245.6764
245.60661
245.56258
245.59309
245.61789
245.62629
245.62969
245.66869
245.6682
245.64516
245.67411
245.71126
245.64627
245.6232
245.61101
245.6576
245.64144
245.67639
245.60667
245.5628
245.59307
245.61799
245.6264
245.62962
245.66883
245.66826
245.6451
245.67416
245.71135
245.64612
245.62298
245.61102
245.65785
245.64154
245.67634
245.60672
245.56291
245.58117
245.59305
245.61814
245.62649
245.62953
245.669
245.66833
245.64503
245.67425
245.71145
245.64595
245.62277
245.611
245.65804
245.64168
245.67637
245.6068
245.56289
245.58124
245.59302
245.61824
245.62662
245.62946
245.66914
245.66837
245.64497
245.67431
245.71154
245.64582
245.6226
245.61103
245.65826
245.64196
245.67667
245.60687
245.56275
245.58138
245.593
245.61839
245.62671
245.62937
245.66933
245.66843
245.64489
245.6744
245.71165
245.64565
245.6224
245.61103
245.65841
245.64235
245.67722
245.60697
245.55962
245.58146
245.59297
245.6185
245.62683
245.6293
245.66949
245.66848
245.64483
245.67446
245.71174
245.64545
245.62218
245.61106
245.65861
245.64273
245.67785
245.60702
245.55958
245.5816
245.59295
245.61866
245.62695
245.62923
245.66968
245.66853
245.64475
245.67455
245.71184
245.64522
245.62195
245.61105
245.65875
245.64296
245.67834
245.6071
245.55951
245.58169
245.59292
245.61877
245.62705
245.62916
245.66985
245.66858
245.64468
245.67462
245.71193
245.64503
245.62173
245.61109
245.65892
245.64307
245.67866
245.60714
245.53683
245.5595
245.58184
245.59291
245.61894
245.62717
245.62909
245.67002
245.66864
245.64461
245.67472
245.71203
245.64485
245.62152
245.6111
245.65907
245.64313
245.67887
245.60714
245.53669
245.55939
245.58193
245.59289
245.61906
245.62727
245.62902
245.67019
245.66868
245.64454
245.67479
245.71211
245.64469
245.6213
245.61116
245.65924
245.64319
245.67899
245.52505
245.5366
245.5594
245.58209
245.59288
245.61923
245.62738
245.62894
245.67035
245.66873
245.64444
245.6749
245.71221
245.64452
245.62106
245.61118
245.65939
245.64326
245.67908
245.52494
245.53647
245.55931
245.58219
245.59287
245.61935
245.62747
245.62887
245.67053
245.66875
245.64437
245.67497
245.71228
245.64435
245.62081
245.61123
245.65956
245.64335
245.6792
245.50288
245.52484
245.5364
245.55932
245.58235
245.59286
245.61953
245.62757
245.62881
245.67072
245.6688
245.6443
245.67509
245.71237
245.64417
245.62056
245.61124
245.65972
245.64345
245.67933
245.50261
245.52471
245.53626
245.55924
245.58246
245.59285
245.61965
245.62766
245.62873
245.67092
245.66882
245.64421
245.67517
245.71245
245.64399
245.62031
245.61129
245.65991
245.64356
245.67949
245.50233
245.52459
245.5362
245.55926
245.58261
245.59286
245.61983
245.62776
245.62867
245.67113
245.66889
245.64412
245.67533
245.71255
245.6438
245.62009
245.6113
245.66011
245.64369
245.67972
245.49112
245.50207
245.52449
245.53607
245.55918
245.58272
245.59283
245.61994
245.62785
245.62858
245.67133
245.66891
245.64402
245.67542
245.71263
245.6436
245.61986
245.61136
245.66033
245.64385
245.49109
245.50185
245.52437
245.53602
245.5592
245.58287
245.59285
245.62013
245.62794
245.62852
245.6715
245.66897
245.64394
245.67558
245.71273
245.64341
245.61962
245.61138
245.66054
245.64406
245.47783
245.49109
245.50158
245.52426
245.53592
245.55913
245.58298
245.59282
245.62024
245.62804
245.62843
245.67171
245.669
245.64385
245.67568
245.71282
245.64319
245.6194
245.61144
245.66076
245.64431
245.47769
245.49106
245.50137
245.52418
245.53586
245.55915
245.58312
245.59283
245.62043
245.62812
245.62836
245.67188
245.66903
245.64376
245.67582
245.71292
245.64299
245.61919
245.61146
245.66095
245.64461
245.46632
245.47748
245.49105
245.50109
245.52406
245.5358
245.55908
245.58322
245.5928
245.62055
245.62823
245.62827
245.67209
245.66908
245.64366
245.67592
245.713
245.64277
245.61899
245.61153
245.66113
245.64492
245.45048
245.4657
245.47729
245.49104
245.5009
245.52398
245.53574
245.55909
245.58335
245.59282
245.62074
245.6283
245.62821
245.67227
245.66911
245.64356
245.67606
245.7131
245.64258
245.61882
245.61157
245.66129
245.64522
245.44975
245.4652
245.47712
245.49103
245.50063
245.52389
245.53568
245.55902
245.58345
245.59278
245.62085
245.6284
245.62812
245.67249
245.66915
245.64345
245.67618
245.71319
245.64236
245.61863
245.61165
245.66144
245.43993
245.44916
245.46457
245.47686
245.49104
245.50043
245.52381
245.53564
245.55902
245.58356
245.59281
245.62106
245.62847
245.62806
245.67269
245.66918
245.64336
245.67633
245.71327
245.64217
245.61844
245.61171
245.6616
245.43866
245.44843
245.46405
245.4767
245.49099
245.50016
245.52372
245.5356
245.55895
245.58365
245.59277
245.62117
245.62856
245.62798
245.67292
245.66921
245.64326
245.67646
245.71336
245.64195
245.61826
245.61181
245.66174
245.44647
245.43755
245.44783
245.46345
245.47639
245.49102
245.49997
245.52365
245.53556
245.55895
245.58376
245.59281
245.62139
245.62865
245.62794
245.67314
245.66925
245.64317
245.67661
245.71344
245.64177
245.61808
245.61189
245.66193
245.4754
245.44427
245.43631
245.44713
245.46288
245.47625
245.49098
245.49967
245.52354
245.53554
245.5589
245.58384
245.59277
245.62151
245.62872
245.62788
245.67338
245.66927
245.64306
245.67675
245.71352
245.64157
245.61786
245.61197
245.6621
245.47215
245.4422
245.43522
245.44653
245.46232
245.4759
245.491
245.49948
245.52348
245.53548
245.55891
245.58395
245.59281
245.62172
245.62882
245.62786
245.67359
245.66929
245.64297
245.67691
245.71361
245.64141
245.6176
245.61202
245.51386
245.46875
245.44005
245.43408
245.44586
245.46172
245.47578
245.491
245.49918
245.52336
245.53548
245.55887
245.58403
245.59278
245.62184
245.62888
245.62781
245.67383
245.66931
245.64286
245.67705
245.71369
245.64122
245.6173
245.61207
245.54739
245.51011
245.46555
245.43804
245.43296
245.44522
245.46116
245.47541
245.49103
245.49899
245.52328
245.53543
245.55891
245.58414
245.59283
245.62206
245.62898
245.62778
245.67402
245.66932
245.64276
245.67721
245.71377
245.64105
245.61695
245.61215
245.55987
245.54343
245.50597
245.46218
245.43598
245.43193
245.44463
245.46056
245.47527
245.49103
245.49869
245.52317
245.53543
245.55887
245.58422
245.5928
245.62218
245.62905
245.6277
245.67424
245.66933
245.64264
245.67735
245.71385
245.64087
245.61659
245.6123
245.55125
245.55658
245.53961
245.5021
245.459
245.43402
245.43083
245.44396
245.46005
245.47496
245.49108
245.49851
245.52305
245.53538
245.55892
245.58433
245.59287
245.6224
245.62913
245.62766
245.67445
245.66933
245.64255
245.67751
245.71392
245.64067
245.6162
245.61243
245.5372
245.5482
245.55322
245.53563
245.49807
245.45572
245.43208
245.42981
245.44339
245.45946
245.47477
245.49109
245.49823
245.52292
245.53537
245.5589
245.58443
245.59283
245.62253
245.62921
245.62757
245.67468
245.66935
245.64242
245.67765
245.714
245.64047
245.61581
245.61251
245.55659
245.53177
245.54506
245.55
245.53169
245.49416
245.45256
245.43016
245.42882
245.44275
245.45894
245.4745
245.49114
245.49806
245.52279
245.53532
245.55895
245.58454
245.5929
245.62273
245.62928
245.62755
245.67487
245.66935
245.64234
245.67782
245.71408
245.64027
245.61545
245.58038
245.55143
245.52718
245.54202
245.54661
245.52765
245.49013
245.4493
245.42832
245.42779
245.44222
245.45844
245.47429
245.49117
245.4978
245.52262
245.5353
245.55893
245.58464
245.59287
245.62287
245.62937
245.62747
245.6751
245.66937
245.64221
245.67796
245.71415
245.64007
245.61516
245.58187
245.57746
245.54422
245.52174
245.53909
245.54337
245.52363
245.48624
245.44622
245.42646
245.42684
245.44159
245.45787
245.47406
245.49123
245.49765
245.52249
245.53527
245.55899
245.58476
245.59295
245.62308
245.62943
245.62746
245.67533
245.66938
245.64211
245.67813
245.71422
245.63986
245.61489
245.60793
245.57896
245.57574
245.53809
245.51709
245.53616
245.53992
245.51942
245.48224
245.44301
245.42468
245.42586
245.44106
245.45745
245.47383
245.49126
245.49742
245.52232
245.53524
245.55897
245.58486
245.59293
245.62322
245.62952
245.62739
245.67557
245.66939
245.64198
245.67827
245.71429
245.63966
245.61462
245.62098
245.61387
245.60136
245.57484
245.57168
245.52999
245.51212
245.53343
245.53663
245.51536
245.47834
245.43996
245.42284
245.42498
245.44047
245.45688
245.4736
245.49131
245.49729
245.52217
245.53522
245.55904
245.585
245.593
245.62343
245.62958
245.62739
245.6758
245.66939
245.64187
245.67845
245.71437
245.63944
245.61433
245.61995
245.61717
245.61229
245.59688
245.57238
245.56887
245.52307
245.5077
245.53051
245.53301
245.51098
245.47439
245.43685
245.42113
245.42405
245.43995
245.45648
245.47341
245.49133
245.4971
245.52203
245.53517
245.55903
245.58509
245.59298
245.6236
245.62967
245.62732
245.67605
245.66939
245.64176
245.6786
245.71443
245.63924
245.62008
245.63254
245.61768
245.61252
245.6085
245.59077
245.56832
245.56318
245.51446
245.50349
245.52791
245.5296
245.50687
245.47054
245.43383
245.41932
245.42318
245.43936
245.45596
245.47318
245.49137
245.49697
245.52187
245.53518
245.5591
245.58524
245.59306
245.6238
245.62973
245.62731
245.67629
245.66939
245.64165
245.67878
245.71451
245.63901
245.66225
245.67663
245.65073
245.61644
245.62361
245.61351
245.60841
245.60587
245.58697
245.56578
245.55848
245.507
245.49956
245.52493
245.52563
245.50241
245.4666
245.43083
245.41763
245.42234
245.43888
245.45555
245.47296
245.4914
245.49686
245.52175
245.5351
245.5591
245.58533
245.59305
245.62398
245.6298
245.62726
245.67655
245.66936
245.64154
245.67893
245.71458
245.63882
245.69825
245.69436
245.65983
245.67289
245.65261
245.61651
245.61776
245.60955
245.60318
245.60029
245.58128
245.56126
245.55062
245.49838
245.49607
245.52236
245.52202
245.49829
245.46283
245.42785
245.41584
245.42151
245.43824
245.45504
245.47276
245.49145
245.49672
245.52162
245.53513
245.55921
245.5855
245.59311
245.62417
245.62986
245.62723
245.67679
245.66934
245.64142
245.67911
245.71466
245.63858
245.67054
245.6778
245.67188
245.66021
245.68702
245.68904
245.65383
245.66317
245.65052
245.61492
245.61069
245.60449
245.59947
245.59583
245.57787
245.55805
245.54393
245.49087
245.49278
245.51923
245.51778
245.49384
245.45895
245.42497
245.41418
245.42073
245.43777
245.45464
245.47254
245.49147
245.49663
245.52149
245.53505
245.5592
245.58558
245.59311
245.62436
245.62992
245.62718
245.67705
245.66932
245.6413
245.67927
245.71474
245.63837
245.68414
245.67973
245.69221
245.70276
245.68279
245.66341
245.66998
245.66424
245.65104
245.67782
245.68759
245.65157
245.65799
245.65173
245.6157
245.60602
245.59842
245.59427
245.58806
245.57239
245.55252
245.53487
245.48296
245.49013
245.5165
245.51406
245.4897
245.45522
245.42206
245.41241
245.41997
245.43716
245.45408
245.47231
245.49151
245.49651
245.5214
245.53507
245.55934
245.58575
245.59315
245.62456
245.62998
245.62715
245.6773
245.66929
245.64119
245.67945
245.71482
245.63811
245.56053
245.57544
245.60444
245.63424
245.63537
245.6244
245.64015
245.67605
245.67742
245.67297
245.68515
245.69839
245.67743
245.65448
245.66094
245.65522
245.63872
245.66334
245.68056
245.64559
245.64796
245.64776
245.61491
245.60235
245.59239
245.59102
245.58181
245.56864
245.54818
245.5268
245.47596
245.48748
245.51309
245.50961
245.48537
245.45143
245.41927
245.41077
245.41921
245.43665
245.45372
245.47212
245.4915
245.49642
245.52126
245.53502
245.55935
245.58585
245.59315
245.62474
245.63003
245.6271
245.67754
245.66927
245.64106
245.67961
245.7149
245.64246
245.16049
244.64431
244.43663
244.44842
244.84174
245.32791
245.76448
246.1958
246.67758
247.22594
247.76541
248.2195
248.60509
248.84144
248.9042
248.72507
247.67076
245.97699
244.17086
243.62616
243.85598
244.32197
244.66728
244.88979
245.05039
245.1721
245.27643
245.37302
245.45061
245.50017
245.53761
245.57392
245.58856
245.60845
245.63421
245.63506
245.62292
245.63459
245.66766
245.67253
245.66795
245.6785
245.69371
245.67371
245.64767
245.6534
245.64951
245.63093
245.653
245.67736
245.64333
245.64255
245.64547
245.61516
245.60004
245.58473
245.58583
245.57271
245.56284
245.54132
245.51714
245.46926
245.48551
245.5102
245.50579
245.48124
245.44768
245.41644
245.40914
245.41846
245.43607
245.45315
245.4719
245.49155
245.49632
245.52119
245.53504
245.5595
245.58601
245.59319
245.62495
245.6301
245.62707
245.67781
245.66925
245.64097
245.67979
245.71497
245.87598
245.60694
245.13209
244.5229
244.22145
244.22883
244.51022
244.8878
245.33292
245.81249
246.28359
246.78854
247.32551
247.76341
248.12122
248.41041
248.53347
248.29058
247.40707
245.83234
244.22005
243.68892
243.96036
244.46263
244.80793
245.02625
245.184
245.29663
245.3644
245.44402
245.51203
245.54877
245.56612
245.58252
245.59826
245.61409
245.63366
245.63326
245.62213
245.63112
245.66076
245.66567
245.66071
245.67049
245.68602
245.66609
245.63777
245.64222
245.64105
245.6198
245.63798
245.66752
245.63722
245.63375
245.63675
245.61456
245.59935
245.57834
245.58275
245.5657
245.5583
245.53567
245.50793
245.46304
245.48339
245.50648
245.50129
245.47697
245.44397
245.41368
245.40757
245.41781
245.43557
245.45276
245.4717
245.49152
245.49624
245.52106
245.53501
245.55956
245.58611
245.59318
245.62514
245.63013
245.62704
245.67806
245.66925
245.64083
245.67996
245.71505
246.64568
246.61001
246.53989
246.41909
246.20843
245.78986
245.24808
244.92045
244.85365
244.95751
245.30607
245.75576
246.21112
246.65244
247.12699
247.56102
247.94986
248.27747
248.24313
247.82057
246.72885
245.29237
244.41892
244.56779
244.92769
245.18661
245.31153
245.37307
245.42925
245.47986
245.5155
245.5408
245.56575
245.58738
245.59704
245.60196
245.61035
245.61933
245.63285
245.63281
245.62164
245.62702
245.65319
245.65902
245.65433
245.66262
245.67943
245.66199
245.63287
245.63468
245.63629
245.6138
245.62779
245.66139
245.63501
245.62896
245.6294
245.61276
245.59814
245.57018
245.57725
245.55705
245.55145
245.52804
245.4978
245.45755
245.48181
245.50337
245.49732
245.47288
245.44019
245.41093
245.40596
245.41698
245.43496
245.45221
245.47147
245.49156
245.49614
245.52098
245.53503
245.55971
245.58625
245.59321
245.62534
245.6302
245.627
245.67834
245.66923
245.64074
245.68014
245.71512
247.68197
247.72176
247.75849
247.79144
247.81979
247.84167
247.85817
247.86101
247.78316
247.59607
247.33221
247.21679
247.22206
247.31874
247.57284
247.92693
248.33511
248.67403
248.92185
248.77752
248.38842
247.39267
246.06648
244.92482
244.99525
245.45691
245.67497
245.64859
245.62814
245.6071
245.59708
245.59821
245.61087
245.62115
245.61805
245.61823
245.62381
245.62031
245.61976
245.62368
245.63265
245.63141
245.62021
245.62425
245.64724
245.65072
245.64518
245.65096
245.66848
245.65273
245.62364
245.62362
245.62806
245.60462
245.61325
245.64843
245.62822
245.62215
245.61983
245.61076
245.59873
245.56483
245.57393
245.55066
245.54564
245.52151
245.48788
245.45226
245.4798
245.49937
245.49283
245.46866
245.43655
245.40823
245.40458
245.41641
245.43454
245.4518
245.47129
245.49154
245.49607
245.52087
245.53504
245.5598
245.58637
245.5932
245.62554
245.63024
245.62699
245.67859
245.66923
245.64059
245.68032
245.71519
248.72361
248.78824
248.85397
248.9211
248.99044
249.06315
249.14079
249.22541
249.31942
249.42149
249.55019
249.71345
249.91424
250.06945
250.15544
250.22668
250.27016
250.28732
250.23688
250.11453
249.87273
249.48853
248.82186
247.7512
246.68474
245.82962
245.70793
246.11115
246.10873
245.95703
245.86105
245.81506
245.78157
245.73724
245.70295
245.67779
245.6736
245.66082
245.64556
245.63912
245.63391
245.62848
245.62735
245.63323
245.63184
245.61849
245.61969
245.63946
245.6414
245.63627
245.64026
245.66077
245.64778
245.61851
245.61701
245.6241
245.60033
245.60397
245.63947
245.62475
245.61766
245.61072
245.60376
245.59681
245.55784
245.56793
245.54338
245.53719
245.51377
245.4776
245.44773
245.47836
245.4959
245.48869
245.46441
245.43272
245.40555
245.40303
245.41557
245.4339
245.45129
245.47106
245.49155
245.49598
245.52078
245.53502
245.55995
245.58649
245.59322
245.62573
245.63032
245.62695
245.67887
245.66919
245.6405
245.6805
249.26265
249.30191
249.34167
249.3817
249.42188
249.46294
249.50575
249.55073
249.59864
249.65058
249.70796
249.77275
249.84812
249.94224
250.06428
250.17067
250.36337
250.62933
250.84931
250.99378
250.95697
250.80618
250.48916
250.01065
249.29912
248.42177
247.53518
246.8977
246.5328
246.69065
246.8797
246.77565
246.46396
246.1823
246.06836
245.99562
245.92021
245.83898
245.77945
245.73405
245.70565
245.68306
245.66201
245.64479
245.63827
245.63219
245.62982
245.63132
245.62571
245.61408
245.61659
245.63256
245.63178
245.62462
245.6264
245.64805
245.63819
245.60971
245.60737
245.61529
245.59173
245.59037
245.62482
245.61671
245.61219
245.60252
245.59735
245.59749
245.55415
245.56381
245.5383
245.52985
245.50676
245.46724
245.44333
245.47638
245.49162
245.4842
245.46031
245.42917
245.40294
245.40173
245.41497
245.43352
245.45087
245.4709
245.49151
245.49591
245.52068
245.53506
245.56005
245.58663
245.59322
245.62595
245.63036
245.62694
245.67912
245.66916
245.64036
245.68069
249.29121
249.30901
249.32693
249.34471
249.36209
249.37883
249.39473
249.40963
249.42339
249.43556
249.44592
249.45465
249.46186
249.46739
249.47002
249.46644
249.44762
249.38723
249.24958
249.0991
249.03396
249.00865
248.97822
248.90572
248.69522
248.39485
248.01306
247.59607
247.24502
247.01851
246.90789
246.90203
247.00657
247.06737
246.89885
246.70589
246.4947
246.27343
246.15521
246.0586
245.95555
245.85623
245.78967
245.74702
245.72021
245.69678
245.67153
245.64558
245.63515
245.63166
245.63119
245.63041
245.62112
245.60833
245.61023
245.62298
245.62204
245.61405
245.6155
245.63845
245.63246
245.60533
245.60226
245.61187
245.58792
245.58193
245.61345
245.60954
245.60659
245.5942
245.5859
245.59387
245.5486
245.55713
245.5324
245.51998
245.4992
245.45702
245.43975
245.47486
245.48785
245.47979
245.45589
245.42533
245.40034
245.40036
245.41416
245.43291
245.45041
245.47071
245.49152
245.49582
245.52059
245.53503
245.56021
245.58675
245.59324
245.62614
245.63043
245.6269
245.67939
245.66912
245.64027
245.68087
248.97354
248.97071
248.9678
248.96479
248.96161
248.95818
248.95437
248.95003
248.94497
248.93899
248.93185
248.92331
248.91314
248.90111
248.88702
248.87066
248.85181
248.83016
248.80512
248.77564
248.73974
248.69379
248.63125
248.54038
248.40099
248.18281
247.86707
247.55839
247.40305
247.30437
247.24615
247.20408
247.19391
247.18343
247.19051
247.14439
247.15492
247.16305
247.17104
247.13513
247.0617
246.79258
246.37751
246.16759
246.12831
246.233
246.20977
246.1133
246.00354
245.90764
245.823
245.77014
245.74201
245.7229
245.70058
245.67156
245.64189
245.62613
245.62328
245.62681
245.62334
245.61045
245.60055
245.60463
245.61415
245.6112
245.60062
245.60268
245.62483
245.62206
245.59761
245.59273
245.6021
245.5796
245.57057
245.59941
245.59926
245.60073
245.58842
245.57652
245.59252
245.54595
245.55147
245.52847
245.51142
245.49183
245.44687
245.43627
245.4728
245.48345
245.47531
245.45177
245.42184
245.39785
245.39912
245.41359
245.43248
245.44998
245.47055
245.49146
245.49572
245.5205
245.53507
245.56031
245.5869
245.59323
245.62635
245.63047
245.62691
245.67964
245.66909
245.64013
245.68106
249.14614
249.14419
249.13962
249.13172
249.1194
249.10221
249.08003
249.05401
249.02546
248.99579
248.96579
248.93598
248.90659
248.87776
248.8497
248.82247
248.79614
248.77071
248.74619
248.72256
248.69977
248.67777
248.6565
248.63589
248.61585
248.59629
248.57711
248.55818
248.53936
248.52049
248.50141
248.48195
248.46191
248.4411
248.41929
248.39627
248.37179
248.34559
248.31735
248.28668
248.25301
248.21555
248.17305
248.12363
248.06435
247.99071
247.89575
247.76895
247.59511
247.3555
247.03758
246.66463
246.33322
246.17545
246.16374
246.22005
246.39137
246.59018
246.8354
247.05111
247.23911
247.36274
247.43351
247.36483
247.22279
246.75299
246.32327
246.07603
246.05517
246.01721
245.95016
245.90348
245.87114
245.83064
245.79465
245.75072
245.71659
245.6968
245.68236
245.68102
245.67628
245.65576
245.63278
245.61874
245.61728
245.62114
245.61536
245.60286
245.59365
245.59528
245.60445
245.60249
245.59009
245.59261
245.61449
245.61698
245.59493
245.58851
245.5972
245.57509
245.56362
245.58762
245.58792
245.59242
245.58135
245.56219
245.584
245.54168
245.54345
245.52317
245.50108
245.48423
245.43732
245.43371
245.47109
245.47953
245.47076
245.44731
245.41806
245.39534
245.39785
245.41283
245.43195
245.44955
245.47038
245.49147
245.49565
245.52041
245.53503
245.56046
245.58703
245.59326
245.62655
245.63053
245.62687
245.67992
245.66904
245.64004
245.68125
248.07697
248.08038
248.08745
248.09846
248.11252
248.12913
248.14647
248.16314
248.1775
248.18903
248.19747
248.20305
248.20594
248.20645
248.2048
248.20121
248.19587
248.18893
248.18053
248.17077
248.15975
248.14754
248.13419
248.11976
248.10425
248.0877
248.0701
248.05143
248.03166
248.01075
247.98864
247.96524
247.94045
247.91412
247.88606
247.856
247.82357
247.78824
247.74926
247.70561
247.65579
247.5978
247.52882
247.44503
247.34121
247.21034
247.04334
246.82835
246.55221
246.20687
245.80687
245.41833
245.15603
245.07957
245.21278
245.49654
245.83564
246.1959
246.57482
246.90372
247.10671
247.20061
247.05147
246.58472
246.18155
245.79431
245.73222
245.9246
246.00874
245.94777
245.81103
245.68996
245.65587
245.66148
245.67673
245.65861
245.65766
245.65338
245.6473
245.65014
245.64713
245.63754
245.61931
245.60837
245.60608
245.60791
245.60238
245.59195
245.58421
245.58482
245.59543
245.59123
245.57716
245.58007
245.60059
245.60492
245.58722
245.57908
245.58676
245.5673
245.5557
245.57611
245.57617
245.58448
245.57756
245.55121
245.57772
245.53964
245.53643
245.51957
245.49187
245.47623
245.42794
245.43124
245.46873
245.47516
245.46631
245.44322
245.41461
245.39295
245.39668
245.41225
245.43151
245.44912
245.47028
245.49141
245.49555
245.52033
245.53506
245.56059
245.58717
245.59326
245.62676
245.63057
245.6269
245.68016
245.66901
245.6399
245.68144
247.32019
247.32778
247.34361
247.36857
247.40142
247.44158
247.48556
247.53036
247.57208
247.60915
247.6406
247.66662
247.68738
247.7034
247.7151
247.72293
247.72729
247.72852
247.72693
247.72281
247.7164
247.70792
247.69757
247.68549
247.67183
247.65666
247.64008
247.62212
247.60279
247.58207
247.5599
247.53618
247.51077
247.48343
247.45385
247.42159
247.38608
247.34651
247.30185
247.25073
247.1914
247.12165
247.0387
246.9391
246.81841
246.67079
246.48796
246.2599
245.9758
245.6287
245.22872
244.82925
244.54498
244.46932
244.70144
245.07314
245.51745
245.96635
246.35234
246.65533
246.87357
247.03026
246.97944
246.5087
245.94792
245.42981
245.255
245.26943
245.27663
245.33765
245.41118
245.46845
245.52734
245.57539
245.60709
245.61192
245.61719
245.61944
245.62655
245.63764
245.63728
245.62532
245.60635
245.59402
245.59097
245.59479
245.59386
245.5855
245.57428
245.57305
245.58751
245.58333
245.56927
245.57204
245.59167
245.5976
245.58319
245.57473
245.57983
245.56274
245.55003
245.5662
245.5625
245.57197
245.57047
245.53715
245.56516
245.5358
245.52703
245.51414
245.48212
245.46795
245.41961
245.42955
245.46668
245.4712
245.46179
245.43879
245.41093
245.39054
245.39551
245.41162
245.43102
245.44876
245.47008
245.49139
245.49546
245.52024
245.53501
245.56071
245.58731
245.59329
245.62697
245.63061
245.62685
245.68045
245.66898
245.6398
247.17891
247.18127
247.1858
247.19287
247.20277
247.21565
247.23147
247.24929
247.26828
247.28734
247.306
247.32368
247.34025
247.35542
247.36918
247.38136
247.39199
247.40095
247.40829
247.4139
247.41782
247.41997
247.4204
247.41905
247.41596
247.41109
247.40448
247.3961
247.38594
247.37398
247.36018
247.34447
247.32676
247.30692
247.28472
247.25989
247.23203
247.20061
247.16494
247.12411
247.07699
247.02216
246.95788
246.88196
246.79161
246.68323
246.55213
246.3917
246.1931
245.94565
245.63958
245.27359
244.87382
244.62557
244.71916
245.04711
245.50175
245.97707
246.38155
246.72988
247.08748
247.44715
247.49288
247.14657
246.268
245.16843
244.68988
244.76462
244.96216
245.13976
245.2829
245.3852
245.45825
245.51508
245.55432
245.57578
245.58726
245.5911
245.60489
245.62264
245.62757
245.61487
245.59368
245.57731
245.57172
245.57996
245.58362
245.57513
245.56015
245.56021
245.57853
245.57221
245.55805
245.56008
245.57887
245.58375
245.57214
245.56617
245.56991
245.55634
245.54407
245.55812
245.55122
245.56116
245.56697
245.52731
245.55307
245.53331
245.51926
245.50988
245.47324
245.45905
245.41141
245.42783
245.46377
245.46691
245.4575
245.43481
245.4075
245.38822
245.39434
245.41105
245.43058
245.44829
245.47002
245.49137
245.4954
245.52015
245.53503
245.56085
245.58745
245.5933
245.62718
245.63063
245.62687
245.6807
245.66893
245.63966
247.80431
247.7947
247.77622
247.74851
247.71524
247.67775
247.64092
247.60707
247.57936
247.55784
247.54256
247.53239
247.52664
247.52436
247.52482
247.52735
247.5314
247.53649
247.54218
247.54812
247.55398
247.5595
247.56446
247.56865
247.57193
247.57416
247.57524
247.5751
247.57369
247.57097
247.56691
247.56149
247.55471
247.54657
247.53703
247.52607
247.51363
247.49963
247.48395
247.46644
247.44689
247.42505
247.4006
247.37313
247.34207
247.30666
247.26574
247.21756
247.15953
247.08787
246.99691
246.87766
246.70106
246.39061
246.08449
246.00948
246.09327
246.35592
246.72634
247.09786
247.41616
247.76684
247.76632
247.39091
246.46444
245.38703
245.00411
245.10802
245.24449
245.34266
245.41903
245.46238
245.49974
245.53738
245.57416
245.59855
245.5922
245.58651
245.58952
245.60115
245.61466
245.60353
245.58122
245.55934
245.55714
245.56968
245.57797
245.56574
245.5475
245.5507
245.57135
245.56551
245.55204
245.55266
245.57078
245.57445
245.5635
245.55991
245.56324
245.55102
245.53812
245.54986
245.53773
245.54468
245.55895
245.51617
245.53685
245.52828
245.50923
245.50368
245.46461
245.44999
245.40469
245.42662
245.46094
245.46286
245.45309
245.43057
245.40395
245.38596
245.39327
245.41047
245.43019
245.44795
245.46983
245.49134
245.4953
245.5201
245.53497
245.56097
245.58759
245.59333
245.62738
245.63066
245.62682
245.681
245.6689
245.63956
248.50594
248.50069
248.4898
248.4723
248.44831
248.41749
248.3812
248.34132
248.30046
248.26039
248.22224
248.18653
248.15352
248.12331
248.09586
248.07115
248.04905
248.02951
248.0124
247.99763
247.98505
247.97453
247.96593
247.9591
247.95388
247.95012
247.94765