/*--------------------------------*- C++ -*----------------------------------*\
| =========                 |                                                 |
| \\      /  F ield         | OpenFOAM: The Open Source CFD Toolbox           |
|  \\    /   O peration     | Version:  2506                                  |
|   \\  /    A nd           | Website:  www.openfoam.com                      |
|    \\/     M anipulation  |                                                 |
\*---------------------------------------------------------------------------*/
FoamFile
{
    version     2.0;
    format      ascii;
    arch        "LSB;label=32;scalar=64";
    class       volScalarField;
    location    "0.0225";
    object      T;
}
// * * * * * * * * * * * * * * * * * * * * * * * * * * * * * * * * * * * * * //

dimensions      [0 0 0 1 0 0 0];

internalField   nonuniform List<scalar> 
13761
(
240.24862
240.17423
240.10415
240.03915
239.97911
239.92315
239.87031
239.82003
239.77209
239.72641
239.6827
239.6405
239.5993
239.5588
239.51925
239.48245
239.4533
239.44047
239.46072
239.53926
239.71041
240.00106
240.42683
240.9207
241.39107
241.83996
242.23975
242.58081
242.86575
243.10154
243.29519
243.4522
243.57393
243.6623
243.71956
243.75034
243.76276
243.76548
241.35833
241.25898
241.16184
241.06772
240.979
240.89642
240.81885
240.74502
240.67466
240.60851
240.54729
240.49081
240.43817
240.38835
240.34095
240.29622
240.25457
240.21619
240.18111
240.14947
240.12185
240.09971
240.08575
240.08511
240.10035
240.13879
240.20998
240.33509
240.54154
240.86357
241.28083
241.72954
242.17642
242.58478
242.94025
243.23787
243.48005
243.67326
243.82466
243.94043
244.02409
244.07764
244.10616
244.11764
244.12017
241.8169
241.71938
241.6258
241.53748
241.45533
241.37889
241.30662
241.23734
241.17126
241.10942
241.05245
240.9999
240.95065
240.90384
240.85918
240.8167
240.77634
240.73779
240.70053
240.66406
240.62802
240.59248
240.55883
240.53133
240.51762
240.53207
240.59306
240.7264
240.95189
241.27435
241.69686
242.11632
242.53538
242.92286
243.26229
243.55051
243.79088
243.98788
244.1453
244.26533
244.35011
244.40342
244.43156
244.44287
244.44538
242.25739
242.17024
242.08531
242.00352
241.9268
241.85515
241.78719
241.72212
241.66037
241.6029
241.55007
241.5013
241.45553
241.41193
241.37035
241.33116
241.29473
241.26123
241.23065
241.20312
241.17918
241.1601
241.14815
241.14767
241.16006
241.19117
241.248
241.34781
241.51152
241.75936
242.10459
242.49587
242.90088
243.28598
243.62995
243.9227
244.16337
244.35607
244.5061
244.61827
244.69685
244.74586
244.77162
244.78198
244.78429
242.7009
242.61593
242.53369
242.45706
242.38667
242.32104
242.25833
242.19795
242.14069
242.08768
242.03915
241.99426
241.95183
241.9112
241.87242
241.83569
241.80098
241.7679
241.73591
241.70449
241.67328
241.64224
241.61252
241.58791
241.57511
241.58649
241.63617
241.74459
241.92729
242.18983
242.52343
242.90287
243.27978
243.63995
243.96621
244.2488
244.48462
244.67497
244.8232
244.93331
245.0092
245.05579
245.08007
245.08981
245.092
243.20128
243.12101
243.04495
242.97218
242.90326
242.83864
242.77749
242.71869
242.6623
242.60938
242.56078
242.51635
242.47506
242.43588
242.39832
242.36252
242.32889
242.29772
242.26907
242.24291
242.21938
242.199
242.1829
242.17303
242.17307
242.18379
242.21029
242.25882
242.3442
242.48368
242.69225
242.97615
243.32193
243.66643
244.00449
244.31452
244.58536
244.813
244.99751
245.14096
245.24699
245.31938
245.36352
245.38646
245.39566
245.39775
243.61401
243.54217
243.46965
243.39927
243.33436
243.275
243.21914
243.16528
243.1136
243.06527
243.02105
242.98062
242.94286
242.90674
242.87194
242.83881
242.80767
242.77842
242.75059
242.72365
242.69709
242.67055
242.64395
242.61826
242.59678
242.58554
242.59486
242.63595
242.72527
242.87553
243.09274
243.37199
243.70001
244.03204
244.35673
244.65644
244.91912
245.13902
245.31561
245.45124
245.551
245.61848
245.6593
245.68042
245.6889
245.69083
244.07855
244.00763
243.93801
243.87199
243.81097
243.75453
243.70117
243.64946
243.59911
243.55116
243.50695
243.4669
243.43021
243.39563
243.36237
243.33037
243.30004
243.27173
243.24555
243.22143
243.19936
243.1795
243.16234
243.14893
243.14097
243.14153
243.15135
243.17482
243.21792
243.29281
243.4135
243.59064
243.82536
244.11217
244.41383
244.71362
244.99173
245.23726
245.44502
245.61333
245.74307
245.8377
245.90123
245.93948
245.95923
245.96717
245.969
244.45335
244.39106
244.33072
244.27066
244.21272
244.15901
244.10916
244.06159
244.01579
243.97259
243.93299
243.89707
243.86391
243.83237
243.80181
243.77237
243.74454
243.71862
243.6944
243.67139
243.64905
243.62695
243.60473
243.58229
243.56046
243.54213
243.53262
243.54044
243.57487
243.64982
243.77615
243.95989
244.19727
244.47493
244.76628
245.05291
245.31901
245.55351
245.7505
245.9086
246.02931
246.11699
246.17557
246.21069
246.22881
246.2361
246.23779
244.87723
244.81847
244.75992
244.70049
244.64428
244.59411
244.54863
244.50492
244.46155
244.41921
244.37957
244.34373
244.31141
244.28142
244.25256
244.22449
244.19759
244.17236
244.14899
244.12739
244.10739
244.08899
244.07238
244.05804
244.04694
244.04064
244.04168
244.051
244.07243
244.11173
244.17833
244.28361
244.43531
244.6332
244.86835
245.12998
245.39095
245.63506
245.85196
246.03574
246.18399
246.29734
246.37919
246.43358
246.46609
246.48285
246.4896
246.49119
245.27532
245.219
245.1644
245.11119
245.06069
245.01289
244.96736
244.92378
244.88175
244.84121
244.80293
244.76796
244.73658
244.70801
244.68099
244.65468
244.62902
244.6045
244.58161
244.56046
244.54074
244.52198
244.50373
244.4856
244.46727
244.44863
244.4304
244.41508
244.40731
244.41419
244.44351
244.50726
244.61466
244.77132
244.97462
245.21272
245.46301
245.70987
245.93983
246.14318
246.31439
246.45171
246.55635
246.63169
246.68159
246.71135
246.72669
246.73288
246.73435
245.65336
245.59918
245.54845
245.5004
245.45242
245.40384
245.35789
245.31704
245.27997
245.24398
245.20823
245.17387
245.14241
245.11422
245.08846
245.06388
245.03978
245.01631
244.99411
244.97358
244.95469
244.93716
244.92078
244.90559
244.8918
244.8799
244.87075
244.86584
244.86731
244.87628
244.8963
244.93223
244.99169
245.08381
245.21416
245.3821
245.58078
245.80084
246.02376
246.23289
246.41897
246.57644
246.70292
246.80008
246.86972
246.91569
246.94306
246.95716
246.96286
246.96423
245.95357
245.9054
245.86113
245.8165
245.77151
245.73002
245.69325
245.65866
245.62381
245.58856
245.55453
245.52349
245.4962
245.472
245.44947
245.4274
245.4055
245.38425
245.36429
245.34592
245.329
245.31318
245.29807
245.28333
245.26867
245.25377
245.23853
245.22362
245.21114
245.20511
245.21155
245.23703
245.29183
245.3835
245.51693
245.6902
245.89312
246.1067
246.31599
246.51108
246.68367
246.82893
246.94515
247.03416
247.09777
247.13969
247.16462
247.17747
247.18269
247.18394
246.28531
246.2415
246.20128
246.16119
246.1213
246.08291
246.04587
246.01032
245.97698
245.94575
245.91588
245.88738
245.86104
245.8373
245.81567
245.79508
245.77474
245.75464
245.73537
245.7175
245.70119
245.6862
245.67217
245.65893
245.64652
245.63517
245.62533
245.61783
245.61408
245.61594
245.62465
245.64361
245.67665
245.73006
245.81081
245.92273
246.06482
246.23192
246.41657
246.6015
246.77746
246.93416
247.06651
247.17331
247.25488
247.31299
247.35117
247.37383
247.3855
247.39023
247.39138
246.59987
246.5569
246.51731
246.4799
246.44396
246.40801
246.37205
246.33908
246.31062
246.28418
246.25676
246.22831
246.20104
246.17695
246.15627
246.13773
246.1198
246.10169
246.08367
246.06653
246.05077
246.03641
246.02314
246.01062
245.99859
245.98686
245.97517
245.96326
245.95104
245.93916
245.92938
245.92521
245.9316
245.95425
246.00193
246.08062
246.19421
246.34072
246.5117
246.69238
246.86491
247.02708
247.17105
247.29258
247.3907
247.46521
247.51807
247.55268
247.57318
247.58371
247.58798
247.58901
246.88216
246.8432
246.80739
246.77513
246.74471
246.71322
246.68116
246.6517
246.6252
246.59919
246.57237
246.54578
246.52116
246.4995
246.4807
246.46378
246.44747
246.43086
246.41397
246.39747
246.38211
246.3682
246.35559
246.34393
246.3329
246.32236
246.31239
246.30316
246.2951
246.28901
246.28631
246.28858
246.29719
246.31533
246.3459
246.39412
246.46506
246.56106
246.68088
246.82016
246.97286
247.12518
247.26957
247.39913
247.50938
247.59809
247.66526
247.7128
247.74386
247.76221
247.77163
247.77543
247.77636
247.15167
247.11799
247.08425
247.0536
247.02523
246.99632
246.96733
246.93974
246.91328
246.88814
246.86516
246.84382
246.82264
246.80143
246.78151
246.76395
246.7485
246.73395
246.71932
246.70453
246.69021
246.67702
246.66513
246.65432
246.64422
246.63455
246.6252
246.61605
246.60693
246.59763
246.58815
246.57913
246.57198
246.5701
246.57692
246.59772
246.63992
246.70788
246.80453
246.92767
247.07016
247.21996
247.36347
247.49688
247.61491
247.71444
247.79403
247.85404
247.89639
247.92403
247.94035
247.94872
247.95209
247.95292
247.39229
247.3617
247.32992
247.30187
247.27735
247.25341
247.22959
247.20559
247.1814
247.15935
247.14051
247.12221
247.1018
247.0803
247.06082
247.04516
247.03259
247.02104
247.00879
246.99541
246.98168
246.96868
246.95704
246.94672
246.93736
246.92858
246.92015
246.91201
246.9042
246.89689
246.89045
246.88571
246.88417
246.88695
246.89603
246.91357
246.94229
246.98633
247.04919
247.13201
247.23297
247.34812
247.47288
247.59822
247.71623
247.82091
247.90903
247.97926
248.03202
248.06912
248.09326
248.10747
248.11474
248.11768
248.1184
247.61241
247.58839
247.56333
247.5397
247.51778
247.49649
247.47569
247.45424
247.43223
247.41209
247.3943
247.3766
247.35781
247.33928
247.32266
247.30837
247.29579
247.28402
247.27221
247.25992
247.2474
247.23539
247.22451
247.21496
247.20648
247.19867
247.19117
247.18385
247.17669
247.16966
247.16265
247.15558
247.14857
247.14231
247.13783
247.13833
247.1461
247.16586
247.20377
247.26291
247.34531
247.44866
247.56679
247.68993
247.80778
247.91561
248.00976
248.0882
248.15027
248.19663
248.22908
248.25008
248.26239
248.26863
248.27112
248.27172
247.79256
247.77334
247.75179
247.73016
247.71095
247.69422
247.67719
247.65896
247.64097
247.62394
247.60809
247.59358
247.57951
247.56464
247.54949
247.53603
247.52537
247.51667
247.50806
247.49834
247.4877
247.47715
247.46759
247.4593
247.45197
247.44515
247.43855
247.43208
247.42576
247.41962
247.41383
247.40878
247.40526
247.40488
247.4082
247.41748
247.43441
247.46133
247.50126
247.55659
247.62758
247.71235
247.80734
247.90856
248.00964
248.10353
248.18584
248.25436
248.30846
248.34881
248.37703
248.39535
248.40612
248.41164
248.41387
248.41439
247.97999
247.96579
247.9482
247.92926
247.91315
247.9001
247.8866
247.87139
247.85519
247.83927
247.82587
247.8151
247.8035
247.78874
247.77312
247.76053
247.75196
247.74519
247.73752
247.7278
247.71669
247.70574
247.69619
247.68838
247.68193
247.67616
247.67056
247.66491
247.65925
247.65365
247.64816
247.64277
247.63753
247.63264
247.62871
247.62675
247.62889
247.63757
247.65652
247.69027
247.74132
247.81084
247.89639
247.99289
248.09266
248.18739
248.27258
248.34593
248.4063
248.45353
248.48845
248.51263
248.5281
248.53705
248.54148
248.54322
248.54365
248.14434
248.13515
248.12295
248.10715
248.09238
248.08139
248.07172
248.0609
248.04777
248.03361
248.02181
248.01259
248.00209
247.9886
247.97496
247.96428
247.95651
247.94977
247.94273
247.93499
247.92672
247.91835
247.91047
247.90353
247.89761
247.89238
247.88736
247.88227
247.87708
247.87192
247.86689
247.86207
247.85759
247.85383
247.85149
247.85194
247.85571
247.86485
247.88076
247.90545
247.9411
247.98915
248.04928
248.11955
248.19689
248.27799
248.35855
248.43138
248.49455
248.54666
248.58745
248.61766
248.63867
248.65225
248.66022
248.6643
248.66592
248.66627
248.2955
248.29046
248.28334
248.27159
248.25911
248.25078
248.24508
248.23763
248.22596
248.21247
248.20178
248.19427
248.18656
248.17701
248.16672
248.15701
248.14852
248.14175
248.13656
248.13165
248.12532
248.11706
248.10786
248.09933
248.09251
248.08738
248.08315
248.07901
248.07462
248.07005
248.06548
248.06106
248.05685
248.05287
248.04916
248.04593
248.04363
248.04342
248.04648
248.05535
248.07297
248.10254
248.14597
248.20372
248.27345
248.35097
248.43043
248.50546
248.5713
248.62738
248.67303
248.70842
248.73439
248.75229
248.76373
248.77035
248.77368
248.77499
248.77531
248.42684
248.42503
248.42249
248.41594
248.40691
248.39992
248.39585
248.39091
248.38225
248.37242
248.36532
248.36035
248.35493
248.34776
248.33838
248.32757
248.31798
248.31192
248.30868
248.30526
248.29941
248.29127
248.28276
248.27571
248.27082
248.26766
248.2651
248.26214
248.25843
248.25418
248.24981
248.24562
248.24172
248.23813
248.23486
248.23212
248.2305
248.2311
248.23456
248.24272
248.25683
248.27858
248.30951
248.35038
248.4005
248.45796
248.52004
248.58385
248.6465
248.70253
248.75055
248.78969
248.81997
248.84214
248.85737
248.86707
248.87267
248.87546
248.87654
248.87679
248.54695
248.54852
248.5495
248.5484
248.54323
248.53703
248.53422
248.53324
248.52942
248.52296
248.51671
248.51101
248.50558
248.5
248.49245
248.48303
248.47521
248.47136
248.46978
248.46731
248.46271
248.45668
248.45034
248.44444
248.43919
248.43483
248.43121
248.4278
248.42415
248.42019
248.41614
248.41229
248.40877
248.40556
248.40254
248.39959
248.39671
248.39409
248.39233
248.39241
248.39538
248.40341
248.41894
248.44418
248.48047
248.52769
248.58369
248.64508
248.70747
248.7657
248.81653
248.85924
248.89357
248.91987
248.93899
248.95205
248.96034
248.96512
248.96752
248.96848
248.96871
248.64945
248.65367
248.65912
248.66184
248.66054
248.65682
248.65526
248.65746
248.65734
248.65293
248.64757
248.64324
248.64088
248.6391
248.63475
248.6274
248.62081
248.61719
248.61515
248.61284
248.60962
248.6053
248.5995
248.59262
248.5862
248.5815
248.57912
248.57797
248.57661
248.57429
248.57112
248.56763
248.5643
248.56129
248.55853
248.55582
248.55306
248.5504
248.54838
248.5482
248.55043
248.55672
248.56827
248.58647
248.61238
248.64627
248.68726
248.73352
248.78262
248.83225
248.88051
248.92344
248.95983
248.98917
249.01162
249.02783
249.03878
249.04555
249.04934
249.05109
249.05173
249.05191
248.74691
248.75682
248.76473
248.76732
248.76659
248.76737
248.77161
248.77374
248.77292
248.76948
248.76724
248.76616
248.76535
248.76175
248.75565
248.74974
248.74605
248.74386
248.7425
248.74111
248.73807
248.73268
248.72621
248.72108
248.71865
248.71805
248.71787
248.71639
248.71337
248.70943
248.70543
248.70195
248.69911
248.69668
248.69431
248.69173
248.68879
248.68563
248.68259
248.68031
248.67988
248.68212
248.6887
248.7018
248.72281
248.75258
248.79063
248.83507
248.88311
248.93134
248.97608
249.01511
249.0477
249.07381
249.09384
249.1085
249.11866
249.1253
249.12928
249.13142
249.13229
249.13246
248.82746
248.84006
248.85156
248.85784
248.86012
248.8629
248.86822
248.87463
248.87655
248.87565
248.8733
248.87422
248.87496
248.87461
248.87178
248.86776
248.86385
248.86183
248.86195
248.86265
248.86137
248.85749
248.85295
248.84946
248.84751
248.84606
248.84431
248.84204
248.83946
248.8369
248.83449
248.83227
248.83021
248.82817
248.82598
248.82348
248.82057
248.81733
248.81406
248.81137
248.81018
248.81135
248.81591
248.82502
248.83968
248.86062
248.88779
248.92029
248.95647
248.9944
249.0323
249.06869
249.10111
249.12825
249.15001
249.16664
249.17871
249.18698
249.19227
249.19537
249.19698
249.19766
249.19786
248.8918
248.90846
248.92564
248.93713
248.94316
248.94876
248.95664
248.96563
248.97203
248.97213
248.97118
248.97352
248.97765
248.97795
248.97636
248.97239
248.96823
248.96682
248.96904
248.97152
248.97123
248.96765
248.96324
248.9592
248.95551
248.95281
248.95112
248.95053
248.95038
248.94967
248.94803
248.94559
248.94285
248.94018
248.93768
248.93521
248.93257
248.92966
248.92652
248.92337
248.92053
248.91853
248.91822
248.9202
248.92586
248.93668
248.95371
248.97739
249.00709
249.04121
249.07751
249.11355
249.14698
249.17624
249.20004
249.2189
249.2332
249.24351
249.25053
249.25499
249.25758
249.2589
249.25944
249.25958
248.94612
248.96934
248.99212
249.00687
249.01423
249.02143
249.03159
249.04272
249.05131
249.0541
249.05504
249.05879
249.06445
249.06696
249.06656
249.06479
249.06236
249.06249
249.06546
249.06809
249.06796
249.06534
249.06191
249.05882
249.05591
249.05439
249.05523
249.05686
249.05779
249.05696
249.05475
249.05199
249.04934
249.04709
249.04507
249.04306
249.04087
249.03844
249.03581
249.03312
249.03064
249.02879
249.0282
249.02945
249.03333
249.0407
249.05226
249.06845
249.08918
249.11371
249.14078
249.16893
249.19672
249.22292
249.24631
249.26568
249.28116
249.29295
249.30152
249.30741
249.3112
249.31345
249.31464
249.31516
249.31533
249.02213
249.04544
249.0609
249.06961
249.08042
249.09536
249.11028
249.12164
249.12751
249.13064
249.13607
249.14337
249.14852
249.14966
249.14886
249.14658
249.14623
249.14973
249.15373
249.15529
249.15486
249.15267
249.14942
249.1468
249.14538
249.14666
249.148
249.14821
249.14665
249.14437
249.1421
249.13987
249.1376
249.13522
249.13288
249.13075
249.12887
249.12718
249.12558
249.12404
249.1226
249.12146
249.12099
249.12167
249.12412
249.12931
249.13813
249.15128
249.16891
249.19042
249.2146
249.23992
249.26481
249.28783
249.30789
249.32433
249.33722
249.3469
249.35383
249.35853
249.36151
249.36324
249.36413
249.36451
249.36463
249.06139
249.08387
249.1012
249.11608
249.13313
249.1535
249.17074
249.18264
249.18931
249.1938
249.20088
249.2103
249.2176
249.2201
249.21961
249.21828
249.21985
249.22507
249.23127
249.23329
249.23292
249.23035
249.22678
249.22418
249.22425
249.22594
249.22729
249.22727
249.22603
249.22419
249.22217
249.21988
249.21727
249.21525
249.21384
249.21331
249.21325
249.21318
249.2128
249.21202
249.21095
249.20983
249.20913
249.20937
249.21096
249.21458
249.22078
249.23002
249.2425
249.25803
249.27597
249.29535
249.31507
249.3341
249.35161
249.36699
249.37969
249.38968
249.39719
249.40258
249.40623
249.40854
249.40988
249.41057
249.41085
249.41093
249.08218
249.10821
249.13197
249.15529
249.17856
249.20087
249.21822
249.22923
249.23747
249.24565
249.25713
249.27013
249.27933
249.28295
249.2832
249.28385
249.28693
249.29288
249.2991
249.30173
249.30136
249.2999
249.29747
249.29547
249.296
249.29729
249.29849
249.29833
249.2977
249.29652
249.29495
249.29316
249.29167
249.29077
249.29117
249.29166
249.29175
249.29126
249.29019
249.28856
249.28675
249.28499
249.2835
249.28252
249.28244
249.28342
249.2861
249.29096
249.29847
249.3089
249.32215
249.33766
249.35454
249.37178
249.38836
249.40338
249.41621
249.42655
249.43449
249.44037
249.44452
249.44729
249.44903
249.45002
249.45052
249.45072
249.45078
249.09707
249.13132
249.16318
249.19167
249.21656
249.23752
249.25394
249.26673
249.2791
249.29348
249.3091
249.32349
249.33204
249.33492
249.33568
249.33769
249.34235
249.34948
249.35669
249.3609
249.36068
249.35929
249.35709
249.35525
249.35646
249.35896
249.36127
249.36297
249.36304
249.36221
249.36033
249.35833
249.35697
249.35629
249.35646
249.35616
249.35541
249.35425
249.35278
249.35118
249.34954
249.34786
249.34624
249.34488
249.34413
249.34438
249.34599
249.34941
249.355
249.36296
249.37324
249.38545
249.39895
249.41295
249.42669
249.43957
249.45111
249.46105
249.4691
249.47513
249.47952
249.48255
249.48449
249.48562
249.4862
249.48642
249.48647
249.48645
249.15227
249.18416
249.21225
249.23585
249.25722
249.27604
249.29438
249.31359
249.3333
249.35119
249.36423
249.37193
249.37534
249.37879
249.38443
249.39285
249.40258
249.41083
249.41505
249.41444
249.41304
249.41171
249.4126
249.41528
249.41834
249.42075
249.42097
249.42055
249.41877
249.41644
249.41426
249.41313
249.41264
249.41252
249.41198
249.41103
249.40988
249.40842
249.4066
249.40435
249.40175
249.39898
249.39631
249.39401
249.39238
249.39175
249.39232
249.39447
249.39863
249.40508
249.41386
249.42473
249.4371
249.4502
249.46324
249.47551
249.4865
249.49585
249.50341
249.50914
249.51333
249.51623
249.51812
249.51924
249.51985
249.52011
249.52018
249.52017
249.14489
249.17973
249.21278
249.24266
249.27095
249.29825
249.32374
249.34824
249.36901
249.38536
249.39676
249.40441
249.41075
249.41785
249.42737
249.43809
249.44795
249.45446
249.45707
249.45663
249.45603
249.45671
249.45884
249.46202
249.46561
249.4679
249.46942
249.46934
249.46863
249.46698
249.4655
249.46443
249.46443
249.46472
249.4648
249.46468
249.46429
249.46341
249.46195
249.45993
249.45764
249.4553
249.45306
249.45105
249.44939
249.4483
249.44803
249.44873
249.45069
249.45422
249.45946
249.46639
249.47478
249.48417
249.49402
249.50376
249.51291
249.5211
249.52813
249.5339
249.5384
249.54173
249.54411
249.54572
249.54675
249.54736
249.54769
249.54784
249.54789
249.14666
249.18818
249.22535
249.26098
249.29237
249.32179
249.34748
249.36968
249.38833
249.40266
249.41499
249.42569
249.43687
249.44915
249.46205
249.47419
249.48308
249.4886
249.49125
249.49268
249.49448
249.49728
249.50111
249.50562
249.50972
249.51258
249.51258
249.51174
249.50984
249.50808
249.50678
249.50695
249.50776
249.50879
249.5097
249.50984
249.5095
249.5087
249.50725
249.50552
249.50372
249.50192
249.5001
249.49824
249.49644
249.49483
249.49362
249.49303
249.4933
249.49457
249.49712
249.50109
249.50648
249.5131
249.52058
249.52846
249.53627
249.54362
249.55018
249.55576
249.56028
249.56377
249.56632
249.56811
249.56932
249.57009
249.57055
249.57079
249.5709
249.57095
249.17114
249.21264
249.25062
249.28591
249.31683
249.34552
249.37003
249.39276
249.41289
249.43138
249.44929
249.46571
249.48147
249.49465
249.50511
249.51238
249.51706
249.52077
249.52395
249.52788
249.53258
249.53772
249.54229
249.5456
249.54671
249.54619
249.54529
249.54439
249.54411
249.54426
249.54464
249.54518
249.54573
249.54613
249.54653
249.54643
249.54596
249.54513
249.54389
249.54246
249.5409
249.53927
249.5376
249.53595
249.53445
249.53325
249.53251
249.53246
249.5331
249.53464
249.53719
249.54076
249.54528
249.55055
249.55624
249.56203
249.5676
249.5727
249.57716
249.58091
249.58394
249.58627
249.58796
249.58913
249.5899
249.59037
249.59063
249.59075
249.5908
249.5908
249.16257
249.21018
249.25177
249.29113
249.32587
249.35747
249.38605
249.41125
249.43475
249.45443
249.47258
249.48811
249.50103
249.51196
249.52024
249.52775
249.534
249.54059
249.54736
249.55442
249.56196
249.56813
249.57254
249.57499
249.57622
249.57623
249.57611
249.57582
249.57589
249.57631
249.57724
249.57841
249.57951
249.58016
249.58
249.57941
249.57811
249.57645
249.57463
249.57284
249.57117
249.56967
249.56835
249.56717
249.56599
249.56483
249.56375
249.5629
249.56242
249.56252
249.56328
249.56491
249.56745
249.57087
249.57502
249.57965
249.58447
249.58919
249.59358
249.59746
249.60073
249.60336
249.60537
249.60684
249.60785
249.60851
249.60891
249.60913
249.60923
249.60926
249.60927
249.1363
249.18468
249.23148
249.27154
249.31025
249.34284
249.3744
249.40127
249.4265
249.44883
249.46828
249.48669
249.50185
249.51655
249.52982
249.54188
249.55322
249.5635
249.57372
249.58212
249.58948
249.59426
249.59725
249.59881
249.59958
249.59958
249.59961
249.59999
249.60105
249.60271
249.60444
249.60579
249.60627
249.60613
249.60579
249.60533
249.6048
249.60415
249.60328
249.60215
249.60081
249.59934
249.59791
249.5966
249.59541
249.59431
249.59331
249.59244
249.5918
249.59149
249.59164
249.59231
249.5936
249.59551
249.59797
249.60084
249.60393
249.60704
249.60999
249.61266
249.61498
249.61691
249.61846
249.61964
249.62051
249.6211
249.62149
249.62173
249.62186
249.62192
249.62194
249.62194
249.16244
249.21224
249.25814
249.29984
249.33882
249.37283
249.40557
249.4333
249.46059
249.48319
249.50485
249.52287
249.53925
249.55355
249.56491
249.57537
249.58419
249.59241
249.59863
249.60369
249.60741
249.61021
249.61251
249.61464
249.61656
249.61869
249.62123
249.62396
249.62631
249.62781
249.62862
249.62906
249.62902
249.62868
249.62798
249.62687
249.62571
249.62468
249.62381
249.62324
249.62266
249.62191
249.6209
249.61966
249.61832
249.61698
249.61569
249.61448
249.61345
249.61268
249.61226
249.6123
249.61284
249.61397
249.61562
249.61772
249.62009
249.62256
249.62498
249.62723
249.6292
249.63087
249.63221
249.63325
249.63402
249.63455
249.63491
249.63512
249.63524
249.6353
249.63533
249.63533
249.1291
249.18073
249.2316
249.27526
249.31794
249.35422
249.38893
249.41892
249.44722
249.47166
249.49333
249.51289
249.52918
249.54436
249.55691
249.56834
249.57899
249.58885
249.59752
249.60574
249.61334
249.6205
249.62665
249.63189
249.63582
249.63875
249.64112
249.64304
249.64428
249.64504
249.64519
249.64503
249.6447
249.64407
249.64336
249.6429
249.64272
249.64256
249.64223
249.64174
249.64126
249.64088
249.64052
249.64005
249.63932
249.63829
249.63707
249.63573
249.63443
249.63324
249.63223
249.63147
249.63101
249.63092
249.63118
249.63178
249.63266
249.63371
249.63481
249.63587
249.63683
249.63767
249.63838
249.63894
249.63938
249.6397
249.63992
249.64007
249.64016
249.6402
249.64023
249.64023
249.64023
249.09463
249.1515
249.2042
249.25294
249.29765
249.33898
249.37582
249.40968
249.43974
249.46838
249.49309
249.5164
249.53649
249.55481
249.57084
249.58527
249.5985
249.6097
249.61936
249.62791
249.63524
249.64142
249.64624
249.64973
249.65206
249.65341
249.65454
249.65526
249.65579
249.65611
249.65637
249.65664
249.65679
249.65697
249.65706
249.65726
249.65752
249.65783
249.65813
249.65828
249.6582
249.65787
249.65726
249.65642
249.65541
249.65424
249.65295
249.65157
249.65017
249.64877
249.64744
249.64622
249.64517
249.64435
249.64381
249.64359
249.64367
249.64403
249.64461
249.64534
249.64616
249.64698
249.64774
249.6484
249.64895
249.64939
249.64973
249.64997
249.65013
249.65024
249.6503
249.65033
249.65034
249.65035
249.109
249.16575
249.21773
249.26532
249.3096
249.34959
249.38638
249.41923
249.44942
249.47623
249.50089
249.5228
249.5427
249.56009
249.57504
249.58823
249.60024
249.61102
249.62051
249.62867
249.63553
249.64133
249.6461
249.64997
249.65288
249.65507
249.65668
249.65796
249.65912
249.66022
249.66139
249.66244
249.66348
249.66433
249.66514
249.66577
249.66623
249.6665
249.66646
249.66626
249.66588
249.66533
249.66461
249.66374
249.66272
249.66156
249.6603
249.65894
249.65752
249.65607
249.65462
249.6532
249.65185
249.65058
249.64942
249.64841
249.64756
249.64689
249.64639
249.64606
249.64589
249.64584
249.64586
249.64592
249.64601
249.64609
249.64617
249.64624
249.6463
249.64634
249.64637
249.64638
249.64639
249.64639
249.06584
249.12733
249.18405
249.23605
249.28348
249.3271
249.36672
249.40299
249.43614
249.4659
249.49313
249.51789
249.54051
249.56047
249.57846
249.59392
249.60738
249.61897
249.62921
249.63797
249.64532
249.65145
249.65653
249.66072
249.66407
249.66671
249.66878
249.67052
249.67211
249.67364
249.67517
249.67656
249.67781
249.67884
249.67967
249.68027
249.68068
249.68079
249.68071
249.68049
249.68012
249.67962
249.679
249.67826
249.67741
249.67644
249.67537
249.67418
249.67289
249.67154
249.67013
249.66869
249.66727
249.6659
249.66461
249.66345
249.66246
249.66165
249.66105
249.66062
249.66035
249.66021
249.66016
249.66016
249.66021
249.66028
249.66035
249.66043
249.6605
249.66055
249.6606
249.66064
249.66067
249.66069
249.6607
249.07526
249.13614
249.19211
249.2439
249.29058
249.33346
249.37226
249.40795
249.44003
249.46909
249.49538
249.51917
249.54037
249.55913
249.57568
249.59023
249.6029
249.61383
249.62346
249.63203
249.63969
249.64644
249.65224
249.65713
249.66116
249.66447
249.66715
249.66933
249.67108
249.67248
249.67363
249.67456
249.67531
249.67586
249.67622
249.67645
249.67642
249.67629
249.67602
249.67564
249.67514
249.67456
249.67392
249.67323
249.67247
249.67166
249.67079
249.66984
249.66878
249.66759
249.66625
249.66476
249.66313
249.66137
249.65952
249.65762
249.65575
249.65397
249.65235
249.65094
249.64975
249.64879
249.64804
249.64747
249.64706
249.64677
249.64657
249.64644
249.64637
249.64633
249.64631
249.64631
249.64631
249.64631
249.64632
249.02651
249.0897
249.14974
249.20578
249.25718
249.30411
249.34649
249.38545
249.42036
249.4527
249.48159
249.50818
249.53207
249.55396
249.57333
249.59069
249.60576
249.61896
249.63029
249.63996
249.6483
249.65546
249.66156
249.6666
249.67063
249.67373
249.67612
249.67798
249.6795
249.6808
249.68194
249.68289
249.68361
249.68415
249.68427
249.68416
249.68385
249.68331
249.68257
249.68163
249.68052
249.67926
249.67793
249.67662
249.67542
249.67443
249.67362
249.67298
249.67244
249.67194
249.67144
249.67092
249.67037
249.66981
249.66924
249.66867
249.66813
249.66764
249.6672
249.66683
249.66651
249.66626
249.66606
249.66591
249.66578
249.66568
249.66559
249.66552
249.66546
249.66541
249.66537
249.66533
249.66531
249.66529
249.66528
249.66527
248.96713
249.0342
249.09686
249.15564
249.21085
249.26141
249.30777
249.34946
249.38757
249.42206
249.45318
249.48151
249.50672
249.5294
249.54957
249.5675
249.5831
249.59686
249.60879
249.61922
249.6284
249.63637
249.64345
249.64965
249.655
249.6595
249.66317
249.6661
249.66843
249.67028
249.6718
249.67293
249.67368
249.67426
249.67449
249.67437
249.67403
249.67345
249.6726
249.67151
249.6702
249.66867
249.66696
249.66509
249.66311
249.6611
249.65918
249.65744
249.65599
249.65484
249.65404
249.65352
249.6532
249.65301
249.6529
249.65286
249.65286
249.65293
249.65305
249.6532
249.65336
249.65354
249.65371
249.65387
249.65401
249.65413
249.65423
249.65431
249.65437
249.65441
249.65444
249.65446
249.65446
249.65446
249.65445
249.65445
249.65443
248.97942
249.04608
249.10847
249.16656
249.22113
249.27131
249.31731
249.35889
249.39664
249.43095
249.46182
249.48975
249.51499
249.53764
249.55793
249.57608
249.59178
249.60548
249.61714
249.62728
249.63591
249.64327
249.64955
249.65492
249.6595
249.66338
249.66661
249.66935
249.67177
249.67384
249.67564
249.67716
249.67819
249.67903
249.67928
249.6791
249.67857
249.67766
249.67643
249.67492
249.67316
249.67123
249.66916
249.66697
249.6647
249.66241
249.66019
249.65813
249.65633
249.65487
249.65375
249.65296
249.65247
249.65225
249.65226
249.65246
249.65284
249.65337
249.65401
249.65471
249.65543
249.65612
249.65677
249.65734
249.65784
249.65825
249.65859
249.65884
249.65904
249.65917
249.65927