/*--------------------------------*- C++ -*----------------------------------*\
| =========                 |                                                 |
| \\      /  F ield         | OpenFOAM: The Open Source CFD Toolbox           |
|  \\    /   O peration     | Version:  2506                                  |
|   \\  /    A nd           | Website:  www.openfoam.com                      |
|    \\/     M anipulation  |                                                 |
\*---------------------------------------------------------------------------*/
FoamFile
{
    version     2.0;
    format      ascii;
    arch        "LSB;label=32;scalar=64";
    class       surfaceScalarField;
    location    "0.022";
    object      phi;
}
// * * * * * * * * * * * * * * * * * * * * * * * * * * * * * * * * * * * * * //

dimensions      [1 0 -1 0 0 0 0];

oriented        oriented;

internalField   nonuniform List<scalar> 
27010
(
0.07582802
-55.382276
55.388435
0.070338723
-51.405409
51.410341
0.065941178
-47.229185
47.233963
0.061247725
-43.593944
43.598281
0.057780401
-40.179829
40.183769
0.054093336
-37.030582
37.034383
0.051505248
-34.159625
34.163189
0.049871437
-31.497531
31.500966
0.049492567
-29.081269
29.084684
0.049128812
-26.874711
26.877971
0.046647423
-24.853099
24.855873
0.041064841
-22.943547
22.945321
0.03312873
-21.088182
21.088825
0.0285771
-19.330613
19.33236
0.030035088
-17.858711
17.860851
0.030316662
-16.560237
16.562469
0.028221554
-15.310031
15.311042
0.026637878
-14.077991
14.079284
0.026046448
-13.018934
13.020528
0.024608404
-12.054118
12.055203
0.023369829
-11.113372
11.114469
0.022424876
-10.283737
10.28507
0.021226719
-9.5150949
9.5160836
0.02030434
-8.7932741
8.794268
0.019295883
-8.1425621
8.1435557
0.018346115
-7.5344419
7.5353352
0.017453343
-6.9755623
6.9764824
0.016550065
-6.4616271
6.4625003
0.015684386
-5.9868589
5.9877134
0.014872185
-5.5485456
5.5493849
0.014082547
-5.1410076
5.1418276
0.013317463
-4.7658933
4.7667278
0.012617155
-4.4203667
4.4211945
0.011930838
-4.100744
4.1015344
0.011180265
-3.8043482
3.8050876
0.010419839
-3.5321788
3.5328823
0.0097204882
-3.278855
3.2795481
0.0090278337
-3.0452288
3.0459266
0.0083740699
-2.8282644
2.8289196
0.0077674346
-2.6262276
2.6268171
0.0071341251
-2.4397489
2.4403532
0.0065124991
-2.2672224
2.2677816
0.0058796525
-2.1077391
2.1082855
-1.9591858
1.9597699
0.079401223
-55.375447
0.073606653
-51.400274
0.068949904
-47.223604
0.063992154
-43.589324
0.06031268
-40.175627
0.056410339
-37.026542
0.053649003
-34.155866
0.051868209
-31.493906
0.051393338
-29.077673
0.050954461
-26.871274
0.048355013
-24.850161
0.042578095
-22.941644
0.034354707
-21.087451
0.02955386
-19.328791
0.030982261
-17.856453
0.031252053
-16.55789
0.029066622
-15.308934
0.027379655
-14.076625
0.026733036
-13.017265
0.025224692
-12.052957
0.023913112
-11.112214
0.022912067
-10.282339
0.021657188
-9.5140549
0.020677984
-8.7922256
0.019624291
-8.1415221
0.018626781
-7.5335036
0.017686271
-6.9745944
0.016737561
-6.4607093
0.01583433
-5.9859657
0.014984875
-5.5476671
0.014159419
-5.1401546
0.013362262
-4.7650274
0.012631229
-4.4195066
0.011920821
-4.0999248
0.011144327
-3.8035816
0.010358165
-3.5314497
0.0096357253
-3.2781385
0.0089198515
-3.0445055
0.0082450131
-2.8275866
0.0076195054
-2.6256175
0.0069695371
-2.4391261
0.0063306547
-2.2666446
0.0056809943
-2.1071724
-1.9585826
0.08317088
-55.367668
0.077052239
-51.394971
0.072126277
-47.217866
0.066895589
-43.584422
0.062994032
-40.171179
0.058866636
-37.02231
0.055919272
-34.151902
0.053987992
-31.490088
0.053411379
-29.073886
0.052894472
-26.867653
0.050174052
-24.847054
0.044199387
-22.939611
0.035678442
-21.086625
0.030611893
-19.32689
0.032006545
-17.854069
0.032264971
-16.555425
0.029987773
-15.307747
0.028191966
-14.075188
0.027487204
-13.015519
0.025906736
-12.051717
0.024518695
-11.110993
0.023458979
-10.280874
0.022141109
-9.5129577
0.021103965
-8.7911216
0.019994458
-8.1404249
0.0189445
-7.5325159
0.017960046
-6.9735829
0.016969643
-6.4597496
0.016023327
-5.9850285
0.015136521
-5.54675
0.014275184
-5.1392673
0.013442024
-4.7641281
0.012680117
-4.418613
0.011938642
-4.0990704
0.011134288
-3.8027858
0.010321822
-3.530694
0.009576925
-3.2773995
0.0088404073
-3.0437595
0.0081430369
-2.8268842
0.0074981969
-2.6249859
0.0068324406
-2.4384858
0.0061769082
-2.2660494
0.005509039
-2.1065816
0.0048492953
-1.9579613
-1.8202816
0.087142443
-55.358994
0.080687901
-51.389397
0.07548085
-47.212159
0.069963536
-43.57926
0.065829993
-40.166502
0.061467486
-37.017861
0.058324908
-34.147722
0.05623571
-31.486069
0.05555173
-29.069901
0.054952259
-26.86384
0.052106213
-24.843769
0.045925714
-22.937439
0.037096366
-21.0857
0.031752156
-19.32491
0.033111188
-17.851555
0.03335737
-16.552837
0.030983878
-15.306457
0.029074593
-14.07368
0.028309299
-13.013695
0.026652944
-12.050392
0.025185414
-11.109707
0.024064374
-10.279339
0.02268114
-9.5118008
0.021586339
-8.7899626
0.020423849
-8.1392725
0.019322728
-7.5314801
0.018286658
-6.9725202
0.01724702
-6.4587417
0.016260347
-5.9840496
0.015333722
-5.5457907
0.014433648
-5.1383445
0.013566359
-4.7631955
0.012771396
-4.4176846
0.012004063
-4.0981851
0.011172118
-3.8019608
0.010332503
-3.5299111
0.0095633614
-3.2766363
0.0088026207
-3.042987
0.0080829984
-2.8261576
0.0074182862
-2.6243321
0.0067347761
-2.437827
0.0060611943
-2.2654343
0.0053765546
-2.1059616
0.0047023843
-1.9573216
-1.8196857
0.091331192
-55.349448
0.084522632
-51.38337
0.079021532
-47.206551
0.07320503
-43.573967
0.06882814
-40.161606
0.064219246
-37.013126
0.060871675
-34.143312
0.058615454
-31.481838
0.057817103
-29.065709
0.057130949
-26.859826
0.054156054
-24.840304
0.047765923
-22.935119
0.038617837
-21.084668
0.032977667
-19.322849
0.034295294
-17.848903
0.034529431
-16.550121
0.032058017
-15.305056
0.030029029
-14.072103
0.029199518
-13.011791
0.027465026
-12.048977
0.025914263
-11.108355
0.02472905
-10.277733
0.023277414
-9.5105811
0.022119953
-8.7887441
0.020896538
-8.138057
0.019738408
-7.5303907
0.018654601
-6.9714105
0.017570266
-6.4576892
0.016537063
-5.9830227
0.01556998
-5.5447894
0.014631524
-5.1373844
0.013725191
-4.7622269
0.012897216
-4.416721
0.012096812
-4.097262
0.011235067
-3.8011042
0.010367456
-3.5290997
0.0095742132
-3.2758489
0.0087916276
-3.0421906
0.0080479729
-2.8254043
0.0073629357
-2.6236556
0.0066628962
-2.4371508
0.0059715646
-2.2648002
0.0052684411
-2.1053126
0.004580743
-1.9566642
-1.8190775
0.095747883
-55.339789
0.088569374
-51.376782
0.082759039
-47.200792
0.076629704
-43.568498
0.071998128
-40.156469
0.067130712
-37.008134
0.063567168
-34.138663
0.061135197
-31.477384
0.060215745
-29.0613
0.059437533
-26.855602
0.056328755
-24.836648
0.049719991
-22.932642
0.040241153
-21.083524
0.034291142
-19.320708
0.035565414
-17.846108
0.035786277
-16.547269
0.033211611
-15.303529
0.031057434
-14.070457
0.030160938
-13.009805
0.028344223
-12.047468
0.026706496
-11.106933
0.025454051
-10.27605
0.0239314
-9.5092956
0.022710896
-8.7874656
0.021430028
-8.1367812
0.020216771
-7.5292494
0.01907688
-6.9702456
0.017938522
-6.4565836
0.016861676
-5.9819506
0.015851834
-5.5437424
0.014871282
-5.1363851
0.013928326
-4.7612231
0.013064461
-4.4157199
0.012235836
-4.096305
0.011344391
-3.8002151
0.010447936
-3.5282592
0.0096289576
-3.275036
0.0088206629
-3.0413661
0.0080533476
-2.8246249
0.0073471865
-2.6229557
0.0066278885
-2.4364552
0.0059175062
-2.2641443
0.0051973092
-2.1046471
0.004494939
-1.9559882
-1.8184539
0.10040724
-55.330236
0.092840182
-51.36971
0.086705863
-47.195012
0.080247528
-43.562618
0.075347836
-40.151024
0.070209125
-37.0029
0.066418324
-34.133765
0.063800157
-31.472695
0.062751231
-29.056665
0.061876093
-26.851159
0.058629521
-24.83279
0.051797787
-22.930003
0.041977278
-21.082262
0.035696985
-19.318484
0.036920605
-17.84316
0.037128161
-16.544274
0.034448473
-15.301868
0.032161989
-14.068743
0.031194508
-13.007735
0.029292765
-12.04586
0.02756385
-11.105438
0.026240829
-10.274287
0.024643907
-9.5079399
0.023355128
-8.7861226
0.022007575
-8.1354357
0.020732112
-7.5280492
0.019539953
-6.9690294
0.01835338
-6.4554298
0.017226212
-5.980826
0.01617221
-5.5426495
0.015150268
-5.1353448
0.014164751
-4.7601805
0.013265457
-4.4146819
0.012401369
-4.0953073
0.011477828
-3.7992915
0.010551389
-3.5273879
0.0097063316
-3.274197
0.0088747156
-3.040516
0.0080816993
-2.8238166
0.0073540129
-2.6222323
0.006616918
-2.435741
0.0058874555
-2.2634673
0.0051483095
-2.1039617
0.004431763
-1.9552947
-1.8178181
0.10532243
-55.320856
0.097343017
-51.362122
0.090868512
-47.188664
0.084069849
-43.556291
0.078888444
-40.145218
0.073464325
-36.99738
0.069433974
-34.128605
0.06661952
-31.467759
0.065433129
-29.051793
0.064454487
-26.846485
0.061064554
-24.828719
0.054000113
-22.927193
0.043824622
-21.080874
0.037198881
-19.316181
0.038368529
-17.840049
0.038561442
-16.541129
0.035770882
-15.300067
0.033345686
-14.06696
0.032303678
-13.00558
0.030312601
-12.044148
0.028488159
-11.103865
0.027091201
-10.27244
0.025416957
-9.5065105
0.024058916
-8.7847144
0.022648456
-8.134024
0.021313211
-7.5267927
0.020060152
-6.9677535
0.018814276
-6.4542174
0.01763947
-5.979652
0.016539351
-5.5415071
0.015471501
-5.1342612
0.014446514
-4.7591012
0.013508011
-4.4136036
0.012612806
-4.0942729
0.011657171
-3.798332
0.010699879
-3.5264855
0.0098273738
-3.2733309
0.0089683105
-3.0396358
0.0081501969
-2.8229806
0.0073996371
-2.6214844
0.0066415289
-2.435005
0.0058919815
-2.2627672
0.0051347824
-2.1032536
0.0044031362
-1.9545826
0.0037185123
-1.8171656
-1.6896915
0.11050679
-55.311122
0.1020983
-51.354502
0.095267911
-47.181512
0.088106776
-43.549513
0.082628596
-40.139083
0.076905006
-36.991555
0.072622064
-34.123169
0.069599056
-31.46256
0.068265498
-29.046672
0.067177425
-26.84157
0.063639773
-24.824424
0.056337683
-22.924204
0.045795978
-21.079353
0.038803336
-19.313793
0.039908713
-17.836762
0.040086763
-16.537826
0.037183187
-15.298126
0.034611097
-14.065105
0.033490115
-13.003338
0.03140644
-12.042323
0.029481989
-11.102213
0.028007089
-10.270506
0.026251794
-9.5050027
0.024819171
-8.7832361
0.023335759
-8.1325358
0.021932307
-7.5254718
0.020621581
-6.9664216
0.019323303
-6.4529522
0.018094016
-5.9784208
0.016945326
-5.5403139
0.015832727
-5.1331333
0.014761134
-4.75798
0.013784387
-4.4124862
0.012851
-4.0931952
0.011860585
-3.7973352
0.010871029
-3.5255495
0.0099700091
-3.2724362
0.0090858029
-3.0387281
0.0082402941
-2.8221139
0.0074665601
-2.6207118
0.0066889147
-2.4342478
0.0059188696
-2.2620442
0.0051420126
-2.1025194
0.0043955068
-1.9538513
0.0036988735
-1.8165001
-1.6890795
0.11597728
-55.300526
0.10712022
-51.346924
0.099914961
-47.173117
0.09237165
-43.542213
0.08658109
-40.13262
0.080542385
-36.985424
0.075992805
-34.117444
0.072749666
-31.457089
0.071259388
-29.041291
0.070054471
-26.836403
0.066362706
-24.819893
0.058812353
-22.921024
0.047889877
-21.077688
0.040514133
-19.311322
0.041550139
-17.833285
0.041711533
-16.534361
0.038688598
-15.296042
0.035962213
-14.063172
0.034758194
-13.001005
0.032577118
-12.040376
0.03054751
-11.100476
0.028990795
-10.26848
0.027150939
-9.5034122
0.025642236
-8.7816864
0.024089379
-8.1309747
0.022621197
-7.5240894
0.021244174
-6.9650252
0.019880455
-6.4516217
0.018598786
-5.9771352
0.017400392
-5.5390672
0.016237569
-5.1319582
0.015123187
-4.7568198
0.01410339
-4.4113251
0.013135653
-4.0920783
0.012110357
-3.7962995
0.011087581
-3.5245798
0.010157182
-3.2715124
0.0092436249
-3.0377883
0.008371161
-2.821218
0.007572177
-2.6199123
0.0067716906
-2.4334654
0.0059803298
-2.261297
0.0051841368
-2.1017605
0.0044220378
-1.9531008
0.0037085549
-1.8158169
-1.6884542
0.12175104
-55.289133
0.11241798
-51.339473
0.10481884
-47.164463
0.096876116
-43.534552
0.090756134
-40.125804
0.084386076
-36.978974
0.079554994
-34.111416
0.076077903
-31.451334
0.074419523
-29.035636
0.073090482
-26.830969
0.069239798
-24.815115
0.061435771
-22.917643
0.050120811
-21.075871
0.042340366
-19.308766
0.043292253
-17.829595
0.04343645
-16.530727
0.040291808
-15.293811
0.037402632
-14.061151
0.03610998
-12.998578
0.033827405
-12.038301
0.03168784
-11.098654
0.030045015
-10.26636
0.028116476
-9.5017337
0.0265258
-8.7800595
0.024893148
-8.1293305
0.023350017
-7.5226353
0.021908855
-6.9635669
0.020488207
-6.4502334
0.019147432
-5.9757872
0.017895288
-5.5377645
0.0166838
-5.1307353
0.015518369
-4.755614
0.014457135
-4.4101223
0.013448093
-4.0909153
0.012385
-3.7952233
0.011327239
-3.5235731
0.010365378
-3.2705571
0.0094246161
-3.0368188
0.0085228595
-2.82029
0.0076985549
-2.6190856
0.0068766996
-2.4326588
0.0060632192
-2.2605253
0.0052466364
-2.1009759
0.0044688341
-1.9523317
0.0037426326
-1.815121
-1.6878122
0.1278408
-55.277357
0.11800991
-51.331628
0.10999876
-47.155904
0.10163513
-43.52661
0.095168487
-40.118642
0.088448921
-36.972182
0.083320324
-34.105068
0.07959554
-31.445283
0.077758394
-29.029696
0.076296741
-26.825257
0.072280029
-24.810076
0.064210832
-22.914048
0.052487286
-21.073889
0.044285748
-19.306128
0.045145815
-17.825672
0.045270418
-16.526919
0.041996759
-15.29142
0.038936377
-14.059036
0.037550662
-12.996052
0.035161099
-12.036089
0.032905915
-11.096742
0.031172509
-10.264141
0.029151254
-9.4999621
0.027476621
-8.7783533
0.025767304
-8.1276064
0.024153311
-7.5211126
0.022640282
-6.962039
0.021147066
-6.4487727
0.01974833
-5.974379
0.018442689
-5.5364043
0.01717619
-5.1294603
0.01596408
-4.7543661
0.014855354
-4.4088715
0.013808264
-4.0897101
0.012707142
-3.7941043
0.011613581
-3.5225295
0.010620173
-3.2695709
0.0096479885
-3.0358156
0.0087167803
-2.8193309
0.0078643363
-2.6182282
0.0070177597
-2.4318247
0.0061816076
-2.2597284
0.0053444172
-2.1001662
0.0045503163
-1.9515443
0.003805971
-1.8144073
0.0030941568
-1.6871559
-1.5693294
0.13427173
-55.265368
0.12391457
-51.322818
0.11546752
-47.147349
0.10666155
-43.518589
0.099829818
-40.111139
0.092742213
-36.965032
0.087299293
-34.098383
0.083311154
-31.438923
0.081281604
-29.023457
0.079678666
-26.819253
0.075490294
-24.804763
0.067149877
-22.910228
0.055006022
-21.071733
0.046361127
-19.303405
0.047110187
-17.821495
0.04721398
-16.522933
0.043808905
-15.288858
0.040568246
-14.056818
0.039082899
-12.993419
0.036581383
-12.033728
0.034205526
-11.094738
0.0323766
-10.26182
0.030258017
-9.4980916
0.028493284
-8.7765613
0.026696163
-8.1257919
0.024999795
-7.51951
0.023415253
-6.9604423
0.021859797
-6.4472496
0.020397255
-5.9729032
0.01903148
-5.5349816
0.017711865
-5.1281323
0.01644389
-4.7530681
0.015290146
-4.4075761
0.014198086
-4.0884557
0.013055677
-3.7929408
0.011923983
-3.5214451
0.010895851
-3.2685502
0.0098942886
-3.0347811
0.0089314375
-2.818338
0.0080513838
-2.6173403
0.0071816908
-2.4309646
0.0063215395
-2.2589051
0.0054630218
-2.0993301
0.0046520601
-1.9507389
0.0038937865
-1.8136806
0.0031649974
-1.6864831
-1.5686808
0.14106496
-55.25291
0.13015428
-51.312695
0.12124417
-47.138447
0.11197211
-43.510165
0.10475563
-40.103274
0.097279842
-36.957506
0.091504499
-34.091345
0.087237421
-31.432236
0.085003128
-29.016904
0.083249142
-26.812941
0.078881294
-24.799161
0.070257337
-22.906169
0.057675419
-21.069387
0.048568866
-19.300599
0.04919709
-17.817061
0.049277696
-16.518761
0.045733071
-15.286109
0.042302715
-14.054497
0.040712703
-12.990673
0.038092683
-12.031202
0.035590095
-11.09264
0.033660617
-10.259392
0.031439961
-9.4961157
0.029582406
-8.7746803
0.027700378
-8.1238898
0.025926305
-7.5178317
0.024263607
-6.9587701
0.022627967
-6.4456472
0.02110054
-5.9713601
0.019677298
-5.5334969
0.018297325
-5.1267464
0.016978119
-4.7517243
0.015772001
-4.4062281
0.014637768
-4.0871559
0.013453801
-3.7917299
0.012283379
-3.5203203
0.011221132
-3.2674964
0.010185865
-3.0337116
0.0091903047
-2.8173109
0.0082791489
-2.616418
0.0073828111
-2.4300757
0.006498128
-2.2580545
0.0056176989
-2.0984669
0.0047895095
-1.9499153
0.0040116654
-1.812935
0.0032656917
-1.6857935
-1.5680194
0.14823896
-55.240148
0.13674347
-51.301435
0.12734572
-47.128697
0.11758201
-43.501104
0.10995943
-40.094969
0.10207516
-36.949584
0.095948295
-34.083937
0.091384302
-31.4252
0.088929735
-29.010021
0.08701409
-26.806306
0.082460414
-24.793254
0.073546043
-22.901858
0.06051425
-21.066842
0.050922659
-19.297708
0.051407249
-17.812388
0.051462564
-16.514398
0.047775507
-15.283163
0.044145304
-14.052076
0.042442934
-12.987801
0.039698214
-12.028495
0.037063969
-11.090449
0.035028377
-10.256853
0.032700725
-9.4940302
0.030743809
-8.7727033
0.028765287
-8.1218891
0.026900177
-7.5160637
0.025157672
-6.9570208
0.023453608
-6.4439771
0.021857374
-5.9697441
0.020366836
-5.5319423
0.018928732
-5.1253025
0.017548402
-4.7503256
0.016293104
-4.4048325
0.015109482
-4.0858027
0.01388014
-3.79047
0.012668067
-3.5191506
0.011567913
-3.266405
0.010500766
-3.0326092
0.0094708986
-2.8162475
0.0085296406
-2.6154621
0.0076079808
-2.4291592
0.0066972687
-2.257175
0.0057942833
-2.0975755
0.0049477859
-1.9490713
0.0041543369
-1.8121748
0.0033910588
-1.6850864
-1.5673373
0.15581401
-55.226467
0.14370322
-51.289981
0.13379205
-47.118371
0.12351107
-43.49139
0.11545906
-40.086154
0.10714364
-36.941242
0.10064456
-34.076136
0.095765902
-31.417798
0.093076719
-29.002793
0.090988538
-26.799332
0.086240006
-24.787028
0.077022449
-22.897276
0.06352131
-21.064081
0.053422867
-19.294729
0.053752892
-17.807526
0.053780444
-16.50984
0.049941917
-15.280008
0.046100809
-14.049562
0.044280943
-12.984793
0.041403271
-12.025591
0.038631343
-11.088164
0.036484076
-10.254198
0.034044001
-9.4918249
0.031984167
-8.7706259
0.029911401
-8.1197918
0.027960872
-7.5142102
0.026133389
-6.9551887
0.024340809
-6.4422199
0.022671525
-5.9680526
0.021118921
-5.5303208
0.019614721
-5.1237944
0.018177735
-4.7488764
0.016864651
-4.4033796
0.015634409
-4.0844003
0.014359643
-3.7891579
0.013105375
-3.5179367
0.011967838
-3.2652773
0.0108642
-3.0314694
0.0097981106
-2.8151459
0.0088228808
-2.614469
0.0078723207
-2.4282119
0.0069347036
-2.2562647
0.006008335
-2.0966567
0.0051433522
-1.9482072
0.0043290396
-1.8113947
0.0035461623
-1.6843592
-1.5666406
0.16381443
-55.211153
0.15105248
-51.278738
0.14060127
-47.106993
0.12977605
-43.481343
0.12127088
-40.076839
0.11250019
-36.932456
0.10560759
-34.067922
0.10039393
-31.410013
0.09745214
-28.9952
0.095178899
-26.792005
0.090228502
-24.780466
0.080699484
-22.892407
0.066717115
-21.061096
0.056086654
-19.291664
0.056235293
-17.802473
0.056231896
-16.505086
0.052239268
-15.276641
0.048176146
-14.046955
0.046229951
-12.981635
0.043210002
-12.022473
0.040296921
-11.08579
0.038032028
-10.251421
0.035473946
-9.4894942
0.033304493
-8.7684409
0.031125355
-8.1175855
0.029074079
-7.5122557
0.027157243
-6.9532695
0.025289244
-6.4403886
0.023545822
-5.9662826
0.021917944
-5.5286212
0.020349815
-5.1222226
0.018846149
-4.7473664
0.017479016
-4.4018755
0.016193965
-4.0829393
0.014869116
-3.7877918
0.01356954
-3.5166741
0.012390643
-3.2641082
0.011252103
-3.0302937
0.010149032
-2.8140051
0.0091409138
-2.6134398
0.0081617462
-2.427234
0.007196066
-2.2553224
0.0062459933
-2.0957099
0.0053609391
-1.9473227
0.0045288251
-1.8105976
0.0037281677
-1.6836135
0.0029539968
-1.5659209
-1.4566236
0.17226419
-55.194227
0.15881788
-51.267465
0.14779623
-47.094862
0.13639728
-43.471027
0.12741374
-40.067043
0.1181623
-36.9232
0.11085292
-34.05927
0.10528402
-31.401824
0.10207309
-28.987224
0.099602158
-26.784309
0.094439598
-24.773554
0.084585986
-22.887233
0.070101152
-21.057872
0.058913281
-19.288514
0.058868121
-17.797075
0.05883075
-16.500127
0.054674396
-15.273054
0.050376696
-14.044246
0.048298135
-12.978316
0.045125304
-12.019128
0.042065733
-11.083324
0.03967709
-10.248516
0.036995
-9.4870311
0.034711283
-8.7661432
0.032427381
-8.1152715
0.030281873
-7.5102059
0.028272692
-6.9512596
0.026306926
-6.4384609
0.024481096
-5.9644279
0.022785971
-5.5268495
0.021145531
-5.1205802
0.019578819
-4.7458002
0.018148025
-4.4003092
0.016811492
-4.0814249
0.015437079
-3.7863691
0.014091019
-3.5153628
0.012870686
-3.2628979
0.011692513
-3.0290774
0.010549754
-2.8128224
0.0095046812
-2.6123713
0.0084938376
-2.4262225
0.0074986229
-2.2543458
0.0065233909
-2.0947345
0.0056181721
-1.946419
0.0047638237
-1.8097787
0.0039410098
-1.6828444
0.0031513656
-1.5651841
-1.4559149
0.18118855
-55.1765
0.16702021
-51.255187
0.15539817
-47.082538
0.14339342
-43.459994
0.13390513
-40.056711
0.12414714
-36.913448
0.11639672
-34.050155
0.1104494
-31.393207
0.10694889
-28.978841
0.10426556
-26.776222
0.098882753
-24.766276
0.088694931
-22.88174
0.073696078
-21.0544
0.061923822
-19.28527
0.061654518
-17.791204
0.06157851
-16.494947
0.057254698
-15.269252
0.052710509
-14.041415
0.050489936
-12.974824
0.047153565
-12.015552
0.043943427
-11.08076
0.041424309
-10.245476
0.038612126
-9.4844264
0.036206971
-8.7637259
0.033805751
-8.1128373
0.031548628
-7.5080439
0.029439512
-6.9491516
0.027390356
-6.4364512
0.025484769
-5.9624893
0.023705126
-5.5249901
0.021993916
-5.1188673
0.020354937
-4.7441676
0.018864375
-4.3986873
0.017466723
-4.0798459
0.016036961
-3.7848874
0.014641787
-3.5139986
0.013376137
-3.2616415
0.012159737
-3.0278215
0.010977284
-2.811598
0.009895989
-2.6112641
0.0088524674
-2.4251764
0.0078269391
-2.2533344
0.0068268701
-2.093731
0.0058996195
-1.9454947
0.0050246907
-1.8089393
0.0041832768
-1.6820558
0.0033711539
-1.5644228
-1.4551876
0.19062222
-55.159216
0.17569149
-51.241557
0.16343447
-47.070297
0.15079027
-43.44791
0.14076727
-40.045782
0.13047383
-36.903174
0.12225632
-34.040554
0.11590745
-31.38414
0.1120983
-28.970028
0.10918836
-26.767722
0.10357373
-24.75861
0.093037982
-22.875912
0.077502064
-21.050662
0.065116697
-19.281922
0.064608486
-17.784982
0.064489991
-16.489536
0.059988761
-15.265229
0.055184007
-14.038441
0.052814406
-12.971152
0.049308727
-12.011758
0.045935628
-11.078074
0.043279515
-10.242291
0.040330313
-9.4816701
0.037798172
-8.7611836
0.035280344
-8.1102838
0.032919045
-7.5057772
0.030709133
-6.9469439
0.028552454
-6.4343352
0.026553622
-5.9604552
0.024700724
-5.5230525
0.022910467
-5.1170767
0.021200822
-4.742473
0.019640364
-4.3969979
0.018186107
-4.0782094
0.016702166
-3.7833444
0.015255258
-3.5125799
0.013943592
-3.2603383
0.012684169
-3.0265216
0.011458679
-2.810329
0.010336724
-2.6101143
0.0092584513
-2.4240931
0.0082005853
-2.2522859
0.0071729233
-2.0926964
0.0062234102
-1.9445486
0.0053245675
-1.8080762
0.004458468
-1.6812415
0.0036293189
-1.563643
-1.4544415
0.20059227
-55.141411
0.1848556
-51.227665
0.17192956
-47.057189
0.15860979
-43.435028
0.14802098
-40.034263
0.13716236
-36.892353
0.12845022
-34.030438
0.12167399
-31.374598
0.11753285
-28.96076
0.11437864
-26.758783
0.10852265
-24.750534
0.097628149
-22.869727
0.081544063
-21.046649
0.068516225
-19.278462
0.067734513
-17.778487
0.067567645
-16.483883
0.062883512
-15.260972
0.057806179
-14.035313
0.055276953
-12.967286
0.051595778
-12.007756
0.048048827
-11.075232
0.04524839
-10.238952
0.042155316
-9.4787521
0.039488544
-8.7585095
0.036841289
-8.1075991
0.034356144
-7.5033866
0.03203436
-6.9446259
0.029785032
-6.4321282
0.027700239
-5.9583315
0.025753256
-5.5210174
0.023884216
-5.1152076
0.0220964
-4.7407078
0.020469494
-4.3952473
0.018946989
-4.0765021
0.017401817
-3.7817366
0.015901554
-3.5111033
0.01454035
-3.2589839
0.013239141
-3.0251785
0.011970742
-2.8090159
0.010808865
-2.6089222
0.0096933868
-2.42297
0.0086027619
-2.2512
0.0075489732
-2.0916319
0.0065749867
-1.9435778
0.0056524208
-1.8071905
0.0047665797
-1.6804071
0.0039140515
-1.562838
0.0031022143
-1.4536742
-1.3525404
0.211126
-55.122208
0.19453874
-51.213722
0.18090841
-47.042833
0.16687731
-43.421557
0.15568977
-40.022122
0.14423371
-36.880954
0.13499808
-34.019783
0.12776789
-31.364554
0.12327261
-28.951015
0.11985803
-26.749378
0.11374816
-24.742018
0.10248005
-22.863157
0.085823139
-21.042342
0.072120319
-19.274878
0.071045638
-17.771655
0.070827035
-16.477968
0.065951095
-15.256455
0.060584043
-14.032023
0.057887386
-12.963213
0.054023559
-12.003553
0.050289479
-11.072199
0.047337735
-10.235448
0.04409312
-9.4756624
0.041285067
-8.7556979
0.038507893
-8.1047829
0.035907427
-7.5008802
0.033475656
-6.942199
0.031108218
-6.4298048
0.028917738
-5.9561009
0.026890277
-5.5188972
0.024935295
-5.1132524
0.02306771
-4.7388729
0.021364257
-4.3934233
0.019779249
-4.0747331
0.018174511
-3.7800616
0.016616708
-3.509565
0.01520443
-3.2575763
0.013856713
-3.0237883
0.012541543
-2.8076547
0.011334455
-2.6076822
0.010180828
-2.4218054
0.0090549852
-2.2500746
0.00797106
-2.0905344
0.0069723979
-1.9425831
0.0060238453
-1.8062807
0.005110722
-1.6795451
0.0042391132
-1.5620129
0.0034093257
-1.4528879
-1.3517992
0.22225824
-55.101982
0.20477276
-51.198557
0.19039835
-47.027581
0.17561507
-43.40796
0.16379625
-40.009308
0.15171007
-36.868947
0.14191976
-34.008559
0.1342069
-31.353984
0.12933114
-28.940768
0.12563572
-26.739484
0.11926028
-24.733036
0.10760683
-22.856173
0.090366269
-21.037727
0.075957426
-19.271162
0.074551896
-17.764429
0.074271806
-16.471759
0.06919711
-15.251656
0.063526709
-14.028581
0.060652132
-12.958915
0.0565969
-11.99914
0.052664828
-11.068949
0.049554048
-10.231769
0.046150221
-9.47239
0.043192565
-8.7527412
0.040272694
-8.1018227
0.037534833
-7.4982359
0.034977671
-6.9396488
0.032506668
-6.4273797
0.030223838
-5.9537755
0.028091751
-5.5166686
0.026048493
-5.1112089
0.024096776
-4.7369595
0.022319167
-4.3915319
0.020657933
-4.0728868
0.018985444
-3.7783152
0.017369367
-3.5079628
0.015903252
-3.2561125
0.01450946
-3.0223511
0.013147132
-2.8062455
0.011895754
-2.6063944
0.010700915
-2.4205963
0.0095398484
-2.2489097
0.0084276408
-2.0894071
0.0074018092
-1.9415633
0.0064267286
-1.8053461
0.0054923012
-1.6786614
0.0045961332
-1.561162
0.0037433796
-1.4520775
-1.3510426
0.23402999
-55.080919
0.21559838
-51.181135
0.20043252
-47.011704
0.18485475
-43.393695
0.17236889
-39.995867
0.1596163
-36.856297
0.14923862
-33.996735
0.14101245
-31.342856
0.13573065
-28.929997
0.13173592
-26.72908
0.12508151
-24.723559
0.11302648
-22.848748
0.09517624
-21.032779
0.080025404
-19.2673
0.078263836
-17.756803
0.077920067
-16.465242
0.072637649
-15.246567
0.066640081
-14.024991
0.063582355
-12.954373
0.059327009
-11.9945
0.055181428
-11.065473
0.051905006
-10.227904
0.048333672
-9.468923
0.045218695
-8.7496318
0.042153956
-8.0987158
0.039288216
-7.4954625
0.036610348
-6.9369798
0.034010578
-6.4248275
0.03160801
-5.9513304
0.029386675
-5.5143463
0.027250164
-5.1090712
0.025208294
-4.7349635
0.023347094
-4.3895612
0.021616353
-4.0709734
0.019878297
-3.7764959
0.018198545
-3.5062914
0.016675727
-3.2545883
0.01523147
-3.0208636
0.013817903
-2.8047838
0.012516745
-2.6050536
0.011279961
-2.4193416
0.010080591
-2.2477028
0.0089360055
-2.0882466
0.0078826109
-1.9405191
0.0068789327
-1.8043844
0.00591434
-1.6777468
0.004996225
-1.5602882
0.0041250177
-1.4512474
0.0033061878
-1.3502617
-1.2561426
0.24647677
-55.05865
0.22704132
-51.162934
0.21103903
-46.994642
0.19462402
-43.37825
0.1814326
-39.981821
0.16797631
-36.842966
0.15697664
-33.984276
0.14820499
-31.331143
0.14248732
-28.918673
0.13816919
-26.718139
0.13122182
-24.713561
0.11875204
-22.840852
0.10028134
-21.02748
0.084356182
-19.263285
0.082195837
-17.748759
0.081774985
-16.458405
0.076276006
-15.24116
0.069933322
-14.021262
0.066685885
-12.94956
0.062219853
-11.989612
0.057848139
-11.061775
0.054398346
-10.223842
0.050650839
-9.4652481
0.047369567
-8.7463607
0.044147347
-8.0954501
0.04112954
-7.4925359
0.038311466
-6.9341736
0.035594866
-6.4221605
0.033092298
-5.9487837
0.03075612
-5.5119044
0.028519956
-5.1068343
0.026387633
-4.7328815
0.024443591
-4.3875158
0.02262814
-4.0689758
0.020814943
-3.7745983
0.019071063
-3.5045497
0.017489952
-3.253002
0.015994739
-3.0193243
0.014528927
-2.8032694
0.013178822
-2.6036602
0.011897562
-2.4180398
0.010659933
-2.2464535
0.0094834111
-2.0870535
0.0083999843
-1.9394477
0.0073669371
-1.8033943
0.0063789162
-1.6768081
0.0054350056
-1.5593873
0.0045382383
-1.4503899
0.0037029916
-1.3494633
-1.2553808
0.2596322
-55.035116
0.23913905
-51.144823
0.22225392
-46.977231
0.20495579
-43.361674
0.19101844
-39.967027
0.1768179
-36.828917
0.1651594
-33.971147
0.15580797
-31.318811
0.14962494
-28.90677
0.14496252
-26.706643
0.13770737
-24.703016
0.1248053
-22.832452
0.10568779
-21.021802
0.088947993
-19.2591
0.086357467
-17.740288
0.085858451
-16.451241
0.08013272
-15.235414
0.073416163
-14.017379
0.069975285
-12.944458
0.065288316
-11.984465
0.060673174
-11.057853
0.057043211
-10.219574
0.053109971
-9.461352
0.049653476
-8.742918
0.046270093
-8.0920224
0.043109954
-7.4894649
0.040158873
-6.9312369
0.037302305
-6.4193553
0.034665001
-5.9461021
0.032228428
-5.509357
0.029891444
-5.1044952
0.027657447
-4.7307073
0.025621765
-4.3853847
0.023728558
-4.0669043
0.021843557
-3.7726227
0.020029161
-3.5027309
0.018384708
-3.2513467
0.01683463
-3.0177299
0.015313003
-2.8016983
0.013909162
-2.602211
0.012581434
-2.4166889
0.011301703
-2.2451583
0.010090629
-2.0858245
0.0089761161
-1.9383482
0.0079113148
-1.8023738
0.0068902646
-1.6758359
0.0059209438
-1.5584597
0.0050046828
-1.4495113
0.0041459303
-1.34864
-1.2545974
0.27353104
-55.010516
0.25191224
-51.126311
0.23409323
-46.959089
0.21585457
-43.344643
0.20112161
-39.951571
0.18613013
-36.814106
0.17376906
-33.957305
0.16379697
-31.305824
0.15711084
-28.894247
0.15207214
-26.694562
0.14448902
-24.691898
0.13113666
-22.823521
0.11135786
-21.015724
0.09376909
-19.254727
0.090697681
-17.731373
0.090098917
-16.443728
0.08413432
-15.22929
0.07703088
-14.013328
0.073380403
-12.939054
0.068457592
-11.979045
0.063585315
-11.05371
0.059763161
-10.215084
0.055633031
-9.4572197
0.051989791
-8.7392906
0.048431194
-8.0884202
0.04510173
-7.4862225
0.041992402
-6.9281443
0.039002076
-6.4164184
0.03625431
-5.9433084
0.033691756
-5.5066779
0.031240956
-5.1020433
0.028907959
-4.7284382
0.02677862
-4.3831696
0.024790974
-4.0647401
0.022821323
-3.7705608
0.020934576
-3.5008335
0.019224823
-3.2496204
0.017617135
-3.0160763
0.016037552
-2.8000694
0.014579004
-2.6007051
0.013201359
-2.4152859
0.01187858
-2.2438152
0.010630469
-2.084558
0.0094808469
-1.9372166
0.0083818096
-1.801321
0.0073336974
-1.6748363
0.0063364692
-1.5575025