/*--------------------------------*- C++ -*----------------------------------*\
| =========                 |                                                 |
| \\      /  F ield         | OpenFOAM: The Open Source CFD Toolbox           |
|  \\    /   O peration     | Version:  2506                                  |
|   \\  /    A nd           | Website:  www.openfoam.com                      |
|    \\/     M anipulation  |                                                 |
\*---------------------------------------------------------------------------*/
FoamFile
{
    version     2.0;
    format      ascii;
    arch        "LSB;label=32;scalar=64";
    class       volScalarField;
    location    "0.0105";
    object      rho;
}
// * * * * * * * * * * * * * * * * * * * * * * * * * * * * * * * * * * * * * //

dimensions      [1 -3 0 0 0 0 0];

internalField   nonuniform List<scalar> 
13761
(
0.66477093
0.66477198
0.66477212
0.6647722
0.66477226
0.66477222
0.66477253
0.66477296
0.66654361
0.66477307
0.6665424
0.66477322
0.66654125
0.66477378
0.6665408
0.66477438
0.66654064
0.6647745
0.66654039
0.66477457
0.66654009
0.66477325
0.66653992
0.66477125
0.66522704
0.6665399
0.66477032
0.66522677
0.66654016
0.66477018
0.66522651
0.66654066
0.66477075
0.66522637
0.66654069
0.6647711
0.66522637
0.66654109
0.66477074
0.66522613
0.6665434
0.66477047
0.66522578
0.66654492
0.66477076
0.66560341
0.66522565
0.66654515
0.66477135
0.66560318
0.66522556
0.66654368
0.66477226
0.66560317
0.66522531
0.66654223
0.66477275
0.6656033
0.66522518
0.66654123
0.66477285
0.66560368
0.66522543
0.66654018
0.66477292
0.66560427
0.6652259
0.66653915
0.66477298
0.66560557
0.66522646
0.66653832
0.66560664
0.66522669
0.66653788
0.66518686
0.66560695
0.66522632
0.66653765
0.66518692
0.6656066
0.66522583
0.66653749
0.66518701
0.66560598
0.66522541
0.66653743
0.66518715
0.66560569
0.66522516
0.66653751
0.66518732
0.6656057
0.66522529
0.66653769
0.66518746
0.66560599
0.66522577
0.6665376
0.66518754
0.66560638
0.66522652
0.6665375
0.66518759
0.66560678
0.66522697
0.66517176
0.66518761
0.66560693
0.66522686
0.66517189
0.66518762
0.66560768
0.66522673
0.66517201
0.66518762
0.66560887
0.66522722
0.66517212
0.6651877
0.66560941
0.66522783
0.66517224
0.66518791
0.66560927
0.66522798
0.66517236
0.66518815
0.66560869
0.66522761
0.66517248
0.66518835
0.66560839
0.66522709
0.66509934
0.6651726
0.66518853
0.6656084
0.66522667
0.66509939
0.66517272
0.66518871
0.6656086
0.66509944
0.66517284
0.66518883
0.66560926
0.66509949
0.66517296
0.66518884
0.66561018
0.66509954
0.66517308
0.66518873
0.66561194
0.66509959
0.6651732
0.6651886
0.66561353
0.66509964
0.66517331
0.66518852
0.66561406
0.66508473
0.66509969
0.66517342
0.66518857
0.66561383
0.66508475
0.66509974
0.66517353
0.66518873
0.66561288
0.66508477
0.66509979
0.66517364
0.66518895
0.66561214
0.66508479
0.66509984
0.66517374
0.66518921
0.66508481
0.66509989
0.66517385
0.66518948
0.66508483
0.66509995
0.66517395
0.66518972
0.66508485
0.6651
0.66517406
0.66518992
0.66507489
0.66508487
0.66510006
0.66517417
0.66519007
0.6650749
0.66508489
0.66510011
0.66517428
0.66519016
0.66507491
0.66508491
0.66510017
0.6651744
0.66519017
0.66507492
0.66508493
0.66510022
0.66517453
0.66519013
0.66507493
0.66508495
0.66510028
0.66517465
0.66507493
0.66508497
0.66510034
0.66517479
0.66507494
0.66508499
0.66510039
0.66517492
0.66507183
0.66507495
0.66508501
0.66510045
0.66517505
0.66507184
0.66507496
0.66508503
0.66510051
0.66517517
0.66507184
0.66507497
0.66508505
0.66510057
0.6651753
0.66507185
0.66507498
0.66508507
0.66510062
0.66517542
0.66507186
0.66507499
0.66508509
0.66510068
0.66517554
0.66507186
0.665075
0.6650851
0.66510074
0.66517565
0.66507187
0.66507501
0.66508512
0.66510079
0.66506944
0.66507188
0.66507501
0.66508514
0.66510085
0.66506949
0.66507188
0.66507502
0.66508516
0.66510091
0.66506954
0.66507189
0.66507503
0.66508518
0.66510097
0.66506959
0.66507189
0.66507504
0.6650852
0.66510103
0.66506965
0.6650719
0.66507504
0.66508522
0.66510109
0.6650697
0.6650719
0.66507505
0.66508524
0.66510115
0.66505542
0.66506975
0.66507191
0.66507506
0.66508526
0.66510121
0.66505581
0.6650698
0.66507191
0.66507507
0.66508528
0.66510127
0.66505621
0.66506984
0.66507192
0.66507507
0.6650853
0.66505659
0.66506989
0.66507192
0.66507508
0.66508532
0.66505698
0.66506994
0.66507193
0.66507508
0.66508534
0.66505735
0.66506998
0.66507193
0.66507509
0.66508536
0.66505773
0.66507003
0.66507194
0.6650751
0.66508539
0.66498634
0.6650581
0.66507007
0.66507194
0.6650751
0.66508541
0.66498815
0.66505846
0.66507011
0.66507194
0.66507511
0.66508543
0.66498995
0.66505882
0.66507015
0.66507195
0.66507512
0.66508545
0.66499172
0.66505917
0.66507019
0.66507195
0.66507513
0.66499348
0.66505952
0.66507023
0.66507196
0.66507514
0.66499521
0.66505986
0.66507027
0.66507196
0.66507514
0.66473372
0.66499693
0.6650602
0.66507031
0.66507196
0.66507515
0.66473947
0.66499862
0.66506053
0.66507034
0.66507197
0.66507516
0.6647452
0.6650003
0.66506086
0.66507038
0.66507197
0.66507517
0.6647509
0.66500195
0.66506118
0.66507041
0.66507197
0.66507517
0.66475657
0.66500359
0.6650615
0.66507044
0.66507198
0.66507518
0.66476221
0.66500521
0.66506181
0.66507047
0.66507198
0.66408285
0.66476781
0.66500681
0.66506212
0.6650705
0.66507198
0.66409681
0.66477338
0.66500839
0.66506242
0.66507053
0.66507199
0.66411073
0.66477892
0.66500995
0.66506272
0.66507056
0.66507199
0.66412457
0.66478442
0.66501149
0.66506301
0.66507059
0.66507199
0.66413834
0.66478989
0.66501302
0.66506329
0.66507062
0.665072
0.66263573
0.66415202
0.66479532
0.66501452
0.66506357
0.66507065
0.665072
0.66266438
0.66416564
0.66480072
0.66501601
0.66506385
0.66507067
0.665072
0.66269302
0.66417917
0.66480608
0.66501747
0.66506412
0.6650707
0.66272154
0.66419263
0.66481141
0.66501892
0.66506439
0.66507072
0.66274997
0.66420601
0.6648167
0.66502035
0.66506465
0.66507074
0.6627783
0.66421932
0.66482195
0.66502176
0.6650649
0.66507077
0.66006479
0.66280653
0.66423254
0.66482717
0.66502315
0.66506516
0.66507079
0.66011169
0.66283467
0.66424569
0.66483234
0.66502452
0.6650654
0.66507081
0.6601587
0.66286272
0.66425875
0.66483748
0.66502588
0.66506564
0.66507083
0.66020563
0.66289067
0.66427174
0.66484257
0.66502721
0.66506588
0.66507085
0.66025255
0.66291851
0.66428465
0.66484762
0.66502853
0.66506611
0.65635523
0.66029943
0.66294625
0.66429747
0.66485263
0.66502982
0.66506634
0.65641369
0.66034627
0.66297388
0.66431022
0.66485759
0.6650311
0.66506656
0.65647249
0.66039305
0.6630014
0.66432288
0.66486251
0.66503236
0.66506678
0.65653143
0.66043978
0.6630288
0.66433546
0.66486739
0.6650336
0.66506699
0.65659056
0.66048645
0.66305609
0.66434796
0.66487221
0.66503483
0.6650672
0.65255913
0.65664987
0.66053306
0.66308325
0.66436037
0.66487699
0.66503603
0.6650674
0.6526049
0.65670934
0.6605796
0.66311028
0.66437271
0.66488173
0.66503722
0.65265145
0.65676899
0.66062607
0.66313719
0.66438496
0.66488642
0.66503839
0.65269859
0.65682876
0.66067246
0.66316396
0.66439713
0.66489106
0.66503953
0.65060509
0.65274641
0.65688867
0.66071877
0.6631906
0.66440921
0.66489565
0.66504066
0.65060467
0.65279485
0.65694871
0.66076499
0.66321711
0.6644212
0.6649002
0.66504178
0.6506054
0.65284396
0.65700887
0.66081112
0.66324348
0.66443311
0.66490471
0.66504287
0.65060731
0.65289374
0.65706915
0.66085715
0.66326971
0.66444493
0.66490916
0.66504395
0.65061039
0.6529442
0.65712958
0.6609031
0.66329581
0.66445666
0.66491357
0.66504501
0.65194576
0.65061461
0.65299534
0.65719015
0.66094895
0.66332176
0.6644683
0.66491794
0.65187647
0.65061999
0.65304716
0.65725086
0.66099471
0.66334757
0.66447985
0.66492226
0.65180885
0.65062652
0.65309962
0.6573117
0.66104036
0.66337322
0.66449132
0.66492653
0.65174323
0.65063423
0.65315274
0.65737266
0.66108589
0.66339874
0.66450269
0.66493076
0.65671369
0.65167952
0.6506431
0.65320646
0.65743371
0.6611313
0.6634241
0.66451398
0.66493494
0.65656479
0.65161775
0.65065315
0.65326076
0.65749484
0.66117658
0.6634493
0.66452518
0.66493907
0.65641671
0.6515579
0.65066436
0.65331559
0.65755601
0.66122172
0.66347436
0.6645363
0.66494314
0.65627021
0.65150002
0.65067671
0.65337093
0.65761724
0.66126675
0.66349926
0.66454733
0.66201543
0.6561254
0.65144411
0.65069017
0.65342675
0.6576785
0.66131163
0.66352401
0.66455828
0.66185912
0.65598271
0.65139022
0.65070471
0.65348305
0.65773979
0.66135637
0.6635486
0.66456916
0.66170012
0.65584243
0.65133833
0.6507203
0.65353986
0.65780112
0.66140096
0.66357304
0.66457996
0.66153906
0.65570473
0.6512884
0.65073696
0.65359717
0.65786249
0.66144539
0.66359732
0.66459069
0.66411401
0.66137615
0.65556954
0.65124035
0.65075469
0.65365497
0.65792387
0.66148966
0.66362143
0.66460135
0.66408002
0.66121191
0.65543663
0.65119412
0.65077353
0.65371324
0.65798527
0.66153378
0.66364539
0.66461194
0.66404052
0.66104682
0.65530567
0.65114966
0.65079351
0.65377193
0.65804668
0.66157776
0.66366919
0.66399565
0.66088133
0.65517637
0.65110694
0.65081469
0.65383104
0.6581081
0.66162157
0.66369283
0.66258378
0.66394547
0.66071562
0.65504863
0.65106594
0.65083707
0.65389057
0.65816951
0.66166523
0.66371631
0.66265292
0.66389007
0.66054957
0.65492255
0.65102669
0.65086061
0.65395053
0.65823092
0.66170871
0.66373962
0.66272332
0.66382951
0.66038284
0.65479834
0.65098917
0.65088524
0.65401093
0.65829234
0.66175202
0.66376277
0.66279465
0.66376391
0.66021497
0.65467628
0.65095338
0.65091093
0.65407176
0.65835375
0.66179515
0.66378575
0.66083677
0.66286664
0.66369351
0.6600456
0.65455653
0.65091927
0.65093762
0.65413298
0.65841516
0.6618381
0.66380857
0.66083925
0.66293903
0.66361808
0.65987487
0.65443922
0.65088683
0.6509653
0.65419457
0.65847654
0.66188086
0.66084538
0.66301183
0.66353713
0.6597032
0.65432427
0.65085604
0.65099398
0.6542565
0.65853787
0.66192344
0.66107975
0.66085483
0.66308484
0.66345055
0.65953106
0.65421157
0.65082691
0.65102366
0.65431876
0.65859912
0.66196582
0.66100674
0.66086729
0.66315754
0.66335863
0.65935881
0.65410099
0.65079942
0.65105434
0.65438138
0.6586603
0.66200801
0.66093398
0.66088254
0.66322922
0.66326159
0.65918675
0.6539925
0.65077358
0.65108603
0.65444436
0.6587214
0.66204999
0.66253087
0.66086192
0.66090069
0.66329919
0.66315955
0.65901499
0.65388614
0.65074937
0.65111869
0.65450767
0.65878244
0.66209179
0.66249211
0.66079062
0.66092187
0.66336672
0.66305275
0.65884347
0.65378205
0.65072681
0.65115231
0.65457129
0.6588434
0.66245047
0.66072019
0.66094628
0.66343124
0.66294141
0.65867217
0.65368032
0.6507059
0.65118688
0.65463518
0.65890429
0.66216027
0.66240626
0.66065071
0.6609742
0.66349219
0.6628257
0.65850132
0.65358098
0.65068664
0.65122242
0.65469933
0.65896509
0.66220187
0.66235952
0.66058243
0.66100609
0.66354918
0.66270576
0.65833137
0.65348396
0.650669
0.6512589
0.65476373
0.65902581
0.66224235
0.6623103
0.66051555
0.66104228
0.66360205
0.66258172
0.65816282
0.65338918
0.65065295
0.65129632
0.65482839
0.65908644
0.6608835
0.66228116
0.66225855
0.66045033
0.661083
0.66365066
0.66245385
0.657996
0.65329655
0.65063843
0.65133463
0.6548933
0.65914697
0.66089394
0.66231808
0.66220403
0.66038699
0.6611284
0.66369479
0.66232247
0.65783109
0.65320605
0.65062539
0.65137381
0.65495845
0.65920739
0.66071464
0.66090491
0.6623527
0.66214653
0.66032576
0.66117849
0.66373405
0.66218771
0.6576681
0.65311764
0.65061381
0.65141383
0.65502383
0.66070995
0.66091676
0.6623848
0.66208575
0.66026687
0.66123309
0.66376793
0.66204964
0.65750697
0.65303135
0.65060367
0.65145469
0.65508944
0.66070601
0.66093002
0.66241459
0.66202136
0.66021057
0.66129195
0.66379569
0.66190817
0.65734761
0.65294717
0.65059498
0.6514964
0.65515525
0.66032019
0.66070292
0.66094451
0.6624423
0.6619529
0.66015716
0.66135485
0.66381737
0.66176324
0.65718995
0.65286515
0.65058775
0.65153893
0.65522124
0.66031876
0.66070071
0.66096036
0.66246786
0.66188002
0.66010705
0.6614216
0.66383314
0.66161482
0.65703396
0.6527853
0.65058198
0.65158227
0.65528741
0.65979211
0.66031905
0.66069943
0.66097751
0.6624915
0.66180253
0.66006025
0.66149212
0.66384329
0.66146302
0.65687966
0.65270767
0.65057766
0.65162639
0.65535373
0.65979378
0.66032071
0.66069903
0.66099618
0.66251375
0.66172082
0.6600164
0.6615664
0.6638474
0.66130802
0.6567271
0.65263226
0.65057477
0.65167129
0.6597957
0.66032363
0.6606994
0.66101663
0.66253452
0.6616357
0.65997524
0.66164447
0.66384579
0.66115016
0.65657634
0.65255906
0.6505733
0.65171696
0.65925058
0.65979756
0.66032761
0.66070022
0.66103917
0.66255326
0.66154794
0.65993669
0.66172629
0.66383868
0.66098971
0.6564274
0.65248807
0.65057319
0.65176338
0.65924467
0.65979959
0.66033267
0.66070138
0.66106411
0.66256955
0.66145774
0.65990051
0.66181172
0.66382593
0.66082684
0.6562804
0.6524193
0.65057447
0.65181053
0.65867263
0.65923819
0.65980157
0.66033868
0.66070309
0.66109143
0.66258302
0.66136537
0.6598667
0.66190053
0.66380729
0.66066158
0.65613546
0.65235279
0.65057713
0.65185838
0.65866567
0.65923108
0.6598036
0.66034563
0.66070579
0.6611208
0.6625929
0.66127158
0.65983544
0.66199241
0.66378253
0.66049402
0.65599265
0.65228861
0.65058108
0.65190691
0.65813332
0.65865785
0.65922379
0.65980561
0.66035332
0.66070983
0.66115198
0.66259856
0.66117704
0.65980683
0.66208691
0.6637515
0.66032434
0.65585197
0.65222681
0.65058634
0.65814026
0.65865021
0.65921708
0.65980786
0.66036168
0.66071527
0.66118464
0.66260039
0.66108217
0.65978099
0.66218346
0.66371419
0.66015292
0.65571346
0.65216744
0.65059289
0.65758765
0.65814362
0.65864337
0.65921153
0.65981044
0.66037059
0.66072189
0.66121838
0.66259861
0.66098744
0.65975821
0.66228149
0.66367047
0.65998028
0.65557706
0.65211049
0.6506007
0.65693143
0.65759632
0.65814195
0.65863742
0.65920785
0.65981379
0.66038006
0.66072923
0.66125255
0.66259263
0.66089327
0.65973883
0.66238056
0.66362006
0.65980704
0.65544274
0.65205591
0.65060975
0.65694153
0.65760458
0.65813549
0.65863222
0.6592063
0.659818
0.66039011
0.66073691
0.66128643
0.66258294
0.66080009
0.65972323
0.66248025
0.66356273
0.65963357
0.65531036
0.65200363
0.65062
0.65623184
0.65695091
0.65760968
0.65812577
0.65862764
0.65920711
0.65982343
0.66040069
0.6607446
0.66131931
0.66256954
0.6607082
0.65971188
0.6625801
0.66349852
0.6594601
0.65517982
0.65195357
0.65063144
0.65554463
0.65624083
0.65695969
0.65760861
0.65811432
0.6586236
0.6592101
0.65983019
0.66041171
0.66075201
0.66135063
0.6625524
0.66061787
0.65970509
0.66267959
0.66342755
0.65928671
0.65505098
0.65190563
0.65555428
0.65625042
0.65696894
0.65759921
0.65810178
0.65862048
0.65921523
0.65983822
0.66042302
0.66075892
0.66138005
0.6625314
0.66052928
0.65970243
0.66277825
0.66334998
0.65911352
0.6549238
0.65185976
0.65489241
0.65556376
0.65625976
0.65697146
0.65758158
0.6580889
0.65861893
0.65922203
0.65984753
0.66043452
0.66076539
0.66140735
0.66250647
0.66044244
0.659705
0.6628755
0.66326602
0.65894057
0.65479833
0.6518159
0.65423875
0.65490018
0.65557818
0.65627244
0.65696192
0.65755647
0.65807724
0.65861987
0.65923024
0.65985816
0.66044609
0.66077165
0.66143243
0.66247746
0.66035732
0.65971289
0.66297079
0.66317593
0.65876802
0.6546748
0.65177402
0.65360983
0.65424434
0.65491421
0.65559493
0.65627967
0.65693872
0.65752589
0.65806835
0.65862383
0.65923936
0.65986987
0.66045769
0.66077796
0.66145562
0.66244428
0.66027387
0.65972632
0.66306352
0.66307989
0.658596
0.65455347
0.65173412
0.65361139
0.65425286
0.65493377
0.65561648
0.65627204
0.65690243
0.65749257
0.65806269
0.65863093
0.65924928
0.65988251
0.66046925
0.66078438
0.66147681
0.66240678
0.66019194
0.65974554
0.66315313
0.66297811
0.65842468
0.6544347
0.65301505
0.65361531
0.65426848
0.65495851
0.65562822
0.65624519
0.65685681
0.65746029
0.65805939
0.6586404
0.65925973
0.65989587
0.66048074
0.66079108
0.66149702
0.6623648
0.66011148
0.65977117
0.66323903
0.66287078
0.65825408
0.6543188
0.65245049
0.65301348
0.65362643
0.65429176
0.65498151
0.65561973
0.65620013
0.6568049
0.6574345
0.65805795
0.65865133
0.6592708
0.6599098
0.66049219
0.66079834
0.66151605
0.6623182
0.66003269
0.65980358
0.66332073
0.66275816
0.65808422
0.65420604
0.65189637
0.65244298
0.65302053
0.6536509
0.65432069
0.65498556
0.65558457
0.65614156
0.65675205
0.65741867
0.65805888
0.65866281
0.65928251
0.65992415
0.66050367
0.6608065
0.66153425
0.66226692
0.65995603
0.65984262
0.6633978
0.66264048
0.65791504
0.65409653
0.65087936
0.65137174
0.65189348
0.65245438
0.6530465
0.65368218
0.6543346
0.65496122
0.65552645
0.6560746
0.65670712
0.65741241
0.65806342
0.65867472
0.65929519
0.65993877
0.66051518
0.66081558
0.66155153
0.66221085
0.65988186
0.65988819
0.66347012
0.66251783
0.65774653
0.65399028
0.65041373
0.65087653
0.65138479
0.65191755
0.6524851
0.65307462
0.65369769
0.65431927
0.65490788
0.65545295
0.65600903
0.65667732
0.65741293
0.65807161
0.65868679
0.65930899
0.65995364
0.66052668
0.66082531
0.66156777
0.66214989
0.65981044
0.65994018
0.6635376
0.66239021
0.65757864
0.6538871
0.65000553
0.65040736
0.65089164
0.65141022
0.65194601
0.65250887
0.65308387
0.65368123
0.65426904
0.65483253
0.65537535
0.65595644
0.65666519
0.65741738
0.65808244
0.65869859
0.65932391
0.65996877
0.66053807
0.66083559
0.66158265
0.66208394
0.65974189
0.65999838
0.66360026
0.66225782
0.6574115
0.64929417
0.64967096
0.64998176
0.65039341
0.65089678
0.65142105
0.65195423
0.65250473
0.65305647
0.65362538
0.65419003
0.65474575
0.65530721
0.65592478
0.6566665
0.65742409
0.6580943
0.65870952
0.65933995
0.6599843
0.66054939
0.66084626
0.66159607
0.66201307
0.65967618
0.66006244
0.66365812
0.66212085
0.65724524
0.64869291
0.64919309
0.64959871
0.64992182
0.6503562
0.65086872
0.65139422
0.65192161
0.65245656
0.65298722
0.65353699
0.65409587
0.65466369
0.6552592
0.65591564
0.65667426
0.65743251
0.6581057
0.65871938
0.65935674
0.66000018
0.66056059
0.66085705
0.66160792
0.66193751
0.65961316
0.66013197
0.66371077
0.66197959
0.6570801
0.64784826
0.64813914
0.64853888
0.64904628
0.64947018
0.64982359
0.65028413
0.65079591
0.65132293
0.65184262
0.65236367
0.6528841
0.6534322
0.65400082
0.65459841
0.65523684
0.6559222
0.65668342
0.65744214
0.65811596
0.65872833
0.65937371
0.66001639
0.66057167
0.6608676
0.6616183
0.66185767
0.65955266
0.66020655
0.66375804
0.66183434
0.65691626
0.64700189
0.64721988
0.6474162
0.64770099
0.64798691
0.64837769
0.64887324
0.64930677
0.64970083
0.65017978
0.65068759
0.65121138
0.65172527
0.65224303
0.65276744
0.6533266
0.65392021
0.65455815
0.6552361
0.65593612
0.65669174
0.65745258
0.65812613
0.6587368
0.65939057
0.66003278
0.66058258
0.66087754
0.66162726
0.66177401
0.65949464
0.66028579
0.66379926
0.66168545
0.65675387
0.64637282
0.64651825
0.64668157
0.64689732
0.64712449
0.64732063
0.64757527
0.64785341
0.64821944
0.6486858
0.64912382
0.64956643
0.65005858
0.65056096
0.65108022
0.65159218
0.6521162
0.65265413
0.65323554
0.65386288
0.65454428
0.65524785
0.65595055
0.65669886
0.65746222
0.65813714
0.65874559
0.65940758
0.6600493
0.66059337
0.66088644
0.66163493
0.66168698
0.65943916
0.66036923
0.66383461
0.6615332
0.64581645
0.64595538
0.64610259
0.64625215
0.64640378
0.64657497
0.64680063
0.64704087
0.64725046
0.64747994
0.64775161
0.64808508
0.64850321
0.64893637
0.64943063
0.6499341
0.65043374
0.65094819
0.65146297
0.6520011
0.65255772
0.65316773
0.65383461
0.65454936
0.65526342
0.65596143
0.65670559
0.65746985
0.65814876
0.65875577
0.65942494
0.66006584
0.66060392
0.66089407
0.6616415
0.66159696
0.6593864
0.66045643
0.66386445
0.6613779
0.64523477
0.64531054
0.64540541
0.64549412
0.64554249
0.64560767
0.64570791
0.64584442
0.64598593
0.64612985
0.64628823
0.6464689
0.64670347
0.64696023
0.64719583
0.64741242
0.64768179
0.64798936
0.6483472
0.64877052
0.64930175
0.64981682
0.65031932
0.65082928
0.65135187
0.65190647
0.65248599
0.65312884
0.65383033
0.65456221
0.655276
0.65596915
0.65671238
0.65747557
0.6581599
0.65876841
0.659443
0.66008217
0.66061407
0.66090053
0.66164729
0.66150431
0.65933669
0.66054699
0.66388836
0.66121985
0.64476642
0.64479422
0.64483117
0.64487299
0.6449007
0.6449402
0.64499566
0.64503441
0.64506906
0.64509888
0.64517667
0.6452684
0.64535731
0.64541517
0.64549093
0.64560045
0.64573491
0.64587073
0.64600782
0.64617079
0.64635932
0.64660204
0.6468742
0.64714108
0.6473618
0.64763517
0.64793496
0.64823191
0.64863694
0.64918886
0.64971551
0.65022308
0.65073104
0.65126515
0.65183847
0.65244251
0.65311594
0.65383844
0.65457427
0.65528354
0.65597593
0.65671907
0.6574805
0.65816984
0.6587842
0.6594619
0.66009802
0.6606233
0.66090602
0.66165268
0.66140917
0.65929041
0.66064056
0.66390613
0.66105945
0.63551525
0.63551522
0.63551534
0.63551565
0.63551629
0.63551705
0.63551779
0.63551809
0.63551776
0.63551658
0.6355145
0.63551149
0.63550755
0.63550271
0.63549698
0.63549036
0.63548287
0.6354745
0.63546525
0.6354551
0.63544401
0.63543197
0.63541891
0.6354048
0.63538956
0.63537314
0.63535547
0.63533646
0.63531605
0.63529415
0.63527068
0.63524559
0.63521881
0.63519028
0.63515996
0.63512782
0.63509382
0.63505794
0.63502014
0.6349804
0.63493865
0.6348948
0.63484873
0.63480027
0.63474922
0.63469535
0.63463852
0.63457876
0.63451665
0.63445395
0.63439581
0.63436277
0.63448335
0.63540674
0.63826335
0.64128537
0.64318143
0.6440714
0.64430644
0.64436533
0.64438551
0.64439392
0.6443918
0.64442194
0.64446035
0.64449231
0.6445178
0.64454232
0.64456981
0.64459264
0.64461822
0.64465642
0.64469442
0.64473431
0.6447639
0.64480336
0.6448615
0.64490154
0.64493867
0.6449721
0.64504672
0.64513203
0.64522027
0.64528987
0.64537629
0.64549548
0.64562855
0.64575797
0.64588884
0.64605377
0.64624835
0.64649538
0.64677573
0.64707368
0.64731535
0.64759692
0.64790718
0.64816441
0.64855025
0.64910132
0.64963633
0.65014955
0.65065708
0.65120684
0.65179905
0.65242432
0.65311802
0.65384812
0.65458097
0.6552879
0.65598288
0.65672515
0.65748588
0.65817759
0.6588036
0.65948178
0.66011324
0.66063192
0.66091054
0.66165793
0.6613118
0.65924782
0.66073668
0.6639176
0.66089697
0.63543097
0.63543027
0.63542881
0.63542633
0.63542276
0.63541801
0.63541215
0.63540541
0.63539801
0.63539014
0.63538186
0.63537318
0.6353641
0.63535458
0.6353446
0.6353341
0.63532306
0.63531142
0.63529913
0.63528615
0.6352724
0.63525783
0.63524237
0.63522594
0.63520847
0.63518987
0.63517006
0.63514896
0.63512647
0.63510252
0.63507701
0.63504988
0.63502106
0.63499049
0.63495813
0.63492392
0.63488784
0.63484985
0.63480992
0.634768
0.63472401
0.63467785
0.63462937
0.63457838
0.63452466
0.63446798
0.63440816
0.63434531
0.63428016
0.63421494
0.63415616
0.63412946
0.63428358
0.63541018
0.63814684
0.64099981
0.64291616
0.64394538
0.64428746
0.64435717
0.64437943
0.64436354
0.64435883
0.64438533
0.6444243
0.64445715
0.64445319
0.64444433
0.64445741
0.64448055
0.64450843
0.64453579
0.64455881
0.64459106
0.64462276
0.64466639
0.64472925
0.64477333
0.64481296
0.64484947
0.64492224
0.64500363
0.64508839
0.64516776
0.64526581
0.64539401
0.64552579
0.64564879
0.64577338
0.6459396
0.64614194
0.6463893
0.64666707
0.64698867
0.64725975
0.64755271
0.64788818
0.64813398
0.64850656
0.64904176
0.64958153
0.65009672
0.6506083
0.65117465
0.6517823
0.65242079
0.65312316
0.65385265
0.65458255
0.65529197
0.65599052
0.65673005
0.6574928
0.65818391
0.65882649
0.65950239
0.66012764
0.66063953
0.66091387
0.66166302
0.66121267
0.65920912
0.66083495
0.66392199
0.63525191
0.63525219
0.63525252
0.63525266
0.63525201
0.63525036
0.63524728
0.63524292
0.63523739
0.63523099
0.63522386
0.63521611
0.63520778
0.63519892
0.63518951
0.63517955
0.635169
0.63515784
0.63514602
0.63513351
0.63512025
0.63510619
0.63509126
0.63507541
0.63505855
0.63504062
0.63502153
0.63500121
0.63497959
0.63495658
0.6349321
0.63490609
0.6348785
0.63484925
0.63481832
0.63478565
0.63475121
0.63471496
0.63467686
0.63463684
0.63459479
0.63455056
0.63450397
0.63445481
0.63440281
0.63434753
0.63428875
0.63422646
0.63416118
0.63409463
0.63403183
0.63399202
0.6341062
0.63515947
0.63779468
0.64053986
0.64254297
0.64373594
0.64417086
0.64425264
0.64428019
0.64427872
0.64427718
0.64429963
0.6443358
0.64435652
0.64434697
0.64432765
0.6443307
0.64434593
0.64437051
0.64439345
0.64441369
0.64444625
0.6444811
0.64452784
0.64459529
0.64464387
0.64468959
0.64473418
0.64480739
0.64488388
0.6449624
0.64505122
0.64516146
0.6452965
0.64542493
0.64554286
0.64566482
0.64583239
0.64604119
0.64628602
0.6465547
0.64688796
0.64718699
0.64749516
0.64785988
0.64812398
0.64849149
0.64900284
0.64954123
0.65005577
0.65057855
0.65115934
0.65177598
0.6524199
0.65312401
0.65385007
0.65458168
0.65529743
0.65599788
0.65673426
0.6575009
0.6581893
0.6588524
0.65952357
0.66014119
0.66064624
0.66091601
0.66166767
0.66111232
0.65917457
0.66093494
0.66391935
0.6351362
0.63513652
0.63513712
0.63513789
0.6351386
0.63513898
0.63513876
0.63513772
0.63513582
0.63513307
0.63512953
0.63512523
0.6351202
0.63511446
0.63510802
0.63510087
0.63509298
0.63508434
0.63507491
0.63506467
0.63505356
0.63504153
0.63502853
0.63501448
0.63499931
0.63498294
0.63496529
0.63494627
0.63492579
0.63490375
0.63488008
0.63485467
0.63482746
0.63479836
0.63476731
0.63473425
0.63469911
0.63466184
0.63462237
0.63458057
0.63453632
0.6344894
0.63443957
0.6343866
0.63433023
0.63427051
0.63420728
0.63414046
0.63407044
0.63399871
0.63392967
0.63387951
0.63395881
0.63491756
0.6374586
0.64007077
0.64218536
0.64351334
0.6440592
0.6441657
0.64418998
0.64418289
0.64416598
0.64416559
0.64418252
0.64420146
0.64419512
0.6441729
0.6441719
0.64419326
0.64422401
0.64425766
0.64427715
0.64430515
0.6443399
0.64438522
0.64445448
0.64450886
0.64456484
0.64462045
0.64469357
0.64476464
0.64484103
0.64494127
0.6450619
0.64520268
0.64532623
0.64543983
0.64556424
0.64573358
0.64594386
0.64618563
0.64644731
0.64678004
0.64709894
0.64742066
0.64781158
0.64811932
0.64849279
0.64897365
0.64950374
0.65001889
0.65055756
0.65114799
0.65176829
0.65241413
0.65311726
0.65384288
0.65458261
0.65530438
0.65600288
0.65673926
0.65750923
0.65819524
0.65888041
0.65954497
0.66015392
0.66065207
0.66091747
0.6616716
0.66101131
0.65914441
0.66103641
0.66390951
0.63503853
0.63503825
0.63503766
0.63503664
0.635035
0.63503249
0.63502897
0.63502438
0.63501884
0.63501246
0.63500535
0.63499754
0.6349891
0.63498002
0.63497032
0.63495997
0.63494895
0.63493722
0.63492475
0.63491149
0.63489736
0.63488231
0.63486627
0.63484914
0.63483084
0.63481128
0.63479035
0.63476796
0.634744
0.63471837
0.63469097
0.63466169
0.63463044
0.63459715
0.63456174
0.63452413
0.63448426
0.63444208
0.63439751
0.6343505
0.63430095
0.63424872
0.63419362
0.63413536
0.63407361
0.63400791
0.63393795
0.63386364
0.63378537
0.63370485
0.63362739
0.6335726
0.63367341
0.6347133
0.63685425
0.63927796
0.64171574
0.64335392
0.64400377
0.64412797
0.64413837
0.64410454
0.64408372
0.64408155
0.64409161
0.64410478
0.64408664
0.64405066
0.64404096
0.64406195
0.64409583
0.6441239
0.644133
0.64415314
0.64418856
0.6442346
0.6443047
0.64436457
0.64443023
0.644498
0.64457588
0.64464655
0.64472149
0.64483281
0.64496275
0.64510849
0.64522994
0.64534063
0.64547101
0.6456418
0.64585176
0.64609088
0.64634681
0.64667143
0.64700124
0.64733393
0.64774085
0.64810407
0.64849692
0.64894552
0.64946097
0.64997611
0.65053365
0.65113024
0.651753
0.65240152
0.65310496
0.65383708
0.65458766
0.65531037
0.65600589
0.6567455
0.65751575
0.6582034
0.65890986
0.6595664
0.66016602
0.66065733
0.66091641
0.66167394
0.66091033
0.6591187
0.66113906
0.66389222
0.63485719
0.63485782
0.63485904
0.63486072
0.63486242
0.63486377
0.63486414
0.63486321
0.63486079
0.634857
0.6348519
0.63484562
0.63483826
0.6348299
0.63482058
0.63481034
0.63479919
0.63478714
0.63477416
0.63476025
0.63474535
0.63472941
0.63471239
0.6346942
0.63467476
0.63465399
0.6346318
0.63460809
0.63458276
0.6345557
0.63452681
0.63449601
0.63446319
0.63442827
0.63439118
0.63435183
0.63431018
0.63426614
0.63421967
0.63417072
0.63411923
0.63406513
0.63400831
0.63394853
0.63388543
0.63381858
0.63374753
0.63367199
0.63359213
0.63350911
0.63342669
0.63335813
0.63342071
0.63426151
0.6360924
0.63869199
0.64138662
0.64318689
0.6438595
0.64397527
0.64398021
0.64395158
0.64391994
0.64390762
0.64391651
0.64392708
0.64391802
0.64389711
0.64389239
0.64391026
0.64393976
0.64396579
0.64397974
0.64400125
0.64403626
0.64407979
0.6441476
0.64421079
0.64428524
0.64436531
0.64444836
0.64452044
0.64459484
0.64471716
0.64485918
0.64500974
0.6451328
0.6452451
0.64538178
0.64555511
0.64576532
0.64600207
0.64625245
0.64656875
0.64690397
0.64724452
0.64765219
0.64806913
0.64849133
0.64891617
0.64940696
0.64992445
0.65050145
0.6511025
0.65173035
0.65238517
0.65309248
0.65383652
0.65459486
0.65531352
0.65600918
0.65675234
0.65751901
0.65821411
0.65894005
0.65958753
0.66017758
0.66066218
0.6609148
0.66167384
0.66081008
0.65909779
0.6612427
0.66386734
0.63474617
0.63474659
0.63474745
0.63474865
0.63475003
0.63475132
0.63475214
0.63475213
0.63475109
0.63474895
0.63474571
0.6347414
0.63473605
0.63472969
0.63472234
0.63471402
0.63470471
0.63469442
0.63468313
0.63467081
0.63465744
0.63464297
0.63462734
0.63461049
0.63459237
0.63457289
0.63455197
0.63452952
0.63450547
0.63447973
0.63445222
0.63442285
0.63439157
0.63435831
0.63432302
0.63428567
0.6342462
0.63420458
0.63416078
0.63411473
0.63406634
0.63401548
0.63396195
0.63390551
0.63384584
0.63378257
0.63371535
0.63364387
0.63356815
0.63348888
0.63340837
0.63333321
0.63333143
0.63397661
0.63577027
0.63845827
0.64122168
0.64299908
0.64364861
0.64376535
0.64377489
0.64374422
0.64371561
0.64370143
0.64370413
0.64371208
0.64371561
0.64370689
0.64371208
0.64373636
0.64377139
0.6438092
0.64382857
0.64385057
0.64388562
0.64392365
0.64398547
0.64405021
0.64413169
0.64422144
0.64430577
0.64437952
0.64445727
0.644591
0.64474435
0.64489994
0.64502758
0.64514717
0.64529249
0.64547229
0.64568399
0.64591816
0.6461652
0.64647387
0.64681107
0.64715898
0.64755488
0.6480145
0.64847119
0.64888482
0.64934446
0.64986641
0.65046204
0.65106803
0.65170511
0.65236989
0.65308506
0.65384086
0.65460035
0.6553141
0.65601421
0.65675835
0.65751769
0.65822951
0.65897082
0.65960809
0.66018868
0.66066656
0.66091211
0.66167212
0.66071102
0.65908203
0.66134706
0.63465231
0.63465182
0.63465076
0.63464897
0.63464629
0.63464257
0.63463783
0.63463217
0.63462578
0.63461875
0.63461116
0.63460298
0.63459422