/*--------------------------------*- C++ -*----------------------------------*\
| =========                 |                                                 |
| \\      /  F ield         | OpenFOAM: The Open Source CFD Toolbox           |
|  \\    /   O peration     | Version:  2506                                  |
|   \\  /    A nd           | Website:  www.openfoam.com                      |
|    \\/     M anipulation  |                                                 |
\*---------------------------------------------------------------------------*/
FoamFile
{
    version     2.0;
    format      ascii;
    arch        "LSB;label=32;scalar=64";
    class       volScalarField;
    location    "0.0105";
    object      T;
}
// * * * * * * * * * * * * * * * * * * * * * * * * * * * * * * * * * * * * * //

dimensions      [0 0 0 1 0 0 0];

internalField   nonuniform List<scalar> 
13763
(
245.73645
245.68999
245.65045
245.59974
245.57626
245.5289
245.46426
245.49684
245.56367
245.51995
245.4492
245.49592
245.56175
245.47067
245.14714
245.05799
245.18225
245.28109
245.06913
244.10763
242.9889
242.73517
242.85029
243.17821
243.57662
243.94266
244.27311
244.5647
244.80353
244.97379
245.08284
245.1615
245.23631
245.31852
245.40924
245.49021
245.54724
245.59895
245.6414
245.68805
245.72517
245.71122
245.73741
245.94206
246.12037
245.99185
245.54199
245.12927
245.7355
245.68935
245.64977
245.59851
245.57512
245.52831
245.46325
245.49532
245.56198
245.51862
245.44839
245.49526
245.56154
245.47093
245.14736
245.05755
245.18166
245.2809
245.06934
244.10731
242.98525
242.7302
242.84647
243.17765
243.5795
243.94683
244.27626
244.56592
244.80348
244.97348
245.08267
245.16145
245.23631
245.31852
245.40923
245.49018
245.5472
245.59891
245.64138
245.68804
245.72516
245.71124
245.73748
245.94223
246.12029
245.99167
245.54179
245.12915
244.91068
244.84404
245.73454
245.6887
245.64906
245.59726
245.57397
245.52773
245.46222
245.49375
245.56025
245.51731
245.44757
245.49457
245.56135
245.47129
245.14769
245.05713
245.18106
245.28068
245.06959
244.10726
242.98204
242.7256
242.84304
243.1778
243.58351
243.95219
244.2802
244.56737
244.80334
244.97303
245.08242
245.16139
245.23632
245.31852
245.4092
245.49014
245.54714
245.59885
245.64133
245.68801
245.72513
245.7112
245.73744
245.94222
246.12034
245.99174
245.54186
245.12918
244.91067
244.84401
244.86126
245.73357
245.68806
245.64834
245.59598
245.57281
245.52716
245.46115
245.49212
245.55849
245.516
245.44675
245.49386
245.56119
245.47176
245.14816
245.05675
245.18044
245.28043
245.06988
244.10753
242.97931
242.72139
242.84008
243.17878
243.58881
243.95888
244.28502
244.56912
244.80313
244.97245
245.0821
245.1613
245.23631
245.31851
245.40917
245.49007
245.54705
245.59878
245.64127
245.68798
245.72511
245.71119
245.73749
245.9423
246.12032
245.99159
245.54167
245.12905
244.91061
244.84399
244.86126
244.9807
245.15708
245.73258
245.68742
245.64761
245.59467
245.57164
245.52659
245.46007
245.49043
245.55671
245.51472
245.44593
245.49312
245.56107
245.47238
245.14878
245.05639
245.17979
245.28017
245.07024
244.10815
242.97713
242.71769
242.83769
243.18072
243.59553
243.96706
244.29089
244.57127
244.8029
244.97175
245.08171
245.16118
245.23631
245.31851
245.40913
245.49
245.54696
245.59869
245.64121
245.68794
245.72508
245.71116
245.73748
245.94232
246.12035
245.9916
245.54165
245.12902
244.91059
244.84398
244.86125
244.98068
245.15707
245.30936
245.41351
245.73159
245.68678
245.64686
245.59335
245.57047
245.52604
245.45896
245.48869
245.5549
245.51346
245.44511
245.49236
245.561
245.47314
245.14956
245.05608
245.17914
245.27991
245.07068
244.10916
242.97556
242.71459
242.83601
243.18376
243.60386
243.97692
244.29796
244.57394
244.80271
244.97095
245.08125
245.16104
245.23629
245.3185
245.40908
245.48991
245.54685
245.59859
245.64114
245.6879
245.72505
245.71115
245.73751
245.94236
246.12032
245.99148
245.5415
245.12893
244.91055
244.84398
244.86127
244.98071
245.1571
245.30937
245.41352
245.46329
245.477
245.73059
245.68616
245.64611
245.59202
245.56932
245.52551
245.45783
245.48691
245.55308
245.51224
245.44431
245.49158
245.56099
245.47407
245.15054
245.05582
245.1785
245.27967
245.07124
244.11057
242.97468
242.71226
242.83522
243.1881
243.61401
243.98869
244.30646
244.57728
244.80265
244.97009
245.08073
245.16088
245.23627
245.31848
245.40903
245.48982
245.54673
245.59849
245.64107
245.68786
245.72503
245.71113
245.73751
245.9424
246.12033
245.99145
245.54144
245.12888
244.91053
244.84397
244.86127
244.98072
245.15712
245.30939
245.41353
245.4633
245.477
245.47955
245.47994
245.47999
245.72958
245.68555
245.64534
245.59068
245.56818
245.525
245.45669
245.48508
245.55125
245.51106
245.44352
245.49079
245.56106
245.4752
245.15173
245.05563
245.17788
245.27949
245.0719
244.11237
242.97457
242.71091
242.83552
243.19397
243.62623
244.00265
244.31662
244.58148
244.80281
244.96921
245.08017
245.16069
245.23624
245.31846
245.40898
245.48972
245.54662
245.59839
245.64101
245.68783
245.72501
245.71112
245.73753
245.94244
246.12032
245.99136
245.54132
245.12881
244.9105
244.84397
244.86129
244.98076
245.15715
245.30941
245.41354
245.4633
245.477
245.47955
245.47994
245.47999
245.48
245.48
245.72859
245.68497
245.64458
245.58935
245.56707
245.52453
245.45554
245.48321
245.54943
245.50994
245.44276
245.49001
245.56121
245.47654
245.15316
245.05555
245.17733
245.27938
245.07268
244.11451
242.97535
242.71074
242.83722
243.20168
243.64086
244.01913
244.32874
244.58673
244.8033
244.96835
245.07959
245.1605
245.2362
245.31844
245.40892
245.48964
245.54652
245.59829
245.64095
245.6878
245.72499
245.71111
245.73755
245.94249
246.12033
245.99131
245.54123
245.12874
244.91047
244.84396
244.8613
244.98078
245.15717
245.30942
245.41355
245.4633
245.477
245.47955
245.47994
245.47999
245.48
245.48
245.72761
245.68442
245.64381
245.58803
245.566
245.52409
245.45439
245.48133
245.54762
245.50888
245.44203
245.48924
245.56148
245.4781
245.15486
245.05559
245.17689
245.27937
245.07356
244.11691
242.97712
242.71214
242.84068
243.21162
243.65834
244.03861
244.3432
244.59328
244.80424
244.96756
245.07899
245.16029
245.23617
245.31842
245.40888
245.48956
245.54642
245.59821
245.6409
245.68778
245.72498
245.7111
245.73757
245.94253
246.12032
245.99123
245.54112
245.12867
244.91044
244.84396
244.86131
244.98081
245.1572
245.30944
245.41356
245.46331
245.477
245.47955
245.47994
245.47999
245.48
245.48
245.72665
245.68392
245.64306
245.58674
245.56499
245.5237
245.45326
245.47944
245.54585
245.50789
245.44136
245.48851
245.56188
245.47991
245.15685
245.05582
245.17663
245.27953
245.07451
244.11946
242.98005
242.71548
242.84636
243.22434
243.67929
244.06165
244.36043
244.6014
244.80575
244.96685
245.07838
245.16009
245.23614
245.31841
245.40884
245.4895
245.54634
245.59814
245.64085
245.68776
245.72497
245.71109
245.7376
245.94259
246.12033
245.99116
245.54101
245.12859
244.9104
244.84395
244.86132
244.98084
245.15723
245.30946
245.41357
245.46331
245.477
245.47955
245.47994
245.47999
245.48
245.48
245.72572
245.68348
245.64232
245.5855
245.56405
245.52337
245.45214
245.47755
245.54411
245.50698
245.44075
245.48785
245.56244
245.48198
245.15915
245.0563
245.17659
245.27988
245.07549
244.12199
242.98429
242.72129
242.85488
243.2406
243.70452
244.08901
244.38097
244.61137
244.80793
244.96626
245.07777
245.15987
245.23611
245.31841
245.40882
245.48945
245.54628
245.59808
245.64082
245.68775
245.72496
245.71109
245.73763
245.94265
246.12033
245.99108
245.54089
245.12851
244.91037
244.84395
244.86134
244.98087
245.15726
245.30949
245.41358
245.46332
245.477
245.47955
245.47994
245.47999
245.48
245.48
245.72483
245.6831
245.64161
245.58431
245.5632
245.5231
245.45106
245.4757
245.54244
245.50614
245.44024
245.48729
245.5632
245.48431
245.16181
245.05709
245.1769
245.2805
245.07643
244.12428
242.99003
242.73019
242.86709
243.26146
243.73515
244.1216
244.40542
244.62352
244.81088
244.96577
245.07713
245.15966
245.2361
245.31842
245.40881
245.48942
245.54622
245.59803
245.64079
245.68774
245.72495
245.71109
245.73767
245.94271
246.12033
245.991
245.54076
245.12842
244.91033
244.84395
244.86135
244.9809
245.15729
245.30951
245.41359
245.46332
245.477
245.47955
245.47994
245.47999
245.48
245.48
245.72399
245.68281
245.64093
245.5832
245.56247
245.52289
245.45003
245.47391
245.54084
245.50538
245.43985
245.48689
245.56418
245.48692
245.16482
245.05831
245.17768
245.28143
245.07722
244.12598
242.99747
242.74304
242.88415
243.28847
243.77267
244.16055
244.43443
244.63814
244.81467
244.96537
245.07643
245.15942
245.23609
245.31844
245.40881
245.4894
245.54619
245.598
245.64077
245.68774
245.72495
245.71109
245.7377
245.94278
246.12034
245.99091
245.54063
245.12834
244.9103
244.84394
244.86137
244.98093
245.15733
245.30953
245.41361
245.46333
245.477
245.47955
245.47994
245.47999
245.48
245.48
245.72321
245.68262
245.64031
245.58219
245.56188
245.52277
245.44907
245.47222
245.53934
245.5047
245.43962
245.48671
245.56544
245.4898
245.16823
245.06009
245.17907
245.28277
245.07774
244.12665
243.00682
242.76093
242.90772
243.32382
243.81907
244.20712
244.46862
244.65548
244.81935
244.96498
245.07564
245.15916
245.23609
245.31848
245.40883
245.4894
245.54616
245.59797
245.64076
245.68774
245.72495
245.71109
245.73775
245.94285
246.12034
245.99082
245.5405
245.12824
244.91025
244.84393
244.86138
244.98097
245.15736
245.30956
245.41362
245.46333
245.47701
245.47955
245.47994
245.47999
245.48
245.48
245.72252
245.68256
245.63975
245.58133
245.56146
245.52272
245.4482
245.47067
245.53796
245.50406
245.43957
245.48683
245.56703
245.49293
245.17206
245.0626
245.18129
245.2846
245.07785
244.12576
243.01839
242.78534
242.9401
243.37055
243.87683
244.26263
244.50848
244.6757
244.82489
244.96452
245.0747
245.15885
245.23611
245.31854
245.40886
245.4894
245.54614
245.59795
245.64075
245.68775
245.72495
245.71109
245.73779
245.94292
246.12035
245.99073
245.54035
245.12814
244.91021
244.84393
244.8614
244.98101
245.1574
245.30959
245.41363
245.46334
245.47701
245.47955
245.47994
245.47999
245.48
245.48
245.72192
245.68264
245.63927
245.58063
245.56125
245.52274
245.44746
245.46934
245.53671
245.50345
245.43978
245.4874
245.56902
245.49627
245.17631
245.06608
245.1846
245.28706
245.07723
244.12241
243.03259
242.81815
242.9844
243.4327
243.94893
244.32828
244.5542
244.6988
244.83125
244.96388
245.07351
245.15848
245.23614
245.31862
245.40891
245.48941
245.54613
245.59793
245.64075
245.68775
245.72495
245.71109
245.73783
245.943
246.12036
245.99063
245.5402
245.12804
244.91017
244.84392
244.86141
244.98104
245.15744
245.30962
245.41365
245.46334
245.47701
245.47955
245.47994
245.47999
245.48
245.48
245.72145
245.6829
245.6389
245.58015
245.56129
245.52284
245.44691
245.46833
245.53563
245.5028
245.44031
245.48857
245.57149
245.49974
245.18099
245.07088
245.18936
245.29029
245.07554
244.11559
243.05017
242.86174
243.04465
243.51522
244.03856
244.40482
244.60553
244.72457
244.83831
244.96293
245.07202
245.15802
245.23618
245.31871
245.40896
245.48944
245.54612
245.59792
245.64075
245.68776
245.72495
245.71109
245.73788
245.94309
246.12037
245.99052
245.54004
245.12793
244.91012
244.84392
244.86143
244.98108
245.15748
245.30965
245.41367
245.46335
245.47701
245.47955
245.47994
245.47999
245.48
245.48
245.72112
245.68337
245.63868
245.57994
245.56163
245.52299
245.44663
245.46778
245.53473
245.50203
245.44128
245.49059
245.5745
245.50317
245.1861
245.07751
245.1961
245.2945
245.07227
244.10417
243.07257
242.91879
243.12566
243.6235
244.14848
244.49216
244.66161
244.75263
244.84598
244.96157
245.07014
245.15745
245.23622
245.31883
245.40903
245.48946
245.54613
245.59792
245.64075
245.68778
245.72496
245.71109
245.73793
245.94318
246.12038
245.99042
245.53987
245.12781
244.91007
244.84391
244.86145
244.98113
245.15752
245.30968
245.41368
245.46336
245.47701
245.47956
245.47994
245.47999
245.48
245.48
245.72095
245.68408
245.63862
245.58007
245.56231
245.52316
245.44664
245.46781
245.534
245.50098
245.44282
245.49381
245.57815
245.50624
245.19166
245.08673
245.20558
245.29996
245.06675
244.08711
243.10242
242.99202
243.23266
243.76224
244.28004
244.58889
244.72094
244.78249
244.85425
244.9598
245.06784
245.15675
245.23628
245.31897
245.4091
245.4895
245.54614
245.59792
245.64076
245.68779
245.72496
245.7111
245.73799
245.94327
246.12039
245.9903
245.53969
245.12769
244.91002
244.8439
244.86147
244.98117
245.15757
245.30971
245.4137
245.46336
245.47701
245.47956
245.47994
245.47999
245.48
245.48
245.72099
245.68508
245.63879
245.5806
245.56339
245.52327
245.44717
245.46872
245.53341
245.49943
245.44517
245.4987
245.58246
245.50842
245.19776
245.0997
245.21891
245.30705
245.05813
244.06397
243.14411
243.08377
243.37046
243.93352
244.43158
244.69196
244.78143
244.81372
244.86323
244.95773
245.06516
245.15592
245.23633
245.31913
245.40919
245.48954
245.54615
245.59793
245.64077
245.68781
245.72496
245.7111
245.73805
245.94337
246.1204
245.99018
245.53951
245.12756
244.90996
244.84389
244.86149
244.98122
245.15762
245.30975
245.41372
245.46337
245.47702
245.47956
245.47994
245.47999
245.48
245.48
245.72127
245.68642
245.63923
245.58164
245.56494
245.52327
245.44844
245.47085
245.53292
245.49708
245.44864
245.5059
245.58744
245.5092
245.20484
245.11813
245.23773
245.31644
245.04546
244.03568
243.20417
243.19577
243.54228
244.13442
244.59688
244.79633
244.84087
244.84588
244.8732
244.95574
245.0623
245.155
245.23636
245.3193
245.40928
245.48958
245.54616
245.59793
245.64078
245.68783
245.72497
245.7111
245.73811
245.94348
246.12041
245.99006
245.53931
245.12743
244.9099
244.84389
244.86151
244.98127
245.15767
245.30978
245.41374
245.46338
245.47702
245.47956
245.47994
245.47999
245.48
245.48
245.72182
245.68814
245.64004
245.58329
245.567
245.52302
245.45078
245.47461
245.53241
245.49359
245.45363
245.51622
245.59311
245.50759
245.21382
245.14439
245.26445
245.32931
245.02787
244.00557
243.28953
243.33251
243.7467
244.35519
244.76409
244.89508
244.89774
244.87702
244.88589
244.95488
245.05964
245.15407
245.23636
245.31945
245.40938
245.48963
245.54618
245.59795
245.6408
245.68785
245.72498
245.71111
245.73817
245.94359
246.12042
245.98992
245.53911
245.12729
244.90984
244.84388
244.86153
244.98132
245.15772
245.30982
245.41376
245.46339
245.47702
245.47956
245.47994
245.47999
245.48
245.48
245.72269
245.69031
245.64131
245.58569
245.56962
245.52243
245.45465
245.48049
245.53167
245.4887
245.46048
245.53055
245.59935
245.50209
245.22639
245.18138
245.30249
245.34786
245.00488
243.98074
243.40573
243.5027
243.97593
244.57983
244.91714
244.98359
244.95586
244.90248
244.89976
244.95601
245.05768
245.15326
245.23634
245.31958
245.40948
245.48969
245.54621
245.59796
245.64082
245.68787
245.72498
245.71111
245.73824
245.9437
246.12043
245.98978
245.53889
245.12714
244.90978
244.84387
244.86156
244.98138
245.15778
245.30986
245.41378
245.46339
245.47702
245.47956
245.47994
245.47999
245.48
245.48
245.72393
245.69301
245.64318
245.58898
245.57283
245.52143
245.46065
245.48892
245.53045
245.48276
245.46914
245.54984
245.60587
245.49109
245.24573
245.23203
245.35649
245.37614
244.97699
243.9713
243.56105
243.70903
244.22096
244.78855
245.04334
245.06906
245.00749
244.92132
244.90972
244.95806
245.05662
245.1527
245.23632
245.31969
245.40957
245.48975
245.54624
245.59798
245.64084
245.6879
245.72499
245.71112
245.73831
245.94383
246.12044
245.98963
245.53866
245.12698
244.90971
244.84386
244.86158
244.98144
245.15784
245.30991
245.41381
245.4634
245.47702
245.47956
245.47994
245.47999
245.48
245.48
245.7256
245.69632
245.64586
245.59333
245.5766
245.52018
245.46945
245.50015
245.52856
245.47733
245.47849
245.57504
245.61252
245.4737
245.27659
245.29846
245.43198
245.42104
244.94732
243.99867
243.75994
243.95215
244.47165
244.96443
245.14382
245.14325
245.04629
244.93325
244.91538
244.95961
245.05618
245.15244
245.23634
245.31979
245.40966
245.48982
245.54627
245.598
245.64087
245.68793
245.725
245.71112
245.73838
245.94395
246.12046
245.98948
245.53842
245.12682
244.90964
244.84385
244.86161
244.9815
245.1579
245.30995
245.41383
245.46341
245.47703
245.47956
245.47994
245.47999
245.48
245.48
245.72777
245.70033
245.64961
245.59891
245.58078
245.5192
245.48161
245.51386
245.52621
245.47285
245.49042
245.60536
245.61998
245.45247
245.31855
245.389
245.53465
245.48517
244.92792
244.08748
244.00046
244.23019
244.71738
245.10326
245.21823
245.19866
245.06979
244.93906
244.91783
244.96037
245.05606
245.15238
245.23639
245.31987
245.40975
245.48988
245.5463
245.59802
245.64089
245.68796
245.72501
245.71113
245.73846
245.94409
246.12047
245.98932
245.53817
245.12664
244.90957
244.84384
244.86164
244.98157
245.15796
245.31
245.41386
245.46342
245.47703
245.47956
245.47994
245.47999
245.48
245.48
245.7305
245.70516
245.65479
245.6059
245.58504
245.51978
245.49746
245.52851
245.52488
245.46837
245.50875
245.64006
245.63143
245.43512
245.36942
245.50706
245.66958
245.5723
244.92728
244.25881
244.27579
244.53801
244.94643
245.2093
245.27
245.23259
245.07929
244.94041
244.91835
244.96057
245.05613
245.15247
245.23648
245.31995
245.40984
245.48995
245.54634
245.59805
245.64092
245.68799
245.72502
245.71114
245.73855
245.94423
246.12049
245.98914
245.5379
245.12646
244.90949
244.84383
244.86166
244.98164
245.15803
245.31005
245.41389
245.46343
245.47703
245.47956
245.47994
245.47999
245.48
245.48
245.73387
245.71098
245.66191
245.61443
245.58879
245.52415
245.51715
245.54413
245.5227
245.46522
245.53598
245.68335
245.64797
245.43146
245.42482
245.65147
245.83432
245.68631
244.98758
244.51391
244.59485
244.85438
245.14604
245.28936
245.30614
245.24877
245.07966
244.93879
244.91754
244.9604
245.05638
245.15268
245.23658
245.32003
245.40993
245.49003
245.54639
245.59808
245.64095
245.68802
245.72503
245.71114
245.73863
245.94438
246.1205
245.98896
245.53762
245.12627
244.9094
244.84382
244.8617
244.98171
245.15811
245.3101
245.41392
245.46344
245.47703
245.47956
245.47994
245.47999
245.48
245.48
245.73797
245.71799
245.67163
245.62455
245.59106
245.53539
245.5411
245.56246
245.51698
245.46297
245.57445
245.74142
245.67649
245.45238
245.4904
245.81114
246.01492
245.83185
245.1427
244.8412
244.94487
245.14981
245.30737
245.35038
245.33521
245.25219
245.07021
244.93413
244.91547
244.95987
245.05671
245.15296
245.2367
245.32012
245.41002
245.49011
245.54643
245.59811
245.64099
245.68806
245.72504
245.71115
245.73872
245.94454
246.12052
245.98877
245.53733
245.12607
244.90932
244.84381
244.86173
244.98178
245.15818
245.31016
245.41395
245.46346
245.47704
245.47956
245.47994
245.47999
245.48
245.48
245.74292
245.72648
245.68479
245.63605
245.59092
245.55506
245.57477
245.58445
245.50601
245.45797
245.62517
245.81994
245.72932
245.50932
245.58491
245.96522
246.18561
246.00028
245.39623
245.20438
245.28735
245.39233
245.42653
245.40204
245.35149
245.24176
245.05629
244.92897
244.91324
244.95937
245.05711
245.15325
245.23683
245.3202
245.41012
245.4902
245.54648
245.59814
245.64102
245.6881
245.72505
245.71116
245.73882
245.94471
246.12054
245.98857
245.53702
245.12586
244.90923
244.8438
244.86176
244.98187
245.15827
245.31022
245.41398
245.46347
245.47704
245.47956
245.47994
245.47999
245.48
245.48
245.74888
245.73692
245.70235
245.64811
245.58835
245.58503
245.62165
245.61721
245.48705
245.44479
245.68372
245.91847
245.81413
245.62181
245.71835
246.09898
246.30985
246.15724
245.69939
245.54349
245.56748
245.55921
245.51227
245.43371
245.35134
245.22577
245.04347
244.92466
244.91134
244.95903
245.05753
245.15354
245.23695
245.32029
245.41023
245.49029
245.54654
245.59818
245.64106
245.68814
245.72507
245.71117
245.73892
245.94488
246.12056
245.98836
245.53669
245.12563
244.90913
244.84378
244.8618
244.98195
245.15835
245.31028
245.41401
245.46348
245.47704
245.47956
245.47994
245.47999
245.48
245.48
245.75621
245.75003
245.72522
245.65944
245.59479
245.62038
245.68978
245.66496
245.46428
245.42278
245.73645
246.02313
245.92694
245.7977
245.88954
246.20378
246.3615
246.24832
245.95803
245.79826
245.73993
245.66284
245.55375
245.44108
245.34161
245.21169
245.03452
244.92176
244.91004
244.9589
245.05791
245.1538
245.23708
245.32039
245.41034
245.49038
245.54659
245.59822
245.6411
245.68818
245.72508
245.71118
245.73903
245.94506
246.12058
245.98813
245.53634
245.1254
244.90903
244.84377
244.86184
244.98204
245.15844
245.31035
245.41405
245.46349
245.47704
245.47956
245.47994
245.47999
245.48
245.48
245.7657
245.76693
245.75396
245.67223
245.60238
245.67078
245.78532
245.73584
245.45377
245.40512
245.76592
246.10657
246.05067
246.00831
246.07398
246.26535
246.35053
246.26515
246.0762
245.92722
245.82778
245.70687
245.56497
245.43422
245.32936
245.20091
245.02884
244.92007
244.90933
244.95895
245.05827
245.15404
245.2372
245.3205
245.41046
245.49048
245.54665
245.59826
245.64114
245.68822
245.72509
245.71118
245.73914
245.94526
246.1206
245.98789
245.53598
245.12515
244.90892
244.84376
244.86188
244.98214
245.15854
245.31042
245.41409
245.46351
245.47705
245.47956
245.47994
245.47999
245.48
245.48
245.77868
245.78917
245.7895
245.69187
245.61323
245.73509
245.91452
245.84424
245.47329
245.40518
245.77314
246.13812
246.16765
246.19487
246.22826
246.27258
246.26207
246.20719
246.08701
245.96098
245.85718
245.72175
245.56309
245.42414
245.31878
245.19326
245.02538
244.91921
244.90906
244.95913
245.0586
245.15426
245.23732
245.32062
245.41059
245.49059
245.54672
245.59831
245.64119
245.68827
245.72511
245.71119
245.73926
245.94546
246.12062
245.98764
245.53559
245.12489
244.90881
244.84374
244.86192
244.98224
245.15864
245.31049
245.41413
245.46352
245.47705
245.47956
245.47994
245.47999
245.48
245.48
245.79614
245.8176
245.83823
245.72926
245.63679
245.81557
246.08055
246.00442
245.5683
245.4755
245.78456
246.12716
246.25572
246.31227
246.30337
246.26058
246.20394
246.12828
246.03444
245.94665
245.85942
245.72487
245.55915
245.41666
245.31157
245.1883
245.02336
244.91889
244.90906
244.95941
245.05892
245.15446
245.23745
245.32074
245.41072
245.4907
245.54679
245.59836
245.64123
245.68832
245.72513
245.7112
245.73939
245.94568
246.12064
245.98738
245.53519
245.12461
244.9087
244.84373
244.86196
244.98234
245.15875
245.31057
245.41417
245.46354
245.47705
245.47956
245.47994
245.47999
245.48
245.48
245.82067
245.85566
245.9071
245.80429
245.69948
245.92468
246.27869
246.21623
245.78682
245.67363
245.86323
246.12806
246.29448
246.33933
246.32625
246.26588
246.1801
246.07914
245.97787
245.90385
245.84027
245.72198
245.55659
245.41247
245.30746
245.18546
245.02236
244.9189
244.90931
244.95978
245.05924
245.15467
245.23759
245.32088
245.41087
245.49081
245.54686
245.59841
245.64129
245.68837
245.72514
245.71121
245.73952
245.9459
246.12066
245.9871
245.53476
245.12432
244.90857
244.84371
244.86201
244.98245
245.15886
245.31065
245.41422
245.46356
245.47706
245.47956
245.47994
245.47999
245.48
245.48
245.8586
245.91207
246.0109
245.93075
245.83486
246.08657
246.49293
246.4519
246.08244
245.97246
246.05285
246.18073
246.299
246.34518
246.32891
246.26463
246.16911
246.05457
245.94506
245.87341
245.81969
245.71427
245.55456
245.41072
245.30569
245.1842
245.02201
244.91924
244.90974
244.96021
245.05955
245.15487
245.23773
245.32102
245.41102
245.49093
245.54694
245.59847
245.64134
245.68843
245.72516
245.71122
245.73966
245.94614
246.12069
245.98681
245.53431
245.12401
244.90844
244.8437
244.86206
244.98257
245.15898
245.31074
245.41426
245.46358
245.47706
245.47956
245.47994
245.47999
245.48
245.48
245.92595
246.00786
246.16879
246.11565
246.04955
246.3032
246.68589
246.64773
246.35271
246.26241
246.26679
246.28188
246.31783
246.33021
246.31011
246.24925
246.1574
246.0403
245.92742
245.85677
245.80739
245.70843
245.55318
245.41029
245.30527
245.18388
245.02213
244.91971
244.91026
244.96068
245.05988
245.15508
245.23788
245.32117
245.41119
245.49106
245.54702
245.59853
245.6414
245.68848
245.72518
245.71124
245.73981
245.94639
246.12071
245.9865
245.53383
245.12369
244.9083
244.84368
244.86211
244.9827
245.15911
245.31083
245.41431
245.46359
245.47707
245.47956
245.47994
245.47999
245.48
245.48
246.05428
246.1762
246.38573
246.34545
246.31462
246.5247
246.80077
246.73813
246.53261
246.43396
246.41208
246.37775
246.33949
246.31594
246.28339
246.22504
246.14181
246.02927
245.91698
245.84727
245.7999
245.7045
245.55241
245.41045
245.30538
245.18404
245.02255
244.9203
244.91085
244.96119
245.06023
245.15531
245.23804
245.32134
245.41136
245.4912
245.54711
245.5986
245.64146
245.68854
245.7252
245.71125
245.73996
245.94665
246.12074
245.98617
245.53333
245.12335
244.90816
244.84366
244.86217
244.98283
245.15924
245.31092
245.41437
245.46361
245.47707
245.47957
245.47994
245.47999
245.48
245.48
246.26968
246.42781
246.62294
246.57997
246.56291
246.68177
246.81701
246.74526
246.58657
246.51079
246.475
246.41833
246.34798
246.30347
246.26587
246.20875
246.12914
246.02025
245.91011
245.84153
245.7949
245.70138
245.55178
245.41104
245.30614
245.18482
245.02332
244.92102
244.91151
244.96174
245.06061
245.15555
245.23821
245.32151
245.41154
245.49134
245.54721
245.59867
245.64152
245.68861
245.72522
245.71126
245.74012
245.94693
246.12076
245.98582
245.5328
245.12299
244.90801
244.84364
244.86223
244.98297
245.15938
245.31103
245.41442
245.46364
245.47708
245.47957
245.47994
245.47999
245.48
245.48
246.54513
246.69831
246.80739
246.7619
246.70713
246.74131
246.75056
246.694
246.58752
246.52335
246.48719
246.42724
246.3451
246.29244
246.25548
246.20018
246.12131
246.01418
245.90612
245.83866
245.79187
245.69894
245.551
245.41144
245.30707
245.18602
245.02442
244.92187
244.91226
244.96233
245.061
245.15581
245.23839
245.3217
245.41173
245.49149
245.54732
245.59875
245.64159
245.68868
245.72525
245.71127
245.7403
245.94722
246.12079
245.98546
245.53224
245.12262
244.90785
244.84363
244.86229
244.98312
245.15953
245.31113
245.41448
245.46366
245.47708
245.47957
245.47994
245.47999
245.48
245.48
246.79045
246.8767
246.89693
246.82697
246.73381
246.73066
246.71594
246.64037
246.54475
246.50147
246.47766
246.42353
246.3403
246.28522
246.24848
246.19434
246.11602
246.01061
245.90472
245.83815
245.7909
245.69747
245.55017
245.41142
245.30774
245.18732
245.02578
244.92287
244.9131
244.96298
245.06142
245.15608
245.23859
245.3219
245.41193
245.49165
245.54743
245.59883
245.64166
245.68875
245.72527
245.71129
245.74048
245.94753
246.12082
245.98507
245.53164
245.12222
244.90768
244.84361
244.86236
244.98327
245.15969
245.31125
245.41455
245.46368
245.47709
245.47957
245.47994
245.47999
245.48
245.48
246.92362
246.93306
246.90188
246.81173
246.74031
246.71604
246.68241
246.59565
246.50804
246.47422
246.45628
246.41053
246.33488
246.28071
246.24314
246.18892
246.11166
246.00862
245.90487
245.83934
245.79127
245.69689
245.54944
245.41101
245.30816
245.18861
245.02728
244.924
244.91404
244.96368
245.06187
245.15637
245.2388
245.32211
245.41215
245.49181
245.54755
245.59892
245.64174
245.68882
245.7253
245.7113
245.74067
245.94785
246.12085
245.98466
245.53102
245.1218
244.9075
244.84358
244.86243
244.98344
245.15986
245.31137
245.41461
245.46371
245.47709
245.47957
245.47994
245.47999
245.48
245.48
246.94749
246.9176
246.86322
246.77171
246.70438
246.68135
246.64786
246.56379
246.48815
246.46082
246.44398
246.40105
246.33108
246.27756
246.23817
246.18329
246.10751
246.00737
245.90674
245.84217
245.79293
245.69692
245.54867
245.41037
245.30843
245.18991
245.02891
244.92524
244.91506
244.96443
245.06234
245.15669
245.23902
245.32234
245.41237
245.49199
245.54767
245.59902
245.64182
245.6889
245.72532
245.71132
245.74087
245.94819
246.12088
245.98422
245.53036
245.12135
244.90732
244.84356
244.8625
244.98361
245.16003
245.3115
245.41469
245.46373
245.4771
245.47957
245.47994
245.47999
245.48
245.48
246.92176
246.88328
246.82064
246.73202
246.67394
246.65569
246.62515
246.54464
246.47697
246.45387
246.43707
246.39491
246.32943
246.27626
246.23388
246.17797
246.10424
246.00718
245.90913
245.84493
245.7944
245.69693
245.54785
245.4097
245.30871
245.19125
245.0306
244.92655
244.91616
244.96524
245.06286
245.15703
245.23926
245.32258
245.41261
245.49217
245.54781
245.59913
245.6419
245.68899
245.72535
245.71133
245.74108
245.94855
246.12091
245.98377
245.52966
245.12088
244.90712
244.84354
244.86258
244.9838
245.16022
245.31163
245.41476
245.46376
245.47711
245.47957
245.47994
245.47999
245.48
245.48
246.88674
246.84516
246.78386
246.70388
246.65488
246.64052
246.61234
246.53413
246.47016
246.44916
246.43208
246.39007
246.32861
246.2761
246.23058
246.17388
246.10217
246.00747
245.91107
245.84693
245.79517
245.69652
245.54708
245.40919
245.30906
245.19256
245.03225
244.92788
244.91728
244.96611
245.06342
245.15739
245.23953
245.32284
245.41287
245.49236
245.54796
245.59924
245.64199
245.68907
245.72538
245.71135
245.74131
245.94894
246.12095
245.98328
245.52892
245.12039
244.90691
244.84352
244.86266
244.984
245.16042
245.31178
245.41484
245.46379
245.47711
245.47957
245.47994
245.47999
245.48
245.48
246.86231
246.82163
246.7626
246.68821
246.64386
246.63092
246.60384
246.52714
246.46546
246.44565
246.42838
246.38607
246.32705
246.27532
246.22803
246.17159
246.10137
246.00838
245.91302
245.84865
245.79569
245.6961
245.54656
245.40892
245.30943
245.19367
245.03369
244.92913
244.91839
244.96701
245.06404
245.1578
245.23981
245.32312
245.41313
245.49256
245.54812
245.59937
245.64209
245.68917
245.72541
245.71136
245.74154
245.94934
246.12098
245.98276
245.52814
245.11987
244.90669
244.84349
244.86275
244.98421
245.16063
245.31193
245.41493
245.46382
245.47712
245.47957
245.47994
245.47999
245.48
245.48
246.84749
246.80923
246.75176
246.68017
246.63744
246.62423
246.59714
246.52197
246.46249
246.44336
246.42552
246.38312
246.32587
246.27449
246.22665
246.17074
246.10173
246.01001
245.91537
245.85066
245.79642
245.69592
245.54634
245.40885
245.30971
245.19441
245.03474
244.93024
244.91945
244.96794
245.06472
245.15825
245.24011
245.32341
245.41341
245.49277
245.54829
245.5995
245.64219
245.68926
245.72545
245.71138
245.74179
245.94976
246.12102
245.98222
245.52731
245.11931