/*--------------------------------*- C++ -*----------------------------------*\
| =========                 |                                                 |
| \\      /  F ield         | OpenFOAM: The Open Source CFD Toolbox           |
|  \\    /   O peration     | Version:  2506                                  |
|   \\  /    A nd           | Website:  www.openfoam.com                      |
|    \\/     M anipulation  |                                                 |
\*---------------------------------------------------------------------------*/
FoamFile
{
    version     2.0;
    format      ascii;
    arch        "LSB;label=32;scalar=64";
    class       surfaceScalarField;
    location    "0.0235";
    object      phi;
}
// * * * * * * * * * * * * * * * * * * * * * * * * * * * * * * * * * * * * * //

dimensions      [1 0 -1 0 0 0 0];

oriented        oriented;

internalField   nonuniform List<scalar> 
27245
(
0.0016748136
0.13705579
-0.1370728
0.0018058014
0.079901472
-0.080026347
0.0019942393
0.034860966
-0.035034935
0.002221244
0.034104868
-0.034311113
0.0023877771
0.08706495
-0.087236033
0.0024353583
0.13215994
-0.1322282
0.0024767348
0.14384884
-0.14391788
0.0025863205
0.12347074
-0.12358807
0.0027570342
0.076331438
-0.076508585
0.0029283308
0.068757221
-0.06890664
0.0030958206
0.11213845
-0.11229709
0.0032288185
0.17133559
-0.17147582
0.0033603169
0.18843069
-0.18857442
0.0035270656
0.18828855
-0.18845258
0.0037409347
0.18044835
-0.18064627
0.0039614756
0.18415062
-0.18435235
0.0041796334
0.1924373
-0.19264441
0.0044199605
0.19866521
-0.1989015
0.0046768152
0.2131005
-0.21335684
0.004906882
0.25378622
-0.25402248
0.0050943332
0.31555443
-0.31575593
0.0052728694
0.36203513
-0.36223329
0.0054795503
0.3923186
-0.39253707
0.0057248729
0.41320288
-0.41344901
0.0059996892
0.43395291
-0.43422304
0.0063110012
0.45783278
-0.45813735
0.0066428808
0.48110641
-0.48143236
0.0070013312
0.52312758
-0.52348142
0.0073788791
0.56383845
-0.56421051
0.0077927375
0.62054082
-0.62095133
0.0082089668
0.72828503
-0.72869236
0.0086493157
0.80876088
-0.80922124
0.0090833874
0.97302492
-0.97343615
0.0095172673
1.049865
-1.0503737
0.0098720326
1.2274195
-1.2277418
0.010244579
1.4626577
-1.4631874
0.010657171
1.5614544
-1.5618226
0.010959522
2.0527305
-2.0529772
0.011194456
2.080368
-2.0806264
0.011518422
2.44842
-2.4487849
0.011842004
2.4568301
-2.4571113
0.012236572
2.7703235
-2.7706812
0.012658803
2.7455835
-2.7459904
0.01305237
3.0616833
-3.0621062
0.013591336
3.1033755
-3.1038706
0.014156284
3.2521539
-3.252668
0.014820957
3.367888
-3.3684699
3.5353829
0.0017675563
0.13703928
0.0019037528
0.079771653
0.002100773
0.034679184
0.0023407109
0.0338869
0.0025170438
0.086883882
0.0025648069
0.1320905
0.0026101558
0.14377427
0.0027259621
0.12334666
0.0029036073
0.076147049
0.0030824322
0.068601408
0.0032609935
0.11196929
0.003400009
0.17118902
0.0035389451
0.188279
0.0037119823
0.18811838
0.0039357101
0.18024145
0.0041692069
0.18393699
0.0043999674
0.19221819
0.0046532716
0.19841608
0.0049236514
0.21283057
0.0051625595
0.25354066
0.005357129
0.31534498
0.0055447943
0.36182677
0.0057633639
0.39208762
0.0060215973
0.41294381
0.0063100695
0.43366937
0.0066367749
0.45751317
0.006986935
0.48076248
0.0073639414
0.52275543
0.0077591847
0.563449
0.0081889637
0.62011457
0.0086269382
0.7278564
0.0090820747
0.80828475
0.0095354432
0.97259551
0.0099837875
1.0493381
0.010355759
1.2270815
0.01077433
1.4620737
0.011212471
1.5610629
0.011535395
2.0524662
0.011775674
2.080103
0.012119865
2.4480327
0.012444516
2.4565498
0.012841174
2.7699656
0.013327947
2.7451126
0.013721417
3.0612592
0.014296991
3.102844
0.014880171
3.251624
0.015577157
3.367278
0.016283842
3.5347126
0.017042082
3.6691433
3.8415008
0.0018669343
0.13702255
0.0020099473
0.079635268
0.0022164846
0.034488698
0.0024686328
0.033657997
0.0026549102
0.086692672
0.0027049212
0.13201778
0.0027527625
0.14369558
0.0028744801
0.12321619
0.00306063
0.075953798
0.0032481983
0.068438044
0.0034359959
0.11179147
0.0035819549
0.17103517
0.0037280146
0.18811966
0.003909503
0.1879399
0.0041446786
0.180024
0.0043902554
0.18371238
0.0046328934
0.19198781
0.0048990604
0.19815419
0.0051831258
0.21254687
0.005433472
0.25328316
0.005637268
0.31512541
0.0058340531
0.36160815
0.0060635368
0.39184508
0.0063346404
0.41267183
0.0066374962
0.43337171
0.0069805353
0.4571776
0.0073483259
0.48040125
0.0077441897
0.5223647
0.0081590769
0.56304021
0.0086099944
0.61966736
0.0090698884
0.72740631
0.009547637
0.80778494
0.010008006
0.97216031
0.010473877
1.0487898
0.01085552
1.2267358
0.011345523
1.4614091
0.011784721
1.5606728
0.012123194
2.0521894
0.012375912
2.0798242
0.012737299
2.447626
0.013080205
2.4562532
0.013482428
2.7696042
0.014002567
2.7446092
0.014418936
3.0608106
0.015028292
3.1022798
0.015631384
3.2510766
0.01636296
3.3666378
0.01710457
3.5340092
0.017900299
3.6683584
0.018728255
3.8406689
4.0119476
0.0019717161
0.13700554
0.0021218872
0.079491995
0.0023383871
0.034289096
0.0026032698
0.033417722
0.0028000371
0.086490775
0.0028524936
0.13194156
0.0029029599
0.14361251
0.0030309063
0.12307896
0.003225933
0.075751329
0.0034226601
0.068266775
0.0036201273
0.11160461
0.0037733929
0.17087367
0.0039269389
0.18795227
0.0041173145
0.1877527
0.0043645195
0.17979549
0.0046228074
0.18347624
0.0048779723
0.19174554
0.0051576301
0.19787891
0.0054560687
0.21224868
0.0057183663
0.25301315
0.0059318527
0.31489519
0.0061381848
0.36137878
0.0063791203
0.39159039
0.0066637117
0.41238632
0.0069816827
0.43305922
0.0073418577
0.45682527
0.0077281504
0.48002186
0.0081438017
0.52195446
0.0085793304
0.56261112
0.0090524395
0.61919815
0.0095353434
0.7269337
0.010036835
0.80726026
0.010518848
0.97170475
0.011007712
1.0482143
0.011403466
1.2263779
0.011931068
1.4606976
0.012385794
1.5602699
0.012740651
2.0518997
0.013005243
2.0795321
0.013384177
2.4471994
0.013743501
2.4559423
0.014164688
2.7692258
0.014711018
2.7440805
0.015147941
3.0603399
0.015787448
3.1016878
0.016420206
3.2505022
0.017188062
3.365966
0.0179664
3.533271
0.018801445
3.6675348
0.019670414
3.8397957
0.020603599
4.0110191
0.021580366
4.2005087
4.3965222
0.002082795
0.13698824
0.0022405294
0.07934143
0.0024674855
0.03407993
0.0027456829
0.033165575
0.0029535421
0.086277577
0.0030086231
0.13186162
0.0030618662
0.14352482
0.0031963597
0.12293461
0.0034006718
0.075539232
0.0036069938
0.068087222
0.0038146137
0.11140826
0.0039755768
0.1707041
0.0041369706
0.18777647
0.0043367029
0.18755631
0.0045965735
0.17955533
0.0048682429
0.18322796
0.0051365955
0.19149074
0.0054304357
0.19758954
0.005743953
0.21193528
0.0060187879
0.25273
0.0062424193
0.3146538
0.0064587543
0.3611381
0.0067116833
0.39132299
0.0070104424
0.4120866
0.0073442773
0.43273117
0.0077224545
0.45645536
0.0081281825
0.4796234
0.0085646343
0.52152372
0.0090218207
0.56216072
0.0095182222
0.61870586
0.0100253
0.72643743
0.010551758
0.80670944
0.011057662
0.97122661
0.011570777
1.0476101
0.011986001
1.2260026
0.012540485
1.4599493
0.013018096
1.559847
0.013390084
2.0515965
0.013667166
2.0792259
0.014064444
2.4467519
0.014440844
2.4556166
0.014881998
2.7688296
0.015455839
2.7435252
0.015914303
3.0598459
0.016585394
3.1010672
0.017249301
3.2498994
0.018055194
3.365261
0.018872089
3.5324965
0.019748392
3.6666707
0.020660444
3.8388793
0.021639697
4.0100448
0.022664834
4.1994875
0.023739741
4.3954481
0.024877478
4.6199497
4.8600479
0.0022008703
0.13697065
0.0023665667
0.079183196
0.0026044921
0.033860734
0.0028966505
0.032901013
0.0031162361
0.086052443
0.0031741518
0.13177769
0.0032302897
0.14343226
0.0033716835
0.12278269
0.0035856928
0.075317088
0.0038020763
0.067898981
0.0040203464
0.11120198
0.0041894102
0.17052605
0.0043590502
0.18759183
0.0045686219
0.18735027
0.0048418291
0.17930292
0.0051275902
0.18296691
0.0054098386
0.19122274
0.005718574
0.19728532
0.0060479338
0.21160586
0.0063358916
0.25243305
0.0065701404
0.31440071
0.006796933
0.3608856
0.0070624438
0.39104224
0.007376055
0.41177198
0.0077265435
0.43238678
0.0081236308
0.45606696
0.0085497891
0.47920488
0.0090080377
0.5210715
0.0094879589
0.56168796
0.010008834
0.61818931
0.010541311
0.72591631
0.011093964
0.80613117
0.011624927
0.9707248
0.012163524
1.0469759
0.012599159
1.2256089
0.013181838
1.4591622
0.0136834
1.5594033
0.014073358
2.0512791
0.014363442
2.0789051
0.014779951
2.4462825
0.015174273
2.4552752
0.015636324
2.7684147
0.016238914
2.7429421
0.016720019
3.0593274
0.017424263
3.1004164
0.018120799
3.2492668
0.018966624
3.3645212
0.019823937
3.5316838
0.020743526
3.665764
0.021700795
3.8379175
0.022728319
4.0090225
0.023804275
4.1984157
0.0249325
4.3943207
0.026126732
4.6187513
0.02739691
4.8587784
0.02874501
5.1160422
5.3941613
0.0023257689
0.1369527
0.0024998397
0.079016886
0.0027492306
0.033631058
0.0030559519
0.032623528
0.0032879445
0.085814687
0.0033489338
0.1316895
0.0034080995
0.14333458
0.0035567678
0.12262278
0.0037809119
0.075084418
0.0040078225
0.06770165
0.004237249
0.11098532
0.0044148476
0.17033907
0.0045931475
0.18739795
0.0048130797
0.18713406
0.0051003162
0.17903764
0.0054009108
0.18269243
0.0056977817
0.19094082
0.0060221431
0.1969655
0.0063681473
0.21125957
0.006669839
0.25212164
0.0069152256
0.31413532
0.0071529447
0.36062073
0.0074316384
0.39074752
0.0077608269
0.41144174
0.0081288214
0.43202522
0.0085457603
0.45565916
0.0089933357
0.47876536
0.0094745045
0.52059669
0.0099782901
0.56119171
0.010524809
0.61764733
0.011083962
0.72536908
0.011664134
0.80552407
0.01222137
0.97019815
0.012786714
1.04631
0.013243754
1.2251961
0.013855995
1.4583347
0.014382751
1.5589378
0.014791533
2.0509471
0.015095189
2.078569
0.015531835
2.4457901
0.015944859
2.4549176
0.016428813
2.7679802
0.017061588
2.7423299
0.017566394
3.0587832
0.018305378
3.0997331
0.019036137
3.2486025
0.019923882
3.3637449
0.020823624
3.530831
0.021788642
3.6648127
0.022793325
3.8369081
0.023871506
4.0079498
0.025000726
4.1972908
0.026184908
4.3931375
0.027438395
4.6174936
0.028771376
4.8574461
0.030186216
5.1146428
0.031690113
5.3926933
0.033235158
5.6865254
0.034859861
5.9966819
6.3267665
0.0024581978
0.13693441
0.0026410974
0.078842068
0.0029025008
0.033390394
0.0032244504
0.032332568
0.00346956
0.085563602
0.0035338675
0.13159675
0.0035962403
0.14323147
0.0037525623
0.12245445
0.0039872847
0.074840736
0.0042252184
0.067494808
0.0044663487
0.11075778
0.0046529481
0.17014269
0.0048403343
0.18719438
0.005071171
0.18690714
0.0053731718
0.1787588
0.0056893912
0.18240382
0.0060016801
0.1906442
0.0063424499
0.19662927
0.0067059231
0.21089551
0.0070219983
0.25179505
0.0072790493
0.31385702
0.0075282077
0.36034289
0.0078207056
0.39043815
0.0081662451
0.4110951
0.0085526054
0.43164564
0.0089903915
0.45523099
0.0094604909
0.47830373
0.0099656942
0.5200982
0.010494539
0.56067083
0.011068025
0.61707862
0.011655166
0.72479447
0.012264276
0.80488667
0.012849094
0.96964542
0.013442467
1.0456109
0.013921982
1.2247632
0.014565195
1.4574647
0.015118412
1.5584491
0.015546879
2.0505996
0.015864732
2.0782169
0.016322445
2.4452736
0.016755064
2.4545428
0.017261968
2.7675252
0.017926354
2.7416872
0.018456074
3.0582121
0.019231528
3.0990157
0.019998178
3.2479051
0.020929868
3.3629303
0.021874134
3.5299363
0.022886791
3.6638145
0.023941242
3.8358488
0.025072576
4.0068242
0.026257689
4.1961103
0.027500629
4.3918956
0.028816277
4.6161735
0.030215181
4.856048
0.031700028
5.1131742
0.033278652
5.3911522
0.034900205
5.6848963
0.036605128
5.9949615
0.038507334
6.3249632
0.040603752
6.7027245
7.0764
0.042580162
0.0025984907
0.13691573
0.0027906792
0.07865829
0.0030646415
0.033138241
0.0034024849
0.032027578
0.003661474
0.085298419
0.0037293868
0.13149913
0.0037951335
0.14312263
0.0039595249
0.12227728
0.0042052935
0.074585527
0.0044547599
0.06727802
0.0047081513
0.11051887
0.0049042281
0.16993642
0.0051011517
0.18698066
0.0053434743
0.18666896
0.005661042
0.17846571
0.0059937176
0.18210032
0.006322225
0.19033209
0.0066802207
0.19627579
0.0070620402
0.21051272
0.0073932102
0.25145251
0.0076624562
0.31356521
0.0079235912
0.36005146
0.008230562
0.39011341
0.0085932282
0.41073129
0.0089989116
0.43124711
0.0094586031
0.45478142
0.0099523356
0.47781891
0.010482781
0.51957483
0.011037939
0.56012406
0.011639714
0.61648187
0.012256257
0.72419107
0.012895719
0.80421746
0.013509466
0.96906533
0.014132294
1.044877
0.014635372
1.2243092
0.015311071
1.4565498
0.015892185
1.5579362
0.016341257
2.0502362
0.016673921
2.0778482
0.017153671
2.4447317
0.017606757
2.4541503
0.018137719
2.7670487
0.018835225
2.7410124
0.019391107
3.0576127
0.020204763
3.0982631
0.021009015
3.2471733
0.021986878
3.3620756
0.022977847
3.5289975
0.024040548
3.6627672
0.025147193
3.834737
0.026334285
4.0056432
0.027578087
4.1948713
0.028882644
4.390592
0.030263558
4.6147879
0.031731582
4.8545809
0.033289925
5.111633
0.034946987
5.3895342
0.036648859
5.6831864
0.038437888
5.9931563
0.040434348
6.3230704
0.042634733
6.7007378
7.0743031
0.04470871
0.0027471066
0.13689664
0.0029490629
0.078465097
0.0032361549
0.032874076
0.003590593
0.031707985
0.0038642523
0.085018357
0.0039360744
0.13139631
0.0040053908
0.1430077
0.0041782727
0.12209081
0.0044355594
0.074318293
0.0046971057
0.067050814
0.0049633335
0.11026808
0.0051694169
0.16971971
0.0053763543
0.18675631
0.0056307814
0.1864189
0.0059647051
0.17815764
0.0063147208
0.18178116
0.0066603069
0.19000364
0.0070363821
0.19590418
0.0074374645
0.2101102
0.0077844445
0.25109318
0.0080664713
0.31325919
0.0083401087
0.35974582
0.0086622437
0.38977258
0.0090428922
0.41034944
0.0094688466
0.43082871
0.009951518
0.4543094
0.010470096
0.47730972
0.011027037
0.51902538
0.011609805
0.55955014
0.012241319
0.61585563
0.012888736
0.72355746
0.013560107
0.80351484
0.014204209
0.96845656
0.01485793
1.0441066
0.015385676
1.2238331
0.016095432
1.4555879
0.016705856
1.5573979
0.017176427
2.0498562
0.017524538
2.077462
0.018027405
2.4441633
0.01850195
2.453739
0.019058122
2.7665498
0.019790308
2.7403042
0.020373587
3.0569836
0.021227339
3.097474
0.022071085
3.2464053
0.023097362
3.3611787
0.024137335
3.5280125
0.025252506
3.6616683
0.026413942
3.8335703
0.027659506
4.004404
0.028964859
4.193571
0.030334105
4.3892238
0.031783452
4.6133337
0.03332405
4.8530412
0.034959477
5.1100156
0.036698827
5.3878356
0.038484913
5.6813918
0.040362262
5.9912619
0.042457594
6.3210837
0.0447673
6.6986523
7.0720997
0.0469468
0.0029052684
0.13687709
0.0031175117
0.078261989
0.0034183632
0.032597336
0.0037901492
0.031373173
0.0040793663
0.084722525
0.0041553923
0.13128795
0.0042284686
0.14288635
0.0044102931
0.12189455
0.0046796104
0.074038489
0.004953804
0.066812711
0.0052335015
0.11000484
0.0054501273
0.16949201
0.0056675642
0.18652084
0.0059347449
0.18615632
0.0062859238
0.17783381
0.0066542252
0.18144551
0.0070177893
0.18965795
0.0074128218
0.1955135
0.0078341423
0.20968691
0.0081977072
0.25071621
0.0084931066
0.31293825
0.0087798157
0.35942528
0.0091178356
0.38941487
0.0095173263
0.4099487
0.0099645791
0.43038943
0.01047141
0.45381376
0.011016062
0.47677495
0.011600822
0.51844852
0.012212592
0.5589477
0.012875277
0.61519849
0.013555117
0.7228921
0.014259993
0.8027771
0.014935936
0.96781769
0.015622086
1.0432978
0.016175727
1.2233339
0.016921193
1.4545764
0.017562415
1.556833
0.018055531
2.0494589
0.018419753
2.0770575
0.018946738
2.4435672
0.019443669
2.4533082
0.020026205
2.7660274
0.020794703
2.739561
0.021406797
3.0563233
0.022302571
3.0966458
0.023187669
3.2455993
0.024264749
3.3602378
0.025356129
3.526979
0.026526359
3.6605154
0.027745245
3.8323459
0.029052172
4.0031037
0.030422074
4.1922064
0.031859155
4.3877878
0.033380364
4.6118073
0.034997017
4.8514256
0.036713351
5.1083183
0.038539027
5.3860527
0.040413494
5.6795084
0.042383457
5.9892741
0.04458252
6.3189986
0.047006757
6.6964636
7.0697882
0.049293317
0.0030731411
0.13685709
0.003296208
0.078048466
0.0036114482
0.032307465
0.0040013323
0.031022541
0.0043070324
0.08441001
0.0043876208
0.13117364
0.0044646565
0.14275823
0.00465589
0.121688
0.0049377562
0.073745568
0.0052251886
0.066563209
0.0055189933
0.10972859
0.005746757
0.16925271
0.0059752285
0.18627373
0.0062558161
0.18588059
0.0066251436
0.17749343
0.0070127146
0.18109248
0.0073951939
0.18929407
0.0078101591
0.19510272
0.0082527554
0.2092417
0.0086336959
0.25032068
0.0089430624
0.31260165
0.0092434362
0.35908914
0.0095980933
0.38903948
0.010017348
0.40952814
0.010486965
0.42992823
0.011019155
0.45329336
0.011591173
0.47621335
0.012205146
0.51784291
0.012847359
0.55831534
0.013542823
0.61450886
0.014256734
0.72219341
0.014996787
0.8020025
0.01570614
0.96714726
0.01642629
1.0424487
0.017007047
1.2228106
0.017789988
1.4535129
0.018463591
1.55624
0.018980186
2.0490436
0.019361222
2.0766339
0.019913439
2.442942
0.020433795
2.4528568
0.021043966
2.7654804
0.021850559
2.738781
0.022492802
3.0556302
0.02343265
3.0957767
0.024361097
3.2447537
0.025491485
3.3592506
0.026636818
3.5258948
0.027864791
3.6593058
0.029143978
3.831061
0.030515247
4.0017393
0.031952865
4.1907743
0.033461168
4.3862806
0.035057696
4.6102054
0.036754196
4.8497302
0.038555382
5.1065371
0.040471615
5.3841812
0.042438792
5.6775321
0.04450595
5.9871883
0.046813819
6.3168103
0.049358112
6.6941665
7.0673653
0.051755035
0.0032509917
0.1368366
0.0034854386
0.077823991
0.0038157169
0.032003888
0.0042244479
0.03065549
0.0045475633
0.084079882
0.004633106
0.13105293
0.004714349
0.14262292
0.0049155116
0.12147058
0.0052104504
0.073438964
0.0055117265
0.066301792
0.005820308
0.10943875
0.0060598099
0.1690012
0.0062998653
0.18601443
0.0065945881
0.185591
0.0069830615
0.17713563
0.0073909596
0.18072114
0.0077933415
0.18891099
0.0082291788
0.19467084
0.0086940979
0.20877345
0.0090932809
0.24990562
0.0094172912
0.31224856
0.0097319456
0.35873665
0.010104013
0.38864559
0.010543993
0.40908681
0.011037121
0.42944399
0.01159593
0.45274696
0.01219672
0.47562353
0.012841348
0.51720711
0.013515517
0.55765157
0.014245379
0.61378512
0.014995037
0.72145973
0.01577205
0.80118917
0.016516468
0.96644367
0.017272316
1.0415574
0.017881531
1.222262
0.018703751
1.4523946
0.019411365
1.5556178
0.019952608
2.0486096
0.020351135
2.0761904
0.020929816
2.4422863
0.021474608
2.452384
0.022113713
2.7649076
0.022960141
2.7379626
0.02363408
3.0549029
0.024620138
3.0948649
0.025594082
3.2438662
0.026780387
3.358215
0.02798227
3.5247573
0.02927084
3.6580367
0.030613275
3.8297126
0.032052053
4.0003078
0.033560743
4.1892713
0.035143703
4.3846988
0.036819313
4.6085241
0.038599537
4.8479511
0.040489765
5.1046678
0.042501042
5.3822168
0.044565497
5.6754586
0.04673457
5.9849996
0.049156664
6.3145138
0.0518271
6.6917557
7.0648218
0.054343754
0.0034398421
0.13681568
0.003686285
0.077587983
0.0040322853
0.031685992
0.0044606523
0.03027139
0.0048022266
0.083731106
0.0048931296
0.1309254
0.0049788557
0.14247995
0.0051904366
0.12124174
0.0054990126
0.073118065
0.0058147718
0.06602791
0.006138846
0.10913466
0.0063907325
0.16873682
0.0066429544
0.18574237
0.0069525716
0.18528679
0.0073611728
0.17675956
0.007790496
0.18033052
0.0082138039
0.18850766
0.0086716039
0.19421671
0.0091600103
0.20828087
0.0095782907
0.24947004
0.0099175943
0.31187842
0.010247175
0.35836703
0.010637504
0.38823228
0.011099216
0.40862369
0.011617017
0.42893558
0.012203782
0.45217325
0.01283477
0.4750041
0.013511581
0.51653964
0.01421933
0.55695479
0.01498532
0.61302556
0.015772564
0.72068925
0.016588396
0.80033514
0.017369569
0.96570532
0.018162882
1.0406218
0.018801933
1.2216869
0.019665381
1.4512188
0.020408671
1.5549648
0.020975628
2.0481562
0.02139242
2.0757261
0.02199875
2.4415987
0.022569137
2.4518886
0.02323856
2.7643077
0.024126755
2.737104
0.024833971
3.0541395
0.025868482
3.0939079
0.026890037
3.2429348
0.028135001
3.3571285
0.029396277
3.5235639
0.030748425
3.6567052
0.032157231
3.8282976
0.033666821
3.9988057
0.035250061
4.1876941
0.036911402
4.3830388
0.038669918
4.6067597
0.040538039
4.8460842
0.042521691
5.1027057
0.04463267
5.3801551
0.046799157
5.6732827
0.049075141
5.9827029
0.051617192
6.3121038
0.054419869
6.6892257
7.0621531
0.057060601
0.0036404733
0.13679422
0.0038995288
0.077339858
0.004261976
0.031353104
0.0047107842
0.029869586
0.0050718905
0.083362612
0.005168615
0.13079051
0.0052591023
0.14232885
0.005481676
0.12100084
0.0058044501
0.072782254
0.0061353608
0.065740984
0.0064756395
0.10881572
0.006740622
0.16845886
0.0070056267
0.18545693
0.0073309151
0.1849672
0.0077607599
0.17636427
0.0082127344
0.17991954
0.0086580377
0.18808296
0.0091388403
0.19373922
0.0096518864
0.20776273
0.010090269
0.2490128
0.010445583
0.3114901
0.010790744
0.35797946
0.011200161
0.38779867
0.011684666
0.40813774
0.012228399
0.42840177
0.012844549
0.45157084
0.013507265
0.47435357
0.014217875
0.5158389
0.014960845
0.55622339
0.015764749
0.6122284
0.016591456
0.71988014
0.017448049
0.79943839
0.018267804
0.96493048
0.019100439
1.0396396
0.019770795
1.221084
0.02067749
1.4499828
0.021458269
1.5542791
0.022052159
2.0476826
0.022487947
2.07524
0.023123174
2.4408779
0.023720261
2.4513698
0.024421405
2.7636795
0.025353295
2.7362035
0.026095417
3.0533382
0.027180771
3.0929037
0.028252264
3.2419572
0.029558784
3.3559887
0.030882329
3.5223119
0.032301169
3.6553084
0.033779587
3.8268128
0.035363461
3.9972296
0.037024888
4.186039
0.038768479
4.3812966
0.040614024
4.604908
0.042574275
4.8441253
0.044655931
5.1006463
0.046871526
5.3779911
0.049145045
5.6709991
0.051533228
5.9802929
0.054201024
6.3095749
0.057142301
6.6865708
7.0593524
0.059913086
0.0038537453
0.13677217
0.0041260791
0.07707902
0.0045056928
0.031004538
0.0049757647
0.029449414
0.0053575945
0.082973213
0.0054606608
0.13064769
0.0055562034
0.14216911
0.0057903194
0.12074725
0.0061278712
0.072430893
0.006474621
0.065440426
0.0068319079
0.10848121
0.0071107009
0.16816657
0.007389133
0.18515749
0.0077309291
0.18463143
0.008183149
0.17594879
0.0086589544
0.17948715
0.0091273814
0.18763572
0.0096323837
0.19323711
0.010171376
0.2072176
0.010630768
0.24853287
0.01100279
0.31108269
0.011364246
0.3575731
0.011793677
0.38734377
0.012302066
0.40762784
0.012873033
0.42784127
0.013519969
0.45093836
0.014216008
0.47367036
0.014962077
0.51510327
0.015742055
0.55545563
0.016585816
0.61139172
0.017453985
0.71903045
0.018353378
0.79849676
0.01921359
0.96411735
0.020087466
1.0386085
0.02079062
1.2204521
0.021742635
1.4486835
0.022562751
1.5535594
0.023184765
2.0471879
0.023640309
2.0747312
0.024305837
2.4401221
0.024930805
2.4508263
0.025665154
2.7630215
0.026642837
2.7352589
0.027421568
3.0524973
0.028560178
3.0918504
0.029683965
3.2409317
0.031055077
3.354793
0.032443917
3.5209983
0.033932684
3.653843
0.035484172
3.8252545
0.037145904
3.9955758
0.038889377
4.184302
0.040719171
4.3794684
0.04265596
4.6029647
0.04471289
4.8420698
0.046897362
5.0984848
0.049222676
5.3757202
0.051608485
5.6686024
0.054114218
5.9777642
0.056913901
6.3069212
0.060000594
6.6837847
7.0564124
0.062908341
0.0040805922
0.13674961
0.00436693
0.076804833
0.004764434
0.030639586
0.0052566172
0.029010187
0.005660418
0.082561672
0.0057703623
0.13049632
0.0058713282
0.14200016
0.0061175762
0.12048031
0.0064705225
0.072063334
0.0068338244
0.065125634
0.0072089223
0.10813045
0.0075023088
0.16785915
0.0077948397
0.1848434
0.0081540196
0.1842786
0.0086298343
0.17551211
0.009130868
0.17903211
0.0096235993
0.18716469
0.010153934
0.19270917
0.010720152
0.20664411
0.011201668
0.24802901
0.011591191
0.31065536
0.011969609
0.35714712
0.012419968
0.3868666
0.012953402
0.40709285
0.013552944
0.42725279
0.014232287
0.45027423
0.014963322
0.47295284
0.01574664
0.51433097
0.016565438
0.5546497
0.017450985
0.61051359
0.018362693
0.71813812
0.019307041
0.79750799
0.020209702
0.96326406
0.021126833
1.0375261
0.021864435
1.2197897
0.022863956
1.4473177
0.023725413
1.5528039
0.024376784
2.0466716
0.02485293
2.0741987
0.025550048
2.4393299
0.026204074
2.4502571
0.026973174
2.7623323
0.027998783
2.7342681
0.028815861
3.0516149
0.030010297
3.0907445
0.031188935
3.2398563
0.032627752
3.3535386
0.034085101
3.5196203
0.035647244
3.6523059
0.037275312
3.8236193
0.039018728
3.9938406
0.040848205
4.1824794
0.042768468
4.3775498
0.044800983
4.6009255
0.046959265
4.8399132
0.049251542
5.0962165
0.051691941
5.3733371
0.054195474
5.6660874
0.05682473
5.9751109
0.059762634
6.3041365
0.063001961
6.680861
7.0533269
0.066053279
0.004321808
0.1367266
0.0046228683
0.076516675
0.0050389567
0.030257556
0.0055540902
0.028551253
0.0059812625
0.082126603
0.0060987278
0.13033569
0.0062054995
0.14182137
0.0064644984
0.12019929
0.006833438
0.071678955
0.007214028
0.064795994
0.0076077994
0.10776267
0.0079166256
0.16753572
0.0082239785
0.18451395
0.0086014666
0.18390782
0.0091021691
0.17505315
0.0096297499
0.17855323
0.010147971
0.18666863
0.010705016
0.192154
0.011299897
0.20604074
0.011804553
0.24750009
0.012212305
0.31020727
0.012608494
0.35670058
0.013080791
0.3863661
0.013640482
0.40653154
0.014270075
0.42663488
0.014983349
0.44957694
0.015751141
0.47219929
0.016573544
0.51352023
0.017433153
0.55380368
0.018362627
0.6095919
0.019320096
0.71720101
0.020311652
0.79646969
0.02125884
0.96236866
0.022221364
1.03639
0.02299503
1.2190954
0.024044413
1.445882
0.024949222
1.5520109
0.02563131
2.0461327
0.026128821
2.0736414
0.026859019
2.4384993
0.027543428
2.4496608
0.028348916
2.7616104
0.029424681
2.733229
0.030282027
3.0506886
0.031535014
3.0895834
0.032771096
3.2387283
0.034280949
3.3522226
0.035810154
3.5181746
0.037449263
3.6506935
0.039157685
3.8219034
0.040986766
3.9920199
0.042906474
4.1805669
0.044921644
4.3755364
0.04705453
4.5987857
0.049319165
4.8376505
0.051724574
5.093836
0.054285666
5.3708361
0.056912708
5.6634484
0.059671533
5.972327
0.062754468
6.3012143
0.06615393
6.677793
7.0500888
0.069356008
0.0045777209
0.13670295
0.0048943
0.076213796
0.0053295907
0.029857844
0.0058684887
0.028072005
0.0063204777
0.081666594
0.0064461269
0.13016509
0.0065591573
0.14163209
0.0068315861
0.11990342
0.0072171889
0.071277041
0.007615821
0.064450869
0.0080291244
0.10737717
0.0083542426
0.16719541
0.0086771804
0.18416841
0.0090739455
0.18351814
0.0096008965
0.1745708
0.01015657
0.17804913
0.010701615
0.18614612
0.011286606
0.19157031
0.011911604
0.20540596
0.012440647
0.24694481
0.012867515
0.30973743
0.01328221
0.3562326
0.013777424
0.3858412
0.014364644
0.40594266
0.015025787
0.42598608
0.015774781
0.44884478
0.016581228
0.47140784
0.017444691
0.51266908
0.018347102
0.55291559
0.019322657
0.60862448
0.020328162
0.7162169
0.021369309
0.79537935
0.022363223
0.96142903
0.023373413
1.0351973
0.024184922
1.2183678
0.02528656
1.4443727
0.026236996
1.5511786
0.0269512
2.0455706
0.027470949
2.0730583
0.028235732
2.4376283
0.028951788
2.4490362
0.02979536
2.7608543
0.030923658
2.7321393
0.031823242
3.0497164
0.033137589
3.0883643
0.034433898
3.2375452
0.036018295
3.350842
0.037622916
3.516658
0.039342737
3.6490022
0.041135484
3.8201027
0.043054434
3.9901095
0.045068811
4.17856
0.047183499
4.3734233
0.049421736
4.5965403
0.051797906
4.8352767
0.05432201
5.091338
0.057009763
5.3682116
0.059766375
5.6606796
0.06266106
5.9694059
0.065896195
6.2981477
0.069463664
6.6745738
7.0466915
0.072823345
0.0048500716
0.13667848
0.0051828854
0.075895428
0.0056379816
0.029439871
0.006201473
0.027571878
0.0066799359
0.081180037
0.0068145716
0.12998365
0.0069343253
0.1414316
0.0072208539
0.11959187
0.007623756
0.070856973
0.0080411984
0.064089612
0.0084749819
0.10697314
0.0088173649
0.16683723
0.0091566708
0.18380604
0.0095737737
0.18310852
0.010128429
0.17406391
0.010713678
0.17751845
0.011286798
0.18559583
0.011901253
0.19095659
0.012557944
0.2047381
0.013112472
0.24636219
0.013559247
0.30924492
0.013993291
0.35574218
0.014512566
0.38529072
0.015128661
0.40532486
0.015822946
0.42530482
0.016609366
0.44807604
0.017456354
0.47057664
0.018362881
0.51177555
0.019310287
0.55198327
0.020334285
0.607609
0.021390333
0.71518328
0.022483541
0.79423435
0.023526448
0.96044305
0.024586603
1.0339454
0.025437769
1.2176052
0.026594239
1.4427861
0.027592445
1.5503052
0.028340159
2.0449844
0.028883066
2.0724482
0.029684008
2.4367149
0.030433124
2.4483815
0.031316547
2.7600624
0.032499831
2.7309966
0.033443769
3.048696
0.03482245
3.0870852
0.036181802
3.236304
0.037844372
3.3493937
0.039528068
3.515067
0.041332543
3.6472282
0.043213708
3.8182131
0.0452269
3.988105
0.047340542
4.1764542
0.04955968
4.3712056
0.051908385
4.5941843
0.054401535
4.8327864
0.057050059
5.0887168
0.059870684
5.3654573
0.062763184
5.6577748
0.065800317
5.9663411
0.069195169
6.2949299
0.072938859
6.6711957
7.0431273
0.076463825
0.0051403915
0.13665301
0.005490166
0.075560698
0.0059656399
0.029003115
0.0065545882
0.027050303
0.0070612543
0.080665267
0.0072056766
0.12979051
0.0073326721
0.14121914
0.0076340522
0.11926377
0.0080549843
0.070418054
0.008492046
0.063711528
0.0089472493
0.10654984
0.0093078577
0.16646023
0.0096643845
0.18342602
0.010102881
0.18267796
0.010686755
0.1735313
0.011303268
0.17695968
0.011905936
0.18501627
0.012551284
0.19031142
0.013241329
0.20403542
0.013822741
0.24575052
0.014290356
0.30872864
0.014744522
0.35522839
0.015288884
0.38471352
0.015935208
0.4046768
0.016664269
0.42458954
0.017490068
0.44726885
0.018379751
0.46970359
0.019331551
0.51083748
0.020326137
0.55100458
0.021400915
0.60654311
0.022509978
0.71409774
0.023657867
0.79303193
0.024752191
0.95940844
0.025864788
1.0326314
0.026757538
1.2168061
0.027971478
1.4411181
0.02901995
1.5493888
0.029802681
2.0443734
0.030369541
2.0718099
0.031208214
2.4357574
0.031991752
2.4476953
0.032916822
2.7592331
0.034157612
2.7297984
0.035148062
3.047625
0.036594147
3.0857438
0.038019587
3.2350019
0.0397641
3.3478744
0.041530709
3.5133982
0.043424
3.6453676
0.045397882
3.8162304
0.047509861
3.9860021
0.049727626
4.1742446
0.052056242
4.3688782
0.054520771
4.5917123
0.057136626
4.8301735
0.059915652
5.0859666
0.062875588
5.3625673
0.065910591
5.6547272
0.069097399
5.9631252
0.072659489
6.2915542
0.076587935
6.6676511
7.0393882
0.080286527
0.0054490719
0.13662678
0.0058165503
0.075208685
0.0063129552
0.028547099
0.0069281574
0.026506806
0.0074649373
0.080120441
0.0076201318
0.12958466
0.0077549799
0.14099387
0.0080719585
0.11891833
0.0085115814
0.069959543
0.0089690785
0.063315906