/*--------------------------------*- C++ -*----------------------------------*\
| =========                 |                                                 |
| \\      /  F ield         | OpenFOAM: The Open Source CFD Toolbox           |
|  \\    /   O peration     | Version:  2506                                  |
|   \\  /    A nd           | Website:  www.openfoam.com                      |
|    \\/     M anipulation  |                                                 |
\*---------------------------------------------------------------------------*/
FoamFile
{
    version     2.0;
    format      ascii;
    arch        "LSB;label=32;scalar=64";
    class       volScalarField;
    location    "2";
    object      alphat;
}
// * * * * * * * * * * * * * * * * * * * * * * * * * * * * * * * * * * * * * //

dimensions      [1 -1 -1 0 0 0 0];

internalField   nonuniform List<scalar> 
1375
(
0.020204231
0.01970245
0.019142986
0.018624879
0.018157079
0.017790431
0.017537289
0.017333036
0.017083857
0.021842721
0.021412984
0.020798612
0.0202569
0.019808504
0.019521164
0.019372165
0.019226411
0.018955274
0.018576968
0.024708896
0.024347075
0.023620709
0.02299056
0.022473344
0.022177848
0.02205503
0.021882182
0.021469032
0.020872746
0.028685047
0.028469114
0.027618189
0.026935918
0.026389188
0.026154403
0.026173456
0.026122201
0.025735748
0.025125609
0.034376941
0.034624756
0.033761317
0.033239498
0.032840507
0.032837168
0.033200918
0.033537384
0.033491113
0.033174838
0.042160272
0.043221791
0.042405923
0.042163382
0.041950514
0.04217946
0.042879983
0.043641612
0.044017381
0.044038721
0.051704579
0.053330756
0.052789899
0.052764342
0.052619324
0.05291744
0.05378963
0.054849961
0.055590154
0.055913503
0.062138629
0.064177658
0.063866453
0.063976911
0.063776572
0.063974695
0.064844943
0.06606104
0.067096307
0.067738924
0.072749189
0.075033085
0.07489666
0.075104759
0.074801082
0.074792213
0.075527411
0.076779906
0.078033925
0.079014106
0.083033313
0.085410835
0.085415949
0.085719043
0.085341191
0.085096584
0.085611352
0.086800976
0.088176211
0.089431826
0.092636151
0.094978974
0.09509007
0.095490973
0.095119892
0.094694602
0.0949592
0.096000282
0.097383395
0.098765415
0.10127997
0.10347928
0.10364196
0.10412565
0.10385182
0.10336907
0.10341861
0.10424536
0.10551824
0.10687662
0.10813712
0.10873339
0.11070716
0.11085156
0.11137887
0.11125797
0.11085909
0.11078543
0.11137258
0.11243095
0.11363511
0.11474637
0.11482664
0.11652235
0.11659014
0.11710963
0.11713731
0.11691386
0.11683098
0.11720974
0.11799025
0.1189269
0.11977523
0.11951931
0.12080522
0.12086074
0.12131999
0.12144452
0.12139595
0.12137653
0.12161704
0.12213238
0.12277261
0.12334771
0.1228113
0.12363841
0.12379283
0.12415111
0.12431263
0.12437575
0.12442916
0.12460208
0.12492651
0.12532965
0.12569468
0.12486862
0.12540304
0.12558132
0.1258441
0.12600077
0.12610839
0.12620648
0.12635428
0.12657159
0.12682646
0.12705734
0.12597862
0.12631348
0.12648135
0.12667352
0.12680949
0.12692217
0.12703313
0.127167
0.1273299
0.12750473
0.12765998
0.12640532
0.1266045
0.12675526
0.12690115
0.12701794
0.12712253
0.12722792
0.12734459
0.12747353
0.12760457
0.12772065
0.12638753
0.12650432
0.12663864
0.12675626
0.12686055
0.12695764
0.1270538
0.12715302
0.12725668
0.12736083
0.12745671
0.1261292
0.12620595
0.1263271
0.12642842
0.12652493
0.1266174
0.12670746
0.12679532
0.12688307
0.12697134
0.12705707
0.12578655
0.12585277
0.12596531
0.12605821
0.12614922
0.12623812
0.12632508
0.12640838
0.12648952
0.12657094
0.12665237
0.12545811
0.12552915
0.1256373
0.12572757
0.12581585
0.12590261
0.12598831
0.12607061
0.1261499
0.12622877
0.12630791
0.12518848
0.12526812
0.12537464
0.12546665
0.1255561
0.12564372
0.12572973
0.12581188
0.12588994
0.12596669
0.12604349
0.12498592
0.12507266
0.12517878
0.12527454
0.12536762
0.12545832
0.12554611
0.1256288
0.12570562
0.12577972
0.12585358
0.12484144
0.12493346
0.12503855
0.1251361
0.12523112
0.12532419
0.12541441
0.12549925
0.12557688
0.12564926
0.12572091
0.12579131
0.12474281
0.1248385
0.12494157
0.12503856
0.12513309
0.12522582
0.12531619
0.12540158
0.12548094
0.12555445
0.12562608
0.12569734
0.12467739
0.12477658
0.1248773
0.12497312
0.12506586
0.12515595
0.12524382
0.12532772
0.12540773
0.12548433
0.12555722
0.12562999
0.12463798
0.12473754
0.12483667
0.12493162
0.12502326
0.12511103
0.12519639
0.12527877
0.12535805
0.12543653
0.12551284
0.12558449
0.12461383
0.12471347
0.12481069
0.12490491
0.124996
0.1250827
0.12516716
0.12524882
0.12532788
0.12540482
0.12548061
0.12555232
0.12460093
0.12469967
0.1247952
0.12488857
0.12497963
0.12506653
0.12514996
0.12523087
0.12530967
0.12538617
0.12546054
0.12553211
0.12459495
0.12469379
0.1247885
0.12488093
0.12497135
0.12505812
0.12514127
0.1252221
0.12530017
0.12537593
0.12544776
0.12551627
0.12558223
0.12459623
0.1246948
0.12478849
0.12487937
0.12496857
0.12505496
0.12513855
0.12521972
0.12529753
0.12537183
0.1254427
0.12550906
0.12557299
0.12460444
0.12470143
0.12479388
0.12488317
0.12497082
0.12505668
0.12513978
0.12521975
0.12529627
0.12536918
0.12543826
0.12550411
0.1255672
0.12461585
0.12471215
0.12480373
0.12489175
0.12497737
0.12506164
0.12514363
0.1252225
0.12529783
0.12536981
0.12543799
0.12550371
0.12556706
0.12562848
0.12463248
0.12472753
0.12481833
0.12490529
0.12498882
0.12507058
0.12515028
0.1252274
0.12530122
0.12537213
0.12543993
0.12550566
0.12556982
0.12563056
0.12465378
0.12474691
0.12483615
0.12492246
0.12500515
0.12508499
0.12516244
0.1252375
0.12531
0.12537961
0.12544691
0.12551203
0.12557539
0.12563564
0.12468117
0.12477247
0.1248598
0.12494486
0.12502674
0.12510547
0.12518107
0.12525391
0.12532488
0.12539355
0.12545976
0.12552329
0.12558505
0.12564509
0.12570338
0.12471582
0.12480521
0.12489008
0.12497271
0.12505289
0.12513059
0.12520567
0.1252778
0.12534735
0.12541444
0.12547894
0.12554129
0.1256018
0.12566058
0.12571795
0.12475763
0.1248456
0.12492871
0.12500945
0.12508766
0.12516339
0.12523665
0.12530751
0.1253762
0.12544256
0.12550631
0.12556814
0.12562802
0.1256858
0.12574176
0.12579573
0.12480946
0.12489552
0.12497684
0.12505563
0.12513184
0.12520576
0.12527738
0.12534709
0.12541478
0.12548014
0.12554309
0.12560425
0.12566358
0.125721
0.12577602
0.12582986
0.12588245
0.1248744
0.12495801
0.12503721
0.12511423
0.12518881
0.12526123
0.1253314
0.1253996
0.1254657
0.12552968
0.1255918
0.12565213
0.12571062
0.12576693
0.12582187
0.12587543
0.12592698
0.12495691
0.12503791
0.12511464
0.12518982
0.12526269
0.12533326
0.12540161
0.12546805
0.12553273
0.12559545
0.12565657
0.12571617
0.12577356
0.12582942
0.125884
0.12593625
0.12598739
0.12603751
0.12506191
0.12514048
0.12521487
0.12528791
0.1253588
0.12542783
0.12549485
0.1255599
0.12562307
0.12568454
0.12574428
0.12580236
0.12585888
0.1259139
0.12596709
0.126019
0.12606976
0.12611889
0.12616653
0.12519867
0.12527527
0.12534743
0.12541819
0.12548699
0.12555407
0.12561932
0.12568284
0.1257447
0.12580467
0.1258629
0.12591967
0.12597502
0.12602893
0.12608151
0.12613269
0.1261827
0.12623174
0.1262791
0.12632525
0.12537968
0.12545381
0.12552354
0.125592
0.12565879
0.12572381
0.12578717
0.12584902
0.12590929
0.12596793
0.12602501
0.1260807
0.12613506
0.12618815
0.12623992
0.12629044
0.12634003
0.12638856
0.12643577
0.12648206
0.12652738
0.12657173
0.12562572
0.12569704
0.12576396
0.12582993
0.12589432
0.12595721
0.12601871
0.126079
0.12613795
0.12619533
0.12625142
0.12630662
0.12636039
0.12641295
0.12646451
0.12651513
0.1265645
0.12661288
0.12666026
0.12670667
0.12675222
0.12679709
0.12684064
0.12597176
0.1260387
0.126104
0.1261679
0.12623059
0.12629203
0.12635245
0.12641179
0.12646983
0.12652674
0.12658317
0.12663837
0.1266922
0.12674528
0.12679785
0.12684873
0.12689864
0.12694805
0.12699638
0.12704369
0.12709013
0.12713569
0.1271804
0.1272242
0.12726703
0.12563323
0.12576366
0.12585535
0.12595113
0.12604232
0.12613111
0.12621736
0.12630113
0.1263826
0.1264621
0.1265399
0.12661621
0.12669143
0.12676563
0.1268383
0.12690913
0.12697829
0.12704549
0.12711073
0.1271747
0.12723809
0.12730111
0.12736328
0.1274238
0.12748236
0.12753893
0.1275937
0.020744837
0.0225303
0.025662829
0.030021927
0.036116596
0.044221314
0.053965026
0.064451615
0.074986245
0.085097066
0.094449032
0.10277262
0.10988097
0.11566211
0.12004951
0.12311206
0.12497412
0.12594028
0.12627708
0.12621378
0.12594221
0.125606
0.12529347
0.12504237
0.12485617
0.12472284
0.1246295
0.1245742
0.12453551
0.1245152
0.1245056
0.12450179
0.12450514
0.12451524
0.12452863
0.12454624
0.12456965
0.12459931
0.12463535
0.12467889
0.12473318
0.12480043
0.12488554
0.12499305
0.12513135
0.12531442
0.1255633
0.12590753
0.12553053
0.021211822
0.023155189
0.026574103
0.031335937
0.037882197
0.046377743
0.056330118
0.066869111
0.077322868
0.087245028
0.096319731
0.10430099
0.11105385
0.11650044
0.12056115
0.12336717
0.12505162
0.12589272
0.12615009
0.12604641
0.12576431
0.12543654
0.12514126
0.12490866
0.12473703
0.1246119
0.12452523
0.12447892
0.12444041
0.12442467
0.12441814
0.12441761
0.12442289
0.12443408
0.12444867
0.1244676
0.12449293
0.12452427
0.12456183
0.12460725
0.12466322
0.1247326
0.12481941
0.1249288
0.12506848
0.12525289
0.1255039
0.12584499
0.12542738
0.021654808
0.023780509
0.027503286
0.032669
0.039655376
0.04850904
0.058635058
0.069186211
0.079519217
0.089214915
0.097983964
0.1056171
0.11202784
0.11715572
0.1209298
0.12351781
0.12506626
0.12581376
0.12601043
0.12587679
0.12558981
0.12527305
0.12499524
0.12477937
0.12461964
0.12450141
0.1244271
0.12438367
0.12434737
0.12433618
0.12433212
0.12433326
0.12434013
0.12435264
0.12436859
0.12438956
0.1244167
0.12444943
0.12448857
0.12453571
0.12459332
0.12466498
0.1247536
0.1248643
0.12500544
0.12519117
0.12544421
0.12578171
0.12532196
0.022123542
0.024466519
0.02851809
0.034090969
0.041489005
0.050640922
0.060881077
0.07138485
0.081543612
0.090971029
0.099413455
0.1067049
0.11280004
0.11764543
0.12118591
0.12360039
0.12503813
0.12570978
0.12585823
0.12570331
0.12541698
0.12511382
0.12485328
0.12465217
0.12450191
0.12439312
0.1243341
0.12428767
0.12425654
0.12424786
0.12424529
0.12424829
0.12425732
0.1242716
0.12428951
0.12431226
0.12434042
0.12437447
0.12441493
0.12446421
0.12452419
0.12459755
0.12468771
0.12479973
0.12494219
0.12512925
0.12538416
0.12571772
0.12521459
0.022636752
0.025225369
0.029631829
0.035617717
0.043400748
0.052800026
0.063104687
0.073517381
0.08346857
0.092609941
0.10072815
0.10769875
0.11350858
0.11809951
0.1214343
0.12368616
0.12500561
0.12559674
0.12569824
0.1255259
0.12524353
0.12495501
0.12471094
0.1245226
0.12438136
0.12428934
0.12423755
0.1241908
0.12416505
0.12415918
0.12415916
0.1241645
0.12417539
0.12419118
0.12421066
0.12423455
0.12426397
0.1242995
0.12434175
0.12439325
0.1244552
0.12453012
0.1246216
0.12473511
0.12487894
0.12506717
0.12532368
0.12565323
0.12510563
0.023181642
0.026032489
0.030812094
0.037215391
0.045367143
0.054988486
0.065339506
0.075653656
0.085401631
0.094272991
0.10209121
0.10876531
0.11430662
0.11863963
0.12175538
0.12381869
0.12499076
0.12548436
0.12553386
0.12534478
0.12506787
0.12479471
0.12456647
0.12438955
0.12426111
0.12418943
0.12413687
0.12409538
0.12407545
0.12407202
0.12407376
0.1240808
0.12409351
0.12411071
0.12413144
0.12415679
0.12418775
0.12422498
0.12426941
0.12432277
0.12438607
0.12446262
0.12455557
0.12467043
0.12481571
0.12500504
0.12526266
0.12558794
0.12499513
0.023728193
0.026843288
0.031999638
0.038818665
0.047331954
0.057172831
0.067580192
0.077817676
0.087392724
0.096026949
0.10357234
0.10996231
0.11522996
0.11927523
0.12213678
0.12397895
0.12498195
0.12536882
0.12536549
0.12516168
0.12489184
0.12463415
0.12442059
0.12425621
0.12414901
0.12408935
0.12403642
0.12400161
0.1239863
0.12398489
0.12398867
0.12399784
0.12401205
0.12403064
0.1240528
0.12407949
0.12411207
0.12415102
0.12419706
0.12425175
0.12431689
0.12439538
0.12448966
0.12460586
0.12475246
0.12494285
0.12520128
0.12552173
0.12488268
0.024249416
0.027615826
0.033136183
0.040359409
0.049226915
0.05928956
0.069766324
0.079947191
0.08937159
0.097787361
0.10506855
0.11116908
0.11614796
0.11988427
0.12247977
0.12410275
0.12494815
0.12524056
0.12519368
0.12498023
0.12471927
0.12447677
0.12427707
0.12412726
0.1240439
0.12398602
0.12393791
0.1239098
0.1238979
0.12389812
0.12390402
0.12391542
0.1239313
0.12395095
0.12397458
0.12400283
0.12403696
0.12407723
0.12412466
0.12418093
0.12424782
0.1243277
0.12442358
0.12454124
0.12468926
0.1248805
0.12513966
0.12545495
0.12476742
0.024739952
0.028335754
0.034194114
0.041796357
0.050997123
0.061266765
0.071802929
0.081918426
0.091182661
0.099369099
0.10637466
0.11217736
0.11686797
0.12031552
0.12268143
0.1241323
0.12486382
0.12509232
0.12501896
0.12480369
0.12455379
0.12432529
0.12413806
0.1240095
0.12394247
0.12388227
0.12384073
0.12381877
0.12381097
0.12381291
0.12382032
0.12383328
0.12385071
0.12387179
0.12389648
0.12392635
0.12396206
0.12400375
0.12405252
0.12411034
0.12417861
0.12425994
0.12435746
0.12447674
0.12462594
0.12481805
0.1250778
0.12538762
0.12464831
0.025217763
0.029017826
0.035181444
0.043124331
0.052618033
0.063056309
0.073616451
0.083633361
0.092708231
0.10064459
0.10736772
0.11288441
0.11731656
0.12053227
0.12273188
0.12407143
0.12473597
0.12492964
0.12484443
0.12463287
0.1243945
0.1241784
0.12400556
0.12390325
0.12384037
0.12378138
0.12374605
0.12372841
0.12372326
0.12372713
0.12373628
0.12375105
0.12377029
0.12379292
0.12381919
0.12385042
0.1238873
0.12393014
0.12398058
0.12403961
0.12410892
0.12419187
0.12429138
0.12441219
0.12456256
0.12475567
0.12501564
0.12531988
0.12452441
0.025710379
0.029695802
0.036139081
0.04438515
0.05412656
0.064689839
0.075237772
0.085128846
0.093998307
0.10168257
0.10813757
0.11339797
0.1176098
0.12064419
0.12272026
0.1239809
0.12459898
0.12476879
0.1246766
0.12446995
0.12424151
0.1240359
0.12388195
0.12380098
0.12373471
0.1236814
0.1236521
0.1236385
0.12363618
0.1236419
0.12365301
0.12366949
0.12368997
0.12371391
0.12374202
0.1237745
0.12381233
0.12385678
0.12390857
0.12396863
0.12403951
0.12412376
0.12422493
0.12434747
0.12449916
0.12469327
0.12495319
0.12525138
0.12439514
0.026230623
0.030398862
0.037118474
0.045653109
0.055620044
0.066290712
0.076821411
0.086594778
0.095274796
0.10272815
0.10893794
0.11396328
0.11796998
0.1208252
0.12276855
0.12393428
0.12448998
0.12462481
0.12451959
0.12431431
0.1240934
0.12389954
0.12376941
0.12369888
0.12362987
0.1235837
0.12355949
0.12354946
0.12354967
0.1235572
0.12356999
0.12358789
0.12360975
0.12363514
0.1236644
0.12369832
0.12373775
0.1237833
0.12383581
0.12389753
0.12397009
0.12405583
0.12415835
0.12428251
0.12443552
0.12463067
0.1248907
0.12518253
0.12426032
0.088244066
0.096776444
0.10403156
0.11001142
0.11479367
0.11857348
0.12119884
0.12295299
0.12397142
0.12442594
0.12450328
0.12437453
0.12416603
0.12395064
0.12377022
0.12366545
0.12359549
0.12352791
0.12348832
0.12346821
0.12346095
0.12346347
0.1234728
0.12348693
0.12350627
0.12352952
0.12355638
0.12358713
0.12362219
0.12366261
0.12370911
0.12376324
0.12382639
0.12390018
0.12398773
0.12409176
0.1242174
0.12437157
0.12456783
0.12482822
0.1251132
0.12411963
0.12402262
0.1238122
0.12365105
0.12356566
0.12349088
0.12342861
0.12339454
0.12337764
0.12337342
0.12337807
0.12338834
0.12340419
0.12342484
0.12344954
0.12347773
0.12350951
0.12354565
0.1235873
0.12363512
0.12369059
0.12375518
0.1238304
0.12391927
0.12402491
0.12415203
0.12430742
0.12450464
0.1247655
0.12504334
0.12397077
0.12328737
0.12329336
0.12330559
0.1233229
0.1233445
0.12336993
0.12339912
0.12343193
0.12346926
0.12351182
0.12356096
0.12361781
0.12368378
0.12376064
0.1238509
0.12395794
0.12408639
0.12424291
0.12444115
0.12470243
0.12497293
0.12381438
0.1233545
0.12339287
0.12343655
0.12348692
0.12354502
0.12361233
0.12369054
0.12378231
0.12389076
0.12402054
0.12417814
0.12437748
0.12463909
0.12490188
0.1236484
0.12347241
0.12354074
0.12362038
0.12371362
0.12382335
0.12395435
0.12411304
0.12431375
0.12457553
0.12482989
0.12346886
0.1236445
0.12375555
0.12388774
0.12404762
0.12424983
0.12451195
0.12475728
0.12328219
0.12398194
0.12418566
0.12444827
0.12468384
0.12310803
0.12438417
0.12460994
0.12293682
0.12276686
)
;

boundaryField
{
    Side
    {
        type            empty;
    }
    Inlet
    {
        type            calculated;
        value           nonuniform List<scalar> 
48
(
0.13279695
0.13279613
0.13279437
0.13279273
0.13279132
0.13278995
0.13278858
0.13278795
0.13278859
0.13279158
0.13279446
0.13279754
0.13280064
0.13280191
0.13280221
0.13280382
0.13280545
0.13280599
0.13280769
0.13281022
0.13281088
0.13280841
0.13280092
0.13279399
0.13279008
0.13278885
0.13278876
0.13279707
0.13279659
0.13279558
0.13279386
0.13279154
0.13278913
0.13278689
0.13278439
0.13278151
0.13278003
0.13277985
0.13277996
0.13278008
0.13277985
0.13277908
0.1327775
0.13277633
0.13277627
0.13277635
0.13277644
0.13277657
)
;
    }
    Airfoil
    {
        type            compressible::alphatWallFunction;
        value           nonuniform List<scalar> 0();
    }
    Outlet
    {
        type            calculated;
        value           nonuniform List<scalar> 0();
    }
    procBoundary3to2
    {
        type            processor;
        value           nonuniform List<scalar> 
65
(
0.018216438
0.020313226
0.024616086
0.032991969
0.044156308
0.05623211
0.068247688
0.079766933
0.090468734
0.10001048
0.10001048
0.10896997
0.11542777
0.12026245
0.12368225
0.12592382
0.12721412
0.12777152
0.12780984
0.12753741
0.12713579
0.12673158
0.12638696
0.12612054
0.12592768
0.12592768
0.125862
0.12576718
0.12569985
0.12565359
0.12562044
0.12559962
0.12559962
0.12564612
0.12563547
0.12562906
0.12562906
0.12568669
0.12568833
0.12569432
0.12569432
0.12575908
0.12577304
0.12577304
0.12584853
0.12584853
0.12593253
0.12597648
0.12597648
0.12608522
0.12608522
0.12621327
0.12621327
0.12637064
0.12637064
0.12641473
0.12661518
0.12661518
0.12688324
0.12688324
0.12692507
0.12730896
0.12730896
0.12735
0.12764675
)
;
    }
    procBoundary3to4
    {
        type            processor;
        value           nonuniform List<scalar> 
57
(
0.031134497
0.03815288
0.046992452
0.057199138
0.067999763
0.078548205
0.078548205
0.090153223
0.098588755
0.10567669
0.11143105
0.11595711
0.11943639
0.12176886
0.12326389
0.12407887
0.12439619
0.12439777
0.12423788
0.12423788
0.12388212
0.12367962
0.12354228
0.12346633
0.12338689
0.1233318
0.12330235
0.1232892
0.1232892
0.1232027
0.12321039
0.12322355
0.12324152
0.12326391
0.12329023
0.1233205
0.1233205
0.1232772
0.12331696
0.12336188
0.12341325
0.12341325
0.1233997
0.12346907
0.12354993
0.12354993
0.12357483
0.12368712
0.12382058
0.12382058
0.12391607
0.12412114
0.12412114
0.12431949
0.12453567
0.12453567
0.12259525
)
;
    }
    procBoundary3to10
    {
        type            processor;
        value           nonuniform List<scalar> 
23
(
0.020197332
0.019718411
0.019208755
0.018724999
0.018239518
0.017804216
0.017470056
0.017228991
0.016766589
0.017006638
0.016766589
0.020757505
0.021258684
0.021711588
0.022151393
0.022611808
0.02309659
0.023586578
0.024063584
0.024526172
0.024994991
0.025497024
0.026039822
)
;
    }
    procBoundary3to11
    {
        type            processor;
        value           uniform 0.026764521;
    }
}


// ************************************************************************* //
