/*--------------------------------*- C++ -*----------------------------------*\
| =========                 |                                                 |
| \\      /  F ield         | OpenFOAM: The Open Source CFD Toolbox           |
|  \\    /   O peration     | Version:  2506                                  |
|   \\  /    A nd           | Website:  www.openfoam.com                      |
|    \\/     M anipulation  |                                                 |
\*---------------------------------------------------------------------------*/
FoamFile
{
    version     2.0;
    format      ascii;
    arch        "LSB;label=32;scalar=64";
    class       volScalarField;
    location    "2.997";
    object      alphat;
}
// * * * * * * * * * * * * * * * * * * * * * * * * * * * * * * * * * * * * * //

dimensions      [1 -1 -1 0 0 0 0];

internalField   nonuniform List<scalar> 
1375
(
0.12866093
0.12936697
0.12775807
0.1280965
0.12858847
0.12929545
0.12745231
0.12769743
0.12803214
0.12851938
0.1292284
0.12708812
0.12721725
0.12739808
0.12763923
0.12797029
0.12845356
0.12916568
0.1269646
0.12704625
0.12717032
0.12734627
0.1275834
0.12791088
0.12839102
0.12910725
0.12688053
0.12692892
0.1270064
0.12712561
0.12729675
0.12752982
0.12785381
0.12833157
0.12905225
0.1268107
0.12682484
0.12684974
0.12689493
0.12696842
0.12708296
0.1272494
0.1274784
0.12779897
0.12827487
0.12900005
0.12678095
0.12678563
0.12679787
0.12682041
0.12686258
0.12693228
0.12704234
0.12720418
0.1274291
0.12774631
0.12822071
0.12894977
0.12675909
0.12675851
0.12676169
0.12677215
0.12679247
0.1268318
0.12689788
0.12700364
0.12716101
0.12738186
0.12769574
0.12816907
0.12890206
0.12674375
0.12673884
0.12673703
0.12673882
0.12674759
0.12676583
0.12680246
0.12686512
0.12696677
0.1271198
0.12733659
0.12764717
0.12811991
0.12885753
0.12673319
0.12672547
0.12671946
0.12671649
0.12671697
0.12672415
0.12674042
0.1267745
0.12683392
0.12693164
0.12708047
0.12729325
0.12760052
0.12807291
0.12881574
0.12672697
0.12671671
0.12670797
0.12670094
0.12669687
0.12669611
0.12670177
0.12671619
0.12674785
0.12680422
0.1268982
0.12704294
0.12725177
0.12755572
0.12802759
0.12877567
0.12671218
0.12670096
0.12669126
0.12668324
0.12667813
0.1266762
0.12668043
0.1266931
0.12672247
0.12677596
0.12686638
0.12700715
0.12721211
0.12751273
0.12798357
0.1287371
0.1267115
0.12669805
0.12668591
0.1266753
0.12666636
0.12666026
0.12665721
0.12666008
0.1266711
0.12669831
0.12674907
0.1268361
0.12697303
0.1271742
0.12747149
0.12794084
0.12870011
0.12671507
0.1266989
0.12668458
0.12667157
0.12666008
0.12665026
0.12664321
0.1266391
0.12664068
0.12665015
0.12667531
0.12672349
0.12680729
0.12694052
0.127138
0.12743194
0.12789959
0.12866482
0.12672382
0.12670393
0.1266869
0.12667173
0.1266579
0.12664558
0.12663492
0.12662697
0.12662185
0.1266222
0.1266302
0.12665342
0.12669916
0.12677989
0.12690955
0.12710344
0.12739401
0.12786003
0.1286314
0.1267141
0.12669335
0.12667551
0.12665954
0.12664492
0.12663181
0.12662035
0.12661152
0.12660546
0.12660463
0.12661124
0.12663262
0.12667605
0.12675385
0.1268801
0.12707049
0.12735768
0.12782224
0.12859985
0.12673124
0.1267049
0.12668335
0.12666473
0.126648
0.12663263
0.12661877
0.12660654
0.12659688
0.1265899
0.12658795
0.12659325
0.12661287
0.12665412
0.12672914
0.12685211
0.1270391
0.12732291
0.12778615
0.12856994
0.1267582
0.12672338
0.12669624
0.12667392
0.12665458
0.12663713
0.12662104
0.12660645
0.12659349
0.12658303
0.12657518
0.12657215
0.1265762
0.12659415
0.12663333
0.12670571
0.12682553
0.12700919
0.1272896
0.12775145
0.12854157
0.12675182
0.12671618
0.12668827
0.12666523
0.12664518
0.12662704
0.12661026
0.12659497
0.12658129
0.12657005
0.12656136
0.12655729
0.12656015
0.12657651
0.12661375
0.12668364
0.12680048
0.12698099
0.12725817
0.12771876
0.12851491
0.022270613
0.02184362
0.02143925
0.021050386
0.020666864
0.020281484
0.019892359
0.019504539
0.019143211
0.018784271
0.018406668
0.018008578
0.017586132
0.017135067
0.016645157
0.016080411
0.015481638
0.014858912
0.014234899
0.013653953
0.02573959
0.025261635
0.024772039
0.024327582
0.023878212
0.023437244
0.023012091
0.022606897
0.022224791
0.021863681
0.0215253
0.021215043
0.020938823
0.02070263
0.02051103
0.020360731
0.020244706
0.020174545
0.020149222
0.020166484
0.020222594
0.020321305
0.030697219
0.030417421
0.03018974
0.030023115
0.029919385
0.02988496
0.029922227
0.030021864
0.030174091
0.030373717
0.030613074
0.030885393
0.031183872
0.031502293
0.031839293
0.03220135
0.032604409
0.033048767
0.033525371
0.034026039
0.034540007
0.035056465
0.039277067
0.039433828
0.039659199
0.039946761
0.040304638
0.040726389
0.041212336
0.041742283
0.042300166
0.042885399
0.043486117
0.044094539
0.044704978
0.045314382
0.045921532
0.04652612
0.047125805
0.047716732
0.048293042
0.048847661
0.049373441
0.049864828
0.0503164
0.050633288
0.051173198
0.051750818
0.052361133
0.052998889
0.053656757
0.054329924
0.055012083
0.055696777
0.056377239
0.057045517
0.057695824
0.058324189
0.058927994
0.059506167
0.060056855
0.060578224
0.061067684
0.061522131
0.061937732
0.062311343
0.062643056
0.062932944
0.062986728
0.063688695
0.064395072
0.065101656
0.065803818
0.066498073
0.067183363
0.067857974
0.068517889
0.069159242
0.069777105
0.070367655
0.07092892
0.071459674
0.071959419
0.072427558
0.072863544
0.073266716
0.073635878
0.073969037
0.074265066
0.074526043
0.074751738
0.07500561
0.075732994
0.076446378
0.077144571
0.07782519
0.078488557
0.079135064
0.079764967
0.08037726
0.08096952
0.081538995
0.082083696
0.082602754
0.083096058
0.083563806
0.084006153
0.084423318
0.08481544
0.085181912
0.085521042
0.08583165
0.086114067
0.086361433
0.086126239
0.086827459
0.087508406
0.088170364
0.088813688
0.08943946
0.090048868
0.090642783
0.091220884
0.091781838
0.092324019
0.092846265
0.093348145
0.09382966
0.09429081
0.09473138
0.095151046
0.095549206
0.095924202
0.096273033
0.096592766
0.096879972
0.097120869
0.09611136
0.096769169
0.097406091
0.098024522
0.098625796
0.099211026
0.099781208
0.10033683
0.1008775
0.10140219
0.10190962
0.10239884
0.10286934
0.10332084
0.10375291
0.10416483
0.10455568
0.10492414
0.10526777
0.10558291
0.10586597
0.1061119
0.10630604
0.10479622
0.105395
0.1059729
0.10653253
0.10707534
0.10760216
0.10811342
0.1086091
0.1090886
0.10955101
0.10999532
0.1104208
0.11082704
0.11121374
0.11158048
0.11192656
0.11225108
0.1125527
0.11282913
0.1130774
0.11329491
0.11347757
0.11361436
0.11255605
0.11305457
0.11353438
0.11399692
0.11444286
0.11487237
0.11528523
0.11568099
0.11605911
0.11641912
0.11676079
0.11708411
0.11738919
0.11767603
0.11794444
0.11819395
0.11842369
0.11863202
0.11881713
0.11897769
0.11911096
0.11920946
0.11818153
0.11858663
0.11897352
0.1193438
0.11969822
0.120037
0.12036008
0.12066735
0.12095874
0.12123432
0.12149428
0.12173896
0.12196877
0.12218406
0.12238497
0.12257143
0.12274282
0.12289803
0.12303604
0.12315625
0.12325679
0.12333275
0.12337949
0.12232725
0.12263989
0.12293671
0.12321941
0.12348887
0.12374542
0.12398917
0.1242202
0.12443873
0.12464509
0.12483963
0.12502277
0.12519493
0.12535653
0.12550787
0.12564901
0.12577953
0.12589868
0.12600586
0.12610075
0.12618193
0.12624616
0.12629071
0.12516487
0.12539941
0.1256217
0.12583338
0.1260353
0.12622776
0.12641086
0.12658468
0.12674948
0.12690558
0.12705331
0.12719299
0.12732486
0.12744923
0.12756637
0.12767636
0.12777895
0.12787364
0.12796012
0.1280381
0.12810649
0.12816318
0.12820653
0.12692737
0.12710359
0.1272711
0.12743134
0.12758501
0.12773231
0.12787321
0.12800769
0.12813592
0.12825814
0.12837462
0.12848553
0.12859101
0.12869116
0.12878612
0.12887592
0.12896038
0.12903922
0.12911226
0.12917923
0.12923925
0.1292909
0.12933311
0.12785198
0.12798776
0.12811761
0.12824272
0.12836366
0.12848051
0.12859314
0.12870143
0.12880541
0.12890526
0.12900116
0.12909326
0.12918159
0.12926616
0.12934694
0.12942386
0.12949673
0.12956534
0.12962955
0.12968911
0.12974335
0.12979134
0.12983235
0.12815032
0.12825828
0.12836213
0.12846291
0.12856104
0.12865656
0.1287493
0.12883907
0.12892581
0.1290096
0.12909058
0.12916887
0.12924451
0.12931746
0.12938763
0.12945486
0.12951893
0.12957964
0.1296368
0.12969014
0.12973916
0.12978325
0.12982188
0.12985462
0.12801164
0.12809979
0.12818489
0.12826779
0.12834889
0.12842819
0.1285055
0.12858063
0.12865346
0.128724
0.12879234
0.12885857
0.12892273
0.12898482
0.12904472
0.12910228
0.12915726
0.12920944
0.12925861
0.12930448
0.12934667
0.12938472
0.12941824
0.1294469
0.12762036
0.12769533
0.1277678
0.12783852
0.12790782
0.1279757
0.128042
0.12810651
0.12816912
0.1282298
0.12828858
0.12834553
0.12840069
0.12845404
0.12850549
0.12855488
0.12860201
0.12864665
0.12868856
0.12872748
0.12876308
0.12879503
0.12882303
0.12884682
0.12714878
0.12721741
0.12728385
0.12734871
0.12741227
0.12747453
0.12753536
0.12759459
0.12765209
0.12770781
0.12776178
0.12781401
0.12786454
0.12791332
0.12796026
0.12800523
0.12804802
0.12808842
0.12812623
0.12816118
0.12819302
0.12822151
0.12824644
0.12826762
0.1282849
0.12671773
0.12678527
0.12685069
0.12691449
0.12697688
0.12703788
0.1270974
0.12715528
0.12721143
0.1272658
0.12731837
0.12736917
0.12741818
0.12746536
0.12751062
0.12755384
0.12759483
0.12763343
0.12766944
0.12770268
0.12773294
0.12776008
0.12778394
0.12780444
0.1278215
0.12637584
0.12644446
0.12651089
0.12657549
0.12663845
0.1266998
0.12675948
0.12681739
0.12687346
0.12692763
0.1269799
0.12703027
0.12707871
0.12712519
0.12716963
0.12721192
0.12725193
0.12728951
0.12732453
0.12735686
0.12738636
0.12741295
0.12743656
0.12745716
0.12747474
0.12612241
0.12619224
0.12625972
0.12632516
0.12638871
0.12645043
0.12651028
0.1265682
0.12662416
0.12667811
0.12673005
0.12677996
0.12682784
0.12687364
0.12691731
0.12695877
0.12699792
0.12703467
0.12706893
0.1271006
0.12712964
0.12715599
0.12717966
0.12720066
0.12721904
0.12723479
0.1259401
0.12601062
0.12607869
0.12614453
0.1262083
0.12627004
0.12632977
0.12638744
0.12644305
0.12649658
0.126548
0.12659733
0.12664454
0.12668962
0.12673251
0.12677318
0.12681157
0.12684762
0.12688127
0.1269125
0.12694128
0.12696762
0.12699155
0.12701313
0.12703242
0.12704946
0.12588183
0.12595004
0.12601591
0.12607957
0.12614106
0.12620043
0.12625766
0.12631276
0.1263657
0.12641651
0.12646517
0.12651169
0.12655604
0.1265982
0.12663816
0.1266759
0.12671138
0.1267446
0.12677556
0.12680426
0.12683074
0.12685507
0.12687732
0.12689756
0.12691586
0.12693232
0.12579137
0.1258594
0.12592502
0.12598833
0.1260494
0.12610826
0.12616492
0.1262194
0.1262717
0.12632183
0.1263698
0.12641562
0.12645928
0.12650078
0.12654012
0.12657732
0.12661237
0.12664529
0.12667609
0.12670484
0.12673157
0.12675636
0.12677931
0.12680048
0.12681995
0.12683782
0.12572804
0.12579566
0.12586082
0.12592363
0.12598414
0.12604239
0.1260984
0.1261522
0.12620382
0.12625326
0.12630054
0.12634568
0.12638869
0.1264296
0.12646842
0.12650517
0.12653989
0.12657262
0.12660338
0.12663225
0.12665928
0.12668456
0.12670817
0.1267302
0.12675073
0.12676983
0.1267877
0.12568352
0.12575053
0.12581508
0.12587726
0.12593711
0.12599468
0.12605
0.12610309
0.126154
0.12620275
0.12624936
0.12629386
0.12633629
0.12637666
0.12641503
0.12645143
0.12648591
0.12651851
0.1265493
0.12657834
0.12660569
0.12663144
0.12665568
0.12667849
0.12669993
0.12672011
0.12673916
0.12565175
0.12571801
0.12578183
0.12584327
0.12590239
0.12595922
0.12601381
0.12606619
0.12611638
0.12616445
0.12621041
0.12625432
0.1262962
0.12633611
0.12637409
0.1264102
0.1264445
0.12647704
0.1265079
0.12653712
0.1265648
0.126591
0.12661581
0.1266393
0.12666155
0.12668263
0.12670267
0.12562848
0.12569387
0.12575684
0.12581746
0.12587578
0.12593183
0.12598566
0.1260373
0.1260868
0.1261342
0.12617954
0.12622289
0.12626428
0.12630377
0.12634142
0.12637729
0.12641146
0.12644398
0.12647492
0.12650435
0.12653233
0.12655895
0.12658427
0.12660837
0.12663131
0.12665315
0.12667403
0.12567522
0.12573725
0.12579697
0.12585442
0.12590965
0.12596269
0.12601359
0.12606239
0.12610913
0.12615389
0.12619671
0.12623764
0.12627676
0.12631413
0.12634982
0.12638388
0.1264164
0.12644744
0.12647706
0.12650533
0.12653232
0.1265581
0.12658273
0.12660626
0.12662876
0.12665033
0.12566023
0.12572124
0.12577999
0.12583653
0.12589089
0.12594312
0.12599326
0.12604136
0.12608747
0.12613165
0.12617397
0.12621449
0.12625327
0.12629039
0.1263259
0.12635988
0.1263924
0.12642353
0.12645332
0.12648184
0.12650916
0.12653534
0.12656042
0.12658447
0.12660752
0.12662967
0.12564806
0.12570799
0.12576569
0.12582124
0.12587468
0.12592605
0.1259754
0.12602278
0.12606826
0.12611187
0.12615371
0.12619381
0.12623227
0.12626914
0.12630448
0.12633838
0.12637089
0.12640208
0.12643202
0.12646075
0.12648834
0.12651485
0.12654032
0.1265648
0.12658832
0.12661097
0.1256973
0.1257539
0.12580839
0.12586084
0.1259113
0.12595982
0.12600644
0.12605124
0.12609427
0.1261356
0.12617528
0.12621339
0.12624999
0.12628515
0.12631893
0.1263514
0.12638261
0.12641264
0.12644153
0.12646933
0.1264961
0.12652188
0.12654671
0.12657063
0.12659368
0.12568967
0.12574505
0.12579838
0.12584973
0.12589917
0.12594676
0.12599255
0.1260366
0.12607898
0.12611975
0.12615896
0.12619669
0.12623299
0.12626792
0.12630156
0.12633395
0.12636515
0.12639522
0.12642421
0.12645216
0.12647913
0.12650514
0.12653025
0.12655447
0.12657787
0.12568524
0.12573928
0.12579133
0.12584148
0.12588981
0.12593637
0.12598123
0.12602445
0.12606611
0.12610625
0.12614494
0.12618224
0.12621819
0.12625287
0.12628631
0.12631857
0.12634971
0.12637978
0.12640882
0.12643688
0.126464
0.12649021
0.12651555
0.12654004
0.12656372
0.12573692
0.12578752
0.12583629
0.12588333
0.1259287
0.12597249
0.12601477
0.12605562
0.12609509
0.12613322
0.12617006
0.12620566
0.12624006
0.12627332
0.12630548
0.12633658
0.12636667
0.12639578
0.12642395
0.12645122
0.12647763
0.12650321
0.12652796
0.12655194
0.12573668
0.12578575
0.12583308
0.12587878
0.12592295
0.12596566
0.126007
0.12604703
0.12608581
0.12612338
0.12615977
0.12619503
0.12622919
0.1262623
0.12629439
0.1263255
0.12635567
0.12638491
0.12641327
0.12644076
0.12646742
0.12649328
0.12651836
0.12654268
0.12578641
0.12583226
0.1258766
0.12591955
0.12596118
0.12600159
0.12604085
0.126079
0.12611608
0.12615211
0.12618713
0.12622115
0.1262542
0.12628632
0.12631754
0.12634789
0.12637739
0.12640605
0.12643391
0.126461
0.12648733
0.12651292
0.1265378
0.12583263
0.12587604
0.12591817
0.12595914
0.125999
0.12603782
0.12607564
0.1261125
0.12614844
0.12618346
0.12621759
0.12625085
0.12628326
0.12631484
0.12634561
0.1263756
0.12640479
0.12643323
0.12646092
0.12648789
0.12651415
0.12653972
0.12583982
0.12588269
0.1259244
0.12596504
0.12600468
0.12604336
0.12608114
0.12611806
0.12615412
0.12618936
0.12622378
0.12625741
0.12629029
0.12632243
0.12635386
0.12638458
0.12641461
0.12644395
0.12647262
0.12650061
0.12652796
0.12655467
0.12589804
0.12594033
0.12598162
0.12602196
0.12606139
0.12609995
0.12613766
0.12617457
0.12621069
0.12624607
0.1262807
0.1263146
0.1263478
0.12638031
0.12641217
0.12644337
0.12647394
0.12650389
0.12653322
0.12656196
0.12659014
0.12597873
0.12602089
0.12606223
0.12610275
0.12614248
0.12618144
0.12621965
0.12625712
0.12629389
0.12632998
0.12636541
0.12640021
0.12643441
0.12646802
0.12650105
0.1265335
0.12656537
0.12659666
0.12662741
0.12665765
0.12608976
0.12613311
0.12617583
0.12621789
0.1262593
0.12630004
0.12634011
0.12637951
0.12641824
0.12645631
0.12649373
0.12653052
0.12656672
0.12660231
0.12663731
0.12667172
0.12670555
0.12673882
0.12677159
0.12631127
0.12635551
0.12639925
0.12644244
0.12648506
0.1265271
0.12656854
0.12660937
0.12664958
0.12668916
0.12672811
0.12676644
0.12680414
0.12684123
0.12687769
0.12691356
0.12694896
0.12657523
0.12662282
0.12666999
0.12671667
0.12676283
0.1268084
0.12685328
0.12689745
0.12694085
0.12698346
0.12702528
0.12706628
0.12710649
0.12714591
0.12718458
0.1272227
0.12710237
0.12715304
0.12720274
0.12725144
0.12729905
0.12734539
0.12739051
0.12743456
0.12747768
0.12752005
0.12756166
0.1276024
0.12764215
0.12768123
0.12812467
0.1281598
0.12819337
0.12822581
0.12825759
0.12828894
0.12832026
0.12835221
0.12838467
0.12841691
0.12844842
0.12847947
)
;

boundaryField
{
    Side
    {
        type            empty;
    }
    Inlet
    {
        type            calculated;
        value           nonuniform List<scalar> 
32
(
0.1328326
0.132833
0.13283331
0.13283355
0.13283371
0.1328338
0.13283383
0.13283382
0.13283376
0.13283366
0.13283351
0.13283332
0.13283309
0.13283281
0.13283248
0.1328321
0.13283168
0.1328312
0.13283068
0.13283017
0.13282109
0.13282201
0.13282291
0.13282378
0.13282463
0.13282545
0.13282623
0.13282698
0.13282768
0.13282834
0.13282898
0.13282961
)
;
    }
    Airfoil
    {
        type            compressible::alphatWallFunction;
        value           nonuniform List<scalar> 0();
    }
    Outlet
    {
        type            calculated;
        value           nonuniform List<scalar> 0();
    }
    procBoundary2to1
    {
        type            processor;
        value           nonuniform List<scalar> 
71
(
0.12873695
0.12944321
0.12782138
0.12816361
0.12816361
0.12750908
0.12750908
0.12713221
0.12726661
0.12726661
0.12700213
0.12700213
0.12691282
0.12691282
0.12683695
0.1268531
0.1268531
0.12680443
0.12680443
0.12678023
0.12678023
0.12676283
0.12676283
0.1267504
0.1267504
0.12674243
0.12674243
0.1267385
0.12672468
0.12672468
0.12672674
0.12672674
0.12673405
0.12673405
0.12674838
0.12673956
0.12673956
0.12676516
0.12676516
0.12680482
0.12679937
0.12679937
0.050711241
0.063165173
0.074922169
0.086542172
0.09728016
0.10642169
0.11368978
0.11926477
0.11926477
0.12339796
0.12631578
0.12823627
0.12936539
0.12986585
0.12986585
0.1298807
0.1294702
0.12886609
0.12886609
0.12829794
0.12783495
0.12748924
0.12748924
0.12724793
0.12706431
0.12706431
0.12694711
0.12685427
0.12685427
)
;
    }
    procBoundary2to3
    {
        type            processor;
        value           nonuniform List<scalar> 
65
(
0.022716947
0.026213762
0.031016695
0.039174222
0.050131227
0.062290527
0.074263184
0.085401755
0.095428826
0.10417282
0.11203633
0.11203633
0.11775574
0.12199627
0.1249157
0.12674036
0.1277085
0.12803676
0.12791915
0.12754181
0.12707708
0.12664739
0.12630448
0.12604983
0.1258668
0.12581108
0.12581108
0.12572075
0.12565783
0.12561392
0.12558294
0.12556058
0.1256108
0.1256108
0.12559687
0.12558585
0.12563854
0.12563854
0.12563219
0.12562915
0.12568444
0.12568444
0.12568584
0.12573903
0.12573903
0.12578798
0.12578798
0.12579585
0.12585482
0.12585482
0.12593578
0.12593578
0.12604577
0.12604577
0.12622137
0.12626652
0.12626652
0.12652702
0.12652702
0.12699723
0.12705028
0.12705028
0.12804934
0.12808792
0.12808792
)
;
    }
    procBoundary2to8
    {
        type            processor;
        value           nonuniform List<scalar> 3(0.020468444 0.035562073 0.035562073);
    }
    procBoundary2to9
    {
        type            processor;
        value           nonuniform List<scalar> 
23
(
0.018909299
0.018292919
0.017687575
0.017092234
0.016504894
0.015919797
0.015336674
0.014758471
0.014188273
0.013627075
0.01307892
0.012549617
0.01204451
0.011569534
0.011132122
0.010743337
0.010422811
0.010194516
0.010033851
0.0098481482
0.013065632
0.013065632
0.012457419
)
;
    }
}


// ************************************************************************* //
