/*--------------------------------*- C++ -*----------------------------------*\
| =========                 |                                                 |
| \\      /  F ield         | OpenFOAM: The Open Source CFD Toolbox           |
|  \\    /   O peration     | Version:  2506                                  |
|   \\  /    A nd           | Website:  www.openfoam.com                      |
|    \\/     M anipulation  |                                                 |
\*---------------------------------------------------------------------------*/
FoamFile
{
    version     2.0;
    format      ascii;
    arch        "LSB;label=32;scalar=64";
    class       volScalarField;
    location    "0.007";
    object      p;
}
// * * * * * * * * * * * * * * * * * * * * * * * * * * * * * * * * * * * * * //

dimensions      [1 -1 -2 0 0 0 0];

internalField   nonuniform List<scalar> 
13763
(
46870.883
46821.529
46759.508
46728.229
46714.315
46756.429
46810.647
46850.931
46844.601
46828.723
46780.951
46465.791
46861.33
45951.583
47138.018
46985.489
46371.311
46325.464
46874.176
46508.861
46695.803
46912.068
47093.059
47209.739
47181.137
47099.985
47069.05
47097.449
47130.22
47140.62
47149.312
47194.393
47244.458
47227.07
47131.341
47008.033
46900.679
46818.795
46759.404
46719.498
46695.289
46685.827
46695.182
46732.832
46793.89
46859.907
46916.509
46952.887
46870.81
46821.438
46759.376
46728.098
46714.175
46756.396
46810.685
46850.954
46844.593
46828.67
46780.979
46465.509
46861.724
45950.703
47138.439
46985.418
46370.538
46325.658
46873.474
46507.952
46695.016
46910.822
47091.908
47209.277
47181.3
47100.272
47069.135
47097.392
47130.168
47140.598
47149.311
47194.413
47244.465
47227.039
47131.27
47007.947
46900.591
46818.707
46759.319
46719.42
46695.211
46685.75
46695.114
46732.787
46793.86
46859.889
46916.499
46952.884
46966.224
46969.345
46870.719
46821.324
46759.222
46727.953
46714.032
46756.372
46810.738
46850.983
46844.579
46828.609
46780.93
46465.239
46862.037
45949.862
47139.017
46985.263
46369.639
46325.929
46872.827
46506.965
46694.254
46909.564
47090.742
47208.815
47181.453
47100.579
47069.257
47097.369
47130.145
47140.598
47149.33
47194.454
47244.48
47226.998
47131.183
47007.845
46900.488
46818.607
46759.225
46719.334
46695.131
46685.674
46695.05
46732.744
46793.834
46859.874
46916.492
46952.881
46966.223
46969.345
46969.903
46870.612
46821.191
46759.046
46727.792
46713.883
46756.354
46810.801
46851.018
46844.561
46828.538
46780.812
46464.97
46862.298
45949.046
47139.737
46985.062
46368.642
46326.277
46872.226
46505.898
46693.51
46908.289
47089.554
47208.339
47181.6
47100.905
47069.41
47097.372
47130.143
47140.615
47149.367
47194.511
47244.501
47226.948
47131.083
47007.729
46900.373
46818.498
46759.124
46719.243
46695.048
46685.6
46694.988
46732.698
46793.803
46859.856
46916.482
46952.878
46966.223
46969.345
46969.903
46969.988
46969.999
46870.496
46821.045
46758.853
46727.618
46713.727
46756.338
46810.871
46851.058
46844.54
46828.458
46780.648
46464.694
46862.542
45948.229
47140.562
46984.833
46367.563
46326.689
46871.65
46504.757
46692.771
46906.985
47088.318
47207.834
47181.748
47101.251
47069.589
47097.395
47130.155
47140.642
47149.414
47194.578
47244.521
47226.891
47130.971
47007.601
46900.249
46818.38
46759.015
46719.146
46694.963
46685.524
46694.927
46732.646
46793.768
46859.835
46916.47
46952.873
46966.222
46969.345
46969.903
46969.988
46969.999
46970
46970
46870.375
46820.891
46758.65
46727.433
46713.562
46756.32
46810.946
46851.102
46844.52
46828.371
46780.461
46464.404
46862.798
45947.385
47141.454
46984.592
46366.416
46327.153
46871.076
46503.551
46692.017
46905.635
47087.008
47207.282
47181.901
47101.62
47069.787
47097.426
47130.17
47140.674
47149.468
47194.65
47244.54
47226.828
47130.851
47007.465
46900.117
46818.256
46758.901
46719.045
46694.875
46685.447
46694.861
46732.589
46793.729
46859.811
46916.456
46952.867
46966.22
46969.345
46969.903
46969.987
46969.999
46970
46970
46970
46970
46870.25
46820.733
46758.437
46727.237
46713.388
46756.299
46811.023
46851.147
46844.501
46828.279
46780.269
46464.095
46863.084
45946.495
47142.383
46984.348
46365.206
46327.653
46870.481
46502.288
46691.231
46904.22
47085.613
47206.677
47182.06
47102.015
47069.998
47097.458
47130.184
47140.706
47149.524
47194.723
47244.554
47226.76
47130.726
47007.324
46899.979
46818.126
46758.781
46718.938
46694.784
46685.365
46694.789
46732.528
46793.687
46859.785
46916.441
46952.862
46966.219
46969.344
46969.903
46969.987
46969.999
46970
46970
46970
46970
46970
46970
46970
46870.12
46820.569
46758.216
46727.031
46713.203
46756.275
46811.103
46851.194
46844.481
46828.183
46780.08
46463.766
46863.408
45945.546
47143.334
46984.102
46363.94
46328.184
46869.85
46500.972
46690.401
46902.723
47084.132
47206.027
47182.229
47102.433
47070.215
47097.485
47130.193
47140.736
47149.58
47194.795
47244.565
47226.691
47130.596
47007.178
46899.836
46817.99
46758.655
46718.828
46694.689
46685.278
46694.709
46732.464
46793.643
46859.758
46916.426
46952.856
46966.218
46969.344
46969.903
46969.987
46969.999
46970
46970
46970
46970
46970
46970
46970
46970
46970
46869.984
46820.399
46757.984
46726.815
46713.009
46756.247
46811.186
46851.243
46844.46
46828.082
46779.894
46463.417
46863.767
45944.536
47144.305
46983.839
46362.626
46328.742
46869.172
46499.6
46689.519
46901.132
47082.572
47205.345
47182.412
47102.87
47070.437
47097.504
47130.195
47140.762
47149.634
47194.865
47244.575
47226.62
47130.463
47007.027
46899.688
46817.849
46758.525
46718.713
46694.588
46685.185
46694.621
46732.397
46793.597
46859.73
46916.411
46952.85
46966.216
46969.344
46969.903
46969.987
46969.999
46970
46970
46970
46970
46970
46970
46970
46970
46970
46869.842
46820.22
46757.741
46726.588
46712.803
46756.218
46811.275
46851.294
46844.436
46827.976
46779.709
46463.049
46864.156
45943.467
47145.298
46983.554
46361.262
46329.329
46868.445
46498.17
46688.583
46899.446
47080.93
47204.634
47182.61
47103.32
47070.662
47097.517
47130.191
47140.785
47149.686
47194.935
47244.588
47226.548
47130.326
47006.871
46899.534
46817.703
46758.388
46718.592
46694.481
46685.086
46694.528
46732.327
46793.55
46859.701
46916.396
46952.844
46966.215
46969.343
46969.903
46969.987
46969.999
46970
46970
46970
46970
46970
46970
46970
46970
46970
46869.691
46820.031
46757.484
46726.348
46712.587
46756.187
46811.37
46851.348
46844.41
46827.862
46779.518
46462.663
46864.569
45942.342
47146.324
46983.258
46359.841
46329.949
46867.669
46496.673
46687.591
46897.667
47079.206
47203.886
47182.811
47103.783
47070.89
47097.525
47130.184
47140.806
47149.736
47195.006
47244.604
47226.474
47130.185
47006.708
46899.374
46817.549
46758.246
46718.465
46694.367
46684.979
46694.43
46732.254
46793.501
46859.672
46916.38
46952.837
46966.213
46969.343
46969.903
46969.987
46969.999
46970
46970
46970
46970
46970
46970
46970
46970
46970
46869.531
46819.832
46757.212
46726.094
46712.359
46756.155
46811.471
46851.407
46844.381
46827.741
46779.316
46462.26
46865.002
45941.163
47147.394
46982.957
46358.35
46330.607
46866.848
46495.105
46686.546
46895.8
47077.398
47203.093
47183.004
47104.262
47071.126
47097.531
47130.175
47140.826
47149.786
47195.08
47244.623
47226.399
47130.036
47006.538
46899.205
46817.388
46758.096
46718.331
46694.245
46684.865
46694.331
46732.178
46793.45
46859.641
46916.364
46952.831
46966.212
46969.343
46969.903
46969.987
46969.999
46970
46970
46970
46970
46970
46970
46970
46970
46970
46869.363
46819.621
46756.924
46725.824
46712.118
46756.121
46811.58
46851.469
46844.35
46827.611
46779.099
46461.838
46865.451
45939.933
47148.516
46982.638
46356.782
46331.31
46865.984
46493.461
46685.453
46893.85
47075.503
47202.251
47183.189
47104.759
47071.373
47097.539
47130.166
47140.846
47149.838
47195.159
47244.644
47226.32
47129.881
47006.358
46899.028
46817.218
46757.939
46718.189
46694.117
46684.745
46694.23
46732.099
46793.398
46859.61
46916.348
46952.824
46966.21
46969.343
46969.903
46969.987
46969.999
46970
46970
46970
46970
46970
46970
46970
46970
46970
46869.185
46819.398
46756.62
46725.539
46711.864
46756.085
46811.697
46851.536
46844.317
46827.472
46778.863
46461.399
46865.917
45938.651
47149.699
46982.29
46355.132
46332.064
46865.083
46491.741
46684.318
46891.815
47073.513
47201.35
47183.37
47105.277
47071.634
47097.55
47130.157
47140.867
47149.893
47195.245
47244.666
47226.236
47129.717
47006.169
46898.841
46817.04
46757.773
46718.039
46693.982
46684.619
46694.123
46732.017
46793.342
46859.577
46916.33
46952.817
46966.209
46969.342
46969.902
46969.987
46969.999
46970
46970
46970
46970
46970
46970
46970
46970
46970
46868.997
46819.162
46756.297
46725.236
46711.596
46756.047
46811.821
46851.607
46844.282
46827.325
46778.607
46460.94
46866.401
45937.314
47150.947
46981.911
46353.394
46332.876
46864.148
46489.945
46683.145
46889.69
47071.414
47200.379
47183.55
47105.822
47071.914
47097.566
47130.148
47140.889
47149.954
47195.338
47244.69
47226.148
47129.544
47005.97
46898.645
46816.852
46757.598
46717.882
46693.84
46684.489
46694.01
46731.93
46793.284
46859.542
46916.311
46952.809
46966.207
46969.342
46969.902
46969.987
46969.999
46970
46970
46970
46970
46970
46970
46970
46970
46970
46868.799
46818.914
46755.956
46724.915
46711.314
46756.007
46811.955
46851.682
46844.245
46827.168
46778.332
46460.462
46866.905
45935.919
47152.261
46981.502
46351.567
46333.753
46863.181
46488.072
46681.934
46887.465
47069.196
47199.337
47183.732
47106.396
47072.214
47097.585
47130.139
47140.914
47150.02
47195.439
47244.714
47226.054
47129.36
47005.76
46898.438
46816.655
46757.413
46717.716
46693.692
46684.353
46693.89
46731.839
46793.223
46859.506
46916.291
46952.801
46966.205
46969.341
46969.902
46969.987
46969.999
46970
46970
46970
46970
46970
46970
46970
46970
46970
46868.59
46818.651
46755.596
46724.574
46711.017
46755.964
46812.097
46851.762
46844.206
46827.001
46778.038
46459.963
46867.434
45934.462
47153.641
46981.063
46349.647
46334.701
46862.184
46486.119
46680.674
46885.122
47066.856
47198.222
47183.917
47107.003
47072.534
47097.606
47130.131
47140.94
47150.092
47195.544
47244.739
47225.955
47129.167
47005.539
46898.219
46816.446
46757.219
46717.541
46693.536
46684.213
46693.766
46731.743
46793.159
46859.467
46916.27
46952.793
46966.203
46969.341
46969.902
46969.987
46969.999
46970
46970
46970
46970
46970
46970
46970
46970
46970
46868.37
46818.374
46755.216
46724.213
46710.703
46755.919
46812.249
46851.847
46844.163
46826.824
46777.724
46459.443
46867.989
45932.939
47155.088
46980.593
46347.632
46335.727
46861.157
46484.081
46679.356
46882.651
47064.388
47197.04
47184.103
47107.643
47072.872
47097.631
47130.123
47140.97
47150.168
47195.654
47244.764
47225.85
47128.963
47005.306
46897.99
46816.227
46757.015
46717.358
46693.373
46684.066
46693.634
46731.642
46793.091
46859.426
46916.249
46952.784
46966.201
46969.341
46969.902
46969.987
46969.999
46970
46970
46970
46970
46970
46970
46970
46970
46970
46868.137
46818.081
46754.813
46723.829
46710.373
46755.87
46812.412
46851.938
46844.117
46826.635
46777.387
46458.902
46868.572
45931.348
47156.603
46980.092
46345.517
46336.837
46860.095
46481.951
46677.978
46880.058
47061.792
47195.792
47184.288
47108.317
47073.23
47097.657
47130.115
47141.001
47150.249
47195.768
47244.789
47225.738
47128.749
47005.061
46897.749
46815.997
46756.8
46717.167
46693.203
46683.91
46693.496
46731.536
46793.019
46859.383
46916.226
46952.775
46966.199
46969.34
46969.902
46969.987
46969.999
46970
46970
46970
46970
46970
46970
46970
46970
46970
46867.893
46817.77
46754.388
46723.422
46710.025
46755.819
46812.586
46852.034
46844.068
46826.434
46777.027
46458.338
46869.182
45929.686
47158.188
46979.557
46343.299
46338.039
46858.995
46479.729
46676.534
46877.348
47059.067
47194.465
47184.469
47109.022
47073.606
47097.687
47130.108
47141.035
47150.333
47195.885
47244.816
47225.621
47128.524
47004.803
46897.495
46815.754
46756.576
46716.967
46693.024
46683.744
46693.35
46731.424
46792.944
46859.338
46916.202
46952.765
46966.196
46969.34
46969.902
46969.987
46969.999
46970
46970
46970
46970
46970
46970
46970
46970
46970
46867.635
46817.442
46753.938
46722.99
46709.658
46755.764
46812.773
46852.138
46844.015
46826.22
46776.641
46457.749
46869.822
45927.952
47159.846
46978.985
46340.973
46339.341
46857.847
46477.408
46675.031
46874.513
47056.207
47193.044
47184.642
47109.758
47074.003
47097.721
47130.101
47141.071
47150.422
47196.007
47244.843
47225.498
47128.287
47004.533
46897.228
46815.5
46756.34
46716.756
46692.837
46683.568
46693.196
46731.306
46792.865
46859.292
46916.177
46952.755
46966.194
46969.339
46969.902
46969.987
46969.999
46970
46970
46970
46970
46970
46970
46970
46970
46970
46867.362
46817.093
46753.462
46722.53
46709.272
46755.706
46812.974
46852.248
46843.959
46825.991
46776.229
46457.135
46870.49
45926.142
47161.579
46978.372
46338.533
46340.748
46856.649
46474.989
46673.482
46871.547
47053.2
47191.522
47184.804
47110.526
47074.422
47097.76
47130.093
47141.108
47150.513
47196.137
47244.872
47225.369
47128.038
47004.248
46896.947
46815.232
46756.092
46716.535
46692.639
46683.383
46693.035
46731.183
46792.783
46859.243
46916.15
46952.744
46966.192
46969.339
46969.902
46969.987
46969.999
46970
46970
46970
46970
46970
46970
46970
46970
46970
46867.075
46816.724
46752.959
46722.042
46708.865
46755.643
46813.189
46852.366
46843.899
46825.746
46775.788
46456.499
46871.187
45924.255
47163.391
46977.714
46335.975
46342.27
46855.403
46472.481
46671.884
46868.449
47050.031
47189.898
47184.95
47111.329
47074.867
47097.802
47130.085
47141.145
47150.608
47196.275
47244.903
47225.233
47127.776
47003.948
46896.652
46814.952
46755.832
46716.302
46692.43
46683.191
46692.866
46731.054
46792.696
46859.191
46916.123
46952.733
46966.189
46969.338
46969.902
46969.987
46969.999
46970
46970
46970
46970
46970
46970
46970
46970
46970
46866.773
46816.333
46752.427
46721.522
46708.438
46755.577
46813.419
46852.491
46843.835
46825.484
46775.316
46455.84
46871.915
45922.29
47165.282
46977.002
46333.293
46343.918
46854.116
46469.877
46670.222
46865.215
47046.685
47188.164
47185.079
47112.17
47075.338
47097.848
47130.076
47141.182
47150.707
47196.42
47244.936
47225.09
47127.5
47003.634
46896.342
46814.657
46755.558
46716.057
46692.209
46682.991
46692.688
46730.918
46792.605
46859.137
46916.094
46952.721
46966.186
46969.338
46969.902
46969.987
46969.999
46970
46970
46970
46970
46970
46970
46970
46970
46970
46866.454
46815.917
46751.863
46720.969
46707.988
46755.506
46813.667
46852.626
46843.765
46825.204
46774.807
46455.158
46872.67
45920.249
47167.254
46976.23
46330.483
46345.708
46852.803
46467.17
46668.501
46861.822
47043.159
47186.308
47185.191
47113.052
47075.836
47097.9
47130.066
47141.22
47150.812
47196.572
47244.97
47224.939
47127.21
47003.302
46896.016
46814.346
46755.27
46715.799
46691.976
46682.778
46692.501
46730.775
46792.51
46859.08
46916.064
46952.709
46966.183
46969.337
46969.902
46969.987
46969.999
46970
46970
46970
46970
46970
46970
46970
46970
46970
46866.119
46815.476
46751.267
46720.379
46707.516
46755.431
46813.932
46852.77
46843.691
46824.905
46774.258
46454.452
46873.447
45918.137
47169.311
46975.394
46327.543
46347.658
46851.471
46464.37
46666.727
46858.257
47039.455
47184.324
47185.283
47113.975
47076.362
47097.956
47130.056
47141.261
47150.926
47196.732
47245.006
47224.78
47126.905
47002.954
46895.673
46814.019
46754.967
46715.527
46691.733
46682.554
46692.305
46730.625
46792.41
46859.021
46916.032
46952.696
46966.18
46969.337
46969.902
46969.987
46969.999
46970
46970
46970
46970
46970
46970
46970
46970
46970
46865.765
46815.007
46750.636
46719.75
46707.018
46755.349
46814.217
46852.924
46843.611
46824.586
46773.668
46453.722
46874.247
45915.956
47171.453
46974.49
46324.47
46349.786
46850.102
46461.468
46664.891
46854.532
47035.563
47182.204
47185.356
47114.94
47076.918
47098.018
47130.045
47141.303
47151.046
47196.901
47245.043
47224.613
47126.583
47002.588
46895.313
46813.676
46754.648
46715.241
46691.478
46682.319
46692.099
46730.468
46792.305
46858.959
46915.999
46952.682
46966.177
46969.336
46969.901
46969.987
46969.999
46970
46970
46970
46970
46970
46970
46970
46970
46970
46865.392
46814.509
46749.968
46719.08
46706.496
46755.263
46814.523
46853.09
46843.525
46824.245
46773.031
46452.97
46875.067
45913.705
47173.682
46973.517
46321.258
46352.115
46848.681
46458.454
46662.993
46850.656
47031.474
47179.938
47185.406
47115.944
47077.505
47098.088
47130.034
47141.348
47151.173
47197.078
47245.082
47224.436
47126.245
47002.202
46894.933
46813.314
46754.312
46714.94
46691.212
46682.073
46691.882
46730.302
46792.194
46858.894
46915.964
46952.668
46966.174
46969.336
46969.901
46969.987
46969.999
46970
46970
46970
46970
46970
46970
46970
46970
46970
46865
46813.981
46749.261
46718.365
46705.947
46755.17
46814.85
46853.268
46843.432
46823.882
46772.347
46452.195
46875.905
45911.386
47175.997
46972.467
46317.904
46354.656
46847.221
46455.34
46661.042
46846.615
47027.187
47177.51
47185.425
47116.988
47078.127
47098.167
47130.023
47141.396
47151.306
47197.263
47245.123
47224.251
47125.889
47001.797
46894.533
46812.933
46753.96
46714.625
46690.931
46681.814
46691.654
46730.128
46792.078
46858.825
46915.927
46952.653
46966.171
46969.335
46969.901
46969.987
46969.999
46970
46970
46970
46970
46970
46970
46970
46970
46970
46864.586
46813.419
46748.511
46717.602
46705.371
46755.071
46815.201
46853.458
46843.332
46823.494
46771.609
46451.399
46876.757
45909
47178.4
46971.334
46314.4
46357.412
46845.736
46452.136
46659.045
46842.397
47022.693
47174.904
47185.408
47118.073
47078.787
47098.253
47130.013
47141.448
47151.444
47197.458
47245.165
47224.055
47125.514
47001.37
46894.112
46812.532
46753.589
46714.295
46690.633
46681.541
46691.414
46729.946
46791.956
46858.753
46915.889
46952.637
46966.167
46969.334
46969.901
46969.987
46969.999
46970
46970
46970
46970
46970
46970
46970
46970
46970
46864.15
46812.823
46747.717
46716.787
46704.765
46754.965
46815.577
46853.663
46843.223
46823.08
46770.813
46450.582
46877.62
45906.552
47180.889
46970.104
46310.745
46360.418
46844.23
46448.844
46657.002
46837.998
47017.976
47172.103
47185.35
47119.199
47079.485
47098.349
47130.003
47141.501
47151.591
47197.664
47245.21
47223.848
47125.12
47000.92
46893.669
46812.111
46753.199
46713.948
46690.32
46681.255
46691.163
46729.754
46791.829
46858.678
46915.849
46952.621
46966.163
46969.333
46969.901
46969.987
46969.999
46970
46970
46970
46970
46970
46970
46970
46970
46970
46863.691
46812.189
46746.874
46715.916
46704.128
46754.853
46815.979
46853.883
46843.105
46822.638
46769.952
46449.748
46878.488
45904.047
47183.463
46968.77
46306.943
46363.726
46842.71
46445.462
46654.92
46833.414
47013.022
47169.095
47185.248
47120.368
47080.223
47098.456
47129.995
47141.555
47151.747
47197.879
47245.256
47223.631
47124.704
47000.447
46893.204
46811.668
46752.79
46713.583
46689.993
46680.953
46690.898
46729.552
46791.694
46858.599
46915.806
46952.604
46966.159
46969.333
46969.901
46969.987
46969.999
46970
46970
46970
46970
46970
46970
46970
46970
46970
46863.208
46811.517
46745.98
46714.985
46703.458
46754.735
46816.409
46854.119
46842.978
46822.166
46769.022
46448.898
46879.355
45901.495
47186.118
46967.326
46302.99
46367.364
46841.179
46441.997
46652.803
46828.642
47007.822
47165.871
47185.095
47121.577
47081.003
47098.576
47129.987
47141.61
47151.911
47198.106
47245.305
47223.401
47124.266
46999.949
46892.713
46811.203
46752.36
46713.197
46689.649
46680.636
46690.62
46729.341
46791.554
46858.517
46915.762
46952.586
46966.155
46969.332
46969.901
46969.987
46969.999
46970
46970
46970
46970
46970
46970
46970
46970
46970
46862.7
46810.804
46745.03
46713.99
46702.752
46754.609
46816.868
46854.373
46842.841
46821.662
46768.015
46448.036
46880.213
45898.905
47188.85
46965.767
46298.881
46371.34
46839.641
46438.443
46650.657
46823.675
47002.368
47162.42
47184.882
47122.823
47081.829
47098.709
47129.978
47141.667
47152.083
47198.344
47245.356
47223.159
47123.805
46999.425
46892.198
46810.712
46751.908
46712.791
46689.285
46680.303
46690.327
46729.118
46791.406
46858.43
46915.716
46952.567
46966.151
46969.331
46969.901
46969.987
46969.999
46970
46970
46970
46970
46970
46970
46970
46970
46970
46862.166
46810.048
46744.021
46712.927
46702.007
46754.475
46817.359
46854.646
46842.693
46821.123
46766.924
46447.166
46881.052
45896.285
47191.656
46964.079
46294.62
46375.688
46838.103
46434.808
46648.492
46818.504
46996.66
47158.72
47184.595
47124.102
47082.704
47098.857
47129.97
47141.729
47152.265
47198.594
47245.409
47222.903
47123.319
46998.874
46891.655
46810.197
46751.431
46712.365
46688.904
46679.952
46690.02
46728.885
46791.251
46858.34
46915.667
46952.547
46966.146
46969.33
46969.9
46969.987
46969.999
46970
46970
46970
46970
46970
46970
46970
46970
46970
46861.606
46809.248
46742.948
46711.791
46701.218
46754.335
46817.884
46854.939
46842.535
46820.546
46765.741
46446.292
46881.859
45893.647
47194.529
46962.256
46290.213
46380.472
46836.583
46431.101
46646.317
46813.13
46990.698
47154.751
47184.222
47125.419
47083.63
47099.02
47129.961
47141.793
47152.458
47198.857
47245.464
47222.634
47122.808
46998.293
46891.084
46809.655
46750.929
46711.919
46688.503
46679.584
46689.697
46728.639
46791.088
46858.245
46915.616
46952.527
46966.142
46969.329
46969.9
46969.987
46969.999
46970
46970
46970
46970
46970
46970
46970
46970
46970
46861.019
46808.402
46741.805
46710.579
46700.379
46754.189
46818.446
46855.254
46842.365
46819.927
46764.457
46445.437
46882.602
45891.009
47197.462
46960.288
46285.664
46385.745
46835.09
46427.342
46644.143
46807.569
46984.465
47150.498
47183.75
47126.774
47084.609
47099.2
47129.954
47141.859
47152.661
47199.134
47245.522
47222.35
47122.269
46997.682
46890.482
46809.083
46750.4
46711.449
46688.082
46679.196
46689.358
46728.381
46790.917
46858.145
46915.563
46952.505
46966.137
46969.329
46969.9
46969.987
46969.999
46970
46970
46970
46970
46970
46970
46970
46970
46970
46860.404
46807.508
46740.586
46709.286
46699.485
46754.037
46819.048
46855.595
46842.183
46819.263
46763.06
46444.696
46883.175
45888.391
47200.447
46958.168
46280.977
46391.546
46833.63
46423.561
46641.991
46801.819
46977.942
47145.945
47183.167
47128.161
47085.642
47099.399
47129.951
47141.928
47152.875
47199.425
47245.583
47222.05
47121.701
46997.038
46889.849
46808.481
46749.847
46710.953
46687.638
46678.788
46689
46728.11
46790.737
46858.041
46915.507
46952.483
46966.132
46969.328
46969.9
46969.987
46969.999
46970
46970
46970
46970
46970
46970
46970
46970
46970
46859.759
46806.564
46739.285
46707.908
46698.527
46753.881
46819.693
46855.961
46841.988
46818.548
46761.539
46444.086
46883.536
45885.827
47203.474
46955.89
46276.161
46397.93
46832.14
46419.868
46639.883
46795.862
46971.134
47141.071
47182.459
47129.573
47086.734
47099.62
47129.95
47142
47153.102
47199.731
47245.647
47221.734
47121.103
46996.36
46889.183
46807.847
46749.265
46710.433
46687.171
46678.36
46688.625
46727.826
46790.549
46857.932
46915.449
46952.46
46966.126
46969.327
46969.9
46969.987
46969.999
46970
46970
46970
46970
46970
46970
46970
46970
46970
46859.078
46805.57
46737.898
46706.442
46697.495
46753.722
46820.389
46856.357
46841.778
46817.779
46759.879
46443.491
46883.77
45883.346
47206.534
46953.449
46271.223
46404.969
46830.634
46416.282
46637.835
46789.71
46964.052
47135.854
47181.607
47131.006
47087.887
47099.867
47129.95
47142.074
47153.341
47200.052
47245.713
47221.4
47120.473
46995.646
46888.48
46807.181
46748.651
46709.886
46686.68
46677.908
46688.229
46727.527
46790.351
46857.818
46915.387
46952.435
46966.121
46969.326
46969.9
46969.987
46969.999
46970
46970
46970
46970
46970
46970
46970
46970
46970
46858.359
46804.523
46736.415
46704.881
46696.38
46753.563
46821.14
46856.782
46841.549
46816.948
46758.067
46442.888
46883.879
45880.973
47209.614
46950.839
46266.178
46412.731
46829.238
46412.719
46635.869
46783.383
46956.702
47130.268
47180.585
47132.453
47089.104
47100.141
47129.952
47142.151
47153.593
47200.39
47245.782
47221.047
47119.808
46994.894
46887.74
46806.481
46748.005
46709.31
46686.164
46677.434
46687.814
46727.213
46790.144
46857.698
46915.323
46952.41
46966.115
46969.325
46969.9
46969.987
46969.999
46970
46970
46970
46970
46970
46970
46970
46970
46970
46857.604
46803.419
46734.831
46703.222
46695.169
46753.407
46821.954
46857.243
46841.3
46816.049
46756.088
46442.269
46883.845
45878.732
47212.704
46948.062
46261.045
46421.289
46827.973
46409.201
46634.026
46776.881
46949.079
47124.289
47179.379
47133.907
47090.387
47100.443
47129.959
47142.232
47153.86
47200.745
47245.854
47220.675
47119.107
46994.102
46886.961
46805.743
46747.326
46708.705
46685.62
46676.934
46687.377
46726.883
46789.926
46857.573
46915.256
46952.383
46966.109
46969.324
46969.899
46969.987
46969.999
46970
46970
46970
46970
46970
46970
46970
46970
46970
46856.817
46802.251
46733.135
46701.46
46693.853
46753.262
46822.835
46857.735
46841.022
46815.073
46753.924
46441.638
46883.643
45876.647
47215.793
46945.121
46255.836
46430.716
46826.847
46405.789
46632.351
46770.208
46941.173
47117.899
47177.965
47135.355
47091.739
47100.775
47129.97
47142.316
47154.142
47201.118
47245.93
47220.281
47118.368
46993.268
46886.141
46804.965
46746.612
46708.068
46685.048
46676.409
46686.919
46726.536
46789.698
46857.442
46915.185
46952.355
46966.103
46969.322
46969.899
46969.987
46969.999
46970
46970
46970
46970
46970
46970
46970
46970
46970
46856.001
46801.018
46731.316
46699.586
46692.424
46753.137
46823.783
46858.266
46840.709
46814.007
46751.554
46440.987
46883.23
45874.742
47218.87
46942.014
46250.57
46441.091
46825.887
46402.545
46630.859
46763.381
46932.997
47111.092
47176.32
47136.786
47093.161
47101.143
47129.986
47142.403
47154.44
47201.511
47246.008
47219.865
47117.589
46992.388
46885.278
46804.146
46745.86
46707.399
46684.447
46675.857
46686.436
46726.172
46789.459
46857.305
46915.112
46952.326
46966.096
46969.321
46969.899
46969.987
46969.999
46970
46970
46970
46970
46970
46970
46970
46970
46970
46855.152
46799.724
46729.369
46697.582
46690.878
46753.049
46824.799
46858.831
46840.346
46812.844
46748.955
46440.324
46882.588
45873.042
47221.93
46938.753
46245.266
46452.503
46825.167
46399.501
46629.625
46756.428
46924.569
47103.865
47174.413
47138.191
47094.653
47101.551
47130.008
47142.494
47154.756
47201.923
47246.09
47219.426
47116.768
46991.462
46884.366
46803.284
46745.069
46706.694
46683.813
46675.275
46685.928
46725.79
46789.208
46857.162
46915.034
46952.296
46966.089
46969.32
46969.899
46969.987
46969.999
46970
46970
46970
46970
46970
46970
46970
46970
46970
46854.27
46798.366
46727.299
46695.415
46689.208
46752.998
46825.894
46859.434
46839.919
46811.565
46746.098
46439.646
46881.665
45871.568
47224.973
46935.343
46239.94
46465.053
46824.725
46396.704
46628.701
46749.379
46915.9
47096.199
47172.221
47139.561
47096.219
47102.001
47130.037
47142.588
47155.089
47202.357
47246.176
47218.961
47115.901
46990.487
46883.405
46802.376
46744.237
46705.953
46683.147
46674.663
46685.394
46725.388
46788.944
46857.012
46914.954
46952.265
46966.082
46969.319
46969.899
46969.987
46969.999
46970
46970
46970
46970
46970
46970
46970
46970
46970
46853.353
46796.946
46725.059
46693.099
46687.405
46752.981
46827.088
46860.073
46839.403
46810.16
46742.953
46438.953
46880.426
45870.343
47228.007
46931.796
46234.619
46478.837
46824.606
46394.256
46628.101
46742.261
46907.004
47088.067
47169.68
47140.88
47097.861
47102.496
47130.075
47142.686
47155.442
47202.812
47246.265
47218.469
47114.986
46989.457
46882.394
46801.419
46743.36
46705.173
46682.446
46674.019
46684.833
46724.966
46788.668
46856.856
46914.869
46952.232
46966.075
46969.318
46969.898
46969.987
46969.999
46970
46970
46970
46970
46970
46970
46970
46970
46970
46852.398
46795.449
46722.623
46690.64
46685.476
46752.986
46828.397
46860.734
46838.778
46808.612
46739.474
46438.251
46878.818
45869.383
47231.044
46928.121
46229.333
46493.96
46824.877
46392.276
46627.924
46735.094
46897.911
47079.447
47166.82
47142.115
47099.577
47103.04
47130.122
47142.789
47155.816
47203.291
47246.357
47217.949
47114.022
46988.37
46881.329
46800.412
46742.438
46704.353
46681.708
46673.341
46684.244
46724.523
46788.379
46856.693
46914.781
46952.199
46966.067
46969.316
46969.898
46969.987
46969.999
46970
46970
46970
46970
46970
46970
46970
46970
46970
46851.397
46793.88
46719.972
46688.031
46683.411
46753.012
46829.838
46861.423
46838.01
46806.903
46735.622
46437.525
46876.791
45868.698
47234.102
46924.315
46224.104
46510.534
46825.612
46390.858
46628.276
46727.917
46888.683
47070.327
47163.504
47143.247
47101.365
47103.639
47130.18
47142.896
47156.211
47203.794
47246.453
47217.398
47113.002
46987.227
46880.205
46799.35
46741.468
46703.49
46680.931
46672.627
46683.623
46724.058
46788.075
46856.522
46914.689
46952.163
46966.06
46969.315
46969.898
46969.987
46969.999
46970
46970
46970
46970
46970
46970
46970
46970
46970
46850.307
46792.227
46717.027
46685.305
46681.238
46753.038
46831.421
46862.113
46837.053
46805.024
46731.339
46436.785
46874.29
45868.298
47237.219
46920.355
46218.976
46528.68
46826.928
46390.119
46629.208
46720.787
46879.373
47060.699
47159.84
47144.243
47103.222
47104.295
47130.253
47143.008
47156.63
47204.323
47246.552
47216.816
47111.926
46986.021
46879.019
46798.232
46740.446
46702.582
46680.113
46671.876
46682.97
46723.569
46787.757
46856.344
46914.593
46952.127
46966.051
46969.314
46969.898
46969.987
46969.999
46970
46970
46970
46970
46970
46970
46970
46970
46970
46849.181
46790.539
46713.761
46682.393
46678.946
46753.041
46833.162
46862.8
46835.884
46802.946
46726.537
46436.052
46871.231
45868.2
47240.446
46916.194
46214.023
46548.512
46828.899
46390.217
46630.826
46713.768
46869.979
47050.574
47155.783
47145.074
47105.149
47105.015
47130.34
47143.125
47157.074
47204.879
47246.655
47216.197
47110.791
46984.748
46877.77
46797.053
46739.371
46701.626
46679.252
46671.084
46682.284
46723.056
46787.424
46856.158
46914.492
46952.089
46966.043
46969.312
46969.898
46969.987
46969.999
46970
46970
46970
46970
46970
46970
46970
46970
46970
46848.01
46788.822
46710.085