/*--------------------------------*- C++ -*----------------------------------*\
| =========                 |                                                 |
| \\      /  F ield         | OpenFOAM: The Open Source CFD Toolbox           |
|  \\    /   O peration     | Version:  2506                                  |
|   \\  /    A nd           | Website:  www.openfoam.com                      |
|    \\/     M anipulation  |                                                 |
\*---------------------------------------------------------------------------*/
FoamFile
{
    version     2.0;
    format      ascii;
    arch        "LSB;label=32;scalar=64";
    class       volScalarField;
    location    "0.024";
    object      Ma;
}
// * * * * * * * * * * * * * * * * * * * * * * * * * * * * * * * * * * * * * //

dimensions      [0 0 0 0 0 0 0];

internalField   nonuniform List<scalar> 
13761
(
0.29918151
0.30013573
0.30114207
0.3015414
0.30105661
0.30075147
0.30009652
0.29972199
0.29989724
0.29945067
0.29994729
0.29917957
0.3001508
0.30115587
0.30154636
0.30105644
0.30074727
0.30009406
0.29971898
0.29989985
0.29944935
0.29994817
0.29917948
0.30016135
0.30116771
0.30155312
0.30105976
0.30074439
0.30009738
0.2997171
0.29990186
0.2994486
0.29994899
0.30005999
0.29917897
0.30016489
0.30117321
0.30155871
0.30106372
0.30074174
0.30009921
0.29971529
0.29990417
0.29944781
0.29994955
0.3000624
0.2991776
0.30017378
0.30118229
0.30156654
0.30107134
0.3007417
0.3001041
0.29971445
0.29990587
0.29944701
0.2999521
0.30006702
0.29917623
0.30017626
0.30118643
0.30157317
0.30107773
0.30074081
0.30010673
0.29971353
0.29990774
0.29944612
0.29995265
0.30055691
0.30007185
0.29917467
0.30018594
0.30119489
0.30158204
0.30108687
0.3007422
0.30011194
0.2997127
0.299909
0.29944536
0.29995267
0.3005747
0.30007737
0.29917261
0.30018935
0.3011993
0.30158892
0.30109398
0.30074217
0.30011451
0.29971154
0.29991039
0.29944496
0.29995175
0.30059542
0.30008182
0.2991717
0.30019835
0.30120753
0.30159843
0.30110359
0.30074387
0.30011959
0.29971033
0.29991127
0.29944483
0.29995138
0.30061408
0.30061469
0.30008683
0.29917032
0.30019964
0.30121184
0.30160565
0.30111092
0.30074406
0.30012202
0.2997092
0.29991234
0.29944474
0.29995123
0.30062239
0.30063675
0.3000896
0.29917097
0.30020687
0.30122055
0.30161503
0.30112069
0.30074602
0.3001269
0.29970854
0.29991304
0.29944463
0.29995183
0.30062896
0.30065551
0.30009529
0.29917013
0.30020799
0.30122442
0.30162297
0.30112814
0.30074607
0.30012914
0.29970802
0.29991405
0.29944445
0.29995241
0.30063755
0.30067767
0.30009705
0.29917208
0.30021548
0.30123377
0.30163191
0.30113794
0.30074811
0.30013382
0.2997075
0.29991488
0.29944424
0.29995137
0.30045693
0.30064419
0.3006965
0.3001018
0.29917171
0.30021646
0.30123774
0.3016405
0.30114545
0.30074824
0.30013587
0.29970686
0.29991604
0.29944414
0.29995034
0.30046584
0.30065222
0.30071846
0.30010374
0.29917436
0.30022426
0.30124734
0.30164924
0.30115522
0.30075019
0.30014041
0.29970597
0.29991702
0.29944415
0.29994734
0.30047478
0.30065956
0.30073738
0.30010724
0.29917465
0.3002256
0.30125174
0.3016581
0.30116276
0.30075035
0.30014238
0.29970492
0.29991822
0.29944418
0.29994204
0.30085364
0.30048433
0.30066782
0.30075928
0.30010863
0.29917788
0.30023314
0.3012611
0.30166688
0.30117257
0.30075234
0.30014678
0.2997039
0.29991903
0.29944404
0.29993991
0.3008762
0.3004929
0.30067488
0.30077822
0.30011134
0.29917907
0.30023461
0.30126594
0.30167579
0.30118012
0.30075226
0.30014875
0.29970325
0.2999198
0.29944378
0.29993948
0.30089236
0.30050272
0.3006839
0.30079958
0.30011257
0.2991828
0.30024233
0.30127466
0.3016847
0.30118993
0.30075429
0.30015303
0.29970263
0.29992036
0.29944382
0.29994096
0.30104909
0.30091525
0.30051164
0.30069153
0.30081834
0.30011453
0.29918475
0.30024394
0.30127982
0.30169357
0.30119748
0.30075406
0.30015502
0.29970182
0.29992112
0.29944427
0.29994102
0.30106627
0.30093137
0.30052145
0.30070049
0.30083956
0.30011537
0.29918881
0.30025203
0.3012879
0.30170273
0.30120731
0.30075596
0.3001592
0.29970078
0.29992179
0.2994444
0.29993771
0.30109149
0.30095376
0.30053091
0.30070929
0.30085771
0.30011584
0.29919111
0.30025399
0.30129259
0.30171143
0.30121489
0.30075583
0.30016125
0.29970005
0.29992238
0.29944411
0.30133077
0.30110779
0.30097073
0.30054076
0.30071829
0.30087966
0.30011752
0.29919572
0.3002622
0.30130047
0.30172069
0.30122469
0.30075738
0.3001653
0.29969944
0.29992256
0.2994436
0.30134376
0.30113442
0.30099237
0.30055061
0.30072857
0.30089633
0.3001171
0.29919868
0.30026476
0.30130419
0.30172913
0.30123229
0.3007573
0.30016737
0.29969875
0.29992274
0.2994433
0.30158364
0.30136624
0.30114991
0.30101
0.3005607
0.30073702
0.30091842
0.30011871
0.29920378
0.30027303
0.30131248
0.30173871
0.30124203
0.30075872
0.30017137
0.29969775
0.29992284
0.29944271
0.30161977
0.30137899
0.30117785
0.30103108
0.3005705
0.30074908
0.300935
0.30011805
0.2992071
0.30027605
0.30131648
0.3017473
0.30124964
0.30075843
0.30017348
0.29969675
0.29992322
0.29944211
0.30164141
0.30140214
0.30119291
0.3010492
0.3005812
0.30075642
0.30095668
0.30011875
0.29921296
0.30028474
0.3013256
0.30175726
0.30125945
0.30075994
0.30017746
0.29969591
0.29992393
0.30175067
0.30167853
0.30141482
0.30122176
0.30107016
0.30059072
0.30076976
0.30097319
0.30011719
0.29921699
0.30028778
0.301332
0.30176606
0.301267
0.30075933
0.30017955
0.2996953
0.29992462
0.30178099
0.30169992
0.30143823
0.3012365
0.30108773
0.30060204
0.30077676
0.30099459
0.30011634
0.2992236
0.30029695
0.30134193
0.30177588
0.30127691
0.30076102
0.30018342
0.29969474
0.29992502
0.30181409
0.30173781
0.30145107
0.30126625
0.30110925
0.30061121
0.30079135
0.30101088
0.30011423
0.29922841
0.30029995
0.30135042
0.30178465
0.30128445
0.30076015
0.30018548
0.29969415
0.29992525
0.30213946
0.3018454
0.30175923
0.3014749
0.30128095
0.30112652
0.30062288
0.30079845
0.30103179
0.30011222
0.29923597
0.30030963
0.30135794
0.30179411
0.30129438
0.30076181
0.30018927
0.29969344
0.29992553
0.30217122
0.30187895
0.30179711
0.30148727
0.30131121
0.30114756
0.30063235
0.30081357
0.30104829
0.30010902
0.29924137
0.30031314
0.30136567
0.3018031
0.30130195
0.30076094
0.30019137
0.29969259
0.30242218
0.3022088
0.3019099
0.30181978
0.30151171
0.30132595
0.30116499
0.30064421
0.30082103
0.30106886
0.30010562
0.29924987
0.30032309
0.30137116
0.30181246
0.30131182
0.3007623
0.30019515
0.29969174
0.30246884
0.30224075
0.30194516
0.30185581
0.30152418
0.3013567
0.30118615
0.3006541
0.30083711
0.30108555
0.30010137
0.29925472
0.30032791
0.30137931
0.30182185
0.30131945
0.30076169
0.30019728
0.29969102
0.30267632
0.30250846
0.30227881
0.30197551
0.30188138
0.30154806
0.30137169
0.30120276
0.30066618
0.30084459
0.30110537
0.30009681
0.29926429
0.3003382
0.30138564
0.30183117
0.30132919
0.30076253
0.30020101
0.29969051
0.30272807
0.30255652
0.30231129
0.30201161
0.3019145
0.30156147
0.30140266
0.30122478
0.30067632
0.30086036
0.30112288
0.30009216
0.29926978
0.30034284
0.30139624
0.30184072
0.30133696
0.30076228
0.30020308
0.29968997
0.30277561
0.30259583
0.3023498
0.30204252
0.30194268
0.30158492
0.30141807
0.30124044
0.3006885
0.30086902
0.30114191
0.30008738
0.29927986
0.30035238
0.30140523
0.30184983
0.30134651
0.30076252
0.30020669
0.2996893
0.30304182
0.3028282
0.3026442
0.30238247
0.30207884
0.30197385
0.30159824
0.30144947
0.30126314
0.30069889
0.30088385
0.30115977
0.30008267
0.29928516
0.30035673
0.30141537
0.30185943
0.30135448
0.30076269
0.30020869
0.30309876
0.30287559
0.30268437
0.30242137
0.30210985
0.30200419
0.30162281
0.30146493
0.3012782
0.3007115
0.30089473
0.30117827
0.30007786
0.29929546
0.30036592
0.30142324
0.3018684
0.3013638
0.30076245
0.30021223
0.30330769
0.30315601
0.30292927
0.30273272
0.30245509
0.30214737
0.30203273
0.30163497
0.30149667
0.30130081
0.30072232
0.30090748
0.30119725
0.30007277
0.29930095
0.30037026
0.30143155
0.30187816
0.30137195
0.30076289
0.3002142
0.30336995
0.30321627
0.302977
0.30277345
0.30249302
0.3021776
0.30206625
0.30166034
0.30151276
0.30131584
0.3007349
0.30092133
0.30121419
0.30006801
0.29931115
0.30037922
0.30143978
0.30188706
0.30138109
0.30076248
0.30021766
0.30363281
0.30343745
0.30327248
0.30303109
0.30282234
0.30252904
0.30221626
0.3020924
0.30167327
0.30154486
0.30133799
0.30074652
0.3009323
0.30123411
0.30006291
0.29931636
0.30038391
0.3014486
0.30189696
0.30138935
0.30076295
0.3002195
0.30395653
0.30370278
0.30350066
0.30333267
0.30307859
0.30286253
0.30256522
0.30224602
0.30212708
0.30169684
0.30156115
0.3013527
0.30075892
0.30094801
0.30125046
0.30005836
0.29932677
0.30039246
0.30145795
0.30190578
0.30139834
0.30076258
0.3002228
0.30402925
0.30377289
0.30356966
0.30339257
0.30313461
0.30291268
0.30260317
0.30228598
0.30215317
0.3017125
0.30159395
0.30137406
0.30077135
0.30095828
0.30127004
0.30005431
0.2993316
0.30039735
0.3014671
0.30191578
0.30140669
0.30076289
0.30436825
0.30410954
0.30384433
0.30363272
0.30344976
0.30318056
0.30295343
0.30263913
0.30231455
0.30218779
0.30173409
0.30161079
0.30138955
0.30078418
0.30097522
0.30128639
0.30004995
0.29934172
0.30040547
0.30147677
0.3019245
0.30141553
0.30076278
0.30445565
0.30418355
0.30391673
0.30370349
0.30351264
0.30323809
0.30300206
0.30267693
0.30235638
0.30221361
0.30175173
0.30164349
0.30140847
0.30079683
0.30098571
0.30130554
0.30004692
0.29934665
0.30041073
0.30148598
0.30193461
0.30142398
0.30076277
0.30476948
0.30454186
0.30426564
0.30398802
0.30376764
0.30356966
0.30328386
0.30304517
0.30271411
0.30238448
0.30224891
0.30177267
0.30166089
0.30142533
0.30080997
0.30100298
0.30132143
0.30004267
0.29935624
0.30041871
0.30149595
0.30194322
0.30143266
0.30076291
0.30508836
0.30486872
0.30462911
0.30434173
0.30406203
0.30383837
0.30363232
0.30334176
0.30309322
0.30275154
0.30242685
0.30227353
0.30179124
0.30169433
0.30144255
0.30082327
0.30101425
0.30134004
0.30003979
0.2993606
0.30042347
0.30150543
0.30195347
0.30144115
0.30076266
0.30518886
0.30496122
0.30471772
0.30442296
0.30413487
0.30390427
0.3036915
0.30338766
0.30313617
0.30278885
0.30245528
0.30230937
0.30181263
0.30171172
0.30145928
0.30083647
0.30103174
0.30135658
0.30003487
0.29937053
0.30043101
0.3015158
0.30196199
0.30144975
0.30540863
0.30529312
0.30506194
0.30480646
0.30450304
0.30421017
0.30397547
0.30375247
0.30344593
0.30318489
0.30282801
0.30249808
0.30233376
0.3018309
0.30174526
0.30147597
0.30085003
0.30104374
0.30137296
0.30003218
0.29937444
0.30043463
0.30152564
0.30197235
0.30145821
0.30544554
0.30551902
0.30539472
0.30515603
0.30489609
0.30458273
0.30428278
0.30404251
0.30381414
0.30349196
0.30322887
0.30286341
0.30252696
0.30236926
0.30185299
0.30176343
0.30149224
0.30086301
0.30106147
0.3013895
0.30002777
0.2993845
0.30044195
0.30153663
0.30198085
0.30146671
0.30536636
0.30560451
0.30564902
0.30549953
0.30525848
0.30498554
0.30466623
0.30436086
0.30411391
0.30387392
0.30355063
0.30327619
0.30290524
0.30256978
0.30239372
0.30187133
0.30179632
0.30150887
0.30087707
0.30107423
0.30140528
0.30002483
0.29938864
0.30044551
0.30154679
0.30199124
0.30147514
0.30510497
0.30550002
0.30571893
0.30575856
0.30560286
0.30535307
0.3050782
0.3047463
0.30443346
0.30418198
0.30393716
0.3035965
0.30332208
0.30293928
0.30259949
0.30242917
0.30189298
0.30181502
0.30152482
0.30088943
0.30109255
0.30142123
0.30002112
0.29939828
0.30045326
0.30155829
0.30199978
0.30148349
0.30475196
0.30528162
0.30567033
0.30587508
0.30588483
0.30570859
0.30545709
0.30516641
0.30483071
0.30451255
0.30425477
0.30399681
0.30365564
0.30336854
0.30298225
0.30264261
0.30245369
0.30191258
0.30184802
0.30154159
0.30090336
0.30110613
0.30143597
0.30001956
0.29940227
0.30045804
0.30156859
0.3020102
0.30149195
0.30436856
0.30490692
0.30543333
0.30580495
0.30599068
0.30598866
0.3058141
0.30555391
0.30526196
0.30491319
0.30458636
0.30432202
0.30405984
0.30370202
0.30341518
0.30301627
0.30267258
0.30248937
0.30193242
0.30186737
0.30155766
0.30091477
0.30112449
0.3014518
0.30001614
0.29941147
0.30046556
0.30158056
0.30201873
0.30412451
0.30455455
0.30509625
0.30561087
0.30597558
0.30613492
0.30611202
0.30592027
0.30565717
0.30535145
0.30499848
0.30466686
0.30439709
0.30412129
0.30376055
0.30346207
0.30305957
0.30271618
0.30251373
0.30195449
0.30190014
0.30157462
0.30092856
0.30113908
0.30146589
0.30001593
0.29941483
0.30047153
0.30159103
0.30202925
0.30379375
0.30423844
0.30468281
0.30523706
0.30575018
0.30609378
0.30624171
0.30621444
0.30603185
0.30575933
0.30544747
0.30508063
0.304741
0.30446361
0.30418353
0.30380807
0.30350816
0.30309439
0.30274619
0.3025501
0.30197209
0.30192049
0.30159088
0.30093875
0.30115794
0.30148084
0.30001192
0.29942373
0.3004781
0.30160343
0.30203773
0.30346279
0.30396459
0.30440347
0.30484723
0.30540201
0.30591099
0.30625304
0.30637436
0.30633523
0.30614114
0.3058595
0.30553944
0.305169
0.30482286
0.30453983
0.30424576
0.30386624
0.30355567
0.30313695
0.30279072
0.30257469
0.30199629
0.30195259
0.30160793
0.30095271
0.30117294
0.30149451
0.30001197
0.29942676
0.30048503
0.30161409
0.30204835
0.3025137
0.30307255
0.30361255
0.30407987
0.30450627
0.30495466
0.30552264
0.30602367
0.30635207
0.30648284
0.3064429
0.30625668
0.30596636
0.30563593
0.305251
0.3048985
0.30460787
0.30430828
0.30391357
0.3036025
0.30317342
0.30281997
0.30261005
0.30201241
0.30197431
0.30162505
0.30096208
0.30119232
0.30150866
0.30000877
0.29943541
0.30049068
0.30162696
0.30205678
0.3021451
0.30274281
0.30330445
0.30383303
0.30426921
0.304676
0.30511602
0.30567101
0.30617512
0.30650607
0.30661487
0.30656535
0.30636852
0.3060681
0.30572864
0.30533948
0.3049807
0.30468262
0.30437119
0.30397288
0.3036491
0.30321468
0.30286578
0.302636
0.30203852
0.30200511
0.30164114
0.3009753
0.30120819
0.30152215
0.3000086
0.29943856
0.3004983
0.3016378
0.30142707
0.30192345
0.30245704
0.30301456
0.30352688
0.30400409
0.30440736
0.30480283
0.30523694
0.30579224
0.30628286
0.30661013
0.30673362
0.30668115
0.30648408
0.30617524
0.30582767
0.30542496
0.30505716
0.30475355
0.30443242
0.30401896
0.3036963
0.30325291
0.30289438
0.30267034
0.30205306
0.30202837
0.30165949
0.30098453
0.3012274
0.30153575
0.30000529
0.29944645
0.30050369
0.3016511
0.30034912
0.30074232
0.30119156
0.30165379
0.30215616
0.30270645
0.30327229
0.30379303
0.30425351
0.30462352
0.30499653
0.3054164
0.30596044
0.30644962
0.30677026
0.30687066
0.30680852
0.30660041
0.30628037
0.30591868
0.30551127
0.3051417
0.30482843
0.30449799
0.30408019
0.30374423
0.30329344
0.30294071
0.30269612
0.30208077
0.30205808
0.3016758
0.30099694
0.30124463
0.30154852
0.30000575
0.29944916
0.30051158
0.30166219
0.29999866
0.30043456
0.30081609
0.30118409
0.3015942
0.30202762
0.30249909
0.30300914
0.30353373
0.30401636
0.30444339
0.30478975
0.30515705
0.30556717
0.30609834
0.30657451
0.30689676
0.30699727
0.30693612
0.30671592
0.30638988
0.30602127
0.30560068
0.30521707
0.30489797
0.30455605
0.30412442
0.30379
0.30333261
0.3029689
0.30273157
0.3020947
0.30208125
0.30169424
0.30100534
0.30126389
0.30156289
0.30000281
0.29945696
0.30051708
0.30167585
0.29837103
0.29884606
0.2993507
0.29985366
0.30030805
0.30073214
0.30111631
0.30146704
0.30185165
0.30227261
0.30275542
0.30328278
0.30381321
0.30429724
0.30470616
0.30502672
0.30537731
0.30577393
0.30630007
0.3067676
0.30706779
0.30714066
0.30706539
0.30683806
0.30649612
0.3061107
0.30568637
0.30530407
0.30497683
0.30462544
0.30418759
0.30383887
0.30337327
0.30301629
0.30275588
0.30212332
0.30211106
0.30171142
0.30101754
0.30128203
0.30157563
0.30000413
0.2994593
0.30052483
0.30168722
0.29663094
0.29704427
0.29748399
0.29792446
0.29840708
0.29889956
0.29937486
0.29986348
0.30035018
0.30078568
0.30119177
0.30158225
0.30192616
0.30227757
0.30266342
0.30310434
0.30357869
0.30406258
0.30451579
0.30490669
0.30521908
0.30556266
0.30595435
0.30646283
0.30691583
0.30721569
0.30728006
0.30719461
0.30695665
0.3066078
0.30621485
0.30577648
0.30538056
0.30504413
0.30467984
0.30423052
0.303885
0.30341256
0.30304281
0.30279304
0.30213697
0.30213312
0.30173067
0.30102509
0.30130097
0.30158858
0.30000237
0.29946668
0.30053071
0.30170119
0.29663476
0.29635859
0.29614073
0.29607254
0.29612328
0.29624722
0.29644149
0.2967233
0.2970886
0.29747568
0.29790015
0.29831661
0.29877411
0.29924795
0.29970872
0.30017567
0.3006478
0.30106953
0.30146808
0.3018647
0.30220857
0.30255126
0.30293932
0.303401
0.30388857
0.3043637
0.30480049
0.30517271
0.3054674
0.30579682
0.30618538
0.30668816
0.30712952
0.30738797
0.30743307
0.30732813
0.30708459
0.30671637
0.30630569
0.30586511
0.30546692
0.30512371
0.30475186
0.30429463
0.30393385
0.30345412
0.30309216
0.30281579
0.30216665
0.30216338
0.30174733
0.30103634
0.30132141
0.30160125
0.30000292
0.29946949
0.3005381
0.063876256
0.069597114
0.076134146
0.083181375
0.0922464
0.10175732
0.11304402
0.12478828
0.13735028
0.14998033
0.16422518
0.1806122
0.19917076
0.2176755
0.23603892
0.25399431
0.27301048
0.2863159
0.29754037
0.30545362
0.30894658
0.31188966
0.31215769
0.31109282
0.30903573
0.30623639
0.30521961
0.30335808
0.30182091
0.30061442
0.29938745
0.29845349
0.29775857
0.29729969
0.2969136
0.29675639
0.29670261
0.2968059
0.29700496
0.2972768
0.29764752
0.2980294
0.29845521
0.29888808
0.29933191
0.29979608
0.30025325
0.30069813
0.30114089
0.30152948
0.3019034
0.30230563
0.30266
0.30298731
0.30334089
0.30375162
0.30419011
0.30462144
0.30502259
0.30537708
0.30566929
0.30599389
0.3063808
0.30686886
0.30729516
0.30754821
0.30757678
0.30746067
0.30720509
0.30682831
0.3064077
0.30595327
0.30554615
0.30519279
0.30480573
0.30433762
0.30397967
0.30349325
0.3031173
0.30285438
0.30218028
0.30218435
0.30176761
0.30104378
0.30133965
0.30161351
0.30000253
0.29947582
0.3005445
0.038268832
0.043538453
0.049738169
0.05651829
0.064988531
0.074487334
0.084541247
0.095676747
0.10675518
0.11982268
0.13507467
0.15351591
0.17273125
0.19259179
0.21239155
0.23390875
0.25487512
0.27489032
0.29274458
0.30697918
0.31654298
0.32119293
0.32219156
0.32132034
0.31991009
0.3167681
0.31234003
0.30963669
0.30674662
0.30428255
0.302491
0.30084394
0.29967239
0.29868535
0.29799058
0.29752424
0.29730647
0.29723965
0.29730211
0.29746769
0.29772062
0.29806629
0.2984299
0.29884494
0.29926049
0.29969724
0.30014957
0.300595
0.30101638
0.30143521
0.30181551
0.30217085
0.30255262
0.30291395
0.30326855
0.30365202
0.30409195
0.30453859
0.30495646
0.30532262
0.30564589
0.30591911
0.30622962
0.30662286
0.30710378
0.30751151
0.3077144
0.30773367
0.30760571
0.30733736
0.30693883
0.30650286
0.30604573
0.30563281
0.3052711
0.30487584
0.30440106
0.30402957
0.30353595
0.30316663
0.30287678
0.30221041
0.30221469
0.30178438
0.30105372
0.30136171
0.30162605
0.30000248
0.29947874
0.30055156
0.012773545
0.015995948
0.019860245
0.02490667
0.030834993
0.038118564
0.046758711
0.055554932
0.0653045
0.075934015
0.088615293
0.10462238
0.12228361
0.14094447
0.15991341
0.1817423
0.20603602
0.23113068
0.25478324
0.27821214
0.29981036
0.31604835
0.32549258
0.33006847
0.3297473
0.32696608
0.3244984
0.3209841
0.31545564
0.31194659
0.30843886
0.30564312
0.30330342
0.30147207
0.30015277
0.29915204
0.29844056
0.29794943
0.29771469
0.29763261
0.29777181
0.29800588
0.29828341
0.29865534
0.29904434
0.29945599
0.29986765
0.30028687
0.30072195
0.30115074
0.3015452
0.30192083
0.30226712
0.30260407
0.30297773
0.30334028
0.30368897
0.30404176
0.30443619
0.30484751
0.30523301
0.30556825
0.30586712
0.30612991
0.30643198
0.30681815
0.30728638
0.30768534
0.30788564
0.30788024
0.30774497
0.30746124
0.30705055
0.306602
0.30613275
0.30571181
0.30534057
0.30493326
0.30444583
0.30407556
0.3035741
0.3031937
0.30291482
0.30222484
0.30223498
0.30180453
0.30106178
0.30138032
0.30163798
0.30000273
0.29948458
0.3005584
0.020377153
0.016733494
0.012567161
0.0087238978
0.0075092819
0.010069207
0.015556578
0.023034435
0.031278298
0.039808962
0.049855097
0.061424178
0.076126649
0.093034799
0.11040511
0.12877592
0.14985109
0.17490679
0.20158276
0.2289777
0.2569258
0.28438764
0.30399215
0.32124528
0.33232844
0.33614901
0.33653863
0.33287282
0.32893922
0.32379106
0.31706277
0.31258076
0.30870671
0.30587108
0.30347111
0.30169486
0.3003389
0.29928773
0.29859342
0.29815638
0.29800697
0.29801645
0.29814641
0.29839167
0.29869124
0.29905721
0.29944123
0.29985674
0.30026424
0.3006778
0.30109281
0.30150025
0.30187788
0.30222904
0.3025564
0.30285958
0.30320499
0.30357944
0.30397574
0.30437592
0.30480104
0.30521774
0.30559257
0.30589389
0.30615723
0.30638563
0.30667268
0.3070665
0.30752402
0.30789246
0.30805275
0.30804772
0.30789338
0.30759201
0.3071631
0.30669969
0.30622705
0.3058019
0.30541955
0.3049993
0.30450721
0.30412464
0.30361893
0.30323994
0.30293875
0.30225571
0.30226485
0.30182176
0.30106958
0.30140309
0.30164954
0.30000362
0.29948696
0.30056526
0.033994004
0.031618893
0.028880161
0.025681404
0.021846467
0.016993442
0.010764426
0.0047553183
0.0024440126
0.0092874286
0.017642229
0.026358926
0.035391595
0.046074692
0.058157363
0.073245179
0.090015173
0.10778236
0.1267787
0.14974312
0.17455211
0.20017086
0.22863266
0.25816927
0.28441982
0.30491543
0.32242186
0.33374431
0.3373174
0.33575527
0.33137159
0.3265445
0.32121792
0.31476789
0.310855
0.30724762
0.30484801
0.30269546
0.30102097
0.29986864
0.29911922
0.29861799
0.29829151
0.29821917
0.29829835
0.29853099
0.29887168
0.2992464
0.2996622
0.3000762
0.30049752
0.30090645
0.30130036
0.3016754
0.30203816
0.30238803
0.30271138
0.30301827
0.30330265
0.30362321
0.30398698
0.30436656
0.30473473
0.30512537
0.30552137
0.3058799
0.30616495
0.3064063
0.30662154
0.30689153
0.30727411
0.30771735
0.30808149
0.30823501
0.30820737
0.30803843
0.30771796
0.30727436
0.30679869
0.3063146
0.3058793
0.30548876
0.30505983
0.30455431
0.30417238
0.30365584
0.3032706
0.30297513
0.30227018
0.30228566
0.30184167
0.30107872
0.30142262
0.3016608
0.30000439
0.29949352
0.034997763
0.033560035
0.031994567
0.030278807
0.028384287
0.026276153
0.023913362
0.021248787
0.018236728
0.014752858
0.010606769
0.0095921431
0.013448568
0.019699255
0.027722307
0.036816739
0.046175029
0.057104102
0.068981829
0.08353783
0.10004545
0.11850627
0.13719159
0.16009711
0.18310996
0.20720496
0.23275647
0.25752343
0.27868318
0.30071697
0.31832439
0.32756901
0.33079915
0.32936667
0.3260694
0.32325375
0.31840602
0.3119288
0.30807296
0.30455436
0.30264389
0.30125953
0.30016733
0.29935542
0.29869102
0.29838065
0.29829394
0.29838394
0.29855269
0.29885496
0.29923284
0.29963944
0.30006891
0.300497
0.3009285
0.30134591
0.30172993
0.30208315
0.30240513
0.30271054
0.30301054
0.30329974
0.30355653
0.30385669
0.3042397
0.30466971
0.30507955
0.30549016
0.30589087
0.30624143
0.306504
0.30671486
0.30689503
0.30715615
0.30753688
0.30796139
0.30829117
0.30841698
0.30838421
0.30818735
0.30784724
0.30738657
0.30689766
0.30640896
0.30597098
0.30556723
0.30512382
0.30461405
0.30422081
0.30370204
0.30331376
0.30300083
0.30230185
0.30231401
0.30185952
0.30108451
0.30144626
0.3016732
0.30000415
0.29949533
0.024189609
0.023221389
0.022187864
0.021095487
0.019952204
0.018768829
0.017561837
0.016358708
0.015203133
0.01416756
0.013372806
0.012998922
0.013262263
0.01440473
0.016888662
0.021953888
0.028887743
0.036469093
0.044740313
0.054485643
0.064447366
0.075648756
0.087323119
0.10098201
0.11593702
0.13368374
0.15176524
0.17241224
0.19332787
0.21647575
0.23802628
0.25865772
0.27722702
0.29666171
0.31117461
0.31910227
0.32155067
0.32093565
0.31876023
0.3162466
0.31044534
0.30573927
0.30420308
0.30190174
0.30048922
0.29954558
0.29880677
0.2984125
0.29820084
0.29818202
0.29826558
0.29853509
0.29882379
0.29923467
0.29972945
0.3002064
0.30067756
0.30113773
0.30158114
0.30198664
0.30234443
0.30266535
0.30295729
0.30322102
0.30348508
0.30375908
0.30400281
0.30427843
0.30463196
0.30502545
0.30540562
0.30579284
0.30617629
0.3065197
0.30678138
0.30698975
0.30716185
0.30740152
0.30776911
0.30817826
0.30849537
0.30861424
0.3085534
0.30833448
0.30797434
0.30749946
0.30699557
0.30649876
0.30605036
0.3056379
0.30518503
0.30466228
0.30426838
0.30373867
0.3033473
0.30303559
0.30231657
0.30233617
0.3018787
0.30109346
0.30146686
0.30168366
0.3000059
0.29950328
0.0045316775
0.0047238985
0.0048771295
0.0050048254
0.0051262181
0.0052667811
0.0054576874
0.0057333457
0.006127206
0.0066669276
0.0073712314
0.008249759
0.0093054815
0.010538115
0.011947178
0.013533983
0.015302538
0.017264896
0.019437973
0.021840129
0.024493991
0.027419421
0.030779362
0.034425716
0.039137176
0.045656029
0.053895835
0.062562932
0.072294905
0.082838885
0.094563414
0.1062019
0.11966918
0.13286031
0.14777329
0.16528553
0.18415501
0.20260872
0.22156706
0.24034996
0.25799274
0.275801
0.29325372
0.30463224
0.31071454
0.31371023
0.31439694
0.31435235
0.31098927
0.30371687
0.30047189
0.29994528
0.29846923
0.29803271
0.29781527
0.29752767
0.29750192
0.29754883
0.29784175
0.29819308
0.29862599
0.2991212
0.29959772
0.30013921
0.30062839
0.30111574
0.30158857
0.30203894
0.30244337
0.30277647
0.30307421
0.30332917
0.30355501
0.30378561
0.30402658
0.30426237
0.3045487
0.3049267
0.30535377
0.30575147
0.30615025
0.30653472
0.30686449
0.30710852
0.30729658
0.30745069
0.30769545
0.30805507
0.30843928
0.3087205
0.30881526
0.30873072
0.30848601
0.30810139
0.30760951
0.30709703
0.30659204
0.3061405
0.30571437
0.30524839
0.30472187
0.30431832
0.30378548
0.30338814
0.30306309
0.30234836
0.30236326
0.30189737
0.30109852
0.3014906
0.3016951
0.30000661
0.29950552
0.0019519189
0.005698039
0.0094032277
0.013024687
0.016511819
0.019806354
0.022828477
0.025479843
0.027673
0.029373793
0.030616657
0.031477057
0.032038269
0.032374555
0.032545082
0.032595228
0.032559173
0.03246271
0.032325816
0.032164205
0.031990736
0.03181642
0.031651166
0.031504303
0.031384865
0.03130198
0.031264796
0.031282655
0.031365023
0.031521275
0.031760708
0.032092189
0.03252405
0.033063909
0.03371865
0.034494363
0.035396508
0.036430165
0.03760037
0.038912643
0.040373558
0.04199125
0.043775873
0.045739974
0.047898572
0.050268524
0.052867763
0.055704306
0.058863661
0.062628788
0.06685494
0.071230849
0.076325191
0.083552569
0.0915759
0.1006565
0.11178906
0.12258959
0.13594779
0.14940231
0.16259978
0.17750117
0.19245487
0.20703945
0.22301235
0.23984965
0.25690524
0.2738912
0.28724318
0.29638965
0.30148345
0.30428837
0.30621975
0.30424746
0.2997715
0.29402679
0.29289656
0.29465329
0.29524593
0.29564655
0.29596553
0.2961363
0.29661792
0.29715208
0.29767362
0.29818901
0.29883324
0.29944697
0.30006614
0.30071503
0.30127148
0.30178192
0.30225232
0.30267807
0.30305841
0.30336631
0.30363771
0.30386849
0.30407253
0.30427482
0.3044833
0.30470003
0.30496378
0.30529851
0.30568344
0.3060604
0.30643721
0.3068009
0.30712547
0.30737646
0.30757709
0.30773308
0.30796505
0.30831346
0.30868223
0.30894396
0.30901875
0.30890311
0.30862942
0.30822898
0.30772369
0.30719409
0.30668409
0.30622221
0.3057881
0.30530981
0.30477037
0.30436454
0.30382193
0.30342433
0.30309652
0.3023635
0.30238628
0.30191634
0.30110655
0.30151305
0.30170532
0.30000984
0.29951406
0.0024751767
0.0073906535
0.012450307
0.017632771
0.022905675
0.028221527
0.033486358
0.038542839
0.043196579
0.047289246
0.050763515
0.053651597
0.056029755
0.057984674
0.059596003
0.06093052
0.062042124
0.062973635
0.0637587
0.064424381
0.064992728
0.065481665
0.065906267
0.06627959
0.066613339
0.066918351
0.067205043
0.067483653
0.067764485
0.068058018
0.068374843
0.068725765
0.069121584
0.069572959
0.070090443
0.070684218
0.071364063
0.072139462
0.073019351
0.074010188
0.075121436
0.07636449
0.077752363
0.079299928
0.081023864
0.08294224
0.085073787
0.08742748
0.090118354
0.093260508
0.096600805
0.10181537
0.10575349
0.11082228
0.11605117
0.1220719
0.12978799
0.13772939
0.14708101
0.15842013
0.1701233
0.18276599
0.19451707
0.20746241
0.22261323
0.23893572
0.25558241
0.27102671
0.28084966
0.28660383
0.29098366
0.29469284
0.29681039
0.29440997
0.29076482
0.28798415
0.28956397
0.29117631
0.29242331
0.29333979
0.29423021
0.29501298
0.29578864
0.29655683
0.29741835
0.29828243
0.29910634
0.29986901
0.3005486
0.30121891
0.30177501
0.30228606
0.3027461
0.30314496
0.3034995
0.30378251
0.30402027
0.30421107
0.30439896
0.30458063
0.30476766
0.30500239
0.30528506
0.30563275
0.30602731
0.30640772
0.30679203
0.30714803
0.30744496
0.30767229
0.30785847
0.30801821
0.30827111
0.30861854
0.30895847
0.30917592
0.30922522
0.30907589
0.30878061
0.30835373
0.30783404
0.30729598
0.30677798
0.30631199
0.30586178
0.30537333
0.30482978
0.30441542
0.30386946
0.30346263
0.303125
0.30239562
0.30241314
0.30193532
0.30111076
0.30153616
0.30171712
0.30001201
0.2995176
0.0025329044
0.0077032407
0.013188907
0.018997059
0.025122203
0.031537932
0.038151879
0.044769988
0.051116391
0.056935865
0.062092648
0.066574421
0.070440415
0.073777166
0.076672233
0.079203075
0.08143457
0.083419543
0.085200016
0.086810091
0.088277725
0.089625093
0.090870014
0.092027191
0.093108572
0.094124186
0.095082588
0.095991256
0.096856973
0.097686077
0.098484669
0.099258848
0.10001476
0.10075887
0.10149804
0.10223952
0.10299103
0.10376087
0.10455835
0.10539622
0.10628582
0.10723885
0.10826845
0.10938951
0.11061861
0.11197386
0.1134746
0.11514474
0.11696522
0.11973632
0.12210716
0.12578321
0.12948782
0.13429489
0.1390994
0.14481715
0.15012858
0.15632168
0.16316587
0.16966922
0.17643987
0.18636304
0.19760326
0.21086459
0.22539315
0.24075469
0.25462773
0.26410782
0.27113878
0.2769866
0.28298052
0.28666741
0.28679766
0.28421568
0.28070074
0.28143797
0.2857796
0.28827222
0.29028282
0.29155916
0.29281094
0.29403604
0.29526293
0.29645464
0.2974954
0.29846823
0.29945809
0.30034965
0.30115335
0.30190267
0.30250544
0.30302368
0.30345348
0.3037966
0.30410371
0.30435274
0.30457041
0.30473672
0.30489954
0.30505107
0.30520828
0.30543343
0.30568773
0.30598562
0.3063448
0.30670899
0.30707363
0.30740812
0.30770164
0.30793533
0.30812965
0.308286
0.30853476
0.30888107
0.30921068
0.30940914
0.30942602
0.30924842
0.30892222
0.30847978
0.30794638
0.30739337
0.30687066
0.30639454
0.30593664
0.30543346
0.3048788
0.30446202
0.3039051
0.30350166
0.30315799
0.3024109
0.30243665
0.30195456
0.3011188
0.30155962
0.30172597
0.30001505
0.0024875757
0.0076385498
0.013180994
0.019130871
0.025490754
0.032240156
0.039285746