/*--------------------------------*- C++ -*----------------------------------*\
| =========                 |                                                 |
| \\      /  F ield         | OpenFOAM: The Open Source CFD Toolbox           |
|  \\    /   O peration     | Version:  2506                                  |
|   \\  /    A nd           | Website:  www.openfoam.com                      |
|    \\/     M anipulation  |                                                 |
\*---------------------------------------------------------------------------*/
FoamFile
{
    version     2.0;
    format      ascii;
    arch        "LSB;label=32;scalar=64";
    class       volScalarField;
    location    "0.7";
    object      nut;
}
// * * * * * * * * * * * * * * * * * * * * * * * * * * * * * * * * * * * * * //

dimensions      [0 2 -1 0 0 0 0];

internalField   nonuniform List<scalar> 
1376
(
0.19748606
0.19610986
0.19521134
0.19452661
0.19396615
0.19350865
0.19313473
0.19282633
0.19256936
0.19235381
0.19217506
0.19202858
0.19190335
0.19180069
0.19171388
0.19163778
0.19157388
0.19151981
0.19147249
0.19143316
0.19139927
0.19136948
0.1913475
0.19132962
0.19131909
0.1913178
0.19133296
0.19136089
0.1914005
0.19148874
0.19160693
0.19180224
0.19192579
0.15440882
0.13134101
0.094618178
0.071857223
0.05941948
0.04477965
0.03674308
0.034691173
0.024416079
0.020467983
0.015638932
0.012595435
0.0048104327
0.0093914486
0.0048811376
0.00071571783
0.19746295
0.19616694
0.1953071
0.19463336
0.1940764
0.19361789
0.19324062
0.19292776
0.19266597
0.19244555
0.19226108
0.19210939
0.19197857
0.19187025
0.19177908
0.19169831
0.19162821
0.19157063
0.19151923
0.19147743
0.19144184
0.19140848
0.19138356
0.19136416
0.19134959
0.19134554
0.19136005
0.19138367
0.19141796
0.19148717
0.1916058
0.19178151
0.19202416
0.15475456
0.11405248
0.099046514
0.082267695
0.068267492
0.047043799
0.040665071
0.032569726
0.023886446
0.019898086
0.018168348
0.008911028
0.010063807
0.0070441091
0.0057129194
0.00080265341
0.19759492
0.19632258
0.19545844
0.19478247
0.19422335
0.19375877
0.19337352
0.19305247
0.19278265
0.19255486
0.19236204
0.19220266
0.19206524
0.19194973
0.19185255
0.19176611
0.1916904
0.19162753
0.19157261
0.19152648
0.19148723
0.19145224
0.19142275
0.19139971
0.19138316
0.19137542
0.19138382
0.19140186
0.19143538
0.191489
0.19160798
0.19175707
0.18455592
0.15506837
0.12848373
0.098270724
0.082987371
0.0676645
0.05485649
0.040027164
0.030887302
0.02265097
0.020172796
0.014898988
0.015921034
0.0091084092
0.0063564788
0.003560252
0.00071576042
0.19766395
0.19644547
0.19559516
0.19492513
0.19436752
0.19389997
0.1935086
0.19318046
0.1929033
0.19266845
0.19246749
0.19230028
0.19215644
0.1920333
0.19192962
0.19183806
0.19175705
0.19168852
0.19162916
0.19157825
0.19153542
0.19149671
0.19146334
0.19143818
0.19141907
0.19140647
0.19140832
0.19142482
0.19145198
0.19149478
0.19161619
0.19174201
0.19196238
0.15768002
0.12795516
0.10223597
0.081019335
0.064438988
0.055753062
0.037084942
0.039430525
0.028360408
0.018848917
0.014629965
0.0087803363
0.0078603213
0.0069901174
0.0037815419
0.00075630748
0.19773621
0.19657419
0.1957319
0.19507175
0.19451834
0.19404811
0.19365131
0.19331624
0.19303143
0.19278892
0.19258002
0.19240394
0.19225298
0.19212231
0.19201174
0.19191435
0.19182755
0.19175324
0.19168854
0.19163313
0.19158649
0.19154388
0.19150723
0.19147874
0.19145471
0.19143729
0.19143461
0.19144703
0.19147199
0.19151029
0.19161332
0.191733
0.19168005
0.15940984
0.12934449
0.10880448
0.083195497
0.06669822
0.051227303
0.042624029
0.026594864
0.024109144
0.020860244
0.01590946
0.012925396
0.0075293287
0.0054817283
0.0032609071
0.00080232608
0.19781691
0.19669716
0.19586828
0.19522013
0.19467246
0.1942012
0.1937997
0.19345803
0.19316565
0.19291498
0.19269816
0.19251302
0.19235465
0.19221637
0.19209823
0.19199441
0.19190176
0.19182143
0.19175126
0.19169082
0.19163901
0.19159384
0.19155404
0.19152036
0.19149185
0.19147132
0.191464
0.1914716
0.19149324
0.19153163
0.19160258
0.19173592
0.19191101
0.16284478
0.12903014
0.10416378
0.087836076
0.06774337
0.053010013
0.045719642
0.032641765
0.025944378
0.015336015
0.014679853
0.009848177
0.0072037886
0.0076149455
0.0040466566
0.00075769525
0.19789286
0.19681763
0.19600813
0.19537189
0.19482964
0.19435851
0.19395307
0.19360495
0.19330509
0.19304601
0.19282122
0.19262702
0.1924603
0.19231471
0.19218886
0.19207805
0.19197956
0.19189277
0.19181708
0.19175181
0.19169509
0.19164577
0.19160169
0.19156386
0.19153185
0.19150761
0.19149663
0.19150211
0.191518
0.19154805
0.19160265
0.1917429
0.19188414
0.16214606
0.13734266
0.10538447
0.087645758
0.067327867
0.054708243
0.039757951
0.034424772
0.028299341
0.021161174
0.014392529
0.012111087
0.0072209991
0.0063736784
0.0024612673
0.00092253675
0.19796371
0.19693733
0.19614985
0.19552475
0.19498776
0.19451756
0.19410889
0.19375481
0.19344771
0.19318064
0.19294801
0.19274491
0.1925696
0.19241663
0.19228248
0.19216464
0.19206063
0.19196744
0.19188612
0.19181573
0.19175399
0.19169982
0.19165163
0.19160957
0.1915749
0.19154685
0.19153115
0.19153043
0.19154198
0.19156538
0.19161633
0.19173692
0.19186277
0.16690344
0.13582885
0.11107761
0.085389418
0.073698935
0.053899169
0.043462183
0.031826048
0.021608984
0.021164984
0.013391834
0.010789602
0.0074215975
0.0044500665
0.0021285984
0.00080049211
0.1980359
0.19705954
0.19629374
0.19567718
0.19514547
0.19467631
0.19426474
0.19390511
0.19359147
0.19331698
0.19307681
0.19286545
0.19268164
0.19252102
0.19237896
0.19225409
0.19214376
0.1920447
0.19195745
0.19188173
0.19181475
0.19175514
0.19170345
0.19165835
0.19162074
0.19158818
0.19156733
0.191562
0.19156991
0.19158606
0.19163798
0.19170956
0.19186291
0.17126781
0.13759375
0.11361433
0.087905858
0.06806907
0.058040996
0.044368933
0.034992743
0.02763798
0.014965367
0.013534992
0.01081213
0.0075737238
0.004332611
0.0017634109
0.00090975962
0.19810699
0.19717934
0.19643454
0.19582594
0.19529951
0.19483209
0.1944185
0.19405409
0.19373424
0.19345325
0.19320569
0.19298688
0.1927948
0.19262624
0.19247697
0.19234535
0.19222851
0.19212395
0.19203055
0.19194848
0.19187652
0.19181238
0.19175662
0.19170786
0.19166604
0.19162908
0.19160316
0.19159262
0.19159635
0.19160872
0.19165445
0.19169054
0.19187853
0.1749754
0.14171735
0.11361536
0.094586983
0.069809862
0.054902221
0.044717816
0.033536103
0.029247849
0.021671734
0.015176513
0.01017383
0.0077525691
0.0026601054
0.0029335972
0.00089713381
0.19817543
0.19729221
0.19656619
0.19596624
0.19544468
0.19498042
0.19456642
0.19419895
0.19387403
0.19358734
0.19333294
0.19310726
0.19290738
0.19273112
0.19257492
0.19243639
0.19231334
0.19220362
0.1921044
0.19201623
0.19193879
0.1918698
0.19180942
0.19175668
0.19171155
0.19167091
0.19163997
0.19162422
0.19162381
0.19163341
0.19166904
0.19168799
0.19189052
0.17934045
0.144161
0.11647276
0.090826912
0.078857319
0.054783088
0.044859549
0.035380072
0.023483217
0.019896283
0.013141813
0.0098066807
0.006561179
0.0057414246
0.0018963917
0.00088114893
0.19824642
0.19740128
0.19669066
0.19609798
0.19558035
0.19511906
0.19470552
0.19433651
0.19400824
0.19371641
0.19345634
0.19322433
0.19301737
0.19283411
0.19267133
0.19252624
0.1923968
0.19228137
0.19217708
0.19208372
0.19200114
0.19192729
0.19186242
0.19180585
0.19175735
0.1917137
0.19167839
0.19165753
0.19165189
0.19165847
0.19168295
0.19170263
0.19188717
0.18235483
0.14902065
0.11833122
0.095142211
0.071794767
0.063402274
0.043674491
0.034555696
0.029382588
0.019624023
0.013724599
0.010734443
0.0080762409
0.003481019
0.0027629589
0.00096128147
0.19831936
0.19750923
0.19681125
0.19622315
0.1957078
0.19524754
0.19483428
0.19446472
0.19413408
0.19383816
0.19357317
0.19333551
0.19312235
0.19293269
0.19276359
0.1926127
0.19247767
0.19235631
0.19224637
0.19214736
0.19205996
0.19198202
0.19191301
0.19185266
0.19180118
0.19175466
0.19171519
0.19168921
0.19167841
0.19168203
0.19169589
0.19173959
0.1918471
0.18569052
0.14997724
0.12223089
0.096218023
0.076053082
0.057781577
0.048301301
0.035445943
0.025158817
0.020968861
0.016525666
0.010717483
0.0062512046
0.0060444652
0.0019364725
0.00089018323
0.19839936
0.19761531
0.19692579
0.19634037
0.19582532
0.195366
0.1949523
0.19458154
0.19424885
0.19394947
0.19368016
0.19343762
0.19321943
0.19302417
0.19284952
0.19269335
0.19255313
0.19242661
0.19231195
0.19220796
0.19211544
0.19203289
0.19195949
0.19189504
0.19184019
0.1917913
0.19174865
0.19171871
0.19170339
0.19170334
0.19171111
0.19175858
0.19181605
0.18963221
0.1526586
0.12294626
0.098133847
0.077384459
0.059986222
0.045643181
0.037118838
0.027995312
0.019328995
0.013957535
0.0094460866
0.0082361297
0.0036460276
0.0030652647
0.00096409864
0.1984807
0.19771289
0.19702962
0.19644558
0.19593226
0.19547372
0.19505881
0.19468554
0.19434981
0.19404725
0.19377426
0.19352782
0.19330575
0.19310612
0.19292684
0.19276596
0.19262111
0.19248983
0.19237072
0.19226253
0.19216592
0.19207971
0.19200276
0.191935
0.19187718
0.19182605
0.19178047
0.19174658
0.19172663
0.19172274
0.19172584
0.19177435
0.19179743
0.19077712
0.1549729
0.12416312
0.099071586
0.077806543
0.060570152
0.047421477
0.034893146
0.027565431
0.021117624
0.015305915
0.01132696
0.0065444385
0.0050814199
0.0020439988
0.00087643016
0.19855766
0.19780129
0.1971211
0.19653688
0.19602383
0.19556493
0.19515025
0.19477392
0.19443474
0.19412897
0.19385317
0.19360414
0.19337919
0.19317635
0.19299331
0.19282836
0.19267953
0.19254427
0.19242133
0.19230956
0.19220924
0.19211969
0.19203963
0.19196876
0.19190816
0.1918552
0.1918074
0.19177013
0.19174572
0.19173728
0.19173579
0.19178408
0.19177975
0.19202524
0.15608784
0.12621488
0.10037492
0.078667965
0.061741506
0.046876308
0.036841289
0.027488307
0.020150826
0.014743436
0.010276595
0.006989403
0.0038910935
0.0028732372
0.00097333786
0.19862498
0.19787514
0.19719575
0.19661067
0.19609671
0.195637
0.19522234
0.19484384
0.19450199
0.19419376
0.19391622
0.19366547
0.19343828
0.1932329
0.19304681
0.19287861
0.19272664
0.19258841
0.19246257
0.19234822
0.19224522
0.192153
0.19207044
0.19199677
0.19193343
0.19187851
0.19182865
0.19178842
0.19176029
0.19174802
0.19174298
0.19179044
0.19176529
0.19202427
0.15959814
0.12907513
0.10308475
0.08110407
0.062471398
0.048727849
0.037053026
0.028197227
0.021221458
0.015259176
0.010547824
0.0070789543
0.0044598203
0.0024372148
0.00087124158
0.19867731
0.19793077
0.19725126
0.19666635
0.19615306
0.19569363
0.19527768
0.19489749
0.19455317
0.19424241
0.19396287
0.19371045
0.19348153
0.19327427
0.1930859
0.19291532
0.19276117
0.19262098
0.1924933
0.19237721
0.19227231
0.19217805
0.19209365
0.19201791
0.19195251
0.19189613
0.19184487
0.19180296
0.1917732
0.19175958
0.19175357
0.1918008
0.19176454
0.19203087
0.16352859
0.13201012
0.10569066
0.082993292
0.06429962
0.049273394
0.03785149
0.028806581
0.021361989
0.015455281
0.0108124
0.0071379237
0.0043551497
0.0026592658
0.00096322838
0.1987099
0.19796423
0.19728469
0.19669997
0.19618642
0.19572628
0.19530978
0.19492957
0.19458399
0.19427242
0.19399125
0.19373745
0.19350731
0.19329873
0.19310883
0.19293683
0.19278141
0.19263989
0.19251086
0.19239357
0.19228744
0.19219232
0.19210733
0.19203109
0.19196551
0.19190925
0.19185815
0.19181662
0.19178805
0.19177682
0.19177395
0.19182469
0.19179401
0.19206189
0.16057012
0.12920514
0.103436
0.081462445
0.062930312
0.048222934
0.036877334
0.027990253
0.020830792
0.015044115
0.010450702
0.0069209206
0.0042353681
0.0025282937
0.0009104126
0.19872048
0.19797447
0.19729488
0.19671031
0.19619614
0.19573566
0.19531862
0.19493784
0.19459243
0.19428043
0.19399871
0.19374477
0.1935148
0.19330615
0.1931159
0.19294337
0.19278733
0.192645
0.19251519
0.19239734
0.19229079
0.1921955
0.19211035
0.19107501
0.19110146
0.19113719
0.19118491
0.19125244
0.19133993
0.19145498
0.19160633
0.19180112
0.19204995
0.19236572
0.1927817
0.19334841
0.19413986
0.19523743
0.1912927
0.19116901
0.1911078
0.19108181
0.19106787
0.19104767
0.19104166
0.19104795
0.19104635
0.19105731
0.19106991
0.1910881
0.19110654
0.19112885
0.19115999
0.19120097
0.19125525
0.19132782
0.19142276
0.19154678
0.19170759
0.19191226
0.19217091
0.19249743
0.19292525
0.19350389
0.19430578
0.19541034
0.058405533
0.081996884
0.10517879
0.11732371
0.15702632
0.1603528
0.18516951
0.19184085
0.19163429
0.19147652
0.19131361
0.19121312
0.19115726
0.19110367
0.19108323
0.1910714
0.19107384
0.19107685
0.19108409
0.19109937
0.19111392
0.19113495
0.19115764
0.19118382
0.19122093
0.19126689
0.19132769
0.19140718
0.19151008
0.19164221
0.19181302
0.19202801
0.19229664
0.19263471
0.19307516
0.19366614
0.19447862
0.19558826
0.015523246
0.011040295
0.015649694
0.0078058829
0.014121087
0.033715003
0.05535592
0.036028981
0.056719999
0.073100821
0.077868696
0.08470609
0.10094309
0.11631019
0.14940257
0.18418034
0.19184096
0.19160951
0.19144628
0.19129134
0.19120485
0.19118155
0.19113879
0.19111817
0.19111141
0.19110586
0.19111343
0.19112442
0.19114166
0.1911578
0.19118187
0.1912089
0.19124041
0.19128372
0.19133581
0.19140362
0.19149027
0.19160101
0.19174243
0.19192287
0.19214804
0.1924274
0.19277774
0.19323175
0.1938352
0.19465767
0.19577367
0.00076977297
0.017020219
0.016848524
0.02658196
0.02528229
0.016144741
0.014788173
0.010156883
0.027191603
0.014155725
0.055320804
0.045721472
0.074362187
0.080234223
0.10687043
0.13165301
0.1604837
0.19209259
0.1918064
0.19158514
0.19140604
0.19128316
0.19121138
0.19117316
0.19114533
0.19114496
0.19114087
0.19114147
0.19115284
0.19116518
0.19118214
0.19120358
0.19123073
0.19126365
0.19130114
0.19134889
0.19140765
0.19148262
0.19157708
0.19169608
0.19184685
0.19203773
0.19227319
0.19256389
0.19292739
0.1933957
0.19401127
0.19484366
0.19597052
0.00075298177
0.013198491
0.013483765
0.012022583
0.026520836
0.032972042
0.016296936
0.029458889
0.029223332
0.040932906
0.027678704
0.063688374
0.067620262
0.093437931
0.11262381
0.14623587
0.17287213
0.1920252
0.19177979
0.19156528
0.19140876
0.19129809
0.19123339
0.19120958
0.19117476
0.19116389
0.19116647
0.19117421
0.1911896
0.19120584
0.19122705
0.19125273
0.19128259
0.19132079
0.19136422
0.19141691
0.19148235
0.19156484
0.19166747
0.19179527
0.19195614
0.19215723
0.19240351
0.19270637
0.19308415
0.19356768
0.19419505
0.19503544
0.19618072
0.00076506453
0.013442716
0.011720477
0.0062964272
0.013058043
0.0081642997
0.012534953
0.018729858
0.037913299
0.040586083
0.062331326
0.061245879
0.074620905
0.082989632
0.11392742
0.12285255
0.15888287
0.19196115
0.19174092
0.19154486
0.19139679
0.19130345
0.1912528
0.19122723
0.19120488
0.19119635
0.19120148
0.19120989
0.19122679
0.19124886
0.19127381
0.1913028
0.19133738
0.19137822
0.19142878
0.19148854
0.19156037
0.19165024
0.19176121
0.19189861
0.1920702
0.19228183
0.19253937
0.19285518
0.19324839
0.193748
0.19438735
0.19523872
0.19640513
0.00073459591
0.010804594
0.011709651
0.01410587
0.018419636
0.019070467
0.035739828
0.030053209
0.014763914
0.031463642
0.040622252
0.067535414
0.078503658
0.088430241
0.10086877
0.14189797
0.16970328
0.19190249
0.19170366
0.19153162
0.19138792
0.19131109
0.19126611
0.1912481
0.19123083
0.19122763
0.19123894
0.1912499
0.19126924
0.19129307
0.19132083
0.19135333
0.19139394
0.19143991
0.19149573
0.19156272
0.19164178
0.19174021
0.19185952
0.19200647
0.19218906
0.19241183
0.19268125
0.19301084
0.19342006
0.19393622
0.19458872
0.19545461
0.19665676
0.00071638975
0.010479504
0.012400786
0.01034937
0.015000694
0.024487385
0.024143042
0.018775446
0.036554622
0.034232615
0.059159422
0.061327423
0.072208878
0.099418393
0.1325746
0.14116264
0.17892812
0.19186809
0.1916672
0.19151531
0.19139115
0.19133053
0.19129106
0.19126845
0.19125842
0.19125909
0.19127261
0.19128798
0.19131255
0.1913388
0.19137001
0.19140684
0.19145127
0.19150398
0.19156639
0.19163985
0.19172659
0.19183387
0.19196218
0.19211934
0.1923129
0.19254714
0.19282916
0.19317333
0.19359902
0.19413129
0.19479594
0.19567006
0.19693063
0.00072523438
0.0093718881
0.0082816031
0.0090603511
0.013102415
0.0095515636
0.020473408
0.013692505
0.020164566
0.0397415
0.064753305
0.060867327
0.094360102
0.095648193
0.10301784
0.14507478
0.17820785
0.19183713
0.19163309
0.19149661
0.19139193
0.19134739
0.19131166
0.19129325
0.19128793
0.19129399
0.19130935
0.19132692
0.19135468
0.19138646
0.19142108
0.19146382
0.19151246
0.19157004
0.19163993
0.19172013
0.19181484
0.19193113
0.19206883
0.19223685
0.19244169
0.19268743
0.19298283
0.19334217
0.19378441
0.1943319
0.19500701
0.19589359
0.19722233
)
;

boundaryField
{
    Side
    {
        type            empty;
    }
    Inlet
    {
        type            calculated;
        value           nonuniform List<scalar> 
30
(
0.19853324
0.198507
0.19853837
0.19854333
0.1985172
0.19852161
0.1985306
0.19854215
0.1985715
0.19860001
0.19862721
0.19865747
0.19869746
0.19874706
0.19880477
0.19886521
0.19892238
0.19896913
0.19899973
0.19901035
0.19932816
0.19931994
0.19929536
0.19926775
0.19925314
0.19924621
0.19926716
0.19927522
0.19898591
0.19861315
)
;
    }
    Airfoil
    {
        type            nutkWallFunction;
        blending        stepwise;
        value           nonuniform List<scalar> 
25
(
0.00085812865
0.00084907482
0.00084132944
0.00083645497
0.0008333295
0.00083226155
0.00083303387
0.00083505608
0.00083844078
0.00084289189
0.00084810298
0.00085406308
0.00086018107
0.0008664337
0.0008722943
0.00087776845
0.00088251683
0.00088621871
0.00088872215
0.00089961878
0.00088998313
0.00088206364
0.00087553632
0.00087019661
0.00086716218
)
;
    }
    Outlet
    {
        type            calculated;
        value           nonuniform List<scalar> 0();
    }
    procBoundary7to0
    {
        type            processor;
        value           nonuniform List<scalar> 
50
(
0.19203421
0.19196924
0.19191443
0.1918652
0.19182489
0.1917967
0.19178562
0.19178426
0.19183881
0.19182037
0.19208747
0.1564811
0.1256455
0.10062693
0.079294865
0.061297554
0.046999242
0.035925403
0.027289576
0.020275188
0.014608761
0.010104768
0.006643065
0.0040070297
0.0023448844
0.00087822055
0.19870907
0.19796396
0.19728485
0.1967006
0.19618644
0.1957257
0.19530869
0.19492881
0.1945844
0.19427333
0.19399196
0.19373786
0.19350769
0.1932991
0.19310896
0.19293676
0.19278136
0.19264005
0.19251151
0.1923947
0.19228896
0.19219374
0.19203421
0.19210828
)
;
    }
    procBoundary7to8
    {
        type            processor;
        value           nonuniform List<scalar> 
53
(
0.19102263
0.19104577
0.19107613
0.19111813
0.19117921
0.19125927
0.19136639
0.19150876
0.19169407
0.19193338
0.19223917
0.19264404
0.19319921
0.19397975
0.19506841
0.19131516
0.19120487
0.1911591
0.19108159
0.19105307
0.1910433
0.19101152
0.19101953
0.19101106
0.19101749
0.19102572
0.1910402
0.19105531
0.19105531
0.030470023
0.048627863
0.068628468
0.10678695
0.1355348
0.17010101
0.18308951
0.19051213
0.19166364
0.19143476
0.19143476
0.016744457
0.013243319
0.025761801
0.023498683
0.018650661
0.043754641
0.044907241
0.052791132
0.030021878
0.030021878
0.00080221972
0.01935854
0.01935854
)
;
    }
}


// ************************************************************************* //
