/*--------------------------------*- C++ -*----------------------------------*\
| =========                 |                                                 |
| \\      /  F ield         | OpenFOAM: The Open Source CFD Toolbox           |
|  \\    /   O peration     | Version:  2506                                  |
|   \\  /    A nd           | Website:  www.openfoam.com                      |
|    \\/     M anipulation  |                                                 |
\*---------------------------------------------------------------------------*/
FoamFile
{
    version     2.0;
    format      ascii;
    arch        "LSB;label=32;scalar=64";
    class       volScalarField;
    location    "0.0155";
    object      Ma;
}
// * * * * * * * * * * * * * * * * * * * * * * * * * * * * * * * * * * * * * //

dimensions      [0 0 0 0 0 0 0];

internalField   nonuniform List<scalar> 
13761
(
0.29971517
0.29971532
0.29971546
0.2997156
0.29971573
0.29971585
0.29971597
0.29971609
0.29939884
0.2997162
0.29939881
0.29971631
0.2993988
0.29971641
0.29939879
0.29971651
0.29939879
0.2997166
0.2993988
0.29971668
0.29939882
0.29971676
0.29939884
0.29971684
0.29966188
0.29939888
0.29971691
0.29966249
0.29939892
0.29971698
0.2996631
0.29939897
0.29971704
0.2996637
0.29939903
0.29971709
0.29966431
0.29939909
0.29971714
0.29966491
0.29939917
0.29971719
0.2996655
0.29939925
0.29971723
0.29951362
0.2996661
0.29939934
0.29971726
0.29951402
0.29966669
0.29939944
0.29971729
0.29951442
0.29966729
0.29939954
0.29971732
0.29951481
0.29966788
0.29939965
0.29971734
0.29951521
0.29966846
0.29939977
0.29971735
0.29951561
0.29966905
0.2993999
0.29971736
0.29951601
0.29966963
0.29940004
0.29951641
0.29967022
0.29940018
0.29959561
0.29951681
0.2996708
0.29940033
0.29959616
0.29951721
0.29967138
0.29940048
0.2995967
0.29951761
0.29967195
0.29940065
0.29959724
0.29951801
0.29967253
0.29940082
0.29959778
0.29951841
0.29967311
0.299401
0.29959832
0.29951881
0.29967368
0.29940118
0.29959887
0.29951921
0.29967425
0.29940137
0.29959941
0.29951961
0.29967483
0.29958738
0.29959996
0.29952001
0.2996754
0.29958746
0.2996005
0.2995204
0.29967597
0.29958753
0.29960105
0.2995208
0.29967654
0.29958761
0.2996016
0.2995212
0.29967711
0.29958769
0.29960215
0.29952159
0.29967767
0.29958776
0.2996027
0.29952199
0.29967824
0.29958784
0.29960325
0.29952238
0.29967881
0.29959984
0.29958791
0.2996038
0.29952277
0.29967938
0.29960012
0.29958799
0.29960435
0.29952316
0.29960041
0.29958807
0.29960491
0.29952355
0.29960069
0.29958815
0.29960547
0.29952394
0.29960097
0.29958822
0.29960603
0.29952432
0.29960125
0.2995883
0.29960659
0.2995247
0.29960153
0.29958838
0.29960715
0.29952508
0.29966787
0.29960182
0.29958846
0.29960771
0.29952546
0.29966787
0.2996021
0.29958854
0.29960828
0.29952584
0.29966787
0.29960238
0.29958861
0.29960885
0.29952622
0.29966786
0.29960266
0.29958869
0.29960942
0.29966785
0.29960294
0.29958877
0.29960999
0.29966783
0.29960323
0.29958885
0.29961056
0.29966781
0.29960351
0.29958893
0.29961114
0.29984943
0.29966778
0.29960379
0.29958901
0.29961172
0.29984945
0.29966774
0.29960408
0.29958909
0.2996123
0.29984945
0.2996677
0.29960436
0.29958917
0.29961289
0.29984944
0.29966766
0.29960464
0.29958924
0.29961347
0.29984941
0.2996676
0.29960493
0.29958932
0.29984936
0.29966755
0.29960521
0.2995894
0.29984929
0.29966749
0.2996055
0.29958948
0.30035147
0.2998492
0.29966742
0.29960578
0.29958956
0.30035161
0.29984909
0.29966735
0.29960607
0.29958964
0.30035172
0.29984896
0.29966727
0.29960636
0.29958972
0.30035177
0.29984881
0.29966719
0.29960665
0.2995898
0.30035177
0.29984865
0.2996671
0.29960693
0.29958988
0.30035173
0.29984846
0.29966701
0.29960722
0.29958996
0.30035163
0.29984826
0.29966691
0.29960751
0.30140194
0.30035148
0.29984804
0.29966681
0.2996078
0.3014032
0.30035129
0.2998478
0.2996667
0.2996081
0.30140437
0.30035104
0.29984754
0.29966658
0.29960839
0.30140544
0.30035075
0.29984726
0.29966647
0.29960868
0.30140641
0.3003504
0.29984697
0.29966634
0.29960898
0.30140727
0.30035001
0.29984665
0.29966622
0.29960927
0.30314859
0.30140803
0.30034957
0.29984632
0.29966608
0.29960957
0.30315408
0.30140868
0.30034908
0.29984597
0.29966595
0.29960987
0.30315942
0.30140923
0.30034853
0.2998456
0.29966581
0.30316457
0.30140967
0.30034794
0.29984522
0.29966566
0.30316954
0.30141001
0.3003473
0.29984482
0.29966551
0.30317434
0.30141025
0.30034661
0.2998444
0.29966535
0.30317895
0.30141038
0.30034588
0.29984396
0.2996652
0.30526911
0.30318338
0.30141041
0.30034509
0.2998435
0.29966503
0.3052858
0.30318763
0.30141034
0.30034426
0.29984303
0.29966486
0.30530222
0.3031917
0.30141016
0.30034337
0.29984254
0.29966469
0.30531837
0.30319559
0.30140988
0.30034244
0.29984204
0.30533424
0.3031993
0.3014095
0.30034146
0.29984152
0.30534984
0.30320283
0.30140901
0.30034044
0.29984098
0.30665877
0.30536516
0.30320617
0.30140842
0.30033936
0.29984043
0.30669575
0.3053802
0.30320932
0.30140772
0.30033824
0.29983986
0.30673247
0.30539496
0.3032123
0.30140693
0.30033707
0.29983927
0.30676893
0.30540944
0.30321508
0.30140603
0.30033586
0.29983867
0.30680514
0.30542364
0.30321769
0.30140503
0.3003346
0.29983805
0.30684108
0.30543756
0.3032201
0.30140392
0.30033329
0.30609273
0.30687676
0.30545119
0.30322233
0.30140272
0.30033193
0.30615571
0.30691216
0.30546455
0.30322438
0.30140141
0.30033053
0.30621854
0.30694729
0.30547762
0.30322624
0.3014
0.30032909
0.30628125
0.30698215
0.30549041
0.30322792
0.3013985
0.3003276
0.30634381
0.30701672
0.30550292
0.30322941
0.30139689
0.30032607
0.30295301
0.30640624
0.30705102
0.30551515
0.30323072
0.30139518
0.30032448
0.30302512
0.30646851
0.30708502
0.30552709
0.30323183
0.30139337
0.30032285
0.30309766
0.30653063
0.30711874
0.30553874
0.30323276
0.30139146
0.30317069
0.30659258
0.30715216
0.3055501
0.30323351
0.30138945
0.30324419
0.30665436
0.30718528
0.30556118
0.30323406
0.30138734
0.30331816
0.30671595
0.30721809
0.30557197
0.30323443
0.30138513
0.30001497
0.30339258
0.30677736
0.30725061
0.30558247
0.30323462
0.30138283
0.30005166
0.30346744
0.30683857
0.30728282
0.30559268
0.30323462
0.30138043
0.30008932
0.30354275
0.30689957
0.30731471
0.3056026
0.30323443
0.30137793
0.30012796
0.30361848
0.30696035
0.3073463
0.30561224
0.30323406
0.30137532
0.30016759
0.30369462
0.30702092
0.30737756
0.30562159
0.30323351
0.30151989
0.30020821
0.30377116
0.30708125
0.30740851
0.30563065
0.30323277
0.30149968
0.30024982
0.3038481
0.30714134
0.30743914
0.30563942
0.30323185
0.3014794
0.30029246
0.30392544
0.3072012
0.30746945
0.30564789
0.30323074
0.30145909
0.3003361
0.30400314
0.30726081
0.30749942
0.30565608
0.30322945
0.30143876
0.30038076
0.3040812
0.30732017
0.30752907
0.30566397
0.30322797
0.30465918
0.30141847
0.30042645
0.30415961
0.30737926
0.30755838
0.30567156
0.3032263
0.30466942
0.30139823
0.30047317
0.30423836
0.30743808
0.30758735
0.30567886
0.30467866
0.30137808
0.30052093
0.30431742
0.30749662
0.30761598
0.30568587
0.30468689
0.30135806
0.30056972
0.30439679
0.30755488
0.30764428
0.30569258
0.30565495
0.30469409
0.3013382
0.30061954
0.30447645
0.30761285
0.30767223
0.305699
0.30569533
0.30470025
0.30131854
0.30067039
0.3045564
0.30767051
0.30769984
0.30570513
0.3057354
0.30470537
0.3012991
0.30072226
0.3046366
0.30772787
0.3077271
0.30571096
0.30577516
0.30470944
0.30127992
0.30077514
0.30471706
0.30778492
0.30775401
0.30571649
0.3058146
0.30471245
0.30126104
0.30082901
0.30479775
0.30784164
0.30778057
0.30572172
0.30578049
0.30585371
0.30471439
0.30124248
0.30088387
0.30487867
0.30789804
0.30780678
0.30581667
0.30589248
0.30471526
0.30122429
0.30093971
0.30495981
0.30795412
0.30783263
0.30585306
0.30593089
0.30471507
0.30120649
0.30099649
0.30504115
0.30800986
0.30785812
0.30588965
0.30596894
0.30471381
0.30118911
0.30105421
0.30512267
0.30806526
0.30788325
0.30762865
0.30592645
0.3060066
0.3047115
0.30117218
0.30111285
0.30520437
0.30812032
0.30790801
0.3076535
0.30596345
0.30604388
0.30470815
0.30115573
0.30117241
0.30528623
0.30817502
0.30793241
0.30767778
0.30600066
0.30608075
0.30470376
0.30113976
0.30123287
0.30536824
0.30822937
0.30795643
0.30770146
0.30603806
0.3061172
0.30469837
0.30112431
0.30129422
0.30545038
0.30828335
0.30966531
0.30772457
0.30607566
0.30615324
0.30469199
0.3011094
0.30135645
0.30553264
0.30833697
0.30970882
0.30774709
0.30611345
0.30618883
0.30468464
0.30109503
0.30141954
0.30561501
0.30839021
0.30975162
0.30776905
0.30615141
0.30622398
0.30467635
0.30108124
0.30148349
0.30569747
0.30844308
0.30979368
0.30779044
0.30618955
0.30625867
0.30466714
0.30106803
0.30154828
0.30578002
0.30849556
0.3111335
0.309835
0.30781129
0.30622784
0.30629288
0.30465704
0.30105543
0.30161391
0.30586263
0.30854766
0.3111837
0.30987556
0.30783158
0.3062663
0.30632661
0.30464606
0.30104346
0.30168037
0.30594531
0.30859941
0.31123343
0.30991535
0.30785134
0.30630489
0.30635985
0.30463424
0.30103212
0.30174765
0.30602804
0.31128269
0.30995437
0.30787058
0.30634361
0.30639257
0.30462161
0.30102146
0.30181573
0.3061108
0.31304533
0.3113315
0.30999262
0.30788931
0.30638246
0.30642476
0.30460818
0.30101148
0.30188461
0.30619359
0.31309491
0.31137987
0.31003009
0.30790755
0.30642142
0.30645641
0.304594
0.30100221
0.30195428
0.30627638
0.31314385
0.31142779
0.31006678
0.3079253
0.30646049
0.30648749
0.3045791
0.30099367
0.30202472
0.30635916
0.31319218
0.31147529
0.31010269
0.30794258
0.30649966
0.306518
0.3045635
0.30098588
0.30209592
0.30644196
0.31530328
0.3132399
0.31152237
0.31013782
0.30795941
0.30653892
0.30654791
0.30454724
0.30097887
0.30216787
0.30652477
0.31535963
0.31328701
0.31156903
0.31017218
0.3079758
0.30657826
0.3065772
0.30453034
0.30097266
0.30224057
0.31541519
0.31333352
0.31161528
0.31020577
0.30799176
0.30661768
0.30660586
0.30451282
0.30096726
0.30231399
0.31755931
0.31546997
0.31337945
0.31166112
0.31023859
0.30800731
0.30665717
0.30663387
0.30449472
0.30096272
0.30238811
0.31762351
0.31552395
0.31342479
0.31170656
0.31027063
0.30802246
0.30669672
0.30666121
0.30447607
0.30095905
0.30246294
0.31768686
0.31557714
0.31346955
0.31175159
0.31030191
0.30803722
0.30673632
0.30668786
0.30445686
0.30095627
0.30253847
0.3200396
0.31774937
0.31562953
0.31351373
0.31179621
0.31033242
0.30805161
0.30677595
0.3067138
0.30443713
0.30095442
0.30261472
0.32010835
0.317811
0.31568111
0.31355734
0.31184041
0.31036215
0.30806564
0.30681561
0.306739
0.30441689
0.30095351
0.32017606
0.31787177
0.31573188
0.31360036
0.3118842
0.3103911
0.30807933
0.30685528
0.30676345
0.30439616
0.30095358
0.32275358
0.32024273
0.31793167
0.31578184
0.31364281
0.31192756
0.31041929
0.3080927
0.30689495
0.30678714
0.30437495
0.30095465
0.32282879
0.32030835
0.3179907
0.31583097
0.31368468
0.3119705
0.3104467
0.30810578
0.30693459
0.30681004
0.30435327
0.30095674
0.32290282
0.32037294
0.31804885
0.31587928
0.31372597
0.312013
0.31047334
0.30811858
0.30697418
0.30683214
0.30433115
0.30095988
0.3256513
0.32297566
0.32043648
0.31810612
0.31592678
0.3137667
0.31205506
0.3104992
0.30813114
0.3070137
0.30685343
0.30430858
0.30096408
0.32573377
0.32304732
0.32049899
0.31816251
0.31597344
0.31380685
0.31209667
0.3105243
0.30814348
0.30705314
0.3068739
0.30428559
0.30096937
0.32863763
0.32581493
0.32311778
0.32056048
0.31821803
0.31601928
0.31384643
0.31213783
0.31054863
0.30815564
0.30709245
0.30689353
0.30426217
0.32872754
0.32589477
0.32318707
0.32062093
0.31827268
0.31606428
0.31388544
0.31217853
0.31057219
0.30816763
0.30713163
0.30691232
0.30423834
0.32881594
0.32597329
0.32325518
0.32068037
0.31832646
0.31610847
0.31392388
0.31221876
0.31059498
0.30817949
0.30717064
0.30693025
0.30421411
0.33190676
0.32890285
0.32605049
0.32332211
0.32073881
0.31837937
0.31615182
0.31396175
0.31225851
0.31061701
0.30819125
0.30720947
0.30694733
0.30418947
0.33200419
0.32898826
0.32612637
0.32338787
0.32079624
0.31843142
0.31619435
0.31399905
0.31229777
0.31063827
0.30820292
0.3072481
0.30696355
0.30416443
0.33523236
0.33209994
0.32907216
0.32620091
0.32345245
0.32085266
0.31848261
0.31623605
0.31403579
0.31233654
0.31065875
0.30821454
0.30728651
0.3069789
0.30413896
0.33533967
0.33219401
0.32915456
0.32627412
0.32351585
0.3209081
0.31853295
0.31627692
0.31407196
0.31237481
0.31067847
0.30822612
0.30732466
0.30699338
0.33544507
0.33228641
0.32923546
0.326346
0.32357808
0.32096254
0.31858243
0.31631696
0.31410757
0.31241256
0.31069742
0.30823769
0.30736255
0.30700698
0.33880958
0.33554856
0.33237713
0.32931486
0.32641655
0.32363914
0.32101601
0.31863107
0.31635619
0.31414262
0.3124498
0.31071561
0.30824926
0.30740016
0.30701971
0.33892535
0.33565015
0.33246617
0.32939277
0.32648577
0.32369904
0.32106852
0.31867888
0.31639461
0.31417712
0.31248652
0.31073304
0.30826085
0.30743747
0.30703156
0.3424092
0.33903899
0.33574984
0.33255355
0.3294692
0.32655367
0.32375778
0.32112007
0.31872586
0.31643223
0.31421107
0.3125227
0.31074972
0.30827248
0.30747446
0.30704255
0.34253673
0.33915049
0.33584763
0.33263925
0.32954414
0.32662025
0.32381537
0.32117067
0.31877203
0.31646905
0.3142445
0.31255836
0.31076564
0.30828416
0.30751113
0.30705267
0.34610892
0.3426619
0.33925986
0.33594352
0.33272328
0.32961762
0.32668553
0.32387182
0.32122034
0.3188174
0.31650509
0.31427739
0.31259347
0.31078083
0.30829589
0.30754745
0.34624917
0.34278471
0.3393671
0.3360375
0.33280564
0.32968961
0.3267495
0.32392714
0.32126909
0.31886198
0.31654035
0.31430977
0.31262805
0.31079528
0.30830769
0.30758343
0.34990195
0.34638683
0.34290515
0.33947221
0.33612959
0.33288633
0.32976015
0.32681217
0.32398133
0.32131692
0.31890577
0.31657486
0.31434164
0.31266208
0.310809
0.30831956
0.30761905
0.35359251
0.35005626
0.34652188
0.34302323
0.3395752
0.33621978
0.33296535
0.32982922
0.32687355
0.3240344
0.32136385
0.31894879
0.31660862
0.31437301
0.31269557
0.310822
0.30833152
0.30765432
0.35376517
0.35020774
0.34665435
0.34313895
0.33967606
0.33630807
0.3330427
0.32989684
0.32693365
0.32408635
0.32140988
0.31899104
0.31664164
0.3144039
0.31272851
0.3108343
0.30834357
0.30768922
0.35749002
0.35393477
0.35035638
0.34678422
0.34325232
0.33977479
0.33639446
0.33311837
0.329963
0.32699247
0.3241372
0.32145503
0.31903254
0.31667393
0.31443431
0.3127609
0.3108459
0.30835573
0.30772377
0.36120754
0.35767943
0.35410129
0.35050218
0.34691148
0.34336331
0.33987138
0.33647894
0.33319236
0.33002771
0.32705001
0.32418694
0.32149929
0.31907329
0.31670551
0.31446425
0.31279273
0.3108568
0.308368
0.36141837
0.35786553
0.35426472
0.35064513
0.34703612
0.34347192
0.33996582
0.3365615
0.33326465
0.33009095
0.32710628
0.32423557
0.32154267
0.31911328
0.31673638
0.31449373
0.312824
0.31086703
0.3083804
0.36512795
0.36162572
0.35804833
0.35442506
0.35078521
0.34715814
0.34357814
0.34005811
0.33664215
0.33333524
0.33015272
0.32716128
0.3242831
0.32158518
0.31915253
0.31676655
0.31452277
0.31285471
0.31087657
0.30839293
0.36878905
0.36535791
0.36182957
0.35822782
0.35458231
0.35092244
0.34727754
0.34368197
0.34014825
0.33672087
0.33340415
0.33021304
0.32721501
0.32432953
0.32162682
0.31919104
0.31679604
0.31455136
0.31288485
0.31088546
0.30840561
0.37238312
0.36904276
0.36558424
0.36202994
0.35840401
0.35473647
0.35105681
0.34739431
0.34378342
0.34023623
0.33679768
0.33347135
0.3302719
0.32726749
0.32437487
0.32166759
0.31922881
0.31682485
0.31457953
0.31291442
0.3108937
0.30841844
0.37266142
0.36929276
0.36580695
0.36222683
0.3585769
0.35488755
0.35118832
0.34750846
0.34388248
0.34032207
0.33687258
0.33353687
0.3303293
0.32731872
0.32441913
0.32170751
0.31926586
0.316853
0.31460727
0.31294342
0.3109013
0.37619847
0.37293596
0.36953904
0.36602604
0.36242023
0.35874649
0.35503555
0.35131698
0.34761999
0.34397916
0.34040577
0.33694558
0.3336007
0.33038525
0.32736871
0.32446231
0.32174657
0.31930217
0.31688049
0.31463461
0.31297185
0.31090828
0.3796402
0.37649814
0.37320675
0.36978159
0.36624149
0.36261016
0.35891279
0.35518046
0.35144278
0.34772889
0.34407346
0.34048732
0.33701667
0.33366285
0.33043976
0.32741746
0.32450441
0.32178478
0.31933775
0.31690734
0.31466155
0.31299969
0.31091464
0.38297533
0.37996525
0.37679407
0.37347377
0.37002042
0.36645332
0.3627966
0.3590758
0.35532229
0.35156572
0.34783518
0.34416538
0.34056674
0.33708587
0.33372333
0.33049282
0.32746499
0.32454546
0.32182215
0.31937261
0.31693355
0.3146881
0.31302696
0.31092041
0.38888714
0.38619423
0.3833257
0.38028663
0.37708624
0.37373702
0.37025551
0.36666151
0.36297956
0.3592355
0.35546104
0.35168581
0.34793885
0.34425492
0.34064404
0.33715318
0.33378213
0.33054444
0.32751129
0.32458545
0.32185868
0.31940674
0.31695912
0.31471428
0.31305365
0.31092558
0.39183123
0.38928983
0.38656955
0.38367253
0.38060434
0.37737466
0.37399649
0.37048688
0.36686608
0.36315904
0.35939191
0.3555967
0.35180304
0.3480399
0.34434211
0.34071921
0.33721861
0.33383928
0.33059463
0.32755638
0.32462439
0.32189437
0.31944015
0.31698408
0.31474008
0.31307975
0.31093016
0.39464456
0.39225701
0.38968944
0.38694153
0.38401584
0.38091836
0.37765931
0.37425217
0.3707145
0.367067
0.36333503
0.35954502
0.35572928
0.35191742
0.34813835
0.34442693
0.34079228
0.33728218
0.33389478
0.3306434
0.32760026
0.32466229
0.32192923
0.31947284
0.31700841
0.31476552
0.31310526
0.3993818
0.39732495
0.39509232
0.39268003
0.39008598
0.38731018
0.38435559
0.38122869
0.37794018
0.37450406
0.37093837
0.36726429
0.36350753
0.35969483
0.35585878
0.35202896
0.34823419
0.34450941
0.34086324
0.33734389
0.33394864
0.33069076
0.32764295
0.32469916
0.32196326
0.3195048
0.31703214
0.31479061
0.31313018
0.40177577
0.39987123
0.39779342
0.39553766
0.39310028
0.39047943
0.38767547
0.38469178
0.3815353
0.37821725
0.37475214
0.37115849
0.36745792
0.36367653
0.35984133
0.35598519
0.35213763
0.34832744
0.34458954
0.34093212
0.33740375
0.33400087
0.3307367
0.32768444
0.32473501
0.32199646
0.31953604
0.31705526
0.31481534
0.31315451
0.40562578
0.4040364
0.40228278
0.40035909
0.39825987
0.39598057
0.39351772
0.39086975
0.38803737
0.38502435
0.38183815
0.37849048
0.37499636
0.3713748
0.36764786
0.363842
0.3599845
0.3561085
0.35224344
0.34841807
0.34466732
0.3409989
0.33746176
0.33405147
0.33078124
0.32772473
0.32476984
0.32202884
0.31956655
0.31707777
0.31483974
0.31317824
0.41004054
0.40889845
0.4076084
0.40616421
0.40455973
0.40278874
0.40084539
0.3987243
0.39642104
0.39393234
0.39125692
0.38839582
0.38535327
0.38213721
0.37875984
0.3752367
0.37158729
0.36783409
0.36400392
0.36012432
0.35622868
0.35234638
0.34850608
0.34474276
0.34106359
0.33751793
0.33410046
0.33082438
0.32776383
0.32480365
0.32206039
0.31959632
0.31709969
0.31486379
0.31320136
0.41322982
0.41249164
0.41162144
0.41061354
0.40946195
0.40816046
0.40670277
0.4050826
0.40329368
0.40133017
0.39918673
0.39685907
0.39434413
0.39164091
0.38875083
0.38567852
0.38243244
0.3790253
0.37547314
0.37179593
0.36801659
0.36416228
0.36026079
0.35634574
0.35244645
0.3485915
0.34481586
0.34112621
0.33757227
0.33414784
0.33086613
0.32780175
0.32483645
0.32209113
0.31962536
0.317121
0.31488751
0.41531047
0.41493498
0.41444178
0.41382592
0.4130822
0.4122051
0.41118875
0.41002696
0.40871338
0.40724155
0.40560509
0.40379767
0.40181345
0.39964717
0.39729466
0.39475307
0.39202171
0.38910235
0.38600008
0.38272383
0.37928685
0.37570566
0.37200072
0.36819537
0.36431707
0.3603939
0.35645969
0.35254365
0.34867432
0.34488664
0.34118677
0.33762481
0.33419362
0.3309065
0.32783849
0.32486826
0.32212105
0.31965366
0.31714172
0.3149109
0.41597717
0.41620826
0.41635014
0.41639751
0.41634543
0.41618911
0.41592387
0.41554499
0.41504761
0.4144266
0.41367658
0.41279182
0.41176629
0.4105936
0.40926723
0.4077806
0.40612723
0.40430073
0.40229526
0.40010562
0.39772779
0.39515916
0.39239929
0.38945037
0.38631791
0.38301135
0.37954445
0.37593424
0.37220164
0.36837039
0.3644683
0.36052365
0.35657052
0.35263799
0.34875455
0.3449551
0.34124529
0.33767554
0.33423784
0.33094551
0.32787407
0.32489909
0.32215016
0.31968122
0.31716185
0.31493396
0.41162933
0.41235553
0.41305547
0.41372305
0.41435043
0.4149296
0.41545282
0.41591267
0.41630203
0.41661419
0.4168429
0.41698238
0.41702725
0.41697245
0.41681307
0.4165443
0.41616125
0.41565892
0.41503199
0.41427489
0.41338173
0.41234626
0.41116195
0.4098221
0.40832
0.40664907
0.40480288
0.40277559
0.40056208
0.39815847
0.39556236
0.39277364
0.38979486
0.38663199
0.38329498
0.37979809
0.37615887
0.37239867
0.36854166
0.36461594
0.36065003
0.35667823
0.35272948
0.34883221
0.34502128
0.34130177
0.33772449
0.33428049
0.33098318
0.32790848
0.32492893
0.32217848
0.31970805
0.3171814
0.31495669
0.0018947931
0.005867238
0.010204991
0.014939391
0.020080771
0.025582172
0.03126817
0.036839688
0.042014786
0.046657215
0.050769805
0.054417693
0.057676325
0.060614741
0.063291175
0.065753026
0.068038795
0.070179626
0.072200423
0.074122075
0.075962746
0.077737397
0.07945856
0.081137207
0.082782506
0.084402395
0.086003728
0.087592353
0.089173444
0.090751514
0.092330529
0.093914085
0.09550542
0.097107708
0.098724335
0.10035875
0.10201471
0.10369652
0.1054092
0.10715885
0.10895316
0.11080197
0.11271818
0.11471932
0.11683002
0.11908717
0.12155097
0.1243316
0.12766381
0.13216776
0.13907398
0.14886515
0.16108675
0.17595815
0.19398821
0.21571364
0.24135351
0.27026374
0.3006041
0.32970993
0.35502239
0.37493882
0.38913113
0.39832935
0.40381901
0.40693343
0.40872899
0.40988765
0.41077709
0.41156391
0.41231005
0.41303167
0.4137277
0.41439155
0.41501529
0.41559093
0.41611075
0.41656733
0.41695354
0.41726264
0.41748831
0.41762471
0.41766637
0.41760813
0.41744495
0.41717188
0.4167839
0.41627583
0.4156422
0.41487725
0.41397491
0.41292875
0.41173207
0.41037802
0.40885977
0.40717064
0.40530414
0.40325446
0.40101653
0.39858666
0.39596265
0.39314471
0.39013578
0.38694228
0.38357468
0.38004775
0.37637951
0.37259179
0.36870916
0.36475999
0.36077306
0.35678283
0.35281813
0.3489073
0.34508517
0.34135624
0.33777168
0.3343216
0.33101951
0.32794175
0.32495782
0.322206
0.31973414
0.31720037
0.3149791
0.0019610469
0.0060724164
0.010561894
0.015461793
0.020782112
0.026472011
0.032345941
0.038091809
0.043420227
0.048195255
0.052423513
0.056173951
0.059524941
0.062547692
0.065302063
0.067836686
0.070191015
0.072396942
0.074479952
0.076461419
0.078359939
0.080190828
0.081966922
0.083699469
0.085397873
0.087070285
0.088723752
0.09036429
0.09199723
0.093627229
0.095258381
0.096894402
0.098538643
0.10019439
0.10186514
0.10355447
0.10526625
0.10700493
0.10877569
0.11058481
0.11244021
0.11435199
0.11633338
0.11840232
0.12058394
0.12291572
0.12545855
0.12832317
0.13174402
0.13633743
0.14333813
0.15330194
0.16576071
0.18091612
0.19927142
0.22134377
0.24728522
0.27632062
0.30646786
0.33500717
0.35945802
0.37838942
0.39165664
0.40011681
0.40509919
0.40791112
0.40954907
0.41063496
0.41149355
0.4122672
0.41300658
0.41372341
0.41441516
0.41507484
0.41569447
0.41626608
0.41678196
0.41723471
0.41761719
0.41792259
0.41814458
0.41827723
0.41831499
0.41825257
0.41808484
0.41780671
0.41741303
0.41689844
0.41625731
0.41548372
0.41457142
0.41351381
0.41230402
0.41093505
0.40939995
0.40769195
0.40580451
0.40373185
0.40146897
0.39901234
0.39636
0.39351248
0.39047311
0.38724877
0.38385044
0.38029339
0.37659615
0.372781
0.36887287
0.36490045
0.36089271
0.35688433
0.35290395
0.34897985
0.34514679
0.34140872
0.33781713
0.33436119
0.33105453
0.32797388
0.32498575
0.32223274
0.31975948
0.31721877
0.0020283139
0.0062807245
0.010924223
0.015992101
0.021493945
0.027374788
0.033438526
0.039359786
0.044841897
0.049749553
0.054093376
0.057946231
0.061389446
0.064496416
0.06732863
0.069935949
0.072358781
0.07462976
0.076774954
0.078816218
0.080772574
0.082659695
0.084490718
0.086277164
0.088028675
0.089753614
0.091459219
0.093151677
0.094836477
0.096518417
0.098201723
0.099890233
0.10158741
0.10329665
0.10502158
0.10676587
0.10853355
0.11032918
0.11215811
0.11402681
0.11594341
0.11791828
0.11996498
0.12210186
0.12435453
0.12676108
0.12938305
0.1323317
0.13584112
0.140523
0.14761509
0.15774882
0.17044492
0.18588465
0.20456402
0.22697797
0.25320556
0.28233493
0.31224559
0.34017706
0.36374316
0.38169247
0.39406041
0.4018203
0.40633282
0.40887118
0.41036974
0.41139237
0.4122242
0.41298605
0.41371889
0.41443072
0.41511781
0.4157729
0.41638796
0.41695504
0.41746647
0.41791484
0.418293
0.41859411
0.41881177
0.41893999
0.41897314
0.41890583
0.41873281
0.41844886
0.41804869
0.4175268
0.41687738
0.41609437
0.41517132
0.41410149
0.41287783
0.41149321
0.40994054
0.408213
0.40630399
0.40420775
0.40191938
0.39943549
0.39675439
0.39387692
0.39080681
0.38755141
0.38412221
0.38053499
0.37680877
0.37296626
0.3690328
0.36503731
0.36100901
0.35698273
0.35298695
0.34904987
0.34520617
0.34145921
0.33786084
0.33439927
0.33108825
0.32800488
0.32501274
0.32225871
0.3197841
0.31723661
0.0020965568
0.0064920423
0.011291764
0.016529983
0.022215809
0.028289884
0.034545119
0.040642621
0.04627863
0.051318805
0.055777976
0.059733005
0.063268214
0.066459189
0.069369054
0.072048898
0.074540079
0.076875977
0.07908323
0.081184178
0.083198268
0.085141525
0.087027386
0.088867648
0.090672186
0.092449575
0.094207247
0.095951559
0.097688156
0.099421984
0.1011574
0.10289836
0.10464845
0.10641117
0.10819025
0.10998952
0.1118131
0.11366571
0.11555284
0.11748115
0.11945899
0.121497
0.12360905
0.12581391
0.12813767
0.13061901
0.13332012
0.13635277
0.13995056
0.14471996
0.15190053
0.16220105
0.17513405
0.19085766
0.209859
0.23260811
0.25910483
0.28829545
0.31792601
0.34521063
0.36787312
0.38484801
0.39634605
0.40344489
0.40752457
0.40981689
0.41119282
0.41216065
0.41296926
0.41372045
0.41444687
0.41515347
0.41583557
0.41648565
0.4170957
0.41765778
0.41816426
0.41860772
0.41898098
0.41927719
0.41948988
0.41961302
0.41964086
0.41956793
0.41938888
0.41909835
0.41869092
0.41816094
0.41750245
0.41670922
0.41577464
0.41469181
0.41345352
0.4120525
0.41048156
0.40873379
0.40680256
0.40468213
0.40236771
0.39985607
0.39714577
0.39423798
0.39113685
0.38785017
0.38438996
0.38077253
0.37701735
0.37314758
0.36918892
0.36517057
0.36112194
0.35707804
0.35306714
0.34911737
0.34526332
0.34150775
0.33790285
0.33443587
0.33112069
0.32803477
0.32503879
0.32228392
0.31980798
0.31725388
0.0021657402
0.0067062541
0.011664309
0.017075128
0.022947256
0.029216691
0.035664923
0.041939315
0.047729239
0.052901654
0.057475797
0.061532613
0.065159442
0.068434076
0.071421269
0.07417334
0.076732595
0.079133152
0.081402229
0.083562639
0.085634256
0.087633454
0.089573973
0.091467879
0.093325284
0.095154975
0.096964575
0.098760613
0.10054889
0.1023345
0.10412193
0.10591527
0.10771819
0.10953433
0.11136754
0.11322174
0.11510119
0.11701075
0.11895606
0.12094397
0.12298303
0.12508416
0.12726154
0.12953434
0.13192915
0.13448521
0.13726535
0.14038185
0.14406774
0.14892367
0.15619003
0.16665379
0.17982262
0.19582893
0.21514935
0.23822613
0.26497351
0.29419138
0.3234986
0.3501001
0.37184458
0.38785731
0.39851793
0.40499597
0.40867907
0.41075131
0.41201988
0.4129404
0.41372883
0.41447028
0.41519037
0.41589152
0.41656828
0.41721298
0.4178176
0.41837423
0.41887526
0.41931328
0.41968109
0.41997179
0.4201789
0.42029628
0.42031813
0.42023888
0.42005305
0.41975519
0.41933972
0.41880087
0.41813252
0.41732828
0.41638139
0.41528478
0.41403109
0.41261293
0.411023
0.4092543
0.4073002
0.40515498
0.40281394
0.40027405
0.39753411
0.39459563
0.39146317
0.38814501
0.38465367
0.38100597
0.37722186
0.37332493
0.36934123
0.36530023
0.36123152
0.35717027
0.35314454
0.34918237
0.34531826
0.34155434
0.33794317
0.334471
0.33115186
0.32806356
0.32506393
0.32230837
0.31983112
0.3172706
0.0022358173
0.0069232019
0.012041568
0.017627096
0.023687671
0.030154369
0.036796843
0.043248505
0.049192105
0.054496245
0.059184767
0.063342773
0.067060653
0.070418409
0.073482431
0.076306268
0.078933171
0.081397996
0.083728534
0.085948078
0.088076921
0.090131788
0.092126715
0.09407404
0.095984109
0.097865918
0.099727282
0.1015749
0.10341473
0.10525201
0.10709135
0.10893696
0.11079265
0.11266214
0.1145494
0.11645848
0.11839376
0.12036022
0.12236367
0.12441111
0.12651134
0.1286755
0.13091813
0.13325876
0.13572448
0.13835511
0.14121409
0.14441416
0.14818776
0.15312924
0.16047885
0.17110182
0.18450483
0.20079195
0.22042783
0.24382381
0.27080207
0.30001217
0.32895354
0.35483873
0.37565544
0.39072268
0.40058113
0.40647916
0.40980083
0.41167729
0.41285234
0.41373214
0.41450297
0.41523544
0.41594925
0.41664472
0.41731583
0.41795478
0.41855355
0.41910429
0.41959938
0.42003144
0.42039324
0.42067786
0.42087875
0.42098973
0.42100491
0.42091862
0.42072529
0.42041935
0.41999508
0.41944658
0.41876758
0.41795154
0.41699156
0.41588039
0.41461053
0.41317449
0.41156483
0.40977452
0.40779688
0.40562625
0.40325803
0.40068938
0.39791936
0.39494983
0.39178576
0.3884359
0.38491331
0.38123529
0.37742229
0.3734983
0.36948973
0.36542629
0.36133775
0.35725943
0.35321916
0.34924489
0.345371
0.34159902
0.33798182
0.33450468
0.33118179
0.32809127
0.32508817
0.32233208
0.31985354
0.31728676
0.0023066611
0.0071424875
0.01242284
0.018184844
0.024435635
0.031101096
0.037938621
0.044567507
0.050664147
0.056099147
0.060901139
0.065159468
0.068967598
0.072407749
0.075547947
0.078442965
0.081136998
0.083665637
0.086057239
0.08833557
0.090521339
0.092631615
0.094680727
0.09668128
0.098643848
0.10057764
0.10249064
0.10438974
0.10628103
0.10816991
0.1100611
0.11195894
0.11386733
0.11579013
0.1177314
0.1196953
0.12168635
0.12370965
0.12577115
0.12787805
0.13003934
0.13226643
0.13457415
0.13698246
0.13951889
0.14222383
0.14516136
0.14844465
0.15230547
0.1573315
0.16476193
0.17553963
0.18917453
0.20573996
0.22568703
0.24939294
0.27658112
0.30574771
0.33428192
0.35942112
0.37930503
0.39344767
0.40254149
0.40790042
0.41089449
0.41259769
0.41369164
0.41453644
0.41529182
0.41601591
0.4167234
0.41741295
0.41807807
0.41871089
0.41930342
0.41984782
0.42033651
0.42076209
0.42111734
0.42139529
0.42158935
0.42169328
0.42170112
0.4216071
0.42140555
0.42109078
0.42065696
0.42009804
0.41940761
0.41857899
0.41760511
0.4164786
0.41519182
0.41373713
0.41210703
0.4102944
0.40829257
0.40609591
0.40369994
0.40110201
0.39830147
0.39530052
0.39210455
0.38872279
0.38516883
0.38146047
0.37761861
0.37366767
0.3696344
0.36554874
0.36144064
0.35734554
0.35329102