/*--------------------------------*- C++ -*----------------------------------*\
| =========                 |                                                 |
| \\      /  F ield         | OpenFOAM: The Open Source CFD Toolbox           |
|  \\    /   O peration     | Version:  2506                                  |
|   \\  /    A nd           | Website:  www.openfoam.com                      |
|    \\/     M anipulation  |                                                 |
\*---------------------------------------------------------------------------*/
FoamFile
{
    version     2.0;
    format      ascii;
    arch        "LSB;label=32;scalar=64";
    class       surfaceScalarField;
    location    "1.1";
    object      phi;
}
// * * * * * * * * * * * * * * * * * * * * * * * * * * * * * * * * * * * * * //

dimensions      [1 0 -1 0 0 0 0];

oriented        oriented;

internalField   nonuniform List<scalar> 
2660
(
-0.19728838
2.5972158
-0.29465246
2.7120607
-0.39114874
2.8334848
-0.48656701
2.9602789
-0.58080119
3.0934243
3.2345612
-0.10024027
2.5931755
-0.19868843
2.6956231
-0.29655528
2.8098917
-0.39352032
2.9304196
-0.48939415
3.0561274
-0.58407985
3.1880899
-0.67750849
3.3279755
-0.7696116
3.4774
-0.86031225
3.6378095
-0.94951881
3.8105256
-1.0371243
3.99681
-1.1230186
4.1979092
-1.2070628
4.4150852
-1.2891178
4.6496912
-1.3690023
4.9031471
-1.4465271
5.1769408
-1.5214891
5.4726556
-1.5936767
5.7919942
6.1368129
-0.10135872
2.6925115
-0.20034503
2.7945209
-0.29871545
2.9081734
-0.3961781
3.0277923
-0.49255693
3.1524156
-0.58775405
3.2831971
-0.68169458
3.4218286
-0.77430032
3.569924
-0.86548468
3.7289205
-0.95515063
3.9001274
-1.0431899
4.0847947
-1.1294827
4.2841563
-1.213904
4.4994698
-1.2963161
4.7320752
-1.37655
4.9833613
-1.4544171
5.2547972
-1.5297143
5.5479503
-1.6022287
5.864514
-1.6717356
6.2063329
-1.7379956
6.5754234
-1.8007505
6.9739906
-1.859706
7.4044205
-1.9145555
7.8692928
-1.9649585
8.3713822
-2.0105758
8.9136696
-2.0510576
9.4993545
10.131886
-0.10221655
2.7924281
-0.20179007
2.8939722
-0.3007248
3.0069844
-0.39874656
3.1256869
-0.49568539
3.2492237
-0.59144144
3.3788186
-0.68593244
3.5161851
-0.77908022
3.6629364
-0.87079912
3.8205035
-0.96098692
3.9901823
-1.0495351
4.1732158
-1.1363159
4.3708237
-1.2211969
4.5842529
-1.3040338
4.8148322
-1.3846601
5.0639277
-1.4628898
5.3329864
-1.5385267
5.6235623
-1.6113675
5.9373415
-1.6811929
6.2761556
-1.747761
6.641999
-1.8108083
7.0370561
-1.8700439
7.463685
-1.9251537
7.9244418
-1.9758045
8.4220774
-2.0216482
8.9595532
-2.0623345
9.5400555
-2.097493
10.167001
-2.126707
10.844076
-2.1494805
11.575258
-2.165239
12.364875
-2.1734474
13.217676
-2.1734912
14.138635
-2.1647463
15.133077
16.206912
-0.10318986
2.8927954
-0.20329398
2.99389
-0.30277748
3.1062775
-0.40136795
3.2240823
-0.49888619
3.3465425
-0.59521917
3.4749509
-0.6902879
3.6110471
-0.78401239
3.7564415
-0.87629767
3.9125622
-0.96704477
4.080704
-1.0561255
4.2620943
-1.1434309
4.4579391
-1.2288511
4.6694731
-1.3122083
4.898003
-1.3933162
5.1448697
-1.4719877
5.4115156
-1.5480199
5.6994808
-1.6212027
6.0104388
-1.6913239
6.3462119
-1.758161
6.7087827
-1.8214644
7.1003098
-1.880961
7.5231312
-1.9363374
7.9797592
-1.9872674
8.4729294
-2.0334128
9.0055815
-2.0743842
9.5808474
-2.1097365
10.202104
-2.1391182
10.87307
-2.1620495
11.59771
-2.1779604
12.380214
-2.186233
13.225163
-2.1862783
14.137619
-2.1775211
15.123003
-2.159184
16.187194
-2.1303902
17.336608
-2.0901485
18.578204
-2.0374549
19.919231
21.368028
-0.10402733
2.9936063
-0.20472407
3.0942873
-0.30481041
3.2060664
-0.40400295
3.3229792
-0.5021193
3.4443622
-0.59904798
3.5715776
-0.69469709
3.7063902
-0.78898039
3.8504238
-0.881804
4.0050866
-0.97308868
4.1716792
-1.0627301
4.3514062
-1.1505783
4.5454589
-1.2364884
4.7550798
-1.3203327
4.9815517
-1.4019338
5.2261977
-1.4810939
5.4904247
-1.5576147
5.7757649
-1.6312771
6.0838856
-1.701851
6.4166004
-1.7691085
6.7758766
-1.832795
7.1638435
-1.8926261
7.5828164
-1.9482939
8.0352767
-1.9994676
8.5239207
-2.0458423
9.0516647
-2.0870631
9.6216667
-2.1226841
10.237293
-2.1522116
10.902105
-2.1751711
11.619969
-2.1910509
12.39518
-2.1993212
13.232395
-2.1993239
14.136591
-2.1902771
15.113249
-2.1713814
16.168156
-2.1418797
17.307479
-2.1010123
18.538062
-2.0477663
19.86728
-1.9808426
21.303404
-1.8990597
22.854821
-1.801451
24.531262
26.341019
-0.10401666
3.0949425
-0.20536726
3.1952458
-0.30613729
3.3064432
-0.40602783
3.4224768
-0.50483456
3.542779
-0.60243082
3.668787
-0.69871628
3.8022916
-0.79361013
3.9449361
-0.88704333
4.0981416
-0.97891267
4.2631798
-1.0691205
4.4412495
-1.1575553
4.6335284
-1.2440635
4.8412325
-1.3284803
5.0656181
-1.4106298
5.3080009
-1.4903162
5.569777
-1.5673289
5.8524633
-1.6414647
6.1577124
-1.7125054
6.4873245
-1.7801824
6.843255
-1.8442221
7.2276204
-1.9043606
7.6427085
-1.9603482
8.090986
-2.0118969
8.5751124
-2.0586033
9.0979607
-2.0999708
9.6626149
-2.1356688
10.272427
-2.1652847
10.93101
-2.1883167
11.642287
-2.2042174
12.410475
-2.2122518
13.240177
-2.2117635
14.136313
-2.2021571
15.104221
-2.1827883
16.149645
-2.1528606
17.278815
-2.1114222
18.498511
-2.0575085
19.815986
-1.990095
21.239227
-1.9079686
22.776356
-1.8100134
24.436939
-1.6955909
26.229723
-1.5636641
28.166549
-1.4126477
30.257101
32.515252
-0.10339607
3.196766
-0.20528578
3.2967132
-0.30662062
3.4073545
-0.40710478
3.5225368
-0.50652785
3.6417819
-0.60476174
3.766604
-0.7017229
3.8988381
-0.79730051
4.0401039
-0.8913989
4.1918391
-0.98392277
4.3553103
-1.074761
4.5316956
-1.1637914
4.7221629
-1.2508693
4.9279109
-1.3358291
5.1501791
-1.4185064
5.3902649
-1.4987091
5.6495614
-1.5762402
5.9295735
-1.6508752
6.2319364
-1.7223868
6.5584373
-1.7905415
6.9110109
-1.8550817
7.2917542
-1.9157132
7.7029258
-1.9721239
8.1469785
-2.0239778
8.6265579
-2.0708877
9.1445085
-2.1125242
9.7039253
-2.1484536
10.308121
-2.1781102
10.96067
-2.2009532
11.665425
-2.2164867
12.426563
-2.2241939
13.248625
-2.2234344
14.136551
-2.2135141
15.095691
-2.1937109
16.13174
-2.1632883
17.250797
-2.1214667
18.459482
-2.067312
19.764828
-1.9997348
21.174603
-1.9174708
22.696778
-1.8192313
24.34104
-1.7041976
26.116632
-1.5716602
28.035151
-1.4201938
30.105616
-1.2475692
32.341967
-1.0514118
34.75474
37.362687
-0.10350989
3.2991004
-0.20589497
3.398669
-0.3077287
3.5087458
-0.40872401
3.6230783
-0.50866622
3.7412706
-0.60740927
3.864908
-0.70485153
3.9958582
-0.80093387
4.1357683
-0.89555568
4.2860452
-0.98859639
4.4479498
-1.0799506
4.6226578
-1.1695103
4.8113282
-1.2571519
5.015141
-1.3427067
5.2353144
-1.4259886
5.4731188
-1.506809
5.7299306
-1.5849547
6.0072441
-1.6601841
6.3066909
-1.7322259
6.6300506
-1.800855
6.9792491
-1.8658173
7.3563683
-1.9268448
7.7636697
-1.9835913
8.2035684
-2.0356712
8.678662
-2.082755
9.1917919
-2.1244191
9.7459704
-2.1602352
10.344489
-2.1897862
10.990913
-2.2125636
11.68909
-2.2280118
12.443197
-2.2355089
13.257724
-2.2344586
14.137527
-2.2242518
15.087851
-2.2042479
16.114291
-2.1737615
17.222805
-2.1320004
18.419843
-2.0779938
19.712311
-2.0104847
21.108061
-1.9279231
22.615212
-1.8290249
24.243667
-1.7133084
26.002386
-1.5803956
27.902329
-1.4284561
29.952794
-1.254932
32.167984
-1.0575711
34.556977
-0.83634266
37.140254
-0.58867893
39.926516
42.977615
-0.10395268
3.4020982
-0.20682815
3.5012361
-0.30913395
3.6107139
-0.41058587
3.7241761
-0.51098469
3.8413055
-0.61020012
3.9637536
-0.70814428
4.09343
-0.80473118
4.2319846
-0.89986703
4.3808093
-0.99346522
4.5411679
-1.0853972
4.7142149
-1.1755115
4.9010775
-1.2636381
5.1029278
-1.3496343
5.3209796
-1.4333421
5.5564962
-1.5145641
5.8108417
-1.5930936
6.0854961
-1.6687135
6.3820777
-1.7411971
6.7023423
-1.8102738
7.048206
-1.8756333
7.4217155
-1.9369587
7.8251068
-1.9939679
8.2607946
-2.0463095
8.7313531
-2.0935779
9.2396056
-2.135391
9.7885481
-2.171268
10.381432
-2.2007476
11.021822
-2.2233471
11.713486
-2.2385902
12.46053
-2.2459638
13.267382
-2.2449016
14.138803
-2.2348425
15.079902
-2.2151743
16.096061
-2.1851745
17.193232
-2.1438662
18.378058
-2.0899497
19.657769
-2.021998
21.040264
-1.9386453
22.533317
-1.8390912
24.146095
-1.7231117
25.8873
-1.5897699
27.768508
-1.4371306
29.799149
-1.2626844
31.99283
-1.0642568
34.35794
-0.84163025
36.916186
-0.59243918
39.676574
-0.31453409
42.700535
45.952772
-0.10520759
3.5058016
-0.20850254
3.6044444
-0.31118858
3.7132846
-0.41302398
3.8258643
-0.51384147
3.9419439
-0.61353023
4.0632315
-0.71197663
4.1916361
-0.80907021
4.3288154
-0.90471887
4.4761847
-0.99880389
4.6349843
-1.0911937
4.8063571
-1.1817687
4.9914327
-1.2703837
5.1913537
-1.35684
5.4072877
-1.4409588
5.6405187
-1.5225547
5.8923864
-1.601422
6.1643576
-1.6773577
6.4580398
-1.7501394
6.7751854
-1.819505
7.1176918
-1.8851787
7.4876084
-1.9468316
7.8871381
-2.0040783
8.318634
-2.0565462
8.7846658
-2.1038468
9.2880249
-2.1456124
9.8317341
-2.1814532
10.418978
-2.2109022
11.053215
-2.2335399
11.738172
-2.2488913
12.477887
-2.2565335
13.276621
-2.2559727
14.139052
-2.2466328
15.070312
-2.2277009
16.076036
-2.1980672
17.162338
-2.156589
18.335753
-2.102075
19.603217
-2.0333491
20.972419
-1.949376
22.450753
-1.8496069
24.047338
-1.7333971
25.771056
-1.5993654
27.633574
-1.445802
29.644355
-1.270432
31.816664
-1.0712303
34.158054
-0.84710779
36.690705
-0.5962654
39.424332
-0.31600579
42.420152
45.642571
-0.1074222
3.6102601
-0.21127522
3.7083693
-0.31443
3.8164962
-0.41664208
3.9281143
-0.51776621
4.0430815
-0.61770575
4.1631574
-0.71639447
4.29029
-0.81375801
4.4261308
-0.90970152
4.5720653
-1.004099
4.7293106
-1.0968179
4.8990057
-1.1877071
5.0822697
-1.2766378
5.2802517
-1.3634594
5.4941111
-1.447967
5.7250812
-1.5299443
5.9744973
-1.6091752
6.2438181
-1.6854345
6.5346339
-1.7584727
6.8486787
-1.8280464
7.1878282
-1.8938828
7.5541097
-1.9556678
7.9497197
-2.0130997
8.377023
-2.0658494
8.8385477
-2.113501
9.3369744
-2.1555835
9.8752469
-2.1917308
10.456557
-2.2215499
11.084281
-2.2446707
11.762106
-2.2607177
12.494017
-2.2691548
13.284389
-2.2692273
14.138018
-2.2600801
15.060001
-2.2408749
16.055824
-2.2108111
17.131409
-2.1688415
18.293189
-2.1138038
19.548106
-2.0445352
20.903716
-1.9603215
22.367287
-1.8604335
23.947805
-1.7439152
25.654185
-1.6091628
27.497944
-1.4545244
29.488612
-1.2782069
31.639301
-1.0780023
33.957
-0.85251674
36.464097
-0.60007759
39.170018
-0.31777645
42.136763
45.329454
-0.10972498
3.7153973
-0.21414477
3.8129797
-0.31780704
3.9203534
-0.42049502
4.0309947
-0.52209051
4.1448626
-0.62249059
4.2637346
-0.7215808
4.3895496
-0.81929047
4.5239994
-0.91555199
4.6684704
-1.0102772
4.8241652
-1.1033433
4.9921952
-1.1946147
5.1736679
-1.2838993
5.3696817
-1.3710188
5.5814135
-1.4557869
5.8100779
-1.5380076
6.0570061
-1.6174665
6.3236466
-1.6939396
6.6115738
-1.7671895
6.9224988
-1.8369751
7.2582805
-1.9030485
7.6209183
-1.9651272
8.0125623
-2.0228592
8.4355046
-2.0758996
8.8922646
-2.123923
9.3855207
-2.1665948
9.9181517
-2.2035443
10.493317
-2.2342904
11.11443
-2.258254
11.785214
-2.274782
12.509636
-2.2832549
13.292001
-2.2831334
14.136943
-2.2737514
15.049514
-2.2542625
16.035215
-2.2237231
17.100005
-2.1811342
18.250236
-2.1255517
19.492608
-2.0559928
20.834476
-1.9716696
22.283303
-1.8716179
23.847766
-1.7543874
25.536607
-1.6186597
27.361491
-1.4630498
29.331909
-1.2859339
31.460826
-1.084741
33.754943
-0.85783851
36.236364
-0.60392286
38.91416
-0.32003327
41.851212
45.013278
-0.111834
3.8211533
-0.2169959
3.9182706
-0.32129347
4.024832
-0.42448962
4.1344136
-0.52647518
4.2471052
-0.62721648
4.3647561
-0.72666416
4.489289
-0.82475264
4.62238
-0.92138554
4.7653915
-1.0164552
4.9195163
-1.1098399
5.0858572
-1.2013894
5.2654863
-1.2909829
5.4595349
-1.3784465
5.6691274
-1.4635783
5.8954675
-1.5461382
6.1398677
-1.625936
6.4037563
-1.7027907
6.6887054
-1.7764575
6.9964111
-1.8466637
7.3287075
-1.9131428
7.6875555
-1.975662
8.0750909
-2.0339501
8.4935931
-2.0876871
8.9455453
-2.1364884
9.4336109
-2.1798742
9.9606727
-2.2173382
10.529874
-2.2483766
11.144563
-2.2725098
11.808361
-2.289181
12.525204
-2.2977759
13.299409
-2.2975909
14.13561
-2.2878614
15.038833
-2.2678083
16.014543
-2.2366258
17.068557
-2.1934941
18.207082
-2.137577
19.436724
-2.0677795
20.764754
-1.9829877
22.198696
-1.882267
23.74723
-1.7644178
25.418886
-1.6278504
27.224841
-1.471293
29.174736
-1.2934307
31.281769
-1.0912524
33.552114
-0.86297685
36.007762
-0.60768697
38.657335
-0.32224615
41.564111
44.694892
-0.11325299
3.9273074
-0.21906822
4.0239975
-0.32402591
4.1297778
-0.42787214
4.2383284
-0.53047492
4.3498509
-0.63175202
4.4662633
-0.73164422
4.5894749
-0.83011706
4.721175
-0.92709321
4.8627094
-1.0224705
5.015253
-1.116156
5.179909
-1.2080181
5.3577044
-1.297883
5.5497316
-1.385582
5.75714
-1.4709692
5.9811221
-1.5539171
6.2229762
-1.6342098
6.4841103
-1.7115709
6.766074
-1.7857892
7.0705417
-1.8566321
7.3993242
-1.9238168
7.7543749
-1.987027
8.1378027
-2.0459371
8.551872
-2.1002021
8.999035
-2.1494557
9.4819293
-2.1932571
10.003401
-2.2311407
10.566547
-2.2626286
11.174694
-2.2871204
11.831479
-2.3039564
12.540816
-2.3124698
13.306984
-2.3119875
14.134583
-2.3018286
15.02856
-2.2812618
15.994223
-2.2496259
17.037278
-2.2062066
18.16385
-2.1500052
19.380618
-2.0799048
20.694849
-1.9946738
22.11398
-1.8930186
23.646634
-1.7739445
25.301162
-1.6364835
27.088262
-1.4792055
29.017557
-1.3004181
31.102383
-1.0975458
33.348845
-0.86803692
35.778433
-0.61130588
38.39997
-0.32434908
41.276047
44.374326
-0.11370181
4.0340177
-0.22024544
4.1303047
-0.32593553
4.2353129
-0.43050283
4.3428266
-0.53379495
4.4531772
-0.63572571
4.5683084
-0.73627913
4.6902287
-0.83535435
4.8205574
-0.93286022
4.9606045
-1.028715
5.1115465
-1.1228044
5.2744601
-1.2150515
5.4504155
-1.3053251
5.6404364
-1.3934864
5.8456551
-1.4793559
6.0672509
-1.5627487
6.3065151
-1.6434797
6.5648568
-1.7213529
6.8438025
-1.7961283
7.1450052
-1.8675399
7.4702577
-1.9352922
7.8214886
-1.9990606
8.2007786
-2.058512
8.6103788
-2.1132638
9.0527279
-2.1629577
9.5304407
-2.2071987
10.046334
-2.2454488
10.603483
-2.2771469
11.20517
-2.3016939
11.85502
-2.3184479
12.556931
-2.3267585
13.315109
-2.326002
14.134039
-2.3155467
15.018594
-2.2947551
15.973997
-2.2629275
17.005943
-2.219245
18.120564
-2.1627114
19.324457
-2.0921431
20.624864
-2.0062599
22.029162
-1.9038124
23.545778
-1.7838133
25.182865
-1.6453207
26.950958
-1.4868573
28.859703
-1.3070908
30.922419
-1.1034762
33.144713
-0.8730831
35.548109
-0.61507764
38.142318
-0.32641173
40.987261
44.05186
-0.11338083
4.1411995
-0.22040314
4.2370468
-0.32664746
4.341332
-0.43186181
4.4478702
-0.53591844
4.55711
-0.63867196
4.6710107
-0.74001457
4.7916177
-0.83984742
4.9205256
-0.93811168
5.0590995
-1.0346965
5.208443
-1.1294775
5.3696074
-1.2223279
5.54366
-1.313127
5.7316319
-1.4017372
5.9346201
-1.4880261
6.1538032
-1.571836
6.3904606
-1.652985
6.6459824
-1.731295
6.9218882
-1.8065287
7.2198284
-1.8784336
7.5415729
-1.9467347
7.889019
-2.0110927
8.2642157
-2.0711265
8.6693803
-2.1264164
9.1069235
-2.1765465
9.5794492
-2.2210902
10.089797
-2.2595489
10.640999
-2.2913449
11.236267
-2.315883
11.879178
-2.3325742
12.573572
-2.3407927
13.323598
-2.3399306
14.13372
-2.3293656
15.008765
-2.30846
15.953869
-2.276451
16.97468
-2.2324691
18.077289
-2.1755418
19.268226
-2.1044802
20.554645
-2.0179706
21.943876
-1.9147481
23.444297
-1.7938338
25.063913
-1.6542275
26.813057
-1.4945377
28.70094
-1.3130324
30.741145
-1.1082483
32.939616
-0.87764884
35.317404
-0.61831607
37.884087
-0.32842369
40.698337
43.728154
-0.11302475
4.2490025
-0.22063793
4.3443783
-0.32751406
4.4479459
-0.4333876
4.5535135
-0.53809304
4.6616311
-0.64153358
4.7743286
-0.7436202
4.8936497
-0.84420466
5.0211363
-0.94317396
5.1581705
-1.0404515
5.3058968
-1.135919
5.4653205
-1.2294675
5.6375115
-1.320937
5.8234397
-1.4101884
6.0242088
-1.4970467
6.2409769
-1.5813537
6.475019
-1.6629648
6.7277192
-1.7416637
7.0005787
-1.8172427
7.2952334
-1.8894749
7.6134227
-1.9580989
7.9570592
-2.0227509
8.3281821
-2.0830822
8.7289839
-2.1387289
9.1618343
-2.1892009
9.6292683
-2.2340263
10.134034
-2.2727016
10.679191
-2.3046442
11.267994
-2.3293362
11.903926
-2.3461937
12.590723
-2.3545787
13.332532
-2.3538283
14.133766
-2.3433285
14.999182
-2.3224174
15.933899
-2.2902931
16.94346
-2.2460474
18.033937
-2.1887247
19.211802
-2.1171871
20.484106
-2.0301745
21.858125
-1.9262772
23.342101
-1.8044325
24.944135
-1.6637185
26.674335
-1.5027844
28.541469
-1.3200962
30.559229
-1.1139206
32.733208
-0.882207
35.085351
-0.62183542
37.624462
-0.33107039
40.409155
43.403934
-0.11229198
4.3575839
-0.22035403
4.4523885
-0.32775649
4.555271
-0.43427166
4.6599451
-0.53968564
4.7669576
-0.64387086
4.8784265
-0.74665735
4.9963672
-0.84800228
5.1224457
-0.94778731
5.2579769
-1.0458661
5.4040585
-1.1421243
5.5617273
-1.2363984
5.732
-1.3285553
5.91587
-1.4184164
6.1144098
-1.5058372
6.3287731
-1.5906419
6.5602175
-1.67265
6.8101103
-1.7517124
7.0799465
-1.827608
7.3713543
-1.9000945
7.6860515
-1.9689463
8.0259079
-2.0338554
8.392925
-2.0944056
8.7892701
-2.150262
9.2172732
-2.2010013
9.6795116
-2.246105
10.178769
-2.2850386
10.717983
-2.3172635
11.300311
-2.3422157
11.929216
-2.3593473
12.608377
-2.368007
13.341889
-2.367518
14.134129
-2.3572486
14.989794
-2.3364723
15.913946
-2.3043355
16.912058
-2.259942
17.990187
-2.2022971
19.154752
-2.1302987
20.412716
-2.0427026
21.771376
-1.9380874
23.238845
-1.8153688
24.823301
-1.6735083
26.534384
-1.511303
28.380569
-1.3271297
30.37534
-1.1196717
32.524935
-0.8867479
34.850804
-0.62524636
37.362789
-0.33314416
40.118185
43.079376
-0.11175593
4.4670086
-0.22032029
4.5611876
-0.32822094
4.6633531
-0.43521216
4.7670715
-0.54112063
4.8729598
-0.64586333
4.9832226
-0.74932733
5.0998539
-0.85138072
5.2245081
-0.95190242
5.3585134
-1.050763
5.5029606
-1.1478331
5.6588815
-1.2429166
5.8272179
-1.335856
6.0090036
-1.426469
6.2052822
-1.5145604
6.4171987
-1.5999395
6.6460012
-1.6824191
6.893058
-1.7618332
7.1598435
-1.8379795
7.4479422
-1.9106369
7.7590801
-1.9795661
8.095119
-2.0445688
8.4580428
-2.1053582
8.8499823
-2.1614786
9.2732802
-2.2124503
9.7304367
-2.2577689
10.224114
-2.2969483
10.757249
-2.329503
11.33301
-2.354855
11.954775
-2.3723936
12.626214
-2.3814704
13.3513
-2.3813839
14.134373
-2.3714297
14.980087
-2.3508596
15.893478
-2.3187825
16.87997
-2.2742624
17.945596
-2.2162782
19.096794
-2.1437628
20.340484
-2.0555105
21.683855
-1.9502821
23.13484
-1.826837
24.701344
-1.6841095
26.392727
-1.5208322
28.21766
-1.3351784
30.189353
-1.1260841
32.314835
-0.8913708
34.614244
-0.62880585
37.099087
-0.33486977
39.82462
42.752298
-0.11199574
4.5772137
-0.22106051
4.670715
-0.32945018
4.7721709
-0.43695454
4.874948
-0.54340387
4.979719
-0.64863982
5.088707
-0.75259767
5.2039979
-0.85519939
5.3272357
-0.95630468
5.4596863
-1.0558083
5.6024888
-1.1535285
5.7566151
-1.2493018
5.9230368
-1.3429292
6.1027363
-1.4342236
6.2967499
-1.522986
6.5062129
-1.6090131
6.7323615
-1.6920828
6.9765544
-1.7720026
7.2402624
-1.8485968
7.5250467
-1.9216663
7.8326221
-1.9909287
8.1648183
-2.0560783
8.5236109
-2.116815
8.9110972
-2.1727925
9.3295594
-2.2237559
9.7814751
-2.2693014
10.269497
-2.3088821
10.796503
-2.3419197
11.365593
-2.3677917
11.980117
-2.3858575
12.643703
-2.3954541
13.360243
-2.3958398
14.134055
-2.3862248
14.96978
-2.3658187
15.872486
-2.3337445
16.84754
-2.2890325
17.900846
-2.2306693
19.038768
-2.1576042
20.268094
-2.0687268
21.595858
-1.9629615
23.029822
-1.8390574
24.577914
-1.6954617
26.249647
-1.5310447
28.053641
-1.3442605
30.002322
-1.1333225
32.103281
-0.89703538
34.376369
-0.63294972
36.833542
-0.33681264
39.528415
42.421555
-0.11228824
4.6882862
-0.2221891
4.7811335
-0.33128555
4.8818213
-0.43936275
4.9835847
-0.54629057
5.0871803
-0.65198526
5.1948802
-0.75639299
5.3088014
-0.85943875
5.430577
-0.96102736
5.5614743
-1.0610176
5.7026009
-1.1592851
5.8549396
-1.2556606
6.0194296
-1.349951
6.197033
-1.4419435
6.3887702
-1.531398
6.5957601
-1.618097
6.8192347
-1.7018215
7.0605307
-1.7823275
7.3211096
-1.8593683
7.602528
-1.9327015
7.9064858
-2.0021596
8.2347788
-2.067522
8.5893555
-2.1284746
8.9723119
-2.1847476
9.3858767
-2.235986
9.8324836
-2.2817626
10.314749
-2.3216116
10.835521
-2.3549712
11.397885
-2.3812135
12.005168
-2.3996979
12.660935
-2.4097168
13.36907
-2.4104643
14.133815
-2.4010286
14.959703
-2.3805517
15.851808
-2.3482752
16.81537
-2.3032881
17.856248
-2.2446385
18.980688
-2.1712802
20.195327
-2.0823209
21.507106
-1.9765618
22.923864
-1.852219
24.45358
-1.7077826
26.105624
-1.5420131
27.888194
-1.3535979
29.814144
-1.1411554
31.890809
-0.90326186
34.137211
-0.63681154
36.565791
-0.3383306
39.229437
42.087641
-0.11252991
4.8000652
-0.2231999
4.8922547
-0.33303882
4.9921712
-0.44183267
5.0929407
-0.54944083
5.1953752
-0.65575479
5.301772
-0.7607046
5.4142869
-0.86423676
5.5345707
-0.96630313
5.6639006
-1.0667917
5.8033193
-1.1655788
5.9538158
-1.2624901
6.116314
-1.3573478
6.291768
-1.4499457
6.4811857
-1.5400487
6.6856718
-1.6274378
6.9064444
-1.7118613
7.1448294
-1.7930485
7.4022635
-1.8707348
7.6802894
-1.9446682
7.9805725
-2.0146257
8.3048997
-2.0803475
8.6552063
-2.1415913
9.0335674
-2.1980937
9.4421829
-2.2494937
9.8834722
-2.2954528
10.360033
-2.3355133
10.874635
-2.369089
11.43031
-2.395536
12.030354
-2.4141398
12.678327
-2.4241417
13.378072
-2.4247713
14.133754
-2.4152396
14.949842
-2.3947191
15.831299
-2.3623333
16.78331
-2.3172246
17.811613
-2.2585043
18.922383
-2.1852609
20.122123
-2.096365
21.417669
-1.9902975
22.817023
-1.8653034
24.328186
-1.7200092
25.960615
-1.5532446
27.722288
-1.3636078
29.625448
-1.1496229
31.676979
-0.90993588
33.896582
-0.64205388
36.29696
-0.34150141
38.928226
41.750841
-0.11322934
4.9125617
-0.22478673
5.0041374
-0.33544136
5.1032032
-0.44496849
5.2028908
-0.55322557
5.3040886
-0.66019554
5.4092156
-0.76577581
5.5203393
-0.86988517
5.6391254
-0.97244744
5.7668489
-1.0733981
5.9045558
-1.1726462
6.0531965
-1.2700751
6.2136904
-1.3654856
6.3869754
-1.4586762
6.5740505
-1.5494373
6.7760154
-1.637486
6.9940688
-1.7225633
7.229519
-1.8044164
7.4837813
-1.8827719
7.758389
-1.9573036
8.0549842
-2.0277165
8.3753485
-2.0938029
8.7213788
-2.1553733
9.0951306
-2.2121258
9.4988078
-2.2637262
9.9347408
-2.3098066
10.405507
-2.3499498
10.913863
-2.3836068
11.462819
-2.4100794
12.05558
-2.428609
12.695674
-2.4384732
13.386947
-2.4389809
14.133502
-2.4293624
14.939769
-2.4087518
15.81059
-2.3762795
16.751002
-2.3312432
17.766748
-2.2727136
18.863688
-2.1995919
20.048335
-2.1105055
21.32774
-2.0039663
22.709855
-1.8783739
24.202551
-1.7321194
25.815196
-1.5642658
27.555734
-1.3736655
29.435851
-1.1583139
31.462343
-0.91670833
33.654985
-0.64644785
36.025763
-0.34343633
38.624662
41.412017
-0.11387539
-0.22619775
-0.33763714
-0.44797969
-0.55708991
5.4135085
-0.66479292
5.5172638
-0.77105065
5.6269586
-0.87581306
5.7442411
-0.97901012
5.8703597
-1.0805494
6.0063442
-1.1803129
6.1531336
-1.2781835
6.3116359
-1.3740441
6.4827712
-1.4677382
6.6675207
-1.5590435
6.8669634
-1.6477287
7.0822888
-1.7334946
7.3147874
-1.8160269
7.5658647
-1.895009
7.8370385
-1.9701758
8.1299256
-2.0412552
8.4462704
-2.107935
8.787973
-2.1698831
9.1570604
-2.2268184
9.555706
-2.2784768
9.9862636
-2.3245814
10.45123
-2.3647324
10.953307
-2.3983682
11.495467
-2.4248137
12.080884
-2.4433344
12.713054
-2.4531855
13.395766
-2.4535654
14.133073
-2.4437034
14.929382
-2.4229392
15.789564
-2.3905028
16.718398
-2.3454743
17.72141
-2.2870026
18.804644
-2.213826
19.974459
-2.1244634
21.237892
-2.017347
22.602701
-1.8911042
24.0766
-1.7441986
25.668914
-1.5755562
27.387904
-1.3837424
29.245009
-1.1668042
31.246827
-0.92354903
33.412419
-0.65102034
35.752255
-0.34587186
38.318853
41.07133
-0.56110481
-0.66959889
-0.77666676
-0.88217776
-0.98603385
-1.0881415
6.1087745
-1.1884153
6.2536944
-1.2867542
6.4101857
-1.3830436
6.5791588
-1.477132
6.7615862
-1.5688571
6.9585227
-1.6580182
7.1711338
-1.744349
7.4006911
-1.8275352
7.6485727
-1.9072338
7.9162762
-1.983104
8.2054188
-2.0548135
8.5177363
-2.1220429
8.8550929
-2.1844721
9.2194741
-2.241789
9.6130263
-2.2937324
10.038081
-2.3399504
10.497142
-2.3800952
10.992903
-2.413689
11.528196
-2.4401145
12.106214
-2.4585924
12.730403
-2.4683035
13.404476
-2.4685249
14.132527
-2.4585232
14.918789
-2.437604
15.768083
-2.4051374
16.685334
-2.3601755
17.675772
-2.3015615
18.745291
-2.2279805
19.900334
-2.137941
21.147756
-2.030196
22.495193
-1.9033755
23.950302
-1.7561466
25.522308
-1.5868371
27.219199
-1.3936144
29.05288
-1.1751313
31.029972
-0.93009347
33.168507
-0.65570079
35.477499
-0.34867731
38.010869
40.728336
-1.0953206
-1.1962442
-1.2951652
-1.3919677
-1.4865425
-1.5787381
-1.6683784
7.2606208
-1.7552462
7.4872287
-1.8390227
7.7319075
-1.9193494
7.9961277
-1.9958578
8.2814867
-2.068173
8.5896985
-2.1359666
8.9226434
-2.1989534
9.2823055
-2.2567873
9.6707707
-2.3091106
10.090309
-2.3555495
10.543367
-2.3957049
11.032689
-2.4292223
11.561117
-2.4555633
12.1317
-2.4740104
12.747873
-2.4837682
13.413303
-2.4840023
14.131925
-2.4740052
14.908044
-2.4529351
15.746276
-2.4201289
16.651776
-2.3748703
17.629689
-2.3158357
18.685599
-2.2417458
19.825961
-2.1512049
21.057366
-2.0428439
22.387362
-1.9154374
23.823626
-1.7675846
25.375107
-1.5974646
27.049719
-1.4032073
28.859405
-1.1833904
30.811173
-0.93664813
32.923459
-0.66011725
35.201718
-0.35114741
37.701334
40.383108
-1.6788283
-1.7660965
-1.8503317
-1.9312201
-2.0083945
8.3581824
-2.0814871
8.6623515
-2.1500413
8.9908369
-2.2136096
9.3456419
-2.2718387
9.7289004
-2.3244602
10.142931
-2.3712057
10.590107
-2.4116316
11.072971
-2.4452908
11.594408
-2.4716316
12.157454
-2.4900033
12.765421
-2.4996174
13.421999
-2.4997839
14.131158
-2.4899028
14.897268
-2.4689874
15.724535
-2.436122
16.618073
-2.3903367
17.583113
-2.3306051
18.625341
-2.2558004
19.75099
-2.1645459
20.96635
-2.0554864
22.278869
-1.9273136
23.69622
-1.7786134
25.227194
-1.6075729
26.879411
-1.4121879
28.664666
-1.1908975
30.590537
-0.94265416
32.6764
-0.66429903
34.924641
-0.35347981
37.390716
40.036017
-2.0211245
-2.0946626
-2.1637355
-2.2279424
-2.2868283
9.7876713
-2.3399193
10.196039
-2.3868595
10.637093
-2.427326
11.113418
-2.4609579
11.627824
-2.4873552
12.183354
-2.5059137
12.783267
-2.5159067
13.431105
-2.5163945
14.130707
-2.5063294
14.88623
-2.4852317
15.70249
-2.4521514
16.584179
-2.4059682
17.536332
-2.3456508
18.564679
-2.270013
19.675299
-2.1780252
20.874558
-2.0683263
22.169599
-1.9393637
23.567946
-1.7896747
25.078355
-1.6176107
26.708127
-1.4213808
28.469211
-1.1988578
30.368559
-0.94840622
32.426301
-0.66848332
34.645683
-0.35642041
37.079362
39.687389
-2.3013506
-2.3549425
-2.4024165
-2.4433852
-2.4774227
11.661715
-2.5040287
12.209542
-2.5225878
12.801155
-2.5324055
13.440044
-2.5328707
14.130163
-2.5230254
14.875377
-2.5018218
15.680392
-2.4683473
16.549946
-2.421726
17.48921
-2.3609077
18.503638
-2.2846521
19.599033
-2.1920192
20.782034
-2.0815005
22.059391
-1.9516557
23.438659
-1.8008821
24.928437
-1.6275874
26.535685
-1.4298861
28.272214
-1.2062283
30.145199
-0.95430806
32.174285
-0.6728444
34.364533
-0.35923873
36.766671
39.337683
-2.493759
-2.5205526
-2.5393461
-2.5494082
13.449167
-2.549874
14.12957
-2.5400095
14.86448
-2.5188274
15.658282
-2.485235
16.515617
-2.438199
17.441737
-2.3766435
18.441965
-2.2997932
19.52224
-2.2064773
20.68879
-2.0951939
21.948288
-1.9644015
23.308261
-1.8124764
24.777233
-1.6379147
26.361899
-1.438963
28.073944
-1.2134434
29.920064
-0.95958751
31.92018
-0.67701472
34.081884
-0.36319886
36.453457
38.986822
-2.5665625
-2.5672648
-2.5574214
-2.5360559
15.635889
-2.5021494
16.481014
-2.4546762
17.393853
-2.3926669
18.379822
-2.3151163
19.444725
-2.2209765
20.594637
-2.1091286
21.836473
-1.9776461
23.177033
-1.8247509
24.624837
-1.6489712
26.186727
-1.4486471
27.874224
-1.2215965
29.6936
-0.96614376
31.664869
-0.68130697
33.796753
-0.36559639
36.137693
38.633217
-2.5534444
-2.5194189
-2.4717887
17.345815
-2.4094446
18.317305
-2.3313147
19.366534
-2.2363738
20.499609
-2.1232825
21.723326
-1.9907458
23.04461
-1.837046
24.471384
-1.6602373
26.010288
-1.4585347
27.672959
-1.2301993
29.465899
-0.97334916
31.408528
-0.68609432
33.509178
-0.36869861
35.819635
38.276825
-2.4884135
-2.4257013
-2.3472773
-2.2519854
20.404165
-2.1382757
21.609514
-2.0046539
22.911013
-1.849943
24.316752
-1.672213
25.832727
-1.4691568
27.470179
-1.2393037
29.236497
-0.98066368
31.150513
-0.69130116
33.219852
-0.36929213
35.497205
37.917478
-2.2674232
-2.1529508
-2.0185693
22.776698
-1.8626627
24.160876
-1.6838876
25.65394
-1.480155
27.266555
-1.2489246
29.005498
-0.98862162
30.890686
-0.69732817
32.92914
-0.37146911
35.171191
37.554022
-2.0325547
-1.875611
-1.6956025
25.473901
-1.4906286
27.061512
-1.2584766
28.773459
-0.99719635
30.629552
-0.70387847
32.636488
-0.37481783
34.842648
37.187295
-1.7071749
-1.5009065
26.855057
-1.2676151
28.540118
-1.0046266
30.366492
-0.70935649
32.341539
-0.37840916
34.512389
36.818192
-1.5106528
-1.2762326
-1.0123153
30.102275
-0.71519886
32.04426
-0.38188415
34.179589
36.446753
-1.0195596
-0.72084573
31.744823
-0.38579634
33.8445
36.072582
-0.72683781
-0.38996273
33.50697
35.695551
-0.39444022
)
;

boundaryField
{
    Side
    {
        type            empty;
    }
    Inlet
    {
        type            calculated;
        value           nonuniform List<scalar> 
32
(
-0.0046643017
-0.004083408
-0.003881918
-0.0041423484
-0.0045370416
-0.0046972905
-0.0048674726
-0.0048517618
-0.0053339135
-0.0054701238
-0.0052437836
-0.0052228702
-0.0051280152
-0.0057914826
-0.0057253647
-0.0060538988
-0.0065159933
-0.0068568881
-0.0071636828
-0.0078966387
-0.0084443267
-0.010279949
-0.010296693
-0.011286511
-0.0099698925
-0.0091013235
-0.008922475
-0.0094517974
-0.01021878
-0.011353607
-0.012954006
-0.015093229
)
;
    }
    Airfoil
    {
        type            calculated;
        value           nonuniform List<scalar> 0();
    }
    Outlet
    {
        type            calculated;
        value           nonuniform List<scalar> 0();
    }
    procBoundary4to3
    {
        type            processor;
        value           nonuniform List<scalar> 
57
(
-2.4993067
-2.6146728
-2.7369556
-2.8648196
-2.9991417
-3.1415243
-0.6737828
-3.385305
-3.5471105
-3.7213144
-3.9091939
-4.1119992
-4.331021