/*--------------------------------*- C++ -*----------------------------------*\
| =========                 |                                                 |
| \\      /  F ield         | OpenFOAM: The Open Source CFD Toolbox           |
|  \\    /   O peration     | Version:  2506                                  |
|   \\  /    A nd           | Website:  www.openfoam.com                      |
|    \\/     M anipulation  |                                                 |
\*---------------------------------------------------------------------------*/
FoamFile
{
    version     2.0;
    format      ascii;
    arch        "LSB;label=32;scalar=64";
    class       volVectorField;
    location    "0.014";
    object      U;
}
// * * * * * * * * * * * * * * * * * * * * * * * * * * * * * * * * * * * * * //

dimensions      [0 1 -1 0 0 0 0];

internalField   nonuniform List<vector> 
13761
(
(13.098079 -1.5928816 -3.961586e-18)
(13.370151 -1.6246441 0)
(13.641167 -1.6561353 1.0260007e-25)
(13.911943 -1.6874442 0)
(14.183325 -1.7186629 3.5275011e-22)
(14.456209 -1.749889 2.6709675e-18)
(14.731621 -1.7812346 -2.4675834e-18)
(15.010806 -1.8128375 2.2798506e-18)
(15.295269 -1.8448661 -2.1069019e-18)
(15.586914 -1.8775351 0)
(15.888223 -1.9111297 0)
(16.202526 -1.9460356 8.1109847e-22)
(16.534437 -1.9827934 -7.4905e-22)
(16.89062 -2.0221914 0)
(17.28116 -2.065431 -6.3914757e-22)
(17.722337 -2.1144662 1.1802201e-21)
(18.242819 -2.1727573 -1.1160781e-18)
(18.899017 -2.2471397 1.0305015e-18)
(19.81862 -2.3531076 -9.290946e-22)
(21.339142 -2.5316089 0)
(24.439327 -2.9016335 0)
(31.017909 -3.6926739 0)
(40.897863 -4.8795677 -1.3506838e-21)
(52.096534 -6.2228361 2.4953616e-21)
(0.22133588 -0.027154947 2.9076256e-17)
(0.68754701 -0.084036457 -2.9584602e-17)
(1.1989671 -0.14657836 2.7825963e-17)
(1.7600957 -0.21515666 -2.1117148e-24)
(2.3747357 -0.29026148 -2.4459852e-17)
(3.0453077 -0.37218574 0)
(3.7680185 -0.46045547 2.1238103e-17)
(4.5274434 -0.55318498 3.540711e-23)
(5.2953789 -0.64692418 -3.6461716e-17)
(6.0389797 -0.7376508 1.6831005e-17)
(6.7341751 -0.82241957 -1.5501785e-17)
(7.3706868 -0.89997358 1.4265366e-17)
(7.9485024 -0.97031219 -1.3130111e-17)
(8.4730574 -1.0340945 2.4173115e-17)
(8.9516161 -1.0922072 -1.1129452e-17)
(9.3913718 -1.1455284 1.0251611e-17)
(9.7987822 -1.1948418 -9.4461694e-18)
(10.179355 -1.2408181 -1.3285948e-22)
(10.537615 -1.2840079 -8.0353858e-18)
(10.877395 -1.3248745 -2.2434165e-22)
(11.202017 -1.3638188 1.3695612e-17)
(11.514197 -1.4011683 -6.3254186e-18)
(11.816176 -1.4371917 -5.844229e-18)
(12.109891 -1.4721192 5.4002325e-18)
(12.39694 -1.5061398 4.9911763e-18)
(12.678695 -1.5394145 -2.0536906e-24)
(12.956348 -1.5720812 -8.5288367e-18)
(13.230936 -1.6042587 3.942131e-18)
(13.503412 -1.6360552 3.6435065e-18)
(13.774666 -1.6675701 -3.366701e-18)
(14.045554 -1.6988985 3.1122976e-18)
(14.316951 -1.7301371 -7.0431686e-22)
(14.589776 -1.7613862 -2.6581659e-18)
(14.865074 -1.7927611 -2.4569988e-18)
(15.144108 -1.8244021 5.5633614e-22)
(15.428401 -1.8564802 2.096413e-18)
(15.719874 -1.8892131 0)
(16.021034 -1.9228884 8.7371821e-22)
(16.335238 -1.9578956 0)
(16.667141 -1.9947794 1.8454305e-25)
(17.023471 -2.0343344 6.8863965e-22)
(17.41442 -2.0777724 0)
(17.856466 -2.1270656 -1.1750857e-21)
(18.378671 -2.1857115 1.1109669e-18)
(19.038308 -2.2606276 -1.0247962e-18)
(19.965234 -2.367522 0)
(21.503596 -2.5480012 0)
(24.651542 -2.9230592 0)
(31.32157 -3.7230075 0)
(41.270115 -4.915255 3.3237537e-25)
(0.22476585 -0.027470915 2.8941061e-17)
(0.69807721 -0.085007217 -6.9260134e-27)
(1.217147 -0.1482492 -5.2831113e-23)
(1.7865076 -0.21757902 0)
(2.4099717 -0.29348221 9.288164e-23)
(3.0899137 -0.37624265 0)
(3.8223314 -0.46537469 -4.0318434e-23)
(4.5913635 -0.55893725 3.7404642e-23)
(5.3682343 -0.65342186 -6.9214042e-23)
(6.1196795 -0.74477667 -1.6752287e-17)
(6.8215383 -0.83005586 3.0857764e-17)
(7.4636711 -0.90802229 -1.4197789e-17)
(8.0462533 -0.97869574 -9.9686056e-23)
(8.5748844 -1.042757 -9.1762528e-23)
(9.0569568 -1.1011057 1.1076251e-17)
(9.4997591 -1.1546247 -1.020242e-17)
(9.90982 -1.204108 0)
(10.292703 -1.2502289 2.6447568e-22)
(10.652978 -1.29354 0)
(10.994511 -1.3345099 2.2527583e-22)
(11.320654 -1.3735416 -2.0794779e-22)
(11.634146 -1.4109638 -1.9208359e-22)
(11.937249 -1.4470478 0)
(12.231914 -1.4820248 -4.0441518e-26)
(12.519753 -1.5160855 -4.967374e-18)
(12.802152 -1.5493929 9.1823095e-18)
(13.080314 -1.582086 -4.2437743e-18)
(13.355286 -1.6142857 -2.3941695e-22)
(13.628033 -1.6461009 0)
(13.899455 -1.6776331 3.3511474e-18)
(14.170421 -1.7089789 -6.1951854e-18)
(14.44182 -1.7402363 2.8626426e-18)
(14.714582 -1.7715082 -2.6456999e-18)
(14.989768 -1.802912 2.446125e-18)
(15.268658 -1.8345902 0)
(15.552791 -1.8667163 1.2563099e-25)
(15.844108 -1.8995109 1.928276e-18)
(16.14514 -1.9332641 -3.5627686e-18)
(16.459273 -1.9683689 1.6448032e-18)
(16.791206 -2.0053747 1.4845291e-21)
(17.14773 -2.0450817 -1.4048036e-18)
(17.539147 -2.0887121 2.3367405e-24)
(17.982133 -2.138256 1.1718908e-21)
(18.506139 -2.1972464 2.2109139e-18)
(19.169293 -2.2726806 -2.0444391e-18)
(20.103592 -2.3804703 2.4288483e-24)
(21.659659 -2.562853 1.7401354e-18)
(24.854234 -2.9427229 -8.0459041e-19)
(0.22801112 -0.027758401 -2.7471678e-23)
(0.70803845 -0.085887946 -2.7962433e-23)
(1.2343449 -0.1497667 -2.7574589e-17)
(1.8114884 -0.21977525 2.0489794e-24)
(2.4432864 -0.29639902 2.4239846e-17)
(3.1320662 -0.37991915 -2.2614243e-17)
(3.8736293 -0.46981954 4.2093121e-17)
(4.651691 -0.56412759 -1.952504e-17)
(5.4369221 -0.65927553 6.8917265e-23)
(6.1956674 -0.75117439 1.5615347e-26)
(6.9036954 -0.83688706 1.5357869e-17)
(7.5510067 -0.91519951 -2.0628079e-24)
(8.1379576 -0.98615271 -2.6013819e-17)
(8.67031 -1.050443 9.3386953e-23)
(9.1555783 -1.108981 1.1024385e-17)
(9.601141 -1.1626588 -7.7483602e-23)
(10.013597 -1.2122755 0)
(10.398563 -1.258509 -1.3163215e-22)
(10.760648 -1.3019155 -1.2143176e-22)
(11.103753 -1.3429644 -7.3471597e-18)
(11.431257 -1.3820617 6.7829692e-18)
(11.745918 -1.4195374 -6.2651154e-18)
(12.050017 -1.4556639 5.7887234e-18)
(12.345522 -1.4906752 5.3486759e-18)
(12.634057 -1.5247624 -4.9438892e-18)
(12.917018 -1.5580891 -2.7887358e-22)
(13.195619 -1.5907963 4.2236589e-18)
(13.470918 -1.6230057 -3.9045392e-18)
(13.743891 -1.6548283 0)
(14.015447 -1.6863664 -4.0717802e-22)
(14.286468 -1.7177184 3.083277e-18)
(14.557852 -1.7489842 -5.6982265e-18)
(14.830546 -1.7802685 2.6338925e-18)
(15.105624 -1.8116905 -1.4584458e-25)
(15.38438 -1.8433952 0)
(15.668372 -1.8755583 1.014537e-21)
(15.959561 -1.9084027 1.9200575e-18)
(16.260499 -1.9422213 -1.7742644e-18)
(16.574602 -1.9774097 8.0002987e-22)
(16.906611 -2.0145215 1.5126605e-18)
(17.263381 -2.0543629 -1.3979063e-18)
(17.655323 -2.0981657 -1.2911785e-18)
(18.099306 -2.1479372 2.3849553e-18)
(18.625158 -2.2072438 -1.1000864e-18)
(19.291845 -2.28316 2.4360074e-25)
(20.233481 -2.3918027 9.1652392e-22)
(0.23096192 -0.028012115 5.736391e-17)
(0.71711177 -0.08667141 -2.2296551e-24)
(1.2500297 -0.15111472 -5.4908639e-17)
(1.8343002 -0.22172727 2.577889e-17)
(2.4737537 -0.29899843 -4.6027367e-23)
(3.1706782 -0.38320049 0)
(3.9206861 -0.47380211 -2.0954748e-17)
(4.7070916 -0.568775 1.9439325e-17)
(5.5000428 -0.66451216 0)
(6.2655149 -0.75689711 -1.6601258e-17)
(6.9792221 -0.84299435 6.0382929e-23)
(7.6313002 -0.92160832 1.4068088e-17)
(8.2222809 -0.99280237 0)
(8.7580755 -1.05729 0)
(9.246311 -1.1159902 1.0974201e-17)
(9.69445 -1.1698037 -1.0108192e-17)
(10.109155 -1.2195338 1.4209775e-22)
(10.496088 -1.2658612 -8.5859652e-18)
(10.859896 -1.3093445 1.584515e-17)
(11.204506 -1.3504556 -1.4626505e-17)
(11.533321 -1.3896015 6.7517429e-18)
(11.84912 -1.4271147 -6.236288e-18)
(12.154198 -1.4632677 1.1524216e-17)
(12.450537 -1.498295 -5.3240971e-18)
(12.73977 -1.5323896 4.9216573e-18)
(13.023307 -1.5657159 -4.5484205e-18)
(13.302369 -1.5984156 2.5667692e-22)
(13.578024 -1.6306116 0)
(13.851257 -1.6624158 -3.5929099e-18)
(14.122989 -1.6939321 3.321308e-18)
(14.394111 -1.7252601 3.7463256e-22)
(14.665533 -1.756501 -3.4631396e-22)
(14.938215 -1.7877612 -2.6220995e-18)
(15.213245 -1.8191623 2.422924e-18)
(15.491932 -1.8508504 -5.4650724e-22)
(15.775853 -1.8830036 2.068595e-18)
(16.066986 -1.9158467 -1.9116184e-18)
(16.367908 -1.9496753 1.7647742e-18)
(16.682061 -1.9848874 -1.6311252e-18)
(17.014222 -2.0220396 1.5068376e-18)
(17.371315 -2.061944 -6.8178892e-22)
(17.763857 -2.1058422 -1.2843747e-18)
(18.208896 -2.1557567 -1.1885302e-18)
(0.23384783 -0.02828138 -2.8557823e-17)
(0.72598349 -0.087494567 0)
(1.2653585 -0.15253208 2.6074706e-23)
(1.8565915 -0.22378563 4.8954861e-23)
(2.5035246 -0.30173952 4.5844353e-23)
(3.2084052 -0.38665957 0)
(3.9666633 -0.47799665 0)
(4.761207 -0.57368243 -1.9356386e-17)
(5.561682 -0.67005443 1.790673e-17)
(6.3337113 -0.76297003 -6.3046638e-23)
(7.0529565 -0.84949152 -1.4219224e-26)
(7.7096865 -0.92844317 1.4006438e-17)
(8.304608 -0.99991083 -1.2890652e-17)
(8.8437773 -1.0646243 0)
(9.3349276 -1.1235127 0)
(9.7856015 -1.1774818 0)
(10.20252 -1.2273401 -1.4149899e-22)
(10.591391 -1.2737737 0)
(10.956892 -1.3173428 0)
(11.302979 -1.3585203 1.1107891e-22)
(11.633079 -1.3977165 -4.1023728e-22)
(11.949986 -1.4352638 -1.8949419e-22)
(12.256013 -1.4714367 -5.7363362e-18)
(12.553152 -1.5064711 1.0600783e-17)
(12.843051 -1.54056 -4.8996993e-18)
(13.127128 -1.5738695 -4.5281588e-18)
(13.406617 -1.6065427 4.1861899e-18)
(13.682595 -1.638703 -2.3616215e-22)
(13.956059 -1.6704637 2.1829791e-22)
(14.227939 -1.7019297 3.3062768e-18)
(14.499137 -1.7332015 -7.4810818e-22)
(14.770575 -1.7643824 -2.8242593e-18)
(15.043226 -1.7955796 -2.6103699e-18)
(15.31819 -1.826916 2.4118357e-18)
(15.596793 -1.8585402 1.3322852e-25)
(15.880631 -1.890632 -2.0607217e-18)
(16.171707 -1.9234185 4.6667036e-22)
(16.472621 -1.9571968 1.7589906e-18)
(16.786835 -1.9923655 0)
(0.23683169 -0.028556276 2.7122873e-23)
(0.73513598 -0.088337217 -2.894333e-17)
(1.2811491 -0.15398174 2.7224604e-17)
(1.8795216 -0.22588189 -1.1884621e-26)
(2.5341022 -0.3045248 0)
(3.2470907 -0.39017256 0)
(4.0137228 -0.48224555 0)
(4.8164954 -0.57863847 -1.9275967e-17)
(5.624541 -0.6756367 2.0495204e-24)
(6.4031384 -0.76906763 3.2918433e-17)
(7.1279032 -0.85599764 -1.1765831e-22)
(7.7892495 -0.93527323 -1.3946197e-17)
(8.3880638 -1.0070003 0)
(8.9305507 -1.0719219 0)
(9.4245531 -1.1309811 1.0877989e-17)
(9.8776912 -1.1850907 -1.0019524e-17)
(10.296746 -1.2350623 -1.4084775e-22)
(10.687469 -1.2815851 0)
(11.054573 -1.3252226 0)
(11.402042 -1.3664507 -2.2121225e-22)
(11.733322 -1.4056795 2.042453e-22)
(12.051228 -1.4432437 0)
(12.358087 -1.4794193 -5.7111974e-18)
(12.655906 -1.5144427 5.2772733e-18)
(12.946345 -1.5485088 0)
(13.230837 -1.581785 -2.7522153e-22)
(13.510629 -1.6144157 4.1682195e-18)
(13.786817 -1.6465265 -7.7054501e-18)
(14.060408 -1.6782318 3.5615573e-18)
(14.332343 -1.7096376 0)
(14.603534 -1.7408453 7.4286783e-22)
(14.874912 -1.7719588 -2.8118445e-18)
(15.147459 -1.803087 2.5992692e-18)
(15.422287 -1.8343536 0)
(15.700728 -1.8659074 2.220802e-18)
(0.23978071 -0.02881969 -2.7004264e-23)
(0.74418323 -0.089146248 -2.8825775e-17)
(1.2967612 -0.15537303 2.7114351e-17)
(1.9021927 -0.2278976 -4.856782e-23)
(2.5643328 -0.30720221 0)
(3.2853331 -0.39354104 4.2410775e-23)
(4.0602277 -0.48631958 3.9468122e-23)
(4.8710984 -0.58338672 1.9197388e-17)
(5.6865584 -0.68097604 -3.5516345e-17)
(6.471547 -0.77488307 3.2781736e-17)
(7.2016543 -0.86218676 -3.0186895e-17)
(7.8674482 -0.94175418 2.7775051e-17)
(8.4699996 -1.0137113 -2.55615e-17)
(9.0156596 -1.0788193 2.3528035e-17)
(9.5123832 -1.1380275 -1.0831644e-17)
(9.9678673 -1.1922584 7.6125506e-23)
(10.388949 -1.2423269 1.4027952e-22)
(10.781424 -1.2889259 -8.4739606e-18)
(11.150037 -1.3326209 1.5637886e-17)
(11.498796 -1.3738887 -7.2174233e-18)
(11.831167 -1.4131413 2.0331788e-22)
(12.149981 -1.4507141 -6.1547783e-18)
(12.457576 -1.4868833 5.6866202e-18)
(12.755968 -1.5218864 0)
(13.046826 -1.5559184 0)
(13.331584 -1.5891466 0)
(1.0059219 0.075496721 2.6489913e-17)
(3.1018147 0.23282177 -1.3655456e-17)
(5.3752613 0.40345003 0)
(7.8388261 0.58832781 2.312385e-23)
(10.493252 0.78750878 2.1674782e-23)
(13.309068 0.99877648 -9.4612712e-28)
(16.193358 1.215152 9.8371239e-18)
(18.998319 1.4255387 -9.0874132e-18)
(21.592068 1.620037 0)
(23.915279 1.794193 0)
(25.973789 1.9484429 7.0639529e-18)
(27.801555 2.0853324 -6.4892699e-18)
(29.436431 2.2076995 0)
(30.912561 2.3181032 -4.1917224e-23)
(32.258409 2.4186756 -3.8621419e-23)
(33.496833 2.5111274 0)
(34.646117 2.5968255 -4.306527e-18)
(35.720797 2.6768549 3.9759529e-18)
(36.732273 2.7520646 -3.6742828e-18)
(37.689961 2.8231543 3.397144e-18)
(38.601967 2.8907242 3.1413494e-18)
(39.474854 2.9552583 -5.8123491e-18)
(40.314053 3.0171546 -4.5544583e-25)
(41.124284 3.076757 7.548339e-23)
(41.909451 3.1343471 2.303904e-18)
(42.672917 3.1901651 2.1323977e-18)
(43.417579 3.2444148 -1.1999209e-22)
(44.145906 3.2972668 5.0913315e-25)
(44.860091 3.3488697 -1.6909955e-18)
(45.562065 3.3993505 0)
(46.253544 3.4488188 0)
(46.936113 3.4973726 0)
(47.611239 3.5450991 -1.4200681e-26)
(48.280408 3.5920845 2.7991601e-22)
(48.945246 3.6384231 -1.0604848e-18)
(49.607492 3.684215 9.8010435e-19)
(50.269136 3.7295762 -2.0792259e-26)
(50.932594 3.7746517 -8.3776318e-19)
(51.600909 3.81963 7.7354847e-19)
(52.278094 3.8647687 -3.4940091e-22)
(52.9697 3.9104367 3.2284742e-22)
(53.683693 3.9571799 -5.96562e-22)
(54.432103 4.0058449 -5.5107338e-22)
(55.234312 4.0578273 -5.206619e-19)
(56.124051 4.1156008 9.6251602e-19)
(57.166405 4.1839884 -4.4425318e-19)
(58.503343 4.2735681 0)
(60.504557 4.4117891 -3.779167e-19)
(64.103331 4.6687138 3.4800179e-19)
(1.0008243 0.075743482 -1.2628174e-23)
(3.0861 0.2335827 1.3652507e-17)
(5.3480362 0.40476943 -1.2879163e-17)
(7.7991418 0.59025354 0)
(10.44019 0.79009145 1.1362072e-17)
(13.241972 1.0020681 -1.0595466e-17)
(16.112231 1.2191962 -1.8759637e-23)
(18.904027 1.4303516 0)
(21.486044 1.6255944 0)
(23.799028 1.8004396 0)
(25.84861 1.9553111 1.2449168e-27)
(27.668486 2.0927563 0)
(29.296285 2.2156201 -4.5529471e-23)
(30.765976 2.3264697 4.1914576e-23)
(32.10589 2.4274452 3.8618765e-23)
(33.338788 2.5202643 -7.1214227e-23)
(34.482881 2.6063001 0)
(35.552654 2.6866425 0)
(36.559468 2.7621453 -5.605707e-23)
(37.512712 2.8335118 1.0366069e-22)
(38.420468 2.9013459 -1.9170012e-22)
(39.289288 2.9661344 0)
(40.124586 3.0282779 0)
(40.931076 3.0881228 -3.5111863e-27)
(41.712652 3.1459525 0)
(42.472672 3.2020087 0)
(43.214024 3.2564967 0)
(43.939169 3.3095882 1.8270614e-18)
(44.650295 3.3614325 -1.6912023e-18)
(45.349322 3.4121575 0)
(46.037957 3.4618732 0)
(46.717776 3.5106781 -1.6352445e-22)
(47.390238 3.5586597 1.2390533e-18)
(48.056816 3.6059049 -1.1463723e-18)
(48.719129 3.6525084 2.58819e-22)
(49.378906 3.6985711 2.3931801e-22)
(50.038132 3.7442103 -8.8495295e-22)
(50.699216 3.7895724 0)
(51.365198 3.834848 7.5605733e-22)
(52.040092 3.880298 3.4936965e-22)
(52.729449 3.9262955 -3.228171e-22)
(53.441248 3.9733928 5.9650302e-22)
(54.187535 4.0224466 2.5615988e-26)
(54.987732 4.0748685 5.2159711e-19)
(55.875649 4.1331607 -4.8117715e-19)
(56.916551 4.2022022 0)
(58.252859 4.2926966 -4.0981592e-19)
(60.255791 4.4324472 3.7782912e-19)
(63.86285 4.6924422 0)
(69.961834 5.1407747 0)
(77.093674 5.6677066 2.9380728e-19)
(83.711049 6.1566205 -2.7095353e-19)
(88.740032 6.5286548 0)
(91.900733 6.7631956 0)
(93.539574 6.8867453 1.6404415e-21)
(94.231839 6.9412323 0)
(94.464912 6.9627653 1.3921363e-21)
(94.523275 6.9718756 -1.2830434e-21)
(94.528979 6.9776623 2.3650395e-21)
(94.521543 6.982905 -1.0385471e-25)
(94.510742 6.9884407 -2.008986e-21)
(94.498433 6.9943847 1.851562e-21)
(94.484793 7.0008476 0)
(94.46978 7.0078421 -3.1453767e-21)
(94.453407 7.0154553 -9.5659068e-20)
(94.435506 7.023717 -2.672993e-21)
(94.415976 7.0327028 8.3705677e-20)
(94.394742 7.0424731 -8.1679617e-20)
(94.3718 7.0531152 6.6907112e-20)
(94.346969 7.0646954 0)
(94.320064 7.0773058 6.3922925e-20)
(94.291159 7.0910831 -9.8174907e-20)
(94.260139 7.1060747 5.4278762e-20)
(94.226862 7.1223918 -5.5572926e-21)
(94.191128 7.1402323 3.5846641e-20)
(94.152805 7.1596957 -1.8872996e-20)
(94.111733 7.1809451 2.6086139e-20)
(94.067766 7.2041502 -4.0055788e-20)
(94.020735 7.2295042 1.4762878e-20)
(93.970469 7.2572151 -1.3600093e-20)
(93.916782 7.2875194 -6.1737046e-25)
(93.859478 7.3206759 2.3086034e-20)
(93.798358 7.3569761 1.3088562e-24)
(93.733216 7.3967437 -1.9588312e-20)
(93.66383 7.4403416 0)
(93.589967 7.4881733 -3.3237099e-20)
(93.511391 7.5406931 1.5305745e-20)
(93.427858 7.5984067 -1.4095104e-20)
(93.339114 7.6618822 3.8938894e-20)
(93.244893 7.7317455 3.5852942e-20)
(0.99583631 0.075973404 -1.262441e-23)
(3.0707211 0.23429165 -1.301778e-23)
(5.321389 0.40599876 1.2876809e-17)
(7.7602956 0.5920484 -1.2118878e-17)
(10.388241 0.79249961 -2.1668553e-23)
(13.176258 1.005138 2.0206767e-23)
(16.032726 1.2229685 3.7515417e-23)
(18.811545 1.4348412 0)
(21.381965 1.6307796 -3.1911791e-23)
(23.684827 1.8062692 0)
(25.725569 1.961723 -7.0626725e-18)
(27.537631 2.0996893 6.4880607e-18)
(29.158421 2.2230192 2.0878704e-27)
(30.621736 2.3342876 5.4932204e-18)
(31.955776 2.4356418 -5.0612574e-18)
(33.183201 2.5288061 7.1210642e-23)
(34.322153 2.6151591 -6.5695913e-23)
(35.387061 2.6957958 0)
(36.38925 2.771574 5.6053558e-23)
(37.338081 2.8432008 0)
(38.241616 2.9112832 9.584156e-23)
(39.106387 2.9763112 0)
(39.937799 3.0386879 0)
(40.740557 3.0987618 -2.4883602e-18)
(41.518546 3.1568182 2.3033588e-18)
(42.275117 3.2131006 -2.1320386e-18)
(43.013152 3.2678157 1.9735293e-18)
(43.735106 3.3211361 -1.8268956e-18)
(44.443159 3.3732124 1.6910548e-18)
(45.139225 3.4241731 0)
(45.825002 3.4741289 1.7673791e-22)
(46.502059 3.5231788 1.635188e-22)
(47.171844 3.5714109 -1.2392571e-18)
(47.835824 3.6189125 1.1462809e-18)
(48.49561 3.6657792 1.0597541e-18)
(49.152922 3.7121126 -9.8014352e-19)
(49.809738 3.7580313 2.2123505e-22)
(50.468466 3.8036831 -4.0896694e-22)
(51.132139 3.8492611 -1.740426e-26)
(51.804772 3.8950291 0)
(52.491923 3.9413649 6.607288e-19)
(53.201578 3.9888274 -6.1074415e-19)
(53.945808 4.0382832 1.1018912e-21)
(54.744077 4.0911608 5.2052216e-19)
(55.630288 4.1499914 4.702889e-22)
(56.669909 4.2197117 -4.4411599e-19)
(58.005863 4.3111535 0)
(60.010946 4.4524787 0)
(63.627147 4.7156115 0)
(69.744714 5.1694322 0)
(76.904621 5.7033869 0)
(83.566684 6.2003319 0)
(88.654708 6.5804014 2.4787756e-19)
(91.873363 6.8215648 -2.2795329e-19)
(93.554965 6.9494805 0)
(94.271365 7.006233 0)
(94.514942 7.0286627 -2.7820831e-21)
(94.576854 7.0380094 0)
(94.583512 7.0437915 0)
(94.576311 7.0489568 -1.4156531e-19)
(94.565602 7.0543928 -2.0087337e-21)
(94.553371 7.060225 1.8485033e-21)
(94.539816 7.0665649 1.0912012e-19)
(94.524895 7.0734251 3.1426878e-21)
(94.508622 7.0808908 9.2685536e-20)
(94.490824 7.0889919 -1.7083581e-19)
(94.471406 7.0978019 -9.8413786e-21)
(94.450281 7.1073808 7.7078751e-20)
(94.427447 7.1178147 6.6855057e-20)
(94.402739 7.1291671 -5.7758011e-20)
(94.37594 7.1415332 4.9678337e-20)
(94.347162 7.1550323 -6.5397058e-20)
(94.316271 7.169734 3.6158392e-20)
(94.283119 7.1857435 5.5545756e-21)
(94.247512 7.2032467 -3.5816634e-20)
(94.209317 7.2223415 -9.4296347e-21)
(94.168376 7.2431985 4.3442057e-20)
(94.124541 7.2659789 -2.4014235e-20)
(94.077645 7.2908788 -2.2126438e-20)
(94.027518 7.318102 1.3588789e-20)
(93.973974 7.347885 -1.2520201e-20)
(93.916819 7.380484 2.3068073e-20)
(93.855856 7.4161891 1.3110507e-24)
(93.79088 7.4553221 1.7956284e-25)
(93.721671 7.4982444 -1.8029931e-20)
(93.647996 7.5453577 3.321232e-20)
(93.569622 7.5971146 -3.0587272e-20)
(93.486306 7.6540191 1.4083644e-20)
(93.397795 7.7166384 -6.4848352e-20)
(93.303824 7.7855964 -4.7769615e-20)
(93.204129 7.8616009 4.8740561e-25)
(93.098435 7.9454148 -1.0121661e-20)
(92.986476 8.0378993 -4.6588183e-20)
(92.867977 8.1399613 -1.0543153e-24)
(92.742691 8.252623 3.9462098e-20)
(92.610379 8.3769159 -7.263171e-21)
(92.470869 8.5140016 1.1359418e-19)
(92.324037 8.6649491 0)
(92.169941 8.8310742 0)
(0.99100078 0.076192161 -1.3235071e-17)
(3.0558098 0.23496638 1.364759e-17)
(5.2955458 0.40716831 -1.2874881e-17)
(7.7226056 0.59375439 -1.2117217e-17)
(10.337813 0.79478621 2.2717746e-17)
(13.112437 1.0080504 -2.118549e-17)
(15.955452 1.2265435 9.8334673e-18)
(18.721575 1.4390919 3.4653799e-23)
(21.280615 1.6356843 1.4594172e-27)
(23.57352 1.8117796 0)
(25.60555 1.9677803 1.2321628e-27)
(27.409902 2.1062359 0)
(29.023769 2.2300031 9.1048308e-23)
(30.48078 2.3416641 0)
(31.809005 2.443373 0)
(33.031009 2.5368603 0)
(34.164861 2.6235099 6.569408e-23)
(35.224941 2.7044215 3.9746408e-18)
(36.222537 2.780457 -3.6730871e-18)
(37.166981 2.852327 0)
(38.066313 2.9206418 0)
(38.927051 2.9858941 -8.865921e-23)
(39.754589 3.0484895 -8.2043859e-23)
(40.55362 3.1087788 1.5185653e-22)
(41.328024 3.1670491 0)
(42.081144 3.2235457 0)
(42.815857 3.2784766 5.51481e-27)
(43.534611 3.3320157 -1.8267869e-18)
(44.23958 3.3843144 1.690548e-18)
(44.932671 3.4355023 0)
(45.615576 3.4856907 -1.4479762e-18)
(46.289855 3.5349792 -4.9796937e-25)
(46.956951 3.5834567 1.2392006e-18)
(47.618322 3.6312109 0)
(48.275571 3.6783384 5.1756146e-22)
(48.930413 3.7249416 0)
(49.584821 3.7711405 2.2121482e-22)
(50.241197 3.8170846 -8.3672683e-19)
(50.902576 3.8629692 -3.7848788e-22)
(51.572971 3.9090616 7.1504146e-19)
(52.257947 3.955744 -6.610165e-19)
(52.965504 4.0035823 6.1070992e-19)
(53.707738 4.0534535 -5.5092518e-22)
(54.504164 4.106803 -5.0877433e-22)
(55.38879 4.1661924 -4.6982146e-22)
(56.427314 4.2366171 -8.6732341e-22)
(57.763214 4.3290399 -4.0971578e-19)
(59.770956 4.4719872 -5.5073772e-25)
(63.397351 4.7383351 3.4774783e-19)
(69.535944 5.1978148 0)
(76.725477 5.7389072 1.1465434e-21)
(83.431251 6.2438413 0)
(88.575526 6.6318119 9.6760925e-22)
(91.849205 6.8794672 -2.2690322e-19)
(93.571504 7.0116722 4.1930439e-19)
(94.310963 7.0706629 -1.930919e-19)
(94.564613 7.0939914 1.7791597e-19)
(94.629932 7.1035876 -3.2792831e-19)
(94.637497 7.1093821 3.0223567e-19)
(94.630509 7.1144886 2.1776274e-21)
(94.619877 7.1198449 -2.547298e-19)
(94.607711 7.1255863 2.3476983e-19)
(94.594229 7.1318249 -1.0903557e-19)
(94.579392 7.1385733 -6.2806639e-21)
(94.563208 7.1459147 8.9719884e-20)
(94.545507 7.153879 -1.7337138e-19)
(94.526193 7.1625375 8.3574423e-20)
(94.505171 7.1719488 4.530492e-21)
(94.482441 7.182199 4.1750951e-21)
(94.457846 7.1933462 -3.847725e-21)
(94.431153 7.205494 0)
(94.402495 7.2187382 6.5349539e-21)
(94.371734 7.2331671 -4.2152444e-20)
(94.338704 7.2488924 3.8841104e-20)
(94.303226 7.2660759 0)
(94.26516 7.2848215 -9.4220502e-21)
(94.224351 7.3053021 8.6814706e-21)
(94.180651 7.3276722 3.199677e-20)
(94.133892 7.3521304 -2.2108833e-20)
(94.083907 7.3788761 0)
(94.030509 7.408146 -3.7532016e-20)
(93.973506 7.440194 3.4574422e-20)
(93.912702 7.475309 -2.1234273e-20)
(93.847891 7.5138107 -1.9561091e-20)
(93.778857 7.5560596 3.6031987e-20)
(93.705368 7.6024562 1.0313054e-24)
(93.627191 7.6534516 0)
(93.544086 7.7095483 1.407458e-20)
(93.4558 7.7713128 1.2961327e-20)
(93.36207 7.8393679 2.3867471e-20)
(93.262631 7.9144216 4.3948681e-20)
(93.157214 7.9972354 -1.0115511e-20)
(93.045553 8.0886698 8.3798822e-20)
(92.927376 8.1896287 0)
(92.802436 8.3011308 -3.1549011e-20)
(92.670495 8.4241975 0)
(92.531382 8.5599791 -1.1351567e-19)
(92.38497 8.7095177 -3.6854461e-20)
(92.231314 8.8741029 -5.6492286e-21)
(92.070592 9.0545228 5.1957285e-21)
(91.903383 9.252349 -4.7762434e-21)
(91.730508 9.4675349 -1.4050173e-19)
(91.553535 9.7022616 -6.052283e-20)
(91.374276 9.9550607 -3.706898e-21)
(0.98632179 0.07639967 0)
(3.0413778 0.23560608 0)
(5.2705291 0.40827681 1.2873221e-17)
(7.6861129 0.59537112 -1.2115854e-17)
(10.288975 0.79695271 9.9249062e-28)
(13.050602 1.0108088 -1.0591773e-17)
(15.880537 1.2299278 9.8327851e-18)
(18.634283 1.4431132 9.0839069e-18)
(21.182203 1.640322 -8.3646582e-18)
(23.465361 1.8169879 0)
(25.488853 1.9735037 1.2342794e-27)
(27.285642 2.1124202 -6.4874236e-18)
(28.892716 2.2365994 5.9666803e-18)
(30.343535 2.3486301 4.1904856e-23)
(31.666044 2.4506728 0)
(32.882715 2.5444639 3.5599574e-23)
(34.011547 2.6313924 6.5687743e-23)
(35.066868 2.7125625 3.9743653e-18)
(36.05993 2.7888398 -3.6730462e-18)
(37.000041 2.8609385 -3.3958196e-18)
(37.895216 2.9294719 3.1401167e-18)
(38.75196 2.9949356 1.7731235e-22)
(39.575656 3.0577375 3.7609173e-27)
(40.370986 3.1182306 -7.5926149e-23)
(41.141824 3.176704 -2.3030841e-18)
(41.891508 3.2334045 4.2636069e-18)
(42.622907 3.2885416 -1.97321e-18)
(43.338466 3.3422904 1.8268401e-18)
(44.040351 3.3948036 -1.6907082e-18)
(44.730464 3.4462115 1.5648139e-18)
(45.41049 3.4966263 -1.4475938e-18)
(46.081984 3.5461483 1.3392668e-18)
(46.746381 3.594867 -1.2390313e-18)
(47.405133 3.6428712 0)
(48.059838 3.6902581 -2.587836e-22)
(48.712206 3.7371313 -9.800892e-19)
(49.364203 3.7836122 1.8121296e-18)
(50.018231 3.8298521 -8.1741123e-22)
(50.677323 3.8760489 -7.7370896e-19)
(51.345498 3.9224732 7.1573072e-19)
(52.028326 3.9695122 -1.3213667e-18)
(52.733825 4.0177386 6.1010291e-19)
(53.474121 4.0680405 -5.508886e-22)
(54.268788 4.1218807 5.087854e-22)
(55.151954 4.1818517 -4.697857e-22)
(56.189574 4.2530095 4.0008002e-26)
(57.525741 4.3464513 0)
(59.536723 4.4910763 0)
(63.174583 4.7607373 6.7908337e-22)
(69.336941 5.2260763 0)
(76.557831 5.7744398 -1.1461171e-21)
(83.306307 6.2873185 0)
(88.503815 6.683033 -2.4755983e-19)
(91.829233 6.9370165 4.5527659e-19)
(93.58982 7.0734034 -4.1900653e-19)
(94.35101 7.1345837 1.9295071e-19)
(94.614165 7.1588016 1.3889641e-21)
(94.682689 7.1686555 1.6384269e-19)
(94.69109 7.1744771 -1.5100441e-19)
(94.684283 7.1795416 -2.1746489e-21)
(94.673705 7.1848361 1.2827302e-19)
(94.661583 7.1905056 -1.2006781e-19)
(94.648155 7.196663 1.089562e-19)
(94.633383 7.2033199 -9.7277467e-20)
(94.617273 7.2105582 2.8920959e-21)
(94.59965 7.2184065 -8.2624565e-20)
(94.580425 7.2269352 7.8600283e-20)
(94.559494 7.2362003 -2.1621503e-25)
(94.53685 7.2462888 -8.3442748e-21)
(94.512355 7.2572509 6.1517829e-20)
(94.485758 7.2692043 -5.668921e-20)
(94.457203 7.2822152 -5.2241001e-20)
(94.426566 7.2963847 5.4155031e-20)
(94.393649 7.3118453 5.5449206e-21)
(94.358291 7.3287247 5.1090836e-21)
(94.320348 7.347138 9.4157051e-21)
(94.279665 7.3672561 -1.735086e-20)
(94.236096 7.389229 3.1973787e-20)
(94.189472 7.4132568 -6.6280676e-20)
(94.139627 7.4395348 -1.3561873e-24)
(94.086375 7.4682998 3.7504535e-20)
(94.029524 7.4998037 -5.5137041e-25)
(93.968878 7.5343344 0)
(93.904233 7.5722094 -9.773633e-21)
(93.835373 7.6137883 3.600557e-20)
(93.762068 7.6594709 -1.0137524e-24)
(93.684086 7.7097072 3.0542535e-20)
(93.601187 7.7649979 0)
(93.51312 7.8259094 1.295173e-20)
(93.419624 7.8930635 -1.1924628e-20)
(93.320434 7.9671674 -2.1959724e-20)
(93.215286 8.0489814 0)
(93.103914 8.1393664 -3.721962e-20)
(92.986049 8.2392229 2.5691536e-20)
(92.861447 8.3495663 1.5763522e-20)
(92.729871 8.471408 -7.252217e-21)
(92.591154 8.6058879 6.6755861e-21)
(92.445168 8.7540217 -6.1360144e-21)
(92.291964 8.9170743 -5.6463535e-21)
(92.131708 9.0957788 5.1915499e-21)
(91.964978 9.2916653 0)
(91.792565 9.5046032 1.3602288e-19)
(91.616016 9.7367313 6.8551799e-20)
(91.437101 9.986523 0)
(91.258499 10.256418 3.4029766e-21)
(91.082704 10.545674 -1.0623417e-19)
(90.911873 10.850988 2.8681314e-21)
(0.98183448 0.076599427 0)
(3.0275311 0.23622183 -1.3644033e-17)
(5.2465183 0.4093433 2.5743685e-17)
(7.6510754 0.59692572 -1.2114649e-17)
(10.242062 0.7990345 2.1661776e-23)
(12.991165 1.0134567 -9.3347105e-28)
(15.808465 1.2331723 0)
(18.550215 1.446963 9.0835687e-18)
(21.087323 1.6447559 3.209681e-23)
(23.360982 1.8219616 -7.6900466e-18)
(25.37614 1.9789645 1.2448851e-27)
(27.165541 2.1183165 -6.4873999e-18)
(28.765972 2.2428851 5.9665637e-18)
(30.210734 2.355265 -1.9366081e-27)
(31.527648 2.457623 0)
(32.739094 2.5517008 4.6660479e-18)
(33.863002 2.6388923 -4.3048764e-18)
(34.913652 2.7203062 -3.9742272e-18)
(35.90226 2.7968115 7.3457153e-18)
(36.838106 2.8691257 -3.3956397e-18)
(37.729187 2.9378653 -3.1400001e-18)
(38.581991 3.0035286 -3.9238305e-25)
(39.40189 3.0665257 2.6883239e-18)
(40.193559 3.1272118 -2.487744e-18)
(40.960865 3.185878 -4.1917972e-25)
(41.707137 3.2427726 -1.3053795e-22)
(42.435243 3.2981067 3.9468499e-18)
(43.14762 3.3520567 -1.8269359e-18)
(43.846429 3.4047762 -2.063799e-22)
(44.533568 3.4563967 -1.9099867e-22)
(45.210715 3.5070311 -3.5346158e-22)
(45.87942 3.5567809 1.6350991e-22)
(46.541113 3.6057361 -1.5127274e-22)
(47.197241 3.6539863 -2.7983527e-22)
(47.849394 3.70163 -1.0602294e-18)
(48.49928 3.748772 1.9602119e-18)
(49.148863 3.795535 -9.0608104e-19)
(49.800541 3.8420725 8.1792004e-22)
(50.45735 3.8885851 -3.7798803e-22)
(51.123314 3.9353468 0)
(51.804014 3.9827501 -6.4552525e-22)
(52.507487 4.0313749 1.1927923e-21)
(53.245895 4.0821206 5.6413164e-19)
(54.038881 4.1364684 -5.2099038e-19)
(54.920703 4.1970428 4.6981101e-22)
(55.957606 4.2689624 1.7346198e-21)
(57.294361 4.3634634 8.0015419e-22)
(59.309224 4.5098313 0)
(62.960038 4.7829328 -6.7904915e-22)
(69.14917 5.2543762 -3.1882807e-19)
(76.403317 5.8101806 2.9328877e-19)
(83.193466 6.3309712 -1.0519044e-21)
(88.440957 6.7342579 -9.6647963e-22)
(91.81447 6.9943771 -2.2838128e-19)
(93.610571 7.1348085 2.077252e-19)
(94.391902 7.198108 1.9432403e-19)
(94.663846 7.2231942 -1.7765685e-19)
(94.735309 7.2333082 1.6372624e-19)
(94.744452 7.2391689 -1.5089698e-19)
(94.737778 7.2442063 0)
(94.72722 7.2494551 -2.0027842e-21)
(94.715113 7.2550692 1.1998422e-19)
(94.701711 7.2611622 -3.4009376e-21)
(94.686976 7.2677447 -2.0069071e-19)
(94.670913 7.2748972 9.2478936e-20)
(94.653344 7.2826463 0)
(94.634182 7.2910622 0)
(94.613317 7.3001972 -2.1540378e-25)
(94.590734 7.3101392 8.3384446e-21)
(94.566311 7.3209304 -5.7632894e-20)
(94.539785 7.3327128 5.6649781e-20)
(94.511328 7.345505 0)
(94.480794 7.3594201 -1.2026298e-20)
(94.447975 7.3746285 0)
(94.41272 7.3912161 -2.4454539e-25)
(94.374886 7.4093085 0)
(94.33432 7.4290737 1.7338952e-20)
(94.290872 7.4506587 0)
(94.244377 7.474264 -2.9438575e-20)
(94.194668 7.5000818 1.3560335e-20)
(94.141558 7.5283484 -1.2492857e-20)
(94.084857 7.5593138 -1.1509416e-20)
(94.024368 7.5932653 -1.0601888e-20)
(93.959888 7.6305182 9.7666067e-21)