/*--------------------------------*- C++ -*----------------------------------*\
| =========                 |                                                 |
| \\      /  F ield         | OpenFOAM: The Open Source CFD Toolbox           |
|  \\    /   O peration     | Version:  2506                                  |
|   \\  /    A nd           | Website:  www.openfoam.com                      |
|    \\/     M anipulation  |                                                 |
\*---------------------------------------------------------------------------*/
FoamFile
{
    version     2.0;
    format      ascii;
    arch        "LSB;label=32;scalar=64";
    class       surfaceScalarField;
    location    "0.0345";
    object      phi;
}
// * * * * * * * * * * * * * * * * * * * * * * * * * * * * * * * * * * * * * //

dimensions      [1 0 -1 0 0 0 0];

oriented        oriented;

internalField   nonuniform List<scalar> 
27250
(
-3.39762e-05
-3.0227824e-06
3.6896355e-05
-6.8772854e-05
-9.9326641e-06
4.4630726e-05
-0.00010431882
-1.8448605e-05
5.3895427e-05
-0.00014033244
-2.8769554e-05
6.4670046e-05
-0.00017652835
-4.1124707e-05
7.7206367e-05
-0.0002126136
-5.5771338e-05
9.1726344e-05
-0.0002481725
-7.2832182e-05
0.0001082609
-0.00028278409
-9.2485709e-05
0.00012695033
-0.00031594138
-0.00011477269
0.00014778357
-0.00034715205
-0.00013963818
0.00017068566
-0.00037595102
-0.0001670789
0.0001957155
-0.00040199827
-0.00019673196
0.00022260064
-0.00042509
-0.00022818889
0.00025110186
-0.00044532439
-0.00026129087
0.00028133234
-0.00046298558
-0.00029598811
0.00031345394
-0.00047849298
-0.0003324333
0.00034773264
-0.00049226379
-0.00037095512
0.00038451192
-0.00050467321
-0.00041186107
0.00042404443
-0.00051600735
-0.00045535285
0.00046645129
-0.00052649139
-0.00050207347
0.0005123088
-0.00053627965
-0.00055261358
0.00056213931
-0.00054548094
-0.0006071203
0.00061604324
-0.0005541659
-0.00066619482
0.00067458328
-0.0005623784
-0.00073038307
0.00073827886
-0.00057014292
-0.00079993936
0.00080736413
-0.00057748068
-0.00087564906
0.00088262137
-0.00058439003
-0.00095785405
0.00096436909
-0.00059090078
-0.0010472292
0.0010533134
-0.00059703995
-0.0011444185
0.001150095
-0.00060286481
-0.0012500395
0.0012553612
-0.00060846048
-0.0013647349
0.0013697815
-0.00061396342
-0.0014892555
0.0014941568
-0.0006195627
-0.0016240865
0.0016290233
-0.0006255152
-0.0017702722
0.0017754911
-0.00063214867
-0.0019287425
0.0019345586
-0.00063987702
-0.0021000063
0.0021068186
-0.00064919423
-0.0022850649
0.0022933494
-0.00066068905
-0.0024844864
0.0024948099
-0.00067503758
-0.0026989156
0.0027119262
-0.00069296835
-0.0029286669
0.002945057
-0.00071525383
-0.0031740285
0.0031945234
-0.00074262286
-0.0034341787
0.0034594461
-0.00077572627
-0.0037076605
0.0037382708
-0.00081501469
-0.0039912904
0.0040275886
-0.00086086859
-0.0042786045
0.0043208361
-0.00091216581
-0.0045599847
0.0046068582
-0.00096554071
-0.0048208184
0.0048687838
-0.0010140595
-0.0050430452
0.0050850215
-0.0010471716
-0.0052037868
0.0052292137
-0.0010498144
-0.0052726134
0.0052666563
-0.0010033376
-0.0051997867
0.0051442882
-0.00089019258
-0.0049004901
0.0047786745
-0.00070407296
-0.0042462732
0.0040523862
-0.00041912491
-0.0030683556
0.0027777489
9.4585554e-05
-0.0010974158
0.00058060392
0.00057620226
0.00092812815
-0.0014094095
0.0011416997
0.0027285837
-0.0032925191
0.0017977789
0.0044720889
-0.0051250962
0.0025364765
0.0060891869
-0.006824138
0.0033384188
0.0075062868
-0.0083045067
0.0041794722
0.0086410425
-0.0094790956
0.0050342688
0.0094164697
-0.010269732
0.0058723642
0.0097553422
-0.010593548
0.0066642133
0.0095829682
-0.010376944
0.0073937977
0.0088152111
-0.0095488482
0.008054467
0.0073468549
-0.008013208
0.0086462228
0.0050444267
-0.0056431479
0.0092011946
0.0017509418
-0.0023139534
0.0097737458
-0.0028729041
0.002291283
0.010266932
-0.0090894185
0.0085859045
0.010569405
-0.017025111
0.016710865
0.010640845
-0.026680814
0.026596412
0.010489808
-0.037988296
0.038125881
0.010173958
-0.050922438
0.051227048
0.0097539622
-0.065513101
0.06592637
0.0092080355
-0.081704271
0.082245352
0.0086446757
-0.099072936
0.09962961
0.0080887431
-0.11735808
0.11790585
0.0075565169
-0.13631684
0.13684158
0.007059438
-0.155811
0.15630246
0.0066083053
-0.17575634
0.17620367
0.0062113513
-0.19625455
0.19664842
0.0058771338
-0.21763061
0.21796189
0.0056094705
-0.24026947
0.2405335
0.0054071221
-0.26453604
0.26473394
0.0052665846
-0.2907536
0.29089031
0.0051815049
-0.31921976
0.31930243
0.0051438045
-0.35020841
0.35024497
0.0051451908
-0.38398153
0.38398013
0.0051777575
-0.42079803
0.42076634
0.0052342076
-0.46092388
0.46086895
0.0053082802
-0.50464006
0.50456815
0.0053947394
-0.55224762
0.55216404
0.0054891432
-0.60407107
0.60398018
0.0055879805
-0.6604657
0.66037087
0.0056887262
-0.72182305
0.72172668
0.0057897244
-0.78857989
0.78848352
0.0058900558
-0.86121608
0.86112051
0.0059893591
-0.94025739
0.9401629
0.0060876752
-1.0262729
1.0261794
0.006185278
-1.1198831
1.1197901
0.0062825671
-1.2217575
1.2216646
0.0063799443
-1.3326228
1.3325294
0.0064778051
-1.4532669
1.4531724
0.0065765525
-1.5845412
1.584445
0.0066765648
-1.7273642
1.7272656
0.0067782475
-1.8827286
1.8826266
0.0068819945
-2.0516972
2.051591
0.006988282
-2.2354084
2.2352967
0.0070977306
-2.4350739
2.4349555
0.0072109839
-2.6519812
2.6518549
0.007328455
-2.8874923
2.887357
0.0074504872
-3.1430452
3.1428998
0.0075777033
-3.4201687
3.4200122
0.0077112745
-3.7204796
3.7203111
0.0078527715
-4.0456888
4.0455079
0.0080036287
-4.3976069
4.3974134
0.008164404
-4.77816
4.7779546
0.0083340665
-5.189384
5.1891674
0.0085109274
-5.6334546
5.633228
0.0086927555
-6.1127782
6.1125437
0.0088767247
-6.6299114
6.6296715
0.0090594542
-7.187778
7.1875361
0.0092393771
-7.7895891
7.789351
0.0094185606
-8.4391994
8.4389712
0.0095867363
-9.1406479
9.1404393
0.0097355606
-9.89792
9.8977308
0.0098619556
-10.716859
10.716691
0.0099615033
-11.601992
11.601853
0.010051877
-12.561056
12.560949
0.010103949
-13.599697
13.599663
0.010061683
-14.724898
14.72495
0.010032167
-15.946269
15.946345
0.0097992301
-17.275123
17.275335
0.0095883474
-18.702573
18.702721
0.0096628957
-20.270737
20.270983
0.0089886927
-21.951181
21.951676
-23.79027
23.790686
-4.7886043e-07
-2.6397479e-06
-1.8206187e-06
-8.6926823e-06
-4.2528423e-06
-1.612832e-05
-8.0225917e-06
-2.51175e-05
-1.3374942e-05
-3.5902218e-05
-2.0516469e-05
-4.8765445e-05
-2.9589045e-05
-6.3908746e-05
-4.0623624e-05
-8.1606536e-05
-5.3512632e-05
-0.00010205267
-6.7938311e-05
-0.0001253881
-8.3410505e-05
-0.00015179477
-9.9279541e-05
-0.00018105784
-0.00011494482
-0.00021272912
-0.00013002414
-0.00024642399
-0.00014444827
-0.00028178596
-0.00015837184
-0.00031874002
-0.00017206011
-0.00035750742
-0.00018578961
-0.00039838291
-0.00019979737
-0.00044160855
-0.00021429411
-0.00048785364
-0.00022946718
-0.00053773229
-0.00024546856
-0.0005914272
-0.00026245368
-0.00064953613
-0.00028056553
-0.00071261786
-0.00029995802
-0.00078091601
-0.00032078925
-0.00085521215
-0.00034324312
-0.00093582299
-0.00036750752
-0.0010234198
-0.00039380419
-0.0011186136
-0.00042238046
-0.001221997
-0.00045350695
-0.0013341906
-0.00048749357
-0.0014559069
-0.00052469035
-0.0015875925
-0.00056548661
-0.001730254
-0.00061032752
-0.0018847675
-0.00065969131
-0.0020516115
-0.00071410531
-0.0022317416
-0.00077412168
-0.0024257055
-0.0008402893
-0.002634157
-0.00091314667
-0.0028574289
-0.00099311939
-0.0030959332
-0.0010804703
-0.0033490257
-0.0011751456
-0.0036155863
-0.0012766203
-0.0038929316
-0.0013835018
-0.0041755028
-0.0014929402
-0.0044551865
-0.0016003018
-0.004719195
-0.0016994696
-0.0049509442
-0.0017800668
-0.0051317186
-0.001824832
-0.0052377511
-0.0018064122
-0.0052290846
-0.0016845961
-0.0050333569
-0.0014041821
-0.0045366805
-0.00091942459
-0.0035606612
-0.00021681922
-0.0018036835
0.00058153081
0.0001298817
0.0015582215
0.0017538749
0.0026794817
0.0033544247
0.0038777263
0.0048954592
0.0050997529
0.0062889259
0.0062990013
0.0074456748
0.0074366757
0.0082810482
0.008481494
0.0087105519
0.0094146271
0.0086473366
0.010228037
0.0079973347
0.010922833
0.0066453332
0.011519744
0.0044387257
0.012105162
0.0011548999
0.012643691
-0.0034232871
0.013043879
-0.0095029253
0.013237776
-0.017234054
0.013177439
-0.026636825
0.012872438
-0.03769976
0.012394811
-0.050457469
0.011823665
-0.064948695
0.011168371
-0.081054473
0.010494534
-0.098407487
0.0098274584
-0.11670099
0.0091877077
-0.13568587
0.0085929019
-0.15522255
0.0080572092
-0.17522488
0.0075908029
-0.19579171
0.0072037736
-0.21724708
0.0068999882
-0.2399701
0.0066774677
-0.26431881
0.0065316661
-0.29061219
0.0064545752
-0.31914532
0.0064362675
-0.35019122
0.0064667206
-0.38401175
0.0065363522
-0.42086635
0.006636349
-0.4610218
0.0067592378
-0.50476009
0.006898714
-0.55238338
0.0070495198
-0.60421742
0.0072075074
-0.66061867
0.0073697577
-0.72197986
0.0075344139
-0.78873884
0.0077004884
-0.86137631
0.0078676677
-0.94041871
0.0080360897
-1.0264356
0.0082061578
-1.1200476
0.0083783897
-1.2219244
0.0085533134
-1.3327929
0.0087313731
-1.4534409
0.0089129984
-1.5847199
0.0090985892
-1.7275483
0.0092884816
-1.8829188
0.0094829849
-2.0518947
0.0096824372
-2.2356143
0.0098872695
-2.4352892
0.01009785
-2.652207
0.01031421
-2.8877293
0.010536201
-3.1432942
0.010763933
-3.4204302
0.010998045
-3.7207536
0.011239514
-4.0459752
0.01148908
-4.3979046
0.011746416
-4.7784677
0.012009438
-5.1896996
0.012274973
-5.6337756
0.01253991
-6.1131016
0.01279968
-6.630233
0.013050196
-7.1880936
0.01328852
-7.7898911
0.013516553
-8.4394807
0.013722423
-9.1408975
0.013896065
-9.8981373
0.014034386
-10.717041
0.014131952
-11.60213
0.014207325
-12.561149
0.014229723
-13.599699
0.014139109
-14.724798
0.014046549
-15.946126
0.013730718
-17.274828
0.013415763
-18.702325
0.013388034
-20.270373
0.012567775
-21.950549
-23.789699
-3.6442164e-07
-2.3697623e-06
-1.3577448e-06
-7.7996019e-06
-3.1153094e-06
-1.4480471e-05
-5.7695016e-06
-2.2578744e-05
-9.4748239e-06
-3.2323324e-05
-1.4386784e-05
-4.3985743e-05
-2.0674042e-05
-5.776561e-05
-2.8490599e-05
-7.394024e-05
-3.7980984e-05
-9.2724011e-05
-4.9247059e-05
-0.00011428976
-6.2360244e-05
-0.00013885915
-7.7311841e-05
-0.00016628922
-9.4040148e-05
-0.00019619123
-0.00011244926
-0.00022820992
-0.0001324651
-0.00026197118
-0.00015404226
-0.00029736915
-0.00017718356
-0.00033457894
-0.00020189257
-0.00037389377
-0.0002281976
-0.00041553149
-0.00025613319
-0.00046015513
-0.00028575616
-0.00050835674
-0.00031710684
-0.00056033545
-0.00035024271
-0.00061667209
-0.00038522573
-0.00067792108
-0.00042211005
-0.00074433421
-0.00046096703
-0.00081667604
-0.00050186746
-0.0008952644
-0.00054489182
-0.00098076113
-0.00059012872
-0.0010737699
-0.00063768601
-0.0011748647
-0.00068768874
-0.0012846497
-0.00074028628
-0.0014038139
-0.00079563723
-0.001532796
-0.00085395392
-0.0016725501
-0.00091549204
-0.0018239108
-0.00098053957
-0.001987326
-0.0010494439
-0.0021636946
-0.0011225994
-0.0023535207
-0.0012004449
-0.0025574182
-0.0012834667
-0.0027756782
-0.0013721795
-0.0030086929
-0.0014670556
-0.0032558726
-0.0015684015
-0.0035162812
-0.0016761594
-0.0037876268
-0.0017895959
-0.0040650662
-0.0019068724
-0.0043416472
-0.0020244852
-0.0046063146
-0.0021364018
-0.0048450655
-0.0022323198
-0.0050434471
-0.0022952394
-0.0051842821
-0.0022973231
-0.005238224
-0.0021785925
-0.0051647142
-0.0018361721
-0.004892362
-0.0011154196
-0.0042938805
0.00010509193
-0.0030320785
0.0015628128
-0.0013304004
0.0029643621
0.00035305901
0.0043243898
0.0019977971
0.0057435653
0.0034810284
0.0071725543
0.0048653589
0.0085495184
0.0060737291
0.0098239233
0.0070102377
0.010958023
0.0075778682
0.011929331
0.0076750119
0.012734818
0.0071880589
0.013388987
0.0059847185
0.013918057
0.0039010941
0.014330613
0.00073170553
0.014637604
-0.0037425715
0.014809279
-0.0096887337
0.014776919
-0.017217625
0.01449633
-0.026373383
0.013996755
-0.0372167
0.013376259
-0.049847849
0.012716478
-0.064293627
0.012022559
-0.080365624
0.011317073
-0.097710957
0.010616621
-0.11601107
0.0099418742
-0.13502001
0.0093138674
-0.1546007
0.008749037
-0.17466412
0.0082593083
-0.19530557
0.0078562391
-0.21684767
0.0075440439
-0.23966269
0.0073206001
-0.26410101
0.0071809637
-0.29047703
0.007116259
-0.31908317
0.0071157079
-0.35019156
0.0071684608
-0.38406389
0.0072641137
-0.42096026
0.0073931228
-0.46114824
0.0075473975
-0.50491093
0.007720164
-0.55255176
0.0079057073
-0.60439779
0.0080996084
-0.66080681
0.0082987953
-0.72217286
0.0085013444
-0.78893493
0.0087062776
-0.86157468
0.0089133508
-0.94061923
0.00912278
-1.0266386
0.0093350506
-1.1202536
0.0095507689
-1.2221343
0.0097705091
-1.3330074
0.0099947914
-1.4536608
0.010224038
-1.5849459
0.010458669
-1.7277813
0.010698998
-1.8831596
0.010945296
-2.0521443
0.01119784
-2.2358738
0.011456937
-2.4355597
0.01172282
-2.6524893
0.011995337
-2.8880242
0.012274055
-3.143602
0.012558787
-3.4207511
0.012849877
-3.7210875
0.013147975
-4.0463213
0.013453412
-4.3982614
0.013765371
-4.7788332
0.014081065
-5.1900711
0.014396871
-5.6341501
0.014708469
-6.1134748
0.015011164
-6.6306008
0.015299724
-7.1884505
0.015570859
-7.7902289
0.015826047
-8.4397916
0.016052825
-9.1411697
0.01624031
-9.8983702
0.016384881
-10.717231
0.016480966
-11.602269
0.016547441
-12.561233
0.016552944
-13.599683
0.016434824
-14.72467
0.016306164
-15.945945
0.015943024
-17.274486
0.015568822
-18.702019
0.015483457
-20.269944
0.01458077
-21.949838
-3.8623255e-07
-2.0903284e-06
-1.3972018e-06
-6.8996623e-06
-3.1581641e-06
-1.2836873e-05
-5.8024191e-06
-2.0055699e-05
-9.4829644e-06
-2.8770786e-05
-1.4362773e-05
-3.9239457e-05
-2.0604715e-05
-5.166453e-05
-2.8373485e-05
-6.6318735e-05
-3.7817404e-05
-8.3433937e-05
-4.9057615e-05
-0.00010320948
-6.2178725e-05
-0.00012590288
-7.7198846e-05
-0.00015143863
-9.4043383e-05
-0.00017951884
-0.00011260047
-0.00020982778
-0.00013273225
-0.0002420157
-0.00015432924
-0.0002759508
-0.00017731809
-0.00031177078
-0.00020166667
-0.00034972922
-0.000227337
-0.00039004887
-0.00025433161
-0.00043335306
-0.00028265938
-0.00048022724
-0.00031232686
-0.00053087293
-0.00034333748
-0.00058587428
-0.00037571893
-0.00064576149
-0.00040947829
-0.00071080721
-0.00044465281
-0.00078174601
-0.00048127316
-0.00085890257
-0.00051938006
-0.00094292899
-0.00055904839
-0.0010343952
-0.0006003483
-0.0011338802
-0.00064338755
-0.0012419512
-0.0006882891
-0.0013592827
-0.00073521643
-0.0014862733
-0.00078437104
-0.00162384
-0.00083598344
-0.0017727894
-0.00089033892
-0.0019335156
-0.00094775786
-0.0021068837
-0.0010085997
-0.0022933601
-0.0010732663
-0.0024935184
-0.0011421469
-0.0027076651
-0.0012156222
-0.0029362051
-0.0012939428
-0.003178685
-0.0013771323
-0.0034344059
-0.0014647684
-0.0037015385
-0.0015556654
-0.0039760303
-0.0016475664
-0.0042520459
-0.0017368409
-0.0045199725
-0.0018182788
-0.0047674753
-0.0018839618
-0.0049828918
-0.0019200691
-0.0051549881
-0.0018981152
-0.0052690734
-0.0017773148
-0.0052967742
-0.0014885443
-0.0051947355
-0.00090480708
-0.0048930522
0.00020715749
-0.0041580995
0.0019354303
-0.0030678238
0.0039385209
-0.0016530398
0.0059445197
-7.5191528e-06
0.0077336085
0.0016968208
0.0093889751
0.0032167046
0.010922118
0.0045474884
0.012294214
0.0056439116
0.013467649
0.0064081434
0.014420914
0.0067226641
0.015151444
0.0064554904
0.015674782
0.0054564512
0.016017263
0.0035512257
0.016211018
0.00052814887
0.01625857
-0.0038024961
0.016131113
-0.0095757855
0.01578553
-0.016888254
0.015219787
-0.025824797
0.014513598
-0.036525491
0.013790076
-0.049131616
0.013100675
-0.063606399
0.01241605
-0.079685744
0.011724249
-0.097028484
0.011033237
-0.1153306
0.010362869
-0.134358
0.0097358935
-0.15397923
0.0091707682
-0.17410262
0.0086813614
-0.19481956
0.0082810121
-0.216451
0.0079747994
-0.23936152
0.0077610681
-0.26389306
0.0076349526
-0.29035526
0.0075871825
-0.31903769
0.0076065852
-0.35021148
0.0076818929
-0.38413814
0.0078022233
-0.42107835
0.0079576219
-0.46130052
0.0081396572
-0.50508891
0.0083412004
-0.55274824
0.0085563143
-0.60460703
0.0087804347
-0.66102447
0.0090103961
-0.72239594
0.0092442948
-0.78916171
0.0094812142
-0.86180439
0.0097209583
-0.94085182
0.0099638447
-1.0268745
0.01021044
-1.1204935
0.010461426
-1.222379
0.01071743
-1.3332578
0.010978987
-1.4539177
0.011246575
-1.5852101
0.01152059
-1.7280537
0.011801366
-1.883441
0.012089134
-2.0524356
0.012384122
-2.2361762
0.012686581
-2.4358742
0.012996623
-2.6528168
0.01331392
-2.8883651
0.013637851
-3.1439567
0.013968004
-3.4211195
0.014304476
-3.7214691
0.014647656
-4.0467149
0.014997564
-4.3986653
0.015352976
-4.7792447
0.015710577
-5.190487
0.01606614
-5.6345669
0.016415033
-6.1138879
0.016751645
-6.631005
0.017070348
-7.18884
0.017367532
-7.7905952
0.01764431
-8.4401258
0.017887514
-9.1414597
0.018085835
-9.8986152
0.018235444
-10.717428
0.018330183
-11.602408
0.018389761
-12.56131
0.0183818
-13.599653
0.018241737
-14.724519
0.018084573
-15.945735
0.017683837
-17.274108
0.017262792
-18.701668
0.017132185
-20.269461
-21.949067
-3.6789982e-07
-1.783968e-06
-1.4244587e-06
-5.9118065e-06
-3.2991106e-06
-1.1038089e-05
-6.1266776e-06
-1.7313177e-05
-1.0046306e-05
-2.4943978e-05
-1.5202306e-05
-3.418468e-05
-2.1727518e-05
-4.5248037e-05
-2.9739784e-05
-5.8422317e-05
-3.932873e-05
-7.3967317e-05
-5.0541205e-05
-9.2124428e-05
-6.3386887e-05
-0.00011318909
-7.7806281e-05
-0.00013715366
-9.3676844e-05
-0.00016378449
-0.00011083
-0.00019281084
-0.00012907308
-0.00022390895
-0.00014822862
-0.00025693097
-0.00016814816
-0.00029198726
-0.00018871662
-0.00032929711
-0.00020983825
-0.00036906488
-0.00023144453
-0.00041188607
-0.00025348316
-0.00045833044
-0.00027588666
-0.00050861429
-0.00029860225
-0.00056330742
-0.00032156821
-0.00062294887
-0.00034472691
-0.00068780743
-0.00036802227
-0.00075861627
-0.00039139548
-0.00083570303
-0.00041481198
-0.00091969578
-0.0004382226
-0.0010111794
-0.00046161069
-0.0011107006
-0.00048495957
-0.001218827
-0.00050829109
-0.0013361948
-0.00053162137
-0.0014632085
-0.0005550183
-0.0016007335
-0.00057857064
-0.0017495558
-0.00060238872
-0.0019100477
-0.00062662486
-0.0020830326
-0.00065145273
-0.0022689554
-0.00067705591
-0.0024683796
-0.00070364161
-0.0026815883
-0.00073137622
-0.0029090275
-0.00076037323
-0.0031502976
-0.00079057634
-0.0034048714
-0.00082163438
-0.0036712182
-0.00085265444
-0.0039458358
-0.00088190732
-0.0042237428
-0.00090656197
-0.0044964641
-0.00092251215
-0.0047530046
-0.00092374729
-0.0049837029
-0.00089973766
-0.0051819607
-0.00083415983
-0.0053390029
-0.00070052039
-0.005436769
-0.00045507091
-0.005449253
-1.5919104e-05
-0.0053445467
0.00082207442
-0.00501071
0.0022240958
-0.0044852373
0.0042092062
-0.0036506194
0.0065807663
-0.0023840175
0.0090021832
-0.00072227401
0.011129868
0.0010958879
0.012902824
0.0027834613
0.014380104
0.004175616
0.015570922
0.0052247854
0.016473017
0.0058254825
0.017094433
0.0058358243
0.017460077
0.0050889927
0.017599918
0.0034062212
0.017518764
0.0006013308
0.017235375
-0.0035299835
0.016751208
-0.0091050842
0.016062387
-0.016214617
0.015229803
-0.02500789
0.014397553
-0.035704047
0.013677754
-0.048413638
0.013047894
-0.062976175
0.012434504
-0.079077057
0.011806466
-0.096409837
0.011168387
-0.11470247
0.010539979
-0.13373685
0.0099454744
-0.15338921
0.0094059616
-0.17356606
0.0089377887
-0.19435442
0.0085566206
-0.21607342
0.0082691015
-0.23907917
0.0080747434
-0.26370444
0.0079692461
-0.2902538
0.0079433926
-0.31901369
0.0079860224
-0.35025414
0.0080857845
-0.3842363
0.0082316028
-0.42122136
0.0084133291
-0.46147852
0.0086223373
-0.5052932
0.0088513618
-0.5529715
0.0090943124
-0.60484338
0.0093465473
-0.66126953
0.0096049608
-0.72264679
0.0098676613
-0.78941662
0.010133815
-0.86206272
0.010403345
-0.94111362
0.010676632
-1.0271402
0.010954357
-1.1207641
0.01123725
-1.2226552
0.011526
-1.3335405
0.011821173
-1.4542079
0.012123261
-1.5855087
0.01243268
-1.7283614
0.012749752
-1.8837588
0.01307471
-2.0527644
0.013407724
-2.2365171
0.013748996
-2.4362283
0.014098555
-2.6531847
0.01445593
-2.8887473
0.014820296
-3.1443533
0.01519107
-3.4215303
0.015568137
-3.7218932
0.015951645
-4.047151
0.016341325
-4.3991111
0.016735593
-4.7796972
0.017130694
-5.1909426
0.01752196
-5.6350215
0.017904165
-6.1143365
0.018271164
-6.6314418
0.018616949
-7.1892589
0.018937345
-7.7909866
0.019233413
-8.4404808
0.019491727
-9.1417659
0.01969982
-9.8988712
0.019854064
-10.717631
0.019948073
-11.602547
0.020001808
-12.561382
0.019982395
-13.59961
0.019823368
-14.72435
0.01964132
-15.945498
0.019207539
-17.273696
0.018745505
-18.701278
0.018575462
-20.268932
-21.948244
-3.1062311e-07
-1.5332607e-06
-1.1836332e-06
-5.1043502e-06
-2.7223428e-06
-9.5706939e-06
-5.0337084e-06
-1.5079937e-05
-8.2238816e-06
-2.1837989e-05
-1.2400501e-05
-3.0098506e-05
-1.765001e-05
-4.0094713e-05
-2.4036909e-05
-5.2136492e-05
-3.1588474e-05
-6.6521594e-05
-4.027238e-05
-8.3549132e-05
-5.0009537e-05
-0.00010356358
-6.0630843e-05
-0.0001266443
-7.1898534e-05
-0.00015262945
-8.3513789e-05
-0.00018130643
-9.516353e-05
-0.00021236947
-0.00010656828
-0.00024563452
-0.0001175057
-0.00028115798
-0.00012780484
-0.00031910559
-0.0001373366
-0.00035964176
-0.00014598934
-0.00040334317
-0.00015365356
-0.00045077845
-0.00016021311
-0.00050216991
-0.00016555107
-0.00055808847
-0.00016955312
-0.00061907067
-0.00017209849
-0.00068539159
-0.00017306821
-0.00075778308
-0.000172348
-0.00083656786
-0.00016982428
-0.00092237378
-0.00016539763
-0.0010157715
-0.00015897731
-0.0011172994
-0.00015049032
-0.0012275071
-0.00013987455
-0.0013470202
-0.0001270988
-0.0014762118
-0.00011213536
-0.0016159436
-9.5000524e-05
-0.0017669569
-7.5709985e-05
-0.0019296237
-5.430989e-05
-0.0021047357
-3.0852698e-05
-0.0022927298
-5.4061595e-06
-0.0024941524
2.1976422e-05
-0.0027092989
5.1258948e-05
-0.002938628
8.2479938e-05
-0.0031818112
0.00011578823
-0.0034384267
0.00015156161
-0.0037071667
0.00019059058
-0.0039849365
0.00023435303
-0.0042674383
0.00028544349
-0.0045473163
0.00034793928
-0.0048150844
0.00042744089
-0.0050626635
0.00053089965
-0.0052848983
0.00066779925
-0.0054756588
0.00085369053
-0.0056231315
0.001111995
-0.0057094207
0.0014780165
-0.0057145028
0.0020669313
-0.0056065929
0.0029234973
-0.005352186
0.0041587408
-0.0048990964
0.0059372295
-0.0041763424
0.0082706012
-0.0030661858
0.010794525
-0.0014304004
0.0130629
0.00052036721
0.014846086
0.0024014367
0.016175883
0.0039049675
0.017095348
0.0049147907
0.017647368
0.0052898984
0.017882144
0.0048569188
0.017845694
0.0034416033
0.0175539
0.00088840595
0.017009654
-0.0029937711
0.016233484
-0.0083397381
0.015282634
-0.015276244
0.014332578
-0.024069849
0.013573205
-0.034947877
0.013024809
-0.047860512
0.01256502
-0.062514339
0.012095614
-0.078612565
0.011587738
-0.095911018
0.011049175
-0.11417259
0.010501351
-0.13319468
0.0099710727
-0.15286214
0.0094832674
-0.17308036
0.0090574214
-0.1939311
0.0087121168
-0.21573151
0.0084563131
-0.23882856
0.0082913512
-0.263545
0.0082139963
-0.29017998
0.008215543
-0.31901653
0.0082852568
-0.35032327
0.0084120207
-0.38436084
0.0085848282
-0.42139074
0.0087935684
-0.46168287
0.0090296138
-0.50552381
0.0092856556
-0.55322103
0.0095555875
-0.60510597
0.0098348047
-0.66154086
0.010120258
-0.72292398
0.01041021
-0.78969814
0.010703912
-0.86234798
0.011001397
-0.94140281
0.011303171
-1.027434
0.011609967
-1.1210632
0.011922619
-1.2229608
0.012241851
-1.3338535
0.012568256
-1.4545292
0.01290235
-1.5858392
0.013244565
-1.7287019
0.013595217
-1.8841103
0.013954528
-2.0531279
0.014322666
-2.2368936
0.014699755
-2.4366188
0.015085749
-2.65359
0.015480052
-2.8891677
0.015881701
-3.1447887
0.016289896
-3.4219802
0.016704366
-3.7223567
0.017125018
-4.0476263
0.017551325
-4.3995955
0.017981396
-4.7801876
0.018411078
-5.1914348
0.018835127
-5.6355109
0.01924791
-6.1148176
0.019642979
-6.6319086
0.020013726
-7.1897046
0.020355498
-7.7914012
0.020669541
-8.4408551
0.020941605
-9.1420869
0.021158918
-9.8991375
0.021317618
-10.717839
0.021411059
-11.602687
0.021459574
-12.561448
0.021429891
-13.599557
0.02125391
-14.724164
0.021049235
-15.945237
0.020585786
-17.273255
0.0200865
-18.700852
0.019880889
-20.268361
-1.7699506e-07
-1.3997278e-06
-6.535312e-07
-4.6765406e-06
-1.4801031e-06
-8.7980457e-06
-2.7039018e-06
-1.3916508e-05
-4.3659213e-06
-2.0242128e-05
-6.4950317e-06
-2.8041907e-05
-9.0972299e-06
-3.7570745e-05
-1.2146658e-05
-4.9170272e-05
-1.5571652e-05
-6.3184602e-05
-1.9250287e-05
-7.9961514e-05
-2.2996966e-05
-9.9911242e-05
-2.6569556e-05
-0.00012316694
-2.9658124e-05
-0.00014963762
-3.1918169e-05
-0.00017914256
-3.300135e-05
-0.00021138327
-3.2579924e-05
-0.00024615297
-3.0411273e-05
-0.0002834255
-2.6301263e-05
-0.00032331665
-2.0107555e-05
-0.00036594017
-1.1706743e-05
-0.00041185334
-9.7730097e-07
-0.00046162299
1.2196356e-05
-0.00051546582
2.7938888e-05
-0.00057396121
4.6378322e-05
-0.00063765013
6.7636948e-05
-0.00070680061
9.1838206e-05
-0.00078214713
0.00011909057
-0.00086399602
0.00014950151
-0.00095297542
0.00018315112
-0.0010496273
0.00022012469
-0.0011544962
0.00026046959
-0.0012680925
0.00030423684
-0.0013910455
0.00035143783
-0.0015236876
0.00040208805
-0.0016668835
0.00045619117
-0.0018213612
0.00051372446
-0.0019874646
0.00057467308
-0.0021659909
0.00063899615
-0.0023573485
0.00070665917
-0.0025620866
0.00077761791
-0.002780487
0.00085184199
-0.0030130176
0.00092930158
-0.0032593449
0.0010100027
-0.0035190757
0.0010940148
-0.0037909572
0.0011815157
-0.0040719928
0.0012729996
-0.0043581903
0.0013696906
-0.0046429153
0.0014742973
-0.0049181704
0.0015914665
-0.0051778449
0.0017271863
-0.0054181725
0.0018886691
-0.0056342985
0.0020864768
-0.0058178198
0.0023359963
-0.0059557769
0.0026558846
-0.0060316277
0.0030744227
-0.0060234677
0.003626584
-0.005904757
0.004363852
-0.0056398929
0.0053614491
-0.0051811358
0.0067436164
-0.0044583496
0.0086648394
-0.0033614808
0.010860188
-0.0016794555
0.012809258
0.0004552148
0.014258551
0.0024626349
0.015222699
0.0039589899
0.015765
0.0047550999
0.015966602
0.0046606233
0.015884569
0.0035257706
0.015544453
0.0012277205
0.014930533
-0.0023838397
0.014074038
-0.0074900993
0.013138364
-0.014349273
0.012429207
-0.023365592
0.012062774
-0.034574407
0.011875702
-0.047663263
0.011692208
-0.062328546
0.011439212
-0.078364672
0.011108132
-0.095587932
0.010714612
-0.11378585
0.010284555
-0.13276832
0.0098491857
-0.15242853
0.0094386281
-0.17267089
0.0090760352
-0.19357044
0.0087834091
-0.21544203
0.0085726938
-0.23862293
0.0084476171
-0.263425
0.0084064458
-0.29014167
0.0084414249
-0.31905209
0.0085426525
-0.3504232
0.0086995469
-0.38451479
0.0089014434
-0.4215885
0.0091384917
-0.4619148
0.009402216
-0.50578132
0.0096854119
-0.55349691
0.0099820665
-0.6053945
0.01028772
-0.66183788
0.010599491
-0.72322678
0.010915758
-0.7900053
0.011235947
-0.86265913
0.011560223
-0.94171823
0.011889204
-1.0277544
0.012223735
-1.1213897
0.012564678
-1.2232943
0.012912838
-1.3341951
0.013268831
-1.4548798
0.013633186
-1.5861998
0.014006341
-1.7290734
0.01438864
-1.8844935
0.014780284
-2.0535239
0.015181414
-2.2373035
0.015592127
-2.4370435
0.016012294
-2.6540302
0.016441216
-2.8896237
0.01687775
-3.1452603
0.017320961
-3.4224667
0.017770376
-3.7228569
0.018225721
-4.0481381
0.018686207
-4.4001161
0.019149634
-4.7807132
0.019611482
-5.191961
0.020066008
-5.6360327
0.020507303
-6.115329
0.020928349
-6.6324031
0.021322057
-7.1901751
0.021683693
-7.7918374
0.022014113
-8.4412471
0.02229881
-9.1424213
0.022524312
-9.8994129
0.022686864
-10.718052
0.022779411
-11.602826
0.02282278
-12.56151
0.022783299
-13.599493
0.022590937
-14.723961
0.022365092
-15.944954
0.021873385
-17.272787
0.02133906
-18.700392
-20.26775
3.1990777e-08
-1.4378054e-06
1.440094e-07
-4.804961e-06
3.6935265e-07
-9.0448377e-06
7.4036564e-07
-1.4319372e-05
1.3149661e-06
-2.0854278e-05
2.1644756e-06
-2.8937165e-05
3.3891082e-06
-3.884742e-05
5.1205353e-06
-5.0959285e-05
7.5250011e-06
-6.5652802e-05
1.0805723e-05
-8.3309102e-05
1.5191683e-05
-0.00010436952
2.0937577e-05
-0.00012898655
2.8304169e-05
-0.00015708255
3.7579203e-05
-0.00018849707
4.9044605e-05
-0.00022293304
6.2963572e-05
-0.00026015943
7.9548584e-05
-0.00030010475
9.8949181e-05
-0.0003428179
0.00012125476
-0.00038835569
0.00014654562
-0.00043726407
0.00017489176
-0.00049010107
0.00020634703
-0.00054706625
0.00024097193
-0.0006087461
0.00027883417
-0.00067568873
0.0003199743
-0.00074813468
0.00036444416
-0.00082683
0.00041227173
-0.0009120565
0.00046346189
-0.0010044194
0.00051802584
-0.0011044663
0.00057593742
-0.0012127041
0.00063716582
-0.0013296376
0.00070165235
-0.0014558675
0.00076932658
-0.0015917127
0.00084010564
-0.0017380242
0.0009139097
-0.0018955309
0.00099062041
-0.0020645356
0.0010701208
-0.0022458343
0.0011522742
-0.0024398118
0.001236904
-0.0026469735
0.0013238096
-0.0028675721
0.0014127394
-0.0031020181
0.0015033627
-0.003349891
0.0015952571
-0.0036106968
0.0016878813
-0.003883051
0.0017805606
-0.00416381
0.0018726252
-0.0044489717
0.0019638335
-0.0047323211
0.0020554034
-0.0050073324
0.0021507258
-0.0052701055
0.0022546287
-0.0055183475
0.0023722941
-0.0057475746
0.002509259
-0.0059497543
0.0026719867
-0.0061128878
0.00286881
-0.0062223782
0.003111191
-0.0062595996
0.0034140474
-0.0062017039
0.0037978016
-0.0060188858
0.0042912125
-0.0056720012
0.0049360592
-0.0051037339
0.0058045018
-0.0042336138
0.0070409098
-0.0029204945
0.0084623506
-0.0009683146
0.0096262822
0.0013007747
0.010427326
0.0031620399
0.010923892
0.0042633513
0.011178132
0.0044105785
0.011224156
0.0034822517
0.01107049
0.0013816182
0.010693679
-0.0020088369
0.010132848
-0.0069329708
0.0097022444
-0.013922304
0.0097256499
-0.023382121
0.010034033
-0.034866177
0.010331117
-0.047948536
0.010497221
-0.062493364
0.01051609
-0.078388365
0.010405975
-0.095484001
0.010193468
-0.11357783
0.0099115398
-0.13248796
0.0095971581
-0.15211433
0.0092864155
-0.17236013
0.0090061745
-0.19329149
0.0087820373
-0.21522077
0.0086293037
-0.23847499
0.0085544478
-0.26335453
0.0085574946
-0.2901467
0.0086320542
-0.31912637
0.0087693827
-0.3505584
0.0089597349
-0.38470141
0.0091930426
-0.4218169
0.0094599024
-0.46217573
0.00975219
-0.50606655
0.010062919
-0.55379947
0.010386307