/*--------------------------------*- C++ -*----------------------------------*\
| =========                 |                                                 |
| \\      /  F ield         | OpenFOAM: The Open Source CFD Toolbox           |
|  \\    /   O peration     | Version:  2506                                  |
|   \\  /    A nd           | Website:  www.openfoam.com                      |
|    \\/     M anipulation  |                                                 |
\*---------------------------------------------------------------------------*/
FoamFile
{
    version     2.0;
    format      ascii;
    arch        "LSB;label=32;scalar=64";
    class       volScalarField;
    location    "2.9";
    object      omega;
}
// * * * * * * * * * * * * * * * * * * * * * * * * * * * * * * * * * * * * * //

dimensions      [0 0 -1 0 0 0 0];

internalField   nonuniform List<scalar> 
1376
(
2456.3263
1350.2003
513.73447
244.00379
154.60442
114.75407
91.449362
75.260414
64.486938
56.875996
51.736095
48.430202
45.593638
43.049573
40.888593
39.295152
38.21992
37.473838
36.937368
36.549705
36.250777
36.028472
35.871988
35.76594
35.677409
35.60985
35.556742
2430.3072
1100.2165
402.5265
203.73148
140.26859
106.22345
86.064409
71.535628
61.815997
54.925493
50.363389
46.979733
44.327404
42.127634
40.387088
39.127059
38.169647
37.448314
36.935979
36.576715
36.298648
36.089278
35.937284
35.838068
35.75371
35.689914
35.638051
35.596231
35.563043
2427.7772
1010.5778
364.88707
192.30099
134.66736
102.6
84.1373
70.057263
60.731087
54.06661
49.759136
46.475475
43.829453
41.642
40.205938
39.063789
38.17939
37.482586
36.978573
36.630544
36.360039
36.155717
36.008688
35.911211
35.829099
35.767883
35.716699
35.675799
35.643478
35.617721
2421.6535
1031.2327
366.59573
189.44815
132.20082
100.50506
82.848324
69.071958
59.952016
53.289789
49.208128
45.88106
43.367499
41.412962
40.111132
38.986885
38.157814
37.505591
37.016692
36.671742
36.414856
36.21727
36.077031
35.983828
35.903659
35.842867
35.792929
35.753022
35.721599
35.696313
35.675343
2422.4709
973.8818
338.86683
182.15557
127.19819
98.167341
81.007325
68.032785
59.446181
52.793074
48.733512
45.637934
43.195574
41.163289
40.02044
38.924742
38.128002
37.520613
37.059144
36.720402
36.467533
36.277604
36.145241
36.053801
35.977408
35.915729
35.866805
35.827882
35.797957
35.773011
35.752781
35.739892
35.732838
2428.3552
999.45573
340.00628
180.61963
125.83975
97.093133
79.604697
67.256563
58.975339
52.432392
48.356766
45.149689
42.937785
41.06398
39.95574
38.896198
38.124914
37.532548
37.094619
36.765117
36.516942
36.332804
36.210141
36.120699
36.049183
35.986358
35.938584
35.900508
35.872555
35.848045
35.829105
35.816996
35.81074
35.811263
2402.1701
938.34365
315.38792
174.53663
124.17145
96.263027
78.482225
66.434368
58.46974
52.197578
48.155609
44.995673
42.922843
40.957127
39.792941
38.818259
38.110762
37.543949
37.131803
36.807391
36.561825
36.38598
36.273022
36.184438
36.119076
36.055258
36.008567
35.971126
35.945537
35.921758
35.904515
35.893147
35.887851
35.890011
35.90135
2382.6961
956.1071
309.86223
173.464
124.45084
96.545957
78.248557
66.112765
57.989511
51.77959
47.859364
44.737037
42.736525
40.903621
39.701801
38.760773
38.112006
37.583792
37.169164
36.848199
36.608736
36.439389
36.332956
36.245974
36.185793
36.12206
36.076898
36.04038
36.017221
35.994478
35.979283
35.968703
35.964554
35.96857
35.981633
36.006307
2342.9129
885.56094
292.64335
170.95577
123.54753
97.089781
78.036159
66.000815
57.647176
51.382323
47.504566
44.586399
42.633747
40.820648
39.677513
38.744303
38.096621
37.612124
37.205813
36.889706
36.655547
36.492247
36.389748
36.306343
36.249599
36.187137
36.143868
36.10878
36.08779
36.066382
36.053265
36.043672
36.040915
36.046872
36.061867
36.088561
2329.1722
903.18336
291.75647
171.17007
123.77156
98.421305
78.049376
66.082023
57.351734
51.113997
47.138967
44.323248
42.321265
40.6903
39.687751
38.785318
38.095481
37.630009
37.229617
36.929658
36.702156
36.547242
36.446384
36.366702
36.310688
36.251295
36.209896
36.176859
36.157691
36.137812
36.126698
36.118379
36.117253
36.125167
36.142247
36.17114
36.213686
2295.8495
814.58705
286.23153
169.6582
123.17954
99.102845
77.696938
65.754381
56.665791
50.915103
46.89106
44.135273
42.178401
40.603356
39.650882
38.827567
38.145352
37.647175
37.243743
36.967485
36.750972
36.601916
36.504271
36.427639
36.370252
36.315121
36.27569
36.245304
36.227519
36.209442
36.200049
36.193362
36.194049
36.20396
36.223231
36.25451
36.299695
36.363025
2295.1582
836.84753
289.5279
169.93029
123.27944
99.869387
77.940002
65.370078
55.82582
50.622159
46.583124
43.956548
42.020555
40.585996
39.551729
38.812924
38.184677
37.687628
37.259588
36.996612
36.797781
36.656771
36.56272
36.48812
36.429147
36.378349
36.341388
36.313966
36.297167
36.281265
36.273324
36.268684
36.271372
36.283366
36.304949
36.338801
36.386917
36.453413
36.543355
2253.8181
776.87648
282.78058
168.10284
123.03354
100.62949
78.251888
65.16185
55.215394
50.232877
46.167916
43.788407
41.863266
40.60396
39.523821
38.753597
38.166924
37.710897
37.288523
37.023581
36.840797
36.712106
36.619148
36.5454
36.487934
36.440214
36.40648
36.382131
36.366087
36.352853
36.346233
36.344047
36.348973
36.363188
36.387271
36.423885
36.475226
36.545215
36.638989
36.762368
2233.6502
778.93048
285.20062
168.1479
123.19878
101.84461
78.435304
65.160585
54.940815
50.138143
45.933833
43.661734
41.713793
40.599016
39.524917
38.781207
38.131072
37.696504
37.305827
37.061713
36.879382
36.766684
36.674855
36.598521
36.546189
36.501099
36.471018
36.449564
36.434442
36.424072
36.418921
36.419494
36.426954
36.44358
36.470403
36.509971
36.564801
36.638626
36.736543
36.86453
37.030872
2206.4096
743.22828
273.44394
166.14438
122.69471
103.85461
78.401988
64.990297
54.576355
50.170554
45.841345
43.600617
41.657503
40.610363
39.42208
38.853763
38.1325
37.695403
37.307886
37.100973
36.919944
36.818131
36.729265
36.650817
36.603427
36.561949
36.535317
36.516365
36.502963
36.495228
36.491854
36.495377
36.505729
36.525004
36.554806
36.597547
36.656081
36.734074
36.836464
36.969421
37.141498
37.363838
2176.712
746.38818
263.75177
165.39844
123.6675
107.13434
79.886778
65.276202
54.144843
50.213314
45.629163
43.475071
41.55758
40.638976
39.361648
38.831082
38.140075
37.723693
37.341078
37.133041
36.963727
36.867832
36.780767
36.705397
36.660303
36.62302
36.599446
36.582547
36.571793
36.56654
36.565122
36.571634
36.585235
36.607501
36.640507
36.68669
36.749122
36.831606
36.938826
37.077137
37.255378
37.484576
37.780376
2131.977
673.82517
249.43613
164.66933
124.68747
109.19393
80.726495
65.861865
53.959252
50.362593
45.375733
43.340426
41.314065
40.509778
39.329397
38.723931
38.092364
37.714
37.386592
37.16891
37.008519
36.918226
36.829448
36.761117
36.71813
36.684657
36.663421
36.64838
36.640669
36.638085
36.638882
36.648148
36.665299
36.690987
36.727446
36.777384
36.843934
36.931201
37.043641
37.187752
37.372593
37.609177
37.913371
38.308104
2103.0071
677.00119
244.80482
165.30766
126.95283
110.09809
80.895414
66.057448
53.889324
50.83397
45.364451
43.316884
41.248263
40.355968
39.305508
38.698654
38.089508
37.689066
37.407997
37.208028
37.056085
36.97024
36.879035
36.816553
36.776423
36.747152
36.727555
36.714744
36.709619
36.709978
36.713472
36.725414
36.746088
36.77561
36.81585
36.869857
36.9408
37.033115
37.151184
37.301565
37.493445
37.737968
38.0512
38.456493
38.989606
2064.6195
660.62718
240.36303
165.87469
129.1688
110.84998
80.54908
65.764474
53.6914
51.015085
45.427297
43.36541
41.260028
40.414285
39.289048
38.684552
38.113021
37.716906
37.43291
37.240476
37.097914
37.020753
36.930485
36.872875
36.834216
36.809953
36.792273
36.782232
36.779262
36.782288
36.788981
36.80397
36.827984
36.861582
36.906013
36.9644
37.040081
37.137717
37.261812
37.418938
37.618338
37.87136
38.194309
38.610887
39.157449
39.89157
2025.1751
665.52411
240.04898
165.48442
129.54464
111.94606
79.281176
64.87326
53.610626
51.132422
45.354102
43.228488
41.292403
40.473332
39.278697
38.670867
38.100279
37.741191
37.469924
37.278938
37.133066
37.063287
36.979645
36.929457
36.892448
36.871984
36.857491
36.850346
36.850115
36.855288
36.865103
36.883706
36.911244
36.948905
36.99796
37.061068
37.141876
37.245156
37.375682
37.540036
37.747469
38.009584
38.34296
38.77162
39.332547
40.084335
41.138381
1982.4494
641.9139
231.74824
161.62827
127.43333
113.07056
78.586107
64.560636
53.682365
51.371355
45.266638
42.857882
41.16041
40.410866
39.298788
38.687011
38.080202
37.743638
37.4868
37.319209
37.176052
37.103322
37.025454
36.982093
36.95169
36.933628
36.922629
36.918591
36.921513
36.929596
36.941928
36.964408
36.995855
37.037602
37.091678
37.159834
37.246182
37.355495
37.492895
37.664962
37.880978
38.152826
38.497393
38.939008
39.5153
40.286003
41.364074
42.986501
45.851516
1940.4843
622.41634
230.51534
159.8978
125.87822
114.36135
78.166623
64.715713
53.480554
51.59469
45.328351
42.784441
40.948813
40.269287
39.14417
38.681484
38.089826
37.767857
37.5074
37.342103
37.221792
37.148869
37.075738
37.032724
37.010106
36.995133
36.987056
36.98695
36.992751
37.004892
37.020298
37.046532
37.081947
37.127998
37.187352
37.260899
37.353224
37.469004
37.613723
37.794006
38.019195
38.30145
38.657995
39.113507
39.706244
40.49716
41.601
43.258881
46.162653
1907.1023
647.92622
231.16703
160.30322
124.91907
114.85551
76.924725
65.081365
53.40464
51.450835
45.32186
42.760546
40.856512
40.178114
39.041507
38.615806
38.099125
37.783919
37.550443
37.370097
37.262384
37.196436
37.130831
37.088904
37.068292
37.05595
37.051255
37.055303
37.064116
37.080693
37.100131
37.130452
37.169952
37.220531
37.285227
37.364568
37.463308
37.586046
37.738546
37.92757
38.162544
38.455912
38.825255
39.295658
39.906003
40.718523
41.849957
43.545844
46.492519
1862.7397
621.46939
235.8562
162.28931
123.47428
113.41666
75.243706
65.083162
53.823588
51.599276
45.215661
42.554318
40.857891
40.18414
39.052505
38.557081
38.067639
37.776759
37.581821
37.408308
37.301285
37.244067
37.180988
37.152062
37.12814
37.118277
37.116849
37.12379
37.136253
37.156703
37.18105
37.215842
37.260007
37.315398
37.385554
37.471042
37.576619
37.706833
37.867635
38.06592
38.311315
38.616559
38.999568
39.485911
40.115116
40.950758
42.111726
43.848381
46.842159
1838.0625
667.41954
241.3406
163.55997
119.86215
111.0016
71.950912
63.332137
54.156463
52.40482
45.515678
42.429796
40.821259
40.030469
39.040648
38.49395
38.060092
37.797005
37.598358
37.433313
37.32817
37.285859
37.227359
37.209645
37.188027
37.181554
37.184171
37.191888
37.209359
37.233985
37.263027
37.302416
37.352041
37.412699
37.488539
37.580479
37.693361
37.831598
38.001254
38.209346
38.465851
38.783769
39.181368
39.684756
40.33417
41.194573
42.387213
44.167627
47.213153
1795.9089
628.61263
244.26793
164.0716
115.59488
111.14634
69.862245
61.496345
53.735983
52.631767
46.041244
42.347749
40.59195
39.738022
38.939762
38.532635
38.067299
37.801365
37.593715
37.45585
37.361044
37.31776
37.280966
37.258667
37.245326
37.243092
37.252386
37.262969
37.284132
37.312843
37.34639
37.390618
37.445674
37.51252
37.594278
37.693196
37.813736
37.960555
38.139607
38.358138
38.626498
38.957917
39.371084
39.892689
40.563739
41.450672
42.677304
44.504739
47.607119
1765.1214
641.25896
244.57127
164.17763
111.52207
111.5879
69.572167
60.65167
53.013959
52.494093
46.20301
42.264115
40.599434
39.709412
38.918581
38.498243
38.062413
37.788196
37.61347
37.491857
37.414912
37.372905
37.332505
37.311368
37.304439
37.307
37.321377
37.336079
37.360375
37.393037
37.431392
37.481175
37.541675
37.614969
37.703237
37.809446
37.937995
38.093929
38.282915
38.512638
38.793616
39.139424
39.569198
40.110276
40.804484
41.719875
42.982981
44.86097
48.025712
1725.6017
607.35347
233.86192
163.26727
107.6721
109.85889
69.56437
60.963516
53.283426
53.032425
46.226899
42.488835
40.655744
39.786492
38.901248
38.39379
38.045026
37.82193
37.652112
37.520772
37.44889
37.414663
37.383803
37.373147
37.366796
37.372529
37.388101
37.408678
37.437417
37.475292
37.518483
37.573847
37.640396
37.720283
37.815562
37.929401
38.066626
38.232068
38.43163
38.673266
38.967672
39.328786
39.776268
40.33817
41.057186
42.003067
43.305338
45.237712
48.471219
1689.1983
620.21168
225.22199
163.80905
105.79085
102.72281
68.023384
61.78711
54.700496
53.892141
46.026813
41.819579
40.324676
39.506672
38.728272
38.401533
38.045007
37.836689
37.660216
37.553597
37.483436
37.456523
37.434522
37.428384
37.426355
37.436121
37.454453
37.481976
37.516195
37.55994
37.60767
37.668676
37.741684
37.828525
37.931352
38.053459
38.199852
38.37533
38.58619
38.840484
39.149194
39.526541
39.992882
40.577066
41.322668
42.301271
43.645608
45.636504
48.945752
1654.8154
648.19811
221.37741
164.5481
105.56448
94.704638
63.438618
58.335657
55.10293
54.061394
45.421532
41.096162
39.940446
39.271979
38.673791
38.346309
38.0192
37.82273
37.667803
37.581188
37.530533
37.511048
37.485605
37.479316
37.484497
37.501057
37.527173
37.557531
37.596476
37.644049
37.698717
37.765945
37.845543
37.93967
1621.8114
664.7283
219.28455
163.96672
105.77739
91.128239
61.724824
55.594129
53.949872
53.41536
45.112742
41.136719
39.932208
39.264249
38.657681
38.305482
38.02862
37.842566
37.712206
37.614562
37.568955
1588.1271
657.15706
216.52207
165.15335
102.27626
89.879381
62.342617
56.064711
52.869973
53.826446
45.5105
1555.771
665.57316
1648.9403
1878.7783
2145.9648
2160.6576
1882.4714
1655.8493
1466.8642
1315.2398
1196.5145
1281.664
1204.2228
1168.1207
1109.0875
1019.7656
955.47353
505.82385
487.76051
493.9676
488.79385
465.40236
461.85624
236.81794
230.16245
232.55325
232.13371
228.37168
229.54872
151.72615
150.06384
151.51586
151.91758
151.2032
151.82641
114.90913
114.86888
116.08842
117.35631
117.1126
117.17407
91.708527
92.340703
94.1725
95.505036
95.359326
95.182281
75.748647
76.519545
78.104728
79.269541
79.293187
79.276941
65.039622
65.758047
67.07752
68.313437
68.658192
57.485001
58.356851
59.807687
61.233907
61.729552
52.473004
53.560434
55.09338
56.266539
56.476458
49.510571
50.779392
51.922804
52.188213
52.111013
46.405757
47.458187
47.904845
47.879415
47.638372
43.671385
43.90444
43.908851
43.794722
43.504899
40.890432
40.840747
40.747305
40.635948
39.210958
39.090505
38.988162
38.909802
38.142727
38.070995
37.994719
37.925841
37.407497
37.357344
37.305509
37.23501
36.875629
36.824143
36.763891
36.482788
36.417053
36.345814
36.178152
36.11299
36.041784
35.95447
35.887245
35.796305
35.725341
35.686488
35.612368
35.597335
35.528149
)
;

boundaryField
{
    Side
    {
        type            empty;
    }
    Inlet
    {
        type            fixedValue;
        value           uniform 60.24606;
    }
    Airfoil
    {
        type            omegaWallFunction;
        blending        binomial;
        n               2;
        value           nonuniform List<scalar> 
33
(
2456.3263
2430.3072
2427.7772
2421.6535
2422.4709
2428.3552
2402.1701
2382.6961
2342.9129
2329.1722
2295.8495
2295.1582
2253.8181
2233.6502
2206.4096
2176.712
2131.977
2103.0071
2064.6195
2025.1751
1982.4494
1940.4843
1907.1023
1862.7397
1838.0625
1795.9089
1765.1214
1725.6017
1689.1983
1654.8154
1621.8114
1588.1271
1555.771
)
;
    }
    Outlet
    {
        type            inletOutlet;
        inletValue      nonuniform List<scalar> 0();
        value           nonuniform List<scalar> 0();
    }
    procBoundary8to1
    {
        type            processor;
        value           nonuniform List<scalar> 8(2458.7648 1198.7345 1326.4051 1472.1978 1472.1978 1142.2848 1230.8143 1278.952);
    }
    procBoundary8to7
    {
        type            processor;
        value           nonuniform List<scalar> 
53
(
38.050724
38.181781
38.337887
38.524042
38.74694
39.014766
39.338666
39.73333
40.21975
40.827742
41.601835
42.615561
44.005095
46.059035
49.450621
37.548301
37.539083
37.538176
37.548296
37.569106
37.599485
37.633837
37.67752
37.7299
37.791897
37.865841
37.952427
38.050724
38.054277
41.129459
39.901979
39.230657
38.580317
38.292391
38.017494
37.862652
37.732919
37.658436
37.548301
37.615159
216.538
168.96464
96.436127
86.032209
63.059557
56.643293
52.878859
56.388147
41.129459
48.045213
1522.8471
216.538
614.95955
)
;
    }
    procBoundary8to9
    {
        type            processor;
        value           nonuniform List<scalar> 
75
(
35.514151
35.47534
35.514151
35.479938
35.536718
35.536718
35.596314
35.596314
35.661532
35.661532
35.653768
35.732047
35.732047
35.821068
35.821068
35.924161
35.924161
36.044386
36.128738
36.128738
36.274135
36.274135
36.449433
36.449433
36.662463
36.662463
36.92337
36.92337
37.246854
37.246854
37.651842
37.651842
38.165231
38.165231
38.828628
38.828628
39.70725
39.70725
40.923204
40.923204
42.727749
42.727749
45.557528
1093.6706
908.84112
462.75928
233.09281
153.19295
116.91748
94.452296
78.791924
68.696193
68.696193
61.712557
56.335619
51.66447
47.015976
43.024103
40.496022
40.496022
38.839843
37.854179
37.149627
36.691141
36.691141
36.266264
35.958646
35.815742
35.815742
35.651689
35.535847
35.52199
35.52199
35.451636
35.47534
)
;
    }
}


// ************************************************************************* //
