/*--------------------------------*- C++ -*----------------------------------*\
| =========                 |                                                 |
| \\      /  F ield         | OpenFOAM: The Open Source CFD Toolbox           |
|  \\    /   O peration     | Version:  2506                                  |
|   \\  /    A nd           | Website:  www.openfoam.com                      |
|    \\/     M anipulation  |                                                 |
\*---------------------------------------------------------------------------*/
FoamFile
{
    version     2.0;
    format      ascii;
    arch        "LSB;label=32;scalar=64";
    class       volVectorField;
    location    "0.0145";
    object      wallShearStress;
}
// * * * * * * * * * * * * * * * * * * * * * * * * * * * * * * * * * * * * * //

dimensions      [1 -1 -2 0 0 0 0];

internalField   uniform (0 0 0);

boundaryField
{
    Side
    {
        type            empty;
    }
    Inlet
    {
        type            calculated;
        value           uniform (0 0 0);
    }
    Airfoil
    {
        type            calculated;
        value           nonuniform List<vector> 
107
(
(-3.9183497 0.47557068 -2.0093516e-16)
(-3.883023 0.47164446 -2.0021298e-16)
(-3.8310994 0.46582636 1.9011824e-22)
(-4.0299429 0.48764034 -3.9724333e-16)
(-4.2709546 0.51524348 1.9784289e-16)
(-4.4424546 0.53462615 -1.8792884e-22)
(-4.3643702 0.52439199 1.8704111e-22)
(-6.3554831 -0.47711175 -1.9417924e-16)
(-6.2852167 -0.47597409 9.2579955e-23)
(-6.2547476 -0.47766817 9.2583247e-23)
(-6.2474045 -0.48067942 9.7069879e-17)
(-6.2193231 -0.48190536 0)
(-6.1442697 -0.47947633 -1.1375024e-33)
(-6.0545842 -0.47592985 -1.940458e-16)
(-6.0082524 -0.47561443 7.5231638e-37)
(-6.0099915 -0.47937592 0)
(-6.0229453 -0.48405442 1.9403047e-16)
(-6.0038371 -0.48601421 1.9399856e-16)
(-5.9378751 -0.48415691 1.9396138e-16)
(-5.8578448 -0.48113944 -1.5046328e-36)
(-5.8313972 -0.48249885 9.2474772e-23)
(-5.8796703 -0.48986617 1.9393381e-16)
(-5.9719544 -0.50070968 -1.9393645e-16)
(-6.0366722 -0.50894442 1.9391147e-16)
(-5.9634453 -0.50525509 9.240719e-23)
(-5.7825864 -0.49291549 -1.9375072e-16)
(-5.572855 -0.47834598 1.9370851e-16)
(-5.4864338 -0.47495972 7.5231638e-37)
(-5.7107134 -0.49820965 -2.5931496e-24)
(-6.132858 -0.53851372 4.6266631e-23)
(-6.5178821 -0.57465211 -1.9405963e-16)
(-6.6049484 -0.58457647 4.6206249e-23)
(-6.082128 -0.5405854 -3.8729083e-16)
(-5.348083 -0.47876318 1.9343473e-16)
(-4.7372372 -0.42776658 -3.8681228e-16)
(-4.6456984 -0.42403521 4.6143468e-23)
(-5.3407567 -0.49033145 -1.5046328e-36)
(-6.2649684 -0.57629087 1.9438387e-16)
(-6.7981943 -0.62700636 -3.8901659e-16)
(-7.0344814 -0.6506676 -1.9446739e-16)
(-6.475717 -0.60147916 -1.9416033e-16)
(-5.4904253 -0.51245338 -1.9391941e-16)
(-4.5569967 -0.4286901 9.3123457e-25)
(-4.1098283 -0.3920439 -3.763892e-23)
(-4.7560977 -0.45669858 -8.3723775e-24)
(-5.8712016 -0.56521582 1.8153394e-33)
(-6.6558583 -0.64147163 1.9547123e-16)
(-7.0349305 -0.6797264 1.9556238e-16)
(-6.9952233 -0.67728688 1.9552634e-16)
(-6.2079448 -0.60156581 -1.9519433e-16)
(-4.9894347 -0.48684795 7.7346224e-26)
(-3.975823 -0.39199653 4.1615185e-23)
(-3.9547111 -0.39525514 1.0385222e-23)
(-5.0418856 -0.50569243 -1.9620303e-16)
(-6.1861239 -0.6209098 1.9669596e-16)
(-6.693956 -0.67334352 1.9696727e-16)
(-6.8792865 -0.69374627 1.9714442e-16)
(-6.6447657 -0.67196395 -2.3518088e-23)
(-5.9550385 -0.6038737 1.5046328e-36)
(-5.0478652 -0.51476247 1.9708073e-16)
(-4.3343468 -0.44563843 -2.3523267e-23)
(-4.3162848 -0.44760548 1.9772924e-16)
(-5.0031156 -0.52110601 -7.45696e-33)
(-5.7288681 -0.59783971 -1.9876786e-16)
(-6.0649903 -0.63467004 -1.9911297e-16)
(-6.084987 -0.63886307 -1.9937257e-16)
(-5.8287687 -0.61439604 -1.9959564e-16)
(-5.5531464 -0.58796209 -1.9985463e-16)
(-5.3299316 -0.5669247 -1.1930942e-23)
(-5.2170732 -0.55763611 -2.0052968e-16)
(-5.2460582 -0.56301639 2.0093756e-16)
(-5.3699129 -0.57832358 -2.0136793e-16)
(-5.4715367 -0.5915755 -2.0178302e-16)
(-5.5076372 -0.5980143 2.0219917e-16)
(-5.4887398 -0.59846603 1.1976877e-33)
(-5.4465056 -0.59635299 -2.0303791e-16)
(-5.4032064 -0.59411362 1.5160541e-24)
(-5.3752693 -0.59349288 -2.0394979e-16)
(-5.3766211 -0.59600715 -3.0463055e-24)
(-5.4028154 -0.60111467 1.1210388e-44)
(-5.4365572 -0.60695204 5.9721659e-40)
(-5.4496041 -0.6104031 5.3034408e-25)
(-5.426452 -0.60998964 1.2161029e-40)
(-5.4018215 -0.60990206 -1.2343008e-23)
(-5.4005023 -0.61234775 1.2377253e-23)
(-5.4110448 -0.61600818 -1.2411974e-23)
(-5.4017882 -0.61731976 -2.0884589e-16)
(-5.3584213 -0.61466573 -1.155846e-23)
(-5.2864226 -0.6087061 -8.9683102e-44)
(-5.2201862 -0.60350559 -3.0092655e-36)
(-5.2310816 -0.60713767 2.1143912e-16)
(-5.3732837 -0.62585643 -2.529133e-23)
(-5.5670885 -0.65049325 2.5390889e-23)
(-5.7741593 -0.6766693 -2.436222e-27)
(-5.8456028 -0.68725247 -1.2715523e-26)
(-5.6074793 -0.66158139 -2.5650304e-23)
(-5.2350228 -0.62003087 -2.5719784e-23)
(-4.8213754 -0.57331893 2.5817359e-23)
(-4.629787 -0.55375225 5.5740867e-23)
(-4.803127 -0.57638792 -2.18408e-16)
(-5.1524746 -0.62005864 -5.2320248e-23)
(-5.4422617 -0.65658509 2.2040363e-16)
(-5.6536235 -0.68311352 -5.2553332e-23)
(-5.7222563 -0.69388213 5.3008129e-23)
(-5.5977663 -0.68128596 2.2323766e-16)
(-5.4248057 -0.66235282 -5.3443014e-23)
(-5.2767498 -0.64712059 5.3701282e-23)
)
;
    }
    Outlet
    {
        type            calculated;
        value           nonuniform List<vector> 0();
    }
    procBoundary4to3
    {
        type            processor;
        value           uniform (0 0 0);
    }
    procBoundary4to5
    {
        type            processor;
        value           uniform (0 0 0);
    }
    procBoundary4to11
    {
        type            processor;
        value           uniform (0 0 0);
    }
    procBoundary4to12
    {
        type            processor;
        value           uniform (0 0 0);
    }
}


// ************************************************************************* //
