/*--------------------------------*- C++ -*----------------------------------*\
| =========                 |                                                 |
| \\      /  F ield         | OpenFOAM: The Open Source CFD Toolbox           |
|  \\    /   O peration     | Version:  2506                                  |
|   \\  /    A nd           | Website:  www.openfoam.com                      |
|    \\/     M anipulation  |                                                 |
\*---------------------------------------------------------------------------*/
FoamFile
{
    version     2.0;
    format      ascii;
    arch        "LSB;label=32;scalar=64";
    class       volScalarField;
    location    "1.05";
    object      omega;
}
// * * * * * * * * * * * * * * * * * * * * * * * * * * * * * * * * * * * * * //

dimensions      [0 0 -1 0 0 0 0];

internalField   nonuniform List<scalar> 
1375
(
143.19933
151.57115
160.6464
170.37208
180.77952
191.74791
203.09232
214.77251
227.08851
141.16973
149.25644
158.23971
167.84842
178.26193
189.29247
200.68042
212.39226
224.81425
238.50454
133.49133
140.03547
147.85593
155.88881
164.59871
173.74383
183.0233
192.36469
202.07682
212.61316
118.91875
122.81963
128.40254
133.57661
139.13723
144.84881
150.43091
155.74209
160.92849
166.26956
100.72817
102.14647
105.63476
108.27292
111.1555
114.08977
116.84499
119.25413
121.39255
123.48271
83.772696
83.669262
86.083517
87.401703
88.971811
90.614641
92.097199
93.253616
94.171095
95.068016
70.410111
70.08642
71.749084
72.572351
73.647872
74.815373
75.802504
76.45617
76.895369
77.334357
60.626501
60.347114
61.61766
62.248056
63.125678
64.092785
64.842139
65.245226
65.450772
65.649995
53.413138
53.209765
54.257845
54.799369
55.579469
56.424865
57.016527
57.266229
57.345799
57.406892
47.921035
47.776582
48.687768
49.195857
49.929649
50.67794
51.139441
51.28275
51.294901
51.28127
43.61094
43.509355
44.342278
44.863885
45.591887
46.257495
46.607783
46.683813
46.633916
46.574388
40.172214
40.106881
40.906768
41.482313
42.234586
42.83012
43.091198
43.125951
43.001308
42.909421
43.0065
37.428407
37.398979
38.193206
38.844443
39.63232
40.171818
40.364977
40.369209
40.179276
40.062353
40.104583
35.270487
35.28073
36.066596
36.783332
37.591435
38.085453
38.234995
38.219353
37.998446
37.869689
37.877262
33.606455
33.700799
34.40751
35.148401
35.931703
36.384468
36.513558
36.497385
36.307171
36.197532
36.19688
32.357724
32.518582
33.124939
33.816235
34.517564
34.929695
35.061778
35.067825
34.974822
34.922628
34.941294
31.437579
31.641559
32.145048
32.721273
33.2981
33.674485
33.842965
33.895219
33.909261
33.929696
34.037361
30.769461
31.000871
31.413871
31.861443
32.305851
32.638957
32.849944
32.985747
33.098628
33.22906
33.403622
30.287302
30.536113
30.886218
31.241206
31.591702
31.890456
32.130836
32.333155
32.523447
32.719128
32.925799
29.939822
30.200817
30.516359
30.822982
31.123927
31.401841
31.655492
31.892675
32.121998
32.34679
32.566605
29.691479
29.96161
30.260791
30.547401
30.827524
31.095383
31.352094
31.600513
31.842212
32.075945
32.300109
29.517244
29.793926
30.085191
30.364199
30.636382
30.899783
31.155542
31.404554
31.646751
31.880976
32.106313
29.397949
29.678868
29.96563
30.2413
30.509887
30.770574
31.023967
31.270371
31.509886
31.742589
31.968457
29.318587
29.601838
29.885518
30.159118
30.425234
30.683438
30.934116
31.177654
31.414495
31.645165
31.869755
29.267793
29.551869
29.832876
30.104554
30.368463
30.624392
30.872691
31.113808
31.348184
31.576163
31.797702
29.237395
29.520977
29.799219
30.068811
30.330588
30.584434
30.830625
31.069613
31.301768
31.527248
31.745938
31.957646
29.220935
29.503284
29.7789
30.046491
30.30626
30.55812
30.80229
31.039229
31.269287
31.492553
31.708994
31.918499
29.215098
29.495537
29.768563
30.033972
30.291681
30.54166
30.784052
31.01911
31.247125
31.468328
31.682833
31.890571
29.217531
29.495959
29.766296
30.029309
30.284731
30.532601
30.773026
31.006125
31.232168
31.451442
31.664082
31.870048
29.227827
29.503919
29.771234
30.031487
30.284324
30.529905
30.768268
30.999439
31.223584
31.440977
31.651807
31.856074
29.245415
29.518643
29.78283
30.0403
30.290464
30.533516
30.769465
30.99841
31.220497
31.435915
31.644789
31.847157
29.268491
29.539117
29.800409
30.055109
30.302528
30.542891
30.776286
31.002907
31.222921
31.436455
31.643506
31.844046
32.038063
29.298919
29.566848
29.825088
30.076939
30.321587
30.559243
30.790019
31.014158
31.231852
31.443222
31.648274
31.846956
32.039287
29.338048
29.602939
29.857824
30.106541
30.348221
30.583097
30.811237
31.032864
31.248211
31.457395
31.660381
31.857062
32.047536
29.386257
29.647954
29.899284
30.144641
30.383176
30.615215
30.84081
31.059982
31.272792
31.479357
31.679876
31.874442
32.063133
32.245953
29.44561
29.703858
29.951487
30.19341
30.428666
30.657637
30.880358
31.0968
31.30698
31.510995
31.709077
31.901437
32.088163
32.269216
29.518397
29.773086
30.016838
30.255118
30.486891
30.712606
30.93231
31.146027
31.353681
31.555255
31.750868
31.940743
32.125082
32.304047
29.606541
29.857554
30.097326
30.331851
30.560085
30.78252
30.999171
31.210016
31.414968
31.614029
31.807267
31.994843
32.176959
32.353818
32.525645
29.713853
29.961153
30.197059
30.427899
30.652401
30.871094
31.084155
31.291765
31.493951
31.690677
31.881913
32.067665
32.24799
32.423049
32.593013
29.845875
30.088946
30.320608
30.547654
30.768456
30.983421
31.192721
31.396678
31.595544
31.789446
31.978393
32.162248
32.340941
32.514484
32.68299
32.846668
30.008311
30.246961
30.474133
30.69719
30.914365
31.125946
31.331876
31.532366
31.727727
31.918261
32.104166
32.285492
32.462181
32.634153
32.801431
32.964054
33.122093
30.208619
30.442859
30.665336
30.88399
31.097077
31.30498
31.507606
31.705058
31.897527
32.085233
32.268365
32.447081
32.621467
32.791565
32.957353
33.118797
33.275956
30.45815
30.687782
30.905507
31.119697
31.328581
31.532645
31.731856
31.926304
32.116077
32.301287
32.482061
32.658521
32.83078
32.998951
33.163098
33.323258
33.479476
33.631812
30.770091
30.995272
31.208557
31.418674
31.623697
31.824128
32.019954
32.211301
32.398279
32.581008
32.759593
32.934128
33.104712
33.271438
33.434379
33.593593
33.749144
33.90109
34.049501
31.170498
31.390963
31.599694
31.805771
32.007153
32.204333
32.397258
32.586042
32.770785
32.951579
33.128506
33.301645
33.471073
33.636875
33.799131
33.957912
34.113284
34.26531
34.414046
34.559558
31.693088
31.909163
32.113741
32.316215
32.51448
32.709024
32.89975
33.086722
33.269973
33.449561
33.625542
33.797975
33.966928
34.13248
34.294714
34.453716
34.609574
34.76237
34.912181
35.059071
35.203094
35.344294
32.41178
32.623737
32.824623
33.023966
33.219648
33.412175
33.601434
33.78745
33.970213
34.149746
34.32608
34.499263
34.66934
34.836371
35.000413
35.161508
35.319699
35.475047
35.62762
35.777489
35.924731
36.069397
36.211516
33.483584
33.694429
33.892625
34.090407
34.284997
34.477053
34.666445
34.853214
35.037325
35.218698
35.397284
35.573104
35.746206
35.916663
36.084533
36.249838
36.412561
36.57271
36.730328
36.885487
37.038273
37.188738
37.3369
37.482794
37.626433
36.198941
36.447113
36.611702
36.794765
36.971417
37.145163
37.314475
37.481315
37.647404
37.814353
37.981712
38.148296
38.313252
38.476402
38.637889
38.797997
38.956443
39.11248
39.2656
39.415834
39.563575
39.709133
39.852589
39.994035
40.133508
40.271106
40.406908
135.40294
133.01733
125.02303
110.81355
93.863892
78.447883
66.372824
57.504806
50.940222
45.927575
41.993016
38.861936
36.373665
34.421426
32.914458
31.78423
30.950874
30.343041
29.902999
29.586592
29.362049
29.206035
29.100515
29.031519
28.988651
28.964559
28.953892
28.952168
28.958925
28.973354
28.994843
29.021592
29.055837
29.098831
29.150981
29.214499
29.291351
29.383715
29.495551
29.632321
29.79943
30.004184
30.25806
30.574217
30.978585
31.504455
32.224563
33.296348
36.038528
128.34988
125.61173
117.2345
103.27471
87.40949
73.368637
62.508793
54.513207
48.568694
44.018453
40.448424
37.614531
35.368603
33.609022
32.254994
31.240107
30.490078
29.940646
29.542081
29.256555
29.055714
28.917908
28.826227
28.767662
28.732778
28.715267
28.710033
28.712471
28.723726
28.742175
28.767316
28.797692
28.835617
28.882225
28.937995
29.005207
29.085614
29.181718
29.297581
29.43826
29.609067
29.817249
30.074254
30.393362
30.800132
31.327505
32.046553
33.115052
35.882257
121.80268
118.74742
110.07965
96.465405
81.651335
68.855958
59.056267
51.83021
46.436847
42.29911
39.052802
36.479747
34.444305
32.852674
31.6318
30.717568
30.042324
29.547881
29.189782
28.934526
28.75665
28.636289
28.557722
28.508953
28.481728
28.47075
28.469569
28.47653
28.491979
28.514152
28.542655
28.576577
28.618052
28.668119
28.727384
28.798077
28.881934
28.981736
29.101479
29.245798
29.420087
29.631553
29.89152
30.213456
30.622426
31.151111
31.868672
32.933367
35.726074
115.76638
112.45
103.62029
90.452111
76.639357
64.944906
56.051462
49.485543
44.568747
40.788382
37.820813
35.470291
33.613756
32.165189
31.056471
30.226729
29.615707
29.170383
28.849644
28.622717
28.466288
28.362053
28.295473
28.255743
28.235881
28.230264
28.232883
28.244215
28.26346
28.289042
28.320686
28.358051
28.402929
28.45629
28.518916
28.592931
28.680191
28.783583
28.906967
29.054673
29.232242
29.446851
29.709666
30.034303
30.445261
30.975054
31.690786
32.751339
35.569954
110.2809
106.75482
97.867417
85.192438
72.299294
61.56226
53.441757
47.439886
42.932887
39.460279
36.731812
34.571212
32.867001
31.539937
30.525817
29.767752
29.211921
28.809769
28.522661
28.321594
28.184732
28.095044
28.039237
28.007908
27.995014
27.993309
28.000034
28.015338
28.037992
28.066701
28.101346
28.142039
28.190162
28.246649
28.312498
28.389719
28.48032
28.58715
28.713912
28.864813
29.045512
29.263109
29.528666
29.85586
30.26859
30.799246
31.512796
32.568939
35.414547
105.32314
101.62021
92.736108
80.556387
68.495312
58.595037
51.142117
45.627864
41.476221
38.270531
35.749049
33.75263
32.180149
30.95846
30.02723
29.333284
28.827253
28.464236
28.207786
28.030326
27.911196
27.834566
27.788559
27.765187
27.758055
27.759854
27.77072
27.789628
27.815407
27.847055
27.884629
27.9285
27.979696
28.039148
28.108083
28.188419
28.282256
28.392342
28.52227
28.676219
28.859902
29.080344
29.348526
29.678108
30.092379
30.623597
31.334606
32.386228
35.260915
100.80919
96.957137
88.114322
76.415117
65.107946
55.946322
49.076838
43.988614
40.148018
37.176422
34.837017
32.985802
31.530849
30.404529
29.550021
28.916775
28.458043
28.131783
27.903723
27.747822
27.644682
27.579821
27.542932
27.527026
27.524166
27.529884
27.544644
27.566886
27.595602
27.630076
27.670511
27.717388
27.771485
27.833758
27.905643
27.988992
28.085922
28.199094
28.332037
28.488905
28.67542
28.898565
29.169217
29.501005
29.916585
30.447994
31.156128
32.203269
35.109954
96.656464
92.687375
83.915633
72.67807
62.05566
53.549389
47.192756
42.478964
38.91287
36.149363
33.973597
32.254756
30.908715
29.872314
29.09133
28.51674
28.103406
27.811734
27.609799
27.473394
27.384609
27.330477
27.302214
27.292818
27.293221
27.303223
27.321597
27.346981
27.378524
27.415744
27.458953
27.508647
27.565481
27.630464
27.70517
27.791408
27.891264
28.007379
28.143201
28.302861
28.492049
28.717747
28.990672
29.324478
29.741131
30.272338
30.977307
32.020096
34.961961
92.823537
88.783087
80.115285
69.31841
59.312827
51.383644
45.475132
41.088812
37.764314
35.186126
33.158527
31.561765
30.317733
29.366312
28.654879
28.135439
27.764317
27.504274
27.325827
27.206763
27.130808
27.086583
27.066337
27.061701
27.065774
27.079791
27.10152
27.129884
27.164156
27.204035
27.249898
27.302226
27.361648
27.429253
27.506673
27.59566
27.698278
27.817186
27.955754
28.118071
28.309755
28.537834
28.812829
29.148434
29.565922
30.096542
30.798123
31.836669
34.816454
89.28774
85.229826
76.703297
66.327301
56.873637
49.448762
43.929147
39.827281
36.713833
34.299223
32.404266
30.918283
29.7675
28.893611
28.24505
27.77495
27.441345
27.209264
27.051484
26.947681
26.883205
26.848148
26.83508
26.833756
26.841921
26.859579
26.88443
26.915608
26.952498
26.99493
27.043298
27.098088
27.159991
27.230141
27.310137
27.401728
27.506965
27.628513
27.769666
27.934482
28.128498
28.358783
28.63564
28.972727
29.39081
29.920543
30.618578
31.652916
34.672192
86.003247
81.962343
73.605467
63.637597
54.687635
47.711646
42.535509
38.684963
35.758613
33.489746
31.713598
30.327125
29.259849
28.454764
27.861346
27.434185
27.13323
26.925588
26.785953
26.695673
26.64167
26.615137
26.60755
26.609383
26.621638
26.642614
26.670354
26.704173
26.743545
26.788397
26.839126
26.896238
26.960507
27.033087
27.115536
27.209604
27.317319
27.441334
27.584904
27.752069
27.948255
28.180556
28.459025
28.797301
29.215742
29.744315
30.438709
31.468783
34.527451
82.900893
78.871655
70.693031
61.129734
52.658952
46.099927
41.24005
37.621234
34.868584
32.735583
31.070099
29.775752
28.784984
28.042153
27.498077
27.109106
26.837201
26.651386
26.528036
26.450051
26.405801
26.38693
26.383294
26.388783
26.404834
26.428856
26.459289
26.495567
26.537261
26.584379
26.637319
26.696629
26.76316
26.838067
26.922848
27.019245
27.129295
27.255618
27.40144
27.570777
27.768965
28.003086
28.282944
28.622111
29.04069
29.567935
30.25858
31.284286
34.380597
36.588318
34.0056
32.006599
30.450275
29.246114
28.329392
27.646067
27.148629
26.795439
26.550558
26.38494
26.276633
26.210109
26.175044
26.162943
26.162129
26.171783
26.191325
26.218194
26.251148
26.289714
26.333574
26.382812
26.437834
26.499232
26.567908
26.645014
26.732001
26.830607
26.942856
27.071341
27.219222
27.390556
27.590597
27.826321
28.107373
28.447172
28.865671
29.39148
30.078276
31.099533
34.231045
25.975566
25.949148
25.94208
25.944387
25.958172
25.980934
26.010485
26.045812
26.086517
26.132401
26.183627
26.24062
26.304006
26.37471
26.45389
26.542961
26.643637
26.757942
26.888422
27.038227
27.21141
27.413122
27.650264
27.9323
28.272516
28.690769
29.215065
29.897883
30.914661
34.080458
25.885878
25.933661
25.98676
26.045625
26.110901
26.183521
26.26465
26.355679
26.458309
26.574537
26.706872
26.858459
27.033314
27.236517
27.474893
27.757751
28.098254
28.516158
29.038874
29.717512
30.729854
33.936812
26.170143
26.274604
26.392622
26.526679
26.679897
26.856245
27.060768
27.300238
27.58384
27.924593
28.342052
28.863049
29.537288
30.545258
33.798172
26.502494
26.680203
26.885943
27.126441
27.410742
27.751696
28.168604
28.687745
29.357368
30.360956
33.663273
26.953585
27.23853
27.57965
27.995926
28.513074
29.177874
30.17703
33.531412
27.824036
28.339031
28.998832
29.993523
33.402403
28.820138
29.810421
33.276278
33.152606
)
;

boundaryField
{
    Side
    {
        type            empty;
    }
    Inlet
    {
        type            fixedValue;
        value           uniform 60.24606;
    }
    Airfoil
    {
        type            omegaWallFunction;
        blending        binomial;
        n               2;
        value           nonuniform List<scalar> 0();
    }
    Outlet
    {
        type            inletOutlet;
        inletValue      nonuniform List<scalar> 0();
        value           nonuniform List<scalar> 0();
    }
    procBoundary3to2
    {
        type            processor;
        value           nonuniform List<scalar> 
65
(
253.71145
224.22835
172.00982
125.79829
96.225149
78.069592
66.150821
57.742449
51.508869
46.731947
46.731947
43.736243
40.643548
38.228363
36.430883
35.15214
34.262011
33.618095
33.139269
32.780455
32.514669
32.322578
32.186885
32.087502
32.012355
32.012355
32.162243
32.121153
32.091576
32.069291
32.053644
32.042979
32.042979
32.225781
32.22547
32.231986
32.231986
32.423055
32.444694
32.477792
32.477792
32.692574
32.758079
32.758079
33.005699
33.005699
33.275781
33.428931
33.428931
33.780356
33.780356
34.194458
34.194458
34.701912
34.701912
34.841169
35.48271
35.48271
36.351117
36.351117
36.488218
37.767836
37.767836
37.907032
40.541123
)
;
    }
    procBoundary3to4
    {
        type            processor;
        value           nonuniform List<scalar> 
57
(
75.861022
67.850156
58.693421
50.694579
44.538576
39.982676
39.982676
35.561017
33.14859
31.285526
29.840372
28.727668
27.885327
27.261097
26.809441
26.49093
26.271876
26.125323
26.031162
26.031162
25.746268
25.72759
25.724175
25.730218
25.747798
25.773528
25.805607
25.843167
25.843167
25.687703
25.737272
25.79215
25.852808
25.919886
25.99431
26.077262
26.077262
25.98632
26.092482
26.21215
26.347786
26.347786
26.326296
26.505271
26.712136
26.712136
26.781715
27.06727
27.408511
27.408511
27.652852
28.165545
28.165545
28.641602
29.627618
29.627618
33.03137
)
;
    }
    procBoundary3to10
    {
        type            processor;
        value           nonuniform List<scalar> 
23
(
143.23597
151.64734
160.80424
170.58437
180.96576
191.8657
203.18275
214.91073
240.49812
227.28982
240.49812
135.46182
128.4473
121.91219
115.85849
110.3523
105.39459
100.89851
96.760757
92.915917
89.332603
85.98302
82.830809
)
;
    }
    procBoundary3to11
    {
        type            processor;
        value           uniform 79.922483;
    }
}


// ************************************************************************* //
