/*--------------------------------*- C++ -*----------------------------------*\
| =========                 |                                                 |
| \\      /  F ield         | OpenFOAM: The Open Source CFD Toolbox           |
|  \\    /   O peration     | Version:  2506                                  |
|   \\  /    A nd           | Website:  www.openfoam.com                      |
|    \\/     M anipulation  |                                                 |
\*---------------------------------------------------------------------------*/
FoamFile
{
    version     2.0;
    format      ascii;
    arch        "LSB;label=32;scalar=64";
    class       volVectorField;
    location    "1.05";
    object      U;
}
// * * * * * * * * * * * * * * * * * * * * * * * * * * * * * * * * * * * * * //

dimensions      [0 1 -1 0 0 0 0];

internalField   nonuniform List<vector> 
1375
(
(91.051415 -0.012157651 0)
(90.928273 -0.010580871 0)
(90.783835 -0.0048889652 0)
(90.639536 0.0068654135 0)
(90.484647 0.013595868 0)
(90.325699 0.013958817 0)
(90.168242 0.012243455 1.0355896e-18)
(90.010251 0.0092298173 -1.087647e-18)
(89.842925 0.0068615325 0)
(91.427541 -0.0067345661 0)
(91.364211 -0.0041831134 0)
(91.268282 0.0016775839 0)
(91.186283 0.013927027 0)
(91.098955 0.02158054 0)
(91.010181 0.022121435 0)
(90.921772 0.020443867 0)
(90.831531 0.017715375 0)
(90.73782 0.016079854 0)
(90.641566 0.022185476 0)
(92.068498 -0.0024798984 0)
(92.08512 -0.00080247017 0)
(92.052247 0.0052930581 7.3039232e-19)
(92.042999 0.016866836 -7.6795956e-19)
(92.03574 0.024326124 0)
(92.03034 0.025295363 -8.4783161e-19)
(92.025628 0.024116242 -6.4992043e-24)
(92.019172 0.021860061 1.8611851e-18)
(92.013586 0.021305636 -9.7277892e-19)
(92.013283 0.025503817 0)
(92.767306 -0.0011221818 -3.070563e-19)
(92.828553 -0.0025774804 3.2299886e-19)
(92.844221 0.0046050599 6.7965593e-19)
(92.884257 0.014858963 -1.4253086e-18)
(92.924471 0.023131579 1.4963851e-18)
(92.967222 0.023436764 -7.8524586e-19)
(93.007905 0.021882815 0)
(93.043097 0.019183369 0)
(93.07597 0.017263001 0)
(93.114024 0.022294985 0)
(93.346348 -0.0012041752 -5.6955909e-19)
(93.420229 -0.0053209581 -2.9937517e-19)
(93.449177 0.0015143169 6.2954995e-19)
(93.495034 0.010767148 6.6047136e-19)
(93.541169 0.018661137 -1.3865768e-18)
(93.588031 0.019060752 7.275147e-19)
(93.630958 0.017941362 0)
(93.665459 0.015446232 1.6036897e-18)
(93.693188 0.013894757 -1.6841514e-18)
(93.719866 0.017829885 0)
(93.741779 -0.002669354 -5.2806809e-19)
(93.800457 -0.0088676606 -5.4673594e-24)
(93.822767 -0.0013119314 5.8345175e-19)
(93.854786 0.0072815413 0)
(93.886936 0.015139447 -1.2850524e-18)
(93.919544 0.015387809 -1.033264e-23)
(93.949458 0.014540327 1.4141289e-18)
(93.971609 0.012600643 0)
(93.985641 0.011830909 0)
(93.994947 0.016058858 1.6272725e-18)
(93.977444 -0.0040173267 0)
(94.01411 -0.011253441 0)
(94.025688 -0.0031968254 0)
(94.042352 0.0048330369 0)
(94.059362 0.012986825 -1.1913946e-18)
(94.07723 0.012951337 1.2496507e-18)
(94.094641 0.012362578 -1.309797e-18)
(94.106904 0.010995519 1.3722717e-18)
(94.112642 0.011193568 0)
(94.114217 0.014498455 -1.5122976e-18)
(94.105688 -0.0051796533 0)
(94.123917 -0.012642984 0)
(94.126988 -0.0039268156 0)
(94.132571 0.0033026608 0)
(94.138684 0.011661989 -1.1054147e-18)
(94.145906 0.011994968 1.1593847e-18)
(94.154847 0.010994679 0)
(94.161734 0.0098514696 1.2693029e-18)
(94.164393 0.0099168209 -1.3393175e-18)
(94.162184 0.016415641 -2.8265967e-18)
(94.169465 -0.0060315557 8.4296177e-19)
(94.175909 -0.012613708 4.4080165e-19)
(94.172567 -0.0042913726 -9.2672109e-19)
(94.171388 0.0033943627 0)
(94.171028 0.011013696 1.0239101e-18)
(94.171253 0.011086598 -1.0793612e-18)
(94.174997 0.010055076 2.2539496e-18)
(94.179266 0.0091457912 1.9271749e-23)
(94.180951 0.0099659211 -2.4822498e-18)
(94.175897 0.017526602 0)
(94.196464 -0.0065435341 3.8911592e-19)
(94.1967 -0.012068835 -8.1846826e-19)
(94.188486 -0.0039265971 -6.0303544e-24)
(94.184014 0.0030904283 9.0489118e-19)
(94.179751 0.01172917 0)
(94.176805 0.011333368 0)
(94.176712 0.0096921737 0)
(94.17933 0.0084120638 0)
(94.180239 0.0097572638 2.3012172e-18)
(94.172892 0.019584408 -2.428009e-18)
(94.204809 -0.0058121715 3.6251808e-19)
(94.19867 -0.012528376 7.6278555e-19)
(94.189592 -0.0029116967 -8.0011048e-19)
(94.184034 0.0036870844 0)
(94.178272 0.012204775 -1.7606609e-18)
(94.172647 0.011726886 1.8402973e-18)
(94.170797 0.0094633402 0)
(94.171383 0.0080584729 0)
(94.170772 0.010058064 0)
(94.161386 0.021391915 0)
(94.203089 -0.006117486 0)
(94.192778 -0.010351032 0)
(94.183837 -0.0019614787 0)
(94.178374 0.0043440631 0)
(94.172943 0.013008238 1.636646e-18)
(94.166179 0.012724385 -3.4281401e-18)
(94.162087 0.009788637 1.8034993e-18)
(94.160349 0.0074529678 -1.8993204e-18)
(94.156123 0.010683611 3.98404e-18)
(94.14614 0.023329059 4.318213e-23)
(94.12908 0.034654936 -2.1882543e-18)
(94.196469 -0.0053294461 0)
(94.184402 -0.0089130178 -6.5670382e-19)
(94.175783 -0.0010350464 6.8931805e-19)
(94.170852 0.0050900699 1.449344e-18)
(94.166741 0.013731535 -1.5214627e-18)
(94.160202 0.014002824 1.594817e-18)
(94.153957 0.010414732 -1.6751578e-18)
(94.148584 0.0078474956 -3.5184337e-18)
(94.140267 0.011764939 3.6899675e-18)
(94.130075 0.025043984 0)
(94.117743 0.037537482 0)
(94.189034 -0.0043431744 0)
(94.176537 -0.0072575621 -1.2195846e-18)
(94.168114 4.6274521e-05 1.2794655e-18)
(94.163789 0.0057089344 0)
(94.1612 0.01428633 0)
(94.155943 0.015535999 0)
(94.148136 0.011781365 0)
(94.138384 0.0089655347 0)
(94.125946 0.013251183 0)
(94.116 0.026296662 0)
(94.108492 0.039689939 -3.7773419e-18)
(94.183021 -0.0029879808 -5.4098036e-19)
(94.170966 -0.005265315 0)
(94.162732 0.0010534863 0)
(94.158862 0.0064475835 0)
(94.157386 0.0144464 0)
(94.153864 0.017180686 0)
(94.145632 0.013862588 0)
(94.131811 0.011143721 0)
(94.115548 0.015132003 0)
(94.105826 0.027123244 0)
(94.10215 0.040511723 0)
(94.179776 -0.0010719314 -5.0264452e-19)
(94.168931 -0.0033792142 -1.0528486e-18)
(94.160997 0.0021947535 1.1029984e-18)
(94.15736 0.0072107578 -2.3203899e-18)
(94.156346 0.014381647 -2.5886157e-23)
(94.154114 0.018606116 -1.7078221e-23)
(94.146711 0.01664894 2.6871285e-18)
(94.1305 0.014473974 0)
(94.111097 0.017361124 0)
(94.10086 0.028272843 -3.0886617e-18)
(94.099041 0.039784143 -8.7070103e-23)
(94.180284 0.00044054665 -4.6736193e-19)
(94.170974 -0.0012922105 -9.7883266e-19)
(94.163565 0.0033262866 3.076068e-18)
(94.159988 0.0080746257 -2.1556199e-18)
(94.15888 0.014344073 0)
(94.157075 0.019656177 -2.3846652e-18)
(94.151121 0.019673782 2.4979386e-18)
(94.135086 0.018753223 0)
(94.113841 0.020088115 0)
(94.102199 0.02990799 5.7103498e-18)
(94.100329 0.03896457 -6.0386014e-18)
(94.184374 0.0029576854 0)
(94.177038 0.00041457859 0)
(94.170191 0.0045947526 0)
(94.166568 0.0090717006 0)
(94.164958 0.014511125 0)
(94.162876 0.020654744 0)
(94.158247 0.022428605 0)
(94.144774 0.023142194 0)
(94.123201 0.023114161 5.0744631e-18)
(94.109696 0.031109465 -5.3038932e-18)
(94.106354 0.038432845 0)
(94.191414 0.0042698209 -3.3504612e-25)
(94.185969 0.0024660545 8.4723282e-19)
(94.179562 0.0057798093 -1.7754088e-18)
(94.175717 0.010296404 1.8641633e-18)
(94.173262 0.014660442 -3.9155532e-18)
(94.1705 0.021419107 6.1698979e-18)
(94.166963 0.024753121 -4.3195058e-18)
(94.157949 0.02758403 -4.5196341e-18)
(94.137428 0.028083898 4.7204281e-18)
(94.121497 0.033806987 0)
(94.116068 0.038653993 5.2042971e-18)
(94.199763 0.0062588051 0)
(94.195723 0.0043517297 1.5774734e-18)
(94.189458 0.0071609176 -1.6524844e-18)
(94.185147 0.012154125 3.4684317e-18)
(94.181779 0.015531523 -3.6370878e-18)
(94.178358 0.022673793 0)
(94.175764 0.0257648 0)
(94.172071 0.031655584 0)
(94.155052 0.031900415 0)
(94.136515 0.037126052 0)
(94.128342 0.039062833 4.8303879e-18)
(94.207698 0.0079225279 0)
(94.204195 0.0059798263 0)
(94.198025 0.0088393944 0)
(94.19324 0.013847177 0)
(94.189268 0.016192967 3.3813131e-18)
(94.18533 0.023775768 -3.53602e-18)
(94.183216 0.027189671 3.7259931e-18)
(94.182706 0.032325958 -7.8497431e-18)
(94.173398 0.038420589 4.0939324e-18)
(94.153208 0.042189362 0)
(94.141163 0.040928441 -8.9819254e-18)
(94.213784 0.010222486 -1.3072184e-18)
(94.210376 0.0080208654 0)
(94.204595 0.010776638 0)
(94.199538 0.016365852 0)
(94.195458 0.01827348 0)
(94.191213 0.024989718 3.2860555e-18)
(94.188824 0.02819509 -3.4623277e-18)
(94.188746 0.033401159 0)
(94.186162 0.039318333 7.6338814e-18)
(94.167247 0.048337757 -7.9647759e-18)
(94.152704 0.04540055 0)
(94.217162 0.011134217 0)
(94.214722 0.010520065 0)
(94.209641 0.012389436 0)
(94.204894 0.018207758 -2.7981329e-18)
(94.201455 0.020113489 5.8688814e-18)
(94.196761 0.025808807 -3.0657752e-18)
(94.192583 0.029221792 -6.4289605e-18)
(94.191644 0.033793495 6.7842184e-18)
(94.190585 0.041333595 0)
(94.176098 0.055176648 -7.4159671e-18)
(94.161417 0.052800362 7.7700403e-18)
(94.217784 0.011034616 0)
(94.217534 0.014656449 -2.3798931e-18)
(94.212945 0.013754352 2.4834341e-18)
(94.208336 0.020763782 0)
(94.206351 0.024251657 -5.4762718e-18)
(94.203057 0.027799063 5.7236045e-18)
(94.196903 0.030516693 -5.9825822e-18)
(94.194473 0.033787262 4.3801087e-24)
(94.193108 0.043474257 1.4645247e-24)
(94.181892 0.058091116 -4.9669828e-23)
(94.167413 0.056728249 7.2237072e-18)
(94.218301 0.012988041 1.0521047e-18)
(94.219263 0.014774846 0)
(94.215888 0.017105154 0)
(94.210972 0.02169744 -4.8363242e-18)
(94.210098 0.024810047 6.1864566e-24)
(94.209819 0.029922615 1.0703161e-17)
(94.202022 0.03359276 3.7917517e-23)
(94.196966 0.038008016 -2.9937254e-25)
(94.194502 0.042196715 -6.1602834e-18)
(94.187282 0.063440366 0)
(94.174442 0.066125399 0)
(94.220038 0.014419313 0)
(94.220926 0.016867301 0)
(94.219325 0.018749896 -4.3246447e-18)
(94.213811 0.026166422 4.5038138e-18)
(94.2123 0.029320782 0)
(94.21265 0.031092648 4.9517479e-18)
(94.205289 0.03570703 -5.1996819e-18)
(94.198493 0.041754575 0)
(94.195791 0.044285983 0)
(94.192891 0.061712058 0)
(94.183364 0.065240477 0)
(94.176577 0.061188017 1.3146391e-17)
(94.222092 0.015517968 0)
(94.222728 0.019439233 -3.8502023e-18)
(94.222196 0.020638526 4.0448948e-18)
(94.217087 0.026240142 4.2083897e-18)
(94.214111 0.030762082 -8.8578096e-18)
(94.214052 0.034092377 4.6627658e-18)
(94.209382 0.040133587 0)
(94.202008 0.044680365 0)
(94.199535 0.047444173 -1.0551692e-17)
(94.199654 0.056344374 1.1099853e-17)
(94.19134 0.0797995 0)
(94.183606 0.065679873 -1.2239556e-17)
(94.224632 0.016439053 -1.7143493e-18)
(94.22428 0.020325161 1.8061014e-18)
(94.223525 0.023527795 0)
(94.220287 0.033636842 -3.9357088e-18)
(94.215925 0.03534379 4.1011064e-18)
(94.215866 0.037723534 8.5841644e-18)
(94.216661 0.041762272 -9.0099028e-18)
(94.208671 0.048801369 9.4305944e-18)
(94.205169 0.049914414 -9.8395299e-18)
(94.205289 0.05576363 1.0367188e-17)
(94.198923 0.068636503 -1.087074e-17)
(94.186648 0.074316032 -1.1321703e-17)
(94.2265 0.018839761 0)
(94.224701 0.024173299 0)
(94.223985 0.026406623 0)
(94.223765 0.03126306 0)
(94.220632 0.03790719 0)
(94.220349 0.040543404 0)
(94.222837 0.042714413 0)
(94.217231 0.052069426 0)
(94.209279 0.051035259 0)
(94.206532 0.05731223 0)
(94.204264 0.076391856 -1.01812e-17)
(94.196673 0.082511958 2.1166697e-17)
(94.227912 0.019320646 -3.009625e-18)
(94.226772 0.028052505 3.1340512e-18)
(94.226146 0.029663604 -6.5418464e-18)
(94.226671 0.036189906 6.8900714e-18)
(94.225811 0.040167694 7.2145552e-18)
(94.222229 0.044490191 -7.4961117e-18)
(94.222045 0.045313017 0)
(94.222374 0.057824893 8.2266841e-18)
(94.216796 0.058554086 -8.6199169e-18)
(94.213522 0.058211495 0)
(94.212854 0.066185003 1.907882e-17)
(94.208856 0.076806777 -1.9833254e-17)
(94.229384 0.022100399 0)
(94.227771 0.028637647 0)
(94.227277 0.030822868 6.1399386e-18)
(94.229364 0.038669155 -6.4232514e-18)
(94.230278 0.04034311 0)
(94.227564 0.051620399 0)
(94.224686 0.049691519 0)
(94.225273 0.053861474 0)
(94.224633 0.057457458 0)
(94.219785 0.065416086 0)
(94.215759 0.067805912 0)
(94.212877 0.080537221 0)
(94.231291 0.027920354 2.6401038e-18)
(94.23061 0.033257675 0)
(94.23023 0.034192907 0)
(94.232046 0.040265598 0)
(94.233693 0.044893619 0)
(94.233684 0.048524437 1.3169329e-17)
(94.229328 0.055618622 -2.7621059e-17)
(94.22651 0.062542095 1.4454178e-17)
(94.225226 0.060133191 1.5152991e-17)
(94.223854 0.063920235 -1.5839165e-17)
(94.221813 0.070486833 0)
(94.219785 0.07786953 0)
(94.217167 0.086285262 0)
(94.235526 0.031033059 4.9407162e-18)
(94.235647 0.033424287 -4.1902289e-23)
(94.234946 0.037061469 -5.4100734e-18)
(94.235887 0.042548675 0)
(94.237022 0.044751997 1.1852297e-17)
(94.236709 0.057819282 -1.2469174e-17)
(94.235316 0.057463449 1.300107e-17)
(94.232189 0.063418661 3.0766923e-23)
(94.228678 0.065798753 1.4080637e-22)
(94.227162 0.065131738 -1.481275e-17)
(94.226233 0.06989529 1.5477625e-17)
(94.224305 0.076864971 -1.6040282e-17)
(94.223166 0.089993686 0)
(94.238462 0.035741609 4.6534619e-18)
(94.238659 0.039762439 -4.8890571e-18)
(94.238835 0.041740266 0)
(94.239408 0.043466227 -1.0614729e-17)
(94.239885 0.046098841 1.1110719e-17)
(94.239231 0.057613892 0)
(94.23796 0.061813149 0)
(94.235275 0.068156321 1.2705487e-17)
(94.231782 0.068547295 -1.3221757e-17)
(94.229622 0.067854251 1.3747523e-17)
(94.229025 0.069315087 -1.4469381e-17)
(94.229335 0.078691517 1.5149507e-17)
(94.234049 0.090541605 -1.5633128e-17)
(94.24042 0.039894356 0)
(94.242267 0.043445427 -4.5768329e-18)
(94.243027 0.044500833 4.7939256e-18)
(94.243263 0.049995028 9.9964298e-18)
(94.24364 0.052976769 -1.0382138e-17)
(94.243659 0.061496543 1.090165e-17)
(94.243003 0.064465727 -1.1453488e-17)
(94.241923 0.068563588 0)
(94.240103 0.074439449 0)
(94.236871 0.066300156 2.5835135e-17)
(94.234546 0.067540332 -2.7131354e-17)
(94.234629 0.070186836 0)
(94.239279 0.082237973 0)
(94.240604 0.08612279 0)
(94.243228 0.042992942 4.0049682e-23)
(94.243694 0.046037697 4.3326266e-18)
(94.244308 0.047665122 0)
(94.244839 0.04982047 9.4718231e-18)
(94.246217 0.053965595 -9.8243122e-18)
(94.248194 0.057801138 -1.0276764e-17)
(94.247725 0.067452139 1.0766037e-17)
(94.245235 0.067787484 -2.2399305e-17)
(94.243733 0.070500239 4.6764693e-17)
(94.242096 0.07457768 -4.8497415e-17)
(94.240927 0.074455207 2.5411982e-17)
(94.241117 0.075814671 2.6658602e-17)
(94.242076 0.078355937 -2.7815859e-17)
(94.242916 0.084761362 0)
(94.246854 0.049768552 -3.923754e-18)
(94.247815 0.05387617 1.2242101e-17)
(94.248877 0.055347304 -8.4781698e-18)
(94.249069 0.056442185 0)
(94.249086 0.059569507 0)
(94.249586 0.061492719 -1.9383049e-17)
(94.249575 0.067317608 4.0533536e-17)
(94.249 0.07223937 -2.0932744e-17)
(94.248809 0.071189459 0)
(94.250755 0.06800297 2.27525e-17)
(94.251468 0.070119399 -2.3629533e-17)
(94.25144 0.07339877 0)
(94.249957 0.080058827 0)
(94.249206 0.082011202 -2.6897458e-17)
(94.248752 0.047254767 0)
(94.250747 0.051987497 0)
(94.252168 0.054764868 0)
(94.252588 0.055775196 1.6756292e-17)
(94.250562 0.057561441 3.718845e-23)
(94.249216 0.057576922 1.1782152e-22)
(94.248821 0.05800133 -3.8032316e-17)
(94.251184 0.06554815 1.9906009e-17)
(94.255357 0.066399319 0)
(94.258372 0.069729768 0)
(94.260025 0.07402679 0)
(94.26024 0.077957206 2.3264627e-17)
(94.256268 0.086858489 -4.8435949e-17)
(94.252999 0.087388715 2.5383165e-17)
(94.253071 0.087131427 0)
(94.247329 0.051180099 7.077845e-18)
(94.250085 0.057775171 -4.0389084e-23)
(94.25206 0.062650079 7.6097313e-18)
(94.252903 0.063741827 -1.5926607e-17)
(94.252231 0.069665919 0)
(94.249718 0.061981167 1.7282064e-17)
(94.24688 0.061353478 -1.7895995e-17)
(94.24596 0.059467402 0)
(94.25007 0.057739089 0)
(94.258876 0.062165917 0)
(94.265672 0.070582313 0)
(94.267471 0.077211043 0)
(94.267969 0.098414274 0)
(94.271356 0.10372457 4.7434794e-17)
(94.273179 0.092964651 -9.9067399e-17)
(94.254964 0.046412775 -6.6539951e-18)
(94.255754 0.046230261 6.9603955e-18)
(94.25491 0.048720952 0)
(94.253953 0.052184112 0)
(94.253445 0.058207341 -1.5832561e-17)
(94.250438 0.060942933 3.2742943e-17)
(94.247394 0.060872645 -1.6940227e-17)
(94.246556 0.056958594 0)
(94.249066 0.04446436 0)
(94.252478 0.044288619 0)
(94.255512 0.047494503 0)
(94.259014 0.064857279 -4.169558e-17)
(94.268131 0.082398958 5.2519477e-22)
(94.277345 0.083461369 4.4766073e-17)
(94.283212 0.095954598 0)
(94.286986 0.093860819 0)
(94.261638 0.057038699 0)
(94.26071 0.05899258 1.3346717e-17)
(94.258332 0.060530731 -2.7664343e-17)
(94.256952 0.062021888 -1.2503674e-22)
(94.256309 0.065549077 -8.6682058e-23)
(94.255711 0.067048032 4.6556086e-17)
(94.258373 0.07151078 -3.2326184e-17)
(94.260952 0.06542866 0)
(94.261532 0.060535092 -3.5040242e-17)
(94.261607 0.055545948 3.6636992e-17)
(94.262413 0.050603033 3.7963963e-17)
(94.263718 0.049237369 -3.9491891e-17)
(94.266823 0.064160686 -4.0882819e-17)
(94.275364 0.072225167 4.2122919e-17)
(94.282939 0.077379324 0)
(94.284861 0.08215468 0)
(94.285631 0.10535275 -4.7478394e-17)
(94.265881 0.040606482 -6.1442741e-18)
(94.264536 0.039168528 0)
(94.262716 0.040736284 1.3233394e-17)
(94.26129 0.042095553 -1.3685457e-17)
(94.26068 0.043550096 -2.8511919e-17)
(94.262162 0.049477702 2.9750266e-17)
(94.264309 0.052910435 0)
(94.265997 0.053422859 3.2105098e-17)
(94.268599 0.052903503 -3.3211816e-17)
(94.271435 0.052364679 0)
(94.2728 0.050790159 0)
(94.27377 0.047119634 0)
(94.276657 0.046072762 0)
(94.280171 0.051538725 3.9835019e-17)
(94.281812 0.052851909 -4.1612225e-17)
(94.283365 0.058766205 -4.3102595e-17)
(94.291024 0.064184507 8.8543799e-17)
(94.268844 0.05622069 0)
(94.267026 0.049756732 0)
(94.265322 0.058334548 0)
(94.264361 0.059410901 0)
(94.26447 0.061523642 2.7554082e-17)
(94.265654 0.064604455 -1.364712e-22)
(94.267231 0.068175533 -2.957964e-17)
(94.270482 0.06903377 3.0594103e-17)
(94.275316 0.06194955 -3.1644132e-17)
(94.279521 0.056898576 0)
(94.282629 0.056409033 0)
(94.284861 0.057497378 3.5225325e-17)
(94.286821 0.055125877 -3.6404444e-17)
(94.288752 0.057421283 -7.4993692e-17)
(94.289662 0.057263047 7.8327355e-17)
(94.289831 0.060020587 -8.1742262e-17)
(94.291746 0.070883109 4.3328243e-22)
(94.295434 0.067888994 8.6481977e-17)
(94.268786 0.023423544 1.1378751e-17)
(94.268311 0.024851254 -1.1793028e-17)
(94.269978 0.029265085 0)
(94.271942 0.03291399 0)
(94.273556 0.035633099 0)
(94.274859 0.03651554 0)
(94.276371 0.039056138 0)
(94.277897 0.039687295 0)
(94.278769 0.039801523 0)
(94.27947 0.038692637 0)
(94.280412 0.038034752 0)
(94.281345 0.038087155 6.7056287e-17)
(94.282334 0.03844927 -6.9331076e-17)
(94.283363 0.038564 -7.182569e-17)
(94.284404 0.037373166 7.4365176e-17)
(94.286291 0.035517482 0)
(94.28914 0.036166075 7.8985021e-17)
(94.291528 0.036205603 -8.1687224e-17)
(94.293607 0.034341945 -8.4388628e-17)
(94.270797 0.045369651 0)
(94.271989 0.045254564 0)
(94.273668 0.046897795 0)
(94.275483 0.058768305 0)
(94.277425 0.059240496 0)
(94.278585 0.065152175 0)
(94.279326 0.070126466 -5.4575412e-17)
(94.2808 0.069437361 5.6272067e-17)
(94.283213 0.067984822 0)
(94.285469 0.06447319 0)
(94.287344 0.06246818 0)
(94.289293 0.063021611 -6.3966264e-17)
(94.291462 0.059638292 6.5993102e-17)
(94.293665 0.059697904 0)
(94.295769 0.058235906 0)
(94.297726 0.057893446 7.2463914e-17)
(94.299595 0.058176348 -7.4728802e-17)
(94.301291 0.058868365 0)
(94.302861 0.059671988 0)
(94.304459 0.060573849 8.1944632e-17)
(94.270789 0.010760814 -1.3497339e-23)
(94.273887 0.0092926422 3.3709391e-17)
(94.27697 0.015142232 -2.3182305e-17)
(94.279787 0.016621397 -2.3919177e-17)
(94.282058 0.016053485 4.9426229e-17)
(94.284016 0.015602394 -2.5499478e-17)
(94.286477 0.019928515 0)
(94.288703 0.020662011 0)
(94.290126 0.021456284 0)
(94.29109 0.022286742 5.7288596e-17)
(94.291682 0.02270621 -1.1738427e-16)
(94.291844 0.023409152 1.2050245e-16)
(94.291823 0.023877628 -6.2369084e-17)
(94.291898 0.023592629 -6.4771384e-17)
(94.29193 0.02320388 1.8604129e-22)
(94.291976 0.021790743 1.387539e-16)
(94.292286 0.020548722 -7.1101851e-17)
(94.292753 0.019788915 0)
(94.293424 0.01815649 7.5349743e-17)
(94.294577 0.017005045 -1.54715e-16)
(94.296122 0.016662886 3.3833081e-22)
(94.297759 0.015872536 1.6330825e-16)
(94.256888 0.035560373 1.0761371e-17)
(94.258432 0.032947994 0)
(94.260102 0.035077356 2.2733058e-17)
(94.261492 0.04378275 2.3422234e-17)
(94.26223 0.042414136 -4.8365682e-17)
(94.263077 0.050027716 -4.9775078e-17)
(94.26427 0.049643027 5.1230121e-17)
(94.265625 0.058791496 0)
(94.267721 0.061450652 0)
(94.269845 0.062945453 5.539529e-17)
(94.271006 0.06389135 5.6424688e-23)
(94.271677 0.068431577 -5.8819001e-17)
(94.272315 0.070946254 0)
(94.273073 0.071272771 0)
(94.274241 0.072583996 0)
(94.275973 0.075093782 0)
(94.277813 0.074460974 0)
(94.279628 0.073518864 0)
(94.282055 0.073112846 0)
(94.285577 0.068673221 0)
(94.289479 0.065701153 0)
(94.293023 0.063465828 1.5348642e-16)
(94.296292 0.063136139 -3.1495515e-16)
(94.323777 -0.00077892161 0)
(94.325097 -0.0038325766 0)
(94.32504 -0.0062433945 0)
(94.323781 -0.0069824722 -4.654474e-17)
(94.320766 -0.0059914074 4.7615946e-17)
(94.31609 -0.0049168778 0)
(94.311729 -0.0054119947 4.9537576e-17)
(94.309836 -0.0052524476 -5.1303619e-17)
(94.309901 -0.004281133 0)
(94.311488 -0.00094557274 5.4023518e-17)
(94.313418 0.0025016424 -1.6596616e-16)
(94.315242 0.0048423876 1.1358968e-16)
(94.31688 0.0063231103 0)
(94.31908 0.0052260671 0)
(94.321377 -0.0004848307 0)
(94.322705 -0.0004888512 1.2333415e-16)
(94.322966 -0.00011599876 -1.2695045e-16)
(94.322318 -0.00071124397 0)
(94.321779 -0.0014007708 0)
(94.321825 -0.0034912457 0)
(94.320992 -0.016947212 1.4175962e-16)
(94.31844 -0.0084017291 -2.1972234e-22)
(94.316453 -0.01302954 -1.4781763e-16)
(94.315046 -0.012374897 1.5193149e-16)
(94.313496 -0.013102752 -1.5542317e-16)
(94.428238 0.032365118 -2.1691102e-17)
(94.426893 0.020292902 0)
(94.424512 0.04249321 -4.5382272e-17)
(94.420246 0.051654521 4.6260989e-17)
(94.414626 0.078537794 0)
(94.410194 0.087063923 -4.7844947e-17)
(94.408314 0.084431874 9.7317641e-17)
(94.408263 0.075360214 -4.9837228e-17)
(94.409782 0.052007552 0)
(94.410154 0.04647634 1.0493626e-16)
(94.409935 0.040845695 -1.0867429e-16)
(94.409399 0.042481302 -1.1079265e-16)
(94.407554 0.049193209 1.1257533e-16)
(94.40516 0.059988121 -1.1494134e-16)
(94.403136 0.068149571 2.3537952e-16)
(94.400844 0.076195001 6.8309697e-23)
(94.397737 0.086702346 -1.2246314e-16)
(94.394528 0.096530621 0)
(94.392054 0.10457058 1.2779606e-16)
(94.390007 0.10703736 -2.6096548e-16)
(94.387983 0.10634381 5.154753e-25)
(94.386448 0.10550912 1.3574405e-16)
(94.38561 0.10253943 1.3938921e-16)
(94.384949 0.097243915 -8.0233609e-23)
(94.383934 0.091793694 -1.4338432e-16)
(94.383257 0.089624238 0)
(94.383251 0.085637417 1.4958791e-16)
(91.181429 -0.0073671917 0)
(91.562098 -0.0012764686 -1.1327357e-17)
(92.194192 0.0025247416 -3.3063267e-19)
(92.866982 0.0033989609 9.8823651e-18)
(93.411882 0.0019733634 -1.7468697e-24)
(93.779163 -0.00039545153 -1.7236779e-17)
(93.996666 -0.0025483856 1.6354079e-17)
(94.114208 -0.004143902 0)
(94.171884 -0.0050910341 -4.4020538e-19)
(94.196141 -0.0055405031 -4.0674952e-19)
(94.203555 -0.0053739161 -1.9077356e-19)
(94.202796 -0.0053993268 1.7818741e-19)
(94.198322 -0.0046918328 0)
(94.193393 -0.0037891607 1.9966208e-17)
(94.189589 -0.0028856082 -1.8055163e-17)
(94.187657 -0.0014958634 5.6463711e-19)
(94.187423 0.00034606404 3.3245717e-17)
(94.190727 0.00066624816 -3.0664926e-17)
(94.196634 0.0021325573 1.0078057e-18)
(94.203844 0.0033332587 2.7021141e-17)
(94.210604 0.0041255423 -2.5293288e-17)
(94.215152 0.0046359237 1.8378616e-18)
(94.216933 0.0055599717 2.1747759e-17)
(94.217341 0.0072569306 -2.0388974e-17)
(94.217644 0.0089661559 -1.1989015e-18)
(94.219462 0.010032884 0)
(94.221761 0.01088024 -5.2529012e-19)
(94.224356 0.013116241 1.4800018e-17)
(94.226572 0.014134282 -1.4878033e-17)
(94.228576 0.017790384 0)
(94.231061 0.0204278 0)
(94.232711 0.026238318 -3.0808742e-18)
(94.23628 0.029791376 1.4470023e-18)
(94.239447 0.033527218 1.0885112e-17)
(94.240503 0.038858068 -1.0227072e-17)
(94.243761 0.04143979 -4.8394372e-18)
(94.246337 0.045900056 -9.196383e-18)
(94.246982 0.043616296 2.1785438e-18)
(94.24727 0.049031071 8.2525139e-18)
(94.255175 0.044199069 0)
(94.26168 0.053422812 0)
(94.267756 0.037945413 7.1061661e-18)
(94.270764 0.045275663 0)
(94.269289 0.023709653 -6.4877645e-18)
(94.270652 0.032993225 -1.5601832e-18)
(94.267909 0.00089762201 -1.0607922e-17)
(94.256055 0.035064604 -2.3528829e-17)
(94.323845 0.00030794328 -3.5088514e-19)
(94.429218 0.026578804 3.3698474e-17)
(91.30287 -0.0034386478 0)
(91.692887 0.0024494325 0)
(92.320901 0.005985738 3.1223179e-19)
(92.967152 0.0065341505 0)
(93.477304 0.004749636 2.7460889e-19)
(93.815154 0.0020591821 1.0295559e-18)
(94.01361 -0.00052591697 3.1600322e-17)
(94.1205 -0.0025985309 -2.804095e-17)
(94.173043 -0.0037256009 0)
(94.195229 -0.0046791008 7.874271e-19)
(94.201768 -0.0049752974 2.3540023e-17)
(94.201624 -0.0049559612 -2.2374547e-17)
(94.197315 -0.0047648883 2.0740709e-17)
(94.192658 -0.0043386917 -1.9409978e-17)
(94.189349 -0.0037675578 -1.8714337e-17)
(94.188182 -0.0035693528 5.1298232e-17)
(94.189618 -0.0032256517 -3.2007276e-17)
(94.193276 -0.0024134937 0)
(94.198993 -0.0011250422 2.851644e-17)
(94.205619 -0.00025056695 -2.6179675e-17)
(94.211495 0.00062644231 5.7912504e-19)
(94.21531 0.0014112055 2.2395527e-17)
(94.217009 0.0030632893 -4.3014253e-17)
(94.217589 0.0043168903 2.0505105e-17)
(94.217969 0.0063136555 2.9585111e-19)
(94.219705 0.0082462715 0)
(94.221997 0.009621281 1.7425502e-17)
(94.224117 0.012290991 -3.0228998e-17)
(94.226439 0.014472967 1.464673e-17)
(94.229368 0.018275232 0)
(94.233017 0.021985023 0)
(94.234882 0.024693059 1.2438894e-17)
(94.237571 0.029527944 -1.2606908e-17)
(94.240973 0.032020756 1.0883847e-17)
(94.241394 0.037639574 -1.0223964e-17)
(94.244351 0.039428076 0)
(94.245801 0.043075532 -1.1436523e-18)
(94.245839 0.042393461 -2.1736538e-18)
(94.24773 0.048454683 0)
(94.255848 0.044795255 -3.8651156e-18)
(94.261574 0.05008104 3.6666652e-18)
(94.268476 0.039601803 0)
(94.272354 0.04399562 -3.3763219e-18)
(94.2701 0.024383429 3.2191161e-18)
(94.270995 0.034694585 -1.5386103e-18)
(94.267631 0.0055599834 2.9909895e-18)
(94.256015 0.037028011 1.0178503e-17)
(94.323484 0.00045550803 5.5851785e-18)
(94.429756 0.021186955 -1.0938228e-17)
(91.418886 -0.00068725005 0)
(91.815117 0.0050159375 1.254755e-18)
(92.435855 0.0083094745 -1.0641116e-17)
(93.054974 0.0085162373 8.9058844e-18)
(93.532565 0.0065609972 0)
(93.844165 0.003810526 1.4774437e-17)
(94.026146 0.0012131535 -1.5741028e-17)
(94.124133 -0.00074840274 -8.7072449e-19)
(94.172358 -0.002290195 0)
(94.193015 -0.0031206829 -7.6365198e-19)
(94.198862 -0.0035413553 -2.1575547e-17)
(94.198842 -0.0038798867 2.0257969e-17)
(94.194686 -0.0039179227 -2.0252304e-17)
(94.190503 -0.0038828163 -2.1907136e-23)
(94.187903 -0.0037211397 1.8342039e-17)
(94.187268 -0.0035197495 3.3368711e-17)
(94.189439 -0.003148245 -3.146037e-17)
(94.19436 -0.00276484 0)
(94.20063 -0.0019583248 -4.3266671e-19)
(94.207108 -0.0012373481 -4.0553476e-19)
(94.212502 -0.00028482549 -3.8003466e-19)
(94.216087 0.00052644036 -2.2400675e-17)
(94.218042 0.001867737 2.132647e-17)
(94.218997 0.0036309036 -3.1298236e-19)
(94.219545 0.0058566813 -2.9379464e-19)
(94.220894 0.0076734776 -1.7633725e-17)
(94.223099 0.0099361866 3.2850044e-17)
(94.225159 0.012441219 -1.2124707e-19)
(94.227803 0.015369212 -1.5490734e-17)
(94.231377 0.019044769 -1.2880616e-17)
(94.235754 0.022605335 1.2958331e-17)
(94.237612 0.025254864 -1.9072503e-19)
(94.238824 0.03167541 -3.5914608e-19)
(94.241644 0.032835181 1.0789695e-17)
(94.242188 0.03680786 -9.528349e-18)
(94.244284 0.038101363 9.5518364e-18)
(94.245298 0.040866492 -7.3894146e-18)
(94.24551 0.039305564 0)
(94.248265 0.046248113 0)
(94.255805 0.044555193 3.8384286e-18)
(94.261769 0.047946751 -3.8884978e-18)
(94.267668 0.03919441 1.0940606e-19)
(94.273324 0.044096593 3.3623074e-18)
(94.271636 0.02480414 3.2020109e-18)
(94.272019 0.038039258 0)
(94.267921 0.0083678859 0)
(94.2564 0.031071496 0)
(94.322346 0.00030743113 -5.2195664e-18)
(94.429877 0.0218966 -1.7109759e-18)
(91.528429 -0.0010342823 0)
(91.926254 0.0043874947 -3.5597642e-18)
(92.536352 0.0074513566 -1.1220415e-18)
(93.12937 0.0075305886 -2.1198638e-18)
(93.578215 0.0056950729 1.6006015e-17)
(93.867714 0.0032719927 -1.3208553e-17)
(94.035986 0.0010858215 2.8457604e-17)
(94.126466 -0.00051695352 -2.6819401e-17)
(94.171066 -0.0017365982 -2.5140173e-17)
(94.189743 -0.0022232251 -2.2094164e-23)
(94.194871 -0.0026737518 2.0954355e-17)
(94.194454 -0.0027376173 1.3151372e-18)
(94.190524 -0.0029450928 -1.9767513e-17)
(94.187032 -0.0029855459 1.6247555e-17)
(94.185377 -0.002843632 -1.9662911e-17)
(94.185561 -0.0033746729 4.7363169e-17)
(94.189417 -0.0027553496 -6.1712659e-17)
(94.195361 -0.0026573099 5.6159078e-17)
(94.202227 -0.0021208569 2.2076745e-23)
(94.208611 -0.0015560072 -5.1138677e-17)
(94.213579 -0.00075428325 -1.0399946e-23)
(94.217042 0.0002355472 4.3639477e-17)
(94.219378 0.0013005652 -2.6426055e-18)
(94.220865 0.0020735013 -3.9696783e-17)
(94.221773 0.0048754663 1.8642151e-17)
(94.222888 0.0090147338 -2.1874413e-18)
(94.224887 0.011916477 0)
(94.227288 0.016031926 1.9310661e-18)
(94.230517 0.018996168 9.0841476e-19)
(94.234111 0.021519066 -1.4562567e-17)
(94.23714 0.025727896 1.2830305e-17)
(94.238814 0.02761148 0)
(94.239525 0.032023329 0)
(94.241433 0.032869276 0)
(94.242154 0.036479176 -1.0699697e-17)
(94.243521 0.037658357 7.1587808e-18)
(94.24428 0.040227446 -2.8307394e-18)
(94.245663 0.038805495 -2.1289544e-18)
(94.249327 0.045789003 -2.0276228e-18)
(94.255913 0.042124777 0)
(94.262269 0.044979767 -1.5995862e-18)
(94.267335 0.036712768 -1.0981898e-19)
(94.273871 0.040431822 -3.3361635e-18)
(94.274049 0.026162066 3.1873406e-18)
(94.27344 0.041523943 -4.5946274e-18)
(94.267459 0.01014248 4.3814296e-18)
(94.257149 0.04209972 0)
(94.320426 0.00036262226 0)
(94.429862 0.028039164 1.3752189e-18)
(91.629083 -0.0024437717 2.3697177e-18)
(92.026165 0.002144735 -3.3139052e-23)
(92.624745 0.0046042143 1.0671895e-17)
(93.194101 0.0043540271 -6.0668156e-18)
(93.618148 0.0024219152 0)
(93.889 5.7184587e-05 1.2670361e-17)