/*--------------------------------*- C++ -*----------------------------------*\
| =========                 |                                                 |
| \\      /  F ield         | OpenFOAM: The Open Source CFD Toolbox           |
|  \\    /   O peration     | Version:  2506                                  |
|   \\  /    A nd           | Website:  www.openfoam.com                      |
|    \\/     M anipulation  |                                                 |
\*---------------------------------------------------------------------------*/
FoamFile
{
    version     2.0;
    format      ascii;
    arch        "LSB;label=32;scalar=64";
    class       volScalarField;
    location    "0.0145";
    object      p;
}
// * * * * * * * * * * * * * * * * * * * * * * * * * * * * * * * * * * * * * //

dimensions      [1 -1 -2 0 0 0 0];

internalField   nonuniform List<scalar> 
13761
(
39112.605
39036.202
38964.734
38897.953
38835.614
38777.475
38723.294
38672.846
38625.911
38582.276
38541.733
38504.086
38469.146
38436.737
38406.691
38378.851
38353.07
38329.213
38307.199
38287.021
38268.697
38252.22
38237.529
38224.524
38213.084
38203.085
38194.404
38186.926
38180.546
38175.166
38170.703
38167.091
38164.273
38162.208
38160.846
38160.084
38159.771
38159.687
40224.46
40112.15
40006.047
39905.979
39811.749
39723.149
39639.959
39561.948
39488.887
39420.541
39356.673
39297.049
39241.437
39189.609
39141.348
39096.444
39054.694
39015.901
38979.875
38946.437
38915.419
38886.661
38860.012
38835.332
38812.49
38791.392
38772.007
38754.353
38738.44
38724.234
38711.651
38700.586
38690.92
38682.537
38675.325
38669.182
38664.013
38659.737
38656.286
38653.606
38651.656
38650.383
38649.685
38649.412
38649.364
40642.733
40535.882
40434.941
40339.748
40250.115
40165.843
40086.724
40012.538
39943.067
39878.086
39817.371
39760.697
39707.844
39658.593
39612.738
39570.081
39530.424
39493.582
39459.374
39427.627
39398.182
39370.886
39345.595
39322.178
39300.507
39280.481
39262.05
39245.22
39230.014
39216.416
39204.366
39193.771
39184.524
39176.514
39169.636
39163.791
39158.885
39154.838
39151.587
39149.076
39147.264
39146.095
39145.47
39145.242
39145.233
41058.667
40957.416
40861.778
40771.596
40686.693
40606.88
40531.956
40461.714
40395.944
40334.434
40276.969
40223.336
40173.325
40126.728
40083.349
40043
40005.493
39970.651
39938.304
39908.287
39880.448
39854.643
39830.737
39808.603
39788.121
39769.19
39751.747
39735.78
39721.314
39708.354
39696.859
39686.751
39677.937
39670.313
39663.779
39658.239
39653.603
39649.794
39646.747
39644.41
39642.739
39641.677
39641.125
39640.942
39640.969
41470.572
41374.973
41284.686
41199.565
41119.437
41044.125
40973.436
40907.175
40845.141
40787.132
40732.945
40682.378
40635.231
40591.308
40550.423
40512.397
40477.053
40444.224
40413.747
40385.468
40359.243
40334.936
40312.418
40291.572
40272.284
40254.455
40238.013
40222.934
40209.237
40196.936
40186.01
40176.401
40168.027
40160.794
40154.608
40149.377
40145.014
40141.444
40138.604
40136.441
40134.912
40133.956
40133.477
40133.339
40133.4
41972.055
41876.953
41786.987
41702.034
41621.954
41546.585
41475.755
41409.283
41346.983
41288.665
41234.139
41183.21
41135.689
41091.388
41050.12
41011.71
40975.989
40942.79
40911.956
40883.333
40856.776
40832.15
40809.326
40788.184
40768.611
40750.504
40733.766
40718.325
40704.141
40691.225
40679.597
40669.251
40660.146
40652.214
40645.372
40639.533
40634.61
40630.519
40627.187
40624.552
40622.563
40621.174
40620.323
40619.914
40619.819
40619.911
42365.758
42276.521
42192.117
42112.43
42037.325
41966.649
41900.239
41837.924
41779.528
41724.871
41673.774
41626.054
41581.531
41540.029
41501.372
41465.395
41431.94
41400.849
41371.975
41345.173
41320.308
41297.252
41275.884
41256.091
41237.769
41220.819
41205.153
41190.697
41177.404
41165.274
41154.327
41144.565
41135.966
41128.476
41122.023
41116.527
41111.907
41108.084
41104.986
41102.553
41100.735
41099.483
41098.734
41098.393
41098.339
41098.459
42839.778
42751.665
42668.18
42589.228
42514.701
42444.469
42378.388
42316.304
42258.057
42203.478
42152.401
42104.655
42060.069
42018.475
41979.706
41943.598
41909.997
41878.752
41849.718
41822.756
41797.73
41774.514
41752.988
41733.039
41714.561
41697.458
41681.636
41667.015
41653.52
41641.104
41629.756
41619.49
41610.316
41602.222
41595.171
41589.101
41583.943
41579.621
41576.059
41573.189
41570.954
41569.302
41568.183
41567.532
41567.256
41567.239
41567.385
43211.095
43128.888
43051.01
42977.373
42907.871
42842.385
42780.776
42722.901
42668.609
42617.742
42570.143
42525.652
42484.111
42445.36
42409.244
42375.609
42344.312
42315.211
42288.171
42263.062
42239.758
42218.139
42198.096
42179.522
42162.318
42146.395
42131.667
42118.056
42105.494
42093.931
42083.351
42073.761
42065.172
42057.581
42050.964
42045.272
42040.445
42036.412
42033.105
42030.458
42028.414
42026.922
42025.931
42025.373
42025.156
42025.175
42025.344
43653.735
43573.163
43496.69
43424.254
43355.77
43291.142
43230.253
43172.977
43119.178
43068.713
43021.437
42977.202
42935.859
42897.259
42861.255
42827.701
42796.455
42767.381
42740.349
42715.233
42691.912
42670.268
42650.19
42631.576
42614.327
42598.352
42583.566
42569.89
42557.252
42545.59
42534.852
42525.019
42516.093
42508.083
42500.992
42494.805
42489.485
42484.98
42481.23
42478.169
42475.736
42473.875
42472.537
42471.667
42471.196
42471.035
42471.085
42471.274
44078.717
44000.133
43925.395
43854.468
43787.292
43723.79
43663.868
43607.419
43554.324
43504.456
43457.682
43413.866
43372.872
43334.561
43298.793
43265.432
43234.343
43205.394
43178.458
43153.415
43130.148
43108.544
43088.494
43069.896
43052.654
43036.677
43021.881
43008.186
42995.52
42983.816
42973.016
42963.072
42953.961
42945.682
42938.24
42931.642
42925.879
42920.925
42916.736
42913.26
42910.437
42908.21
42906.525
42905.332
42904.575
42904.186
42904.076
42904.154
42904.359
44485.354
44409.104
44336.43
44267.321
44201.742
44139.638
44080.935
44025.546
43973.372
43924.299
43878.212
43834.987
43794.498
43756.617
43721.217
43688.168
43657.344
43628.62
43601.872
43576.986
43553.85
43532.354
43512.394
43493.871
43476.69
43460.761
43446.001
43432.332
43419.681
43407.981
43397.171
43387.196
43378.011
43369.593
43361.939
43355.051
43348.936
43343.59
43338.994
43335.114
43331.905
43329.312
43327.282
43325.764
43324.708
43324.058
43323.742
43323.677
43323.78
43323.998
44799.526
44729.241
44662.261
44598.573
44538.144
44480.922
44426.836
44375.805
44327.738
44282.531
44240.075
44200.256
44162.957
44128.062
44095.452
44065.009
44036.615
44010.155
43985.517
43962.592
43941.28
43921.478
43903.092
43886.029
43870.201
43855.528
43841.931
43829.338
43817.684
43806.906
43796.948
43787.761
43779.301
43771.548
43764.494
43758.142
43752.498
43747.56
43743.315
43739.738
43736.787
43734.417
43732.576
43731.217
43730.29
43729.736
43729.487
43729.462
43729.585
43729.815
45170.953
45103.373
45038.83
44977.331
44918.862
44863.392
44810.87
44761.229
44714.394
44670.279
44628.789
44589.823
44553.277
44519.043
44487.013
44457.08
44429.134
44403.068
44378.777
44356.158
44335.111
44315.543
44297.363
44280.481
44264.814
44250.281
44236.807
44224.321
44212.758
44202.057
44192.16
44183.017
44174.582
44166.816
44159.699
44153.222
44147.387
44142.2
44137.66
44133.76
44130.478
44127.78
44125.625
44123.967
44122.758
44121.95
44121.486
44121.296
44121.305
44121.446
44121.684
45523.036
45458.446
45396.623
45337.594
45281.366
45227.922
45177.229
45129.239
45083.89
45041.109
45000.817
44962.924
44927.338
44893.961
44862.695
44833.44
44806.098
44780.569
44756.756
44734.561
44713.89
44694.655
44676.769
44660.149
44644.715
44630.39
44617.1
44604.779
44593.36
44582.785
44572.997
44563.945
44555.584
44547.87
44540.769
44534.261
44528.34
44523.006
44518.263
44514.114
44510.551
44507.559
44505.108
44503.163
44501.68
44500.614
44499.918
44499.535
44499.397
44499.437
44499.592
44499.838
45855.569
45794.202
45735.335
45679.015
45625.263
45574.083
45525.458
45479.355
45435.729
45394.518
45355.658
45319.071
45284.674
45252.381
45222.102
45193.745
45167.218
45142.431
45119.29
45097.706
45077.591
45058.858
45041.425
45025.215
45010.15
44996.159
44983.171
44971.12
44959.945
44949.586
44939.991
44931.109
44922.894
44915.304
44908.302
44901.856
44895.949
44890.576
44885.736
44881.434
44877.672
44874.446
44871.743
44869.539
44867.801
44866.49
44865.563
44864.973
44864.665
44864.577
44864.643
44864.812
44865.063
46168.559
46110.595
46054.865
46001.432
45950.337
45901.598
45855.216
45811.174
45769.44
45729.971
45692.71
45657.595
45624.555
45593.512
45564.388
45537.097
45511.557
45487.683
45465.389
45444.592
45425.209
45407.159
45390.361
45374.742
45360.23
45346.754
45334.248
45322.647
45311.892
45301.925
45292.694
45284.149
45276.244
45268.939
45262.194
45255.977
45250.257
45245.021
45240.262
45235.98
45232.178
45228.859
45226.02
45223.649
45221.727
45220.224
45219.105
45218.33
45217.854
45217.624
45217.584
45217.676
45217.857
45218.111
46462.231
46407.808
46355.349
46304.937
46256.628
46210.457
46166.441
46124.576
46084.847
46047.222
46011.659
45978.106
45946.504
45916.786
45888.881
45862.714
45838.21
45815.289
45793.873
45773.886
45755.25
45737.888
45721.727
45706.695
45692.722
45679.744
45667.697
45656.52
45646.156
45636.55
45627.65
45619.409
45611.783
45604.731
45598.214
45592.2
45586.658
45581.563
45576.9
45572.666
45568.86
45565.485
45562.543
45560.033
45557.945
45556.262
45554.956
45553.996
45553.344
45552.957
45552.788
45552.783
45552.891
45553.076
45553.328
46736.917
46686.136
46637.051
46589.758
46544.33
46500.82
46459.257
46419.653
46382.006
46346.297
46312.498
46280.568
46250.457
46222.111
46195.468
46170.461
46147.023
46125.081
46104.566
46085.405
46067.528
46050.864
46035.344
46020.901
46007.469
45994.986
45983.395
45972.636
45962.656
45953.403
45944.828
45936.884
45929.528
45922.722
45916.429
45910.615
45905.251
45900.308
45895.765
45891.611
45887.841
45884.456
45881.458
45878.85
45876.631
45874.792
45873.317
45872.183
45871.36
45870.812
45870.499
45870.378
45870.4
45870.519
45870.704
45870.95
46946.004
46900.368
46856.269
46813.796
46773.015
46733.971
46696.691
46661.184
46627.447
46595.461
46565.199
46536.623
46509.686
46484.338
46460.522
46438.177
46417.241
46397.649
46379.335
46362.235
46346.286
46331.422
46317.582
46304.705
46292.731
46281.607
46271.278
46261.692
46252.802
46244.561
46236.923
46229.849
46223.3
46217.241
46211.639
46206.465
46201.692
46197.296
46193.257
46189.566
46186.219
46183.218
46180.565
46178.261
46176.306
46174.693
46173.408
46172.428
46171.726
46171.269
46171.02
46170.939
46170.981
46171.108
46171.292
46171.53
47187.939
47145.809
47104.963
47065.5
47027.503
46991.029
46956.121
46922.8
46891.076
46860.943
46832.384
46805.375
46779.879
46755.853
46733.252
46712.024
46692.113
46673.462
46656.013
46639.706
46624.485
46610.29
46597.064
46584.752
46573.298
46562.65
46552.758
46543.575
46535.055
46527.153
46519.829
46513.042
46506.756
46500.938
46495.556
46490.581
46485.986
46481.749
46477.847
46474.265
46470.993
46468.029
46465.375
46463.033
46461.005
46459.289
46457.879
46456.763
46455.919
46455.324
46454.946
46454.751
46454.702
46454.761
46454.892
46455.071
46455.301
47412.536
47373.957
47336.408
47300.001
47264.83
47230.969
47198.47
47167.372
47137.694
47109.445
47082.62
47057.203
47033.17
47010.489
46989.123
46969.027
46950.157
46932.462
46915.89
46900.389
46885.906
46872.389
46859.786
46848.045
46837.117
46826.952
46817.504
46808.728
46800.581
46793.024
46786.015
46779.52
46773.502
46767.928
46762.77
46757.999
46753.589
46749.517
46745.763
46742.308
46739.137
46736.243
46733.625
46731.283
46729.221
46727.439
46725.938
46724.71
46723.744
46723.022
46722.519
46722.209
46722.06
46722.037
46722.108
46722.24
46722.414
46722.633
47620.439
47585.446
47551.229
47517.914
47485.606
47454.39
47424.334
47395.488
47367.885
47341.546
47316.477
47292.674
47270.123
47248.804
47228.687
47209.738
47191.92
47175.19
47159.504
47144.816
47131.079
47118.247
47106.271
47095.107
47084.707
47075.029
47066.027
47057.661
47049.891
47042.679
47035.989
47029.785
47024.036
47018.709
47013.777
47009.212
47004.99
47001.089
46997.488
46994.169
46991.114
46988.313
46985.758
46983.449
46981.388
46979.576
46978.015
46976.705
46975.639
46974.806
46974.19
46973.768
46973.516
46973.404
46973.403
46973.482
46973.613
46973.781
46973.989
47812.313
47780.936
47750.083
47719.89
47690.476
47661.937
47634.352
47607.784
47582.281
47557.873
47534.58
47512.409
47491.356
47471.412
47452.556
47434.765
47418.008
47402.251
47387.457
47373.587
47360.601
47348.456
47337.112
47326.526
47316.657
47307.465
47298.911
47290.956
47283.563
47276.697
47270.324
47264.412
47258.931
47253.851
47249.146
47244.788
47240.756
47237.027
47233.582
47230.402
47227.472
47224.776
47222.305
47220.054
47218.022
47216.211
47214.623
47213.259
47212.119
47211.196
47210.481
47209.957
47209.605
47209.402
47209.321
47209.336
47209.42
47209.549
47209.709
47209.905
47988.839
47961.102
47933.64
47906.599
47880.106
47854.271
47829.185
47804.921
47781.54
47759.085
47737.586
47717.063
47697.524
47678.967
47661.383
47644.758
47629.069
47614.29
47600.393
47587.345
47575.112
47563.657
47552.944
47542.937
47533.599
47524.894
47516.787
47509.241
47502.224
47495.703
47489.647
47484.025
47478.811
47473.976
47469.496
47465.346
47461.503
47457.946
47454.658
47451.62
47448.816
47446.234
47443.859
47441.683
47439.703
47437.918
47436.33
47434.941
47433.752
47432.762
47431.965
47431.353
47430.909
47430.617
47430.455
47430.399
47430.427
47430.514
47430.639
47430.791
47430.974
48150.693
48126.619
48102.574
48078.712
48055.17
48032.067
48009.506
47987.572
47966.336
47945.854
47926.169
47907.31
47889.298
47872.141
47855.84
47840.388
47825.774
47811.98
47798.983
47786.759
47775.28
47764.516
47754.436
47745.008
47736.2
47727.98
47720.317
47713.179
47706.536
47700.357
47694.615
47689.282
47684.332
47679.741
47675.483
47671.537
47667.882
47664.498
47661.366
47658.47
47655.795
47653.327
47651.054
47648.965
47647.053
47645.313
47643.747
47642.357
47641.145
47640.11
47639.252
47638.566
47638.043
47637.669
47637.428
47637.3
47637.266
47637.303
47637.391
47637.51
47637.653
47637.824
48278.154
48257.552
48236.897
48216.334
48195.992
48175.983
48156.406
48137.341
48118.855
48101.004
48083.829
48067.359
48051.615
48036.607
48022.339
48008.807
47996.003
47983.911
47972.514
47961.79
47951.718
47942.269
47933.419
47925.14
47917.404
47910.183
47903.45
47897.178
47891.34
47885.909
47880.862
47876.174
47871.822
47867.784
47864.04
47860.571
47857.356
47854.38
47851.626
47849.079
47846.727
47844.557
47842.56
47840.724
47839.045
47837.519
47836.148
47834.933
47833.876
47832.977
47832.236
47831.647
47831.201
47830.887
47830.689
47830.59
47830.572
47830.616
47830.703
47830.817
47830.95
47831.109
48416.357
48399.223
48381.804
48364.251
48346.701
48329.276
48312.084
48295.218
48278.755
48262.762
48247.29
48232.381
48218.065
48204.364
48191.291
48178.851
48167.042
48155.86
48145.294
48135.329
48125.949
48117.133
48108.861
48101.109
48093.855
48087.075
48080.744
48074.84
48069.339
48064.217
48059.452
48055.022
48050.907
48047.087
48043.542
48040.255
48037.208
48034.384
48031.77
48029.351
48027.114
48025.049
48023.144
48021.39
48019.779
48018.307
48016.97
48015.771
48014.711
48013.791
48013.012
48012.372
48011.867
48011.489
48011.226
48011.064
48010.99
48010.985
48011.032
48011.117
48011.225
48011.349
48011.496
48541.857
48528.216
48514.062
48499.552
48484.829
48470.022
48455.25
48440.614
48426.203
48412.095
48398.351
48385.024
48372.156
48359.779
48347.914
48336.576
48325.774
48315.509
48305.779
48296.577
48287.891
48279.709
48272.015
48264.79
48258.017
48251.676
48245.746
48240.208
48235.041
48230.224
48225.739
48221.565
48217.684
48214.078
48210.729
48207.621
48204.739
48202.067
48199.591
48197.298
48195.175
48193.213
48191.402
48189.731
48188.193
48186.782
48185.492
48184.323
48183.276
48182.352
48181.553
48180.879
48180.328
48179.896
48179.575
48179.356
48179.226
48179.171
48179.175
48179.226
48179.307
48179.408
48179.523
48179.658
48655.257
48645.136
48634.279
48622.847
48610.987
48598.836
48586.52
48574.151
48561.826
48549.634
48537.648
48525.93
48514.533
48503.499
48492.859
48482.639
48472.855
48463.517
48454.632
48446.198
48438.212
48430.666
48423.552
48416.855
48410.563
48404.66
48399.13
48393.956
48389.12
48384.607
48380.398
48376.478
48372.828
48369.433
48366.277
48363.346
48360.625
48358.101
48355.761
48353.592
48351.583
48349.724
48348.004
48346.417
48344.953
48343.607
48342.371
48341.243
48340.221
48339.308
48338.504
48337.811
48337.228
48336.755
48336.386
48336.116
48335.934
48335.829
48335.79
48335.802
48335.853
48335.931
48336.025
48336.131
48336.254
48750.559
48743.032
48734.714
48725.757
48716.305
48706.487
48696.424
48686.225
48675.986
48665.791
48655.714
48645.816
48636.149
48626.757
48617.672
48608.922
48600.525
48592.495
48584.838
48577.558
48570.655
48564.124
48557.957
48552.148
48546.683
48541.552
48536.741
48532.236
48528.024
48524.09
48520.419
48516.998
48513.812
48510.847
48508.09
48505.528
48503.15
48500.943
48498.895
48496.998
48495.24
48493.613
48492.108
48490.719
48489.438
48488.26
48487.18
48486.194
48485.302
48484.507
48483.808
48483.207
48482.705
48482.299
48481.985
48481.757
48481.607
48481.523
48481.496
48481.514
48481.565
48481.639
48481.726
48481.823
48481.936
48845.034
48840.869
48835.704
48829.694
48822.983
48815.709
48808
48799.97
48791.726
48783.362
48774.961
48766.595
48758.327
48750.208
48742.284
48734.588
48727.149
48719.987
48713.12
48706.556
48700.302
48694.36
48688.729
48683.404
48678.379
48673.648
48669.2
48665.025
48661.113
48657.451
48654.029
48650.834
48647.854
48645.077
48642.492
48640.087
48637.851
48635.775
48633.847
48632.058
48630.4
48628.863
48627.441
48626.126
48624.911
48623.792
48622.762
48621.818
48620.957
48620.18
48619.488
48618.882
48618.362
48617.929
48617.581
48617.315
48617.123
48616.999
48616.933
48616.916
48616.938
48616.988
48617.057
48617.137
48617.225
48617.328
48929.082
48928.311
48926.338
48923.318
48919.397
48914.717
48909.41
48903.599
48897.398
48890.91
48884.227
48877.433
48870.598
48863.785
48857.048
48850.432
48843.972
48837.7
48831.638
48825.804
48820.211
48814.867
48809.777
48804.942
48800.362
48796.033
48791.95
48788.106
48784.493
48781.103
48777.928
48774.956
48772.18
48769.589
48767.172
48764.92
48762.825
48760.875
48759.064
48757.382
48755.82
48754.372
48753.029
48751.787
48750.637
48749.576
48748.597
48747.698
48746.874
48746.123
48745.446
48744.843
48744.317
48743.868
48743.495
48743.198
48742.971
48742.81
48742.708
48742.657
48742.648
48742.672
48742.72
48742.784
48742.857
48742.938
48743.031
49003.195
49005.847
49007.106
49007.122
49006.041
49004.007
49001.156
48997.618
48993.512
48988.95
48984.034
48978.855
48973.494
48968.025
48962.51
48957.003
48951.55
48946.19
48940.954
48935.867
48930.95
48926.218
48921.681
48917.346
48913.218
48909.297
48905.584
48902.074
48898.764
48895.649
48892.721
48889.975
48887.402
48884.996
48882.747
48880.648
48878.69
48876.867
48875.17
48873.591
48872.124
48870.762
48869.498
48868.325
48867.24
48866.235
48865.307
48864.452
48863.666
48862.946
48862.29
48861.7
48861.175
48860.719
48860.33
48860.009
48859.754
48859.561
48859.426
48859.342
48859.303
48859.299
48859.324
48859.37
48859.429
48859.496
48859.569
48859.653
49073.943
49078.47
49081.566
49083.377
49084.044
49083.707
49082.499
49080.546
49077.966
49074.869
49071.356
49067.517
49063.434
49059.179
49054.817
49050.402
49045.982
49041.597
49037.28
49033.058
49028.953
49024.983
49021.16
49017.495
49013.992
49010.655
49007.487
49004.486
49001.65
48998.975
48996.458
48994.093
48991.876
48989.798
48987.855
48986.04
48984.346
48982.766
48981.295
48979.926
48978.653
48977.471
48976.373
48975.354
48974.411
48973.538
48972.732
48971.989
48971.306
48970.68
48970.112
48969.6
48969.147
48968.753
48968.42
48968.145
48967.929
48967.767
48967.655
48967.587
48967.557
48967.559
48967.585
48967.628
48967.682
48967.743
48967.809
48967.884
49133.035
49140.864
49147.086
49151.839
49155.265
49157.502
49158.685
49158.947
49158.41
49157.191
49155.399
49153.133
49150.485
49147.536
49144.359
49141.019
49137.571
49134.065
49130.542
49127.038
49123.58
49120.193
49116.897
49113.705
49110.63
49107.68
49104.86
49102.173
49099.621
49097.203
49094.918
49092.763
49090.736
49088.831
49087.044
49085.371
49083.806
49082.344
49080.979
49079.708
49078.523
49077.421
49076.397
49075.445
49074.562
49073.743
49072.986
49072.287
49071.642
49071.05
49070.507
49070.015
49069.572
49069.181
49068.843
49068.556
49068.322
49068.139
49068.003
49067.91
49067.856
49067.834
49067.839
49067.865
49067.905
49067.955
49068.011
49068.07
49068.137
49183.536
49194.699
49204.087
49211.833
49218.074
49222.947
49226.587
49229.129
49230.699
49231.423
49231.413
49230.779
49229.62
49228.026
49226.08
49223.856
49221.419
49218.826
49216.127
49213.365
49210.577
49207.793
49205.039
49202.336
49199.701
49197.146
49194.682
49192.317
49190.054
49187.897
49185.847
49183.905
49182.069
49180.338
49178.708
49177.177
49175.741
49174.396
49173.138
49171.962
49170.865
49169.843
49168.891
49168.005
49167.182
49166.418
49165.709
49165.053
49164.447
49163.889
49163.376
49162.906
49162.48
49162.098
49161.761
49161.47
49161.225
49161.026
49160.87
49160.756
49160.68
49160.637
49160.621
49160.629
49160.654
49160.692
49160.737
49160.787
49160.84
49160.9
49240.356
49252.948
49263.736
49272.849
49280.42
49286.584
49291.474
49295.222
49297.956
49299.795
49300.856
49301.246
49301.064
49300.401
49299.34
49297.956
49296.314
49294.473
49292.484
49290.391
49288.233
49286.042
49283.845
49281.663
49279.517
49277.419
49275.383
49273.416
49271.525
49269.715
49267.989
49266.347
49264.791
49263.32
49261.931
49260.624
49259.396
49258.244
49257.164
49256.154
49255.211
49254.331
49253.51
49252.746
49252.035
49251.375
49250.762
49250.195
49249.671
49249.188
49248.744
49248.338
49247.97
49247.641
49247.351
49247.101
49246.892
49246.722
49246.591
49246.496
49246.433
49246.398
49246.388
49246.397
49246.421
49246.456
49246.497
49246.542
49246.589
49246.642
49278.201
49294.028
49307.901
49319.939
49330.271
49339.026
49346.336
49352.334
49357.15
49360.91
49363.736
49365.74
49367.031
49367.709
49367.864
49367.581
49366.934
49365.99
49364.809
49363.443
49361.938
49360.333
49358.661
49356.951
49355.227
49353.509
49351.812
49350.15
49348.532
49346.968
49345.462
49344.018
49342.64
49341.329
49340.085
49338.908
49337.797
49336.751
49335.768
49334.845
49333.98
49333.17
49332.414
49331.709
49331.051
49330.439
49329.869
49329.341
49328.852
49328.399
49327.982
49327.599
49327.249
49326.931
49326.648
49326.399
49326.185
49326.006
49325.862
49325.751
49325.672
49325.62
49325.593
49325.587
49325.597
49325.62
49325.651
49325.688
49325.728
49325.771
49325.817
49308.577
49327.663
49344.659
49359.674
49372.825
49384.237
49394.04
49402.363
49409.338
49415.094
49419.757
49423.447
49426.28
49428.361
49429.792
49430.664
49431.061
49431.059
49430.726
49430.122
49429.301
49428.309
49427.187
49425.97
49424.686
49423.362
49422.018
49420.672
49419.337
49418.025
49416.746
49415.505
49414.309
49413.162
49412.064
49411.02
49410.028
49409.089
49408.202
49407.366
49406.579
49405.841
49405.149
49404.502
49403.897
49403.332
49402.806
49402.316
49401.861
49401.44
49401.05
49400.691
49400.36
49400.059
49399.786
49399.542
49399.328
49399.145
49398.993
49398.871
49398.778
49398.712
49398.669
49398.648
49398.645
49398.655
49398.676
49398.705
49398.738
49398.774
49398.811
49398.853
49354.172
49374.322
49392.358
49408.385
49422.52
49434.885
49445.609
49454.821
49462.653
49469.232
49474.684
49479.131
49482.685
49485.456
49487.544
49489.04
49490.03
49490.591
49490.79
49490.689
49490.343
49489.799
49489.098
49488.276
49487.364
49486.389
49485.371
49484.33
49483.281
49482.236
49481.206
49480.197
49479.217
49478.271
49477.361
49476.49
49475.659
49474.87
49474.122
49473.415
49472.748
49472.121
49471.532
49470.979
49470.462
49469.979
49469.528
49469.108
49468.717
49468.355
49468.02
49467.711
49467.427
49467.168
49466.933
49466.724
49466.541
49466.385
49466.256
49466.153
49466.074
49466.019
49465.985
49465.969
49465.967
49465.978
49465.998
49466.023
49466.053
49466.084
49466.118
49466.154
49373.859
49397.185
49418.279
49437.232
49454.15
49469.149
49482.349
49493.878
49503.866
49512.444
49519.739
49525.878
49530.98
49535.162
49538.531
49541.188
49543.226
49544.731
49545.779
49546.44
49546.775
49546.841
49546.686
49546.351
49545.873
49545.285
49544.613
49543.879
49543.104
49542.304
49541.491
49540.677
49539.871
49539.08
49538.308
49537.561
49536.842
49536.153
49535.494
49534.868
49534.273
49533.711
49533.18
49532.681
49532.211
49531.771
49531.359
49530.973
49530.614
49530.28
49529.97
49529.683
49529.417
49529.174
49528.951
49528.75
49528.571
49528.415
49528.282
49528.173
49528.085
49528.02
49527.974
49527.947
49527.934
49527.934
49527.945
49527.963
49527.986
49528.012
49528.04
49528.069
49528.1
49387.016
49413.529
49437.708
49459.631
49479.389
49497.086
49512.836
49526.762
49538.99
49549.65
49558.872
49566.786
49573.516
49579.185
49583.907
49587.792
49590.94
49593.446
49595.394
49596.863
49597.923
49598.636
49599.058
49599.239
49599.221
49599.041
49598.733
49598.324
49597.837
49597.293
49596.708
49596.098
49595.472
49594.842
49594.215
49593.596
49592.991
49592.404
49591.837
49591.293
49590.772
49590.276
49589.805
49589.359
49588.937
49588.54
49588.167
49587.817
49587.489
49587.183
49586.898
49586.633
49586.388
49586.161
49585.953
49585.763
49585.591
49585.438
49585.305
49585.192
49585.099
49585.026
49584.971
49584.934
49584.911
49584.902
49584.903
49584.913
49584.929
49584.95
49584.973
49584.997
49585.023
49585.05
49423.621
49450.904
49475.83
49498.477
49518.934
49537.305
49553.705
49568.256
49581.084
49592.32
49602.095
49610.538
49617.775
49623.928
49629.113
49633.439
49637.008
49639.914
49642.243
49644.073
49645.475
49646.513
49647.242
49647.712
49647.968
49648.046
49647.979
49647.797
49647.524
49647.18
49646.783
49646.347
49645.886
49645.408
49644.923
49644.437
49643.956
49643.484
49643.024
49642.579
49642.15
49641.74
49641.348
49640.975
49640.622
49640.288
49639.974
49639.678
49639.4
49639.141
49638.899
49638.673
49638.464
49638.271
49638.093
49637.931
49637.785
49637.655
49637.542
49637.446
49637.368
49637.307
49637.261
49637.23
49637.212
49637.205
49637.207
49637.216
49637.231
49637.249
49637.27
49637.291
49637.314
49637.337
49427.724
49458.115
49486.068
49511.643
49534.914
49555.972
49574.921
49591.876
49606.958
49620.297
49632.022
49642.266
49651.157
49658.824
49665.387
49670.965
49675.665
49679.591
49682.838
49685.491
49687.629
49689.324
49690.639
49691.631
49692.349
49692.839
49693.138
49693.28
49693.294
49693.205
49693.034
49692.798
49692.514
49692.194
49691.849
49691.488
49691.117
49690.743
49690.371
49690.004
49689.645
49689.297
49688.961
49688.639
49688.33
49688.036
49687.758
49687.494
49687.245
49687.012
49686.793
49686.588
49686.397
49686.22
49686.056
49685.905
49685.767
49685.643
49685.533
49685.437
49685.357
49685.291
49685.239
49685.202
49685.176
49685.162
49685.157
49685.159
49685.168
49685.181
49685.197
49685.215
49685.234
49685.253
49685.274
49459.579
49490.571
49519.103
49545.233
49569.037
49590.605
49610.042
49627.465
49642.995
49656.762
49668.897
49679.532
49688.799
49696.825
49703.733
49709.639
49714.654
49718.881
49722.414
49725.341
49727.74
49729.683
49731.233
49732.449
49733.379
49734.069
49734.558
49734.878
49735.061
49735.13
49735.107
49735.011
49734.858
49734.66
49734.429
49734.175
49733.904
49733.623
49733.337
49733.051
49732.767
49732.489
49732.218
49731.955
49731.703
49731.461
49731.23
49731.011
49730.804
49730.608
49730.424
49730.252
49730.091
49729.942
49729.803
49729.676
49729.56
49729.455
49729.361
49729.281
49729.213
49729.158
49729.115
49729.084
49729.063
49729.051
49729.048
49729.051
49729.059
49729.07
49729.084
49729.1
49729.116
49729.133
49729.151
49455.533
49489.561
49521.067
49550.09
49576.689
49600.94
49622.934
49642.778
49660.587
49676.487
49690.607
49703.079
49714.038
49723.614
49731.936
49739.128
49745.307
49750.583
49755.06
49758.832
49761.987
49764.605
49766.756
49768.506
49769.91
49771.02
49771.88
49772.53
49773.003
49773.329
49773.533
49773.638
49773.662
49773.621
49773.528
49773.396
49773.234
49773.049
49772.849
49772.638
49772.422
49772.203
49771.985
49771.77
49771.56
49771.356
49771.159
49770.97
49770.789
49770.618
49770.456
49770.303
49770.159
49770.025
49769.899
49769.783
49769.676
49769.578
49769.49
49769.411
49769.344
49769.287
49769.241
49769.205
49769.18
49769.163
49769.154
49769.151
49769.154
49769.162
49769.172
49769.184
49769.198
49769.212
49769.226
49769.241
49446.204
49483.251
49517.735
49549.675
49579.109
49606.096
49630.715
49653.057
49673.232
49691.355
49707.554
49721.958
49734.703
49745.922
49755.748
49764.309
49771.731
49778.131
49783.62
49788.302
49792.271
49795.615
49798.414
49800.739
49802.654
49804.217
49805.477
49806.481
49807.267
49807.869
49808.317
49808.636
49808.85
49808.976
49809.031
49809.03
49808.982
49808.899
49808.789
49808.658
49808.512
49808.356
49808.193
49808.028
49807.861
49807.696
49807.534
49807.377
49807.224
49807.077
49806.937
49806.804
49806.677
49806.558
49806.447
49806.342
49806.245
49806.156
49806.074
49806
49805.935
49805.878
49805.831
49805.793
49805.764
49805.743
49805.729
49805.722
49805.72
49805.723
49805.73
49805.739
49805.75
49805.761
49805.773
49805.786
49805.799
49471.848
49509.302
49544.169
49576.467
49606.236
49633.538
49658.452
49681.072
49701.507
49719.877
49736.31
49750.937
49763.894
49775.317
49785.338
49794.089
49801.693
49808.269
49813.928
49818.774
49822.902
49826.4
49829.346
49831.814
49833.865
49835.559
49836.945
49838.069
49838.969
49839.679
49840.23
49840.648
49840.953
49841.167
49841.304
49841.38
49841.405
49841.39
49841.343
49841.272
49841.182
49841.078
49840.964
49840.843
49840.719
49840.593
49840.468
49840.344
49840.223
49840.105
49839.992
49839.884
49839.781
49839.683
49839.591
49839.505
49839.425
49839.351
49839.283
49839.222
49839.167
49839.121
49839.082
49839.05
49839.026
49839.009
49838.998
49838.993
49838.992
49838.995
49839
49839.008