/*--------------------------------*- C++ -*----------------------------------*\
| =========                 |                                                 |
| \\      /  F ield         | OpenFOAM: The Open Source CFD Toolbox           |
|  \\    /   O peration     | Version:  2506                                  |
|   \\  /    A nd           | Website:  www.openfoam.com                      |
|    \\/     M anipulation  |                                                 |
\*---------------------------------------------------------------------------*/
FoamFile
{
    version     2.0;
    format      ascii;
    arch        "LSB;label=32;scalar=64";
    class       volVectorField;
    location    "0.00033";
    object      U;
}
// * * * * * * * * * * * * * * * * * * * * * * * * * * * * * * * * * * * * * //

dimensions      [0 1 -1 0 0 0 0];

internalField   nonuniform List<vector> 
3415
(
(-16.488692 -18.875991 -3.5110122e-23)
(-29.271188 0.76264324 0)
(-3.6766404 -48.858406 3.2957408e-23)
(61.649808 -102.57202 -5.5602318e-23)
(61.625044 -120.55347 4.8920706e-22)
(65.066462 -127.6702 -4.0094037e-22)
(66.939285 -128.81183 -3.2860846e-22)
(70.959536 -108.37623 -8.0533675e-24)
(74.94976 -92.743341 3.6365308e-22)
(77.013069 -61.868484 0)
(80.281767 -46.174627 0)
(84.407251 -22.84502 -2.40969e-22)
(85.340594 -13.58738 2.2173779e-22)
(86.912812 -4.4267785 0)
(87.910083 2.6210348 1.882256e-22)
(88.813306 8.8010919 7.3417544e-28)
(89.60927 14.357922 -4.7861518e-22)
(90.246681 18.849662 0)
(90.672334 21.858932 0)
(90.897774 23.454131 0)
(90.990666 24.111592 -2.2894687e-22)
(91.020524 24.322937 -1.0532585e-22)
(91.028138 24.376761 -3.8758038e-22)
(91.029688 24.387859 -8.9125218e-23)
(91.02996 24.38974 -2.4589507e-22)
(91.029999 24.389988 0)
(91.030004 24.390009 -6.9288033e-23)
(91.030003 24.390004 -6.368326e-23)
(91.030003 24.390001 0)
(91.030002 24.390003 0)
(91.030002 24.390004 4.4440325e-22)
(91.030002 24.390003 0)
(91.030001 24.389998 -4.1617132e-23)
(91.029999 24.389991 0)
(91.029999 24.389991 6.3054122e-22)
(91.029999 24.389996 -1.0599906e-21)
(91.03 24.390005 -4.7106414e-22)
(91.03 24.390013 0)
(91.03 24.390013 7.9042743e-22)
(91.03 24.39001 0)
(91.03 24.390005 6.6183522e-22)
(91.03 24.390002 0)
(91.03 24.39 -1.7278255e-23)
(91.03 24.390001 -2.0036943e-21)
(91.03 24.390002 9.2133683e-22)
(91.03 24.390002 0)
(91.03 24.390001 1.5308287e-21)
(91.03 24.390002 -2.7872297e-21)
(91.03 24.39 0)
(91.03 24.39 0)
(91.029999 24.390001 4.0845269e-24)
(91.029999 24.390003 1.8891198e-21)
(91.029999 24.390002 0)
(91.029999 24.39 1.5576533e-21)
(91.03 24.389998 -2.8100709e-21)
(91.03 24.389998 0)
(91.03 24.389998 1.1165711e-24)
(91.03 24.389999 -4.118512e-21)
(91.03 24.39 0)
(91.03 24.39 6.6472105e-21)
(91.03 24.39 -2.9796151e-21)
(91.03 24.39 2.6666937e-21)
(-90.262644 -26.144017 5.886391e-23)
(-15.003518 -69.151485 -9.27216e-22)
(58.80243 -106.71475 -1.6477722e-23)
(66.005516 -117.06482 1.4419506e-21)
(64.656275 -127.49427 -6.8122481e-22)
(66.644356 -131.05092 0)
(69.904229 -128.59007 5.0450021e-22)
(72.029853 -106.50641 -1.0712968e-21)
(76.018968 -89.946961 -7.2725796e-23)
(78.909891 -59.748476 5.0895459e-22)
(81.589084 -44.310116 -4.2747852e-22)
(84.606347 -21.70533 4.4250005e-22)
(85.797071 -12.820919 3.0854767e-27)
(87.067097 -3.6853719 0)
(88.031535 3.1653218 1.5419063e-22)
(88.895051 9.2806129 -7.0996334e-23)
(89.667172 14.74585 -1.3074973e-22)
(90.285176 19.119534 -1.2038694e-22)
(90.694008 22.012722 2.2167452e-22)
(90.907555 23.52372 -1.0203526e-22)
(90.99414 24.136295 0)
(91.021497 24.32985 -1.7289552e-22)
(91.028356 24.378309 1.5911538e-22)
(91.029728 24.388143 0)
(91.029966 24.389782 -2.6942285e-22)
(91.03 24.389992 -1.2392475e-22)
(91.030004 24.390009 1.1398674e-22)
(91.030003 24.390003 3.1447702e-22)
(91.030002 24.390001 9.6381441e-23)
(91.030003 24.390003 -8.8602699e-23)
(91.030002 24.390005 -3.257418e-22)
(91.030002 24.390003 6.734676e-22)
(91.030001 24.389998 0)
(91.029999 24.389991 0)
(91.029999 24.389991 -9.2743261e-22)
(91.029999 24.389996 0)
(91.03 24.390005 7.8109296e-22)
(91.03 24.390013 -7.1643421e-22)
(91.03 24.390013 2.052793e-23)
(91.03 24.39001 -1.8813486e-23)
(91.03 24.390005 0)
(91.03 24.390002 -1.0100406e-21)
(91.03 24.390001 0)
(91.03 24.390001 8.4555797e-22)
(91.03 24.390002 -7.7297264e-22)
(91.03 24.390002 0)
(91.03 24.390001 -1.299575e-21)
(91.03 24.390002 1.1765205e-21)
(91.03 24.39 8.37987e-24)
(91.03 24.39 -9.7711672e-22)
(91.029999 24.390001 0)
(91.029999 24.390003 -1.6175945e-21)
(91.029999 24.390002 5.7408122e-24)
(91.029999 24.39 -2.6730553e-21)
(91.03 24.389998 0)
(91.03 24.389998 0)
(91.03 24.389998 1.9819357e-21)
(91.03 24.389999 1.7908485e-21)
(91.03 24.39 -3.2315652e-21)
(91.03 24.39 -2.9147002e-21)
(91.03 24.39 6.4017315e-25)
(91.03 24.39 0)
(91.03 24.39 2.116359e-21)
(91.03 24.39 -1.8513403e-24)
(-12.334582 -87.653945 -8.7663919e-22)
(57.914633 -118.20805 8.1692846e-22)
(66.880632 -118.13875 2.34879e-23)
(67.930578 -122.66748 3.9260119e-25)
(67.183427 -130.95588 3.578865e-23)
(67.65929 -133.42394 0)
(68.990732 -128.90477 3.0093032e-23)
(71.838843 -107.80012 4.6414038e-22)
(74.762643 -89.522132 -4.3180592e-22)
(79.005644 -59.878967 1.2657471e-27)
(81.19551 -44.2758 4.8403427e-23)
(84.531146 -21.703729 3.1362355e-22)
(85.766276 -12.822748 -4.1241467e-22)
(87.059029 -3.6910014 0)
(88.027445 3.1555466 -1.4006666e-22)
(88.891647 9.2691293 6.449875e-23)
(89.664068 14.733678 1.1879492e-22)
(90.282833 19.109044 -1.0939102e-22)
(90.692613 22.005763 0)
(90.906915 23.520218 0)
(90.993911 24.134962 0)
(91.021433 24.329453 1.5718407e-22)
(91.028341 24.378223 -1.4467865e-22)
(91.029723 24.388131 1.3315306e-22)
(91.029966 24.389776 -1.3578729e-30)
(91.03 24.389991 -1.1274187e-22)
(91.030004 24.390008 2.0743852e-22)
(91.030003 24.390003 0)
(91.030002 24.390001 -8.7743106e-23)
(91.030002 24.390003 -3.2273227e-22)
(91.030002 24.390004 -4.4506887e-22)
(91.030001 24.390003 -2.0454509e-22)
(91.03 24.389998 2.5062629e-22)
(91.029999 24.389991 4.6051925e-22)
(91.029999 24.389991 4.229891e-22)
(91.029999 24.389996 3.8840758e-22)
(91.03 24.390005 -3.1198515e-22)
(91.030001 24.390013 6.1350258e-22)
(91.03 24.390013 -6.0032045e-22)
(91.03 24.39001 -3.4406015e-23)
(91.03 24.390005 -9.7770096e-22)
(91.03 24.390002 9.2472195e-22)
(91.03 24.390001 -8.7336945e-22)
(91.03 24.390001 4.8452756e-23)
(91.03 24.390002 7.0926854e-22)
(91.03 24.390002 -2.0266961e-23)
(91.03 24.390001 1.1852894e-21)
(91.03 24.390002 0)
(91.03 24.39 0)
(91.03 24.39 9.0795392e-22)
(91.029999 24.390001 -6.4137827e-24)
(91.029999 24.390003 0)
(91.029999 24.390002 5.3124266e-24)
(91.029999 24.39 1.23123e-21)
(91.03 24.389998 -2.2445816e-21)
(91.03 24.389998 2.0359941e-21)
(91.03 24.389998 1.8412227e-21)
(91.03 24.389999 -1.6696718e-21)
(91.03 24.39 3.0217727e-21)
(91.03 24.39 1.3308806e-24)
(91.03 24.39 -1.2001173e-24)
(91.03 24.39 0)
(91.03 24.39 1.9905102e-21)
(91.03 24.39 -3.575986e-21)
(68.281029 -126.76392 0)
(68.933392 -120.96832 6.843087e-22)
(69.76141 -124.12543 6.7834295e-23)
(68.580574 -131.66275 -3.7465267e-23)
(68.397379 -133.7765 -4.5523608e-22)
(69.079395 -128.78743 0)
(72.053379 -108.02528 5.3334911e-23)
(74.626661 -89.456847 3.6226066e-22)
(78.92743 -59.945959 -4.3102945e-22)
(81.16699 -44.341913 -3.6209562e-22)
(84.521923 -21.730646 3.3310471e-22)
(85.765165 -12.842575 0)
(87.06307 -3.6961644 -7.0929665e-23)
(88.029749 3.1526519 2.6133179e-22)
(88.892817 9.2660128 -2.40692e-22)
(89.665127 14.730067 -2.2166985e-22)
(90.283693 19.105898 -1.0206813e-22)
(90.693117 22.003738 1.879784e-22)
(90.907133 23.519256 8.6542788e-23)
(90.99398 24.134624 0)
(91.02145 24.329361 -2.9342301e-22)
(91.028341 24.378206 2.7010639e-22)
(91.029723 24.38813 1.2430889e-22)
(91.029969 24.389773 1.1440656e-22)
(91.030001 24.38999 -1.0527906e-22)
(91.030004 24.390008 0)
(91.030003 24.390003 -2.6734973e-22)
(91.030002 24.390001 0)
(91.030003 24.390003 0)
(91.030002 24.390004 2.079779e-22)
(91.030001 24.390003 3.1867568e-22)
(91.03 24.389998 -2.343348e-22)
(91.029999 24.389991 -5.3836389e-23)
(91.029999 24.389991 -3.4623124e-22)
(91.029999 24.389996 3.6344048e-22)
(91.03 24.390006 0)
(91.030001 24.390013 0)
(91.03 24.390013 5.6229374e-22)
(91.03 24.39001 0)
(91.03 24.390005 4.7301614e-22)
(91.03 24.390002 0)
(91.03 24.390001 7.9458449e-22)
(91.03 24.390001 2.2741179e-23)
(91.03 24.390002 -6.8695895e-22)
(91.03 24.390002 1.199869e-21)
(91.03 24.390001 -1.0971319e-21)
(91.03 24.390002 1.0344559e-21)
(91.03 24.39 0)
(91.03 24.39 -1.3264339e-23)
(91.029999 24.390001 -1.5483684e-21)
(91.029999 24.390003 0)
(91.029999 24.390002 0)
(91.029999 24.39 1.168716e-21)
(91.03 24.389998 2.1202452e-21)
(91.03 24.389998 -1.928986e-21)
(91.03 24.389998 -3.4961072e-21)
(91.03 24.389999 3.0965557e-24)
(91.03 24.39 -2.8699523e-21)
(91.03 24.39 2.5919216e-21)
(91.03 24.39 1.1438415e-24)
(91.03 24.39 -1.0314835e-24)
(91.03 24.39 -3.8047452e-21)
(91.03 24.39 3.42173e-21)
(69.232905 -126.2161 0)
(69.970033 -122.33434 6.6605854e-22)
(70.043458 -124.21468 -4.1742795e-23)
(68.819786 -131.73501 -5.06923e-22)
(68.517368 -133.73902 -2.8585992e-23)
(69.082698 -128.73893 -4.5578416e-22)
(72.055472 -108.08872 3.9656197e-22)
(74.631927 -89.484796 4.8226895e-23)
(78.89309 -59.979968 0)
(81.140287 -44.382705 -4.2615957e-23)
(84.517175 -21.759972 3.9437755e-22)
(85.765186 -12.857649 -2.904726e-22)
(87.06437 -3.6991378 -2.3171311e-29)
(88.033422 3.146542 -1.2335817e-22)
(88.897445 9.2580344 4.544822e-22)
(89.668504 14.722315 -2.0929192e-22)
(90.285411 19.100091 0)
(90.693779 22.000275 0)
(90.907326 23.517676 1.6344943e-22)
(90.994021 24.134063 -1.5049873e-22)
(91.021456 24.329201 1.3856349e-22)
(91.028341 24.378175 -1.2756292e-22)
(91.029722 24.388126 2.348484e-22)
(91.029968 24.389768 -2.1615944e-22)
(91.030001 24.38999 9.9467487e-23)
(91.030004 24.390008 9.1531783e-23)
(91.030003 24.390003 0)
(91.030002 24.390001 0)
(91.030003 24.390003 0)
(91.030002 24.390005 -2.6216851e-22)
(91.030001 24.390003 -4.8213125e-22)
(91.03 24.389998 0)
(91.029999 24.389991 -4.5832329e-22)
(91.029999 24.389991 3.7436958e-22)
(91.029999 24.389996 4.2991434e-23)
(91.03 24.390006 0)
(91.030001 24.390013 5.8012692e-22)
(91.030001 24.390013 0)
(91.03 24.39001 -3.0541182e-23)
(91.03 24.390005 2.8015445e-23)
(91.03 24.390002 0)
(91.03 24.390001 -7.2996019e-22)
(91.03 24.390001 -2.157391e-23)
(91.03 24.390002 6.3222065e-22)
(91.03 24.390001 -1.1573675e-21)
(91.03 24.390001 1.0587683e-21)
(91.03 24.390002 0)
(91.03 24.39 8.7076016e-22)
(91.03 24.39 1.2621367e-23)
(91.029999 24.390001 0)
(91.029999 24.390003 0)
(91.029999 24.390002 -1.2248492e-21)
(91.029999 24.39 -2.2214847e-21)
(91.03 24.389998 -7.9240528e-24)
(91.03 24.389998 1.8398659e-21)
(91.03 24.389998 1.6769048e-21)
(91.03 24.389999 0)
(91.03 24.39 2.7502495e-21)
(91.03 24.39 -2.4887339e-21)
(91.03 24.39 2.2484123e-21)
(91.03 24.39 0)
(91.03 24.39 -3.6608324e-21)
(91.03 24.39 3.2967237e-21)
(69.789385 -126.8049 -6.9664126e-22)
(70.277587 -122.43619 -6.3381884e-22)
(70.054601 -124.09645 5.4288704e-22)
(68.930565 -131.68207 0)
(68.617189 -133.6895 4.1092322e-22)
(69.241929 -128.74539 -3.746803e-22)
(72.152032 -108.09864 3.8849403e-22)
(74.752998 -89.572589 -7.3259902e-22)
(78.901085 -60.021228 3.4357132e-22)
(81.142251 -44.430459 3.2520159e-22)
(84.537119 -21.794597 -7.4942923e-22)
(85.772969 -12.883009 2.7638938e-22)
(87.076255 -3.7110699 6.3715627e-23)
(88.042679 3.1428311 -2.9346249e-22)
(88.90351 9.2549116 2.1624582e-22)
(89.672485 14.719879 1.9917385e-22)
(90.287864 19.098423 9.1718821e-23)
(90.695032 21.999392 -8.4468303e-23)
(90.907815 23.517338 1.5557103e-22)
(90.994172 24.133965 -1.4325292e-22)
(91.021493 24.329178 0)
(91.028346 24.378174 1.2143677e-22)
(91.029735 24.388125 -3.3537331e-22)
(91.029969 24.389765 1.0290228e-22)
(91.030001 24.38999 0)
(91.030004 24.390008 0)
(91.030003 24.390003 0)
(91.030003 24.390001 -2.9518479e-22)
(91.030003 24.390003 2.0366178e-22)
(91.030001 24.390005 6.2441808e-23)
(91.030001 24.390004 2.2969321e-22)
(91.029999 24.389998 4.2238965e-22)
(91.029999 24.389991 0)
(91.029999 24.389991 0)
(91.029999 24.389996 -3.6890617e-22)
(91.03 24.390006 -3.0124898e-22)
(91.030001 24.390014 -5.1875384e-22)
(91.030001 24.390014 -5.3979882e-22)
(91.03 24.39001 2.9144732e-23)
(91.03 24.390005 0)
(91.03 24.390002 -7.8490995e-22)
(91.03 24.390001 7.1966664e-22)
(91.03 24.390001 2.061162e-23)
(91.03 24.390002 -6.2310453e-22)
(91.03 24.390001 0)
(91.03 24.390001 1.0284951e-21)
(91.03 24.390002 -1.8671157e-21)
(91.03 24.39 -8.4680629e-22)
(91.03 24.39 1.2088371e-23)
(91.029999 24.390001 1.4016625e-21)
(91.029999 24.390003 0)
(91.029999 24.390002 9.1801181e-24)
(91.029999 24.39 0)
(91.03 24.389998 1.9409709e-21)
(91.03 24.389998 -1.7719974e-21)
(91.03 24.389998 0)
(91.03 24.389999 1.4612082e-21)
(91.03 24.39 0)
(91.03 24.39 -2.3435472e-24)
(91.03 24.39 -2.1689078e-21)
(91.03 24.39 -9.5785338e-25)
(91.03 24.39 8.6441052e-25)
(91.03 24.39 -3.1910004e-21)
(70.28105 -122.45586 -1.1771385e-21)
(70.048889 -124.02836 0)
(68.940623 -131.64841 9.166448e-22)
(68.634232 -133.66226 -7.8255319e-22)
(69.283461 -128.74435 7.8182717e-22)
(72.203893 -108.10089 -7.2211366e-22)
(74.824317 -89.619901 -7.1024122e-22)
(79.028181 -60.070937 6.5755121e-22)
(81.136447 -44.461272 0)
(84.550337 -21.810948 7.1780124e-23)
(85.7875 -12.894781 0)
(87.083594 -3.7184291 0)
(88.050102 3.1367736 -4.4940779e-22)
(88.909309 9.2502649 1.034889e-22)
(89.67636 14.71662 6.672587e-22)
(90.289988 19.096493 -8.7794357e-23)
(90.695928 21.998366 -2.425759e-22)
(90.908122 23.516849 -3.7232325e-22)
(90.994259 24.133766 2.7428724e-22)
(91.021513 24.329114 0)
(91.02835 24.378155 2.325406e-22)
(91.02974 24.388123 -2.1408399e-22)
(91.02997 24.389765 0)
(91.030001 24.38999 -1.8140218e-22)
(91.030004 24.390008 -1.6695628e-22)
(91.030003 24.390003 1.5364274e-22)
(91.030003 24.390001 1.4137583e-22)
(91.030002 24.390004 2.6013651e-22)
(91.030001 24.390005 2.3929504e-22)
(91.030001 24.390004 0)
(91.029999 24.389998 -4.0477399e-22)
(91.029999 24.389991 3.7215052e-22)
(91.029999 24.389991 -2.993267e-22)
(91.029999 24.389996 3.1437997e-22)
(91.03 24.390006 2.5274997e-22)
(91.030001 24.390014 0)
(91.030001 24.390014 0)
(91.03 24.39001 -2.7961892e-23)
(91.03 24.390005 2.5661751e-23)
(91.03 24.390002 0)
(91.03 24.390001 0)
(91.03 24.390001 -6.3343217e-22)
(91.03 24.390002 5.8044719e-22)
(91.03 24.390001 1.0633379e-21)
(91.03 24.390001 -9.7347809e-22)
(91.03 24.390002 1.7815536e-21)
(91.03 24.39 0)
(91.03 24.39 0)
(91.029999 24.390001 1.3601773e-21)
(91.029998 24.390003 9.6996258e-24)
(91.029998 24.390002 2.2649103e-21)
(91.029999 24.39 1.0241087e-21)
(91.03 24.389998 -3.7526542e-21)
(91.03 24.389998 0)
(91.03 24.389998 -1.5612197e-21)
(91.03 24.389999 1.4069108e-21)
(91.03 24.39 5.0059419e-24)
(91.03 24.39 -2.3207226e-21)
(91.03 24.39 -2.0538529e-24)
(91.03 24.39 0)
(91.03 24.39 3.4354574e-21)
(91.03 24.39 3.0989245e-21)
(70.273269 -122.46079 1.1316211e-21)
(70.037271 -123.98927 0)
(68.92977 -131.62745 0)
(68.620869 -133.64735 -2.5023885e-23)
(69.272395 -128.75672 0)
(72.219751 -108.09254 -4.4051017e-23)
(74.816736 -89.689256 -4.2200708e-23)
(79.086179 -60.111791 0)
(81.186265 -44.503776 0)
(84.561228 -21.820768 0)
(85.801459 -12.899021 0)
(87.093976 -3.7194121 0)
(88.056866 3.1385314 0)
(88.913932 9.2517992 -9.9505017e-23)
(89.678901 14.717342 0)
(90.290955 19.096624 3.3767103e-22)
(90.696226 21.998286 -3.8876263e-22)
(90.908183 23.516775 0)
(90.994257 24.133737 -2.6376989e-22)
(91.021507 24.329106 3.643346e-22)
(91.028348 24.378154 -2.2364472e-22)
(91.029739 24.388121 -3.0886075e-22)
(91.029969 24.389765 1.8955995e-22)
(91.030001 24.389989 0)
(91.030004 24.390008 -1.606095e-22)
(91.030003 24.390003 2.9562533e-22)
(91.030003 24.390002 1.3601972e-22)
(91.030002 24.390004 -3.7545188e-22)
(91.030001 24.390006 0)
(91.03 24.390004 0)
(91.029999 24.389998 9.7396091e-23)
(91.029998 24.38999 -4.4778242e-22)
(91.029998 24.389991 3.2932777e-22)
(91.029999 24.389996 -3.0269843e-22)
(91.03 24.390006 -5.5631979e-22)
(91.030001 24.390014 0)
(91.030001 24.390014 5.2810283e-22)
(91.03 24.39001 -5.3879361e-23)
(91.03 24.390005 -4.9457067e-23)
(91.03 24.390002 1.4976653e-21)
(91.03 24.390001 -6.6610747e-22)
(91.03 24.390001 6.1079968e-22)
(91.03 24.390002 0)
(91.03 24.390001 0)
(91.03 24.390001 0)
(91.03 24.390001 -8.59927e-22)
(91.03 24.39 7.8667666e-22)
(91.03 24.39 0)
(91.029999 24.390001 -2.628975e-21)
(91.029998 24.390003 9.3776307e-24)
(91.029998 24.390002 -1.1124354e-21)
(91.029999 24.39 -1.989799e-21)
(91.03 24.389998 1.8201107e-21)
(91.03 24.389998 6.4726621e-24)
(91.03 24.389998 -5.8875145e-24)
(91.03 24.389999 -1.3696888e-21)
(91.03 24.39 2.4918468e-21)
(91.03 24.39 2.253295e-21)
(91.03 24.39 -2.045381e-21)
(91.03 24.39 1.8473184e-21)
(91.03 24.39 -3.3418238e-21)
(91.03 24.39 7.3670211e-25)
(70.277882 -122.43718 1.0910579e-21)
(70.019246 -123.90229 -9.9375297e-22)
(68.91686 -131.56719 0)
(68.598755 -133.59294 7.7775555e-22)
(69.238221 -128.77128 -7.0992346e-22)
(72.242646 -108.09752 4.2497074e-23)
(74.784626 -89.76941 4.0711737e-23)
(79.109303 -60.14415 -6.2092655e-22)
(81.236626 -44.540302 5.7200056e-22)
(84.56197 -21.821563 -6.6580037e-23)
(85.809794 -12.890581 -4.9124904e-22)
(87.09811 -3.7134439 4.524745e-22)
(88.058982 3.1422682 -4.1691315e-22)
(88.915322 9.2538503 3.8404926e-22)
(89.679609 14.718335 2.6531633e-22)
(90.291219 19.096838 -6.5166955e-22)
(90.696296 21.998251 1.5005873e-22)
(90.908197 23.516702 2.7640399e-22)
(90.994264 24.133689 0)
(91.021509 24.329086 1.1720408e-22)
(91.028348 24.378148 2.1584416e-22)
(91.029739 24.38812 9.9367182e-23)
(91.029969 24.389765 0)
(91.030001 24.389989 -1.6843368e-22)
(91.030003 24.390008 0)
(91.030003 24.390003 0)
(91.030002 24.390002 -1.3131947e-22)
(91.030002 24.390004 0)
(91.030001 24.390006 0)
(91.03 24.390004 -1.0226742e-22)
(91.029999 24.389998 0)
(91.029998 24.38999 -2.5949549e-22)
(91.029998 24.389991 3.976453e-22)
(91.029999 24.389996 -7.31073e-23)
(91.03 24.390006 5.3751336e-22)
(91.030001 24.390014 -6.1733831e-23)
(91.030001 24.390014 -4.5368227e-22)
(91.03 24.39001 5.2080729e-23)
(91.03 24.390005 -3.8251907e-22)
(91.03 24.390002 -7.0214481e-22)
(91.03 24.390001 6.4422085e-22)
(91.03 24.390001 0)
(91.03 24.390002 0)
(91.03 24.390002 -9.9285331e-22)
(91.03 24.390001 0)
(91.03 24.390001 -2.602141e-23)
(91.03 24.39 -7.38173e-22)
(91.03 24.39 1.0889344e-23)
(91.029999 24.390001 -9.953577e-24)
(91.029998 24.390003 -9.0925016e-24)
(91.029998 24.390002 8.3002589e-24)
(91.03 24.39 0)
(91.03 24.389998 1.7600329e-21)
(91.03 24.389998 1.6219052e-21)
(91.03 24.389998 1.464557e-21)
(91.03 24.389999 -5.2016073e-24)
(91.03 24.39 -2.4144486e-21)
(91.03 24.39 2.1909791e-21)
(91.03 24.39 3.978016e-21)
(91.03 24.39 -1.7984198e-21)
(91.03 24.39 3.2579136e-21)
(91.03 24.39 0)
(70.319331 -122.40509 0)
(70.05069 -123.79598 2.8973863e-23)
(68.944199 -131.5016 0)
(68.619328 -133.53831 -2.336388e-23)
(69.235151 -128.83949 0)
(72.256437 -108.12881 0)
(74.774715 -89.874863 -5.9785462e-22)
(79.075263 -60.180087 5.9002398e-22)
(81.257063 -44.566692 -3.4822522e-23)
(84.565231 -21.822377 -4.5138058e-22)
(85.810486 -12.885267 4.1544721e-22)
(87.098585 -3.7094761 5.4739698e-23)
(88.060136 3.1437921 4.0343377e-22)
(88.915737 9.2548062 -4.6454443e-22)
(89.679651 14.718733 -1.7116787e-22)
(90.291218 19.096882 3.9415846e-22)
(90.696259 21.998115 7.8569719e-31)
(90.908167 23.516567 1.3375042e-22)
(90.994249 24.133619 -3.6953697e-22)
(91.021504 24.329062 0)
(91.028346 24.378141 -3.1336999e-22)
(91.029739 24.388118 3.847214e-22)
(91.029969 24.389765 -1.7710567e-22)
(91.03 24.389989 0)
(91.030003 24.390008 1.5008852e-22)
(91.030003 24.390003 2.7629232e-22)
(91.030002 24.390002 -2.5428126e-22)
(91.030001 24.390005 1.169972e-22)
(91.03 24.390006 0)
(91.03 24.390004 -1.9806806e-22)
(91.029999 24.389998 0)
(91.029998 24.38999 3.3511165e-22)
(91.029998 24.389991 -3.851753e-22)
(91.029999 24.389997 3.541087e-22)
(91.03 24.390006 -6.5096118e-23)
(91.030001 24.390014 4.7854379e-22)
(91.030001 24.390014 5.4957224e-23)
(91.03 24.39001 -3.5334588e-22)
(91.03 24.390005 3.2445268e-22)
(91.03 24.390002 0)
(91.03 24.390001 5.8565514e-22)
(91.03 24.390001 6.0886427e-22)
(91.03 24.390002 -5.2549016e-22)
(91.03 24.390002 9.3324579e-22)
(91.03 24.390001 2.7582687e-23)
(91.03 24.390001 2.5260248e-23)
(91.03 24.39 -2.3121913e-23)
(91.03 24.39 1.3538099e-21)
(91.029999 24.390002 2.4756931e-21)
(91.029998 24.390003 8.8369352e-24)
(91.029998 24.390002 -8.0698542e-24)
(91.03 24.389999 0)
(91.03 24.389998 -1.7124485e-21)
(91.03 24.389998 -1.2238132e-23)
(91.03 24.389998 0)
(91.03 24.389999 1.2973144e-21)
(91.03 24.39 -2.3534122e-21)
(91.03 24.39 -4.2775876e-21)
(91.03 24.39 0)
(91.03 24.39 -3.4360126e-24)
(91.03 24.39 -1.5547638e-24)
(70.128863 -123.70002 8.9513237e-22)
(69.016159 -131.4438 -8.038664e-22)
(68.688071 -133.4942 4.5321205e-23)
(69.270837 -128.89503 0)
(72.263279 -108.15259 0)
(74.780956 -89.944303 -3.8202417e-23)
(79.054236 -60.21825 0)
(81.245346 -44.60377 3.3776746e-23)
(84.571596 -21.83535 6.2489291e-23)
(85.808814 -12.885046 -1.0461607e-28)
(87.098872 -3.707859 3.716919e-22)
(88.060321 3.1448803 4.892838e-23)
(88.915605 9.254814 1.8025107e-22)
(89.679211 14.718034 -8.302178e-23)
(90.290772 19.095702 -3.8236917e-22)
(90.695916 21.997031 -4.2263605e-22)
(90.907999 23.515909 1.2975444e-22)
(90.994186 24.133351 4.7800916e-22)
(91.021485 24.32898 -1.1005393e-22)
(91.028342 24.378121 2.0269075e-22)
(91.029737 24.388114 -1.8663784e-22)
(91.029969 24.389764 0)
(91.03 24.389989 0)
(91.030003 24.390008 -1.4564191e-22)
(91.030002 24.390003 2.6812013e-22)
(91.030001 24.390002 -1.2338667e-22)
(91.030001 24.390005 1.1354935e-22)
(91.03 24.390007 -1.0448341e-22)
(91.03 24.390005 2.8838469e-22)
(91.029999 24.389998 -8.8428624e-23)
(91.029998 24.38999 -8.133251e-23)
(91.029998 24.389991 0)
(91.03 24.389997 6.8766361e-23)
(91.03 24.390006 0)
(91.030001 24.390014 -4.6475378e-22)
(91.030001 24.390014 3.7365467e-22)
(91.03 24.39001 8.3359382e-22)
(91.03 24.390005 0)
(91.03 24.390002 7.0281751e-22)
(91.03 24.390001 -6.0710975e-22)
(91.03 24.390001 -5.9181527e-22)
(91.03 24.390002 0)
(91.03 24.390002 -9.3673661e-22)
(91.03 24.390002 0)
(91.03 24.390001 0)
(91.03 24.39 2.2498178e-23)
(91.03 24.39 -1.3382223e-21)
(91.029999 24.390002 -2.4290285e-21)
(91.029998 24.390003 0)
(91.029999 24.390002 0)
(91.03 24.389999 1.8514404e-21)
(91.03 24.389998 0)
(91.03 24.389998 -1.5275829e-21)
(91.03 24.389998 1.3913256e-21)
(91.03 24.389999 1.2611875e-21)
(91.03 24.39 4.4968207e-24)
(91.03 24.39 4.182638e-21)
(91.03 24.39 -1.9014241e-21)
(91.03 24.39 -1.7169095e-21)
(91.03 24.39 -3.115329e-21)
(70.224186 -123.57318 8.5232443e-22)
(69.104562 -131.35411 7.7576311e-22)
(68.77786 -133.41383 -7.2838775e-22)
(69.336489 -128.89703 6.6115869e-22)
(72.278329 -108.17686 -6.105852e-22)
(74.804868 -90.010857 0)
(79.041188 -60.256985 0)
(81.246407 -44.648686 0)
(84.587144 -21.859809 -6.0738601e-23)
(85.805165 -12.898283 -3.9215604e-22)
(87.101399 -3.7106772 -8.5183253e-26)
(88.061666 3.1435126 2.8528023e-22)
(88.915929 9.2532417 2.6281876e-22)
(89.678917 14.714871 -2.4210584e-22)
(90.290233 19.092166 -7.4338178e-23)
(90.695496 21.994399 0)
(90.907776 23.514531 -1.261365e-22)
(90.994096 24.132826 -1.1617315e-22)
(91.021457 24.328827 2.1398197e-22)
(91.028335 24.378085 -1.9705559e-22)
(91.029736 24.388107 3.6291014e-22)
(91.029968 24.389763 -3.3415326e-22)
(91.03 24.389989 1.5382761e-22)
(91.030003 24.390007 0)
(91.030002 24.390003 1.3035889e-22)
(91.030001 24.390003 -1.1998606e-22)
(91.03 24.390005 2.2085137e-22)
(91.03 24.390007 1.016142e-22)
(91.03 24.390005 0)
(91.029999 24.389998 8.6012002e-23)
(91.029998 24.38999 -7.9115508e-23)
(91.029999 24.389991 3.6379971e-22)
(91.03 24.389997 -2.6761182e-22)
(91.03 24.390006 -5.5355152e-22)
(91.030001 24.390014 -5.6531093e-23)
(91.030001 24.390014 5.1948238e-23)
(91.03 24.39001 0)
(91.03 24.390005 0)
(91.03 24.390002 -4.0248974e-23)
(91.03 24.390001 0)
(91.03 24.390001 3.3902179e-23)
(91.03 24.390002 3.1099242e-23)
(91.03 24.390002 -5.7033642e-23)
(91.03 24.390002 5.2276406e-23)
(91.03 24.390001 -2.3947694e-23)
(91.03 24.39 6.7984106e-22)
(91.03 24.39 2.0073168e-23)
(91.029999 24.390002 1.1568924e-21)
(91.029998 24.390003 0)
(91.029999 24.390002 1.5341357e-23)
(91.03 24.389999 0)
(91.03 24.389998 -1.6362714e-21)
(91.03 24.389998 -1.4861966e-21)
(91.03 24.389998 -1.3700485e-21)
(91.03 24.389999 -2.4703362e-21)
(91.03 24.39 2.251377e-21)
(91.03 24.39 -2.0458573e-21)
(91.03 24.39 -1.8537172e-21)
(91.03 24.39 1.6844601e-21)
(91.03 24.39 6.1010105e-21)
(70.285558 -123.45333 8.8333205e-22)
(69.161318 -131.27043 7.5551027e-22)
(68.839203 -133.33839 -6.664862e-22)
(69.39866 -128.88236 6.4383469e-22)
(72.310089 -108.17797 -5.9453607e-22)
(74.828423 -90.077525 5.8481431e-22)
(79.071926 -60.300638 -5.4156186e-22)
(81.236715 -44.686838 4.8085822e-22)
(84.588195 -21.884331 -5.3098424e-22)
(85.806472 -12.917916 0)
(87.102709 -3.7185876 0)
(88.063719 3.1397413 4.1673949e-22)
(88.917143 9.24995 1.1266225e-27)
(89.679398 14.711403 -7.8593137e-22)
(90.29034 19.089126 3.6198434e-22)
(90.695499 21.992511 6.6686857e-23)
(90.90776 23.513663 1.228477e-22)
(90.994082 24.132522 0)
(91.021452 24.328736 2.0841286e-22)
(91.028334 24.378063 9.5966108e-23)
(91.029736 24.388103 -3.5348515e-22)
(91.029968 24.389762 0)
(91.03 24.389989 1.4984272e-22)
(91.030002 24.390007 0)
(91.030001 24.390003 -3.8097592e-22)
(91.03 24.390003 0)
(91.03 24.390006 0)
(91.03 24.390007 -9.9002815e-23)
(91.03 24.390005 -9.1098296e-23)
(91.029999 24.389998 -8.3812377e-23)
(91.029998 24.38999 3.8548657e-22)
(91.029999 24.389991 -3.5454389e-22)
(91.03 24.389997 0)
(91.03 24.390006 9.5921089e-22)
(91.030001 24.390014 0)
(91.030001 24.390014 0)
(91.03 24.390009 -4.1879037e-22)
(91.03 24.390005 0)
(91.03 24.390002 -1.2168106e-21)
(91.03 24.390001 0)
(91.03 24.390001 3.307162e-23)
(91.03 24.390002 -5.1580515e-22)
(91.03 24.390002 0)
(91.03 24.390002 0)
(91.03 24.390001 -2.33764e-23)
(91.03 24.39 -6.6375818e-22)
(91.03 24.39 1.9602425e-23)
(91.029999 24.390002 -3.587362e-23)
(91.029998 24.390003 1.0662313e-21)
(91.029999 24.390002 9.7451678e-22)
(91.03 24.389999 -1.7665516e-21)
(91.03 24.389998 1.5874884e-21)
(91.03 24.389998 0)
(91.03 24.389998 1.0391655e-23)
(91.03 24.389999 4.7318875e-24)
(91.03 24.39 2.200183e-21)
(91.03 24.39 2.0040583e-21)
(91.03 24.39 1.8201462e-21)
(91.03 24.39 0)
(91.03 24.39 -5.9871016e-21)
(70.36143 -123.3621 -8.0973669e-22)
(69.229421 -131.21738 7.5996767e-22)
(68.908993 -133.29568 -6.9192718e-22)
(69.462699 -128.88476 3.8700333e-23)
(72.360173 -108.14712 0)
(74.867263 -90.121494 -5.7037691e-22)
(79.100089 -60.323532 1.0660614e-21)
(81.252585 -44.714619 -2.6533599e-23)
(84.599922 -21.896017 1.170571e-22)
(85.826565 -12.929099 -4.2523925e-22)
(87.114213 -3.7246772 4.9023439e-23)
(88.07142 3.1380787 0)
(88.922745 9.2485603 3.3287568e-22)
(89.683287 14.709884 -6.1330436e-22)
(90.292635 19.087993 2.8248147e-22)
(90.696595 21.991947 0)
(90.908164 23.51347 0)
(90.994209 24.132478 1.1037709e-22)
(91.021485 24.328728 -4.0663184e-22)
(91.028341 24.378062 1.8724312e-22)
(91.029737 24.388103 0)
(91.029968 24.389763 3.1755307e-22)
(91.029999 24.389989 -2.9238836e-22)
(91.030002 24.390007 1.3459702e-22)
(91.030001 24.390004 -2.4781755e-22)
(91.03 24.390003 2.2811761e-22)
(91.03 24.390006 -2.0996029e-22)
(91.03 24.390007 3.8645085e-22)
(91.03 24.390005 1.7780581e-22)
(91.029999 24.389998 8.1797129e-23)
(91.029998 24.38999 -3.7624025e-22)
(91.029999 24.389991 6.921234e-23)
(91.03 24.389997 0)
(91.03 24.390006 -5.8525066e-22)
(91.030001 24.390014 5.380135e-23)
(91.030001 24.390014 0)
(91.03 24.390009 4.5438136e-23)
(91.03 24.390005 -6.6786104e-22)
(91.03 24.390002 5.3671728e-22)
(91.03 24.390001 3.5199447e-23)
(91.03 24.390001 3.2308649e-23)
(91.03 24.390002 1.3933376e-21)
(91.03 24.390001 -2.7192094e-23)
(91.03 24.390002 8.2275409e-22)
(91.03 24.390001 -7.3123916e-22)
(91.03 24.39 0)
(91.03 24.39 -1.2268365e-21)
(91.029999 24.390002 -1.1228287e-21)
(91.029998 24.390003 -2.0541653e-21)
(91.029999 24.390002 -9.3895855e-22)
(91.03 24.389999 1.7291368e-21)
(91.03 24.389998 -1.2238472e-23)
(91.03 24.389998 1.4292903e-21)
(91.03 24.389998 1.0180427e-23)
(91.03 24.389999 -1.3911471e-23)
(91.03 24.39 -2.1569068e-21)
(91.03 24.39 -1.9615235e-21)
(91.03 24.39 -1.7891797e-21)
(91.03 24.39 -3.1656891e-24)
(91.03 24.39 2.9450823e-21)
(91.03 24.39 2.6596739e-21)
(70.413164 -123.27621 -5.0723103e-23)
(69.276568 -131.16063 2.3877456e-27)
(68.955566 -133.24691 6.581592e-22)
(69.501163 -128.87755 -6.384856e-22)
(72.406955 -108.11393 -5.8318286e-22)
(74.907347 -90.164639 5.770658e-22)
(79.134951 -60.348268 4.9269889e-22)
(81.282706 -44.741737 -4.2308005e-22)
(84.620397 -21.903117 -1.1269304e-22)
(85.845726 -12.93169 -4.1579326e-22)
(87.128969 -3.7199311 3.3511984e-22)
(88.082854 3.1416046 -3.9705458e-22)
(88.931829 9.2500441 -1.1271878e-27)
(89.689843 14.71091 2.9954026e-22)
(90.296667 19.08916 2.7593445e-22)
(90.698598 21.992787 6.3545097e-23)
(90.908952 23.513897 -1.1706458e-22)
(90.994461 24.132643 2.1564968e-22)
(91.021549 24.328778 -9.9309439e-23)
(91.028354 24.378074 -2.7438242e-22)
(91.02974 24.388105 1.8665559e-30)
(91.029968 24.389763 4.6536046e-22)
(91.029999 24.38999 -1.4283177e-22)
(91.030001 24.390008 -2.6301035e-22)
(91.03 24.390004 0)
(91.03 24.390004 -1.1144705e-22)
(91.03 24.390006 1.0258011e-22)
(91.03 24.390007 -1.8881948e-22)
(91.03 24.390005 -1.7375784e-22)
(91.029999 24.389997 3.9969288e-22)
(91.029999 24.389989 -7.3542491e-23)
(91.029999 24.389991 2.7059058e-22)
(91.03 24.389997 0)
(91.03 24.390007 0)
(91.030001 24.390014 3.681747e-22)
(91.030001 24.390014 4.834526e-23)
(91.03 24.390009 -3.9985086e-22)
(91.03 24.390005 6.9389967e-22)
(91.03 24.390002 0)
(91.03 24.390001 0)
(91.03 24.390001 -3.1603516e-23)
(91.03 24.390002 -8.9907192e-22)
(91.03 24.390001 2.6605966e-23)
(91.03 24.390002 -2.4398387e-23)
(91.03 24.390001 7.1569433e-22)
(91.03 24.39 6.5577161e-22)
(91.03 24.39 1.2011788e-21)
(91.029999 24.390002 0)
(91.029998 24.390003 1.0060071e-21)
(91.029999 24.390002 0)
(91.03 24.389999 0)
(91.03 24.389998 -1.1995913e-23)
(91.03 24.389998 1.0947972e-23)