/*--------------------------------*- C++ -*----------------------------------*\
| =========                 |                                                 |
| \\      /  F ield         | OpenFOAM: The Open Source CFD Toolbox           |
|  \\    /   O peration     | Version:  2506                                  |
|   \\  /    A nd           | Website:  www.openfoam.com                      |
|    \\/     M anipulation  |                                                 |
\*---------------------------------------------------------------------------*/
FoamFile
{
    version     2.0;
    format      ascii;
    arch        "LSB;label=32;scalar=64";
    class       volScalarField;
    location    "0.0125";
    object      T;
}
// * * * * * * * * * * * * * * * * * * * * * * * * * * * * * * * * * * * * * //

dimensions      [0 0 0 1 0 0 0];

internalField   nonuniform List<scalar> 
13761
(
245.48354
245.69538
245.55256
245.62155
245.53627
245.53054
245.50126
245.49335
245.48589
245.48326
245.48197
245.48167
245.47735
245.44949
245.35005
245.11554
244.73191
244.31256
244.04137
243.98036
244.04342
244.233
244.69208
245.28305
245.47328
245.16636
245.11609
245.24598
245.1469
245.0111
244.94325
244.81021
244.64993
244.514
244.36718
244.21402
244.05938
243.8927
243.72511
243.54936
243.3671
243.18198
242.98957
242.78959
245.48355
245.69508
245.55282
245.62155
245.53651
245.5306
245.50136
245.49338
245.48592
245.48327
245.48199
245.48175
245.47768
245.45053
245.35253
245.11997
244.73781
244.31833
244.04536
243.98192
244.04175
244.22599
244.67948
245.2722
245.47401
245.17007
245.11254
245.24287
245.14822
245.01079
244.9432
244.8115
244.65106
244.51528
244.36879
244.21578
244.06145
243.89506
243.72775
243.55235
243.3704
243.18568
242.99366
242.79402
245.48356
245.69477
245.55308
245.62156
245.53674
245.53065
245.50145
245.49341
245.48595
245.48328
245.48201
245.48182
245.47798
245.4515
245.35484
245.12409
244.74332
244.32374
244.04914
243.98345
244.04028
244.21953
244.66769
245.26183
245.47443
245.17365
245.10921
245.23979
245.14942
245.01046
244.94307
244.81267
244.6521
244.51648
244.37032
244.21744
244.06344
243.89734
243.73032
243.55526
243.37367
243.18933
242.99767
242.7984
242.59199
245.48357
245.69444
245.55336
245.62156
245.53698
245.53071
245.50154
245.49344
245.48597
245.4833
245.48203
245.4819
245.47829
245.4525
245.35723
245.12838
244.74909
244.32942
244.05312
243.98509
244.03883
244.21295
244.65547
245.25092
245.47462
245.17751
245.10586
245.23654
245.15066
245.01017
244.94293
244.8139
244.6532
244.51774
244.37191
244.21918
244.06551
243.8997
243.73297
243.55827
243.37707
243.19309
243.00182
242.80291
242.59687
245.48357
245.69411
245.55364
245.62157
245.53723
245.53077
245.50164
245.49348
245.486
245.48331
245.48205
245.48197
245.4786
245.45351
245.35967
245.13277
244.75499
244.33524
244.05723
243.98683
244.03745
244.20635
244.64304
245.23965
245.47454
245.18157
245.10253
245.23313
245.15191
245.00989
244.94275
244.81515
244.65432
244.51902
244.37355
244.22096
244.06762
243.90211
243.73569
243.56136
243.38055
243.19693
243.00605
242.80753
242.60185
245.48357
245.69377
245.55393
245.62158
245.53748
245.53084
245.50174
245.49351
245.48604
245.48333
245.48207
245.48205
245.47892
245.45453
245.36216
245.13726
244.76105
244.34125
244.06148
243.98867
244.03613
244.19974
244.63035
245.22798
245.47417
245.18587
245.09923
245.22958
245.15318
245.00965
244.94255
244.81643
244.65549
244.52033
244.37523
244.22279
244.06979
243.90459
243.73846
243.56455
243.38411
243.20086
243.01039
242.81225
242.60696
245.48357
245.69342
245.55423
245.62158
245.53775
245.5309
245.50185
245.49355
245.48607
245.48334
245.48209
245.48212
245.47923
245.45557
245.3647
245.14186
244.76728
244.34744
244.06588
243.99061
244.03488
244.19311
244.61742
245.21589
245.4735
245.19039
245.09597
245.22586
245.15445
245.00943
244.94231
244.81772
244.65669
244.52168
244.37696
244.22466
244.072
243.90712
243.74128
243.56784
243.38774
243.20488
243.01482
242.81709
242.61218
245.48356
245.69305
245.55455
245.62159
245.53803
245.53097
245.50196
245.49359
245.4861
245.48336
245.48211
245.4822
245.47956
245.45663
245.36729
245.14657
244.77368
244.35381
244.07044
243.99267
244.0337
244.18647
244.60425
245.20337
245.4725
245.19515
245.09276
245.22197
245.15572
245.00925
244.94204
244.81904
244.65792
244.52305
244.37873
244.22658
244.07427
243.90972
243.74417
243.57121
243.39145
243.20898
243.01936
242.82203
242.61753
242.40485
245.48356
245.69267
245.55487
245.62159
245.53831
245.53104
245.50207
245.49362
245.48613
245.48337
245.48213
245.48227
245.47988
245.4577
245.36992
245.15139
244.78025
244.36037
244.07516
243.99484
244.0326
244.17984
244.59082
245.1904
245.47114
245.20015
245.08961
245.21791
245.15699
245.00911
244.94173
244.82039
244.6592
244.52446
244.38055
244.22855
244.07659
243.91237
243.74714
243.57464
243.39525
243.21318
243.02399
242.82709
242.62299
242.41072
245.48354
245.69229
245.5552
245.6216
245.53861
245.53111
245.50219
245.49366
245.48617
245.48339
245.48215
245.48235
245.48021
245.45878
245.37261
245.15632
244.787
244.36714
244.08004
243.99714
244.03159
244.17321
244.57715
245.17696
245.46942
245.20539
245.08653
245.21366
245.15826
245.00901
244.94138
244.82175
244.66051
244.5259
244.38241
244.23057
244.07897
243.91509
243.75017
243.57814
243.39913
243.21747
243.02872
242.83225
242.62857
242.41671
245.48353
245.69188
245.55554
245.62161
245.53891
245.53118
245.50231
245.49371
245.48621
245.4834
245.48217
245.48242
245.48054
245.45988
245.37534
245.16137
244.79394
244.37411
244.08509
243.99956
244.03067
244.16661
244.56323
245.16304
245.46729
245.21087
245.08354
245.20923
245.15952
245.00894
244.94099
244.82313
244.66186
244.52736
244.38433
244.23265
244.0814
243.91787
243.75327
243.58173
243.4031
243.22185
243.03356
242.83752
242.63428
242.42283
245.4835
245.69147
245.55589
245.62162
245.53923
245.53126
245.50243
245.49375
245.48624
245.48342
245.4822
245.4825
245.48087
245.46099
245.37813
245.16654
244.80106
244.38129
244.09033
244.00212
244.02986
244.16002
244.54907
245.14863
245.46473
245.21659
245.08065
245.2046
245.16076
245.00893
244.94056
244.82453
244.66326
244.52886
244.38629
244.23477
244.08389
243.92072
243.75642
243.5854
243.40715
243.22633
243.03849
242.84291
242.6401
242.42909
242.20976
245.48348
245.69104
245.55625
245.62163
245.53956
245.53134
245.50256
245.49379
245.48628
245.48344
245.48222
245.48258
245.4812
245.46211
245.38096
245.17182
244.80838
244.3887
244.09575
244.00481
244.02915
244.15348
244.53467
245.1337
245.46173
245.22254
245.07788
245.19978
245.16197
245.00897
244.94008
244.82595
244.66469
244.53039
244.3883
244.23695
244.08643
243.92364
243.75966
243.58914
243.41129
243.2309
243.04354
242.84841
242.64605
242.43548
242.21656
245.48345
245.6906
245.55663
245.62164
245.5399
245.53142
245.50269
245.49384
245.48632
245.48346
245.48224
245.48265
245.48153
245.46325
245.38384
245.17722
244.81589
244.39633
244.10136
244.00766
244.02856
244.14698
244.52004
245.11825
245.45824
245.22873
245.07524
245.19477
245.16314
245.00907
244.93956
244.82738
244.66617
244.53195
244.39037
244.23918
244.08903
243.92662
243.76296
243.59294
243.41552
243.23557
243.04868
242.85402
242.65212
242.44201
242.22351
245.48341
245.69014
245.55701
245.62165
245.54024
245.5315
245.50283
245.49389
245.48636
245.48347
245.48226
245.48273
245.48187
245.4644
245.38676
245.18274
244.8236
244.40419
244.10718
244.01066
244.0281
244.14054
244.50519
245.10226
245.45424
245.23513
245.07276
245.18955
245.16427
245.00923
244.939
244.82882
244.66768
244.53354
244.39248
244.24147
244.09168
243.92967
243.76635
243.5968
243.41985
243.24034
243.05393
242.85975
242.65832
242.44867
242.2306
245.48337
245.68967
245.55741
245.62166
245.54061
245.53159
245.50297
245.49394
245.48641
245.48349
245.48228
245.4828
245.4822
245.46556
245.38973
245.18838
244.83152
244.41229
244.1132
244.01382
244.02777
244.13418
244.49012
245.08571
245.4497
245.24174
245.07046
245.18414
245.16533
245.00945
244.93838
244.83027
244.66925
244.53516
244.39465
244.24381
244.0944
243.93279
243.7698
243.60072
243.42428
243.2452
243.0593
242.86559
242.66465
242.45547
242.23784
245.48332
245.68918
245.55781
245.62167
245.54098
245.53168
245.50312
245.49399
245.48645
245.48351
245.4823
245.48287
245.48254
245.46674
245.39275
245.19415
244.83964
244.42064
244.11944
244.01714
244.02757
244.1279
244.47484
245.06858
245.4446
245.24853
245.06836
245.17852
245.16632
245.00975
244.93772
244.83173
244.67085
244.53681
244.39687
244.24621
244.09718
243.93599
243.77334
243.60469
243.42881
243.25017
243.06477
242.87156
242.6711
242.46241
242.24523
242.01998
245.48326
245.68868
245.55823
245.62168
245.54137
245.53177
245.50327
245.49404
245.4865
245.48353
245.48232
245.48294
245.48287
245.46793
245.39581
245.20004
244.84798
244.42925
244.1259
244.02065
244.02753
244.12172
244.45937
245.05087
245.4389
245.2555
245.06649
245.17269
245.16722
245.01012
244.93701
244.8332
244.67251
244.53849
244.39914
244.24867
244.10002
243.93926
243.77695
243.60879
243.43338
243.25526
243.07035
242.87765
242.67769
242.46949
242.25278
242.02797
245.4832
245.68816
245.55866
245.62169
245.54176
245.53186
245.50343
245.4941
245.48655
245.48356
245.48234
245.48302
245.48321
245.46913
245.39891
245.20606
244.85654
244.43812
244.1326
244.02433
244.02765
244.11565
244.44371
245.03255
245.43258
245.2626
245.06489
245.16665
245.16801
245.01058
244.93625
244.83466
244.67421
244.54021
244.40146
244.2512
244.10292
243.9426
243.78065
243.61297
243.43801
243.26046
243.07605
242.88386
242.6844
242.47671
242.26048
242.03611
245.48313
245.68763
245.55911
245.6217
245.54218
245.53196
245.50359
245.49415
245.4866
245.48358
245.48236
245.48309
245.48354
245.47034
245.40205
245.2122
244.86533
244.44726
244.13954
244.02821
244.02795
244.10972
244.42789
245.0136
245.4256
245.26982
245.06357
245.1604
245.16869
245.01112
244.93545
244.83612
244.67596
244.54195
244.40384
244.25378
244.10589
243.94602
243.78442
243.61724
243.44271
243.26575
243.08188
242.8902
242.69126
242.48408
242.26833
242.04442
245.48306
245.68707
245.55956
245.62172
245.5426
245.53206
245.50376
245.49421
245.48665
245.4836
245.48238
245.48315
245.48388
245.47157
245.40523
245.21846
244.87433
244.45668
244.14672
244.03228
244.02842
244.10393
244.41191
244.99402
245.41791
245.27713
245.06258
245.15393
245.16922
245.01176
244.9346
244.83758
244.67776
244.54372
244.40628
244.25643
244.10893
243.94952
243.78828
243.62161
243.44754
243.27109
243.08783
242.89666
242.69825
242.49159
242.27635
242.0529
241.82082
245.48297
245.6865
245.56003
245.62173
245.54304
245.53217
245.50393
245.49427
245.4867
245.48362
245.4824
245.48322
245.48421
245.4728
245.40844
245.22485
244.88357
244.46639
244.15417
244.03656
244.02909
244.09831
244.39581
244.97379
245.40949
245.28448
245.06196
245.14725
245.1696
245.01251
244.93371
244.83903
244.67961
244.54553
244.40876
244.25915
244.11203
243.9531
243.79222
243.62606
243.45248
243.27649
243.09391
242.90327
242.70538
242.49926
242.28452
242.06156
241.82992
245.48288
245.68592
245.56051
245.62175
245.54349
245.53228
245.50411
245.49434
245.48675
245.48365
245.48242
245.48329
245.48454
245.47404
245.41169
245.23136
244.89304
244.4764
244.16188
244.04106
244.02996
244.09286
244.37961
244.9529
245.40029
245.29185
245.06173
245.14036
245.16981
245.01335
244.93278
244.84046
244.68151
244.54737
244.41131
244.26194
244.1152
243.95676
243.79624
243.63062
243.45753
243.28203
243.10003
242.91002
242.71265
242.50708
242.29286
242.07039
241.8392
245.48277
245.68531
245.56101
245.62177
245.54396
245.53239
245.50429
245.49441
245.48681
245.48367
245.48244
245.48335
245.48486
245.47529
245.41498
245.238
244.90275
244.48671
244.16987
244.04577
244.03105
244.08762
244.36332
244.93133
245.39026
245.2992
245.06194
245.13328
245.16981
245.01431
244.93181
244.84187
244.68346
244.54924
244.41391
244.26479
244.11844
243.9605
243.80036
243.63527
243.46268
243.28769
243.10623
242.91691
242.72008
242.51505
242.30136
242.07939
241.84867
241.60904
245.48266
245.68469
245.56151
245.62179
245.54444
245.5325
245.50448
245.49447
245.48687
245.4837
245.48247
245.48341
245.48519
245.47654
245.4183
245.24475
244.9127
244.49733
244.17814
244.05072
244.03238
244.0826
244.34698
244.90907
245.37936
245.30647
245.06263
245.126
245.16958
245.01539
244.93082
244.84325
244.68546
244.55114
244.41657
244.26772
244.12176
243.96433
243.80457
243.64001
243.46794
243.29346
243.11256
242.92384
242.72768
242.52318
242.31003
242.08857
241.85832
241.61912
245.48253
245.68404
245.56203
245.62181
245.54493
245.53262
245.50467
245.49455
245.48693
245.48373
245.48249
245.48347
245.4855
245.47779
245.42165
245.25163
244.92289
244.50827
244.18672
244.0559
244.03395
244.07782
244.33061
244.88613
245.36753
245.31362
245.06382
245.11856
245.16911
245.01658
244.9298
244.8446
244.68752
244.55308
244.41928
244.27071
244.12514
243.96825
243.80886
243.64486
243.47332
243.29936
243.11904
242.93083
242.73543
242.53149
242.31887
242.09793
241.86817
241.62939
245.48239
245.68338
245.56257
245.62183
245.54544
245.53275
245.50487
245.49462
245.48699
245.48375
245.48251
245.48353
245.48582
245.47904
245.42504
245.25863
244.93333
244.51954
244.1956
244.06133
244.03579
244.07329
244.31426
244.86249
245.35474
245.32058
245.06557
245.11097
245.16836
245.01791
244.92876
244.84591
244.68963
244.55504
244.42204
244.27378
244.1286
243.97225
243.81326
243.6498
243.47881
243.30537
243.12565
242.93802
242.74317
242.53998
242.32789
242.10748
241.87821
241.63988
245.48225
245.68269
245.56311
245.62185
245.54596
245.53287
245.50508
245.4947
245.48705
245.48378
245.48253
245.48359
245.48613
245.48029
245.42846
245.26574
244.94402
244.53114
244.2048
244.06701
244.0379
244.06905
244.29796
244.83815
245.34092
245.3273
245.06789
245.10327
245.16729
245.01937
244.9277
244.84718
244.69179
244.55705
244.42487
244.27694
244.13215
243.97635
243.81775
243.65486
243.48442
243.31153
243.1324
242.94537
242.75106
242.54863
242.33712
242.11724
241.88849
241.65061
241.40356
245.48208
245.68199
245.56367
245.62187
245.5465
245.53301
245.50529
245.49478
245.48712
245.48381
245.48255
245.48364
245.48643
245.48154
245.43191
245.27296
244.95495
244.5431
244.21433
244.07296
244.0403
244.06511
244.28175
244.81313
245.32602
245.33369
245.07083
245.0955
245.16589
245.02097
244.92664
244.84839
244.69401
244.5591
244.42776
244.28018
244.13578
243.98056
243.82236
243.66004
243.49017
243.31782
243.13932
242.9529
242.75917
242.55739
242.34658
242.12724
241.89901
241.66161
241.41497
245.48191
245.68126
245.56425
245.6219
245.54706
245.53314
245.50551
245.49486
245.48719
245.48384
245.48257
245.48369
245.48673
245.48278
245.43539
245.28029
244.96615
244.55541
244.22421
244.07918
244.04301
244.0615
244.26567
244.78741
245.30998
245.33968
245.07442
245.08769
245.1641
245.02273
244.92558
244.84954
244.6963
244.5612
244.43071
244.28351
244.13951
243.98487
243.82709
243.66535
243.49606
243.32427
243.1464
242.9606
242.76747
242.56628
242.35628
242.13748
241.90978
241.67287
241.42667
245.48172
245.68051
245.56484
245.62192
245.54763
245.53329
245.50573
245.49495
245.48726
245.48388
245.48259
245.48374
245.48702
245.48401
245.4389
245.28773
244.9776
244.5681
244.23445
244.08568
244.04604
244.05823
244.24978
244.76104
245.29277
245.34517
245.07869
245.07989
245.16191
245.02464
244.92451
244.85061
244.69865
244.56334
244.43372
244.28693
244.14333
243.9893
243.83194
243.67078
243.50209
243.33087
243.15364
242.96849
242.77597
242.57537
242.36615
242.14797
241.92082
241.68442
241.43866
241.18315
245.48151
245.67974
245.56544
245.62195
245.54822
245.53343
245.50596
245.49504
245.48733
245.48391
245.48261
245.48378
245.4873
245.48523
245.44244
245.29527
244.9893
244.58116
244.24505
244.09249
244.04939
244.05534
244.23412
244.73401
245.27432
245.35007
245.08367
245.07215
245.15926
245.02671
244.92345
244.85161
244.70106
244.56554
244.4368
244.29045
244.14724
243.99384
243.83691
243.67635
243.50828
243.33763
243.16106
242.97656
242.78468
242.58472
242.37615
242.15875
241.93213
241.69626
241.45097
241.19584
245.48129
245.67894
245.56606
245.62198
245.54882
245.53359
245.5062
245.49514
245.48741
245.48394
245.48263
245.48383
245.48757
245.48643
245.44601
245.3029
245.00126
244.5946
244.25604
244.0996
244.05309
244.05285
244.21874
244.70637
245.25458
245.3543
245.08939
245.06451
245.15613
245.02893
244.92242
244.85251
244.70353
244.56779
244.43994
244.29407
244.15126
243.99851
243.84201
243.68206
243.51461
243.34456
243.16866
242.98483
242.7936
242.59429
242.38632
242.1698
241.94373
241.70841
241.4636
241.20888
245.48105
245.67812
245.56669
245.622
245.54944
245.53374
245.50644
245.49524
245.48749
245.48398
245.48265
245.48386
245.48783
245.48762
245.4496
245.31062
245.01348
244.60844
244.26742
244.10704
244.05713
244.05078
244.20371
244.67815
245.23351
245.35777
245.09589
245.05699
245.15246
245.03129
244.92141
244.85331
244.70607
244.57009
244.44313
244.29779
244.15539
244.00329
243.84725
243.68791
243.52111
243.35165
243.17644
242.9933
242.80274
242.6041
242.39675
242.18103
241.95565
241.72086
241.47657
241.22227
245.4808
245.67728
245.56734
245.62204
245.55008
245.53391
245.50669
245.49534
245.48757
245.48402
245.48267
245.4839
245.48808
245.4888
245.45322
245.31842
245.02596
244.62267
244.27921
244.11482
244.06154
244.04916
244.18907
244.6494
245.21106
245.36036
245.10317
245.04964
245.14823
245.0338
244.92046
244.85399
244.70868
244.57246
244.44639
244.30161
244.15962
244.00821
243.85262
243.6939
243.52777
243.35893
243.18441
243.00198
242.8121
242.61415
242.40747
242.19241
241.9679
241.73364
241.48987
241.23602
240.9722
245.48052
245.67641
245.56801
245.62207
245.55073
245.53408
245.50695
245.49545
245.48765
245.48406
245.48269
245.48393
245.48832
245.48996
245.45686
245.32629
245.03868
244.63732
244.29142
244.12295
244.06631
244.048
244.17491
244.62017
245.18717
245.36199
245.11122
245.04254
245.14339
245.03644
244.91959
244.85454
244.71135
244.57489
244.44971
244.30554
244.16396
244.01325
243.85814
243.70005
243.5346
243.36638
243.19258
243.01087
242.82169
242.62445
242.41846
242.204
241.98047
241.74676
241.50354
241.25016
240.98672
245.48022
245.67551
245.56869
245.6221
245.5514
245.53426
245.50721
245.49556
245.48774
245.4841
245.48271
245.48396
245.48855
245.4911
245.46051
245.33422
245.05166
244.65237
244.30407
244.13144
244.07147
244.04735
244.16126
244.59053
245.1618
245.36255
245.12001
245.03577
245.1379
245.03919
244.91881
244.85495
244.71409
244.57738
244.45309
244.30958
244.16842
244.01843
243.86381
243.70636
243.5416
243.37403
243.20095
243.01999
242.83152
242.63501
242.42973
242.21593
241.99319
241.76026
241.51757
241.2647
241.00166
245.47991
245.67459
245.56939
245.62213
245.55208
245.53444
245.50748
245.49567
245.48783
245.48414
245.48273
245.48398
245.48876
245.49222
245.46417
245.34221
245.06488
244.66785
244.31716
244.14031
244.07702
244.04721
244.14821
244.56055
245.13491
245.36192
245.12948
245.02943
245.13171
245.04205
244.91815
244.8552
244.71689
244.57995
244.45652
244.31373
244.173
244.02375
243.86963
243.71283
243.54878
243.38187
243.20954
243.02933
242.8416
242.64584
242.44128
242.22819
242.00612
241.77415
241.53199
241.27964
241.01703
240.74373
245.47957
245.67364
245.5701
245.62216
245.55278
245.53463
245.50775
245.49579
245.48792
245.48419
245.48275
245.484
245.48896
245.49331
245.46785
245.35024
245.07834
244.68375
244.33072
244.14957
244.08298
244.04761
244.13581
244.53032
245.10646
245.35997
245.13958
245.02362
245.12478
245.04501
244.91764
244.8553
244.71975
244.58259
244.46
244.31799
244.1777
244.02921
243.87561
243.71947
243.55615
243.38991
243.21834
243.03891
242.85193
242.65694
242.45314
242.24076
242.01931
241.78839
241.54683
241.295
241.03285
240.75989
245.47921
245.67267
245.57084
245.62219
245.55349
245.53483
245.50804
245.49592
245.48802
245.48423
245.48277
245.48402
245.48915
245.49437
245.47152
245.35833
245.09204
244.70008
244.34476
244.15922
244.08935
244.04857
244.12412
244.49994
245.07642
245.35656
245.15022
245.01848
245.11709
245.04804
244.9173
244.85522
244.72267
244.58532
244.46354
244.32237
244.18252
244.03482
243.88175
243.72628
243.56371
243.39816
243.22736
243.04874
242.86253
242.66832
242.46529
242.25367
242.03293
241.80279
241.56211
241.31079
241.04913
240.77655
245.47882
245.67167
245.57159
245.62221
245.55422
245.53503
245.50833
245.49605
245.48811
245.48428
245.48279
245.48404
245.48931
245.49541
245.47519
245.36645
245.10596
244.71684
244.35928
244.1693
244.09615
244.05011
244.11322
244.46953
245.04477
245.35151
245.16134
245.01411
245.10862
245.0511
244.91716
244.85498
244.72565
244.58812
244.46712
244.32686
244.18748
244.04058
243.88806
243.73327
243.57147
243.40662
243.23662
243.05881
242.8734
242.68
242.47777
242.26692
242.04692
241.81745
241.57783
241.32705
241.0659
240.79371
240.51087
245.47841
245.67064
245.57236
245.62223
245.55497
245.53525
245.50862
245.49619
245.48822
245.48433
245.48281
245.48405
245.48947
245.49641
245.47885
245.3746
245.12009
244.73404
244.37431
244.17979
244.10338
244.05225
244.10316
244.43921
245.01152
245.34463
245.17286
245.01063
245.0994
245.05415
244.91726
244.85456
244.72867
244.59101
244.47075
244.33147
244.19257
244.0465
243.89455
243.74045
243.57944
243.41531
243.24611
243.06914
242.88454
242.69197
242.49056
242.28051
242.06129
241.8325
241.59385
241.34381
241.08316
240.81141
240.52886
245.47797
245.66958
245.57316
245.62225
245.55573
245.53547
245.50892
245.49633
245.48832
245.48438
245.48283
245.48405
245.4896
245.49738
245.48249
245.38279
245.13443
244.75167
244.38987
244.19074
244.11105
244.05502
244.09399
244.40912
244.97666
245.33572
245.18469
245.00816
245.08946
245.05711
244.91762
244.85397
244.73174
244.59399
244.47443
244.3362
244.1978
244.05258
243.90122
243.74781
243.58761
243.42422
243.25585
243.07974
242.89598
242.70426
242.5037
242.29447
242.07605
241.84801
241.6101
241.36111
241.10094
240.82965
240.54743
240.25426
245.47751
245.66849
245.57397
245.62226
245.5565
245.5357
245.50923
245.49648
245.48843
245.48444
245.48285
245.48405
245.48972
245.4983
245.48611
245.391
245.14896
244.76975
244.40595
244.20213
244.11917
244.05842
244.08577
244.37942
244.94025
245.32455
245.19676
245.0068
245.07888
245.0599
244.91826
244.85322
244.73484
244.59706
244.47815
244.34105
244.20317
244.05882
243.90808
243.75537
243.596
243.43337
243.26584
243.09062
242.90771
242.71686
242.51717
242.30879
242.0912
241.86395
241.62667
241.3789
241.11928
240.84846
240.5666
240.27363
245.47701
245.66737
245.5748
245.62226
245.55729
245.53594
245.50955
245.49664
245.48854
245.4845
245.48288
245.48405
245.48982
245.49919
245.4897
245.39924
245.16366
244.78826
244.42259
244.214
244.12775
244.06248
244.07856
244.35027
244.90232
245.31091
245.20897
245.00664
245.06775
245.06244
244.9192
244.85233
244.73796
244.60022
244.4819
244.34601
244.20869
244.06523
243.91513
243.76314
243.60461
243.44276
243.27609
243.10177
242.91975
242.72979
242.531
242.3235
242.10677
241.88034
241.64382
241.39691
241.13821
240.86785
240.5864
240.29367
245.47649
245.66623
245.57565
245.62226
245.55809
245.53619
245.50987
245.4968
245.48866
245.48456
245.4829
245.48405
245.4899
245.50003
245.49324
245.40751
245.17852
244.80721
244.43979
244.22635
244.13678
244.06721
244.07239
244.32184
244.86296
245.2946
245.22117
245.00774
245.05622
245.06461
244.92046
244.85133
244.74109
244.60349
244.4857
244.3511
244.21435
244.07181
243.92238
243.77111
243.61346
243.45241
243.28661
243.11322
242.93211
242.74307
242.5452
242.3386
242.12275
241.89718
241.66146
241.41527
241.15773
240.88786
240.60683
240.3144
240.01081
245.47593
245.66505
245.57653
245.62224
245.5589
245.53645
245.5102
245.49697
245.48878
245.48462
245.48292
245.48404
245.48997
245.50082
245.49673
245.4158
245.19351
244.82659
244.45756
244.23921
244.14628
244.07263
244.0673
244.29431
244.82228
245.27545
245.2332
245.01017
245.04446
245.0663
244.92205
244.85024
244.74421
244.60685
244.48953
244.3563
244.22017
244.07857
243.92983
243.77929
243.62253
243.46231
243.29741
243.12497
242.94479
242.75669
242.55977
242.3541
242.13917
241.91449
241.67961
241.43412
241.17767
240.90854
240.62794
240.33583
240.03237
245.47534
245.66385
245.57741
245.62222
245.55972
245.53672
245.51054
245.49715
245.4889
245.48469
245.48295
245.48403
245.49002
245.50155
245.50015
245.42412
245.20863
244.8464
244.47592
244.25258
244.15625
244.07876
244.06333
244.26785
244.78043
245.25332
245.24482
245.01394
245.03269
245.06736
244.92396
244.84912
244.74732
244.61031
244.49339
244.36161
244.22615
244.0855
243.9375
243.7877
243.63186
243.47247
243.30849
243.13703
242.9578
242.77067
242.57473
242.37002
242.15604
241.93229
241.69828
241.4536
241.19789
240.92995
240.64974
240.35799
240.05471
245.47471
245.66262
245.57832
245.62219
245.56055
245.537
245.51088
245.49733
245.48903
245.48476
245.48297
245.48401
245.49005
245.50222
245.50348
245.43248
245.22385
244.86663
244.49488
244.26648
244.16669
244.08561
244.0605
244.24265
244.73756
245.22812
245.25577
245.01908
245.02111
245.06765
244.9262
244.848
244.75037
244.61387
244.49729
244.36705
244.23229
244.09262
243.94537
243.79633
243.64143
243.48291
243.31986
243.1494
242.97116
242.78503
242.59009
242.38637
242.17337
241.95057
241.71748
241.47366
241.21853
240.95201
240.6723
240.38091
240.07785
239.76346
245.47405
245.66136
245.57924
245.62215
245.56139
245.53729
245.51123
245.49752
245.48916
245.48483
245.483
245.484
245.49006
245.50284
245.50671
245.44087
245.23916
244.88726
244.51445
244.28094
244.17761
244.09318
244.05883
244.21888
244.69389
245.19974
245.26573
245.02564
245.0099
245.06701
244.92874
244.84695
244.75336
244.61753
244.50123
244.37259
244.23859
244.09992
243.95347
243.8052
243.65126
243.49363
243.33154
243.1621
242.98487
242.79976
242.60586
242.40316
242.19117
241.96937
241.73723
241.49431
241.24001
240.97429
240.69565
240.40462
240.10183
239.78749
245.47336
245.66006
245.58018
245.6221
245.56224
245.5376
245.51159
245.49772
245.4893
245.4849
245.48303
245.48398
245.49005
245.50338
245.50982
245.4493
245.25454
244.90829
244.53463
244.29596
244.18901
244.10148
244.05834
244.1967
244.64965
245.16813
245.27436
245.03367
244.99922
245.06527
244.93158
244.84602
244.75626
244.62128
244.50521
244.37824
244.24506
244.1074
243.9618
243.81431
243.66135
243.50464
243.34352
243.17514
242.99895
242.81488
242.62205
242.4204
242.20946
241.98868
241.75754
241.51556
241.26211
240.99706
240.71976
240.42918
240.12666
239.81243
239.48691
245.47262
245.65874
245.58113
245.62205
245.56309
245.53792
245.51196
245.49793
245.48944
245.48498
245.48306
245.48395
245.49003
245.50386
245.51282
245.45773
245.26998
244.92969
244.55544
244.31157
244.2009
244.11052
244.05902
244.17627
244.60513
245.13327
245.28126
245.04319
244.98922
245.06228
244.93472
244.84525
244.75904
244.62512
244.50923
244.384
244.2517
244.11508
243.97035
243.82366
243.67171
243.51594
243.35583
243.18852
243.0134
242.83041
242.63868
242.43811
242.22825
242.00854
241.77842
241.53743
241.2849
241.02061
240.74429
240.45463
240.15239
239.83832
239.51271
245.47186
245.65739
245.5821
245.62198
245.56395
245.53825
245.51233
245.49814
245.48959
245.48506
245.48309
245.48393
245.48999
245.50427
245.51569
245.46615
245.28547
244.95145
244.57688
244.32778
244.21329
244.1203
244.06089
244.15773
244.56063
245.09517
245.28596
245.05414
244.98014
245.05788
244.93816
244.84467
244.76165
244.62905
244.51331
244.38985
244.25851
244.12295
243.97914
243.83327
243.68235
243.52755
243.36846
243.20226
243.02823
242.84635
242.65575
242.4563
242.24755
242.02895
241.7999
241.55995
241.30838
241.04494
240.7693
240.48096
240.17908
239.86518
239.53954
245.47106
245.656
245.58308
245.6219
245.56481
245.53859
245.51272
245.49837
245.48974
245.48515
245.48313
245.4839
245.48994
245.5046
245.51843
245.47456
245.30101
244.97354
244.59895
244.34462
244.22617
244.1308
244.06393
244.1412
244.5165
245.05391
245.28795
245.06644
244.97226
245.05196
244.9419
244.84432
244.76408
244.63307
244.51745
244.39581
244.26549
244.13101
243.98816
243.84314
243.69328
243.53947
243.38142
243.21636
243.04346
242.86272
242.67328
242.47498
242.26738
242.04992
241.82199
241.58311
241.33256
241.07003
240.79511
240.50789
240.20678
239.89306
239.56744
239.23038
245.47023
245.65458
245.58407
245.62181
245.56568
245.53895
245.51311
245.4986
245.4899
245.48524
245.48316
245.48387
245.48987
245.50487
245.52102
245.48292
245.31657
244.99593
244.62166
244.36209
244.23957
244.14202
244.06814
244.12677
244.4731
245.00962
245.28662
245.08002
244.96584
245.04442
244.94594
244.84426
244.76628
244.63717
244.52166
244.40186
244.27265
244.13927
243.99743
243.85328
243.70449
243.55171
243.39474
243.23083
243.0591
242.87952
242.69128
242.49417
242.28776
242.07148
241.84471
241.60695
241.35746
241.09591
240.82184
240.5353
240.23549
239.92202
239.59644
239.2592
245.46936
245.65312
245.58506
245.62171
245.56654
245.53932
245.51351
245.49885
245.49006
245.48533
245.4832
245.48384
245.48978
245.50506
245.52346
245.49123
245.33215
245.0186
244.645
244.38023
244.25347
244.15395
244.07352
244.11451
244.43081
244.96251
245.28134
245.09481
244.96111
245.03526
244.95026
244.84458
244.76823
244.64135
244.52596
244.40799
244.27997
244.14773
244.00694
243.86369
243.71601
243.56428
243.4084
243.24568
243.07514
242.89677
242.70976
242.51388
242.30869
242.09364
241.86807
241.63148
241.38311
241.12259
240.84944
240.56354
240.26496
239.95213
239.62661
239.28923
238.94056
245.46847
245.65163
245.58607
245.62159
245.56741
245.53971
245.51392
245.4991
245.49023
245.48543
245.48324
245.48381
245.48969
245.5052
245.52573
245.49947
245.34773
245.04151
244.66898
244.39904
244.26791
244.16659
244.08004
244.10447
244.39004
244.91286
245.27145
245.11074
244.95825
245.02455
244.9548
244.84534
244.76991
244.64561
244.53037
244.4142
244.28746
244.15638
244.01671
243.87438
243.72783
243.57719
243.42243
243.26093
243.09162
242.91448
242.72874
242.53411
242.33019
242.11641
241.89209
241.65672
241.40951
241.15009
240.87792
240.59288
240.29494
239.98339
239.65799
239.32052
238.97147
245.46754
245.6501
245.58707
245.62147
245.56827