/*--------------------------------*- C++ -*----------------------------------*\
| =========                 |                                                 |
| \\      /  F ield         | OpenFOAM: The Open Source CFD Toolbox           |
|  \\    /   O peration     | Version:  2506                                  |
|   \\  /    A nd           | Website:  www.openfoam.com                      |
|    \\/     M anipulation  |                                                 |
\*---------------------------------------------------------------------------*/
FoamFile
{
    version     2.0;
    format      ascii;
    arch        "LSB;label=32;scalar=64";
    class       volScalarField;
    location    "1.3";
    object      nut;
}
// * * * * * * * * * * * * * * * * * * * * * * * * * * * * * * * * * * * * * //

dimensions      [0 2 -1 0 0 0 0];

internalField   nonuniform List<scalar> 
1375
(
0.1933013
0.19420591
0.1925695
0.19320311
0.19408563
0.19205339
0.19248401
0.1931093
0.19396967
0.19167157
0.19197779
0.19240197
0.19301951
0.19385809
0.19138314
0.19160425
0.19190513
0.19232316
0.19293337
0.19375103
0.19116221
0.19132263
0.1915394
0.19183523
0.19224751
0.19285087
0.19364882
0.1909896
0.19110744
0.19126421
0.19147693
0.19176802
0.19217491
0.19277192
0.19355144
0.19085288
0.19093926
0.19105438
0.19120775
0.19141667
0.1917033
0.19210517
0.19269634
0.19345855
0.19074542
0.19080618
0.19089026
0.19100286
0.19115308
0.19135847
0.19164089
0.19203811
0.1926239
0.19336957
0.19065784
0.19070157
0.1907606
0.19084259
0.19095282
0.19110015
0.1913022
0.19158069
0.19197358
0.19255441
0.19328427
0.19058781
0.1906165
0.19065867
0.19071611
0.19079618
0.19090418
0.19104887
0.19124777
0.19152264
0.19191146
0.1924877
0.19320244
0.19053016
0.19054826
0.19057584
0.19061658
0.19067261
0.19075086
0.1908568
0.19099906
0.19119502
0.19146657
0.19185158
0.19242358
0.19312365
0.19049197
0.19050915
0.19053574
0.19057516
0.19062996
0.19070648
0.19081052
0.19095058
0.19114387
0.19141232
0.19179377
0.1923619
0.19304765
0.19044419
0.19045387
0.19047049
0.19049616
0.19053438
0.19058811
0.19066301
0.1907653
0.19090335
0.19109425
0.19135982
0.19173793
0.19230257
0.19297451
0.19040425
0.19040733
0.19041598
0.19043225
0.19045705
0.19049421
0.19054695
0.19062037
0.19072109
0.19085732
0.19104605
0.19130897
0.19168405
0.19224547
0.1929041
0.19037369
0.19036825
0.19037018
0.19037828
0.1903943
0.19041826
0.19045454
0.19050632
0.19057846
0.19067776
0.19081235
0.19099913
0.19125962
0.19163199
0.19219047
0.19283622
0.19036085
0.19034394
0.19033811
0.19033167
0.19033276
0.19034073
0.19035646
0.19037964
0.19041524
0.19046605
0.19053713
0.19063514
0.19076832
0.19095331
0.19121167
0.19158161
0.19213748
0.19277111
0.19035556
0.19032514
0.19030683
0.19030126
0.19029446
0.19029513
0.19030317
0.19031854
0.19034101
0.1903761
0.19042596
0.19049619
0.19059304
0.19072503
0.19090841
0.19116492
0.1915327
0.19208627
0.19270702
0.19036422
0.19031993
0.19028867
0.19026948
0.19026326
0.19025662
0.19025725
0.19026541
0.19028033
0.19030219
0.19033693
0.19038592
0.19045554
0.19055142
0.19068245
0.19086443
0.1911194
0.19148541
0.19203692
0.19265035
0.19043046
0.19036666
0.19033005
0.19028428
0.19025184
0.19023181
0.19022408
0.19021801
0.19021862
0.19022674
0.19024109
0.19026242
0.19029683
0.19034504
0.19041415
0.19050919
0.19063937
0.19082003
0.19107361
0.19143792
0.19198768
0.19257873
0.024586925
0.024193855
0.023813258
0.023421602
0.023022323
0.022637051
0.022259658
0.021842976
0.021381489
0.020946513
0.020616273
0.020361399
0.020054131
0.019662746
0.019269498
0.018905867
0.018500991
0.018012304
0.017515736
0.017149904
0.016908735
0.016653586
0.016311975
0.0273168
0.027011463
0.026694151
0.02631551
0.025918971
0.025573069
0.025269444
0.024946175
0.024589208
0.024258009
0.023978553
0.023683929
0.023317131
0.022913721
0.022537844
0.022191835
0.021828511
0.021400757
0.020922832
0.020438519
0.019978327
0.01956447
0.019198579
0.030574044
0.030094212
0.029539941
0.028864
0.028173782
0.027601187
0.027143726
0.026698305
0.026193652
0.02568902
0.025237481
0.024787702
0.024271199
0.02375647
0.023459204
0.02338046
0.023319203
0.023019372
0.022502513
0.022147237
0.022032437
0.0221017
0.02233003
0.037084479
0.036821312
0.036457122
0.03597019
0.035584969
0.035503239
0.035676679
0.035916585
0.036013291
0.03603485
0.036152332
0.036323457
0.036410236
0.036459643
0.03682918
0.037503861
0.038218065
0.038588647
0.038301288
0.038255848
0.038654766
0.039303957
0.040117404
0.049708128
0.049995917
0.050112721
0.050129426
0.050373359
0.051028012
0.051983075
0.053018594
0.053838307
0.054434643
0.055033467
0.055608433
0.056012269
0.056374747
0.05712285
0.058179117
0.059250572
0.059964649
0.05982237
0.059816722
0.060352669
0.061173742
0.062162837
0.066549446
0.06724016
0.067595823
0.067898246
0.068590888
0.069766842
0.071230514
0.072757221
0.074080932
0.075027438
0.075797592
0.07641296
0.076732563
0.076947421
0.077539066
0.078459295
0.079365098
0.079862183
0.079978885
0.080431443
0.081260987
0.082307105
0.083413656
0.084754707
0.085594105
0.085880112
0.086197685
0.087117308
0.088609047
0.090363866
0.092189341
0.093820705
0.095033332
0.095870519
0.096448988
0.096628707
0.096492492
0.096481376
0.096666068
0.096924643
0.097289652
0.097927004
0.098818678
0.10034882
0.1018294
0.10300704
0.10282591
0.10365272
0.10371701
0.10390979
0.10490206
0.10652644
0.10845502
0.11051358
0.11225619
0.11369975
0.1146695
0.11528229
0.11542458
0.11495411
0.11418122
0.11340349
0.11296986
0.11323078
0.11407589
0.11543369
0.1178326
0.11980647
0.12106659
0.12012657
0.12086518
0.12071325
0.12076657
0.12173289
0.12335823
0.12530366
0.12746521
0.12926187
0.13076172
0.13193013
0.13264755
0.13284725
0.13226062
0.13102503
0.12959661
0.12868574
0.12879152
0.12966265
0.13119099
0.13382964
0.13593003
0.13715152
0.13792907
0.136242
0.13686848
0.13661147
0.13658985
0.13747323
0.13900375
0.14078959
0.14282765
0.14458447
0.1460422
0.14727331
0.1480628
0.14834526
0.14793845
0.14688022
0.14554478
0.14465034
0.14472118
0.14556917
0.14691014
0.14904896
0.15074648
0.15173255
0.15235227
0.15072719
0.15125071
0.15102821
0.15100657
0.15175252
0.15308389
0.15463816
0.15631668
0.1578806
0.15923966
0.16032921
0.1610057
0.16134872
0.16130141
0.1608733
0.16021709
0.1597416
0.15986142
0.16059791
0.16160461
0.16286933
0.16386957
0.16452014
0.16491258
0.16357186
0.16347756
0.16350642
0.16407078
0.16508919
0.16634211
0.16766605
0.16894752
0.17005579
0.17084022
0.17134441
0.1716888
0.17190417
0.17200329
0.17199599
0.17199552
0.1721965
0.17268461
0.17337156
0.17407797
0.17459461
0.17484888
0.17492825
0.17349655
0.17353638
0.17362614
0.17403565
0.1747519
0.17566237
0.17665514
0.17762072
0.17843254
0.17897835
0.17931775
0.17959241
0.17985843
0.18011934
0.18034486
0.18053496
0.18075798
0.18107274
0.18146383
0.18183269
0.18203564
0.18204863
0.18198484
0.18095434
0.18108475
0.18122301
0.18152867
0.18201727
0.18264637
0.18335026
0.1840405
0.184616
0.18500275
0.18524846
0.18546252
0.18568956
0.18592786
0.18615077
0.18634138
0.18652196
0.18671911
0.18692722
0.18711351
0.18719615
0.18713084
0.18701391
0.18614064
0.18631534
0.18648469
0.18673875
0.18709229
0.18752735
0.18800586
0.18847067
0.1888603
0.18913502
0.18932369
0.18949169
0.18966604
0.18984506
0.19001529
0.19016926
0.19031687
0.19046142
0.19057771
0.19064438
0.19065792
0.19059007
0.19049252
0.18942386
0.18960467
0.189781
0.19000834
0.19029431
0.1906179
0.19094646
0.19124653
0.1914929
0.19167547
0.19181498
0.19194603
0.19208225
0.19222239
0.19235562
0.19247117
0.19257389
0.19267717
0.19276252
0.19281423
0.19283783
0.19281273
0.19274331
0.19267353
0.19122661
0.1913885
0.19154928
0.19174999
0.19199577
0.19225969
0.19250498
0.19270698
0.19285914
0.19296986
0.19306274
0.19316281
0.19327625
0.19339441
0.19349995
0.19357709
0.19363345
0.19369696
0.19377853
0.1938549
0.19390339
0.19390811
0.19387062
0.19383081
0.19195464
0.19209195
0.1922266
0.19239227
0.1925975
0.19281853
0.1930184
0.19317242
0.19327582
0.19334211
0.19339944
0.19347486
0.19356942
0.19366416
0.19374441
0.19380231
0.19384387
0.19389975
0.19397292
0.19404255
0.19409672
0.19412159
0.19412118
0.19411488
0.19196295
0.19208452
0.19219435
0.19232035
0.19247825
0.19265516
0.19281951
0.19294679
0.19303051
0.19308179
0.19312465
0.19318482
0.19326608
0.19334862
0.19341955
0.19348176
0.19354052
0.19359601
0.19365722
0.19372118
0.19378475
0.1938383
0.19386849
0.19389025
0.19392716
0.1915496
0.1916663
0.19176091
0.1918558
0.19197313
0.19211176
0.19224715
0.19235555
0.19243071
0.19248309
0.19253042
0.19258806
0.1926608
0.19273825
0.19281382
0.19288602
0.19295407
0.19301199
0.19305532
0.19309158
0.19313238
0.19319187
0.19325177
0.19328704
0.19335218
0.19095555
0.19107314
0.19116419
0.19124404
0.19133483
0.1914436
0.19155554
0.19165047
0.19172197
0.19178046
0.1918422
0.19191117
0.19198283
0.19205294
0.19212519
0.1922042
0.19228024
0.19233285
0.19236059
0.19237317
0.19239223
0.19243957
0.19250842
0.19257638
0.19263915
0.19035344
0.19047009
0.19056343
0.1906424
0.19072216
0.19081094
0.19090454
0.19099223
0.19106711
0.19113455
0.19120727
0.19128439
0.19135949
0.19142949
0.19149992
0.19157985
0.19166195
0.19172363
0.19175193
0.19175635
0.19177095
0.19180877
0.19185576
0.19190866
0.19195829
0.19198779
0.18983664
0.18995104
0.19004946
0.19013602
0.19021668
0.19029593
0.19037593
0.19045681
0.19053422
0.19060703
0.19068214
0.19076278
0.19084297
0.19091917
0.19099465
0.19107128
0.19114488
0.19120387
0.19124014
0.19126033
0.19127863
0.19130069
0.19132851
0.19136755
0.19140509
0.19142947
0.1894345
0.18954402
0.18964352
0.18973532
0.18982012
0.18989887
0.18997367
0.19004887
0.19012586
0.19020199
0.19027883
0.19035975
0.19044118
0.19051976
0.19059392
0.19066303
0.19072632
0.19078192
0.19082387
0.19085504
0.19088181
0.19090734
0.19093534
0.19097391
0.19100813
0.19103528
0.18914587
0.18924903
0.1893441
0.18943448
0.18951986
0.18960043
0.18967728
0.18975355
0.18983321
0.1899144
0.18999442
0.19007359
0.19014917
0.19022305
0.1902968
0.1903654
0.19042254
0.19046816
0.1905056
0.1905433
0.19058506
0.19062628
0.1906679
0.19071223
0.19074484
0.19077035
0.19079541
0.18904491
0.18913518
0.18922309
0.1893091
0.18939265
0.18947441
0.1895557
0.18963894
0.18972167
0.18980109
0.18987469
0.18994456
0.19001392
0.19008332
0.19014993
0.1902063
0.19025154
0.190291
0.19033171
0.19037572
0.19041858
0.19045893
0.19049675
0.1905293
0.19056013
0.19059774
0.18889993
0.18899139
0.18908035
0.18916841
0.18925445
0.18933773
0.18941974
0.18949985
0.18957816
0.18965282
0.18972273
0.18979055
0.18985862
0.18992706
0.18999376
0.19005184
0.19009788
0.19013871
0.19017973
0.19022233
0.19026503
0.19030685
0.19034455
0.19037811
0.19041322
0.19045406
0.19049433
0.18880475
0.18889898
0.1889887
0.18907584
0.18916016
0.18924172
0.18932181
0.18940007
0.18947613
0.18954862
0.18961713
0.18968349
0.18974961
0.18981623
0.18988167
0.18994097
0.18999099
0.19003437
0.19007762
0.19012245
0.19016783
0.19021225
0.19025309
0.19028962
0.19032532
0.19036131
0.19039675
0.18873015
0.18882623
0.18891724
0.18900432
0.18908881
0.1891717
0.18925214
0.18933
0.18940444
0.18947557
0.18954454
0.18961054
0.18967482
0.18973812
0.18980152
0.18986198
0.18991716
0.18996657
0.19001093
0.19005361
0.19009589
0.19013839
0.19018168
0.19022308
0.19026196
0.19029856
0.19033243
0.18867965
0.18877569
0.18886767
0.1889563
0.18904242
0.18912632
0.1892067
0.18928329
0.18935543
0.1894249
0.18949391
0.18956287
0.18962958
0.18969116
0.1897488
0.18980296
0.18985621
0.1899093
0.18996106
0.19001025
0.19005612
0.19009906
0.19014056
0.19018117
0.19022009
0.19025835
0.19029421
0.18864425
0.18874067
0.1888332
0.1889219
0.18900734
0.18909
0.18916983
0.18924734
0.18932189
0.18939325
0.18946216
0.18952909
0.18959317
0.18965364
0.18971031
0.18976537
0.18981842
0.18986981
0.18991961
0.18996738
0.19001304
0.19005664
0.19009829
0.19013806
0.19017627
0.19021285
0.19024792
0.18871831
0.18880979
0.18889792
0.18898359
0.18906641
0.1891464
0.18922378
0.18929816
0.18936882
0.18943552
0.18949954
0.18956184
0.18962207
0.18967995
0.1897353
0.18978838
0.18983938
0.18988873
0.18993652
0.18998257
0.19002682
0.19006853
0.19010771
0.19014496
0.19018065
0.19021535
0.18870489
0.18879619
0.18888473
0.18897047
0.18905278
0.18913191
0.18920753
0.18927966
0.1893489
0.18941544
0.18948002
0.1895427
0.18960281
0.18966007
0.18971451
0.18976683
0.18981823
0.18986889
0.18991797
0.18996457
0.19000843
0.1900494
0.19008807
0.19012498
0.19016056
0.19019529
0.18870112
0.18879116
0.1888787
0.18896344
0.18904453
0.18912223
0.1891962
0.18926771
0.18933712
0.18940438
0.18946888
0.18953058
0.18958983
0.18964707
0.18970241
0.1897557
0.18980713
0.18985663
0.18990405
0.18994958
0.18999306
0.19003464
0.19007445
0.19011274
0.1901499
0.19018611
0.18879024
0.18887688
0.18896044
0.18904044
0.18911707
0.18919099
0.18926217
0.18933145
0.18939829
0.18946247
0.18952394
0.1895828
0.18963958
0.18969458
0.18974794
0.1897997
0.18984955
0.18989761
0.18994378
0.18998787
0.19002987
0.19006976
0.19010793
0.19014475
0.19018057
0.18879423
0.18887972
0.18896229
0.18904193
0.18911849
0.18919186
0.18926283
0.18933153
0.18939766
0.18946135
0.18952244
0.18958111
0.18963775
0.18969277
0.18974618
0.18979794
0.18984782
0.18989578
0.18994166
0.18998568
0.19002793
0.19006852
0.19010753
0.19014504
0.19018125
0.18880635
0.18889056
0.18897198
0.1890507
0.18912644
0.18919918
0.18926942
0.18933727
0.1894032
0.18946697
0.1895284
0.18958745
0.18964409
0.18969851
0.189751
0.18980173
0.18985091
0.18989855
0.18994473
0.18998945
0.19003264
0.19007424
0.19011417
0.19015243
0.19018919
0.188909
0.18898888
0.18906599
0.1891407
0.18921296
0.18928291
0.18935056
0.18941581
0.18947869
0.18953945
0.18959812
0.18965472
0.18970928
0.1897619
0.18981267
0.18986181
0.18990952
0.18995583
0.19000075
0.19004419
0.19008609
0.19012646
0.19016536
0.19020289
0.18893593
0.18901537
0.18909211
0.18916597
0.1892373
0.18930625
0.18937285
0.18943717
0.18949947
0.1895598
0.18961813
0.18967456
0.18972907
0.18978167
0.18983243
0.1898815
0.18992904
0.18997516
0.19001997
0.19006346
0.1901056
0.19014637
0.19018574
0.1902238
0.18905239
0.18912787
0.18920053
0.18927088
0.18933902
0.18940492
0.18946867
0.18953044
0.18959039
0.18964851
0.18970482
0.18975931
0.18981207
0.18986322
0.18991284
0.18996096
0.19000761
0.1900528
0.19009652
0.19013883
0.19017981
0.1902195
0.19025795
0.18917686
0.18924904
0.18931896
0.18938674
0.1894524
0.18951596
0.18957746
0.18963689
0.18969429
0.18974995
0.18980404
0.18985664
0.18990778
0.18995742
0.19000558
0.19005231
0.19009765
0.19014167
0.19018442
0.19022594
0.19026629
0.1903055
0.18924305
0.18931472
0.1893841
0.18945132
0.18951645
0.1895795
0.1896406
0.18969977
0.18975729
0.1898133
0.18986774
0.18992061
0.18997197
0.19002188
0.19007037
0.19011748
0.19016328
0.19020784
0.19025119
0.19029337
0.19033436
0.19037419
0.18940331
0.18947209
0.18953884
0.18960363
0.18966648
0.18972748
0.18978672
0.18984432
0.18990037
0.18995494
0.19000805
0.19005978
0.19011017
0.19015926
0.19020707
0.1902536
0.19029887
0.19034293
0.19038583
0.19042765
0.19046845
0.1895918
0.18965822
0.18972276
0.18978556
0.18984672
0.18990625
0.18996422
0.1900207
0.19007575
0.19012943
0.19018178
0.19023283
0.19028262
0.19033117
0.19037852
0.19042468
0.19046967
0.19051352
0.19055627
0.19059796
0.18982263
0.18988736
0.18995051
0.19001209
0.19007218
0.19013082
0.190188
0.19024376
0.19029815
0.19035125
0.19040312
0.19045381
0.19050334
0.19055172
0.19059898
0.19064514
0.19069024
0.19073431
0.19077741
0.19018145
0.19024384
0.19030485
0.19036445
0.19042269
0.19047964
0.19053534
0.19058981
0.1906431
0.19069521
0.19074619
0.19079607
0.19084488
0.19089263
0.19093933
0.19098502
0.19102972
0.19057945
0.19064195
0.19070312
0.19076302
0.19082169
0.19087915
0.19093543
0.19099054
0.19104452
0.19109738
0.19114915
0.19119985
0.1912495
0.19129813
0.19134576
0.19139243
0.19121371
0.19127629
0.19133776
0.19139812
0.19145737
0.19151548
0.19157244
0.19162827
0.19168296
0.19173655
0.19178906
0.1918405
0.19189088
0.19194015
0.19172837
0.19181045
0.19189062
0.19196873
0.1920448
0.19211883
0.19219087
0.19226096
0.19232918
0.19239557
0.19246009
0.1925223
)
;

boundaryField
{
    Side
    {
        type            empty;
    }
    Inlet
    {
        type            calculated;
        value           nonuniform List<scalar> 
32
(
0.19949184
0.19949325
0.19949745
0.1995036
0.1995084
0.1995093
0.19950813
0.19950505
0.19950064
0.19949527
0.19948947
0.19948391
0.19947916
0.19947588
0.19947374
0.19947226
0.19947142
0.19947129
0.19947186
0.19947303
0.19951118
0.19950508
0.1994993
0.19949415
0.19948969
0.19948591
0.19948278
0.19948022
0.19947816
0.19947645
0.19947507
0.19947401
)
;
    }
    Airfoil
    {
        type            nutkWallFunction;
        blending        stepwise;
        value           nonuniform List<scalar> 0();
    }
    Outlet
    {
        type            calculated;
        value           nonuniform List<scalar> 0();
    }
    procBoundary2to1
    {
        type            processor;
        value           nonuniform List<scalar> 
75
(
0.19340405
0.19433089
0.19265862
0.19265862
0.19213214
0.19213214
0.19174148
0.19174148
0.19144582
0.19144582
0.19121887
0.19121887
0.19104143
0.19104143
0.19090071
0.19090071
0.1907902
0.1907902
0.19069999
0.19069999
0.19062781
0.19062781
0.19056831
0.19056831
0.19051721
0.19048078
0.19048078
0.19043986
0.19043986
0.19040814
0.19040814
0.19039601
0.19038067
0.19038067
0.19039046
0.19039046
0.19039732
0.19039732
0.19045863
0.19039885
0.19039885
0.19053159
0.19053159
0.015913615
0.018829167
0.022541576
0.04091988
0.06317142
0.084268273
0.10377245
0.12190956
0.12190956
0.13720744
0.15168699
0.16434071
0.17473079
0.18188862
0.18695529
0.19045766
0.19045766
0.19270541
0.19383316
0.19414139
0.19414139
0.19398611
0.19341845
0.19270083
0.19270083
0.19201401
0.19145004
0.19105573
0.19105573
0.19082111
0.19062987
0.19062987
)
;
    }
    procBoundary2to3
    {
        type            processor;
        value           nonuniform List<scalar> 
65
(
0.027714865
0.031117978
0.037421042
0.049403187
0.065619143
0.083397959
0.10122964
0.11845083
0.13463005
0.14930225
0.16312206
0.16312206
0.17310679
0.18061545
0.18584767
0.18917616
0.19102401
0.19178775
0.1918145
0.19140658
0.19081439
0.19021708
0.18970708
0.1893128
0.18903061
0.18894703
0.18894703
0.18880169
0.18870365
0.18862863
0.1885791
0.18854374
0.18862301
0.18862301
0.18861062
0.18860764
0.18870074
0.18870074
0.1887059
0.18871892
0.18882598
0.18882598
0.18885349
0.1889739
0.1889739
0.18910212
0.18910212
0.1891692
0.18933249
0.18933249
0.18952357
0.18952357
0.18975637
0.18975637
0.19005228
0.19011765
0.19011765
0.19051561
0.19051561
0.19108509
0.19114999
0.19114999
0.19155839
0.19164427
0.19164427
)
;
    }
    procBoundary2to9
    {
        type            processor;
        value           nonuniform List<scalar> 
23
(
0.02467564
0.024209359
0.023790981
0.023486945
0.023217322
0.022832567
0.022307545
0.02174971
0.0212677
0.020889725
0.020574338
0.020252351
0.019891916
0.01949472
0.019066803
0.018650564
0.018310078
0.018047267
0.017746949
0.017333464
0.016871676
0.016482407
0.016210143
)
;
    }
    procBoundary2to10
    {
        type            processor;
        value           uniform 0.025043369;
    }
}


// ************************************************************************* //
