/*--------------------------------*- C++ -*----------------------------------*\
| =========                 |                                                 |
| \\      /  F ield         | OpenFOAM: The Open Source CFD Toolbox           |
|  \\    /   O peration     | Version:  2506                                  |
|   \\  /    A nd           | Website:  www.openfoam.com                      |
|    \\/     M anipulation  |                                                 |
\*---------------------------------------------------------------------------*/
FoamFile
{
    version     2.0;
    format      ascii;
    arch        "LSB;label=32;scalar=64";
    class       volScalarField;
    location    "0.00017";
    object      Co;
}
// * * * * * * * * * * * * * * * * * * * * * * * * * * * * * * * * * * * * * //

dimensions      [0 0 0 0 0 0 0];

internalField   nonuniform List<scalar> 
13761
(
0.0071319117
0.01274539
0.01174836
0.010569494
0.0096273858
0.0090960357
0.0085765782
0.0079658396
0.0071898622
0.0066511623
0.0062525885
0.0059087998
0.0055827859
0.0052697025
0.0047771148
0.0042449802
0.0039035544
0.0037200075
0.0036046122
0.0034091691
0.0032863102
0.0032696319
0.0031913953
0.0030137053
0.0028558624
0.0026832785
0.0025195382
0.002405282
0.0022954498
0.0021318072
0.0019658383
0.0018183811
0.0016315591
0.0013865844
0.0011051278
0.00079907547
0.0005528233
0.00048566996
0.00052652315
0.00064007166
0.00079925866
0.00094919552
0.0010166656
0.00092921318
0.00062460192
0.00035541624
0.00032827496
0.00034036775
0.00035483986
0.00041229963
0.00050656062
0.00051952766
0.00040920029
0.00024821501
0.00010537167
5.983764e-05
8.2661311e-05
5.9455089e-05
9.6716621e-05
0.00014222788
0.00014836809
0.000140344
0.00012541664
0.00010528476
8.4622524e-05
6.7960422e-05
6.0240156e-05
6.3495765e-05
7.0296634e-05
7.3737583e-05
7.4823779e-05
7.4506948e-05
7.3568619e-05
7.246029e-05
7.1362062e-05
7.0322513e-05
6.934723e-05
6.8431906e-05
6.7570819e-05
6.6758477e-05
6.5989589e-05
6.5259148e-05
6.4562469e-05
6.3895202e-05
6.3253076e-05
6.2632121e-05
6.2028486e-05
6.1438602e-05
6.0858968e-05
6.0286161e-05
5.9717022e-05
5.9148472e-05
5.8577493e-05
5.800119e-05
5.7416723e-05
5.6821434e-05
5.6212725e-05
5.5588071e-05
5.4945093e-05
5.4281531e-05
5.3595228e-05
5.2884192e-05
5.2146592e-05
5.1380783e-05
5.0585292e-05
4.9758854e-05
4.8900482e-05
4.8009444e-05
4.7085254e-05
4.6127764e-05
4.5137152e-05
4.4113943e-05
4.3058976e-05
4.1973483e-05
4.0859078e-05
3.9717704e-05
3.8551662e-05
3.7363572e-05
3.6156418e-05
3.4933413e-05
3.3698006e-05
3.2453893e-05
3.1204896e-05
2.9954912e-05
2.8707918e-05
2.746787e-05
2.623865e-05
2.5024038e-05
2.3827636e-05
2.2652844e-05
2.1502812e-05
2.0380401e-05
1.9288183e-05
1.82284e-05
1.7202962e-05
1.6213445e-05
1.5261088e-05
1.4346806e-05
0.0069741084
0.012667925
0.012063966
0.011263787
0.010508939
0.0097372937
0.0090236985
0.0083789399
0.0078499349
0.0073636018
0.0068779329
0.0063924336
0.0058901188
0.005501336
0.0051907307
0.0048970657
0.0046574437
0.0044787728
0.0042619837
0.0040050009
0.003695873
0.0033537223
0.0030334511
0.0027687386
0.0025633503
0.0023709657
0.0021576819
0.0019417164
0.0017545957
0.0015995356
0.0014631925
0.0013115623
0.0011209158
0.0009405641
0.00079425339
0.00069283674
0.00067365017
0.00073324113
0.00081206732
0.00087294032
0.00089997264
0.00088702529
0.00078504112
0.00055098111
0.00035641467
0.00032668572
0.00034513613
0.00035894271
0.00038420721
0.00042912856
0.00044408931
0.00037628996
0.00028655214
0.00018088694
9.4772847e-05
0.00010623401
0.00013216335
0.00012555388
0.0001441384
0.00014899242
0.00014656403
0.00013479972
0.00011625048
9.4925589e-05
7.3684075e-05
5.6949337e-05
5.0083586e-05
5.384228e-05
6.0175919e-05
6.3286115e-05
6.4189233e-05
6.3798239e-05
6.2849528e-05
6.175951e-05
6.0690175e-05
5.9683856e-05
5.8744661e-05
5.786815e-05
5.7048804e-05
5.6281299e-05
5.5560583e-05
5.4881919e-05
5.4240883e-05
5.3633331e-05
5.3055325e-05
5.2503218e-05
5.1973469e-05
5.1462766e-05
5.0967924e-05
5.048596e-05
5.0013955e-05
4.9549175e-05
4.9088921e-05
4.8630627e-05
4.8171828e-05
4.771012e-05
4.7243204e-05
4.6768816e-05
4.6284816e-05
4.5789131e-05
4.5279753e-05
4.4754779e-05
4.4212366e-05
4.3650834e-05
4.3068597e-05
4.2464172e-05
4.1836253e-05
4.1183701e-05
4.0505566e-05
3.980105e-05
3.906959e-05
3.8310886e-05
3.7524883e-05
3.6711769e-05
3.5872009e-05
3.5006382e-05
3.4115963e-05
3.3202113e-05
3.2266475e-05
3.1310999e-05
3.033789e-05
2.9349604e-05
2.8348829e-05
2.7338434e-05
2.6321449e-05
2.5301014e-05
2.4280346e-05
2.3262685e-05
2.2251258e-05
2.1249239e-05
2.0259683e-05
1.9285513e-05
1.832947e-05
1.7394086e-05
1.6481667e-05
1.5594259e-05
1.4733646e-05
1.3901342e-05
0.0073980169
0.013634249
0.013076682
0.012168819
0.011299066
0.010483756
0.0097328857
0.0090507306
0.0084137239
0.0078364468
0.0072867402
0.006769232
0.0062958946
0.005843789
0.0054299251
0.005056252
0.0046914537
0.004333047
0.0039738615
0.0036072707
0.0032518776
0.002919439
0.0026080374
0.0023162846
0.0020392718
0.0017859594
0.0015757586
0.0014245435
0.0013182886
0.0012419834
0.001173154
0.0010936203
0.0010065759
0.00094596841
0.00092916545
0.00093959036
0.00094848479
0.00094599755
0.00093205891
0.00091018412
0.00084930626
0.00071333988
0.00049790249
0.00034754351
0.00032635482
0.0003504316
0.00036315923
0.00038118628
0.00041130729
0.00042352732
0.00038146556
0.00030718627
0.0002129652
0.00011760976
0.00014024682
0.00018237539
0.00017507049
0.00016170051
0.0001517287
0.00014976596
0.00014618045
0.00013304747
0.00011391044
9.1678526e-05
6.9910494e-05
5.2990846e-05
4.594579e-05
4.9560747e-05
5.5802497e-05
5.885802e-05
5.9737497e-05
5.9342597e-05
5.8399232e-05
5.7318111e-05
5.625918e-05
5.5264228e-05
5.4337351e-05
5.3474154e-05
5.2669172e-05
5.1917197e-05
5.1213262e-05
5.0552685e-05
4.9931137e-05
4.9344625e-05
4.8789283e-05
4.8261584e-05
4.7758073e-05
4.7275567e-05
4.6811045e-05
4.6361636e-05
4.592456e-05
4.5497148e-05
4.5076929e-05
4.4661453e-05
4.4248367e-05
4.383544e-05
4.3420452e-05
4.3001333e-05
4.2576035e-05
4.214256e-05
4.1699019e-05
4.124359e-05
4.077452e-05
4.0290124e-05
3.9788846e-05
3.9269215e-05
3.8729848e-05
3.8169512e-05
3.7587112e-05
3.6981726e-05
3.6352591e-05
3.5699119e-05
3.5020944e-05
3.431791e-05
3.3590131e-05
3.2837948e-05
3.2061942e-05
3.1262995e-05
3.0442237e-05
2.9601069e-05
2.8741164e-05
2.7864433e-05
2.697302e-05
2.6069294e-05
2.5155802e-05
2.4235231e-05
2.3310405e-05
2.2384223e-05
2.145963e-05
2.053956e-05
1.9626913e-05
1.8724509e-05
1.7835051e-05
1.6961097e-05
1.610502e-05
1.5268995e-05
1.445497e-05
1.3664656e-05
0.0072222054
0.01332035
0.012692804
0.011770331
0.010892555
0.010056324
0.0092844409
0.0085583593
0.0078735739
0.0072407278
0.0066674309
0.0061501662
0.0056704633
0.005213962
0.0047829726
0.0043768327
0.0040046915
0.0036526216
0.0033071687
0.0029664072
0.0026352382
0.0023406817
0.0020800525
0.0018381683
0.001623559
0.0014434457
0.0013137777
0.0012435605
0.0012166231
0.0012054083
0.0011941454
0.0011868877
0.0011819464
0.001171727
0.0011429343
0.0010861904
0.0010055647
0.00092894382
0.00086798493
0.00078757265
0.00065513791
0.00049060711
0.00035006658
0.00031806969
0.00034329282
0.00035023253
0.0003784796
0.00042360749
0.00042592851
0.00037662854
0.00032801266
0.00023118935
0.00012376697
0.00014468084
0.00019589182
0.00019315006
0.000181353
0.00016419714
0.00015244574
0.00014890895
0.00014460087
0.00013095185
0.00011177707
8.9250934e-05
6.7337958e-05
5.0312594e-05
4.3154831e-05
4.6676334e-05
5.2878179e-05
5.5906663e-05
5.6773806e-05
5.6376987e-05
5.543688e-05
5.4361066e-05
5.3308341e-05
5.2320214e-05
5.1400752e-05
5.0545594e-05
4.9749312e-05
4.9006732e-05
4.8312975e-05
4.7663391e-05
4.7053731e-05
4.6480051e-05
4.5938527e-05
4.5425695e-05
4.4938233e-05
4.4473026e-05
4.4027103e-05
4.3597635e-05
4.3181983e-05
4.277761e-05
4.2382037e-05
4.1992959e-05
4.1608126e-05
4.1225355e-05
4.0842576e-05
4.0457752e-05
4.0068934e-05
3.9674235e-05
3.9271814e-05
3.8859924e-05
3.8436874e-05
3.8001029e-05
3.7550818e-05
3.7084792e-05
3.6601591e-05
3.6099956e-05
3.557872e-05
3.503686e-05
3.447353e-05
3.3888015e-05
3.3279764e-05
3.2648453e-05
3.1993938e-05
3.1316308e-05
3.0615882e-05
2.9893204e-05
2.9149094e-05
2.8384614e-05
2.7601071e-05
2.6800007e-05
2.5983214e-05
2.5152684e-05
2.4310617e-05
2.3459399e-05
2.2601532e-05
2.1739647e-05
2.0876448e-05
2.0014669e-05
1.9157056e-05
1.8306316e-05
1.7465079e-05
1.6635867e-05
1.5821067e-05
1.5022892e-05
1.4243373e-05
0.0063973901
0.011840572
0.011343328
0.010491799
0.0096586726
0.0088711409
0.0081377291
0.0074473051
0.0068242229
0.0062735657
0.0057778025
0.0053374104
0.0049188125
0.0045082523
0.0041323003
0.0038027041
0.0035030527
0.0032200971
0.0029388833
0.002650585
0.00236959
0.002119814
0.0018955089
0.0016992585
0.0015467134
0.0014290023
0.0013579242
0.00134132
0.0013602362
0.0013800597
0.0013790102
0.001354132
0.0013073195
0.0012397332
0.0011539728
0.0010524787
0.00093186094
0.00080805652
0.00069648928
0.00060073836
0.00051078568
0.00041784013
0.00034176965
0.00032541219
0.00037396584
0.00043310514
0.00045726326
0.00043584983
0.00036942538
0.00033011145
0.00025935024
0.00013253617
0.00014679003
0.00019586087
0.00020054199
0.00019633645
0.00018312949
0.00016503893
0.00015174795
0.00014747962
0.00014303834
0.00012932466
0.0001101291
8.7494944e-05
6.5406166e-05
4.8242694e-05
4.099516e-05
4.4433292e-05
5.0599819e-05
5.3604633e-05
5.4462e-05
5.4064089e-05
5.312681e-05
5.2055341e-05
5.1007572e-05
5.0024825e-05
4.9111126e-05
4.826215e-05
4.7472546e-05
4.6737118e-05
4.6051018e-05
4.5409684e-05
4.4808905e-05
4.424476e-05
4.3713502e-05
4.3211724e-05
4.2736132e-05
4.2283673e-05
4.1851443e-05
4.1436713e-05
4.1036865e-05
4.064942e-05
4.027203e-05
3.9902401e-05
3.9538356e-05
3.9177828e-05
3.8818793e-05
3.8459302e-05
3.8097452e-05
3.7731435e-05
3.7359486e-05
3.6979887e-05
3.6590996e-05
3.6191229e-05
3.5779083e-05
3.5353114e-05
3.4911949e-05
3.4454313e-05
3.3979047e-05
3.3485087e-05
3.2971488e-05
3.2437456e-05
3.1882359e-05
3.1305722e-05
3.0707251e-05
3.0086847e-05
2.9444631e-05
2.8780944e-05
2.8096338e-05
2.7391621e-05
2.6667829e-05
2.5926224e-05
2.5168309e-05
2.4395809e-05
2.3610635e-05
2.2814885e-05
2.2010833e-05
2.1200861e-05
2.0387459e-05
1.9573197e-05
1.8760658e-05
1.7952426e-05
1.7151047e-05
1.6358988e-05
1.5578614e-05
1.4812154e-05
1.4061674e-05
0.0059879072
0.011095949
0.010632522
0.0098477958
0.0090891828
0.0083781109
0.0077250505
0.0071185832
0.0065595222
0.0060458287
0.005569271
0.0051375447
0.0047408646
0.0043663415
0.0040150183
0.0036851669
0.0033774913
0.0030925987
0.0028230625
0.0025603665
0.002310167
0.0020882792
0.0019011593
0.0017490936
0.0016352051
0.001556175
0.0015068038
0.0014771769
0.0014562339
0.0014323345
0.0013953975
0.0013438088
0.0012704374
0.0011711325
0.0010513154
0.00091124205
0.00076243562
0.00064223631
0.00057020809
0.00053340742
0.00050453423
0.00047182918
0.00045547227
0.00046802871
0.00048910534
0.00048587231
0.00044023593
0.00036038793
0.00032042684
0.00029852601
0.00014728931
0.00012738463
0.00019399781
0.00019616199
0.00019992834
0.00019561959
0.00018217244
0.00016394071
0.00015039688
0.00014606885
0.00014166638
0.00012799524
0.00010874926
8.6071557e-05
6.3836344e-05
4.657691e-05
3.9228289e-05
4.257884e-05
4.8725761e-05
5.1717284e-05
5.2568059e-05
5.2169296e-05
5.1234367e-05
5.0166505e-05
4.9122866e-05
4.8144533e-05
4.7235547e-05
4.6391575e-05
4.5607291e-05
4.4877572e-05
4.4197586e-05
4.3562796e-05
4.2969021e-05
4.2412404e-05
4.1889222e-05
4.1396105e-05
4.0929811e-05
4.0487335e-05
4.0065823e-05
3.9662587e-05
3.9275072e-05
3.890085e-05
3.8537614e-05
3.8183168e-05
3.7835386e-05
3.7492226e-05
3.7151734e-05
3.681202e-05
3.6471264e-05
3.61277e-05
3.5779614e-05
3.5425348e-05
3.5063308e-05
3.4691958e-05
3.4309793e-05
3.3915404e-05
3.3507457e-05
3.3084665e-05
3.2645848e-05
3.2189942e-05
3.1715956e-05
3.1223041e-05
3.0710487e-05
3.0177714e-05
2.9624323e-05
2.9050093e-05
2.8454986e-05
2.7839164e-05
2.7203016e-05
2.6547126e-05
2.5872314e-05
2.5179633e-05
2.4470346e-05
2.3745929e-05
2.3008073e-05
2.2258659e-05
2.1499714e-05
2.0733435e-05
1.996213e-05
1.918818e-05
1.8414032e-05
1.7642153e-05
1.6874997e-05
1.6114968e-05
1.5364392e-05
1.4625488e-05
1.3900336e-05
0.0057687101
0.010708108
0.010272109
0.0095093918
0.0087728306
0.0080840528
0.0074485145
0.0068630163
0.0063278056
0.0058384073
0.0053815057
0.0049575857
0.0045689191
0.0042061749
0.0038675636
0.0035547969
0.003269591
0.0030031631
0.0027515056
0.0025149015
0.0022951555
0.0021003826
0.0019262629
0.001774645
0.0016547737
0.0015665124
0.0015030154
0.0014545791
0.0014128276
0.001367149
0.0013119366
0.001239515
0.0011441503
0.0010337837
0.00092062158
0.00080050183
0.00068150187
0.00059525658
0.00056268289
0.00057155871
0.00058070357
0.00056447394
0.00053984029
0.00052396213
0.0005020633
0.0004444431
0.00035212405
0.000309844
0.00031945963
0.00021155911
0.00011630487
0.00019006951
0.00019367785
0.00019509431
0.00019885107
0.00019461289
0.0001811375
0.00016286544
0.00014923707
0.00014489286
0.00014051704
0.00012686512
0.00010758895
8.4888559e-05
6.2530318e-05
4.5171527e-05
3.7736555e-05
4.1028236e-05
4.7153051e-05
5.0131681e-05
5.0976831e-05
5.0577385e-05
4.9644162e-05
4.8578857e-05
4.7538159e-05
4.6563059e-05
4.565755e-05
4.481732e-05
4.4037059e-05
4.3311686e-05
4.2636387e-05
4.2006651e-05
4.141831e-05
4.0867559e-05
4.0350704e-05
3.9864392e-05
3.9405431e-05
3.8970852e-05
3.8557856e-05
3.8163763e-05
3.7786072e-05
3.7422413e-05
3.7070524e-05
3.6728233e-05
3.6393472e-05
3.6064267e-05
3.5738705e-05
3.5414943e-05
3.5091209e-05
3.4765784e-05
3.4437003e-05
3.4103266e-05
3.3762998e-05
3.34147e-05
3.3056932e-05
3.2688285e-05
3.2307438e-05
3.1913141e-05
3.15042e-05
3.1079512e-05
3.0638093e-05
3.0179049e-05
2.9701603e-05
2.9205132e-05
2.8689148e-05
2.8153314e-05
2.7597479e-05
2.7021678e-05
2.642613e-05
2.581128e-05
2.5177766e-05
2.4526452e-05
2.3858411e-05
2.3174928e-05
2.2477487e-05
2.1767758e-05
2.1047606e-05
2.0319031e-05
1.9584158e-05
1.8845233e-05
1.8104563e-05
1.7364498e-05
1.6627396e-05
1.5895593e-05
1.5171368e-05
1.4456916e-05
0.0054635422
0.010148217
0.0097431428
0.0090260682
0.0083352206
0.0076931221
0.0071051484
0.0065654115
0.0060692753
0.0056125744
0.0051842332
0.0047868924
0.0044260517
0.0040955639
0.0037820231
0.0034845824
0.0032062928
0.0029465222
0.0027085789
0.002493473
0.0022935707
0.0020978581
0.0019141532
0.0017506056
0.0016105764
0.0015017572
0.0014236247
0.0013668231
0.0013220364
0.001279785
0.001231518
0.0011649583
0.0010771707
0.00098041634
0.00088576272
0.00079049079
0.0007036337
0.00065455528
0.00064852225
0.00065228552
0.00063373433
0.00058606255
0.00053293593
0.00048637212
0.0004182279
0.00033600476
0.00030385425
0.00031448505
0.00027947975
0.00014094206
0.00014038818
0.00019357407
0.00019222975
0.00019328305
0.00019728722
0.00019347491
0.00018015421
0.00016189652
0.00014822891
0.00014386632
0.00013950237
0.00012585719
0.00010657488
8.3868523e-05
6.1409221e-05
4.3958685e-05
3.6452707e-05
3.9701742e-05
4.5808498e-05
4.8775249e-05
4.9615008e-05
4.9214277e-05
4.8281851e-05
4.721818e-05
4.6179453e-05
4.5206558e-05
4.4303508e-05
4.3466006e-05
4.2688728e-05
4.1966619e-05
4.1294888e-05
4.0669033e-05
4.0084957e-05
3.9538817e-05
3.902696e-05
3.8546082e-05
3.8093e-05
3.7664775e-05
3.7258629e-05
3.6871948e-05
3.6502249e-05
3.61472e-05
3.5804576e-05
3.5472235e-05
3.5148165e-05
3.4830423e-05
3.4517142e-05
3.4206533e-05
3.3896847e-05
3.3586428e-05
3.3273635e-05
3.2956902e-05
3.263472e-05
3.2305601e-05
3.1968135e-05
3.1620961e-05
3.1262755e-05
3.0892273e-05
3.0508343e-05
3.0109861e-05
2.9695817e-05
2.9265296e-05
2.8817491e-05
2.835171e-05
2.7867402e-05
2.7364166e-05
2.6841746e-05
2.6300071e-05
2.5739255e-05
2.5159584e-05
2.4561568e-05
2.3945908e-05
2.3313513e-05
2.26655e-05
2.2003181e-05
2.1328069e-05
2.0641833e-05
1.994632e-05
1.9243517e-05
1.8535515e-05
1.7824492e-05
1.7112691e-05
1.640238e-05
1.5695816e-05
1.4995228e-05
1.4302777e-05
0.0052103943
0.0097083935
0.009354449
0.0086752007
0.0080118241
0.0073923551
0.0068242559
0.0062983091
0.0058126371
0.0053660813
0.0049506691
0.0045667229
0.0042125288
0.0038858411
0.0035848088
0.0033039923
0.0030457432
0.002804682
0.0025738536
0.0023509129
0.0021371582
0.0019434259
0.0017721355
0.0016256124
0.0015099459
0.001421679
0.0013532368
0.0013037739
0.0012739199
0.0012460638
0.0012044991
0.0011417628
0.0010595571
0.0009716814
0.00088740558
0.00080304971
0.00072634328
0.00068380847
0.00067443495
0.00066411573
0.00061719333
0.0005336536
0.00043586998
0.00033086991
0.00028719973
0.00030528678
0.00030995316
0.00030380126
0.00019837255
0.0001117857
0.0001748571
0.00019277881
0.0001908106
0.0001919205
0.00019604013
0.00019250277
0.00017930041
0.00016105748
0.00014734642
0.00014295577
0.00013861
0.00012498491
0.00010570359
8.2988165e-05
6.0439654e-05
4.2905455e-05
3.5325734e-05
3.8533848e-05
4.4623546e-05
4.7579355e-05
4.8414417e-05
4.8012995e-05
4.7081811e-05
4.6020013e-05
4.498338e-05
4.401273e-05
4.3112079e-05
4.227716e-05
4.1502693e-05
4.0783588e-05
4.0115115e-05
3.9492785e-05
3.8912463e-05
3.8370393e-05
3.7862932e-05
3.7386779e-05
3.6938799e-05
3.6516081e-05
3.6115854e-05
3.5735535e-05
3.5372694e-05
3.5024999e-05
3.4690279e-05
3.4366446e-05
3.4051492e-05
3.3743528e-05
3.3440716e-05
3.3141298e-05
3.2843584e-05
3.2545925e-05
3.2246745e-05
3.1944518e-05
3.1637742e-05
3.1324979e-05
3.1004848e-05
3.0676e-05
3.0337144e-05
2.9987054e-05
2.9624559e-05
2.924856e-05
2.8858034e-05
2.8452048e-05
2.8029765e-05
2.7590461e-05
2.7133534e-05
2.6658514e-05
2.6165085e-05
2.5653081e-05
2.5122504e-05
2.4573551e-05
2.4006595e-05
2.3422206e-05
2.2821151e-05
2.2204407e-05
2.1573133e-05
2.092868e-05
2.0272587e-05
1.9606547e-05
1.8932395e-05
1.8252097e-05
1.7567718e-05
1.6881388e-05
1.6195285e-05
1.5511601e-05
1.4832502e-05
1.4160113e-05
0.0051728695
0.0096590797
0.0093269141
0.0086765866
0.0080318535
0.0074310583
0.0068863847
0.0063789634
0.005914983
0.0054855278
0.0050853879
0.0047219044
0.0043825061
0.004066526
0.0037736198
0.0034937695
0.0032282643
0.0029758206
0.0027387174
0.0025106821
0.0022919954
0.0020860566
0.001887152
0.0017029636
0.0015445145
0.0014187169
0.001331042
0.0012722831
0.0012274833
0.0011860749
0.0011410505
0.0010850602
0.0010129574
0.00093487931
0.00085635671
0.00077051124
0.00068590722
0.00063349953
0.00060862916
0.00056418469
0.00047509859
0.00036566941
0.00029712947
0.00029752671
0.00030561926
0.00030463071
0.00028529293
0.00022965331
0.00010852928
0.00010345727
0.00017777673
0.00019201235
0.0001896481
0.00019067636
0.0001949234
0.00019164276
0.00017855366
0.00016032518
0.00014657231
0.00014215705
0.0001378414
0.00012423035
0.00010494634
8.2213028e-05
5.9573194e-05
4.1977756e-05
3.432727e-05
3.7483831e-05
4.3560134e-05
4.6508123e-05
4.734064e-05
4.6940104e-05
4.60109e-05
4.495124e-05
4.3916767e-05
4.2948348e-05
4.205006e-05
4.1217629e-05
4.0445798e-05
3.9729512e-05
3.9064013e-05
3.8444865e-05
3.7867963e-05
3.7329548e-05
3.6826004e-05
3.6354058e-05
3.591058e-05
3.5492676e-05
3.509763e-05
3.4722875e-05
3.4365997e-05
3.4024722e-05
3.3696874e-05
3.3380404e-05
3.3073351e-05
3.2773844e-05
3.2480087e-05
3.2190365e-05
3.1902991e-05
3.1616379e-05
3.1328984e-05
3.1039288e-05
3.0745855e-05
3.044727e-05
3.0142155e-05
2.98292e-05
2.950714e-05
2.9174757e-05
2.8830894e-05
2.8474453e-05
2.810441e-05
2.7719819e-05
2.7319834e-05
2.6903697e-05
2.6470763e-05
2.6020515e-05
2.5552567e-05
2.5066687e-05
2.4562804e-05
2.4041008e-05
2.3501564e-05
2.2944934e-05
2.2371771e-05
2.1782911e-05
2.1179388e-05
2.0562421e-05
1.9933406e-05
1.9293901e-05
1.8645622e-05
1.7990411e-05
1.7330216e-05
1.6667073e-05
1.6003069e-05
1.5340319e-05
1.4680936e-05
0.0055195964
0.010315452
0.0099353469
0.0092335288
0.0085362998
0.0078815192
0.0072904544
0.0067317019
0.0062265115
0.0057619257
0.0053273727
0.0049347983
0.0045609526
0.0042013925
0.00385794
0.0035327151
0.0032361971
0.0029571481
0.0026951908
0.0024548249
0.0022391175
0.0020503431
0.001878026
0.0017300228
0.0016131739
0.0015266112
0.0014650186
0.001405249
0.0013327867
0.0012455574
0.0011486275
0.0010571173
0.00097814681
0.00089890038
0.00080289584
0.00070077828
0.00060184389
0.00051518262
0.00042826729
0.00032347365
0.00027179342
0.00027696816
0.00028644708
0.00029783581
0.00029595469
0.00027580407
0.00021282779
0.00014667822
8.0320334e-05
0.00010112703
0.00017613347
0.00019106702
0.00018855914
0.00018943613
0.00019378096
0.00019077303
0.00017782068
0.00015962252
0.00014584011
0.00014142697
0.00013715969
0.00012359308
0.00010430533
8.1545575e-05
5.8809341e-05
4.1146284e-05
3.3432618e-05
3.653288e-05
4.2598894e-05
4.5539893e-05
4.6371263e-05
4.5972575e-05
4.5045686e-05
4.3988233e-05
4.2955916e-05
4.1989709e-05
4.1093705e-05
4.0263662e-05
3.9494315e-05
3.8780653e-05
3.8117933e-05
3.7501719e-05
3.6927936e-05
3.6392823e-05
3.5892799e-05
3.5424609e-05
3.4985134e-05
3.4571531e-05
3.4181086e-05
3.3811258e-05
3.3459647e-05
3.3124005e-05
3.2802199e-05
3.2492209e-05
3.2192084e-05
3.1899991e-05
3.1614167e-05
3.1332916e-05
3.1054616e-05
3.0777685e-05
3.0500603e-05
3.0221902e-05
2.9940155e-05
2.9653975e-05
2.9362032e-05
2.9063031e-05
2.8755717e-05
2.8438893e-05
2.8111418e-05
2.7772199e-05
2.7420213e-05
2.7054514e-05
2.6674229e-05
2.6278578e-05
2.5866894e-05
2.5438615e-05
2.4993313e-05
2.453069e-05
2.4050591e-05
2.3553036e-05
2.3038214e-05
2.2506481e-05
2.1958369e-05
2.1394613e-05
2.081613e-05
2.0224008e-05
1.9619524e-05
1.9004129e-05
1.8379409e-05
1.7747092e-05
1.7109028e-05
1.6467152e-05
1.5823469e-05
1.518002e-05
1.4538862e-05
0.0053483669
0.010000769
0.0096316996
0.0089417168
0.0082647944
0.0076276419
0.007041501
0.0065004378
0.0060080414
0.0055566519
0.0051361374
0.0047492294
0.0043864455
0.0040345935
0.0036867152
0.0033505223
0.0030399321
0.0027514163
0.0024827312
0.0022437656
0.0020348245
0.0018432714
0.0016635328
0.0015053963
0.0013715566
0.0012596883
0.0011734809
0.0010986741
0.0010270268
0.00097605116
0.0009501668
0.00092223366
0.0008717325
0.0008015721
0.00069502927
0.00055443019
0.00042265
0.00032042172
0.00030933592
0.00034738402
0.00034196861
0.00030815453
0.00028474554
0.0002792895
0.0002596052
0.00021043666
0.00014882911
0.00013404591
9.0267636e-05
0.00010049682
0.00017551765
0.000190252
0.00018764749
0.00018842151
0.00019283588
0.00019001478
0.00017715464
0.00015897938
0.00014517324
0.00014075914
0.00013653116
0.00012301283
0.00010371986
8.094163e-05
5.814214e-05
4.0413146e-05
3.2624315e-05
3.5664419e-05
4.1724342e-05
4.4661268e-05
4.5491964e-05
4.5094359e-05
4.4169257e-05
4.3113819e-05
4.2083589e-05
4.1119508e-05
4.0225683e-05
3.9397901e-05
3.8630921e-05
3.7919705e-05
3.7259555e-05
3.6646036e-05
3.6075095e-05
3.5542997e-05
3.504616e-05
3.4581363e-05
3.4145501e-05
3.3735739e-05
3.3349391e-05
3.2983939e-05
3.2637018e-05
3.2306389e-05
3.1989944e-05
3.1685678e-05
3.1391695e-05
3.1106176e-05
3.0827378e-05
3.0553633e-05
3.0283339e-05
3.0014963e-05
2.9747006e-05
2.9478017e-05
2.9206605e-05
2.8931415e-05
2.8651137e-05
2.8364491e-05
2.8070252e-05
2.776724e-05
2.7454314e-05
2.7130399e-05
2.6794475e-05
2.6445581e-05
2.6082849e-05
2.5705489e-05
2.5312794e-05
2.4904178e-05
2.447916e-05
2.4037395e-05
2.3578688e-05
2.3102975e-05
2.261035e-05
2.2101096e-05
2.1575664e-05
2.1034674e-05
2.0478939e-05
1.9909453e-05
1.9327369e-05
1.8734016e-05
1.8130886e-05
1.7519606e-05
1.690192e-05
1.6279675e-05
1.565479e-05
1.5029237e-05
1.4405012e-05
0.0050421299
0.009439283
0.0090954011
0.0084271986
0.0077691754
0.0071483127
0.0065768364
0.0060486632
0.0055698604
0.0051347647
0.0047322363
0.0043630279
0.0040090071
0.0036547656
0.0032966738
0.0029479525
0.0026297094
0.0023328348
0.002056411
0.001815229
0.0016047156
0.0014014386
0.0012024508
0.0010243954
0.00086951306
0.00074398229
0.00065657625
0.00058233266
0.00049959541
0.00043004658
0.00039429937
0.00040866948
0.00048873382
0.00057431538
0.00055318908
0.00041564968
0.00027946277
0.00026225386
0.00032274737
0.00036143095
0.00034933447
0.00030027434
0.00026008352
0.0002306683
0.00019300272
0.00016074634
0.00014354235
0.00014716476
9.2088733e-05
9.9424469e-05
0.00017427675
0.00018949072
0.00018687299
0.00018761073
0.00019209223
0.00018939508
0.00017659188
0.00015842954
0.00014458004
0.00014013408
0.0001359353
0.00012245962
0.0001031675
8.0375706e-05
5.7520172e-05
3.974356e-05
3.1890524e-05
3.4885312e-05
4.0940561e-05
4.3874304e-05
4.4703254e-05
4.430537e-05
4.3380923e-05
4.2326532e-05
4.1297528e-05
4.0334777e-05
3.9442381e-05
3.8616109e-05
3.7850768e-05
3.7141327e-05
3.6483071e-05
3.587159e-05
3.5302849e-05
3.4773123e-05
3.427883e-05
3.3816769e-05
3.3383875e-05
3.2977302e-05
3.2594386e-05
3.2232631e-05
3.1889686e-05
3.1563338e-05
3.1251498e-05
3.0952188e-05
3.0663516e-05
3.0383689e-05
3.0111002e-05
2.9843811e-05
2.958054e-05
2.9319667e-05
2.9059726e-05
2.8799297e-05
2.8537013e-05
2.8271537e-05
2.8001568e-05
2.772587e-05
2.7443232e-05
2.7152476e-05
2.6852487e-05
2.6542197e-05
2.622059e-05
2.5886715e-05
2.5539677e-05
2.5178675e-05
2.4802997e-05
2.4412028e-05
2.4005251e-05
2.3582279e-05
2.314285e-05
2.2686848e-05
2.2214317e-05
2.1725446e-05
2.1220601e-05
2.0700323e-05
2.0165325e-05
1.9616496e-05
1.9054903e-05
1.8481775e-05
1.7898492e-05
1.7306583e-05
1.6707701e-05
1.6103607e-05
1.5496146e-05
1.488722e-05
1.4278766e-05
0.0046426999
0.0087209726
0.0084246458
0.0078036592
0.0071893877
0.0066105965
0.0060775935
0.0055841753
0.0051339523
0.0047226552
0.0043393197
0.0039849746
0.0036472456
0.0033054948
0.0029628361
0.0026296379
0.0023137124
0.002026958
0.0017678897
0.0015390472
0.0013376182
0.0011434978
0.00095362504
0.00077929901
0.00061655875
0.00047363974
0.00037032436
0.00035763924
0.00042049708
0.00049703038
0.00055648457
0.00056383754
0.00046909855
0.00038620157
0.00041495405
0.00037009564
0.00023359419
0.000210965
0.0002702102
0.00030819631
0.00029815375
0.00025339526
0.00021793125
0.00017952442
0.000166493
0.00015785969
0.00015416491
0.00014873755
9.1930941e-05
9.8692003e-05
0.00017334183
0.00018879858
0.0001861554
0.00018682907
0.00019135729
0.00018880247
0.00017607201
0.00015792365
0.0001440329
0.0001395649
0.00013540311
0.00012194941
0.00010265328
7.9857091e-05
5.6943606e-05
3.9118099e-05
3.1216537e-05
3.4181395e-05
4.0228101e-05
4.3156696e-05
4.3983296e-05
4.3584742e-05
4.2660613e-05
4.1607008e-05
4.0578975e-05
3.9617316e-05
3.8726122e-05
3.7901155e-05
3.7137205e-05
3.6429265e-05
3.5772646e-05
3.5162939e-05
3.4596099e-05
3.4068425e-05
3.3576374e-05
3.3116732e-05
3.2686434e-05
3.2282672e-05
3.1902782e-05
3.154429e-05
3.1204869e-05
3.0882315e-05
3.0574556e-05
3.0279633e-05
2.9995681e-05
2.9720931e-05
2.9453692e-05
2.9192345e-05
2.8935332e-05
2.8681154e-05
2.8428365e-05
2.8175581e-05
2.7921445e-05
2.7664646e-05
2.7403921e-05
2.713803e-05
2.6865787e-05
2.658604e-05
2.6297676e-05
2.5999632e-05
2.5690905e-05
2.5370542e-05
2.5037656e-05
2.4691438e-05
2.4331144e-05
2.395613e-05
2.3565871e-05
2.3159938e-05
2.2738024e-05
2.2299962e-05
2.1845726e-05
2.1375454e-05
2.0889432e-05
2.0388118e-05
1.987214e-05
1.9342303e-05
1.8799573e-05
1.8245087e-05
1.7680141e-05
1.7106166e-05
1.6524733e-05
1.5937519e-05
1.5346292e-05
1.4752888e-05
0.003904584
0.0074058156
0.0072188622
0.0067025674
0.0061764808
0.005678709
0.0052166151
0.0047872077
0.0043939384
0.0040289446
0.0036898282
0.0033784662
0.0030797907
0.0027748176
0.0024573229
0.002142489
0.0018513536
0.001588645
0.0013487148
0.0011319381
0.00094463189
0.00076942556
0.00059531437
0.00043776055
0.00034599189
0.00037800111
0.00046568071
0.00051911713
0.00055622641
0.00060905103
0.00066011211
0.00067571261
0.00065049722
0.00050423481
0.00029998613
0.00018043737
0.00014769794
0.00019448509
0.00024650829
0.00027350107
0.00025963278
0.00022420794
0.00019959567
0.00017366021
0.0001740446
0.00016420516
0.00015456645
0.00014848545
9.1495954e-05
9.8101795e-05
0.00017261432
0.00018815184
0.00018546552
0.00018608403
0.00019067086
0.00018825738
0.00017560227
0.00015749217
0.00014354187
0.00013901722
0.00013488165
0.00012145361
0.00010217578
7.9398808e-05
5.6438154e-05
3.8549707e-05
3.0595217e-05
3.352745e-05
3.9568241e-05
4.2491933e-05
4.331625e-05
4.291728e-05
4.1993726e-05
4.0941086e-05
3.991418e-05
3.8953717e-05
3.8063781e-05
3.7240144e-05
3.6477608e-05
3.5771177e-05
3.5116164e-05
3.4508168e-05
3.3943168e-05
3.3417468e-05
3.2927521e-05
3.2470133e-05
3.2042256e-05
3.1641091e-05
3.1264004e-05
3.0908514e-05
3.0572307e-05
3.0253221e-05
2.994919e-05
2.9658261e-05
2.93786e-05
2.9108456e-05
2.8846146e-05
2.8590087e-05
2.8338738e-05
2.8090621e-05
2.7844319e-05
2.7598453e-05
2.7351692e-05
2.7102754e-05
2.6850384e-05
2.6593373e-05
2.6330544e-05
2.6060761e-05
2.578293e-05
2.5496001e-05
2.5198966e-05
2.4890884e-05
2.457086e-05
2.4238074e-05
2.3891786e-05
2.3531336e-05
2.3156154e-05
2.2765786e-05
2.2359889e-05
2.1938258e-05
2.1500813e-05
2.1047618e-05
2.0578909e-05
2.0095066e-05
1.9596641e-05
1.9084355e-05
1.8559092e-05
1.8021905e-05
1.7473998e-05
1.6916725e-05
1.6351568e-05
1.5780128e-05
1.5204104e-05
1.4625267e-05
0.0034818016
0.0066975453
0.0065539483
0.0060835988
0.0055985134
0.0051380443
0.0047097515
0.0043092587
0.0039414521
0.0036006031
0.0032838995
0.002990808
0.0027108563
0.0024238334
0.0021222841
0.0018243676
0.0015466132
0.0012928845
0.0010575351
0.00084545373
0.00066532962
0.00049413536
0.00031275806
0.00022800672
0.00028885198
0.00038768123
0.00046090075
0.00050284313
0.00053311762
0.00057229652
0.0006094463
0.00063128918
0.00061223791
0.00051932358
0.00037057621
0.00025406965
0.00019672534
0.00021623557
0.0002449426
0.0002593043
0.00024090799
0.00020922427
0.00019280422
0.00018588613
0.0001751301
0.00016349466
0.00015378831
0.00014772711
9.0857333e-05
9.7528375e-05
0.00017195638
0.00018744543
0.00018464567
0.00018518486
0.00018990036
0.00018772885
0.00017518271
0.00015712954
0.00014312854
0.00013853212
0.00013440427
0.00012100272
0.0001017476
7.8988104e-05
5.5978766e-05
3.8026081e-05
3.0018205e-05
3.2917474e-05
3.8952863e-05
4.187193e-05
4.269462e-05
4.22959e-05
4.1373341e-05
4.0321874e-05
3.9296202e-05
3.8337018e-05
3.7448408e-05
3.6626148e-05
3.5865047e-05
3.5160122e-05
3.4506684e-05
3.3900357e-05
3.3337124e-05
3.2813298e-05
3.2325344e-05
3.1870078e-05
3.1444466e-05
3.1045726e-05
3.0671226e-05
3.0318518e-05
2.9985292e-05