/*--------------------------------*- C++ -*----------------------------------*\
| =========                 |                                                 |
| \\      /  F ield         | OpenFOAM: The Open Source CFD Toolbox           |
|  \\    /   O peration     | Version:  2506                                  |
|   \\  /    A nd           | Website:  www.openfoam.com                      |
|    \\/     M anipulation  |                                                 |
\*---------------------------------------------------------------------------*/
FoamFile
{
    version     2.0;
    format      ascii;
    arch        "LSB;label=32;scalar=64";
    class       volScalarField;
    location    "0.0145";
    object      Ma;
}
// * * * * * * * * * * * * * * * * * * * * * * * * * * * * * * * * * * * * * //

dimensions      [0 0 0 0 0 0 0];

internalField   nonuniform List<scalar> 
13761
(
0.0032363752
0.0099217216
0.017112123
0.024842804
0.033126066
0.0419161
0.051008359
0.059982468
0.068325711
0.075686332
0.081989592
0.087351267
0.091945493
0.095937678
0.099463741
0.10262875
0.10551249
0.108175
0.11066109
0.11300533
0.11523528
0.117372
0.11943186
0.12142814
0.12337111
0.12526901
0.12712847
0.1289548
0.13075235
0.13252481
0.13427539
0.13600706
0.13772244
0.13942438
0.14111631
0.14280231
0.14448757
0.14617908
0.14788639
0.14962294
0.15140842
0.15327096
0.0032338365
0.0099421685
0.017185243
0.024998497
0.033390355
0.042302119
0.051502122
0.060531201
0.068866225
0.07617731
0.082424018
0.087734695
0.092284788
0.096238767
0.099731379
0.10286672
0.10572374
0.10836175
0.11082483
0.11314683
0.11535465
0.11746872
0.11950484
0.12147574
0.12339129
0.12525942
0.12708652
0.12887765
0.13063719
0.13236885
0.13407588
0.13576144
0.13742866
0.13908108
0.14072308
0.14236003
0.14399887
0.14564904
0.14732349
0.0030835394
0.009509971
0.016479152
0.024027306
0.032161885
0.0408156
0.049744581
0.058492479
0.066544347
0.073590572
0.079602598
0.084712418
0.089092083
0.092900504
0.096267003
0.099291045
0.10204777
0.10459337
0.10696936
0.10920744
0.11133258
0.11336369
0.11531531
0.11719927
0.11902478
0.1207994
0.12252947
0.12422035
0.12587692
0.12750372
0.12910519
0.130686
0.13225125
0.13380689
0.13536038
0.13692099
0.0027617197
0.0085492453
0.014857502
0.02171948
0.029141915
0.03706936
0.045278884
0.053339246
0.060763227
0.06725639
0.072791647
0.077493589
0.081523317
0.085028366
0.088127911
0.090913
0.093452048
0.095796001
0.097982407
0.10003994
0.10199131
0.10385373
0.10564067
0.1073632
0.10903029
0.11064961
0.11222795
0.11377143
0.11528613
0.11677812
0.11825387
0.0021949728
0.0068596152
0.012008589
0.017675332
0.023870247
0.030549856
0.037532062
0.044450024
0.050868086
0.056503637
0.06131365
0.065399869
0.068902001
0.071949111
0.074645188
0.07706934
0.079280766
0.081323422
0.083229691
0.085024407
0.086727393
0.088353998
0.089916508
0.091425468
0.001198559
0.00437623
0.013489667
0.023368566
0.034059229
0.045531754
0.057569537
0.069646644
0.081093043
0.091459068
0.10063979
0.10874631
0.11595176
0.12241794
0.12828085
0.13365014
0.13861219
0.14323543
0.14757388
0.15166971
0.15555778
0.15926829
0.16282572
0.16625034
0.16955994
0.17276927
0.17589114
0.17893667
0.18191533
0.18483555
0.18770463
0.19052893
0.19331414
0.19606533
0.19878752
0.20148629
0.20416776
0.20683928
0.20951023
0.21219291
0.21490388
0.21766611
0.22051217
0.22349051
0.22667879
0.23021428
0.23437595
0.23984224
0.24850117
0.26081328
0.26553599
0.26629814
0.26633882
0.26630259
0.26626864
0.26622128
0.26617476
0.26611914
0.26606427
0.26600719
0.26594565
0.2658813
0.2658084
0.26572858
0.26564878
0.26555984
0.26546648
0.26536934
0.26526619
0.26515309
0.26502653
0.26488105
0.26471209
0.0043707872
0.013473799
0.023342343
0.034022802
0.045485509
0.057514421
0.069584339
0.081025372
0.091387228
0.10056426
0.10866719
0.11586899
0.12233146
0.1281906
0.13355608
0.13851432
0.14313375
0.14746842
0.15156051
0.15544487
0.1591517
0.16270548
0.16612647
0.16943248
0.17263825
0.17575662
0.17879869
0.18177395
0.18469083
0.18755664
0.19037775
0.19315986
0.19590804
0.19862735
0.20132339
0.20400233
0.20667156
0.20934057
0.21202182
0.21473214
0.21749484
0.2203431
0.22332622
0.22652328
0.23007405
0.23426197
0.23976838
0.24849262
0.2610017
0.26588536
0.26675187
0.26683583
0.26681711
0.26678043
0.26674929
0.26670831
0.26666135
0.26660888
0.26654895
0.26648826
0.26642248
0.26635647
0.26628447
0.26619905
0.26610186
0.26599251
0.26587632
0.26575682
0.26563212
0.26549581
0.26534714
0.26518138
0.26500558
0.26482218
0.26461786
0.26439729
0.26416256
0.26391257
0.26365242
0.26338574
0.26311131
0.26282086
0.0043670289
0.013462291
0.023322559
0.033994274
0.04544808
0.057468707
0.069531986
0.080968424
0.091327176
0.10050183
0.10860265
0.1158024
0.12226282
0.12811998
0.13348354
0.13843998
0.14305776
0.14739094
0.1514817
0.15536492
0.15907077
0.16262373
0.16604411
0.16934972
0.17255533
0.17567377
0.17871619
0.18169208
0.18460988
0.18747691
0.19029955
0.19308348
0.19583377
0.19855544
0.20125404
0.20393567
0.20660763
0.20927928
0.21196292
0.21467519
0.21743921
0.22028784
0.22327003
0.22646422
0.23000898
0.23418416
0.23965332
0.24829422
0.26111409
0.26637045
0.26715771
0.26722203
0.26720721
0.26718
0.26714882
0.26711385
0.26708193
0.26704213
0.26700385
0.26695618
0.266903
0.26684064
0.26677237
0.26669363
0.26660992
0.26652576
0.26643133
0.26632364
0.26620837
0.26608414
0.26593734
0.26577138
0.2655921
0.26539567
0.26518473
0.26496797
0.26473737
0.26448859
0.26422614
0.2639566
0.26368217
0.26339934
0.26309706
0.2627645
0.26241912
0.2620542
0.26164702
0.26122921
0.0043604279
0.013441831
0.023287029
0.033942504
0.045379211
0.057382748
0.069430285
0.080853224
0.091200626
0.10036551
0.1084576
0.11564932
0.12210221
0.12795222
0.13330895
0.13825887
0.14287037
0.14719751
0.15128246
0.15516003
0.15886039
0.16240798
0.16582307
0.16912345
0.17232387
0.17543716
0.17847442
0.18144516
0.18435782
0.18721973
0.19003729
0.19281623
0.19556165
0.19827861
0.2009727
0.20365002
0.20631784
0.20898541
0.21166483
0.21437246
0.21713092
0.21997238
0.22294457
0.22612399
0.22964533
0.23377918
0.23916026
0.247628
0.26083611
0.26673028
0.26779808
0.26788175
0.26784965
0.26781595
0.26777151
0.26772617
0.26767122
0.26761871
0.26756052
0.26750606
0.2674518
0.26739346
0.26732361
0.26725277
0.26717316
0.26707082
0.26695193
0.26682627
0.26669432
0.26655289
0.26640332
0.26624601
0.26606694
0.26586222
0.26565275
0.26543869
0.26520883
0.26496318
0.26470574
0.26444145
0.26417303
0.26389778
0.26359958
0.26328658
0.26295223
0.26256889
0.26215923
0.26174674
0.26132653
0.2609268
0.26054528
0.26014517
0.0043548444
0.013425126
0.023258805
0.033902418
0.045327177
0.05731941
0.069357353
0.080772815
0.091114279
0.10027396
0.1083611
0.11554792
0.12199591
0.12784103
0.13319292
0.13813803
0.14274479
0.14706727
0.15114763
0.15502071
0.15871667
0.16225995
0.1656708
0.16896699
0.17216324
0.17527236
0.17830545
0.18127198
0.18418038
0.18703798
0.18985118
0.19262571
0.19536669
0.1980792
0.20076889
0.20344193
0.2061057
0.20876965
0.21144611
0.21415172
0.21690955
0.21975233
0.22272873
0.22591657
0.22945267
0.23361112
0.23903087
0.24756644
0.26094033
0.26704824
0.26824179
0.26837793
0.26836322
0.26832989
0.26830156
0.26826647
0.26822623
0.26817498
0.26811695
0.26804838
0.26797324
0.26789877
0.26783236
0.26776183
0.26768049
0.26759369
0.26750005
0.2673928
0.26727096
0.26713735
0.2669956
0.26683562
0.26665392
0.26645709
0.26624811
0.26601633
0.26577466
0.2655288
0.26527397
0.26501276
0.26474553
0.26446122
0.26416653
0.26385668
0.26350557
0.2631224
0.26272771
0.26229888
0.26187529
0.26148649
0.26110578
0.26070791
0.26030441
0.25990556
0.2595498
0.0043521385
0.01341638
0.023243126
0.03387894
0.045295338
0.05727949
0.06931086
0.080721803
0.091060262
0.10021769
0.10830283
0.11548773
0.12193384
0.1277771
0.13312722
0.13807069
0.14267601
0.14699726
0.1510766
0.15494888
0.15864424
0.16218709
0.16559765
0.16889365
0.1720898
0.17519889
0.178232
0.18119861
0.18410717
0.18696501
0.18977855
0.19255355
0.19529514
0.19800843
0.2006991
0.20337331
0.20603846
0.20870392
0.21138194
0.21408905
0.21684815
0.21969176
0.22266819
0.22585448
0.2293857
0.23353208
0.2389226
0.24740483
0.26103171
0.26750866
0.26861328
0.2687252
0.26871541
0.26868695
0.26865377
0.2686209
0.26858926
0.2685528
0.26851265
0.26846707
0.26841329
0.26834753
0.26827154
0.2681926
0.26811403
0.26802811
0.26793019
0.26782177
0.26769686
0.26756031
0.26741696
0.26726242
0.26709052
0.2669078
0.26669972
0.2664759
0.26624494
0.26600456
0.26575258
0.26549283
0.26522011
0.26493949
0.26465192
0.26433918
0.26399427
0.26362902
0.26322344
0.26278856
0.26238286
0.26199526
0.26161519
0.2612232
0.2608049
0.26041127
0.26005813
0.25974859
0.25948052
0.0043466698
0.013398878
0.02321194
0.033832371
0.045231988
0.057198952
0.069214335
0.080611572
0.090938469
0.1000858
0.10816177
0.11533806
0.12177595
0.12761131
0.13295378
0.13788986
0.14248803
0.14680238
0.15087511
0.15474107
0.15843041
0.16196755
0.16537272
0.16866368
0.17185515
0.17495989
0.17798894
0.18095173
0.18385664
0.18671096
0.18952102
0.1922925
0.19503047
0.19773998
0.20042664
0.20309653
0.20575696
0.20841721
0.21108937
0.21378969
0.2165406
0.21937379
0.22233612
0.22550217
0.22900253
0.23309819
0.23839479
0.24671381
0.26064901
0.26780166
0.26923823
0.26937555
0.26934837
0.26931209
0.26927128
0.26922845
0.26917874
0.26912976
0.26907242
0.26901038
0.26894572
0.26888092
0.26881143
0.26873301
0.26864768
0.26855994
0.26846702
0.26835595
0.26823565
0.26810842
0.26796576
0.26780594
0.26763969
0.26745619
0.26725156
0.26703856
0.26681819
0.26658465
0.26633515
0.26606955
0.26579643
0.26551642
0.26521549
0.26489075
0.26454494
0.26417121
0.26376077
0.26335105
0.26295263
0.26255239
0.26217336
0.26176457
0.26133879
0.26094211
0.26057355
0.26025697
0.25997293
0.2597535
0.2595486
0.004340984
0.013381716
0.02318273
0.033790581
0.045177369
0.057132033
0.069136733
0.080525346
0.090845144
0.099986164
0.10805615
0.11522662
0.12165878
0.1274885
0.13282542
0.13775602
0.14234879
0.14665781
0.15072526
0.15458597
0.15827006
0.16180196
0.16520187
0.16848751
0.17167356
0.17477277
0.17779621
0.18075334
0.18365257
0.1865012
0.18930561
0.19207152
0.19480403
0.1975082
0.20018963
0.20285443
0.20550993
0.20816549
0.21083337
0.21353007
0.21627843
0.21911077
0.22207495
0.22524728
0.22876131
0.23288232
0.23821648
0.24659165
0.26066419
0.26810347
0.2697062
0.26991472
0.2699038
0.26986902
0.26983237
0.26978846
0.26974366
0.2696891
0.26963338
0.2695708
0.26950157
0.26942512
0.26934143
0.26925279
0.2691568
0.26905567
0.26894487
0.26882863
0.26869952
0.26855326
0.2683949
0.26823543
0.26806976
0.26788337
0.26769012
0.26748758
0.26727205
0.26704399
0.26680716
0.26655714
0.26628615
0.26599444
0.26568337
0.26535748
0.26501988
0.26465365
0.26426368
0.26386813
0.26346103
0.26306984
0.26268163
0.26226023
0.26184184
0.26143185
0.26107235
0.26076219
0.2604854
0.26023402
0.26000842
0.25993304
0.26003287
0.0043375159
0.01337079
0.023163498
0.033762218
0.045139394
0.057084953
0.069082433
0.080466205
0.090782748
0.099921127
0.10798859
0.11515652
0.12158614
0.12741338
0.13274796
0.13767644
0.14226735
0.14657481
0.15064104
0.15450088
0.15818446
0.1617162
0.1651163
0.16840242
0.17158923
0.17468944
0.17771408
0.18067258
0.18357331
0.18642355
0.18922964
0.19199729
0.19473156
0.1974375
0.2001207
0.20278726
0.20544449
0.20810172
0.21077117
0.21346933
0.21621902
0.21905257
0.22201794
0.22519139
0.22870593
0.23282444
0.23814599
0.24648705
0.26074284
0.26855717
0.27006902
0.27025314
0.27025209
0.27022527
0.27019029
0.27015971
0.27012179
0.2700816
0.27003432
0.26998203
0.26992326
0.26985472
0.26978
0.26970241
0.26962371
0.26953542
0.26944249
0.26934063
0.26922369
0.26908982
0.2689413
0.26878413
0.26861268
0.26843541
0.26825023
0.26804736
0.26782739
0.26760325
0.26737328
0.26712896
0.26686243
0.26656423
0.26624489
0.26591366
0.26556503
0.26519422
0.2648215
0.26443186
0.26403416
0.26364446
0.26322759
0.2627989
0.26236566
0.26194855
0.26159429
0.26126677
0.26097273
0.26069715
0.26048693
0.26039722
0.26047642
0.2606778
0.0043312572
0.013350866
0.023128157
0.033709703
0.04506831
0.056995038
0.068975149
0.080343994
0.090647735
0.099774693
0.10783162
0.11498964
0.12140988
0.12722821
0.13255436
0.13747488
0.1420583
0.14635873
0.15041838
0.15427206
0.1579499
0.16147624
0.16487127
0.16815264
0.17133499
0.17443104
0.17745182
0.18040676
0.18330423
0.18615152
0.18895496
0.19172021
0.19445232
0.19715628
0.19983758
0.20250222
0.20515735
0.20781211
0.21047845
0.2131724
0.21591613
0.21874096
0.22169316
0.22484613
0.22832738
0.23238863
0.23760356
0.2457451
0.26019649
0.26876409
0.27065504
0.27086184
0.2708449
0.27080755
0.27076765
0.27071859
0.27066695
0.2706158
0.2705607
0.27050461
0.2704446
0.27038258
0.27031579
0.270235
0.27013945
0.27003462
0.26991943
0.26979902
0.26967105
0.26952882
0.26938107
0.26921905
0.26904342
0.26886693
0.26867998
0.26847979
0.26826922
0.26805123
0.26782059
0.26757964
0.26731997
0.26703212
0.26671675
0.26637878
0.26602431
0.26567044
0.26531217
0.26493091
0.26454259
0.26413936
0.2637149
0.26328618
0.26284566
0.26244518
0.26208289
0.26175767
0.26146061
0.26118239
0.26095087
0.26085479
0.26092218
0.2610985
0.26140758
0.26182966
0.0043241465
0.013329282
0.023091256
0.033656676
0.044998674
0.056909287
0.068875208
0.080232425
0.090526423
0.099644553
0.10769299
0.11484262
0.12125453
0.12706461
0.13238259
0.13729505
0.14187054
0.14616316
0.15021508
0.15406109
0.15773127
0.16124993
0.16463721
0.16791077
0.17108522
0.17417328
0.17718597
0.18013271
0.1830219
0.18586083
0.1886559
0.19141284
0.19413678
0.1968328
0.19950654
0.2021641
0.20481278
0.2074618
0.21012321
0.21281317
0.215554
0.21837722
0.22132945
0.22448461
0.22797117
0.23204306
0.23728116
0.24548079
0.26004042
0.26897057
0.27111027
0.27142546
0.27142158
0.27137923
0.27133439
0.27128525
0.27123641
0.27117878
0.27112176
0.27105652
0.2709869
0.27090861
0.27081678
0.27072321
0.27062556
0.27052953
0.27043515
0.27032814
0.2702095
0.27008866
0.26994857
0.26978317
0.26961155
0.26943379
0.26924389
0.26904313
0.26883496
0.26861237
0.26838166
0.26814176
0.26788045
0.26759372
0.26727317
0.26692744
0.26657634
0.26622524
0.26585953
0.2654811
0.26509892
0.26468536
0.26425462
0.26380865
0.26336315
0.26295534
0.26258944
0.26226648
0.26193675
0.26164176
0.26141162
0.26131997
0.26134772
0.26149884
0.26178775
0.26220087
0.26272403
0.0043203227
0.013317353
0.02307041
0.033626123
0.044958016
0.056859261
0.068818143
0.080171142
0.090462636
0.099578701
0.10762489
0.11477198
0.12118112
0.12698829
0.13230335
0.13721294
0.14178569
0.14607575
0.15012535
0.15396929
0.15763766
0.16115477
0.16454078
0.16781333
0.17098702
0.17407454
0.17708688
0.18003343
0.18292253
0.18576148
0.1885566
0.19131362
0.19403764
0.19673372
0.19940748
0.20206502
0.20471362
0.20736252
0.21002378
0.21271361
0.2154545
0.21827823
0.22123172
0.22438948
0.22788111
0.23196309
0.2372221
0.2454679
0.26015452
0.26938587
0.2714371
0.27172621
0.27173853
0.27171549
0.27167829
0.27164551
0.27160241
0.27155926
0.27150939
0.27145545
0.2713893
0.2713139
0.27124054
0.27115809
0.27106988
0.27096666
0.2708475
0.270727
0.27060673
0.27047494
0.27032676
0.2701758
0.27002346
0.26985196
0.26967003
0.26947972
0.26927142
0.26904865
0.26882331
0.26858472
0.26832718
0.2680439
0.26772861
0.26738881
0.2670372
0.26667623
0.26631291
0.26595566
0.26557462
0.26516694
0.264731
0.26426921
0.26383613
0.26343646
0.26308571
0.26273836
0.26240391
0.26211657
0.26188445
0.26176833
0.26177903
0.26190199
0.26216912
0.26256449
0.26306029
0.26360049
0.0043136146
0.01329597
0.023032423
0.033569566
0.044881381
0.056762543
0.068703676
0.080042533
0.090322767
0.099429152
0.10746642
0.11460502
0.12100599
0.12680533
0.13211289
0.13701538
0.14158142
0.14586521
0.14990899
0.15374758
0.15741108
0.1609238
0.16430587
0.1675749
0.17074549
0.1738303
0.17684029
0.17978482
0.18267222
0.1855097
0.18830358
0.1910595
0.19378249
0.19647753
0.19915013
0.20180627
0.20445309
0.20709965
0.20975777
0.21244328
0.21517805
0.21799294
0.22093333
0.22407102
0.22753025
0.23155553
0.23670408
0.24474572
0.25959437
0.26953754
0.27192718
0.27222724
0.27222699
0.27219482
0.27216403
0.27212137
0.27207737
0.27202905
0.27197371
0.27191189
0.27185104
0.27178789
0.27171301
0.27163191
0.27153743
0.27142918
0.27131665
0.27120385
0.27109006
0.27096823
0.27084151
0.27071226
0.2705612
0.2703955
0.27022223
0.27003583
0.26982948
0.26961388
0.26938513
0.26914404
0.26888823
0.26859984
0.26828079
0.26793167
0.26757039
0.26721274
0.26686657
0.2665042
0.26611697
0.26570804
0.26525201
0.26479405
0.26435644
0.26394603
0.26358831
0.26322458
0.26289041
0.26257066
0.26234169
0.26221583
0.26219866
0.26228541
0.26254417
0.26291574
0.26339511
0.26391248
0.26433572
0.0043045029
0.013268229
0.022984863
0.033501034
0.044791151
0.056651238
0.068573914
0.079897822
0.090165723
0.099261079
0.10728782
0.11441606
0.12080675
0.12659591
0.13189341
0.136786
0.14134233
0.14561659
0.14965104
0.1534805
0.15713503
0.16063895
0.16401234
0.16727281
0.17043491
0.17351127
0.17651284
0.17944899
0.18232804
0.18515724
0.18794291
0.19069074
0.19340579
0.1960931
0.19875824
0.20140723
0.20404726
0.20668743
0.20933957
0.21201951
0.21474911
0.21755917
0.22049508
0.22362869
0.22708468
0.23110816
0.2362569
0.24428777
0.2591721
0.26961993
0.27237923
0.27282427
0.27283504
0.27278862
0.27274102
0.27269368
0.27264389
0.27258523
0.27252358
0.27245821
0.27238398
0.27230456
0.27222005
0.27212589
0.27202147
0.27191738
0.27180821
0.27168383
0.27153955
0.27138878
0.27125098
0.27110974
0.27095719
0.27080135
0.2706366
0.27045787
0.27026377
0.27005199
0.26981746
0.26956907
0.26930599
0.26902407
0.26871088
0.2683692
0.26801755
0.26766157
0.26730585
0.26695112
0.26658292
0.26617376
0.26572555
0.26527007
0.26481944
0.26442732
0.26406521
0.26369988
0.26334626
0.26303659
0.26281625
0.26266912
0.26261861
0.26268772
0.26291718
0.26325947
0.26371992
0.26420976
0.2646223
0.26521354
0.0042996388
0.013253507
0.022959725
0.033464958
0.044743982
0.056593913
0.068508909
0.079828025
0.090092818
0.099185345
0.10720885
0.11433333
0.12071988
0.12650465
0.1317977
0.13668586
0.14123786
0.14550795
0.14953841
0.15336406
0.15701498
0.16051546
0.16388561
0.16714301
0.1703022
0.17337584
0.17637486
0.17930862
0.18218543
0.18501253
0.18779622
0.19054213
0.19325531
0.19594075
0.19860398
0.20125101
0.20388906
0.20652729
0.2091777
0.21185641
0.21458566
0.21739677
0.22033599
0.22347653
0.22694541
0.23099285
0.23618922
0.24431416
0.25927562
0.26996835
0.27268126
0.27311724
0.27314303
0.27312344
0.27307948
0.2730417
0.2729989
0.27295612
0.27290729
0.27285047
0.27279056
0.27271889
0.27263868
0.27255207
0.27246688
0.27237323
0.27226606
0.27214524
0.27201924
0.27190202
0.27177776
0.27163693
0.27149094
0.27133992
0.2711796
0.27100409
0.27081985
0.27061144
0.27037675
0.27012063
0.2698473
0.26955614
0.26923787
0.26890545
0.26855866
0.26820043
0.26785697
0.26750448
0.26712065
0.26669834
0.26624905
0.26579066
0.2653511
0.26494814
0.26455655
0.26418338
0.26381897
0.26351395
0.26327215
0.26310672
0.2630274
0.26306917
0.26327566
0.26359603
0.2640381
0.26451664
0.26491956
0.26552646
0.26655255
0.0042941476
0.013236024
0.022928695
0.033418818
0.044681615
0.056515592
0.068417018
0.079725881
0.089982697
0.099068091
0.10708457
0.11420199
0.1205815
0.12635939
0.1316458
0.13652766
0.14107376
0.14533838
0.14936381
0.1531849
0.15683169
0.16032849
0.16369538
0.16694991
0.17010665
0.17317821
0.17617553
0.17910796
0.18198381
0.18481029
0.1875937
0.19033966
0.19305319
0.19573921
0.19840318
0.20105098
0.2036896
0.20632794
0.20897758
0.21165411
0.21437914
0.21718318
0.22011115
0.22323376
0.22667288
0.23066881
0.2357732
0.24373418
0.25877123
0.27010536
0.27306547
0.2734897
0.27351311
0.27348416
0.27346313
0.27343112
0.27339232
0.2733532
0.27330722
0.27325537
0.27319125
0.27312524
0.27305536
0.2729774
0.27288569
0.27278332
0.27267404
0.27255554
0.27243473
0.27230328
0.27215875
0.27201256
0.27187281
0.27172647
0.27156623
0.27139732
0.27121327
0.27100771
0.27078659
0.27053776
0.27025434
0.26994911
0.26963951
0.26932176
0.26898667
0.26865515
0.26831316
0.26794319
0.26755774
0.26714564
0.26670954
0.26626253
0.26583351
0.26541625
0.26503257
0.26465377
0.26428447
0.26397809
0.26374079
0.26355738
0.26344614
0.26346744
0.26363976
0.26392532
0.26435008
0.26481169
0.26520675
0.26583086
0.26682014
0.26770891
0.0042845124
0.013206377
0.02287748
0.03334451
0.044583166
0.056393413
0.06827377
0.079565378
0.089807868
0.098880406
0.10688459
0.11398988
0.12035736
0.12612331
0.13139791
0.13626813
0.14080278
0.14505616
0.14907059
0.15288091
0.15651716
0.1600036
0.16336031
0.16660482
0.16975168
0.17281349
0.17580121
0.17872416
0.18159066
0.18440797
0.18718237
0.18991952
0.19262444
0.1953021
0.19795793
0.20059783
0.20322875
0.20585955
0.20850172
0.2111707
0.21388783
0.21668318
0.21960098
0.22271086
0.22613283
0.23010241
0.23516325
0.2430586
0.25812102
0.27006054
0.27351108
0.2741055
0.27414022
0.27409627
0.27404667
0.2739984
0.27395269
0.27389494
0.27383456
0.27377203
0.27370726
0.27363108
0.27354206
0.27345132
0.27335883
0.27326428
0.27316407
0.27306625
0.27295916
0.27283699
0.27270208
0.27257168
0.27243583
0.27228465
0.27211974
0.27194689
0.27175769
0.27155905
0.27133692
0.27107659
0.27078736
0.27047926
0.27016901
0.26984916
0.26952815
0.26920515
0.2688564
0.26849
0.2680918
0.26766819
0.26722273
0.26678481
0.26635533
0.26593435
0.2655394
0.26512772
0.26476177
0.26445201
0.26420901
0.26398121
0.26385488
0.26384974
0.26399501
0.26426155
0.26466432
0.26512621
0.26551144
0.26615867
0.26713505
0.26797889
0.26864854
0.0042787462
0.013189172
0.02284848
0.033303436
0.044530139
0.056329654
0.068201963
0.079488482
0.089727464
0.098796554
0.10679661
0.11389696
0.1202588
0.12601861
0.13128676
0.13615035
0.14067829
0.14492496
0.14893269
0.15273635
0.15636596
0.1598458
0.1631959
0.16643379
0.16957398
0.17262908
0.17561
0.17852611
0.18138571
0.18419607
0.1869635
0.1896937
0.19239173
0.19506261
0.19771187
0.2003455
0.20297059
0.20559614
0.20823387
0.21089951
0.21361479
0.21641039
0.21933146
0.22244928
0.22588725
0.22988899
0.23501881
0.24305997
0.25819409
0.27032838
0.27381666
0.27445482
0.27450313
0.27448282
0.27443352
0.27438367
0.27433318
0.27428803
0.27424046
0.27418477
0.27412698
0.27406405
0.27399412
0.27390797
0.27381527
0.27371727
0.27361145
0.27349254
0.27336387
0.27322239
0.27308815
0.27295423
0.27280862
0.27265486
0.27249564
0.27232627
0.27214552
0.27194968
0.27172169
0.27146617
0.27118721
0.27088863
0.27057157
0.27024985
0.26994374
0.26963131
0.26929566
0.26893333
0.26853492
0.26810309
0.26766669
0.26724814
0.26681943
0.26641367
0.26600226
0.26559716
0.26523654
0.26492364
0.264668
0.26443264
0.26428332
0.26425211
0.26436824
0.26458973
0.26497811
0.26542926
0.2658101
0.26648569
0.26740978
0.26816809
0.2687675
0.2706419
0.0042759729
0.01318005
0.022831911
0.033278341
0.044495813
0.056286501
0.068152013
0.079434308
0.089670522
0.098736921
0.10673372
0.11383019
0.12018772
0.12594302
0.13120663
0.13606581
0.14058955
0.14483228
0.14883634
0.15263661
0.15626309
0.15974004
0.16308749
0.16632295
0.16946093
0.17251402
0.17549317
0.17840772
0.181266
0.18407525
0.18684179
0.1895713
0.19226882
0.19493933
0.1975883
0.20022162
0.20284628
0.2054711
0.20810754
0.210771
0.21348273
0.21627276
0.21918528
0.22229027
0.22570915
0.22968241
0.23476943
0.24275693
0.25801077
0.27053849
0.27414696
0.27473209
0.27478326
0.27475928
0.27473285
0.27470364
0.27465608
0.27461076
0.27456555
0.27452434
0.27447317
0.27441358
0.27435084
0.27428665
0.27420542
0.27410546
0.27400572
0.27390979
0.27380744
0.27370565
0.27359394
0.27346275
0.27332278
0.27318182
0.2730381
0.2728734
0.2726943
0.27249049
0.27226426
0.27201411
0.27173508
0.27143182
0.27110847
0.27079367
0.27048995
0.27016721
0.26982771
0.26946971
0.26906447
0.26862747
0.2681971
0.26776702
0.26734074
0.26692526
0.26649103
0.26608454
0.26570929
0.26540036
0.26513282
0.26486588
0.26468571
0.26463908
0.26472513
0.26492324
0.26530279
0.2657389
0.26612965
0.26681853
0.26770485
0.26842467
0.26897375
0.27081346
0.27240905
0.0042690399
0.01315788
0.022792438
0.033219462
0.044415846
0.056185212
0.06803152
0.07929805
0.089521124
0.098575561
0.10656069
0.1136455
0.11999135
0.12573506
0.13098724
0.13583519
0.14034797
0.14458003
0.14857371
0.15236386
0.15598046
0.1594477
0.16278559
0.16601161
0.16914027
0.17218416
0.17515419
0.17805972
0.18090909
0.18370955
0.18646746
0.1891885
0.19187774
0.19454019
0.19718129
0.19980692
0.20242399
0.2050412
0.20766981
0.21032486
0.21302706
0.21580555
0.21870313
0.22178734
0.22517508
0.22909802
0.2340963
0.24191522
0.25714863
0.27043241
0.27457949
0.27533374
0.27539656
0.27535363
0.27530873
0.27525658
0.27521523
0.27516051
0.27509986
0.27503412
0.27496427
0.27489473
0.27482232
0.27474222
0.27465721
0.27457007
0.27447305
0.27436116
0.27424186
0.2741188
0.27398634
0.27384601
0.27370475
0.2735651
0.27341313
0.27324868
0.27306428
0.27285753
0.27263664
0.27239792
0.2721306
0.2718329
0.27152324
0.27121585
0.27089232
0.27056328
0.27024827
0.26989571
0.26949263
0.26907398
0.26864439
0.26821428
0.26780946
0.26739138
0.26695739
0.26654774
0.26618472
0.2658782
0.26558883
0.26530853
0.26511909
0.26504503
0.26509458
0.26525495
0.26561947
0.26603236
0.26643668
0.26715111
0.2679722
0.26861873
0.26909344
0.27091451
0.27260749
0.27313538
0.0042618686
0.013136366
0.022756
0.033167566
0.044348348
0.056103166
0.067937727
0.079195903
0.089412761
0.098461506
0.10644056
0.11351863
0.11985712
0.12559296
0.1308369
0.13567633
0.14018036
0.14440346
0.14838799
0.15216877
0.15577578
0.15923322
0.16256106
0.16577678
0.16889491
0.17192804
0.1748871
0.17778145
0.18061942
0.1834083
0.18615444
0.18886359
0.19154087
0.19419133
0.19682054
0.19943449
0.20204025
0.2046467
0.20726535
0.20991155
0.21260639
0.21537957
0.21827477
0.22136126
0.22475959
0.22870867
0.23376402
0.24169812
0.25698709
0.27054162
0.27492808
0.27581747
0.27590366
0.27587905
0.27582686
0.27577005
0.27571276
0.27565614
0.27559609
0.27552545
0.27545912
0.27538967
0.27531452
0.27523649
0.27515388
0.27506109
0.27495313
0.27484155
0.27473512
0.27462555
0.27450403
0.27437626
0.27424406
0.27409862
0.27394217
0.27378026
0.27359674
0.27339315
0.27317325
0.27293278
0.27266926
0.27238247
0.27208678
0.27176755
0.27142686
0.27111388
0.27078805
0.27041404
0.270017
0.26960095
0.26916909
0.26875618
0.26834422
0.26789616
0.2674512
0.26702851
0.26666841
0.2663425
0.26604892
0.26574073
0.26552639
0.26543176
0.26544749
0.26559581
0.26595591
0.26634043
0.26676546
0.26749491
0.26824124
0.26886599
0.26930235
0.27108522
0.27283953
0.27340947
0.0042583823
0.013125741
0.022737749
0.033141243
0.044313917
0.056061802
0.067892292
0.079149654
0.089367438
0.098417123
0.1063963
0.11347358
0.11981057
0.12554448
0.13078628
0.13562356
0.14012555
0.1443468
0.14832972
0.15210915
0.15571505
0.1591716
0.16249872
0.16571385
0.16883141
0.17186394
0.1748223
0.17771581
0.18055278
0.18334049
0.18608527
0.18879286
0.19146838
0.19411689
0.19674396
0.19935558
0.20195884
0.20456266
0.2071786
0.20982213
0.21251457
0.21528601
0.21818088
0.22126934
0.22467283
0.22863164
0.23370503
0.24168143
0.25704466
0.27085972
0.27521716
0.27604266
0.27613239
0.27611866
0.2760817
0.27605035
0.27599759
0.27594726
0.27589672
0.27585223
0.27579971
0.2757462
0.27568942
0.27562104
0.27553911
0.27544898
0.27535488
0.27525127
0.2751352
0.27500707
0.27487975
0.27475293
0.27461775
0.27447295
0.27431933
0.27415554
0.27397661
0.27378034
0.27355473
0.27330355
0.27304228
0.27277734
0.27249166
0.27217181
0.27185454
0.27153785
0.27118186
0.27081705
0.27044037
0.27003019
0.26962196
0.26922366
0.26879689
0.26836437
0.26791879
0.26749936
0.2671377
0.26681518
0.26650093
0.26617877
0.26596321
0.26584876
0.26581825
0.26595076
0.26628183
0.26664212
0.2670855
0.26783892
0.26850239
0.26907236
0.26943404
0.27117527
0.27301489
0.27366
0.27459556
0.0042521422
0.013105934
0.02270264
0.033089054
0.044243301
0.05597284
0.067787298
0.079032062
0.089239731
0.098280289
0.10625049
0.11331873
0.11964669
0.12537172
0.13060495
0.13543407
0.13992839
0.14414251
0.14811881
0.15189213
0.15549236
0.15894364
0.16226587
0.16547642
0.16858966
0.1716181
0.17457259
0.17746245
0.180296
0.18308048
0.18582226
0.18852704
0.1911999
0.19384585
0.19647038
0.19907935
0.20167966
0.20427997
0.20689146
0.20952908
0.21221338
0.21497329
0.21785134
0.22091453
0.22427875
0.22817409
0.23314196
0.24093417
0.25628413
0.27071021
0.27558729
0.27652087
0.27661935
0.27658744
0.27654221
0.27649571
0.276455
0.27640991
0.27635408
0.27629555
0.27623478
0.27616409
0.2760876
0.27601149
0.2759409
0.27587119
0.27579853
0.27571829
0.27561992
0.2755098
0.27539709
0.27527894
0.27514715
0.27499938
0.27485047
0.27468548
0.2745082
0.27430761
0.27407833
0.27383019
0.27357459
0.27331365
0.27302563
0.27272485
0.27242656
0.27208558
0.27172352
0.27135857
0.27096107
0.27054878
0.27015365
0.26975082
0.26932753
0.26888163
0.26841471
0.26799024
0.26761584
0.26728208
0.26694224
0.26662181
0.26638394
0.26623709
0.26617965
0.26630349
0.26662501
0.26696383
0.2674249
0.26818638
0.26875864
0.26930341
0.26964608
0.27134493
0.27323431
0.27393555
0.27476968
0.27625138
0.0042400824
0.013069458
0.022640434
0.032999848
0.044126366
0.055829112
0.067620308
0.078846649
0.089039583
0.098067153
0.10602484
0.11308051
0.11939574
0.12510792
0.13032829
0.13514464
0.13962633
0.14382799
0.14779206
0.15155333
0.15514172
0.15858129
0.16189188
0.16509084
0.16819251
0.17120937
0.17415223
0.17703035
0.17985202
0.18262447
0.18535407
0.18804652
0.19070696
0.19334044
0.19595251
0.19854911
0.20113721
0.20372556
0.20632541
0.20895174
0.21162514
0.21437451
0.21724229
0.22029543
0.22364989
0.22753575
0.23249193
0.24026366
0.25560122
0.27055993
0.2759401
0.27710256
0.27723996
0.27721276
0.27716475
0.27710457
0.2770467
0.2769839
0.27691631
0.27683964
0.27676074
0.27668633
0.27661209
0.27653522
0.27645214
0.27636026
0.27626223
0.27615417
0.27603943
0.27592741
0.2758095
0.27567819
0.27553395
0.27539093
0.27523465
0.27506408
0.27487971
0.27467685
0.27445585
0.27421943
0.27396505
0.27369107
0.27341242
0.2731432
0.27284658
0.27250255
0.27214537
0.27175907
0.27136023
0.27097915
0.27060431
0.27020636
0.26978816