/*--------------------------------*- C++ -*----------------------------------*\
| =========                 |                                                 |
| \\      /  F ield         | OpenFOAM: The Open Source CFD Toolbox           |
|  \\    /   O peration     | Version:  2506                                  |
|   \\  /    A nd           | Website:  www.openfoam.com                      |
|    \\/     M anipulation  |                                                 |
\*---------------------------------------------------------------------------*/
FoamFile
{
    version     2.0;
    format      ascii;
    arch        "LSB;label=32;scalar=64";
    class       volScalarField;
    location    "2.1";
    object      nut;
}
// * * * * * * * * * * * * * * * * * * * * * * * * * * * * * * * * * * * * * //

dimensions      [0 2 -1 0 0 0 0];

internalField   nonuniform List<scalar> 
19257
(
0.19790745
0.19638893
0.19536218
0.1946226
0.19405637
0.19360813
0.19324477
0.19294438
0.19269387
0.19248223
0.1923023
0.19214663
0.19201121
0.19189351
0.19178921
0.19169923
0.1916165
0.19154724
0.19148594
0.19142905
0.19138186
0.1913402
0.1913033
0.19127665
0.19126271
0.19125999
0.1912631
0.19127946
0.19132336
0.1914118
0.19152996
0.19171295
0.18742691
0.14548193
0.11537134
0.098678387
0.07580508
0.068840711
0.055499663
0.042305643
0.032884045
0.027867505
0.021459259
0.015876008
0.011652716
0.0080339234
0.010014723
0.0064463098
0.00075409769
0.19788067
0.19643982
0.1954516
0.19472151
0.1941573
0.1937071
0.19334041
0.19303595
0.19278058
0.19256387
0.19237893
0.19221903
0.1920791
0.19195782
0.19184925
0.19175631
0.1916702
0.19159725
0.19153185
0.19147303
0.19142323
0.19137996
0.19134086
0.19131091
0.1912948
0.19129006
0.19128985
0.1913008
0.19134489
0.19141727
0.19153098
0.19169609
0.18768118
0.15930232
0.1261433
0.09263416
0.084429279
0.06053581
0.04955874
0.042128805
0.034662646
0.026145148
0.020583339
0.016292184
0.014859453
0.011194415
0.0084346524
0.0041893509
0.00071466428
0.19798622
0.19659551
0.19560207
0.19486599
0.19429507
0.19383687
0.19346245
0.19314992
0.19288662
0.19266233
0.19247042
0.1923047
0.19215858
0.19203186
0.19191899
0.19182042
0.19173026
0.19165343
0.19158416
0.19152242
0.19146951
0.19142362
0.19138149
0.19134891
0.19132765
0.19131807
0.19131614
0.19132332
0.19136293
0.19141864
0.19153276
0.19167178
0.18776665
0.14976414
0.12635002
0.10341365
0.07589715
0.068203753
0.052220124
0.039314809
0.032317834
0.026507496
0.019878855
0.015114738
0.011571004
0.0072111431
0.0072936921
0.0039352229
0.00073120637
0.19804522
0.19671133
0.19573748
0.19500504
0.19443129
0.19396753
0.19358649
0.19326669
0.19299593
0.19276459
0.19256581
0.19239394
0.19224202
0.19210974
0.19199112
0.1918874
0.19179343
0.19171286
0.19163953
0.19157431
0.1915181
0.19146725
0.19142388
0.19138815
0.1913617
0.19134797
0.19134389
0.19134994
0.19138083
0.19142729
0.19153673
0.1916564
0.19187626
0.16153736
0.12415433
0.10344818
0.082223292
0.063711225
0.054234401
0.045241697
0.031750224
0.025622308
0.021539653
0.014785902
0.010727831
0.0085524779
0.0057295848
0.0039181448
0.00077481241
0.19811088
0.19683492
0.19587971
0.19515073
0.19457492
0.19410583
0.19371754
0.19339066
0.19311237
0.1928736
0.19266759
0.19248855
0.19233062
0.19219165
0.19206805
0.1919598
0.1918615
0.19177544
0.19169814
0.19162839
0.19156826
0.19151423
0.19146848
0.19142816
0.19139858
0.19138083
0.1913717
0.19137779
0.1914007
0.19143804
0.19153096
0.19164768
0.19185077
0.15970197
0.12824467
0.10401448
0.082869832
0.066886438
0.049632852
0.04158053
0.036276317
0.024997802
0.019798407
0.016176692
0.012872861
0.0082712482
0.0062735574
0.0034226748
0.00076525661
0.19816974
0.19695218
0.19602085
0.19529882
0.19472233
0.19424886
0.19385354
0.19352026
0.19323439
0.19298801
0.19277474
0.19258827
0.1924239
0.19227859
0.19214998
0.19203534
0.19193262
0.19184103
0.19175932
0.19168595
0.19162185
0.1915647
0.19151564
0.19147167
0.19143791
0.19141548
0.19140305
0.19140312
0.19142036
0.19145664
0.19152189
0.19165308
0.19182239
0.16509674
0.1340074
0.10294997
0.085847774
0.065924823
0.058925472
0.039573037
0.032033857
0.027341867
0.019503619
0.014466038
0.0091386906
0.0074423775
0.0056509658
0.0034664163
0.00083320121
0.19822695
0.19706698
0.19616108
0.1954485
0.19487247
0.1943957
0.1939943
0.19365406
0.19336091
0.19310726
0.19288661
0.19269252
0.19252175
0.19236993
0.19223529
0.19211521
0.19200722
0.19190924
0.19182372
0.19174678
0.1916777
0.19161729
0.19156427
0.1915166
0.19147798
0.19145108
0.19143642
0.19143334
0.19144371
0.19147159
0.19152388
0.19165982
0.19179643
0.16472513
0.13663666
0.10838805
0.085931221
0.066979061
0.052226539
0.048424466
0.032300981
0.026202671
0.019402964
0.015426691
0.011920567
0.0077019624
0.0049857872
0.0030629876
0.00083658575
0.19827838
0.1971753
0.19629768
0.19559675
0.19502305
0.19454441
0.19413802
0.19379104
0.1934912
0.1932303
0.19300202
0.19280075
0.19262307
0.19246472
0.19232384
0.19219767
0.19208395
0.19198094
0.19189037
0.19180892
0.19173556
0.19167081
0.19161407
0.19156276
0.19152113
0.1914903
0.19147106
0.19146292
0.19146874
0.191489
0.19153843
0.19165475
0.19177385
0.17059787
0.13684556
0.1107567
0.087349501
0.072541378
0.05205069
0.041818838
0.035583844
0.025618742
0.020089534
0.014607818
0.0096174101
0.00790728
0.0055752394
0.0031824552
0.00088433871
0.19832001
0.19727548
0.19642873
0.19574128
0.1951721
0.19469289
0.19428251
0.19392932
0.19362344
0.19335552
0.19311966
0.19291142
0.19272656
0.19256183
0.19241462
0.19228238
0.19216281
0.19205459
0.19195907
0.19187312
0.19179466
0.19172561
0.19166551
0.19161123
0.19156552
0.19152951
0.1915052
0.19149389
0.1914953
0.19150915
0.19156004
0.19162947
0.19177489
0.17413553
0.14035794
0.11221995
0.087884642
0.0703901
0.060019935
0.041718747
0.035496946
0.025339438
0.021287663
0.01345846
0.011957972
0.0068426662
0.0045266331
0.0028388441
0.00092602022
0.19835944
0.19737042
0.19655396
0.19588086
0.1953175
0.19483868
0.19442602
0.19406767
0.19375557
0.19348089
0.19323824
0.19302339
0.19283113
0.1926603
0.19250652
0.19236829
0.192243
0.19212931
0.19202847
0.1919379
0.19185552
0.19178205
0.1917178
0.19166002
0.19161023
0.1915703
0.19154098
0.19152399
0.19152055
0.19152961
0.19157476
0.19161123
0.19179146
0.18012793
0.14228202
0.11626079
0.091207895
0.070180186
0.055825513
0.047160092
0.032975293
0.027564015
0.018836724
0.015171636
0.0099505789
0.007553394
0.0055563959
0.0027570363
0.00088091533
0.1983985
0.19745986
0.19667263
0.19601491
0.19545779
0.19498048
0.19456638
0.1942034
0.19388561
0.19360505
0.19335594
0.19313408
0.19293538
0.19275819
0.19259825
0.19245413
0.19232306
0.1922037
0.19209768
0.19200262
0.19191616
0.19183878
0.19177053
0.19170891
0.19165492
0.19161106
0.19157787
0.19155721
0.19154961
0.19155423
0.19158939
0.19160966
0.19180397
0.18201415
0.14743608
0.11555826
0.093107833
0.074210351
0.056003789
0.044887576
0.035561704
0.027308043
0.019259166
0.015713726
0.0099093026
0.0070199588
0.0042606198
0.0029933609
0.00092290559
0.19843554
0.19754347
0.19678371
0.19614145
0.19559166
0.19511622
0.19470072
0.19433459
0.19401189
0.19372585
0.19347013
0.19324203
0.19303755
0.19285391
0.19268824
0.19253832
0.19240202
0.19227728
0.19216616
0.19206639
0.19197557
0.19189441
0.19182231
0.19175746
0.19169917
0.19165134
0.19161434
0.19158987
0.19157871
0.19157983
0.19160262
0.19162578
0.19180355
0.18562234
0.15065129
0.11960433
0.094118713
0.073389072
0.05996146
0.04446977
0.035857134
0.026622532
0.020793823
0.014031596
0.010398016
0.0079065116
0.0045780824
0.0024669146
0.0009090926
0.19847271
0.19762102
0.19688576
0.19625836
0.19571655
0.19524332
0.19482713
0.19445867
0.19413172
0.19384057
0.1935795
0.19334567
0.19313531
0.19294572
0.19277442
0.19261911
0.19247819
0.19234865
0.19223257
0.19212847
0.19203326
0.19194809
0.19187199
0.19180409
0.19174251
0.19169106
0.19165025
0.1916213
0.19160596
0.19160466
0.19161535
0.19166234
0.19176521
0.18998834
0.15256932
0.12156651
0.096491873
0.075147934
0.058293718
0.047201215
0.035174583
0.026568091
0.020761417
0.013972061
0.011504365
0.006120363
0.0048551115
0.0028393202
0.00094082808
0.19850895
0.19769198
0.19697921
0.19636482
0.19583029
0.19535987
0.19494351
0.19457281
0.19424207
0.19394639
0.19368099
0.19344188
0.19322626
0.19303139
0.19285502
0.19269477
0.19254928
0.19241538
0.19229468
0.19218639
0.19208727
0.19199848
0.19191885
0.19184769
0.19178255
0.1917272
0.19168318
0.19165074
0.19163117
0.19162648
0.19163044
0.19167966
0.19173384
0.19192931
0.15544113
0.1240384
0.096732453
0.077287486
0.059256584
0.046342217
0.036241029
0.028013857
0.019750039
0.015715107
0.0098484071
0.0081992319
0.0039789549
0.0025699015
0.00091724286
0.19854464
0.19775633
0.19706184
0.19645872
0.19593082
0.1954634
0.19504714
0.19467499
0.19434115
0.19404172
0.19377171
0.19352812
0.19330806
0.19310842
0.19292757
0.19276312
0.19261353
0.19247594
0.19235113
0.19223904
0.1921364
0.19204434
0.19196183
0.19188803
0.19182041
0.19176175
0.19171452
0.19167872
0.19165507
0.1916472
0.19164608
0.19169472
0.1917147
0.19193299
0.15860608
0.12519092
0.098817249
0.076417975
0.061048332
0.046507463
0.035943113
0.027017053
0.020584759
0.014430333
0.010539152
0.0065144781
0.0048886817
0.0024825763
0.00092120863
0.19857886
0.19781316
0.19713274
0.19653864
0.19601622
0.19555147
0.1951354
0.19476192
0.19442579
0.19412326
0.19384969
0.19360225
0.19337822
0.19317447
0.19298957
0.1928215
0.19266845
0.19252773
0.19239965
0.19228448
0.19217896
0.19208406
0.1919991
0.191923
0.19185327
0.19179182
0.19174177
0.19170325
0.19167605
0.1916648
0.19165941
0.1917062
0.19169743
0.19193513
0.16005396
0.12737536
0.099885046
0.078328602
0.060483529
0.047645385
0.036417451
0.027428403
0.020439177
0.015171427
0.010234352
0.0071666473
0.0038438966
0.0027227873
0.00092852313
0.19860835
0.19785976
0.19719008
0.19660297
0.19608425
0.19562134
0.19520573
0.19483165
0.19449379
0.19418862
0.19391241
0.19366198
0.19343479
0.19322794
0.19303988
0.19286883
0.192713
0.19256968
0.1924389
0.1923212
0.19221329
0.1921159
0.19202881
0.19195068
0.19187909
0.19181534
0.19176283
0.19172204
0.19169193
0.19167741
0.1916688
0.19171313
0.19168269
0.19193555
0.16411113
0.13046689
0.10245583
0.080033811
0.062668938
0.048350873
0.037078087
0.028233781
0.02084802
0.014982789
0.010797358
0.0069479151
0.0045488635
0.0024110333
0.0008833259
0.19863128
0.1978945
0.19723251
0.19665016
0.19613428
0.19567257
0.19525776
0.1948833
0.19454329
0.19423604
0.19395779
0.19370539
0.19347617
0.19326696
0.19307647
0.19290319
0.19274524
0.19259993
0.19246722
0.19234766
0.19223813
0.19213901
0.1920505
0.19197108
0.19189824
0.19183294
0.19177883
0.19173669
0.19170487
0.19168796
0.19167759
0.19172057
0.1916786
0.19194052
0.1683517
0.13379395
0.10483015
0.081841259
0.063866324
0.049490785
0.037817081
0.028493437
0.021279906
0.015501008
0.010676466
0.0071670992
0.0043461811
0.0027379744
0.00097573956
0.19864591
0.1979156
0.19725784
0.19667802
0.19616397
0.19570317
0.19528819
0.19491354
0.19457359
0.19426548
0.19398539
0.19373117
0.19350067
0.19329005
0.19309806
0.19292347
0.19276422
0.19261765
0.19248389
0.1923633
0.19225292
0.19215294
0.19206393
0.19198415
0.19191107
0.1918455
0.19179131
0.19174974
0.19171883
0.19170269
0.19169428
0.19173958
0.19170194
0.19196679
0.16507254
0.13106645
0.10269268
0.080140566
0.062479394
0.048324362
0.036882469
0.027847864
0.020689469
0.014983477
0.010463746
0.0069257043
0.0042342475
0.0025009445
0.00090086259
0.19865092
0.19792238
0.19726544
0.19668584
0.196172
0.19571182
0.19529703
0.19492184
0.19458162
0.19427335
0.19399305
0.19373852
0.19350758
0.1932965
0.19310407
0.19292925
0.19276987
0.1926231
0.19248918
0.19236836
0.1922578
0.19215762
0.19206878
0.19198911
0.1919162
0.19185105
0.19179748
0.19175703
0.19172745
0.19171242
0.19170543
0.19175356
0.19172464
0.19199004
0.16055739
0.1274585
0.099938586
0.078074103
0.060882417
0.047077493
0.035954466
0.027133719
0.020135802
0.014549488
0.010105217
0.0066329207
0.004011111
0.0023466569
0.00087710149
0.19864624
0.19791601
0.19725768
0.1966773
0.19616287
0.1957025
0.19528871
0.19491308
0.19457251
0.19426462
0.19398503
0.19373139
0.19350096
0.19329003
0.19309768
0.19292306
0.19276392
0.19261728
0.19248347
0.19236276
0.19225235
0.19215219
0.19206342
0.19198341
0.19190996
0.19184441
0.19179022
0.19174898
0.19171818
0.19170144
0.19169313
0.19173924
0.1917014
0.1919662
0.16492235
0.13090393
0.10264114
0.080203659
0.062521603
0.048339283
0.036915322
0.027860582
0.020689006
0.015005527
0.010426347
0.0069573736
0.0041632368
0.0025676262
0.00095419039
0.19863165
0.19789489
0.19723199
0.19664897
0.19613293
0.19567189
0.19525755
0.19488282
0.19454309
0.19423607
0.19395769
0.19370563
0.19347667
0.19326693
0.19307578
0.1929024
0.19274436
0.19259866
0.19246598
0.19234639
0.19223701
0.1921377
0.19204969
0.19196992
0.19189658
0.19183154
0.19177777
0.19173652
0.19170494
0.19168689
0.19167679
0.19172117
0.19167838
0.19194038
0.16737797
0.13298631
0.10434232
0.081742312
0.063782898
0.049364472
0.037886301
0.028635204
0.021245798
0.015331528
0.010866954
0.0069701476
0.0046384216
0.0024516337
0.00087738996
0.19860841
0.19785987
0.19718962
0.19660177
0.19608307
0.19562015
0.19520536
0.19483137
0.19449398
0.19418843
0.1939119
0.1936622
0.19343562
0.19322793
0.19303904
0.19286784
0.19271158
0.19256778
0.19243741
0.19231994
0.19221238
0.19211496
0.19202879
0.19195033
0.19187843
0.19181545
0.19176379
0.19172428
0.19169418
0.19167815
0.1916704
0.19171654
0.19168423
0.19193755
0.16251985
0.12894618
0.10169835
0.079717538
0.062321948
0.048381904
0.037067956
0.028065046
0.02081817
0.015329399
0.010323919
0.0073986913
0.003688008
0.0030035119
0.00098660231
0.19857876
0.19781316
0.19713236
0.19653748
0.19601455
0.19554951
0.19513442
0.19476178
0.19442623
0.19412339
0.1938495
0.19360289
0.19337924
0.19317446
0.19298879
0.19282061
0.19266686
0.19252597
0.1923987
0.19228392
0.19217873
0.19208382
0.19199976
0.19192281
0.19185304
0.19179297
0.19174425
0.19170703
0.19167923
0.19166637
0.19166296
0.19171133
0.19169963
0.19193841
0.15861516
0.12603976
0.099326005
0.077834404
0.060952245
0.047264372
0.03636759
0.027437317
0.020532107
0.014449531
0.010925055
0.0063722253
0.005518296
0.0020020168
0.0008657263
0.19854484
0.19775605
0.19706136
0.19645754
0.19592915
0.19546219
0.19504657
0.19467506
0.194342
0.1940423
0.19377226
0.19352948
0.19330937
0.19310835
0.19292662
0.19276218
0.1926118
0.19247466
0.19235093
0.19223908
0.19213661
0.19204472
0.19196321
0.19188819
0.19182087
0.1917635
0.19171754
0.19168282
0.19165797
0.19164904
0.19165135
0.19170091
0.19171627
0.19193668
0.15589751
0.12425595
0.097572671
0.077411806
0.060388657
0.046747909
0.036048722
0.027189682
0.020028666
0.015088402
0.009771758
0.007463064
0.0032389812
0.0030539345
0.00096255483
0.19851007
0.19769187
0.19697885
0.19636399
0.19582916
0.19535969
0.19494419
0.19457381
0.19424354
0.19394756
0.19368198
0.19344372
0.19322789
0.19303135
0.19285441
0.19269428
0.19254797
0.1924151
0.19229527
0.19218711
0.19208847
0.19200046
0.19192187
0.19184924
0.19178491
0.19173062
0.19168775
0.19165562
0.19163391
0.1916291
0.19163699
0.19168559
0.19173367
0.19162086
0.15388687
0.12191111
0.097500517
0.076405902
0.059444714
0.047040541
0.035266532
0.027450306
0.020115617
0.014581624
0.011390766
0.0065960068
0.0069559579
0.00196532
0.00088147102
0.19847542
0.19762129
0.19688504
0.19625717
0.19571586
0.19524391
0.19482891
0.1944605
0.19413334
0.19384176
0.19358118
0.19334803
0.19313693
0.19294565
0.19277409
0.19261879
0.19247735
0.19234937
0.19223411
0.19213003
0.19203512
0.19195079
0.19187515
0.19180576
0.19174516
0.19169453
0.19165482
0.19162507
0.19160681
0.19160685
0.19162229
0.19166569
0.19176201
0.18797636
0.15036197
0.12101467
0.095160033
0.074528814
0.060187906
0.045077918
0.036571943
0.025962792
0.020697328
0.014375403
0.0096323718
0.0069522685
0.0032186473
0.0028039838
0.00095843054
0.19844046
0.1975452
0.19678328
0.19614085
0.19559242
0.19511766
0.19470289
0.19433742
0.19401416
0.1937275
0.19347256
0.193245
0.19303919
0.19285392
0.1926878
0.19253775
0.19240165
0.19227878
0.19216823
0.19206842
0.19197798
0.19189825
0.19182605
0.19175993
0.19170253
0.19165533
0.19161915
0.19159241
0.19157855
0.19158278
0.19160862
0.19162599
0.19180279
0.18417281
0.14863123
0.11740663
0.092860212
0.075931234
0.057946522
0.046562867
0.033846001
0.028763362
0.01847887
0.01467723
0.01179817
0.0067912671
0.0051097206
0.0024435743
0.00090205346
0.19840501
0.19746286
0.196673
0.19601563
0.19545992
0.19498263
0.19456852
0.194207
0.19388879
0.19360737
0.19335825
0.19313661
0.19293678
0.19275797
0.19259744
0.1924534
0.19232309
0.19220553
0.19209999
0.19200486
0.19191876
0.19184256
0.19177315
0.19171076
0.19165754
0.19161505
0.19158221
0.19155865
0.19155023
0.19155897
0.19159516
0.19160974
0.19180478
0.18009366
0.14379305
0.11390914
0.0940534
0.073278659
0.056911452
0.044006487
0.036426678
0.023896148
0.021781548
0.013802749
0.0088194013
0.007210017
0.0032006598
0.0024985765
0.00091676585
0.19836833
0.19737441
0.19655496
0.19588225
0.19531963
0.19484089
0.19442883
0.19407155
0.19375848
0.1934833
0.19324073
0.19302538
0.19283196
0.19265993
0.19250516
0.19236743
0.19224323
0.19213074
0.19203006
0.19193935
0.19185785
0.19178614
0.19172088
0.19166226
0.1916129
0.19157431
0.19154475
0.19152502
0.19152122
0.19153434
0.19157963
0.19161084
0.19179331
0.17612705
0.13967861
0.11504893
0.091111937
0.069938471
0.056807276
0.04611031
0.03222006
0.029798284
0.018334392
0.012754615
0.012902524
0.0075414197
0.0048965349
0.0027391267
0.00098152191
0.19832706
0.19727772
0.19642864
0.19574166
0.19517386
0.19469472
0.19428577
0.19393332
0.19362661
0.19335782
0.19312216
0.19291328
0.19272677
0.19256107
0.19241301
0.19228125
0.19216299
0.19205611
0.19196047
0.19187441
0.19179777
0.19173009
0.19166862
0.19161399
0.19156889
0.19153433
0.19150785
0.19149252
0.19149523
0.19151295
0.19156221
0.1916272
0.19177603
0.17107169
0.13818295
0.11192121
0.086168784
0.071076643
0.059392381
0.040656031
0.037886404
0.023634255
0.021813583
0.012649782
0.0085538942
0.0066577694
0.0038578495
0.0013801769
0.00075699631
0.1982818
0.19717479
0.19629537
0.19559588
0.19502444
0.19454646
0.19414158
0.19379454
0.19349476
0.193233
0.19300439
0.19280221
0.19262271
0.19246335
0.19232257
0.1921966
0.19208404
0.19198284
0.19189219
0.19181078
0.19173883
0.19167503
0.19161587
0.19156454
0.19152419
0.19149466
0.19147229
0.19146167
0.19146875
0.19149199
0.19153779
0.19165462
0.19177688
0.16753524
0.13739383
0.10608685
0.08814185
0.073382923
0.050313121
0.047409081
0.030897295
0.02835452
0.016706393
0.011305081
0.012499168
0.008046262
0.0035361198
0.0030780798
0.00083360853
0.19823233
0.19706789
0.19615962
0.19544786
0.19487372
0.19439846
0.19399827
0.19365762
0.19336481
0.19311033
0.19288843
0.19269337
0.19252112
0.19236812
0.19223406
0.19211422
0.19200718
0.19191136
0.19182527
0.19174858
0.19168128
0.19162184
0.19156591
0.1915181
0.19148143
0.19145429
0.19143559
0.19143131
0.191445
0.19147544
0.1915267
0.19166227
0.19179712
0.16521004
0.13052984
0.10777023
0.086451874
0.066219405
0.05762471
0.043150271
0.035856175
0.025017361
0.023030429
0.012110972
0.0082082875
0.0059749344
0.0036686084
0.002139026
0.00093979718
0.19817706
0.19695478
0.19602061
0.1952999
0.19472458
0.19425268
0.19385767
0.19352355
0.19323777
0.19299096
0.19277649
0.19258806
0.19242295
0.19227674
0.19214944
0.1920351
0.1919337
0.19184254
0.19176027
0.19168914
0.19162657
0.19157002
0.19151751
0.1914737
0.19144202
0.19141798
0.1914015
0.19140206
0.19142292
0.19146041
0.19152581
0.19165482
0.19182429
0.16167625
0.13049511
0.10437888
0.084974279
0.068252025
0.054739749
0.039290059
0.030030998
0.026396468
0.013042417
0.0095980449
0.013693774
0.0089102285
0.0076683314
0.0028267203
0.00079921351
0.19811898
0.19683728
0.19588045
0.19515328
0.19457858
0.1941106
0.19372149
0.19339445
0.1931153
0.19287627
0.19266966
0.19248758
0.1923292
0.19219004
0.19206897
0.19195979
0.1918635
0.19177721
0.19169948
0.1916317
0.19157261
0.19151989
0.19147106
0.19143201
0.19140448
0.19138447
0.19137037
0.19137359
0.19140192
0.19144246
0.19153477
0.19165218
0.19185366
0.15810945
0.1264403
0.10305004
0.084425802
0.066250833
0.05111739
0.045194169
0.039208831
0.02534916
0.022869342
0.0078651587
0.0058305111
0.0065118501
0.0042429221
0.0039571478
0.00076836194
0.19805643
0.19671388
0.19573912
0.19500845
0.19443622
0.1939732
0.19359064
0.19327097
0.19299888
0.19276741
0.19256759
0.19239198
0.19224019
0.19210806
0.19199239
0.19188815
0.1917968
0.19171438
0.19164183
0.19157823
0.19152254
0.19147132
0.19142518
0.19139228
0.19136866
0.19135007
0.19134042
0.19135098
0.19138255
0.19143069
0.19154349
0.19166117
0.19187673
0.15401297
0.12466326
0.10199939
0.080708401
0.066401291
0.058350008
0.040892786
0.026759501
0.024117109
0.006491257
0.0075647943
0.0088661437
0.010178368
0.0085410018
0.002459056
0.00077368821
0.19800005
0.19659873
0.19560431
0.19487031
0.19430086
0.19384316
0.19346708
0.19315435
0.19288958
0.19266554
0.19247135
0.19230192
0.19215667
0.1920305
0.19192013
0.19182061
0.19173421
0.19165564
0.19158668
0.19152605
0.19147443
0.1914265
0.19138317
0.19135423
0.19133375
0.19131792
0.19131109
0.19132732
0.19136731
0.19142102
0.19153395
0.19167826
0.18060278
0.15181346
0.12335254
0.099673751
0.078252669
0.067520728
0.046671347
0.040165936
0.035725765
0.023728821
0.016071342
0.0037187971
0.0087790502
0.0097016488
0.00824915
0.0044837909
0.00074016358
0.19789558
0.19644484
0.1954542
0.19472661
0.19416374
0.19371369
0.19334565
0.19304067
0.19278356
0.1925667
0.19237913
0.1922161
0.19207747
0.19195745
0.19185034
0.1917561
0.19167429
0.19159937
0.19153405
0.1914772
0.19142817
0.19138434
0.19134498
0.19131944
0.19129837
0.19128596
0.1912867
0.1913074
0.19134992
0.19142113
0.19153025
0.19169817
0.18907724
0.14825366
0.12172877
0.098293815
0.089740172
0.060886049
0.057906832
0.049206873
0.0316455
0.020434999
0.024768294
0.014147797
0.0046190135
0.0053692614
0.0065133321
0.0044722909
0.0007265575
0.19792315
0.19639678
0.19536611
0.19462811
0.19406328
0.19361466
0.19325029
0.19294923
0.19269717
0.19248489
0.19230156
0.19214301
0.19200759
0.19189464
0.19179113
0.19169979
0.19162123
0.19154993
0.19148661
0.19143307
0.19138577
0.19134363
0.19130957
0.19128695
0.19126591
0.19125586
0.19126256
0.19128872
0.1913308
0.19142021
0.19152564
0.19170854
0.18226905
0.14965273
0.11519218
0.096059941
0.067824156
0.066793532
0.050783534
0.036230671
0.051721118
0.02933879
0.020054951
0.010967019
0.009417074
0.0062955284
0.007101699
0.0045549583
0.00071679423
0.0029969266
0.011192588
0.02096931
0.025809796
0.060884236
0.051062177
0.061347037
0.077962694
0.086526876
0.099950349
0.1159246
0.10820307
0.13717979
0.1844251
0.18959189
0.19267558
0.19408505
0.1942899
0.19382569
0.19304479
0.19232152
0.19171454
0.19122293
0.19084305
0.19058379
0.19040366
0.19029927
0.19018447
0.19011992
0.19006714
0.19003264
0.19000986
0.18999376
0.18998167
0.18997745
0.18997574
0.1899809
0.18999624
0.19002072
0.19005478
0.19010531
0.19017551
0.19027247
0.19040563
0.19058739
0.19083946
0.19119752
0.19173352
0.1922864
0.0026983211
0.015428671
0.025217499
0.045005249
0.047044577
0.080799901
0.085888979
0.091815527
0.10052733
0.11175947
0.12995381
0.1591019
0.17305752
0.1852403
0.179744
0.19301865
0.19416304
0.1942384
0.19375101
0.1929717
0.19226759
0.19165192
0.19118274
0.19083631
0.19059231
0.19042311
0.19032592
0.19021057
0.19015946
0.19010295
0.19006967
0.1900466
0.19003254
0.19002064
0.19001676
0.19001628
0.19002151
0.19003688
0.19006195
0.19009649
0.19014732
0.1902181
0.19031573
0.19044973
0.19063261
0.19088557
0.19124483
0.19178217
0.19235972
0.0026047619
0.015428952
0.02737954
0.046636365
0.066629967
0.057208952
0.06227348
0.072179813
0.075865485
0.091319777
0.096755772
0.099542086
0.11356721
0.16380111
0.19035569
0.19304401
0.19417875
0.19419517
0.1936472
0.19292183
0.19221506
0.1916406
0.19118483
0.19085196
0.19062128
0.19045234
0.19035383
0.19023983
0.19019647
0.19013799
0.19010506
0.19008134
0.19006956
0.19005777
0.19005438
0.1900553
0.19006089
0.19007629
0.19010196
0.19013713
0.1901884
0.19025983
0.19035823
0.19049317
0.19067729
0.19093125
0.19129182
0.19183087
0.19241648
0.0024949038
0.015276245
0.02751525
0.046098178
0.047935633
0.082799519
0.083628628
0.10043211
0.11128115
0.13262121
0.14671602
0.1734426
0.17983112
0.14618743
0.1641643
0.19301297
0.19417455
0.19413732
0.1935641
0.19284454
0.19217155
0.19161834
0.19118321
0.19086612
0.19064371
0.19047818
0.19037651
0.19026922
0.19022742
0.19017208
0.19013874
0.19011511
0.19010543
0.19009395
0.19009098
0.19009334
0.19009974
0.19011532
0.19014164
0.19017763
0.19022955
0.19030181
0.19040116
0.19053723
0.19072272
0.19097811
0.19134034
0.19188147
0.19248162
0.0023943021
0.015425204
0.029213941
0.046992333
0.067353352
0.077191788
0.066368689
0.083985906
0.081445731
0.093854345
0.10011799
0.10416959
0.1029234
0.17468078
0.19058006
0.18785751
0.19403357
0.19404375
0.1934738
0.19278085
0.19213861
0.19160722
0.19118663
0.19087918
0.19066076
0.19050069
0.19039743
0.19029795
0.19025219
0.19020535
0.19017103
0.19014866
0.19014037
0.19012963
0.19012696
0.19013066
0.19013822
0.19015419
0.1901812
0.19021815
0.19027091
0.19034416
0.19044464
0.19058189
0.19076895
0.19102611
0.19139025
0.19193382
0.1925478
0.0023052392
0.015292267
0.029233833
0.046507632
0.055700074
0.084471225
0.082330062
0.099668285
0.10293805
0.12395109
0.11674393
0.17092599
0.18174493
0.13693635
0.13625926
0.19290992
0.19391417
0.19399571
0.19341171
0.19272917
0.19210524
0.19159796
0.19120019
0.19089109
0.19067354
0.19052161
0.1904165
0.19032406
0.19027247
0.19023752
0.19020235
0.19018238
0.19017462
0.1901651
0.19016284
0.19016755
0.19017649
0.19019308
0.19022084
0.19025891
0.19031272
0.19038705
0.19048882
0.19062732
0.19081629
0.19107541
0.1914417
0.1919881
0.19261698
0.0022294739
0.015432081
0.030410006
0.047098848
0.067279092
0.084942623
0.08035629
0.098913811
0.088636203
0.10413491
0.098306953
0.10357514
0.11003963
0.18798939
0.16605513
0.16839452
0.19384275
0.19389097
0.19333278
0.19269143
0.19208058
0.19158886
0.19120745
0.19090496
0.19068845
0.19053926
0.19043594
0.19034867
0.19029292
0.19026823
0.19023351
0.1902162
0.19020845
0.19020048
0.19019893
0.19020431
0.19021465
0.19023214
0.19026073
0.19030008
0.19035508
0.19043063
0.19053381
0.19067382
0.19086478
0.19112611
0.19149487
0.19204445
0.19268883
0.0021680838
0.015238229
0.030803993
0.047449025
0.055623743
0.085370724
0.084188672
0.10441887
0.097937646
0.12796939
0.11271498
0.12999275
0.16052951
0.18414254
0.158423
0.18742534
0.19374904
0.19377345
0.19327349
0.19266602
0.19205161
0.19158311
0.1912121
0.19091827
0.19070633
0.19055815
0.19045577
0.19037151
0.19031623
0.19029709
0.19026466
0.19024959
0.19024192
0.19023577
0.19023542
0.19024118
0.19025279
0.19027145
0.19030097
0.19034175
0.19039799
0.19047504
0.19057978
0.19072141
0.19091453
0.19117837
0.19154988
0.19210299
0.19276357
0.0020979523
0.015475784
0.033534424
0.050695348
0.058501841
0.088029089
0.078388463
0.11952686
0.086616298
0.10115999
0.098872182
0.10745174
0.10528752
0.18597272
0.1910899
0.19275411
0.18002596
0.19367307
0.1932153
0.19261185
0.19201085
0.19157489
0.19120475
0.19093102
0.19072591
0.19057546
0.19047518
0.19039403
0.19034424
0.190325
0.19029605
0.19028217
0.19027498
0.19027101
0.1902721
0.19027813
0.1902909
0.19031097
0.19034156
0.19038392
0.19044152
0.19052027
0.19062681
0.19077024
0.19096564
0.19123221
0.19160678
0.19216385
0.19284129
0.002079074
0.01534268
0.029254355
0.053402709
0.064819174
0.090338472
0.080556368
0.1209258
0.089137482
0.10401276
0.10171324
0.12882504
0.1191377
0.13437882
0.17849254
0.19266683
0.19346136
0.1935771
0.19313302
0.19253449
0.19196605
0.19156134
0.19119683
0.19094634
0.19074284
0.19059411
0.19049657
0.19041844
0.1903765
0.19035389
0.1903277
0.19031395
0.19030774
0.19030608
0.19030892
0.19031526
0.1903292
0.19035079
0.1903826
0.19042663
0.19048586
0.19056645
0.19067486
0.19082039
0.19101815
0.19128774
0.1916657
0.19222717
0.19292165
0.0019815692
0.015675983
0.036268942
0.055604526
0.063893181
0.092385589
0.063552898
0.10456599
0.07485358
0.11025627
0.093953957
0.127019
0.10536584
0.12204188
0.13858014
0.19260445
0.19331504
0.19344983
0.19306559
0.19246403
0.19193036
0.19154305
0.1911923
0.19096486
0.1907596
0.19061302
0.19051814
0.19044565
0.19041109
0.19038483
0.19035961
0.19034543
0.19034062
0.19034112
0.19034594
0.19035283
0.19036806
0.1903911
0.1904243
0.19047013
0.19053114
0.19061367
0.19072417
0.19087208
0.19107235
0.19134513
0.19172688
0.19229319
0.19300547
0.0019734775
0.015405432
0.035106771
0.056606421
0.04968112
0.089700818
0.059942524
0.085330992
0.067361089
0.11904565
0.093146512
0.13289285
0.11539986
0.15220649
0.125109
0.14970853
0.19324678
0.19332278
0.19295407
0.19239652
0.1919146
0.19152508
0.19119219
0.1909821
0.19077506
0.19063555
0.19054051
0.19047554
0.19044624
0.19041791
0.1903921
0.19037742
0.19037394
0.19037628
0.1903831
0.19039093
0.19040764
0.19043197
0.19046675
0.19051438
0.19057739
0.1906621
0.19077484
0.1909253
0.19112828
0.19140453
0.19179045
0.19236206
0.19309258
0.0018656414
0.015431896
0.037259212
0.057851049
0.063125662
0.093986358
0.07261131
0.1025293
0.073467807
0.10481068
0.083344472
0.13189043
0.10420471
0.12447573
0.16082251
0.15343156
0.1692053
0.19328825
0.19285381
0.19232821
0.19189563
0.19151539
0.19119746
0.19099417
0.19078874
0.19065982
0.19056439
0.19050573
0.19047992
0.19045137
0.19042489
0.1904104
0.19040792
0.19041149
0.19042034
0.19042948
0.1904479
0.19047342
0.19050989
0.19055944
0.19062467
0.19071166
0.19082685
0.19098001
0.19118603
0.19146603
0.1918565
0.19243393
0.19318332
0.0017531536
0.015701532
0.037801554
0.0586788
0.074371898
0.080816918
0.072838598
0.11556354
0.089802375
0.10779776
0.081651942
0.11134954
0.10760618
0.11773421
0.12375784
0.19005167
0.17375691
0.17800215
0.19279922
0.1922712
0.19184815
0.19149753
0.19120101
0.19099931
0.19079879
0.19067944
0.19058966
0.19053454
0.19051094
0.19048363
0.19045744
0.19044486
0.1904428
0.19044683
0.19045775
0.1904685
0.19048885
0.19051559
0.19055385
0.19060537
0.19067296
0.19076251
0.19088032
0.19103639
0.19124573