/*--------------------------------*- C++ -*----------------------------------*\
| =========                 |                                                 |
| \\      /  F ield         | OpenFOAM: The Open Source CFD Toolbox           |
|  \\    /   O peration     | Version:  2506                                  |
|   \\  /    A nd           | Website:  www.openfoam.com                      |
|    \\/     M anipulation  |                                                 |
\*---------------------------------------------------------------------------*/
FoamFile
{
    version     2.0;
    format      ascii;
    arch        "LSB;label=32;scalar=64";
    class       volVectorField;
    location    "2.1";
    object      U;
}
// * * * * * * * * * * * * * * * * * * * * * * * * * * * * * * * * * * * * * //

dimensions      [0 1 -1 0 0 0 0];

internalField   nonuniform List<vector> 
19257
(
(94.243646 0.27737662 -3.6034392e-17)
(94.264616 0.073294542 1.2365562e-21)
(94.31035 0.015445357 6.4758273e-17)
(94.308264 0.025185633 -9.4438206e-18)
(94.318879 0.04591369 4.9781063e-17)
(94.330107 0.047488124 1.2439824e-22)
(94.351898 0.050281986 -5.2426422e-17)
(94.36285 0.076564815 8.6769824e-18)
(94.379743 0.15804777 4.0654996e-17)
(94.381482 0.098801898 -1.1797125e-17)
(94.386014 0.099288806 6.1374688e-17)
(94.401682 0.11882722 5.5409481e-17)
(94.430378 0.18626428 7.3896085e-17)
(94.441209 0.11661488 0)
(94.450995 0.16767031 0)
(94.473135 0.22017579 5.7522846e-17)
(94.50882 0.25304458 5.881625e-17)
(94.532688 0.29941974 -2.9045841e-17)
(94.554992 0.33634301 4.4637636e-17)
(94.577654 0.37307722 0)
(94.609483 0.48865911 5.9829122e-17)
(94.654291 0.56608168 -3.4660907e-17)
(94.68396 0.68154642 0)
(94.717268 0.78807969 5.7691258e-17)
(94.767784 0.91898997 3.9992725e-17)
(94.81253 1.0911674 0)
(94.84822 1.2492784 2.6552301e-17)
(94.887847 1.4638288 4.0733866e-17)
(94.939674 1.6735437 1.1715113e-17)
(94.981896 1.9806334 0)
(95.009462 2.2862382 0)
(95.019099 2.6533465 8.8576704e-18)
(95.038935 3.0287868 -1.0136272e-17)
(95.048026 3.5190599 4.66181e-17)
(95.041981 3.9908395 0)
(95.011432 4.6813262 0)
(95.006408 5.2046149 3.4499888e-17)
(95.020156 5.9180607 -7.9080819e-17)
(94.947572 6.637347 -3.3448092e-17)
(95.085671 6.0022043 3.8714473e-17)
(94.90792 8.3529028 -7.405204e-17)
(94.624539 11.018605 3.2949478e-17)
(94.818061 12.769876 -1.8708496e-17)
(95.286382 12.359012 0)
(95.979112 17.719318 0)
(97.988076 7.6574771 -1.3088772e-17)
(97.218645 23.59736 1.4595913e-17)
(101.15328 14.476655 -1.757564e-17)
(101.42373 36.702161 -1.6771038e-17)
(94.237508 0.17488836 7.370287e-22)
(94.277438 0.065828716 3.7832116e-17)
(94.314159 0.018404317 5.8956942e-17)
(94.307874 0.02625727 0)
(94.312953 0.066269946 8.0074395e-17)
(94.324348 0.063707243 0)
(94.342291 0.067498089 -6.8094168e-18)
(94.355816 0.080775283 1.5880836e-17)
(94.369048 0.085959751 -9.2308384e-18)
(94.377448 0.13047662 -3.2399981e-17)
(94.380613 0.11039488 -6.3915156e-22)
(94.392776 0.1270093 -1.4582887e-17)
(94.411528 0.12941403 -6.7719236e-17)
(94.425264 0.18794522 -9.8695107e-18)
(94.436898 0.1980671 1.1488596e-17)
(94.459337 0.26620919 -4.01408e-17)
(94.487289 0.28898084 -1.5543657e-17)
(94.496881 0.28399733 8.9944986e-18)
(94.518939 0.35228251 -6.2731397e-17)
(94.541484 0.46315668 1.2167007e-17)
(94.571756 0.53602754 -5.6536526e-17)
(94.607889 0.58824445 0)
(94.629172 0.70246649 -9.5171801e-18)
(94.653048 0.81911027 -3.3069721e-17)
(94.693275 0.97838996 -5.1163018e-17)
(94.728814 1.1278993 0)
(94.749371 1.2999336 0)
(94.776121 1.5040505 -3.9719277e-17)
(94.805732 1.7158539 0)
(94.826936 2.0148808 0)
(94.834649 2.3137401 6.9485665e-17)
(94.825717 2.6927188 -7.9823356e-17)
(94.806754 3.0544812 -4.0632802e-17)
(94.778053 3.5387119 -3.5273913e-17)
(94.725014 4.0051471 -2.7124565e-17)
(94.651934 4.6610436 1.5676719e-17)
(94.55851 5.287405 -2.7164246e-17)
(94.474626 6.4204294 7.2875955e-17)
(94.35608 6.8850081 -1.1926242e-17)
(94.110238 9.0775885 -2.7415501e-17)
(93.907157 9.4491736 -1.572588e-20)
(93.747648 9.956375 -1.8033481e-17)
(93.599439 11.805253 -3.064875e-17)
(93.397515 14.96706 4.7114476e-17)
(94.94907 18.42361 -1.3837756e-17)
(94.888958 13.258042 -1.5215218e-17)
(93.728273 24.114055 -1.7347304e-17)
(94.953835 26.528436 1.9911321e-17)
(98.607079 39.489771 1.1027577e-17)
(94.227763 0.21167498 -7.8654049e-17)
(94.281075 0.085043352 4.589507e-17)
(94.314863 0.027641432 -4.0353042e-17)
(94.308219 0.032509857 4.7085222e-17)
(94.306211 0.041831059 -9.0670309e-18)
(94.317709 0.074466911 5.3138297e-17)
(94.330468 0.083480674 0)
(94.350196 0.092271991 -1.449974e-17)
(94.357797 0.092844257 8.4295611e-18)
(94.367583 0.13959917 4.9201248e-17)
(94.371915 0.14647898 3.4436492e-17)
(94.38128 0.14767502 -2.6729844e-17)
(94.389799 0.15367919 6.2160167e-17)
(94.410669 0.20529166 -1.8178768e-17)
(94.423954 0.22819684 -4.2431599e-17)
(94.436857 0.24614352 3.6969677e-17)
(94.447345 0.25502432 -4.2928501e-17)
(94.464485 0.32966271 -6.6824551e-17)
(94.490712 0.39438149 -7.814085e-17)
(94.50585 0.42105454 -3.4079344e-17)
(94.529753 0.5117681 7.9324992e-17)
(94.555862 0.59082505 1.5405976e-17)
(94.573404 0.68657887 -7.1766897e-17)
(94.590404 0.80347162 9.3951028e-17)
(94.614275 0.9424051 3.6419416e-17)
(94.640099 1.1143252 0)
(94.653564 1.2994064 0)
(94.664879 1.4810636 0)
(94.67326 1.7125312 1.1146637e-17)
(94.674494 2.0076085 2.7755607e-23)
(94.662885 2.2997646 -7.4535199e-17)
(94.635153 2.6120972 8.6675315e-18)
(94.581168 3.0172435 3.0324583e-17)
(94.515076 3.4668503 4.7060197e-17)
(94.425235 4.0141603 1.3687092e-17)
(94.307048 4.5701087 -1.5903052e-17)
(94.147545 5.2972858 -7.403278e-17)
(93.989367 5.924848 -4.287301e-17)
(93.756907 7.080094 4.9945351e-17)
(93.514331 7.8188359 5.7831353e-17)
(93.147337 9.3063739 0)
(92.680384 11.848868 6.8426864e-17)
(92.354926 12.282334 1.1105539e-17)
(91.990531 15.10896 -5.1612195e-17)
(91.71767 15.707392 7.3027085e-17)
(88.393017 35.421697 -9.0609977e-21)
(91.322295 26.726911 3.0955745e-17)
(91.411799 27.465193 -1.1727194e-17)
(93.560639 47.091351 -1.3400103e-17)
(94.216682 0.18532026 3.5636828e-17)
(94.279129 0.084198482 -6.2878582e-17)
(94.315804 0.025700146 0)
(94.308418 0.040255902 -7.1543677e-17)
(94.303611 0.049547003 -4.9741971e-17)
(94.312018 0.064295716 2.9050234e-17)
(94.31959 0.090661556 1.1297884e-17)
(94.338498 0.10114811 0)
(94.347592 0.13154121 6.1703386e-17)
(94.353733 0.12133282 -1.7971654e-17)
(94.357034 0.17074882 -1.048491e-17)
(94.363557 0.1518389 -1.2225775e-17)
(94.373023 0.18532167 -7.1406247e-17)
(94.390266 0.18810982 1.667237e-17)
(94.400137 0.2155168 1.1680032e-16)
(94.405731 0.21220019 0)
(94.414158 0.27760889 0)
(94.436251 0.36254085 4.6456149e-17)
(94.455144 0.35050331 9.0484311e-17)
(94.464303 0.43683954 4.2183374e-17)
(94.48358 0.52059311 -8.6181847e-17)
(94.50004 0.61186332 -1.4380224e-17)
(94.516403 0.72469579 6.7263243e-17)
(94.524628 0.8094851 -4.9096423e-17)
(94.532572 0.97913451 -3.4301449e-17)
(94.549621 1.1321158 0)
(94.556404 1.3159412 1.5593917e-17)
(94.551034 1.4887015 -2.2262872e-22)
(94.539279 1.7043314 -2.1226762e-17)
(94.521736 1.9684404 -1.2403837e-17)
(94.491668 2.26827 5.7911746e-17)
(94.437501 2.62677 8.4547916e-17)
(94.357878 3.0129012 -7.9129764e-17)
(94.261356 3.435373 0)
(94.135983 3.918396 0)
(93.974238 4.4739824 0)
(93.775089 5.1366377 8.3668466e-17)
(93.528013 5.9184129 4.3589073e-17)
(93.262881 6.778418 -6.3825445e-17)
(92.942997 7.5198252 4.9989897e-20)
(92.509951 8.693974 0)
(92.071406 9.2792404 -4.1020605e-17)
(91.377479 11.788264 4.8446544e-17)
(90.871122 13.551924 0)
(89.977565 16.902046 -6.5487428e-17)
(91.364472 10.713422 8.5894008e-17)
(89.169274 24.078796 -9.3410506e-17)
(90.244065 22.585196 -5.5898363e-17)
(91.789888 42.75644 4.6427284e-17)
(94.215531 0.19453607 4.8760734e-17)
(94.277369 0.10037468 1.9118606e-17)
(94.320368 0.03195646 -2.2255362e-17)
(94.310541 0.053038668 -1.3014177e-17)
(94.30487 0.050087277 -1.5154749e-17)
(94.306108 0.055508752 -7.0665549e-17)
(94.311432 0.086123445 0)
(94.324448 0.099396164 -4.8276195e-17)
(94.337635 0.12282349 -5.6513494e-17)
(94.339902 0.12267944 1.6476378e-17)
(94.341433 0.15389038 7.6843784e-17)
(94.346067 0.17718325 -6.7289208e-17)
(94.356125 0.1853685 1.3122137e-17)
(94.364457 0.19369375 -2.118818e-22)
(94.374352 0.23217805 -1.6117922e-16)
(94.38152 0.29164314 0)
(94.390115 0.30505654 -1.2243045e-17)
(94.405019 0.29769632 2.8636333e-17)
(94.412392 0.42545986 -1.6731646e-17)
(94.4231 0.4946168 0)
(94.435346 0.53946525 3.4333535e-17)
(94.444928 0.62148792 4.4530674e-22)
(94.45803 0.70675767 1.5614702e-17)
(94.454832 0.81455482 9.1238461e-17)
(94.451091 0.96093457 -4.2714665e-17)
(94.455587 1.1121334 2.4921928e-17)
(94.452306 1.2609475 -5.8391693e-17)
(94.432084 1.4568222 -1.7150221e-17)
(94.400849 1.6906999 -2.4056995e-22)
(94.365448 1.9611046 2.3664133e-17)
(94.315043 2.2460189 -5.5436703e-17)
(94.24001 2.5546859 0)
(94.137918 2.9199811 1.5285024e-16)
(94.013079 3.3593241 0)
(93.848863 3.8001072 0)
(93.645293 4.4424819 -6.2381895e-17)
(93.394352 5.0235012 1.8379237e-17)
(93.099465 5.8223361 -6.5130563e-17)
(92.744408 6.3333534 5.1196539e-17)
(92.312578 7.928733 -6.0813291e-17)
(91.820956 8.6969474 5.3836227e-17)
(91.1345 10.534822 2.1364202e-17)
(90.383277 11.93498 0)
(89.42219 14.044064 0)
(88.501877 15.413146 0)
(85.496064 28.538639 -8.6080202e-17)
(85.952583 26.142647 1.0307076e-16)
(82.664416 36.289148 6.2771298e-17)
(85.543724 48.124711 9.7463008e-18)
(94.220168 0.17603369 4.4787113e-17)
(94.275026 0.1007706 1.7497549e-17)
(94.325934 0.035893941 8.1281718e-17)
(94.316175 0.066338118 0)
(94.307954 0.046218513 0)
(94.302363 0.062637032 0)
(94.30588 0.076970216 0)
(94.312363 0.087984866 8.8576271e-17)
(94.325912 0.12802669 2.5915407e-17)
(94.330889 0.15545373 3.0270733e-17)
(94.329608 0.15882327 -7.0508024e-17)
(94.332003 0.19005195 4.1243322e-17)
(94.338673 0.18954708 0)
(94.345558 0.22951518 -1.4128749e-17)
(94.355593 0.25915419 8.2695566e-17)
(94.363119 0.30289204 5.81838e-17)
(94.364927 0.29587758 2.2639306e-17)
(94.368864 0.38598764 -5.2828809e-17)
(94.373523 0.37187732 -4.6400868e-17)
(94.38283 0.42860885 -1.8158559e-17)
(94.38478 0.51342774 -6.3788701e-17)
(94.389363 0.63159479 2.4856332e-17)
(94.3946 0.71862112 0)
(94.383617 0.79523698 -6.8052363e-17)
(94.366651 0.94781058 -8.0224762e-17)
(94.355437 1.118777 -2.3543822e-17)
(94.340333 1.2893709 1.5153351e-16)
(94.307033 1.4711176 4.8537279e-17)
(94.261502 1.6785184 1.9050025e-17)
(94.208684 1.9126057 -6.7208022e-17)
(94.137133 2.1977822 -5.268508e-17)
(94.040196 2.524208 6.2049818e-17)
(93.915657 2.8845089 -9.1436635e-17)
(93.764531 3.2668516 -6.4812953e-17)
(93.568149 3.768101 0)
(93.330205 4.1941716 1.210226e-16)
(93.034692 4.8644835 0)
(92.685249 5.5302588 0)
(92.250631 6.5987698 -5.0908872e-17)
(91.819899 7.0655085 1.5173059e-17)
(91.202637 8.3271686 -1.0879925e-16)
(90.511457 9.5964985 -5.4560641e-17)
(89.605706 10.834959 1.571078e-20)
(88.49061 12.697817 -1.5799572e-17)
(86.854462 17.111218 0)
(87.376102 12.493435 -9.399222e-17)
(85.151723 19.314641 -1.4268186e-17)
(83.827247 23.52209 2.6607827e-17)
(82.027724 44.914736 -1.0044229e-17)
(94.218056 0.19573719 3.6513255e-22)
(94.272666 0.12513178 1.6074206e-17)
(94.329289 0.038967875 -5.6121254e-17)
(94.32015 0.072221581 0)
(94.307923 0.05370961 2.5666472e-17)
(94.300311 0.056443922 -2.9891731e-17)
(94.30062 0.067487659 0)
(94.30257 0.069129416 -2.0360084e-17)
(94.314224 0.10690034 -7.1518683e-17)
(94.323219 0.16379307 0)
(94.32053 0.16628155 -4.8853845e-17)
(94.318838 0.17654155 -3.8070826e-17)
(94.321975 0.21683068 -2.2235627e-17)
(94.32917 0.21340587 0)
(94.335891 0.22032468 -1.5291766e-17)
(94.337692 0.24297905 -7.1391166e-17)
(94.334818 0.31602673 8.3446033e-17)
(94.332986 0.31313495 -9.957099e-22)
(94.333181 0.41181936 8.5606608e-17)
(94.336651 0.47533796 0)
(94.334458 0.56843359 3.9274497e-17)
(94.332222 0.61267155 0)
(94.325794 0.69682872 0)
(94.307765 0.8146313 1.5879529e-17)
(94.279666 0.92662968 5.6077163e-17)
(94.253689 1.0808043 0)
(94.2247 1.2446531 -7.750671e-17)
(94.18035 1.4264888 -9.1192976e-17)
(94.121605 1.632536 -7.1673124e-17)
(94.050442 1.8676974 4.22295e-17)
(93.958442 2.1297845 -1.1856907e-20)
(93.840963 2.4310895 -4.412059e-17)
(93.695326 2.773857 3.1697593e-21)
(93.519155 3.162253 8.2484666e-17)
(93.300025 3.5857619 4.8987841e-17)
(93.013409 4.1328017 -2.9089826e-17)
(92.68662 4.7362434 6.954834e-17)
(92.282066 5.3204977 -8.3026084e-17)
(91.828934 6.0955615 -1.2457463e-17)
(91.260467 6.8747302 1.4907341e-17)
(90.625731 8.1113226 -1.809136e-17)
(89.805541 9.0844435 1.0859511e-16)
(88.727106 11.00933 1.3288232e-17)
(87.4283 13.234795 4.8978378e-17)
(86.159579 13.774663 -9.9984342e-18)
(83.257989 22.064363 2.0888887e-16)
(80.746964 25.915325 -1.2424946e-16)
(77.353513 33.29742 0)
(76.562585 45.322127 6.2286856e-19)
(94.20911 0.19072668 -5.06601e-17)
(94.267678 0.10298458 -5.9279603e-17)
(94.326633 0.030378059 0)
(94.320094 0.062633211 -2.023469e-17)
(94.30457 0.066678172 -2.3620779e-17)
(94.297859 0.048071038 5.5326759e-17)
(94.293439 0.071095843 0)
(94.293288 0.072585781 2.3250946e-22)
(94.301238 0.066449078 -7.9818645e-22)
(94.310858 0.11187767 5.1466429e-17)
(94.309518 0.15305083 6.0101375e-17)
(94.304048 0.17272544 3.5247371e-17)
(94.30343 0.19124511 0)
(94.307014 0.22673127 -2.410013e-17)
(94.308933 0.25344861 2.7749836e-22)
(94.307587 0.28874716 3.2951253e-17)
(94.304373 0.3178091 -1.9342297e-17)
(94.298806 0.37779086 2.2713263e-17)
(94.293818 0.39166184 7.9969236e-17)
(94.288263 0.44890554 -6.2510578e-17)
(94.282623 0.51279712 1.8318738e-17)
(94.271033 0.60388804 2.1471633e-17)
(94.253217 0.68991654 2.5236017e-17)
(94.229085 0.78749386 -2.9665688e-17)
(94.192483 0.9148722 1.744889e-17)
(94.152339 1.0503804 2.0554945e-17)
(94.1076 1.2140002 0)
(94.049919 1.3961748 5.7029248e-17)
(93.978311 1.5884066 1.3462996e-16)
(93.891081 1.8048428 1.9872319e-17)
(93.779688 2.0643406 2.3483887e-17)
(93.641473 2.3579588 -2.7815516e-17)
(93.473763 2.6854863 -3.2996508e-17)
(93.275863 3.0342593 0)
(93.030731 3.4567858 -7.0015278e-17)
(92.717203 3.9190175 -2.786234e-17)
(92.346461 4.4213808 -1.6654098e-17)
(91.902093 5.1520496 1.2024421e-16)
(91.376858 5.744919 -3.612727e-17)
(90.735969 6.8757967 7.3003491e-17)
(90.055754 7.5979324 1.7712682e-17)
(89.126648 8.6878143 -3.2338141e-17)
(88.020159 10.228773 -9.3119419e-17)
(86.650933 11.553636 7.7468161e-20)
(84.614013 14.805778 -8.145711e-17)
(82.91283 15.749401 -1.1614745e-16)
(80.590212 17.731723 1.6147842e-17)
(76.88372 25.776212 1.0769898e-17)
(71.502813 43.913979 -1.300355e-17)
(94.193803 0.20014465 4.6924316e-17)
(94.259242 0.14714293 5.4916903e-17)
(94.322681 0.04976057 3.2050972e-17)
(94.315823 0.048827269 0)
(94.300548 0.097022371 2.1908976e-17)
(94.293957 0.07442688 -2.5649694e-17)
(94.288958 0.070466512 -5.9900648e-17)
(94.285216 0.075905002 1.5016107e-22)
(94.287188 0.090694364 -2.0382314e-17)
(94.296341 0.12009185 2.3927324e-17)
(94.298109 0.14850211 0)
(94.290695 0.1694556 0)
(94.285264 0.20097689 0)
(94.284752 0.22368114 0)
(94.283867 0.24550778 -2.6197933e-17)
(94.280902 0.26948645 -6.1382083e-17)
(94.273881 0.30386828 3.6016558e-17)
(94.264043 0.3466861 -2.1139717e-17)
(94.252756 0.39877024 -7.4406246e-17)
(94.238624 0.43640561 0)
(94.225911 0.51258465 -1.0253513e-16)
(94.206858 0.59218184 2.0047976e-17)
(94.180457 0.67989676 2.3580701e-17)
(94.150541 0.77533448 0)
(94.106793 0.88364746 0)
(94.052397 1.0230034 -7.6935803e-17)
(93.990851 1.1730437 -4.5364508e-17)
(93.918495 1.3343318 0)
(93.834365 1.5181058 -6.3257527e-17)
(93.732732 1.7299409 0)
(93.603474 1.9683306 6.6419538e-17)
(93.444377 2.2405895 2.6270385e-17)
(93.254378 2.5450795 4.6799434e-17)
(93.033483 2.8929342 7.434633e-17)
(92.766884 3.2571437 2.2183413e-17)
(92.427443 3.7429263 0)
(92.010957 4.2416114 -6.3780211e-17)
(91.536964 4.8644397 0)
(90.951121 5.4902533 9.2984394e-17)
(90.293742 6.2705463 3.9676452e-20)
(89.491302 7.0399751 -8.614482e-17)
(88.49499 8.6524501 2.1263052e-17)
(87.302189 9.5114085 -1.0267335e-19)
(85.670048 11.339857 -8.1615203e-17)
(83.668427 13.681463 1.0369355e-16)
(81.091157 16.567738 1.0601005e-16)
(76.993739 23.055761 1.3866316e-16)
(73.364595 26.825926 1.8657552e-16)
(67.5337 40.846087 -6.9783606e-18)
(94.17412 0.19919978 -2.1852911e-17)
(94.248933 0.10737626 -2.5580705e-17)
(94.320165 0.028134099 -5.9741775e-17)
(94.31104 0.033827386 0)
(94.296474 0.091567241 0)
(94.286788 0.093966379 0)
(94.28614 0.054396517 5.5894318e-17)
(94.280854 0.065801188 3.2602635e-17)
(94.276638 0.080762024 -3.8085526e-17)
(94.283093 0.10322136 1.040088e-21)
(94.287009 0.12919792 -2.608941e-17)
(94.27991 0.15388187 -6.0986578e-17)
(94.27035 0.1734698 -3.7678018e-22)
(94.265157 0.21046693 4.1982289e-17)
(94.261797 0.25274835 -2.4547276e-17)
(94.254994 0.2810431 -2.6911562e-21)
(94.243141 0.31146482 3.3668145e-17)
(94.227605 0.33599788 -3.9506872e-17)
(94.208924 0.38192667 -2.5978851e-21)
(94.187016 0.44177807 0)
(94.167059 0.49759237 1.2793694e-16)
(94.142779 0.56916905 -3.7556258e-17)
(94.108865 0.65139048 4.4175856e-17)
(94.070969 0.74180245 5.2016185e-17)
(94.021045 0.84557204 -6.1231821e-17)
(93.954721 0.96610499 3.6089671e-17)
(93.87691 1.1103488 4.2604914e-17)
(93.788394 1.2747597 -5.0355374e-17)
(93.690879 1.4519896 0)
(93.575858 1.6431361 0)
(93.430123 1.8641415 -4.1763464e-17)
(93.251101 2.1174996 -4.9612541e-17)
(93.039115 2.4079674 0)
(92.795505 2.7187338 -7.0454749e-17)
(92.50784 3.092421 -8.4313883e-17)
(92.146996 3.4734888 0)
(91.699391 4.0024163 0)
(91.184513 4.4403956 1.8404585e-17)
(90.559109 5.2580193 -1.116957e-16)
(89.83596 5.7652076 -1.0882609e-16)
(88.947973 6.8250379 1.6671286e-17)
(87.959491 7.5775418 6.2077519e-17)
(86.60046 8.9529617 8.9932341e-17)
(84.880261 10.804685 1.6245646e-17)
(82.79964 12.293101 0)
(79.743072 15.651427 -1.0723947e-16)
(76.64079 16.73809 0)
(70.740082 25.493812 6.2275885e-19)
(61.967399 40.553549 -1.3502105e-16)
(94.148737 0.2008084 4.0919168e-17)
(94.237086 0.14564584 0)
(94.319503 0.053204907 5.5876234e-17)
(94.306617 0.039817914 3.2590118e-17)
(94.290582 0.082454096 -3.8241991e-17)
(94.277016 0.14792563 0)
(94.279699 0.067707307 0)
(94.276529 0.046854203 -6.1024164e-17)
(94.26859 0.084269319 0)
(94.269608 0.10246263 -1.0815593e-23)
(94.27342 0.1214517 -4.8791637e-17)
(94.266588 0.13897177 2.8566995e-17)
(94.253929 0.17353162 3.3541503e-17)
(94.244439 0.20426221 -3.9347125e-17)
(94.237624 0.2252079 4.6059807e-17)
(94.227545 0.25315727 5.3901401e-17)
(94.211225 0.28748049 3.1601222e-17)
(94.190058 0.33881934 -7.418106e-17)
(94.165897 0.37976105 4.353761e-17)
(94.137971 0.41907659 0)
(94.109696 0.47362981 -3.0049265e-17)
(94.077983 0.54150972 1.6236635e-21)
(94.036368 0.61477895 2.1510995e-21)
(93.989729 0.69672235 -9.7863336e-17)
(93.933571 0.79614764 5.7630758e-17)
(93.857594 0.91194535 -6.7964667e-17)
(93.766128 1.04383 0)
(93.66192 1.1887896 4.7480307e-17)
(93.549923 1.3482478 -2.8115217e-17)
(93.422126 1.5292739 3.3305623e-17)
(93.261928 1.7367548 0)
(93.064589 1.9728532 0)
(92.832343 2.2359854 5.5988368e-17)
(92.565571 2.5300725 -6.6888376e-17)
(92.258796 2.8510293 8.0122591e-17)
(91.876144 3.242021 -2.4068182e-17)
(91.405147 3.6665813 5.8114864e-17)
(90.842909 4.224462 1.7612042e-17)
(90.198343 4.7033028 2.1407355e-17)
(89.395663 5.4619761 5.2331909e-17)
(88.474315 6.2421865 6.4543994e-17)
(87.362292 7.0103167 -7.9891987e-17)
(85.951651 8.4783992 0)
(84.196981 9.5009084 0)
(81.772564 12.024244 0)
(78.841278 13.038865 -1.348319e-17)
(74.107793 19.267112 1.6538922e-16)
(68.978786 21.688511 -4.1808102e-16)
(60.156626 34.312324 -4.7625233e-18)
(94.121894 0.19500414 -7.7036108e-17)
(94.221173 0.11235401 9.2706421e-21)
(94.320618 0.018665864 3.8028225e-21)
(94.304604 0.03861972 -6.1376812e-17)
(94.283927 -0.01998307 3.6006066e-17)
(94.268112 0.19088368 4.2051041e-17)
(94.268895 0.086663692 -4.9049827e-17)
(94.267677 0.054656815 5.7386043e-17)
(94.258624 0.045243595 0)
(94.251909 0.096158083 0)
(94.255132 0.11600236 4.5909868e-17)
(94.249385 0.12746163 -2.6898769e-17)
(94.234226 0.13907817 -3.1578197e-17)
(94.219501 0.16763728 3.7066107e-17)
(94.208815 0.20737079 9.4229438e-22)
(94.196867 0.24389016 0)
(94.178183 0.27553652 0)
(94.153249 0.30287222 -3.4988881e-17)
(94.123899 0.34401792 4.1088543e-17)
(94.090334 0.39451 -2.4138497e-17)
(94.054492 0.44807908 5.6745858e-17)
(94.014897 0.50692561 6.670653e-17)
(93.965524 0.57829138 -3.9248584e-17)
(93.910109 0.65722867 -2.3126433e-17)
(93.847311 0.74538849 1.0900427e-16)
(93.764 0.84751447 3.2138478e-17)
(93.660939 0.96621855 5.348752e-21)
(93.541697 1.1022395 2.2479796e-17)
(93.413867 1.2530213 2.6633028e-17)
(93.273545 1.4167003 -6.3148667e-17)
(93.101218 1.6007729 -3.7485066e-17)
(92.888038 1.8104029 4.4594533e-17)
(92.63663 2.050238 -1.0641716e-16)
(92.348196 2.3154671 6.362204e-17)
(92.019581 2.6112141 1.9089657e-17)
(91.620684 2.9663144 4.5931152e-17)
(91.124456 3.3389532 -1.1092398e-16)
(90.535093 3.8248184 -1.0101549e-16)
(89.846141 4.3122618 0)
(89.014189 4.9635163 0)
(88.030547 5.5873351 0)
(86.814566 6.6316622 -1.9384939e-17)
(85.379967 7.3414311 -7.3212279e-17)
(83.44218 8.9770623 -1.5561148e-17)
(81.044479 9.8376302 3.0196275e-17)
(77.504121 13.673092 8.1098534e-17)
(73.295806 14.896203 9.4272296e-18)
(65.579885 23.32565 2.3011473e-16)
(55.168829 33.780096 -2.5799311e-18)
(94.094067 0.18992997 0)
(94.20342 0.13026294 4.2730116e-17)
(94.322012 0.039022845 -3.96468e-21)
(94.304306 0.070862313 2.9125217e-17)
(94.27584 -0.064627622 0)
(94.262032 0.17648064 0)
(94.258794 0.13811463 0)
(94.256164 0.081112026 8.370827e-23)
(94.245288 0.025596873 3.1866299e-17)
(94.234036 0.073439774 -7.4904712e-17)
(94.233727 0.11600935 -4.3746173e-17)
(94.229371 0.12393219 1.0192123e-16)
(94.2137 0.14031191 0)
(94.195155 0.16643558 3.5130445e-17)
(94.180446 0.19637113 -4.119268e-17)
(94.165551 0.22411694 0)
(94.144484 0.25371706 5.6549726e-17)
(94.11621 0.29238089 3.3193894e-17)
(94.083119 0.33036933 -3.8991706e-17)
(94.044692 0.36700518 -9.1631179e-17)
(94.002245 0.40867733 5.0075901e-22)
(93.955723 0.46253408 0)
(93.89954 0.52571679 -7.4568902e-17)
(93.836032 0.59495724 4.3943548e-17)
(93.765823 0.67412966 5.8499879e-21)
(93.676418 0.76497225 3.0553634e-17)
(93.563765 0.87079358 4.0673465e-21)
(93.430931 0.992282 2.1382799e-17)
(93.286831 1.1256537 -5.070446e-17)
(93.133229 1.2723178 6.0161956e-17)
(92.950338 1.4378723 9.0330753e-21)
(92.72377 1.626786 -6.378654e-17)
(92.455088 1.8411349 7.6141555e-17)
(92.146776 2.0765083 3.0386143e-17)
(91.796626 2.3459592 -3.647568e-17)
(91.381318 2.6323347 -2.1979425e-17)
(90.864627 3.0349567 5.3113897e-17)
(90.250995 3.3671884 1.6127363e-17)
(89.524209 3.9152191 3.9459881e-17)
(88.665258 4.3892533 -2.4232928e-17)
(87.620806 4.9927898 -1.5011972e-17)
(86.36916 5.7826948 1.8752474e-17)
(84.802129 6.7857339 1.8939234e-16)
(82.835066 7.9159961 4.5602795e-17)
(80.139239 9.7287891 1.9765547e-17)
(76.811392 11.174351 -9.3564658e-17)
(71.721789 14.510606 -1.5717769e-16)
(64.661645 17.713134 -2.3424221e-16)
(53.731572 27.505046 1.7675036e-16)
(94.064199 0.17680626 -6.9579812e-17)
(94.185049 0.10703534 4.0755458e-17)
(94.321516 0.026392725 -7.1493641e-17)
(94.305842 0.061090972 8.3416536e-17)
(94.271133 -0.065383625 0)
(94.254714 0.098808337 -3.8137581e-17)
(94.25186 0.13751961 0)
(94.248202 0.096325718 -2.599605e-17)
(94.233935 0.045540369 3.0402018e-17)
(94.218299 0.057145301 3.5697895e-17)
(94.215119 0.099281291 4.1788474e-17)
(94.211056 0.10998266 -4.8728724e-17)
(94.195497 0.12133059 0)
(94.173729 0.14348128 -6.7016099e-17)
(94.154844 0.17446086 7.8629745e-17)
(94.137177 0.20544514 -2.1381073e-22)
(94.114287 0.23230785 -5.3987328e-17)
(94.082586 0.25714309 -9.505453e-17)
(94.044929 0.2873963 1.1168083e-16)
(94.001961 0.325854 -2.7115064e-21)
(93.954217 0.36853364 5.1444263e-17)
(93.90172 0.41402082 3.0258312e-17)
(93.839288 0.46690962 -5.0291819e-24)
(93.768461 0.52807508 -4.1995009e-17)
(93.69112 0.59668591 1.1181918e-21)
(93.596046 0.6770068 2.9217812e-17)
(93.475544 0.7700864 -6.9051979e-17)
(93.331173 0.87634015 -4.0885047e-17)
(93.171678 0.99328506 8.8909419e-21)
(93.003691 1.122163 0)
(92.810738 1.2669616 0)
(92.573551 1.4306206 2.0377013e-17)
(92.290441 1.6156021 9.8849118e-21)
(91.964594 1.8224112 -5.8270711e-17)
(91.594545 2.0485607 -3.5009352e-17)
(91.159721 2.3288096 2.1103828e-17)
(90.631002 2.6020705 2.5540554e-17)
(89.989265 3.01506 -1.5547474e-17)
(89.240783 3.3520164 1.9000635e-17)
(88.345831 3.8293086 0)
(87.254736 4.4723169 -4.3517975e-17)
(85.952436 4.9863598 -1.8149126e-17)
(84.32818 5.8474514 -9.2047232e-17)
(82.287313 6.6975249 -7.4039369e-17)
(79.545535 8.3014304 1.9462832e-17)
(75.936729 9.2563171 -6.548389e-18)
(70.520588 13.371184 -1.3954928e-16)
(62.243821 17.218061 3.3317901e-16)
(49.907538 26.061866 -1.86741e-16)
(94.034468 0.15882919 4.9814284e-21)
(94.166797 0.10082009 3.9126852e-17)
(94.318303 0.03226507 4.573211e-17)
(94.306138 0.058445537 -7.9994172e-17)
(94.271189 -0.029818323 -3.1294792e-17)
(94.246931 0.055003782 3.658718e-17)
(94.24392 0.1176767 6.4254273e-17)
(94.241804 0.10028506 -4.9944279e-17)
(94.226754 0.047029175 2.9185417e-17)
(94.206356 0.039556422 -3.4264244e-17)
(94.200661 0.081290652 -6.0226058e-17)
(94.19625 0.093264735 -2.3421015e-17)
(94.179975 0.10485261 -8.7615896e-22)
(94.155431 0.12363322 6.4348922e-17)
(94.132529 0.14790894 -3.7758606e-17)
(94.111519 0.17279012 6.6389936e-17)
(94.086404 0.19965217 -5.1875872e-17)
(94.051866 0.22911727 -3.0441732e-17)
(94.010391 0.25957405 2.0020219e-21)
(93.963752 0.290035 -2.1021613e-17)
(93.911745 0.32229058 -2.472366e-17)
(93.854082 0.36045572 5.8171826e-17)
(93.786131 0.40654125 -6.8492012e-17)
(93.708722 0.45825408 -4.0380709e-17)
(93.624719 0.51561636 2.3818488e-17)
(93.524566 0.58147292 0)
(93.398187 0.65717644 -2.8534046e-21)
(93.24469 0.74522431 1.9670524e-17)
(93.071761 0.84378872 -7.0016494e-17)
(92.888887 0.95217517 2.7728075e-17)
(92.685078 1.0737167 0)
(92.439246 1.2123067 0)
(92.144899 1.367715 0)
(91.80489 1.5410566 8.4268401e-17)
(91.416421 1.7365367 -3.3762241e-17)
(90.963772 1.95322 -4.0731966e-17)
(90.418509 2.2328934 0)
(89.763257 2.5016944 -3.0033335e-17)
(88.986777 2.8599534 0)
(88.063692 3.2713057 -2.2659914e-17)
(86.95056 3.6387461 8.4325682e-17)
(85.582097 4.2833635 -1.7646341e-17)
(83.90736 4.9263609 1.1160226e-17)
(81.758323 5.8700942 2.8863343e-17)
(79.002464 6.7112204 -9.4828261e-18)
(75.028696 8.9775984 -6.4095136e-18)
(69.830046 9.4798996 2.1074018e-16)
(60.835755 14.651608 -1.163098e-16)
(48.51197 20.433306 4.5457254e-18)
(94.008763 0.1351787 0)
(94.15004 0.087331718 0)
(94.314117 0.02341632 -4.4205495e-17)
(94.304284 0.043179763 2.5760069e-17)
(94.271773 -0.020885975 -1.5101709e-17)
(94.244106 0.024914893 3.5385113e-17)
(94.236867 0.10641735 -2.0722761e-17)
(94.233942 0.095504076 2.4166535e-17)
(94.218808 0.04227737 -2.8216854e-17)
(94.197684 0.034229882 6.6239449e-17)
(94.191385 0.064104616 -5.8230423e-17)
(94.185911 0.073342581 1.8417538e-22)
(94.167814 0.08478532 -5.299515e-17)
(94.139909 0.10221489 -1.5555871e-17)
(94.11299 0.12483378 3.651453e-17)
(94.088669 0.14750962 -4.2810628e-17)
(94.061409 0.16814627 2.5089148e-17)
(94.024721 0.18836574 -1.5692134e-21)
(93.97949 0.21081023 -2.4899696e-21)
(93.928984 0.23711898 2.033396e-17)
(93.873733 0.26634095 0)
(93.812574 0.29812724 -2.8141676e-17)
(93.740493 0.33399315 6.6270715e-17)
(93.657457 0.37451719 5.861229e-17)
(93.567186 0.42015674 4.2038252e-21)
(93.462386 0.47352898 -5.4422405e-17)
(93.331825 0.53560999 6.4325579e-17)
(93.171933 0.60689939 -1.9044613e-17)
(92.988753 0.68574894 2.2595531e-17)
(92.792468 0.77167487 -2.6850206e-17)
(92.577176 0.86893355 0)
(92.323565 0.98083545 -3.8043885e-17)
(92.021008 1.1056452 0)
(91.669907 1.2452235 0)
(91.266186 1.3985522 0)
(90.796426 1.5812362 0)
(90.237332 1.7865118 0)
(89.568196 2.035219 4.3718706e-17)
(88.774042 2.3004645 -1.7831431e-17)
(87.827608 2.5945609 0)
(86.680514 3.010626 0)
(85.28351 3.4050126 -1.7170707e-17)
(83.554109 3.9585247 2.1783672e-17)
(81.354318 4.6110473 4.931061e-17)
(78.467214 5.5275338 9.2865696e-18)
(74.549021 6.541905 5.092646e-17)
(68.663381 9.3017012 -7.2250959e-17)
(59.793875 11.064706 -3.5386072e-18)
(46.33354 16.898352 -1.9541889e-16)
(93.985633 0.10711003 3.1440339e-17)
(94.134161 0.071544479 -3.6833546e-17)
(94.310683 0.019896644 2.1523823e-17)
(94.30205 0.033732743 8.538614e-22)
(94.270266 -0.01117948 1.4704179e-21)
(94.242613 -0.0098368922 -3.4472585e-17)
(94.23439 0.089796583 5.7434278e-23)
(94.228214 0.089843955 2.3540485e-17)
(94.210656 0.040841126 1.3750709e-17)
(94.191753 0.031223472 -1.6131861e-17)
(94.186056 0.042597608 -5.6667672e-17)
(94.178556 0.0494267 4.4107367e-17)
(94.158121 0.059613176 5.163834e-17)
(94.128022 0.074987816 -3.0303163e-17)
(94.098662 0.094282928 -1.7780852e-17)
(94.071585 0.11276445 -2.0849484e-17)
(94.041416 0.13051942 1.221853e-17)
(94.002314 0.14899328 4.3009899e-17)
(93.954322 0.16774557 0)
(93.900682 0.18650148 -1.980419e-17)
(93.842353 0.20585858 0)
(93.777884 0.22772926 -2.7408958e-17)
(93.702189 0.25390426 1.6137185e-17)
(93.614609 0.284129 0)
(93.519024 0.31795607 -2.2461985e-17)
(93.410159 0.35708559 3.9775245e-17)
(93.276564 0.40222961 0)
(93.112605 0.45443295 0)
(92.922852 0.51270355 -2.2020087e-17)
(92.716792 0.57618754 -1.3086153e-17)
(92.49144 0.64875156 3.1134174e-17)
(92.23103 0.73379541 1.8543712e-17)
(91.923015 0.82846134 -9.5526678e-21)
(91.564096 0.93266648 1.3260123e-17)
(91.149042 1.0476629 1.5952291e-17)
(90.664829 1.1823512 0)
(90.093828 1.3445265 0)
(89.415692 1.5250455 0)
(88.607535 1.7261673 0)
(87.642729 1.9652416 0)
(86.476773 2.2315132 0)
(85.048852 2.5716776 0)
(83.280575 2.965491 3.1941294e-17)
(81.033611 3.489577 -6.8909853e-17)
(78.067806 4.1844827 9.1308625e-18)
(74.025902 5.0672851 -1.1207357e-16)
(68.171554 6.1331267 -7.6091743e-17)
(58.637693 8.9656945 -1.0477909e-16)
(44.823089 13.055141 2.0378423e-16)
(93.966734 0.074652243 1.5420114e-17)
(94.121765 0.050594576 1.8061719e-17)
(94.309631 0.013421219 -2.1118293e-17)
(94.301311 0.021008027 0)
(94.268643 -0.0018639841 1.4421027e-17)
(94.238678 -0.017218665 -1.6909871e-17)