/*--------------------------------*- C++ -*----------------------------------*\
| =========                 |                                                 |
| \\      /  F ield         | OpenFOAM: The Open Source CFD Toolbox           |
|  \\    /   O peration     | Version:  2506                                  |
|   \\  /    A nd           | Website:  www.openfoam.com                      |
|    \\/     M anipulation  |                                                 |
\*---------------------------------------------------------------------------*/
FoamFile
{
    version     2.0;
    format      ascii;
    arch        "LSB;label=32;scalar=64";
    class       volScalarField;
    location    "1.9";
    object      Cp;
}
// * * * * * * * * * * * * * * * * * * * * * * * * * * * * * * * * * * * * * //

dimensions      [0 0 0 0 0 0 0];

internalField   nonuniform List<scalar> 
1376
(
0.021386409
0.021393577
0.021396803
0.021400005
0.021346299
0.021356019
0.021361387
0.021367868
0.021375721
0.021384738
0.021394873
0.021406167
0.021418709
0.021432324
0.021296026
0.021309764
0.02131775
0.021327051
0.021337812
0.02135021
0.021364759
0.021381293
0.021399584
0.021419196
0.021439903
0.021461884
0.021484547
0.02150638
0.021526242
0.021222321
0.021243399
0.021259386
0.021275356
0.021291965
0.021309443
0.021327926
0.021347605
0.021369175
0.021392606
0.021417219
0.021442897
0.02146962
0.021497285
0.021525052
0.021552329
0.021579202
0.021606543
0.021633136
0.021129762
0.021155629
0.021176041
0.021197433
0.021220387
0.021244248
0.021268365
0.021292833
0.021318687
0.021346213
0.02137501
0.021404823
0.021435025
0.021465004
0.021494961
0.021525021
0.021556001
0.021588221
0.021623101
0.021659729
0.021696385
0.021732269
0.021764419
0.021041326
0.021069614
0.02109145
0.021114255
0.021138351
0.021163801
0.021190481
0.021218336
0.02124789
0.021279422
0.021312795
0.021347657
0.021383184
0.021418126
0.021451785
0.021484047
0.021515159
0.021545913
0.021580469
0.021619965
0.021661577
0.021705625
0.021752932
0.021800226
0.021841365
0.021871457
0.021886956
0.020965679
0.020993383
0.021016134
0.021041007
0.021066793
0.02109366
0.021121878
0.021151815
0.021183416
0.02121657
0.021251095
0.021286926
0.02132387
0.021361055
0.021398439
0.021435231
0.021467966
0.021495897
0.021523747
0.021556795
0.021596742
0.021641551
0.021690278
0.021742175
0.021797102
0.02185063
0.02189323
0.021919406
0.021931556
0.0219421
0.020903994
0.020929347
0.020950945
0.020975463
0.021002022
0.021030582
0.021061084
0.02109366
0.021127672
0.021162777
0.02119871
0.02123504
0.021271545
0.021307869
0.021343769
0.021381176
0.021416342
0.021446189
0.021470817
0.021494119
0.021525885
0.021565397
0.021608592
0.02165661
0.021708862
0.021767734
0.021830265
0.021885937
0.021930033
0.021959899
0.021981619
0.022003216
0.022024391
0.020861874
0.020886958
0.020908118
0.020930591
0.020954642
0.020979856
0.021006726
0.021036178
0.021069067
0.021104961
0.021142831
0.021181077
0.021218423
0.021254582
0.021290453
0.021328428
0.021365895
0.021399861
0.021429318
0.021453226
0.021477788
0.021510767
0.021550438
0.021591917
0.021636286
0.021687112
0.021746855
0.02181186
0.02187351
0.021927135
0.02197292
0.022011115
0.022043308
0.022074033
0.022123244
0.020821065
0.020846367
0.020868696
0.020893277
0.02091945
0.020946587
0.020973936
0.021000801
0.021027169
0.021054024
0.02108341
0.021117825
0.021157852
0.02120106
0.02124437
0.021287161
0.021328253
0.021365387
0.021397794
0.021424687
0.021444722
0.021468146
0.021507051
0.021551196
0.021592834
0.021638057
0.021689013
0.021749489
0.021813427
0.021874819
0.021932337
0.021985928
0.022036681
0.022084811
0.022120126
0.022164066
0.022208444
0.022235993
0.020782141
0.020805612
0.020826155
0.020851208
0.020878845
0.020908167
0.0209388
0.020970193
0.021001847
0.02103291
0.021062456
0.021090741
0.021119323
0.021150735
0.021186919
0.021227767
0.021272451
0.021317712
0.021359272
0.02139366
0.021416959
0.021432277
0.021457758
0.021507105
0.021561201
0.021608049
0.021655394
0.021710675
0.021774035
0.021834953
0.021890906
0.021944807
0.021996338
0.022058003
0.022106224
0.022148399
0.022191321
0.02223828
0.022281501
0.022322033
0.020766398
0.020783124
0.020797433
0.02081721
0.020841279
0.020868929
0.020899826
0.020933099
0.020968036
0.021003871
0.021039449
0.021074005
0.021107069
0.021138518
0.021167953
0.021195557
0.021222679
0.02125462
0.021296995
0.021347845
0.021395972
0.021426619
0.021435593
0.021455699
0.021516629
0.021589341
0.021641939
0.021684321
0.021747306
0.021808882
0.021853158
0.021898973
0.021948894
0.021999461
0.022063267
0.022121147
0.022162033
0.022203876
0.022255219
0.022286966
0.022310395
0.022356127
0.020783098
0.020793986
0.020800815
0.020813054
0.020829766
0.020850441
0.020875562
0.020904438
0.020936234
0.020970456
0.021006263
0.021042814
0.021079648
0.021115222
0.021148079
0.021179442
0.021209796
0.021235896
0.02126185
0.021294901
0.021341302
0.02139784
0.021450484
0.021477899
0.021490443
0.021527466
0.021593825
0.021657186
0.021708496
0.021772843
0.021830562
0.021870525
0.021909351
0.021942175
0.021991981
0.022056238
0.022113564
0.022157994
0.022198747
0.022242395
0.022267555
0.022289299
0.022354381
0.020801422
0.020814313
0.020819122
0.020827899
0.020839617
0.020854557
0.020873398
0.020896243
0.020922081
0.020949589
0.020978872
0.021010274
0.02104362
0.021078719
0.021113182
0.021146932
0.021183276
0.02121859
0.021248019
0.021277249
0.021312079
0.021357547
0.02141139
0.021462927
0.021500816
0.021525259
0.021559055
0.021609942
0.021654403
0.021700792
0.021774782
0.021837233
0.021875035
0.02190506
0.021923505
0.021963453
0.022023283
0.022084718
0.022140158
0.022188649
0.022220173
0.022250234
0.02229589
0.022406691
0.022552112
0.02077544
0.020792538
0.020802662
0.020816145
0.020830515
0.020845926
0.020863791
0.020885322
0.020909354
0.020933913
0.020959255
0.020986264
0.021012865
0.021039618
0.021068623
0.021097919
0.021124959
0.0211554
0.021192912
0.021229706
0.021266415
0.021306904
0.021353855
0.021407314
0.021451188
0.021483772
0.021515929
0.02155675
0.021602912
0.021631782
0.02166912
0.021748473
0.021820838
0.021858498
0.02186511
0.021864279
0.021897133
0.021964072
0.022042573
0.022123491
0.022182761
0.022219318
0.022259953
0.022334968
0.022435641
0.022576443
0.020714045
0.020737772
0.020753271
0.020769172
0.020783884
0.020799179
0.020817296
0.020837844
0.020859677
0.020882331
0.020904268
0.020924432
0.020946114
0.020970084
0.020995347
0.021023582
0.021055568
0.021086338
0.02111466
0.021141691
0.021167218
0.021194795
0.021228998
0.021274515
0.021328797
0.021378172
0.02141897
0.021457444
0.021507062
0.021568742
0.021617257
0.021647871
0.021681629
0.021731681
0.021770987
0.021776823
0.021776764
0.021825928
0.02191567
0.022016405
0.022110034
0.022182271
0.022226341
0.022254256
0.022335266
0.022471284
0.022584148
0.022602521
0.020613555
0.020647598
0.020669107
0.020689422
0.020707954
0.020725874
0.020743606
0.020759677
0.020774729
0.020791189
0.020808487
0.020826356
0.02084696
0.02087187
0.020899064
0.020921818
0.020945263
0.020974167
0.021002426
0.021035301
0.021071772
0.021100544
0.021124666
0.021145448
0.021170388
0.021204022
0.021245726
0.021297654
0.021360066
0.021434133
0.02150362
0.021552449
0.021583601
0.021590694
0.021620319
0.021668453
0.021687359
0.021698254
0.021771766
0.021882268
0.021998332
0.022107147
0.022182333
0.022206155
0.022283123
0.022397551
0.02246924
0.022578194
0.022508654
0.020457112
0.020496764
0.020525088
0.02055733
0.020592008
0.020626797
0.020659051
0.020687579
0.020711597
0.020729946
0.020741625
0.020747199
0.02074886
0.02074779
0.020753357
0.020776363
0.020804939
0.020836233
0.020869396
0.02090131
0.02093421
0.020970447
0.020997936
0.02102424
0.021048796
0.021075302
0.021101575
0.021129867
0.021166532
0.021231397
0.021315765
0.02139116
0.021448174
0.021480467
0.021500198
0.02154288
0.02159357
0.021613083
0.021628928
0.021722956
0.021854546
0.02198144
0.022102534
0.022183237
0.022237995
0.022323339
0.022354018
0.022551908
0.022509424
0.020289937
0.020330064
0.020357857
0.020389542
0.020424976
0.020464394
0.02050562
0.020545978
0.020583972
0.020618115
0.020647041
0.020669424
0.020685156
0.020694043
0.020693995
0.020686928
0.020677179
0.020672078
0.020689909
0.020718584
0.020753195
0.020804895
0.02084649
0.020872788
0.020898132
0.020929833
0.020965546
0.021003454
0.021041602
0.021078055
0.021117418
0.021164507
0.021238367
0.021328645
0.021380594
0.021427766
0.021498606
0.021539557
0.021549026
0.021571229
0.021686348
0.021860773
0.022003023
0.022109128
0.022168412
0.022260597
0.022285856
0.022512229
0.022464966
0.02014835
0.020186884
0.020212795
0.020242446
0.02027406
0.020307919
0.020344434
0.02038213
0.020419499
0.020455647
0.020490486
0.020524418
0.020554288
0.020580709
0.02060355
0.020619301
0.020629681
0.020630481
0.020622087
0.020605922
0.02058721
0.02058439
0.020612521
0.020657489
0.020704203
0.020751301
0.020800153
0.020848958
0.020892831
0.020930313
0.020973564
0.021027216
0.021087604
0.021153793
0.021239214
0.021309383
0.021338433
0.021436626
0.021509617
0.021501001
0.021539896
0.021693835
0.021871333
0.022006009
0.022095553
0.022197552
0.022207023
0.022471365
0.022424105
0.020022008
0.020065834
0.020091115
0.020118533
0.020146272
0.020175353
0.020206795
0.020240081
0.020273436
0.020305588
0.02033608
0.020365442
0.020394007
0.020422469
0.020450677
0.020479681
0.020510062
0.020538321
0.020556576
0.020564883
0.020560242
0.020539
0.020514736
0.020500468
0.020505734
0.020531065
0.02057906
0.02064437
0.020714935
0.020779786
0.020836704
0.020887746
0.020934999
0.020994468
0.021079929
0.021170086
0.021258059
0.021313246
0.021377815
0.021448943
0.021465786
0.021543485
0.021700387
0.021887932
0.022017822
0.022139676
0.022175322
0.022421936
0.022386301
0.019860761
0.01991497
0.01994802
0.019981399
0.020011358
0.020040594
0.020071367
0.020104568
0.020138615
0.020172182
0.020205082
0.020234121
0.020261254
0.020285916
0.020307804
0.020332146
0.020359525
0.020392022
0.020424153
0.020451018
0.020468269
0.020469457
0.020455676
0.020436516
0.02042254
0.020421205
0.020438879
0.020475171
0.020527186
0.020579116
0.020616248
0.02066679
0.02074875
0.020839656
0.020937237
0.021033793
0.021144913
0.021229484
0.021272733
0.021369923
0.021422979
0.021470973
0.021572414
0.021728259
0.021914327
0.022063944
0.022143744
0.022355857
0.022334812
0.019666669
0.019727205
0.019769501
0.019813142
0.019852889
0.019889522
0.019924956
0.019961335
0.019998761
0.020036108
0.020073463
0.020110349
0.020145317
0.020177096
0.020206772
0.020233765
0.020258206
0.02028199
0.020305543
0.020327087
0.020344595
0.020356511
0.020360494
0.020354541
0.020339266
0.020325141
0.020326855
0.020348926
0.020387511
0.020432514
0.020469311
0.02049514
0.020541193
0.020622794
0.020738928
0.020873083
0.021018916
0.021119568
0.021230973
0.021296776
0.021366576
0.021445172
0.021515766
0.021619101
0.021796778
0.021976904
0.022080206
0.02231925
0.022274992
0.019461039
0.019524666
0.019572216
0.019624146
0.019674809
0.019722661
0.019767676
0.019811137
0.019854485
0.019897386
0.019940255
0.019984579
0.020027853
0.020069897
0.020111678
0.020150244
0.0201854
0.02021655
0.02024439
0.020268297
0.020283163
0.02028658
0.020282653
0.020272992
0.020259212
0.02024836
0.020245804
0.020248423
0.020257011
0.020297401
0.020360195
0.020411288
0.020453991
0.02051953
0.020582019
0.020662232
0.020793689
0.020971223
0.021131438
0.021252405
0.02134691
0.02138951
0.021464781
0.021564992
0.02170059
0.021895168
0.022012354
0.022269895
0.022206257
0.019239452
0.019307597
0.019359148
0.019417677
0.019477108
0.019534554
0.019588646
0.019639238
0.019687362
0.019733948
0.019779635
0.019827401
0.01987496
0.019921753
0.0199683
0.020011884
0.020052593
0.020089967
0.020124856
0.020158991
0.020189504
0.020210848
0.020222558
0.020228142
0.02022778
0.020220113
0.020208493
0.020198268
0.020182931
0.02016561
0.020214302
0.020314418
0.020370712
0.020420747
0.020509829
0.020589107
0.020685303
0.020797863
0.020968584
0.021152922
0.021273832
0.021350317
0.021417832
0.021515426
0.021640891
0.021791921
0.021923684
0.022199158
0.022133067
0.019010825
0.019083334
0.019136048
0.019195561
0.01925659
0.01931508
0.01936977
0.019420387
0.019467581
0.019514274
0.01956252
0.019613186
0.019664937
0.019717078
0.019767778
0.019815979
0.019862154
0.019906419
0.019947803
0.019985658
0.020020778
0.020051163
0.020073836
0.02009328
0.020113956
0.020131037
0.020137771
0.020136923
0.020138857
0.02013584
0.020104328
0.020106915
0.020206014
0.020320412
0.020416771
0.020515881
0.020617345
0.020712009
0.020820384
0.020965241
0.021123235
0.021275773
0.021381869
0.021484654
0.021593708
0.021727749
0.021856556
0.022120612
0.022064804
0.018776532
0.018852908
0.018904593
0.018961568
0.019018612
0.019071519
0.01911971
0.019164222
0.019208543
0.019257358
0.019313643
0.019375805
0.019440317
0.019503057
0.019559449
0.019608685
0.019651426
0.019690229
0.019727361
0.019762787
0.01979809
0.019835568
0.019875051
0.019916295
0.019958637
0.019997188
0.020022976
0.020033555
0.020035872
0.020042869
0.020063797
0.020083671
0.020088379
0.020107066
0.020183584
0.020332734
0.020497185
0.020624958
0.020731416
0.020853565
0.020988482
0.021160815
0.021334591
0.021458866
0.021569707
0.021701926
0.021805949
0.022081172
0.022023092
0.018508975
0.018588569
0.018639024
0.018695191
0.018750621
0.018802233
0.018848962
0.01889184
0.018936092
0.018987652
0.019049238
0.019118782
0.019190479
0.019258278
0.019320975
0.01937771
0.019428512
0.019474749
0.019518667
0.019561222
0.019602038
0.01964182
0.019681741
0.019721256
0.019760617
0.019807895
0.019866988
0.019915326
0.019941385
0.019959243
0.019981595
0.020005409
0.020030924
0.020073964
0.020114211
0.02014561
0.020237486
0.020448756
0.020652993
0.02079309
0.020935334
0.02110265
0.021273083
0.021431608
0.021570661
0.021690588
0.021779687
0.022076387
0.021936834
0.018205838
0.018286856
0.018340268
0.018401766
0.01846251
0.018519893
0.018572602
0.018620963
0.018668205
0.018718637
0.018775326
0.018838063
0.018901566
0.018964325
0.019027314
0.019088129
0.019146355
0.019202505
0.01925902
0.019319661
0.019384879
0.019451752
0.019517231
0.01958105
0.019639544
0.019681387
0.01970137
0.019710597
0.019732931
0.019803896
0.019907239
0.019960676
0.019974578
0.019995225
0.020045997
0.020119806
0.020214831
0.020322425
0.020487737
0.020698542
0.020904015
0.021083442
0.021245914
0.02141004
0.021581481
0.021708285
0.021767054
0.022031443
0.02175929
0.018255529
0.018311547
0.018363624
0.018414349
0.018463009
0.018513079
0.018564939
0.01861732
0.018675144
0.018736354
0.018797212
0.018856736
0.018916482
0.018981964
0.019058703
0.019142357
0.019223126
0.019299095
0.019376536
0.019460108
0.019540992
0.019611261
0.019672199
0.019707546
0.019684477
0.019630141
0.019680488
0.019816053
0.019918915
0.019984426
0.020080441
0.020211008
0.020338368
0.020498688
0.020657435
0.020821006
0.021030751
0.021230068
0.021393693
0.021591251
0.021738206
0.02177956
0.022035448
0.021689039
0.018307642
0.018363926
0.018428208
0.018495519
0.01856213
0.018628223
0.018694955
0.018763143
0.018831649
0.01889503
0.018954299
0.019028969
0.019135552
0.019259748
0.019370179
0.019454252
0.019523105
0.01957691
0.019620654
0.019644981
0.019654113
0.019670214
0.019738905
0.019843531
0.019931885
0.020100984
0.020292359
0.020443636
0.020642162
0.02084061
0.021029238
0.021187953
0.021371156
0.021548581
0.021718635
0.02180404
0.022154264
0.021696054
0.018379255
0.018466161
0.018551002
0.018633323
0.01871107
0.018782622
0.018847953
0.018897595
0.018929107
0.019004556
0.019176421
0.019346359
0.019426716
0.019473454
0.019542687
0.019585267
0.019618766
0.019714081
0.019826359
0.019934953
0.019998432
0.020100734
0.020303886
0.020564475
0.020812892
0.020987838
0.021136707
0.021346208
0.021552103
0.021697065
0.021753221
0.022197329
0.021656132
0.018449656
0.018539469
0.018631847
0.01872619
0.018816049
0.018878647
0.01890617
0.018978031
0.019119962
0.019257444
0.019334862
0.019445816
0.019567132
0.019630964
0.019740529
0.01987808
0.019985488
0.020087711
0.020243726
0.020405382
0.020595455
0.020833316
0.021090237
0.021293326
0.021521211
0.021709866
0.021714214
0.02219228
0.021548251
0.018718814
0.018829452
0.018939489
0.019047953
0.019117353
0.019166195
0.019182922
0.019261743
0.019436366
0.01962169
0.019769336
0.019877936
0.019990256
0.020144937
0.020343125
0.020577068
0.02075139
0.020937194
0.021168156
0.021439423
0.021689458
0.02168503
0.022252154
0.021480747
0.018972481
0.019092637
0.019185385
0.019266903
0.01933312
0.019390086
0.019479813
0.019639731
0.019861278
0.020066165
0.020333975
0.020504215
0.020687817
0.020911886
0.021143234
0.02134602
0.021534456
0.021603156
0.022225627
0.021485746
0.019292654
0.019406447
0.019531678
0.019650241
0.019764545
0.019908363
0.02001816
0.020277874
0.020654247
0.020893871
0.021104036
0.021303683
0.021486681
0.021543762
0.022148187
0.021382146
0.019611214
0.019727589
0.019873358
0.020094592
0.020297066
0.020374282
0.020620326
0.021002127
0.021268227
0.021497035
0.02145568
0.022217782
0.021279072
0.020022011
0.020197621
0.020374436
0.020613921
0.020869703
0.021037199
0.021301923
0.02128624
0.02228059
0.02118545
0.020507624
0.020693705
0.020904468
0.021222483
0.021160976
0.022134663
0.021063789
0.021163712
0.021046813
0.022028991
0.020884131
0.022129318
0.020734042
0.021387612
)
;

boundaryField
{
    Side
    {
        type            empty;
    }
    Inlet
    {
        type            calculated;
        value           nonuniform List<scalar> 
25
(
0.022525688
0.022507124
0.022484449
0.022461511
0.022443437
0.022430672
0.022417028
0.022403248
0.022392956
0.022378763
0.022359726
0.022343774
0.022337169
0.022325374
0.022295885
0.022264007
0.022239899
0.022220635
0.022191067
0.022147375
0.022104392
0.02206255
0.022012448
0.021955166
0.021906016
)
;
    }
    Airfoil
    {
        type            calculated;
        value           nonuniform List<scalar> 0();
    }
    Outlet
    {
        type            calculated;
        value           nonuniform List<scalar> 0();
    }
    procBoundary12to4
    {
        type            processor;
        value           uniform 0.021422988;
    }
    procBoundary12to5
    {
        type            processor;
        value           nonuniform List<scalar> 
30
(
0.021347296
0.021298002
0.021223144
0.02112634
0.021034508
0.02095844
0.020893885
0.020846987
0.020806984
0.020769134
0.0207548
0.020774872
0.020795291
0.020774336
0.020713912
0.02061311
0.02045999
0.020292227
0.020147225
0.020015238
0.019852835
0.01966101
0.019455844
0.019231294
0.018996648
0.018762288
0.018499629
0.018201782
0.021402035
0.021347296
)
;
    }
    procBoundary12to6
    {
        type            processor;
        value           uniform 0.017912654;
    }
    procBoundary12to11
    {
        type            processor;
        value           nonuniform List<scalar> 
65
(
0.021420564
0.021427419
0.021429975
0.021432007
0.021404225
0.021404225
0.02140899
0.021414277
0.021420629
0.021428043
0.021436489
0.021446737
0.021446737
0.02146085
0.021474243
0.021488102
0.021504538
0.021544889
0.021544889
0.021563509
0.021581758
0.021599767
0.021655305
0.021655305
0.021673836
0.021692301
0.021712078
0.021786931
0.021786931
0.021801241
0.021812985
0.02183324
0.021892407
0.021892407
0.021896163
0.021918802
0.021956661
0.021956661
0.021979323
0.022016937
0.022058377
0.022058377
0.022122502
0.022175427
0.022175427
0.022216746
0.022241133
0.022276187
0.022276187
0.022353312
0.022373037
0.022373037
0.022442999
0.022453723
0.022453723
0.022489406
0.022489406
0.022649333
0.022674339
0.022674339
0.022639255
0.022639255
0.022621671
0.022511277
0.022511277
)
;
    }
    procBoundary12to13
    {
        type            processor;
        value           nonuniform List<scalar> 
60
(
0.017996751
0.01805559
0.018125665
0.018193515
0.018193515
0.017984527
0.018036244
0.018088087
0.018143874
0.018200485
0.018255077
0.018255077
0.018012054
0.018071658
0.018139567
0.01821323
0.018293403
0.018293403
0.01810082
0.018190502
0.018275604
0.018361709
0.018361709
0.018179419
0.018300385
0.018411131
0.018503694
0.018603396
0.018603396
0.018594407
0.018714248
0.018793296
0.018874277
0.018874277
0.01879132
0.018935439
0.019054984
0.019180968
0.019180968
0.019161347
0.01933372
0.019486164
0.019486164
0.019404586
0.019580288
0.019784326
0.019784326
0.019733534
0.020025033
0.020252626
0.020252626
0.020191708
0.020491523
0.020878966
0.020878966
0.020952652
0.020935918
0.020935918
0.022028851
0.020540669
)
;
    }
}


// ************************************************************************* //
