/*--------------------------------*- C++ -*----------------------------------*\
| =========                 |                                                 |
| \\      /  F ield         | OpenFOAM: The Open Source CFD Toolbox           |
|  \\    /   O peration     | Version:  2506                                  |
|   \\  /    A nd           | Website:  www.openfoam.com                      |
|    \\/     M anipulation  |                                                 |
\*---------------------------------------------------------------------------*/
FoamFile
{
    version     2.0;
    format      ascii;
    arch        "LSB;label=32;scalar=64";
    class       surfaceScalarField;
    location    "0.0075";
    object      phi;
}
// * * * * * * * * * * * * * * * * * * * * * * * * * * * * * * * * * * * * * //

dimensions      [1 0 -1 0 0 0 0];

oriented        oriented;

internalField   nonuniform List<scalar> 
27235
(
0.00190685
-0.042649096
0.0020015082
-0.04700213
-0.050463175
-0.0015277334
-0.050539038
-0.0014568656
-0.047073539
-0.0013898347
-0.042716619
-0.0013224625
-0.037876689
-0.035098328
-0.0016156262
-0.050618774
-0.0015411579
-0.047148583
-0.0014707523
-0.042787548
-0.0013999793
-0.03794762
-0.0013315392
-0.035166481
-0.0012684975
-0.03302726
-0.030785122
-0.0017095185
-0.050702517
-0.0016313101
-0.047227406
-0.0015573847
-0.042862029
-0.001483064
-0.038022118
-0.0014111371
-0.03523811
-0.0013449253
-0.033093252
-0.0012814971
-0.030848197
-0.0012211536
-0.028371234
-0.026527965
-0.0018086124
-0.050790467
-0.0017264797
-0.047310194
-0.0016488563
-0.042940243
-0.0015708111
-0.038100361
-0.0014952672
-0.035313348
-0.0014257189
-0.03316257
-0.0013590296
-0.030914514
-0.0012955635
-0.028434347
-0.0012376498
-0.026585664
-0.0011826021
-0.0247084
-0.022321472
-0.0019139265
-0.050882838
-0.0018276683
-0.047397151
-0.00174616
-0.043022377
-0.0016642113
-0.038182533
-0.0015848605
-0.035392384
-0.0015118036
-0.033235384
-0.0014416765
-0.030984249
-0.0013749291
-0.028500714
-0.0013140293
-0.026646332
-0.0012562136
-0.024766115
-0.0011972242
-0.02238048
-0.0011376737
-0.020709167
-0.020983334
-0.0020261909
-0.050979849
-0.0019355952
-0.047488494
-0.0018500041
-0.043108632
-0.0017639557
-0.038268832
-0.0016806034
-0.035475413
-0.001603865
-0.033311869
-0.0015301242
-0.031057577
-0.0014599148
-0.02857051
-0.0013958744
-0.026710128
-0.0013351358
-0.024826744
-0.0012732455
-0.022442385
-0.0012107933
-0.020771498
-0.0011517152
-0.021041994
-0.0010877045
-0.020466802
-0.017687962
-0.0021451345
-0.051081736
-0.0020499812
-0.047584447
-0.0019601068
-0.043199211
-0.0018697578
-0.038359462
-0.0017822078
-0.035562631
-0.0017016035
-0.03339221
-0.0016240572
-0.031134687
-0.001550212
-0.02864391
-0.0014828555
-0.026777225
-0.0014190519
-0.024890439
-0.0013541307
-0.022507304
-0.0012886299
-0.020836855
-0.0012268516
-0.0211033
-0.001160296
-0.020534014
-0.0010683159
-0.017780345
-0.00095574198
-0.014237551
-0.00084622729
-0.012383359
-0.011564529
-0.0022715463
-0.05118874
-0.0021716013
-0.04768525
-0.0020772211
-0.043294339
-0.0019823588
-0.038454639
-0.0018903981
-0.035654252
-0.0018057443
-0.03347659
-0.0017241953
-0.031215775
-0.0016465132
-0.028721111
-0.0015756719
-0.026847793
-0.0015086316
-0.024957371
-0.0014405303
-0.022575385
-0.0013718562
-0.020905358
-0.0013072689
-0.021167369
-0.0012381341
-0.020603845
-0.0011423429
-0.017876614
-0.0010244072
-0.014354925
-0.0009087927
-0.012497922
-0.00080405343
-0.011668747
-0.0007192046
-0.010795958
-0.010425411
-0.0024057192
-0.051301116
-0.0023007322
-0.047791157
-0.0022016253
-0.043394239
-0.0021020283
-0.038554588
-0.002005434
-0.0357505
-0.0019165242
-0.033565217
-0.0018307631
-0.03130105
-0.0017490525
-0.028802304
-0.0016745267
-0.026922031
-0.0016040863
-0.025027704
-0.0015326531
-0.022646781
-0.0014606648
-0.020977142
-0.0013931571
-0.021234302
-0.0013214085
-0.020676353
-0.0012217881
-0.017976782
-0.0010983628
-0.014477806
-0.00097640831
-0.012618875
-0.00086476207
-0.011779956
-0.00077286065
-0.010888388
-0.00070947896
-0.010489713
-0.00065871811
-0.0090981288
-0.0064374735
-0.0025481176
-0.051419128
-0.0024378436
-0.047902421
-0.0023337603
-0.043499163
-0.0022292026
-0.038659541
-0.0021277376
-0.035851613
-0.0020343765
-0.033658286
-0.0019441797
-0.031390736
-0.0018582173
-0.02888771
-0.0017798192
-0.027000125
-0.0017057838
-0.025101635
-0.0016308669
-0.022721643
-0.0015554159
-0.021052348
-0.0014848922
-0.021304189
-0.0014105048
-0.020751569
-0.0013070364
-0.018080872
-0.0011780232
-0.014606299
-0.001049491
-0.012746458
-0.00093054439
-0.011898542
-0.0008310803
-0.010988505
-0.0007613983
-0.010560528
-0.00070606706
-0.0091542688
-0.00065408794
-0.0064895212
-0.00061293887
-0.0054792078
-0.0066347632
-0.0027001118
-0.051543066
-0.002584268
-0.048019332
-0.0024749545
-0.043609367
-0.002365188
-0.03876975
-0.002258605
-0.035957842
-0.0021605646
-0.033756027
-0.0020657009
-0.031485061
-0.0019752693
-0.028977544
-0.0018927814
-0.027082296
-0.0018149597
-0.025179356
-0.0017363821
-0.022800155
-0.001657312
-0.021131119
-0.0015836413
-0.021377161
-0.0015065888
-0.020829518
-0.0013992601
-0.018188915
-0.0012645395
-0.014740523
-0.0011291618
-0.012880943
-0.0010024512
-0.012024973
-0.00089485002
-0.011096871
-0.00081809489
-0.010638688
-0.00075743765
-0.0092158008
-0.00070190374
-0.0065451213
-0.00065867117
-0.0055219535
-0.00062203804
-0.0066713841
-0.00057831392
-0.0070224684
-0.005498688
-0.0028618099
-0.051673204
-0.0027401027
-0.048142192
-0.0026252873
-0.043725127
-0.0025100648
-0.038885468
-0.0023981035
-0.036069448
-0.0022951563
-0.033858668
-0.0021953857
-0.031584268
-0.0021002364
-0.029072055
-0.0020134385
-0.027168763
-0.001931621
-0.025261079
-0.0018492018
-0.022882491
-0.0017663615
-0.021213603
-0.0016894373
-0.021453316
-0.0016096945
-0.020910248
-0.0014985355
-0.018300865
-0.0013580429
-0.014880546
-0.001215595
-0.013022565
-0.00108069
-0.012159675
-0.0009643805
-0.011214083
-0.00087971582
-0.010725049
-0.00081285154
-0.0092836145
-0.0007534292
-0.006604555
-0.00070810313
-0.0055667525
-0.00066931933
-0.0067102428
-0.00062251483
-0.0070693437
-0.00057632483
-0.0055444068
-0.00054217481
-0.0048100909
-0.00051303578
-0.0052910701
-0.0051033039
-0.0030334262
-0.051809855
-0.0029055763
-0.048271289
-0.0027849668
-0.043846739
-0.0026640211
-0.039006966
-0.0025464106
-0.036186705
-0.0024383281
-0.033966442
-0.0023333941
-0.03168861
-0.0022332865
-0.029171482
-0.0021419359
-0.027259769
-0.0020559005
-0.025347024
-0.0019694522
-0.022968843
-0.0018826886
-0.021299945
-0.0018023823
-0.021532788
-0.0017199356
-0.020993772
-0.0016050117
-0.018416673
-0.0014587563
-0.015026358
-0.001309083
-0.013171483
-0.0011655746
-0.012303065
-0.0010399608
-0.011340731
-0.00094648319
-0.010820521
-0.00087242026
-0.0093586847
-0.00080872524
-0.0066681959
-0.00076132059
-0.0056135762
-0.00072022767
-0.0067515149
-0.00067013003
-0.0071194903
-0.0006206342
-0.0055934
-0.00058406674
-0.0048461003
-0.00055304661
-0.0053215124
-0.00052186875
-0.0051343138
-0.00049244055
-0.0048459476
-0.0045927725
-0.0032160903
-0.051953321
-0.0030817738
-0.048406958
-0.0029550624
-0.043974511
-0.0028281335
-0.039134511
-0.0027045812
-0.036309909
-0.0025911021
-0.034079615
-0.002480734
-0.031798362
-0.0023754075
-0.029276085
-0.0022792601
-0.027355558
-0.0021887671
-0.025437428
-0.0020980755
-0.023059418
-0.00200723
-0.021390307
-0.0019234252
-0.021615683
-0.0018382521
-0.021080133
-0.0017196527
-0.018536229
-0.0015676462
-0.015177954
-0.0014106046
-0.013327855
-0.0012580853
-0.012455562
-0.001122487
-0.011477491
-0.0010191989
-0.010926108
-0.00093678041
-0.0094421534
-0.00086837243
-0.0067364401
-0.00081890299
-0.0056624409
-0.00077530216
-0.006795397
-0.00072169562
-0.0071731231
-0.00066863375
-0.0056459309
-0.00062939065
-0.0048847597
-0.000596345
-0.0053539551
-0.00056327731
-0.0051672119
-0.00053211378
-0.0048776136
-0.00050015251
-0.0046252733
-0.0004643473
-0.0041520537
-0.00042759809
-0.0044871999
-0.0050682916
-0.003410599
-0.052103937
-0.0032694987
-0.048549533
-0.0031363619
-0.044108763
-0.0030031518
-0.039268408
-0.0028733582
-0.036439364
-0.0027542244
-0.034198447
-0.0026381548
-0.03191379
-0.0025273188
-0.029386156
-0.0024261038
-0.027456398
-0.002330892
-0.025532545
-0.0022357455
-0.023154432
-0.0021406596
-0.021484851
-0.0020532307
-0.021702136
-0.0019652938
-0.021169368
-0.001843117
-0.018659421
-0.0016854602
-0.01533527
-0.0015209473
-0.013491772
-0.0013590257
-0.012617553
-0.0012127203
-0.011625059
-0.0010985195
-0.011042915
-0.0010064326
-0.0095352834
-0.00093280508
-0.0068097664
-0.000881273
-0.0057133653
-0.00083492484
-0.0068421249
-0.000777616
-0.0072304207
-0.00072069615
-0.0057022978
-0.00067848625
-0.0049263564
-0.00064324786
-0.0053885987
-0.00060818962
-0.0052020784
-0.0005751987
-0.004911142
-0.00054111707
-0.004659923
-0.00050265748
-0.0041906398
-0.00046308943
-0.0045265398
-0.00043394158
-0.0050972764
-0.00040814615
-0.0056579189
-0.00034738558
-0.0020123245
-0.0029990599
-0.00028217609
-0.0036178714
-0.052262037
-0.0034696525
-0.048699364
-0.0033297352
-0.044249856
-0.0031899594
-0.039408941
-0.0030536059
-0.036575394
-0.0029285467
-0.034323215
-0.0028064711
-0.032035201
-0.0026898381
-0.029501983
-0.0025832709
-0.027562573
-0.0024830712
-0.025632631
-0.002383227
-0.023254108
-0.0022837389
-0.021583744
-0.002192557
-0.021792277
-0.0021018125
-0.021261532
-0.0019761955
-0.018786089
-0.0018130298
-0.015498172
-0.001640995
-0.013663305
-0.0014693167
-0.0127894
-0.0013115485
-0.011784151
-0.0011852322
-0.011172138
-0.0010820107
-0.0096395646
-0.0010025517
-0.0068887521
-0.00094889877
-0.0057664505
-0.0008995516
-0.0068919427
-0.00083835977
-0.0072915664
-0.00077727334
-0.0057628133
-0.00073174442
-0.0049712388
-0.00069412874
-0.0054255838
-0.00065696651
-0.0052390449
-0.00062205664
-0.0049465906
-0.00058570551
-0.004696815
-0.00054440471
-0.0042320918
-0.00050182329
-0.0045689154
-0.00047113997
-0.005128094
-0.00044551944
-0.0057708528
-0.00038245585
-0.0020736745
-0.0030652541
-0.00031608684
-0.0038389241
-0.052427966
-0.0036832428
-0.04885679
-0.0035361816
-0.044398186
-0.0033895306
-0.039556425
-0.003246277
-0.036718346
-0.0031149955
-0.03445422
-0.0029866207
-0.032162894
-0.0028638739
-0.029623884
-0.0027516536
-0.027674376
-0.0026461564
-0.025737988
-0.0025413586
-0.023358701
-0.0024373093
-0.021687146
-0.0023422393
-0.021886251
-0.002248625
-0.021356684
-0.0021197144
-0.018916077
-0.0019512864
-0.015666404
-0.0017717223
-0.01384247
-0.001589993
-0.012971377
-0.0014200026
-0.01195552
-0.0012802413
-0.01131502
-0.0011642732
-0.0097567595
-0.0010782292
-0.0069740561
-0.001022265
-0.005821914
-0.00096968911
-0.0069450629
-0.00090446338
-0.0073567051
-0.00083886307
-0.0058278334
-0.00078961016
-0.005019811
-0.00074939885
-0.0054651275
-0.00071002226
-0.00527822
-0.00067309365
-0.0049840998
-0.00063431525
-0.0047361639
-0.00058997392
-0.004276608
-0.00054418755
-0.0046146529
-0.00051194688
-0.0051621309
-0.00048658692
-0.0058698771
-0.00042126522
-0.0021369743
-0.0031329787
-0.00035351565
-0.0040744856
-0.052602099
-0.0039109977
-0.04902217
-0.0037564027
-0.044554155
-0.0036025601
-0.039711173
-0.0034520488
-0.036868585
-0.0033142441
-0.034591768
-0.0031792562
-0.032297186
-0.003050065
-0.029752188
-0.0029318574
-0.027792134
-0.0028207458
-0.02584891
-0.0027107183
-0.023468474
-0.0026019431
-0.021795229
-0.0025028515
-0.021984193
-0.0024062876
-0.021454894
-0.0022742531
-0.019049198
-0.0021008934
-0.015839621
-0.0019138841
-0.0140292
-0.0017219273
-0.013163672
-0.0015389766
-0.012139932
-0.0013842584
-0.011473005
-0.0012539041
-0.0098885292
-0.001160377
-0.0070666246
-0.0011016783
-0.0058802177
-0.0010456714
-0.0070016658
-0.00097632018
-0.0074259394
-0.00090584772
-0.0058977229
-0.00085239573
-0.0050725481
-0.00080934058
-0.0055074759
-0.00076763828
-0.0053197174
-0.00072859216
-0.0050237677
-0.00068722343
-0.0047781337
-0.00063965941
-0.0043243451
-0.0005904907
-0.0046638847
-0.0005566038
-0.0051976147
-0.00053160821
-0.0059828353
-0.00046409492
-0.0022053033
-0.0032021501
-0.00039477424
-0.0043248456
-0.052784805
-0.0041531853
-0.049195888
-0.0039906565
-0.044718172
-0.0038292907
-0.03987352
-0.0036711584
-0.03702648
-0.003526509
-0.034736187
-0.0033845888
-0.032438405
-0.0032486093
-0.029887239
-0.00312407
-0.027916181
-0.003006996
-0.025965728
-0.0028914249
-0.023583734
-0.0027777847
-0.021908144
-0.002674539
-0.022086247
-0.0025748977
-0.021556264
-0.0024399461
-0.019185246
-0.0022621156
-0.016017327
-0.0020678639
-0.014223263
-0.0018657109
-0.013366249
-0.0016691232
-0.012338198
-0.001497847
-0.011647687
-0.0013513944
-0.010036452
-0.0012492624
-0.0071676915
-0.0011871641
-0.0059420375
-0.0011276122
-0.0070618394
-0.001054096
-0.0074993167
-0.00097839681
-0.0059728485
-0.00092021351
-0.0051299836
-0.00087402593
-0.0055529167
-0.00082989842
-0.0053636365
-0.00078864372
-0.0050656913
-0.00074452199
-0.0048228881
-0.00069358357
-0.0043754905
-0.00064089706
-0.0047167862
-0.00060526391
-0.0052355753
-0.00058070681
-0.0060783155
-0.00051109166
-0.0022760693
-0.003273131
-0.00044005083
-0.0045917521
-0.052976494
-0.0044115679
-0.049378312
-0.0042406841
-0.044890665
-0.0040714281
-0.040043831
-0.0039052972
-0.037192415
-0.0037534622
-0.03488783
-0.0036042928
-0.032586874
-0.003461158
-0.030029404
-0.0033299003
-0.028046895
-0.0032064793
-0.026088809
-0.0030850153
-0.023704812
-0.0029663907
-0.022026005
-0.0028588427
-0.022192606
-0.0027559597
-0.021660904
-0.0026182762
-0.019324055
-0.0024364715
-0.016199058
-0.0022352669
-0.014424243
-0.0020231156
-0.013578922
-0.0018122663
-0.012551045
-0.00162287
-0.011840581
-0.0014582096
-0.010202621
-0.0013458496
-0.0072789705
-0.0012796237
-0.0060081112
-0.00121643
-0.0071256517
-0.0011387588
-0.0075768448
-0.00105747
-0.0060535797
-0.00099392104
-0.0051927507
-0.00094426205
-0.0056017869
-0.00089758968
-0.0054100994
-0.00085402896
-0.005109968
-0.0008069745
-0.0048706063
-0.00075251572
-0.0044301457
-0.00069620885
-0.0047733635
-0.00065868727
-0.0052750667
-0.00063459884
-0.0061491767
-0.00056291913
-0.0023491519
-0.0033459744
-0.00048998207
-0.0048768073
-0.053177569
-0.0046877231
-0.04956984
-0.0045080671
-0.04507206
-0.0043305351
-0.04022249
-0.0041560129
-0.037366793
-0.0039966336
-0.035047064
-0.0038398567
-0.032742962
-0.0036891854
-0.030179062
-0.0035508195
-0.028184653
-0.0034206249
-0.026218563
-0.0032928417
-0.023832119
-0.0031691384
-0.022148888
-0.0030571524
-0.022303509
-0.0029507796
-0.021768985
-0.0028105773
-0.019465422
-0.0026252661
-0.01638435
-0.0024176079
-0.014631688
-0.0021957431
-0.013801459
-0.0019702366
-0.012778847
-0.0017612175
-0.012053185
-0.0015757754
-0.01038962
-0.0014510356
-0.0074026046
-0.001379872
-0.0060792298
-0.0013129716
-0.0071931476
-0.001231194
-0.007658491
-0.0011439647
-0.0061402772
-0.0010743276
-0.0052615736
-0.0010207769
-0.0056545043
-0.00097144108
-0.0054592238
-0.00092547055
-0.005156705
-0.00087529219
-0.0049214809
-0.00081716583
-0.0044884601
-0.00075721646
-0.0048336266
-0.00071767717
-0.0053162964
-0.0006939901
-0.0061817229
-0.00062021041
-0.0024235925
-0.0034209197
-0.00054520422
-0.0051803173
-0.053388489
-0.0049819599
-0.049770869
-0.0047931049
-0.045262797
-0.0046068667
-0.040409933
-0.0044235715
-0.037550007
-0.0042562705
-0.03521428
-0.0040915458
-0.032907018
-0.0039329445
-0.030336606
-0.003787032
-0.028329885
-0.0036496178
-0.026355412
-0.003515027
-0.023966099
-0.0033861856
-0.022276866
-0.0032696364
-0.022419164
-0.0031594611
-0.021880729
-0.0030169318
-0.019609179
-0.0028286385
-0.0165727
-0.0026152318
-0.014844903
-0.0023841351
-0.014033324
-0.0021439575
-0.013021578
-0.0019140022
-0.012286765
-0.0017047798
-0.01060049
-0.0015650179
-0.0075413185
-0.0014880239
-0.0061562675
-0.0014173515
-0.0072643741
-0.0013315721
-0.0077441656
-0.0012381351
-0.0062332092
-0.0011616299
-0.0053372322
-0.0011037075
-0.0057115481
-0.0010515799
-0.005511141
-0.0010031086
-0.0052059932
-0.00094962968
-0.0049756873
-0.00088773012
-0.0045505121
-0.00082424695
-0.0048973553
-0.00078261391
-0.0053586462
-0.00075912353
-0.0061772801
-0.00068316424
-0.0024993617
-0.0034980512
-0.0006059567
-0.0055040566
-0.053609696
-0.0052960354
-0.049981813
-0.0050975569
-0.045463315
-0.0049021606
-0.040606617
-0.0047096899
-0.037742479
-0.0045340573
-0.035389896
-0.004361031
-0.033079408
-0.0041940968
-0.030502437
-0.0040401829
-0.028483037
-0.0038950448
-0.026499834
-0.0037531955
-0.024107179
-0.0036190947
-0.022410114
-0.0034977347
-0.022539791
-0.003383455
-0.021996386
-0.003238758
-0.01975517
-0.0030479909
-0.016763598
-0.0028296406
-0.015063067
-0.0025899851
-0.014273829
-0.0023354237
-0.013278874
-0.0020833952
-0.012542411
-0.0018471543
-0.010838471
-0.0016889428
-0.0076984256
-0.0016050909
-0.0062402183
-0.0015305155
-0.0073394565
-0.0014408487
-0.0078337642
-0.0013410209
-0.006332561
-0.0012567821
-0.005420595
-0.0011939089
-0.0057734949
-0.0011388414
-0.0055659993
-0.0010877785
-0.0052579236
-0.0010308175
-0.0050334063
-0.00096504861
-0.0046163934
-0.00089830813
-0.0049642365
-0.00085455536
-0.0054021409
-0.00083087237
-0.0061551332
-0.00075249385
-0.0025771322
-0.0035775165
-0.00067296592
-0.00584963
-0.053841692
-0.0056315559
-0.050203092
-0.0054230211
-0.045674065
-0.0052179638
-0.040813043
-0.0050159475
-0.037944598
-0.0048315362
-0.035574371
-0.0046498473
-0.033260505
-0.0044741667
-0.030676971
-0.0043117802
-0.028644573
-0.0041584071
-0.026652322
-0.0040087435
-0.024255903
-0.0038691587
-0.022548836
-0.0037427909
-0.02266552
-0.0036241346
-0.022116217
-0.0034773294
-0.019903337
-0.0032845554
-0.016956589
-0.0030621488
-0.015285269
-0.0028148396
-0.014522016
-0.0025465011
-0.013549989
-0.00227164
-0.012820787
-0.002004872
-0.011107037
-0.0018240618
-0.0078780467
-0.001732077
-0.0063323397
-0.001653366
-0.0074186214
-0.0015598964
-0.0079272037
-0.0014535934
-0.0064384117
-0.0013607446
-0.0055125394
-0.0012922259
-0.0058410393
-0.0012340375
-0.0056239834
-0.0011802898
-0.0053125887
-0.0011196728
-0.0050948088
-0.0010499431
-0.0046862125
-0.00098044746
-0.0050337324
-0.00093470764
-0.0054470812
-0.0009102081
-0.0061283394
-0.00082890833
-0.0026576655
-0.0036593643
-0.00074698846
-0.0062178532
-0.054084976
-0.0059893156
-0.050435146
-0.0057703003
-0.045895492
-0.0055550526
-0.041029741
-0.0053431318
-0.038156737
-0.0051494575
-0.035768207
-0.0049587266
-0.033450699
-0.0047738859
-0.030860622
-0.0046025576
-0.028814961
-0.0044404083
-0.026813418
-0.0042823458
-0.024412875
-0.0041368895
-0.022693459
-0.004005369
-0.022796431
-0.0038820553
-0.022240526
-0.0037330893
-0.020053718
-0.0035387506
-0.017151228
-0.0033132279
-0.015510502
-0.0030594862
-0.014776556
-0.0027782842
-0.013833953
-0.0024805285
-0.013121863
-0.0021799604
-0.01140942
-0.0019714211
-0.008085238
-0.0018695477
-0.0064343646
-0.0017863429
-0.0075022288
-0.0016891302
-0.008024422
-0.0015764055
-0.006550707
-0.0014741098
-0.0056139092
-0.0013991395
-0.0059149849
-0.0013375909
-0.005685335
-0.0012810804
-0.0053700633
-0.0012166629
-0.0051600356
-0.0011429364
-0.0047600178
-0.0010714348
-0.0051051057
-0.0010241348
-0.0054933713
-0.00099791035
-0.0061148804
-0.00091286452
-0.0027422004
-0.0037437179
-0.0008284462
-0.0066111663
-0.054340115
-0.0063717651
-0.050678407
-0.0061418271
-0.046128066
-0.0059158354
-0.041257264
-0.0056936726
-0.03837924
-0.0054901806
-0.035971975
-0.0052900291
-0.033650375
-0.0050956106
-0.031053814
-0.0049148634
-0.028994683
-0.0047433806
-0.026983702
-0.0045763003
-0.024578764
-0.0044244146
-0.022844544
-0.0042875563
-0.022932662
-0.0041593388
-0.022369581
-0.0040080722
-0.020206449
-0.0038124531
-0.017347231
-0.0035847133
-0.015737792
-0.0033260191
-0.015035809
-0.0030329642
-0.014129625
-0.0027131506
-0.013444758
-0.0023760029
-0.011748365
-0.0021334887
-0.0083262723
-0.0020191713
-0.0065488024
-0.0019309066
-0.0075908604
-0.0018298961
-0.0081254673
-0.0017108712
-0.0066693259
-0.0015983857
-0.0057254555
-0.0015160153
-0.0059962792
-0.0014507621
-0.0057504012
-0.0013913994
-0.0054304336
-0.0013230513
-0.005229211
-0.0012452972
-0.0048378676
-0.0011726914
-0.0051775244
-0.0011247769
-0.0055405148
-0.0010956687
-0.0061189391
-0.0010054545
-0.0028322371
-0.0038307413
-0.0009183631
-0.0070306755
-0.054607677
-0.006779973
-0.050933346
-0.006538692
-0.046372241
-0.0063013427
-0.041496227
-0.0060686932
-0.038612354
-0.0058547435
-0.036186329
-0.0056447675
-0.033859946
-0.005440366
-0.031256962
-0.0052497346
-0.029184222
-0.0050683942
-0.027163738
-0.0048916366
-0.024754265
-0.0047325661
-0.023002829
-0.0045902916
-0.023074303
-0.0044568146
-0.022503712
-0.0043029975
-0.020361778
-0.0041062771
-0.017544411
-0.0038771393
-0.015966282
-0.0036149916
-0.015298083
-0.0033119097
-0.014434738
-0.0029715885
-0.013788019
-0.0025963487
-0.012125395
-0.0023126295
-0.0086084013
-0.0021819974
-0.0066793772
-0.0020878189
-0.007685375
-0.0019828354
-0.0082305133
-0.001857691
-0.0067940952
-0.0017344995
-0.0058477144
-0.0016436543
-0.0060859951
-0.001574207
-0.0058196741
-0.0015118975
-0.0054937862
-0.0014395332
-0.0053024141
-0.0013577578
-0.0049197641
-0.0012848623
-0.0052502163
-0.0012378551
-0.0055869629
-0.001204621
-0.0061387339
-0.0011072686
-0.0029296269
-0.0039205998
-0.0010173557
-0.0074786029
-0.054888302
-0.0072161787
-0.051200409
-0.0069631036
-0.046628511
-0.0067137829
-0.041747259
-0.0064703347
-0.038856392
-0.0062453022
-0.036411901
-0.0060250885
-0.034079833
-0.0058102948
-0.03147049
-0.0056093304
-0.029384051
-0.0054176038
-0.027354081
-0.0052305482
-0.024939976
-0.0050637444
-0.023168821
-0.0049152913
-0.023222243
-0.0047762862
-0.022643161
-0.0046196417
-0.020519981
-0.0044218715
-0.017742714
-0.0041920709
-0.016195263
-0.0039280819
-0.015561737
-0.003617225
-0.014746887
-0.0032585039
-0.014148705
-0.002845581
-0.01254023
-0.0025127577
-0.0089395911
-0.0023599878
-0.0068318844
-0.0022586288
-0.0077870064
-0.0021492806
-0.0083399492
-0.0020181595
-0.0069248789
-0.0018840232
-0.0059809546
-0.0017835211
-0.0061853175
-0.0017091786
-0.005893855
-0.0016437998
-0.0055602347
-0.0015673425
-0.0053797122
-0.0014815561
-0.0050057059
-0.0014086882
-0.0053228935
-0.0013638191
-0.0056313916
-0.0013254816
-0.0061652012
-0.0012193088
-0.0030358484
-0.0040133674
-0.0011264995
-0.0079570364
-0.055182668
-0.0076824286
-0.051480081
-0.0074171463
-0.04689734
-0.0071551914
-0.042011037
-0.0069004829
-0.0391118
-0.0066639006
-0.036649151
-0.0064329801
-0.034310514
-0.0062073946
-0.031694816
-0.0059956466
-0.029594647
-0.0057929648
-0.027555316
-0.0055948564
-0.025136618
-0.0054196676
-0.023343093
-0.0052645028
-0.023376944
-0.0051196604
-0.02278829
-0.0049595722
-0.020681644
-0.0047607704
-0.01794211
-0.0045309149
-0.016424188
-0.0042666668
-0.015825265
-0.0039505151
-0.015063673
-0.0035764587
-0.014524203
-0.0031284665
-0.012989712
-0.0027389482
-0.0093276748
-0.0025553926
-0.0070148682
-0.0024450279
-0.0078975324
-0.002330584
-0.0084545047
-0.0021935224
-0.0070616323
-0.0020485435
-0.0061251103
-0.0019371556
-0.0062954888
-0.0018569337
-0.0059739285
-0.0017882924
-0.0056299577
-0.001707685
-0.0054611509
-0.0016178749
-0.0050956991
-0.001544694
-0.0053959156
-0.0015017273
-0.0056738186
-0.0014578558
-0.0061945371
-0.0013425171
-0.0031511053
-0.0041090123
-0.0012468537
-0.0084680833
-0.055491517
-0.0081808196
-0.051772853
-0.0079029033
-0.047179214
-0.007627629
-0.04228824
-0.0073610775
-0.039379336
-0.0071126224
-0.036898392
-0.0068704439
-0.034552555
-0.00663367
-0.031930361
-0.0064107029
-0.029816472
-0.0061965236
-0.027768
-0.0059865513
-0.025344995
-0.0058020253
-0.023526621
-0.0056397202
-0.023538678
-0.0054887686
-0.022939473
-0.0053243913
-0.020847567
-0.0051244147
-0.018142716
-0.0048949896
-0.016652611
-0.004632139
-0.016087161
-0.0043137332
-0.015382396
-0.0039289178
-0.014910342
-0.0034500958
-0.01346969
-0.0029959527
-0.0097806589
-0.0027709094
-0.0072388836
-0.0026490882
-0.0080193503
-0.0025282726
-0.0085754522
-0.0023850376
-0.0072045698
-0.0022296501
-0.0062797447
-0.0021062439
-0.0064176821
-0.0020188454
-0.006061189
-0.0019466117
-0.0057032687
-0.0018617807
-0.0055467866
-0.0017678503
-0.0051898366
-0.0016935704
-0.0054700505
-0.0016511193
-0.0057156912
-0.0016018831
-0.0062274048
-0.0014780341
-0.0032747183
-0.0042075221
-0.0013795293
-0.0090139801
-0.055815668
-0.0087135525
-0.052079248
-0.0084226119
-0.047474581
-0.0081333139
-0.042579568
-0.0078542337
-0.039659542
-0.0075938102
-0.037159724
-0.0073396154
-0.034806728
-0.0070912732
-0.032177532
-0.0068566651
-0.03004998
-0.0066304358
-0.027992714
-0.0064077289
-0.02556596
-0.0062128526
-0.023720379
-0.0060429414
-0.023707965
-0.0058855196
-0.02309709
-0.0057158651
-0.021018704
-0.0055143071
-0.018344928
-0.0052855581
-0.016880317
-0.0050257592
-0.016345832
-0.004708421
-0.015699691
-0.0043182525
-0.015301475
-0.0038157076
-0.013973562
-0.0032908165
-0.010304459
-0.0030104976
-0.0075175487
-0.002873522
-0.0081560869
-0.0027442491
-0.0087048599
-0.0025940221
-0.0073545682
-0.0024289433
-0.0064440287
-0.0022926506
-0.0065528279
-0.0021964818
-0.0061572277
-0.0021200871
-0.0057807159
-0.0020309099
-0.0056367352
-0.0019326057
-0.0052883491
-0.0018563004
-0.0055462021
-0.0018128254
-0.0057586819
-0.001758719
-0.0062702677
-0.0016271563
-0.0034060941
-0.0043089615
-0.0015257407
-0.0095973511
-0.056156026
-0.009283195
-0.052399829
-0.0089788353
-0.047783845
-0.0086748415
-0.042885851
-0.0083825
-0.039953144
-0.0081100004
-0.037433261
-0.007843006
-0.035073835
-0.0075827023
-0.032436755
-0.007336051
-0.030295607
-0.0070973049
-0.028229963
-0.0068610149
-0.025800367
-0.0066546033
-0.023925492
-0.0064764824
-0.023885323
-0.0063121869
-0.023261451
-0.0061362804
-0.021196009
-0.0059324266
-0.018549463
-0.0057041809
-0.017107502
-0.0054486642
-0.016600005
-0.0051357196
-0.016012089
-0.0047459936
-0.015691506
-0.0042305544
-0.014490309
-0.0036330593
-0.010900866
-0.0032811078
-0.007866982
-0.0031222375
-0.0083144171
-0.0029810934
-0.0088461167
-0.0028220865
-0.0075135422
-0.0026481262
-0.0066170445
-0.0024985693
-0.0067012977
-0.0023917728
-0.0062638955
-0.0023102843
-0.00586321
-0.0022165625
-0.0057311869
-0.00211346
-0.0053916501
-0.002034195
-0.0056252804
-0.0019883351
-0.005804359
-0.0019299817
-0.0063265314
-0.0017913869
-0.0035447353
-0.0044134656
-0.0016869165
-0.010220178
-0.0565136
-0.0098916857
-0.05273522
-0.0095734941
-0.048107471
-0.0092541783
-0.043207718
-0.0089477568
-0.040261003
-0.0086628712
-0.037719326
-0.0083824754
-0.035354502
-0.0081098219
-0.032708459
-0.0078507439
-0.030553773
-0.0075990711
-0.028480196
-0.0073484185
-0.026048989
-0.0071293582
-0.024143024
-0.0069421378
-0.024071599
-0.0067704024
-0.023433121
-0.0065873609
-0.021380307
-0.0063801851
-0.018757355
-0.006151808
-0.017334824
-0.00590113
-0.016849047
-0.0055955208
-0.016316516
-0.00521257
-0.01607406
-0.0046975081
-0.015006768
-0.0040370227
-0.011560718
-0.0035919905
-0.0083083734
-0.0034002802
-0.0085052337
-0.0032418357
-0.0090046907
-0.0030706663
-0.0076847702
-0.0028885145
-0.0067980567
-0.0027260712
-0.0068627901
-0.0026065206
-0.0063832956
-0.0025184707
-0.0059521931
-0.0024199145
-0.0058304241
-0.0023114356
-0.0055003123
-0.0022283346
-0.0057081601
-0.0021789649
-0.0058539025
-0.0021169935
-0.0063952797
-0.0019719518
-0.0036901076
-0.0045211957
-0.0018642503
-0.010886188
-0.056889484
-0.01054264
-0.053086151
-0.01021021
-0.048445917
-0.0098749969
-0.043545775
-0.0095536145
-0.040584026
-0.0092557231
-0.038018553
-0.0089615847
-0.0356491
-0.0086761688
-0.032993103
-0.0084042662
-0.03082491
-0.008139294
-0.028743816
-0.0078736234
-0.026312461
-0.0076408396
-0.024373976
-0.0074437757
-0.024267513
-0.0072639078
-0.023612786
-0.0070724477
-0.021572797
-0.0068606033
-0.018969974
-0.0066309714
-0.017563458
-0.0063850434
-0.017093061
-0.0060894083
-0.016610367
-0.0057195457
-0.016443037
-0.0052194728
-0.015508493
-0.0045137484
-0.012266287
-0.0039578425
-0.008859551
-0.0037155269
-0.0087462457
-0.0035319614
-0.00918843
-0.0033427315
-0.0078741063
-0.0031526113
-0.0069867699
-0.002978403
-0.0070363221
-0.0028435255
-0.0065179567
-0.0027468356
-0.0060497154
-0.0026430246
-0.0059348607
-0.0025284775
-0.0056150249
-0.0024407174
-0.0057956865
-0.0023868657
-0.0059081866
-0.0023218388
-0.006471698
-0.0021708125
-0.003841608
-0.0046323512
-0.0020596695
-0.011598925
-0.057284888
-0.011239492
-0.053453451
-0.010892358
-0.048799696
-0.010540773
-0.043900517
-0.01020354
-0.040923141
-0.0098917489
-0.038331825
-0.0095837959
-0.035957737
-0.0092850857
-0.033291265
-0.0089999336
-0.031109482
-0.0087213548
-0.029021167
-0.0084400641
-0.026591391
-0.0081926492
-0.024619227
-0.0079853362
-0.024473478
-0.0077961046
-0.023801522
-0.0075949383
-0.021774789
-0.0073767918
-0.019188975
-0.007144437
-0.017794988
-0.0069024064
-0.017333075
-0.0066184868
-0.016892075
-0.0062667954
-0.016793661
-0.0057896387
-0.01598773
-0.0050709619
-0.012985369
-0.0044028361
-0.009522403
-0.0040789594
-0.0090683306
-0.003859306
-0.0094084513
-0.0036421171
-0.0080913535
-0.0034433694
-0.0071839658
-0.0032587061
-0.0072204869
-0.0031055709
-0.0066708656
-0.0029976344
-0.0061583495
-0.0028879506
-0.0060451108
-0.0027665595
-0.0057365577
-0.0026734107
-0.0058886165
-0.0026142323
-0.005967845
-0.0025465417
-0.0065500784
-0.0023898779
-0.0039987126
-0.0047471085
-0.0022751099
-0.012361023
-0.057701124
-0.011984737
-0.053838066
-0.011622314
-0.049169439
-0.01125405
-0.044272276
-0.010899969
-0.0412794
-0.01057341
-0.038660072
-0.010251621
-0.036280458
-0.0099389692
-0.033603629
-0.0096401611
-0.031407926
-0.009347752
-0.029312508
-0.0090504032
-0.026886232
-0.0087871941
-0.024879886
-0.0085677504
-0.02469136
-0.0083678473
-0.024000693
-0.0081573349
-0.021986004
-0.0079312658
-0.019415918
-0.0076945804
-0.018031121
-0.0074547591
-0.017571004
-0.0071830498
-0.017161391
-0.0068543814
-0.017121411
-0.0064103671
-0.016434789
-0.0057069976
-0.013689312
-0.0049406113
-0.010283094
-0.0045122605
-0.0094944068
-0.0042347813
-0.0096867149
-0.0039740584
-0.0083518112
-0.0037636114
-0.0073929424
-0.0035693841
-0.007414452
-0.0033950365
-0.0068449319
-0.0032728868