/*--------------------------------*- C++ -*----------------------------------*\
| =========                 |                                                 |
| \\      /  F ield         | OpenFOAM: The Open Source CFD Toolbox           |
|  \\    /   O peration     | Version:  2506                                  |
|   \\  /    A nd           | Website:  www.openfoam.com                      |
|    \\/     M anipulation  |                                                 |
\*---------------------------------------------------------------------------*/
FoamFile
{
    version     2.0;
    format      ascii;
    arch        "LSB;label=32;scalar=64";
    class       volVectorField;
    location    "0.0075";
    object      wallShearStress;
}
// * * * * * * * * * * * * * * * * * * * * * * * * * * * * * * * * * * * * * //

dimensions      [1 -1 -2 0 0 0 0];

internalField   uniform (0 0 0);

boundaryField
{
    Side
    {
        type            empty;
    }
    Inlet
    {
        type            calculated;
        value           uniform (0 0 0);
    }
    Airfoil
    {
        type            calculated;
        value           nonuniform List<vector> 
65
(
(-7.2653107 -0.89488095 -1.3775324e-40)
(-7.240938 -0.89480505 5.0104271e-34)
(-7.2091943 -0.8936753 2.0434792e-16)
(-7.1842985 -0.89323238 8.2748434e-27)
(-7.1535518 -0.89192972 8.3182976e-27)
(-7.130452 -0.89165363 -4.9500855e-23)
(-7.0948486 -0.89066938 2.0880632e-16)
(-7.067327 -0.89062312 2.1000938e-16)
(-7.0276992 -0.88885202 -5.0360384e-23)
(-7.0008371 -0.8884918 -2.1251081e-16)
(-6.9635213 -0.88663255 -5.0984751e-23)
(-6.9349116 -0.88563229 5.1296691e-23)
(-6.8969186 -0.8832651 -1.0828172e-16)
(-6.8702264 -0.8820913 1.089965e-16)
(-6.8335663 -0.8795185 1.0465985e-22)
(-6.8076382 -0.87918926 -1.0454179e-22)
(-6.7636862 -0.87682174 7.7165092e-33)
(-6.731511 -0.87572939 1.1209971e-16)
(-6.6875105 -0.87287627 -1.1293898e-16)
(-6.6545988 -0.87125092 -1.1380613e-16)
(-6.6114059 -0.86802452 1.146997e-16)
(-6.578571 -0.86594307 -1.1562545e-16)
(-6.5366007 -0.86238506 1.1658329e-16)
(-6.5068738 -0.86027053 1.1757465e-16)
(-6.4631033 -0.85722162 1.2260239e-24)
(-6.4250564 -0.85520185 -1.1414008e-22)
(-6.3759072 -0.85147061 1.1516713e-22)
(-6.3370142 -0.84888158 -7.5231638e-37)
(-6.28716 -0.84458757 -1.2310774e-16)
(-6.2465633 -0.84127738 2.9911607e-26)
(-6.1929086 -0.83593648 -2.5124398e-16)
(-6.1509774 -0.83194071 -1.2105874e-22)
(-6.0981252 -0.82670508 -1.2241721e-22)
(-6.0505764 -0.82317074 -1.2979489e-16)
(-5.9876872 -0.81737874 -3.7796375e-33)
(-5.9359322 -0.81278923 1.3288721e-16)
(-5.8706433 -0.80605005 0)
(-5.8153658 -0.80042195 1.5046328e-36)
(-5.7477086 -0.79270783 1.3805406e-16)
(-5.6926557 -0.78646169 -1.5046328e-36)
(-5.6254467 -0.77875587 -1.3538216e-22)
(-5.5619388 -0.77268429 1.4402766e-16)
(-5.4802039 -0.76382161 -1.4622933e-16)
(-5.4086146 -0.75599545 -1.4402491e-22)
(-5.321703 -0.745654 1.4398711e-22)
(-5.2459407 -0.73645223 -1.5542563e-33)
(-5.1553198 -0.72473608 -1.4914415e-22)
(-5.0828618 -0.71523715 1.5324981e-22)
(-4.9865146 -0.70362745 -8.1212852e-17)
(-4.8948676 -0.69275663 1.6577869e-16)
(-4.7827257 -0.67864777 8.4683994e-17)
(-4.6837026 -0.66605382 2.8668897e-33)
(-4.5652995 -0.65026715 8.870661e-17)
(-4.4644796 -0.63655171 9.0974692e-17)
(-4.3437505 -0.62006649 -9.3451059e-17)
(-4.2275474 -0.60544909 9.6178191e-17)
(-4.0773185 -0.58512223 6.3811075e-24)
(-3.9512809 -0.56838698 3.0574138e-33)
(-3.7855832 -0.5434892 -1.0619972e-16)
(-3.6677749 -0.52673047 -4.2142606e-22)
(-3.5080797 -0.5046608 4.4024456e-22)
(-3.4038383 -0.49099307 6.0733789e-17)
(-3.2281539 -0.43988117 0)
(-3.1284355 -0.42741359 -6.7509879e-17)
(-4.0598306 -0.55320802 1.30613e-21)
)
;
    }
    Outlet
    {
        type            calculated;
        value           nonuniform List<vector> 0();
    }
    procBoundary5to4
    {
        type            processor;
        value           uniform (0 0 0);
    }
    procBoundary5to6
    {
        type            processor;
        value           uniform (0 0 0);
    }
    procBoundary5to12
    {
        type            processor;
        value           uniform (0 0 0);
    }
    procBoundary5to13
    {
        type            processor;
        value           uniform (0 0 0);
    }
}


// ************************************************************************* //
