/*--------------------------------*- C++ -*----------------------------------*\
| =========                 |                                                 |
| \\      /  F ield         | OpenFOAM: The Open Source CFD Toolbox           |
|  \\    /   O peration     | Version:  2506                                  |
|   \\  /    A nd           | Website:  www.openfoam.com                      |
|    \\/     M anipulation  |                                                 |
\*---------------------------------------------------------------------------*/
FoamFile
{
    version     2.0;
    format      ascii;
    arch        "LSB;label=32;scalar=64";
    class       volScalarField;
    location    "0.0045";
    object      p;
}
// * * * * * * * * * * * * * * * * * * * * * * * * * * * * * * * * * * * * * //

dimensions      [1 -1 -2 0 0 0 0];

internalField   nonuniform List<scalar> 
192657
(
46974.618
47012.724
46975.649
46972.471
46970.344
46970.035
46970.003
46970
46970
46970
46970
46970
46970
46970
46970
46970
46970
46970
46970
46970
46969.999
46970.008
46970.57
46975.413
46996.437
47062.039
47217.409
47467.206
47654.736
47453.186
46938.7
46566.254
46582.17
46632.8
46419.819
46281.906
46294.163
46199.498
46104.517
46070.845
45995.634
45927.051
45880.252
45806.667
45745.039
45681.575
45615.813
45544.467
45467.94
45396.165
45321.482
45242.136
45158.501
45072.919
44984.947
44893.656
44799.664
44703.296
44605.446
44507.107
44408.713
44311.097
44214.931
44120.581
44028.56
43939.339
43853.167
43770.378
43691.152
43615.561
43543.857
43475.843
43411.646
43351.252
43294.503
43241.378
43191.662
43145.209
43101.856
43061.322
43023.448
42987.994
42954.759
42923.568
42894.226
42866.568
42840.453
42815.731
42792.261
42769.911
42748.557
42728.085
42708.395
42689.401
42671.023
42653.184
42635.824
42618.873
42602.266
42585.996
42570.135
42554.761
42539.883
42525.313
42511.435
42499.944
42490.998
42484.58
42480.747
42479.211
42479.292
42480.26
42481.773
42483.682
42485.857
42488.183
42490.563
42492.927
42495.222
42497.411
42499.474
42501.4
42503.186
42504.83
42506.337
42507.711
42508.962
42510.098
42511.129
42512.062
42512.908
42513.672
42514.364
42514.999
42515.596
42516.107
42516.337
42516.062
42515.338
42514.524
42513.85
42513.32
42512.913
42512.616
42512.422
42512.319
42512.288
42512.309
42512.364
46974.675
47012.741
46975.667
46972.468
46970.344
46970.035
46970.003
46970
46970
46970
46970
46970
46970
46970
46970
46970
46970
46970
46970
46970
46969.999
46970.007
46970.551
46975.323
46996.157
47061.363
47216.329
47466.852
47657.829
47459.747
46947.115
46571.53
46585.188
46637.135
46425.898
46286.874
46298.142
46205.254
46110.273
46075.619
46001.487
45932.99
45886.331
45813.041
45751.485
45688.622
45622.945
45551.79
45475.704
45404.404
45330.082
45250.986
45167.573
45082.071
44994.135
44902.852
44808.756
44712.27
44614.285
44515.755
44417.095
44319.124
44222.566
44127.726
44035.178
43945.328
43858.519
43775.032
43695.086
43618.733
43546.312
43477.542
43412.611
43351.482
43294.01
43240.229
43189.884
43142.839
43098.97
43057.934
43019.665
42983.899
42950.427
42919.088
42889.694
42862.083
42836.119
42811.664
42788.587
42766.772
42746.108
42726.491
42707.834
42690.063
42673.114
42656.935
42641.48
42626.725
42612.655
42599.239
42586.41
42574.099
42562.272
42550.968
42540.069
42529.514
42519.889
42511.236
42503.441
42496.509
42490.385
42485.002
42480.304
42476.259
42472.844
42470.04
42467.822
42466.15
42464.937
42464.026
42463.299
42462.72
42462.274
42461.942
42461.706
42461.551
42461.462
42461.426
42461.433
42461.474
42461.541
42461.627
42461.726
42461.833
42461.945
42462.058
42462.169
42462.278
42462.384
42462.485
42462.583
42462.676
42462.763
42462.84
42462.901
42462.945
42462.976
42463
42463.018
46974.727
47012.718
46975.696
46972.466
46970.344
46970.034
46970.003
46970
46970
46970
46970
46970
46970
46970
46970
46970
46970
46970
46970
46970
46970
46970.006
46970.532
46975.235
46995.881
47060.698
47215.272
47466.535
47660.979
47466.392
46955.599
46576.866
46588.234
46641.477
46431.996
46291.896
46302.162
46211.033
46116.104
46080.434
46007.411
45939.029
45892.448
45819.479
45757.999
45695.735
45630.145
45559.19
45483.577
45412.732
45338.757
45259.905
45176.724
45091.33
45003.453
44912.177
44817.971
44721.386
44623.276
44524.576
44425.644
44327.331
44230.386
44135.054
44041.975
43951.507
43864.061
43779.865
43699.182
43622.089
43548.914
43479.37
43413.693
43351.808
43293.606
43239.146
43188.152
43140.516
43096.122
43054.615
43015.977
42979.936
42946.287
42914.88
42885.529
42858.08
42832.409
42808.384
42785.885
42764.809
42745.058
42726.539
42709.174
42692.897
42677.649
42663.384
42650.06
42637.64
42626.091
42615.396
42605.559
42596.582
42588.447
42581.143
42575.059
42570.464
42567.092
42564.573
42562.622
42561.083
42559.867
42558.893
42558.092
42557.402
42556.763
42556.125
42555.445
42554.702
42553.93
42553.236
42552.69
42552.277
42551.97
42551.75
42551.602
42551.515
42551.476
42551.476
42551.506
42551.559
42551.63
42551.713
42551.805
42551.903
42552.002
42552.103
42552.201
42552.296
42552.384
42552.465
42552.536
42552.596
42552.645
42552.683
42552.71
42552.731
42552.746
42552.759
42552.771
46974.774
47012.685
46975.746
46972.464
46970.345
46970.034
46970.003
46970
46970
46970
46970
46970
46970
46970
46970
46970
46970
46970
46970
46970
46970
46970.005
46970.514
46975.146
46995.603
47060.031
47214.21
47466.217
47664.167
47473.157
46964.198
46582.279
46591.309
46645.842
46438.129
46296.989
46306.217
46216.853
46121.989
46085.308
46013.413
45945.144
45898.594
45825.997
45764.583
45702.911
45637.424
45566.679
45491.544
45421.136
45347.521
45268.921
45185.99
45100.718
45012.89
44921.624
44827.292
44730.652
44632.427
44533.565
44434.366
44335.747
44238.391
44142.586
44048.973
43957.891
43869.803
43784.895
43703.458
43625.636
43551.673
43481.358
43414.91
43352.255
43293.311
43238.147
43186.487
43138.249
43093.313
43051.342
43012.339
42976.036
42942.234
42910.797
42881.537
42854.312
42829
42805.474
42783.62
42763.345
42744.555
42727.163
42711.092
42696.27
42682.636
42670.127
42658.687
42648.265
42638.816
42630.285
42622.613
42615.749
42609.644
42604.354
42599.843
42596.059
42592.889
42590.197
42587.8
42585.64
42583.735
42582.102
42580.765
42579.729
42578.97
42578.451
42578.132
42577.976
42577.948
42578.001
42578.099
42578.228
42578.381
42578.551
42578.733
42578.92
42579.109
42579.297
42579.482
42579.661
42579.834
42579.998
42580.153
42580.298
42580.432
42580.556
42580.67
42580.774
42580.868
42580.954
42581.032
42581.1
42581.157
42581.199
42581.229
42581.248
42581.261
42581.27
42581.278
46974.818
47012.671
46975.797
46972.459
46970.345
46970.034
46970.003
46970
46970
46970
46970
46970
46970
46970
46970
46970
46970
46970
46970
46970
46970
46970.004
46970.496
46975.056
46995.323
47059.356
47213.131
47465.877
47667.383
47480.061
46972.945
46587.79
46594.418
46650.227
46444.32
46302.169
46310.308
46222.707
46127.934
46090.232
46019.455
45951.31
45904.777
45832.588
45771.246
45710.173
45644.787
45574.245
45499.582
45429.637
45356.396
45278.045
45195.364
45110.208
45022.439
44931.184
44836.747
44740.09
44641.761
44542.739
44443.29
44344.372
44246.608
44150.341
44056.196
43964.505
43875.756
43790.13
43707.934
43629.381
43554.61
43483.512
43416.273
43352.832
43293.133
43237.24
43184.897
43136.034
43090.529
43048.092
43008.707
42972.127
42938.166
42906.696
42877.523
42850.517
42825.559
42802.518
42781.277
42761.744
42743.826
42727.431
42712.471
42698.872
42686.555
42675.435
42665.439
42656.501
42648.551
42641.525
42635.368
42630.028
42625.463
42621.614
42618.3
42615.545
42613.246
42611.509
42610.302
42609.5
42608.975
42608.62
42608.368
42608.192
42608.064
42607.968
42607.9
42607.856
42607.829
42607.817
42607.831
42607.873
42607.94
42608.024
42608.121
42608.225
42608.333
42608.444
42608.556
42608.667
42608.777
42608.884
42608.986
42609.084
42609.176
42609.262
42609.34
42609.411
42609.474
42609.529
42609.576
42609.616
42609.648
42609.672
42609.689
42609.701
42609.708
42609.714
42609.718
46974.863
47012.675
46975.842
46972.456
46970.345
46970.034
46970.003
46970
46970
46970
46970
46970
46970
46970
46970
46970
46970
46970
46970
46970
46970
46970.004
46970.478
46974.965
46995.037
47058.667
47212.022
47465.501
47670.614
47487.117
46981.854
46593.411
46597.568
46654.64
46450.573
46307.431
46314.44
46228.595
46133.947
46095.188
46025.549
45957.564
45911.004
45839.27
45778.019
45717.519
45652.217
45581.872
45507.719
45438.243
45365.362
45287.258
45204.829
45119.802
45032.097
44940.873
44846.353
44749.71
44651.281
44552.092
44452.411
44353.204
44255.042
44158.316
44063.636
43971.352
43881.942
43795.591
43712.636
43633.326
43557.737
43485.842
43417.8
43353.553
43293.084
43236.437
43183.388
43133.87
43087.762
43044.827
43005.022
42968.126
42933.968
42902.419
42873.293
42846.454
42821.783
42799.144
42778.41
42759.484
42742.265
42726.65
42712.541
42699.85
42688.482
42678.344
42669.347
42661.409
42654.45
42648.4
42643.177
42638.699
42634.881
42631.71
42629.121
42626.876
42624.907
42623.367
42622.114
42621.087
42620.274
42619.662
42619.201
42618.822
42618.51
42618.26
42618.062
42617.909
42617.796
42617.703
42617.632
42617.599
42617.597
42617.619
42617.66
42617.717
42617.783
42617.853
42617.926
42618
42618.074
42618.146
42618.215
42618.281
42618.344
42618.402
42618.457
42618.507
42618.554
42618.596
42618.633
42618.665
42618.69
42618.709
42618.722
42618.73
42618.734
42618.737
42618.74
46974.905
47012.69
46975.862
46972.455
46970.345
46970.033
46970.003
46970
46970
46970
46970
46970
46970
46970
46970
46970
46970
46970
46970
46970
46970
46970.003
46970.46
46974.872
46994.746
47057.962
47210.878
47465.081
47673.856
47494.335
46990.938
46599.156
46600.768
46659.09
46456.891
46312.782
46318.621
46234.528
46140.022
46100.211
46031.728
45963.899
45917.29
45846.052
45784.861
45724.914
45659.715
45589.588
45515.968
45446.942
45374.41
45296.56
45214.383
45129.494
45041.875
44950.686
44856.127
44759.493
44660.962
44561.624
44461.724
44362.239
44263.685
44166.514
44071.311
43978.431
43888.356
43801.287
43717.578
43637.476
43561.063
43488.361
43419.502
43354.431
43293.171
43235.745
43181.959
43131.756
43085.006
43041.526
43001.249
42963.979
42929.557
42897.853
42868.687
42841.919
42817.423
42795.054
42774.676
42756.177
42739.446
42724.363
42710.822
42698.721
42687.958
42678.432
42670.046
42662.709
42656.327
42650.81
42646.077
42642.025
42638.549
42635.569
42633.022
42630.873
42629.042
42627.507
42626.25
42625.186
42624.282
42623.519
42622.883
42622.365
42621.946
42621.613
42621.352
42621.148
42620.998
42620.919
42620.894
42620.883
42620.879
42620.88
42620.887
42620.912
42620.957
42621.009
42621.063
42621.119
42621.173
42621.222
42621.266
42621.307
42621.345
42621.38
42621.413
42621.443
42621.469
42621.492
42621.512
42621.529
42621.543
42621.553
42621.56
42621.564
42621.566
42621.567
42621.568
46974.946
47012.705
46975.86
46972.459
46970.345
46970.033
46970.003
46970
46970
46970
46970
46970
46970
46970
46970
46970
46970
46970
46970
46970
46970
46970.002
46970.442
46974.779
46994.449
47057.241
47209.695
47464.609
47677.099
47501.724
47000.194
46605.032
46604.025
46663.563
46463.288
46318.245
46322.867
46240.519
46146.179
46105.317
46037.982
45970.317
45923.644
45852.893
45791.749
45732.375
45667.296
45597.403
45524.306
45455.717
45383.542
45305.944
45224.025
45139.298
45051.776
44960.629
44866.068
44769.43
44670.81
44571.336
44471.233
44371.481
44272.549
44174.947
44079.229
43985.755
43895.009
43807.224
43722.757
43641.84
43564.591
43491.072
43421.386
43355.483
43293.41
43235.174
43180.614
43129.687
43082.255
43038.175
42997.367
42959.649
42924.876
42892.918
42863.596
42836.768
42812.302
42790.041
42769.838
42751.566
42735.099
42720.307
42707.068
42695.274
42684.818
42675.593
42667.491
42660.408
42654.239
42648.876
42644.214
42640.163
42636.663
42633.642
42631.035
42628.795
42626.926
42625.339
42624.015
42622.883
42621.914
42621.092
42620.397
42619.812
42619.321
42618.912
42618.572
42618.291
42618.059
42617.87
42617.715
42617.591
42617.495
42617.421
42617.365
42617.31
42617.256
42617.21
42617.173
42617.144
42617.124
42617.113
42617.11
42617.111
42617.113
42617.118
42617.126
42617.136
42617.147
42617.159
42617.17
42617.179
42617.187
42617.192
42617.196
42617.198
42617.198
42617.199
42617.199
46974.988
47012.672
46975.896
46972.46
46970.345
46970.033
46970.003
46970
46970
46970
46970
46970
46970
46970
46970
46970
46970
46970
46970
46970
46970
46970.002
46970.425
46974.683
46994.146
47056.501
47208.471
47464.083
47680.342
47509.293
47009.627
46611.058
46607.338
46668.061
46469.776
46323.822
46327.179
46246.574
46152.425
46110.479
46044.309
45976.837
45930.037
45859.78
45798.738
45739.934
45674.955
45605.284
45532.718
45464.577
45392.77
45315.43
45233.783
45149.232
45061.805
44970.7
44876.182
44779.538
44680.842
44581.24
44480.96
44380.947
44281.648
44183.623
44087.387
43993.325
43901.914
43813.408
43728.172
43646.428
43568.326
43493.98
43423.462
43356.712
43293.801
43234.726
43179.356
43127.665
43079.51
43034.771
42993.365
42955.115
42919.892
42887.564
42857.955
42830.919
42806.318
42783.985
42763.764
42745.515
42729.094
42714.36
42701.184
42689.448
42679.038
42669.834
42661.722
42654.592
42648.334
42642.848
42638.04
42633.819
42630.104
42626.829
42623.937
42621.396
42619.236
42617.352
42615.754
42614.36
42613.14
42612.078
42611.155
42610.356
42609.665
42609.069
42608.554
42608.111
42607.729
42607.401
42607.118
42606.875
42606.667
42606.49
42606.338
42606.209
42606.1
42606.008
42605.932
42605.869
42605.818
42605.777
42605.744
42605.72
42605.704
42605.692
42605.682
42605.674
42605.667
42605.661
42605.656
42605.652
42605.649
42605.647
42605.645
42605.643
42605.642
42605.641
42605.64
46975.029
47012.633
46975.955
46972.457
46970.345
46970.033
46970.003
46970
46970
46970
46970
46970
46970
46970
46970
46970
46970
46970
46970
46970
46970
46970.001
46970.407
46974.587
46993.837
47055.743
47207.204
47463.498
47683.577
47517.046
47019.234
46617.245
46610.691
46672.599
46476.363
46329.504
46331.549
46252.69
46158.742
46115.704
46050.706
45983.423
45936.472
45866.762
45805.83
45747.56
45682.683
45613.239
45541.231
45473.551
45402.106
45325.028
45243.655
45159.271
45071.954
44980.892
44886.476
44789.819
44691.061
44591.337
44490.896
44390.629
44290.981
44192.535
44095.788
44001.141
43909.07
43819.849
43733.835
43651.254
43572.286
43497.101
43425.729
43358.113
43294.338
43234.4
43178.191
43125.697
43076.774
43031.316
42989.241
42950.376
42914.598
42881.781
42851.745
42824.345
42799.436
42776.845
42756.407
42737.973
42721.388
42706.498
42693.166
42681.263
42670.664
42661.241
42652.877
42645.463
42638.893
42633.067
42627.893
42623.298
42619.228
42615.624
42612.421
42609.575
42607.159
42605.044
42603.234
42601.644
42600.24
42599.005
42597.921
42596.972
42596.142
42595.416
42594.782
42594.229
42593.745
42593.323
42592.954
42592.633
42592.352
42592.108
42591.895
42591.71
42591.55
42591.412
42591.293
42591.191
42591.103
42591.029
42590.967
42590.914
42590.871
42590.835
42590.805
42590.781
42590.762
42590.749
42590.739
42590.732
42590.726
42590.722
42590.719
42590.716
42590.714
42590.713
42590.711
46975.065
47012.62
46976.017
46972.449
46970.345
46970.033
46970.003
46970
46970
46970
46970
46970
46970
46970
46970
46970
46970
46970
46970
46970
46970
46970.001
46970.39
46974.489
46993.521
47054.966
47205.892
47462.854
47686.805
47524.989
47029.017
46623.603
46614.088
46677.184
46483.048
46335.305
46335.997
46258.872
46165.124
46121
46057.167
45990.098
45942.996
45873.846
45813.002
45755.261
45690.505
45621.296
45549.856
45482.624
45411.529
45334.713
45253.611
45169.42
45082.216
44991.207
44896.937
44800.257
44701.451
44601.612
44501.022
44400.521
44300.536
44201.68
44104.438
44009.219
43916.48
43826.54
43739.745
43656.327
43576.488
43500.445
43428.201
43359.69
43295.026
43234.2
43177.121
43123.784
43074.044
43027.81
42984.997
42945.437
42909.008
42875.582
42844.981
42817.059
42791.669
42768.635
42747.784
42728.964
42712.009
42696.759
42683.066
42670.792
42659.8
42649.961
42641.158
42633.286
42626.245
42619.948
42614.315
42609.269
42604.74
42600.668
42596.992
42593.677
42590.812
42588.283
42586.103
42584.179
42582.47
42580.955
42579.618
42578.438
42577.397
42576.479
42575.67
42574.958
42574.33
42573.777
42573.289
42572.86
42572.481
42572.148
42571.855
42571.598
42571.373
42571.175
42571.003
42570.853
42570.723
42570.61
42570.513
42570.43
42570.359
42570.299
42570.248
42570.206
42570.17
42570.141
42570.118
42570.099
42570.085
42570.075
42570.067
42570.062
42570.059
42570.057
42570.055
46975.101
47012.623
46976.066
46972.444
46970.345
46970.033
46970.003
46970
46970
46970
46970
46970
46970
46970
46970
46970
46970
46970
46970
46970
46970
46970.001
46970.372
46974.39
46993.198
47054.169
47204.535
47462.146
47690.017
47533.122
47038.965
46630.141
46617.529
46681.812
46489.831
46341.239
46340.53
46265.136
46171.587
46126.371
46063.721
45996.91
45949.587
45880.978
45820.259
45763.054
45698.407
45629.44
45558.577
45491.786
45421.042
45344.499
45263.675
45179.682
45092.606
45001.648
44907.568
44810.855
44712.018
44612.081
44511.351
44410.639
44310.334
44211.075
44113.342
44017.549
43924.149
43833.485
43745.904
43661.651
43580.943
43504.001
43430.85
43361.445
43295.875
43234.132
43176.151
43121.935
43071.336
43024.273
42980.657
42940.317
42903.138
42868.989
42837.689
42809.094
42783.057
42759.397
42737.946
42718.546
42701.028
42685.225
42670.983
42658.157
42646.604
42636.194
42626.811
42618.354
42610.728
42603.846
42597.629
42592.012
42586.946
42582.38
42578.245
42574.496
42571.231
42568.346
42565.842
42563.624
42561.642
42559.877
42558.309
42556.918
42555.684
42554.591
42553.621
42552.762
42552
42551.325
42550.727
42550.196
42549.726
42549.31
42548.942
42548.616
42548.329
42548.076
42547.854
42547.658
42547.488
42547.339
42547.21
42547.098
42547.002
42546.919
42546.849
42546.789
42546.739
42546.698
42546.664
42546.637
42546.616
42546.601
42546.59
42546.584
42546.579
42546.577
42546.575
46975.137
47012.643
46976.077
46972.446
46970.345
46970.033
46970.003
46970
46970
46970
46970
46970
46970
46970
46970
46970
46970
46970
46970
46970
46970
46970
46970.355
46974.29
46992.87
47053.353
47203.132
47461.369
47693.207
47541.454
47049.093
46636.863
46621.012
46686.503
46496.727
46347.309
46345.142
46271.489
46178.137
46131.83
46070.373
46003.823
45956.216
45888.165
45827.611
45770.922
45706.382
45637.666
45567.393
45501.044
45430.655
45354.386
45273.84
45190.056
45103.118
45012.239
44918.35
44821.632
44722.783
44622.757
44521.901
44420.991
44320.378
44220.718
44122.495
44026.133
43932.073
43840.689
43752.316
43667.222
43585.644
43507.784
43433.706
43363.391
43296.895
43234.207
43175.292
43120.159
43068.661
43020.716
42976.232
42935.036
42897.014
42862.032
42829.909
42800.503
42773.666
42749.216
42726.988
42706.826
42688.562
42672.028
42657.068
42643.533
42631.278
42620.172
42610.101
42600.966
42592.671
42585.137
42578.292
42572.067
42566.4
42561.236
42556.527
42552.243
42548.451
42545.096
42542.169
42539.576
42537.255
42535.182
42533.335
42531.69
42530.228
42528.928
42527.771
42526.742
42525.827
42525.013
42524.289
42523.645
42523.072
42522.564
42522.112
42521.711
42521.356
42521.043
42520.765
42520.521
42520.307
42520.119
42519.955
42519.812
42519.688
42519.581
42519.49
42519.412
42519.347
42519.292
42519.248
42519.212
42519.185
42519.165
42519.151
42519.142
42519.137
42519.133
42519.131
46975.172
47012.645
46976.083
46972.453
46970.344
46970.033
46970.003
46970
46970
46970
46970
46970
46970
46970
46970
46970
46970
46970
46970
46970
46970
46970
46970.338
46974.188
46992.534
47052.516
47201.681
47460.519
47696.357
47550.003
47059.4
46643.763
46624.559
46691.263
46503.738
46353.512
46349.841
46277.924
46184.755
46137.372
46077.091
46010.822
45962.91
45895.434
45835.064
45778.879
45714.46
45645.988
45576.309
45510.401
45440.361
45364.365
45284.109
45200.554
45113.771
45022.967
44929.277
44832.577
44733.729
44633.635
44532.654
44431.553
44330.649
44230.605
44131.899
44034.977
43940.259
43848.151
43758.986
43673.048
43590.584
43511.793
43436.767
43365.521
43298.079
43234.427
43174.554
43118.473
43066.033
43017.157
42971.746
42929.623
42890.677
42854.769
42821.716
42791.377
42763.604
42738.218
42715.059
42693.976
42674.803
42657.378
42641.547
42627.164
42614.084
42602.176
42591.327
42581.435
42572.406
42564.157
42556.614
42549.718
42543.417
42537.666
42532.411
42527.603
42523.312
42519.515
42516.178
42513.219
42510.565
42508.188
42506.064
42504.168
42502.477
42500.969
42499.624
42498.425
42497.355
42496.402
42495.551
42494.792
42494.116
42493.514
42492.977
42492.5
42492.077
42491.701
42491.368
42491.074
42490.815
42490.587
42490.388
42490.213
42490.062
42489.931
42489.818
42489.722
42489.641
42489.574
42489.518
42489.474
42489.439
42489.414
42489.397
42489.386
42489.38
42489.376
42489.373
46975.208
47012.605
46976.137
46972.456
46970.344
46970.033
46970.003
46970
46970
46970
46970
46970
46970
46970
46970
46970
46970
46970
46970
46970
46970
46970
46970.322
46974.085
46992.193
47051.659
47200.181
47459.596
47699.458
47558.784
47069.888
46650.861
46628.185
46696.084
46510.867
46359.847
46354.631
46284.435
46191.435
46142.983
46083.879
46017.94
45969.671
45902.775
45842.635
45786.936
45722.627
45654.404
45585.324
45519.863
45450.173
45374.462
45294.51
45211.185
45124.552
45033.84
44940.336
44843.682
44744.845
44644.701
44543.617
44442.329
44341.15
44240.738
44141.553
44044.076
43948.71
43855.874
43765.913
43679.126
43595.763
43516.024
43440.035
43367.834
43299.432
43234.802
43173.951
43116.891
43063.47
43013.616
42967.225
42924.118
42884.18
42847.268
42813.199
42781.833
42753.017
42726.577
42702.36
42680.22
42660
42641.544
42624.707
42609.35
42595.332
42582.523
42570.812
42560.093
42550.272
42541.266
42533.002
42525.415
42518.444
42512.038
42506.156
42500.765
42495.895
42491.584
42487.777
42484.402
42481.372
42478.655
42476.224
42474.05
42472.108
42470.373
42468.823
42467.439
42466.204
42465.1
42464.114
42463.233
42462.447
42461.745
42461.119
42460.562
42460.065
42459.624
42459.233
42458.886
42458.58
42458.311
42458.074
42457.867
42457.687
42457.53
42457.396
42457.281
42457.183
42457.102
42457.035
42456.981
42456.939
42456.909
42456.888
42456.875
42456.868
42456.863
42456.86
46975.238
47012.576
46976.208
46972.45
46970.344
46970.033
46970.003
46970
46970
46970
46970
46970
46970
46970
46970
46970
46970
46970
46970
46970
46970
46969.999
46970.305
46973.981
46991.845
47050.782
47198.631
47458.597
47702.509
47567.81
47080.555
46658.164
46631.888
46700.959
46518.131
46366.323
46359.509
46291.022
46198.201
46148.681
46090.76
46025.191
45976.509
45910.195
45850.335
45795.094
45730.882
45662.91
45594.455
45529.446
45460.098
45384.682
45305.02
45221.924
45135.45
45044.856
44951.531
44854.954
44756.137
44655.974
44554.805
44453.335
44351.883
44251.121
44151.465
44053.425
43957.413
43863.857
43773.097
43685.456
43601.186
43520.492
43443.509
43370.338
43300.964
43235.341
43173.488
43115.419
43060.986
43010.12
42962.709
42918.57
42877.588
42839.614
42804.464
42771.999
42742.067
42714.493
42689.128
42665.834
42644.46
42624.861
42606.904
42590.459
42575.396
42561.592
42548.935
42537.32
42526.649
42516.834
42507.799
42499.483
42491.831
42484.791
42478.311
42472.341
42466.909
42462.09
42457.81
42454.014
42450.603
42447.54
42444.794
42442.337
42440.137
42438.169
42436.41
42434.836
42433.429
42432.17
42431.045
42430.039
42429.139
42428.335
42427.617
42426.977
42426.406
42425.898
42425.446
42425.046
42424.691
42424.379
42424.104
42423.862
42423.652
42423.469
42423.312
42423.177
42423.062
42422.966
42422.887
42422.823
42422.774
42422.738
42422.714
42422.699
42422.69
42422.685
42422.682
46975.268
47012.582
46976.257
46972.442
46970.344
46970.033
46970.003
46970
46970
46970
46970
46970
46970
46970
46970
46970
46970
46970
46970
46970
46970
46969.999
46970.289
46973.876
46991.49
47049.884
47197.029
47457.519
47705.515
47577.083
47091.403
46665.68
46635.678
46705.896
46525.54
46372.936
46364.485
46297.689
46205.07
46154.493
46097.742
46032.574
45983.432
45917.675
45858.135
45803.337
45739.226
45671.52
45603.706
45539.13
45470.118
45394.993
45315.623
45232.768
45146.484
45056.023
44962.866
44866.406
44767.621
44667.46
44566.213
44464.577
44362.853
44261.735
44161.629
44063.03
43966.376
43872.098
43780.536
43692.034
43606.848
43525.195
43447.212
43373.052
43302.683
43236.051
43173.175
43114.075
43058.605
43006.696
42958.231
42913.025
42870.965
42831.893
42795.627
42762.023
42730.93
42702.175
42675.613
42651.11
42628.521
42607.707
42588.548
42570.929
42554.73
42539.837
42526.149
42513.564
42501.982
42491.314
42481.481
42472.412
42464.041
42456.31
42449.175
42442.591
42436.553
42431.178
42426.383
42422.13
42418.308
42414.871
42411.788
42409.025
42406.549
42404.333
42402.348
42400.571
42398.981
42397.557
42396.284
42395.144
42394.125
42393.213
42392.398
42391.67
42391.02
42390.441
42389.926
42389.468
42389.063
42388.705
42388.389
42388.112
42387.87
42387.659
42387.477
42387.321
42387.188
42387.077
42386.985
42386.911
42386.854
42386.812
42386.783
42386.766
42386.756
42386.75
42386.746
46975.301
47012.58
46976.294
46972.437
46970.344
46970.033
46970.003
46970
46970
46970
46970
46970
46970
46970
46970
46970
46970
46970
46970
46970
46970
46969.999
46970.273
46973.77
46991.129
47048.964
47195.373
47456.355
47708.474
47586.601
47102.429
46673.42
46639.567
46710.899
46533.09
46379.672
46369.565
46304.441
46212.043
46160.407
46104.81
46040.071
45990.408
45925.202
45866.039
45811.672
45747.663
45680.239
45613.054
45548.905
45480.237
45405.404
45326.337
45243.75
45157.656
45067.347
44974.329
44878.021
44779.293
44679.139
44577.823
44476.042
44374.054
44272.583
44172.037
44072.893
43975.6
43880.596
43788.231
43698.865
43612.756
43530.131
43451.151
43375.969
43304.589
43236.934
43173.022
43112.872
43056.341
43003.366
42953.827
42907.537
42864.38
42824.193
42786.793
42752.04
42719.778
42689.834
42662.067
42636.343
42612.521
42590.468
42570.074
42551.232
42533.834
42517.783
42502.985
42489.349
42476.782
42465.192
42454.499
42444.633
42435.528
42427.121
42419.354
42412.159
42405.515
42399.573
42394.254
42389.535
42385.292
42381.472
42378.04
42374.961
42372.199
42369.724
42367.505
42365.517
42363.736
42362.14
42360.712
42359.433
42358.287
42357.263
42356.346
42355.527
42354.795
42354.142
42353.56
42353.043
42352.584
42352.178
42351.82
42351.505
42351.23
42350.989
42350.782
42350.603
42350.451
42350.323
42350.218
42350.132
42350.066
42350.018
42349.985
42349.965
42349.954
42349.947
42349.943
46975.331
47012.537
46976.362
46972.43
46970.343
46970.033
46970.003
46970
46970
46970
46970
46970
46970
46970
46970
46970
46970
46970
46970
46970
46970
46969.999
46970.258
46973.663
46990.762
47048.023
47193.663
47455.104
47711.38
47596.369
47113.647
46681.399
46643.558
46715.966
46540.768
46386.542
46374.749
46311.271
46219.113
46166.401
46111.944
46047.672
45997.452
45932.834
45874.092
45820.127
45756.216
45689.056
45622.501
45558.796
45490.464
45415.931
45337.178
45254.859
45168.964
45078.807
44985.92
44889.77
44791.145
44691.005
44589.635
44487.73
44385.49
44283.675
44182.688
44083.006
43985.077
43889.353
43796.183
43705.947
43618.91
43535.307
43455.321
43379.099
43306.689
43237.998
43173.037
43111.82
43054.216
43000.168
42949.544
42902.159
42857.896
42816.592
42778.063
42742.169
42708.754
42677.645
42648.7
42621.786
42596.759
42573.492
42551.88
42531.822
42513.219
42495.981
42480.027
42465.282
42451.664
42439.095
42427.494
42416.782
42406.881
42397.724
42389.252
42381.408
42374.162
42367.629
42361.759
42356.546
42351.859
42347.635
42343.835
42340.422
42337.359
42334.611
42332.145
42329.933
42327.949
42326.171
42324.578
42323.151
42321.873
42320.729
42319.705
42318.79
42317.972
42317.241
42316.59
42316.01
42315.495
42315.039
42314.635
42314.281
42313.97
42313.699
42313.463
42313.261
42313.088
42312.943
42312.823
42312.726
42312.651
42312.595
42312.558
42312.535
42312.522
42312.515
42312.51
46975.361
47012.514
46976.438
46972.423
46970.343
46970.033
46970.003
46970
46970
46970
46970
46970
46970
46970
46970
46970
46970
46970
46970
46970
46970
46969.999
46970.243
46973.555
46990.388
47047.061
47191.897
47453.761
47714.22
47606.388
47125.053
46689.616
46647.651
46721.093
46548.584
46393.547
46380.044
46318.177
46226.288
46172.495
46119.159
46055.407
46004.613
45940.582
45882.272
45828.68
45764.854
45697.963
45632.071
45568.816
45500.815
45426.588
45348.147
45266.097
45180.4
45090.419
44997.649
44901.674
44803.181
44703.071
44601.675
44499.65
44397.164
44295.011
44193.585
44093.376
43994.808
43898.359
43804.39
43713.282
43625.314
43540.732
43459.731
43382.462
43308.993
43239.247
43173.226
43110.936
43052.252
42997.122
42945.41
42896.929
42851.566
42809.157
42769.521
42732.519
42697.989
42665.759
42635.687
42607.638
42581.468
42557.054
42534.293
42513.085
42493.333
42474.951
42457.864
42442.004
42427.3
42413.685
42401.095
42389.471
42378.744
42368.836
42359.676
42351.183
42343.316
42336.18
42329.75
42324.028
42318.884
42314.242
42310.062
42306.304
42302.926
42299.892
42297.168
42294.723
42292.528
42290.56
42288.795
42287.212
42285.794
42284.524
42283.386
42282.369
42281.459
42280.647
42279.923
42279.278
42278.704
42278.195
42277.745
42277.348
42277
42276.696
42276.432
42276.204
42276.01
42275.846
42275.71
42275.601
42275.515
42275.452
42275.41
42275.384
42275.369
42275.361
42275.356
46975.388
47012.491
46976.503
46972.413
46970.343
46970.034
46970.003
46970
46970
46970
46970
46970
46970
46970
46970
46970
46970
46970
46970
46970
46970
46969.998
46970.228
46973.447
46990.009
47046.076
47190.073
47452.323
47716.981
47616.659
47136.655
46698.09
46651.861
46726.289
46556.533
46400.676
46385.463
46325.181
46233.579
46178.726
46126.49
46063.279
46011.878
45948.412
45890.552
45837.328
45773.581
45706.989
45641.776
45578.955
45511.288
45437.368
45359.227
45277.455
45191.973
45102.176
45009.55
44913.733
44815.391
44715.349
44613.932
44511.795
44409.071
44306.59
44204.726
44104
44004.799
43907.624
43812.859
43720.873
43631.968
43546.405
43464.381
43386.056
43311.503
43240.694
43173.61
43110.244
43050.473