/*--------------------------------*- C++ -*----------------------------------*\
| =========                 |                                                 |
| \\      /  F ield         | OpenFOAM: The Open Source CFD Toolbox           |
|  \\    /   O peration     | Version:  2506                                  |
|   \\  /    A nd           | Website:  www.openfoam.com                      |
|    \\/     M anipulation  |                                                 |
\*---------------------------------------------------------------------------*/
FoamFile
{
    version     2.0;
    format      ascii;
    arch        "LSB;label=32;scalar=64";
    class       surfaceScalarField;
    location    "0.00043";
    object      phi;
}
// * * * * * * * * * * * * * * * * * * * * * * * * * * * * * * * * * * * * * //

dimensions      [1 0 -1 0 0 0 0];

oriented        oriented;

internalField   nonuniform List<scalar> 
6785
(
-0.31973482
-0.00086495426
-0.31779663
-0.0009410666
-0.31531944
-0.0010241403
-0.31298992
-0.0011146484
-0.0012114739
-0.32028904
-0.00079614536
-0.31843932
-0.00086589632
-0.31635735
-0.00094190994
-0.31415026
-0.0010247985
-0.31223719
-0.0011152238
-0.31117455
-0.0012122017
-0.0013167801
-0.32069939
-0.00073304116
-0.31932436
-0.00079655243
-0.3176661
-0.00086620634
-0.31562978
-0.00094243081
-0.31330262
-0.0010257991
-0.31118886
-0.0011168432
-0.30992806
-0.0012141871
-0.30966418
-0.0013187428
-0.0014320048
-0.32765909
-0.002691525
-0.33131452
-0.0029113564
-0.3341524
-0.0031644801
-0.33056831
-0.0034609457
-0.0037839879
-0.3206212
-0.00067583877
-0.31930945
-0.00073369773
-0.31835785
-0.00079704624
-0.31724827
-0.00086654359
-0.3153958
-0.00094315149
-0.31265226
-0.0010274221
-0.30981024
-0.0011193635
-0.30813237
-0.0012169251
-0.30768783
-0.0013214146
-0.30831277
-0.0014343579
-0.0015539265
-0.32261374
-0.0024945175
-0.32683485
-0.0026946063
-0.3306261
-0.0029137834
-0.33349947
-0.0031674079
-0.32945635
-0.0034662616
-0.32268396
-0.0037900513
-0.0041162426
-0.32034355
-0.00062333394
-0.31886758
-0.00067657189
-0.31789152
-0.00073441073
-0.31727235
-0.00079778217
-0.31664923
-0.00086731913
-0.31501947
-0.00094422841
-0.31187593
-0.0010290772
-0.30854908
-0.0011212449
-0.3067155
-0.0012187541
-0.30620112
-0.001323212
-0.30708333
-0.0014360283
-0.30914636
-0.0015553566
-0.3111294
-0.0016873774
-0.31231619
-0.0018288782
-0.31383443
-0.0019811924
-0.31563509
-0.0021409576
-0.31824797
-0.0023144594
-0.32143886
-0.0024978413
-0.32573729
-0.0026977581
-0.32972625
-0.0029169628
-0.33275675
-0.0031711183
-0.32860759
-0.0034707766
-0.32157638
-0.0037956177
-0.31907491
-0.0041216499
-0.31881392
-0.0044746561
-0.0048496149
-0.32129524
-0.00057533321
-0.31948855
-0.00062430822
-0.31800287
-0.00067766845
-0.31685574
-0.0007355986
-0.31607786
-0.00079894916
-0.31521048
-0.00086850508
-0.3134351
-0.00094537807
-0.31047144
-0.0010301391
-0.30742468
-0.001122433
-0.30575013
-0.0012200879
-0.30532899
-0.0013245502
-0.30629769
-0.0014374358
-0.30840613
-0.0015569366
-0.31041097
-0.0016890507
-0.31169376
-0.0018307989
-0.31307015
-0.0019835417
-0.31461399
-0.0021438503
-0.31704214
-0.002317591
-0.32011755
-0.0025008333
-0.32449248
-0.0027010797
-0.32857233
-0.0029210631
-0.3317233
-0.0031758348
-0.32762917
-0.0034762041
-0.32050089
-0.0038007528
-0.31801169
-0.0041258021
-0.31774164
-0.004479195
-0.0048552234
-0.32159075
-0.00053144371
-0.31950508
-0.0005763746
-0.31763949
-0.00062548078
-0.31614575
-0.00067889729
-0.31515959
-0.00073680261
-0.31476943
-0.00079994255
-0.31436924
-0.00086946294
-0.31281163
-0.00094652736
-0.30976091
-0.0010316298
-0.30654939
-0.0011241604
-0.304798
-0.0012218706
-0.30446944
-0.0013261587
-0.30552219
-0.0014387521
-0.30777436
-0.0015581311
-0.30982913
-0.0016903848
-0.31100045
-0.0018326761
-0.31229059
-0.0019857172
-0.31377334
-0.0021466503
-0.31605561
-0.0023210547
-0.31896223
-0.0025052999
-0.32317074
-0.0027059901
-0.32715609
-0.0029262954
-0.33024955
-0.0031810829
-0.32651762
-0.0034797852
-0.31959787
-0.0038048477
-0.3171997
-0.0041294588
-0.31688201
-0.0044827961
-0.0048588447
-0.32266429
-0.00049061149
-0.3201191
-0.00053220684
-0.31825412
-0.00057715686
-0.31620778
-0.00062645791
-0.31460455
-0.00067996845
-0.31370657
-0.00073802839
-0.31355301
-0.00080124489
-0.31356289
-0.00087104529
-0.31213714
-0.00094843873
-0.30914262
-0.0010337831
-0.30578564
-0.0011263634
-0.30382293
-0.0012239964
-0.30353517
-0.001328186
-0.30473744
-0.0014406206
-0.3071345
-0.0015603641
-0.3092567
-0.0016927051
-0.31042089
-0.0018352973
-0.31150117
-0.0019886475
-0.31275206
-0.002150361
-0.31481628
-0.0023252677
-0.31760538
-0.002509951
-0.32179285
-0.002710778
-0.32572956
-0.0029312868
-0.32880016
-0.0031858041
-0.32542342
-0.0034826298
-0.31868392
-0.0038087589
-0.31636524
-0.0041340726
-0.31601202
-0.0044878063
-0.0048630979
-0.32453894
-0.00045353249
-0.32222366
-0.00049160051
-0.31999732
-0.00053316316
-0.31797216
-0.00057825377
-0.31597385
-0.00062754358
-0.31421811
-0.00068122223
-0.31301039
-0.00073962237
-0.3124866
-0.00080323935
-0.3121118
-0.00087335565
-0.31033375
-0.00095079825
-0.30736842
-0.0010357196
-0.30436368
-0.0011279752
-0.30260598
-0.0012258222
-0.30249567
-0.0013303255
-0.3035096
-0.0014438978
-0.30555377
-0.0015644381
-0.30762783
-0.0016968469
-0.30904876
-0.0018391081
-0.31026378
-0.0019928276
-0.31159875
-0.0021546253
-0.3137958
-0.0023294354
-0.31669229
-0.0025135725
-0.32087441
-0.0027148648
-0.32477229
-0.0029354324
-0.32782864
-0.003190175
-0.3244166
-0.0034876219
-0.31755588
-0.0038150684
-0.31517147
-0.0041406124
-0.31484833
-0.0044944513
-0.00486964
-0.32582417
-0.00041990312
-0.32374379
-0.000454383
-0.32147462
-0.00049249242
-0.31912386
-0.00053420619
-0.31716667
-0.00057933225
-0.31533514
-0.00062881484
-0.31364643
-0.00068267669
-0.31231164
-0.00074125899
-0.31151151
-0.00080518837
-0.31073413
-0.00087550707
-0.30880918
-0.00095290995
-0.30614525
-0.001037557
-0.30349349
-0.0011299353
-0.30183951
-0.0012282085
-0.30166049
-0.0013331571
-0.30242689
-0.0014475163
-0.304058
-0.0015686076
-0.30598953
-0.0017011227
-0.30747993
-0.001843068
-0.30885074
-0.0019969037
-0.31038849
-0.0021585929
-0.31276029
-0.0023338143
-0.31574346
-0.0025182279
-0.31990947
-0.0027201506
-0.32379399
-0.0029405811
-0.32682619
-0.0031957016
-0.32342167
-0.0034931911
-0.31648175
-0.0038216226
-0.31405703
-0.0041480291
-0.31363387
-0.0045029836
-0.0048785687
-0.3265002
-0.00038812339
-0.32470064
-0.00042062274
-0.32283661
-0.00045526041
-0.32081908
-0.00049359869
-0.31844153
-0.00053540181
-0.3167898
-0.00058061494
-0.31463487
-0.00063036443
-0.31265925
-0.00068420496
-0.31134777
-0.00074278489
-0.3104688
-0.00080683619
-0.30963629
-0.00087726069
-0.30767949
-0.00095481719
-0.30490701
-0.0010397594
-0.3022115
-0.00113234
-0.30052922
-0.0012308111
-0.30035003
-0.001336026
-0.30108133
-0.0014506789
-0.30267178
-0.0015720861
-0.3046363
-0.0017048067
-0.30618755
-0.0018470682
-0.30758725
-0.0020012904
-0.30912944
-0.0021631521
-0.31154795
-0.0023384365
-0.31460543
-0.0025226984
-0.31886102
-0.0027249927
-0.32279316
-0.002946087
-0.32585838
-0.003201938
-0.32237942
-0.0035004713
-0.31530309
-0.0038296139
-0.31282324
-0.0041563845
-0.31241955
-0.0045119002
-0.0048884479
-0.32595548
-0.00035791753
-0.32491405
-0.00038819048
-0.32318708
-0.0004207496
-0.32130191
-0.00045564613
-0.3192783
-0.00049424453
-0.31740586
-0.00053629717
-0.31525803
-0.00058188919
-0.31334718
-0.00063147925
-0.31174823
-0.00068549587
-0.31047936
-0.00074427683
-0.30965893
-0.00080849104
-0.30879131
-0.00087911988
-0.30684475
-0.00095684364
-0.30388374
-0.0010419427
-0.30104488
-0.0011344929
-0.29942777
-0.0012330261
-0.2992111
-0.0013386162
-0.29991652
-0.0014534914
-0.30151404
-0.0015752457
-0.30346273
-0.0017081897
-0.30486287
-0.001850895
-0.30631913
-0.0020048806
-0.30800635
-0.0021669249
-0.31050235
-0.0023422211
-0.31358361
-0.0025274542
-0.31781777
-0.0027297688
-0.32169964
-0.0029517687
-0.32471158
-0.0032083522
-0.32128067
-0.0035072179
-0.31423581
-0.0038369568
-0.3117475
-0.0041645144
-0.31125698
-0.0045209213
-0.0048988057
-0.3250021
-0.00032974238
-0.32416428
-0.00035804976
-0.32297518
-0.00038821189
-0.32166823
-0.00042070063
-0.32026221
-0.00045593698
-0.31861076
-0.0004947635
-0.31638991
-0.00053702853
-0.31478996
-0.00058251072
-0.31293039
-0.0006323532
-0.31114949
-0.00068659899
-0.30971358
-0.00074556373
-0.30869383
-0.0008100945
-0.30746273
-0.00088098708
-0.30545961
-0.0009586507
-0.30279029
-0.0010435427
-0.30017727
-0.0011360533
-0.29857472
-0.0012347359
-0.29826553
-0.0013407173
-0.2987847
-0.0014559461
-0.30020127
-0.001578342
-0.30215539
-0.0017111065
-0.30374126
-0.0018539902
-0.30522621
-0.002007879
-0.3069804
-0.0021707187
-0.30948419
-0.0023458955
-0.31255019
-0.0025316256
-0.31687209
-0.0027339233
-0.32068162
-0.0029570819
-0.32369107
-0.003214309
-0.32027371
-0.0035139308
-0.31318275
-0.003844494
-0.31067535
-0.004172572
-0.31017011
-0.0045296075
-0.31263155
-0.0049090771
-0.0053005347
-0.32339479
-0.00030395505
-0.32272467
-0.00033000625
-0.32223239
-0.00035783388
-0.32126825
-0.00038818626
-0.32019415
-0.00042081793
-0.31908544
-0.00045618544
-0.31783373
-0.00049513694
-0.31568503
-0.00053758879
-0.31408572
-0.0005831278
-0.31244676
-0.00063300655
-0.31064678
-0.00068742789
-0.30897719
-0.00074661372
-0.30763797
-0.00081140789
-0.30602882
-0.00088250833
-0.3039173
-0.00096010945
-0.30138913
-0.0010447962
-0.29909994
-0.0011370653
-0.29779573
-0.001235832
-0.29757279
-0.0013421251
-0.29798502
-0.0014576387
-0.29919106
-0.0015805562
-0.30099888
-0.0017133042
-0.30266389
-0.0018561529
-0.30413583
-0.0020101619
-0.30583827
-0.0021738298
-0.3083173
-0.0023492408
-0.31139524
-0.0025353079
-0.31581051
-0.0027379653
-0.3195932
-0.002962021
-0.32261249
-0.0032197557
-0.31926738
-0.0035196563
-0.31216479
-0.0038504305
-0.30966666
-0.0041788609
-0.30913264
-0.00453683
-0.31162274
-0.0049181543
-0.31511736
-0.0053100209
-0.0057477885
-0.32208974
-0.00028026155
-0.32176585
-0.00030414553
-0.32139079
-0.00033017052
-0.32084994
-0.00035835531
-0.31989891
-0.00038874048
-0.31888946
-0.0004214328
-0.3178386
-0.00045673254
-0.3166843
-0.00049564306
-0.3146234
-0.00053803176
-0.31309191
-0.00058354948
-0.31146647
-0.00063349868
-0.3096501
-0.00068787689
-0.30794487
-0.0007470269
-0.30646862
-0.00081173751
-0.30473397
-0.00088282489
-0.30259649
-0.00096047548
-0.30017515
-0.001045345
-0.29805776
-0.0011378352
-0.29680051
-0.0012368176
-0.29656505
-0.0013431798
-0.29699261
-0.0014588317
-0.2982199
-0.0015816969
-0.30001995
-0.0017145882
-0.30170893
-0.0018574661
-0.30312832
-0.0020120119
-0.30471964
-0.0021760566
-0.30713496
-0.0023522541
-0.31018629
-0.0025385296
-0.31458392
-0.0027416988
-0.31837926
-0.0029652844
-0.32141519
-0.0032232395
-0.31815605
-0.0035238343
-0.3111043
-0.0038552592
-0.30864644
-0.0041843998
-0.30809745
-0.0045432591
-0.31055124
-0.0049247231
-0.3139675
-0.0053174987
-0.31588114
-0.0057566528
-0.0062474873
-0.32010845
-0.0002568185
-0.32153876
-0.00028053954
-0.32155524
-0.00030460721
-0.32180927
-0.00033092565
-0.32116205
-0.00035940227
-0.32027061
-0.00038998957
-0.31895078
-0.00042266345
-0.31750511
-0.00045779246
-0.31565843
-0.00049658975
-0.31339039
-0.00053876134
-0.31180948
-0.00058419713
-0.30979859
-0.00063422335
-0.30787595
-0.00068843118
-0.3063001
-0.00074743828
-0.30505631
-0.00081196789
-0.30358922
-0.00088297438
-0.30137259
-0.00096075214
-0.29868731
-0.0010459204
-0.29629852
-0.0011388146
-0.29490796
-0.0012380728
-0.29481382
-0.0013443341
-0.29551614
-0.0014601464
-0.29705969
-0.0015829917
-0.29909365
-0.001716183
-0.30084188
-0.0018594099
-0.30218635
-0.0020146794
-0.30352703
-0.0021786641
-0.30582977
-0.0023550775
-0.308882
-0.0025410104
-0.31326778
-0.0027443122
-0.31729153
-0.0029682111
-0.32048154
-0.0032269961
-0.31698914
-0.003530282
-0.30976786
-0.0038617172
-0.30727662
-0.0041903463
-0.30695359
-0.0045486052
-0.30950491
-0.0049313757
-0.31282168
-0.0053252503
-0.31466352
-0.0057653302
-0.31466624
-0.0062570395
-0.0068134861
-0.20272646
-0.00012134205
-0.301972
-0.00022051292
-0.31866604
-0.0002573119
-0.32025401
-0.00028109785
-0.32036142
-0.00030551139
-0.32072851
-0.00033202254
-0.32035041
-0.00036061503
-0.31929122
-0.0003914754
-0.31770988
-0.0004241292
-0.31605474
-0.00045908177
-0.31409696
-0.0004977328
-0.31184773
-0.00053980726
-0.31039111
-0.00058527656
-0.30824283
-0.00063535844
-0.30629967
-0.00068959392
-0.30491208
-0.0007486416
-0.30385772
-0.00081322956
-0.30271785
-0.00088428114
-0.30068591
-0.00096222374
-0.29800354
-0.0010475155
-0.29543147
-0.0011405257
-0.2938169
-0.0012397719
-0.29362731
-0.0013460607
-0.29433151
-0.0014619604
-0.29593287
-0.0015851659
-0.29797728
-0.0017186497
-0.29961607
-0.0018627663
-0.300938
-0.0020179268
-0.30233934
-0.0021823131
-0.30465374
-0.0023584045
-0.30765316
-0.0025455
-0.31192968
-0.0027491876
-0.31586349
-0.0029742662
-0.31897299
-0.0032333376
-0.31569484
-0.0035362867
-0.30861246
-0.0038681654
-0.30616357
-0.0041969452
-0.30578689
-0.0045558274
-0.30824695
-0.0049400483
-0.31152648
-0.0053343527
-0.31337844
-0.0057750377
-0.31339533
-0.0062671284
-0.31095163
-0.0068238108
-0.31060291
-0.0074064509
-0.0080531105
-0.20167753
-0.00012174523
-0.30032318
-0.00022118089
-0.31672039
-0.00025799908
-0.31805573
-0.00028170928
-0.31820708
-0.00030579211
-0.31798953
-0.00033223838
-0.31791825
-0.00036059264
-0.31692891
-0.00039163539
-0.31567712
-0.00042426175
-0.31437702
-0.00045956907
-0.31299028
-0.00049855211
-0.31080574
-0.00054105693
-0.3092108
-0.00058671833
-0.30750686
-0.00063685466
-0.30568964
-0.00069141765
-0.30411219
-0.00075069994
-0.30302272
-0.00081544216
-0.30175597
-0.00088667544
-0.29968155
-0.0009647059
-0.29712101
-0.0010499006
-0.2947903
-0.0011428095
-0.29343094
-0.0012420575
-0.29330819
-0.0013486172
-0.29370404
-0.0014647937
-0.29480752
-0.0015885566
-0.29657778
-0.0017218161
-0.29818002
-0.0018658148
-0.29958764
-0.0020208607
-0.3012618
-0.0021859669
-0.30363554
-0.0023629958
-0.30660194
-0.0025514303
-0.31084781
-0.0027559139
-0.31443963
-0.0029819497
-0.31728502
-0.0032406208
-0.31430088
-0.0035409027
-0.30760061
-0.0038730096
-0.30524484
-0.0042044864
-0.30465188
-0.0045647542
-0.30690915
-0.0049486369
-0.31020847
-0.0053438257
-0.31211062
-0.0057854182
-0.31222186
-0.0062781937
-0.3097677
-0.0068349795
-0.30939101
-0.0074189281
-0.31022927
-0.008065408
-0.31160105
-0.0087735662
-0.31423106
-0.0095141446
-0.31699382
-0.010260571
-0.011095599
-0.20128748
-0.00012209932
-0.29965117
-0.00022174763
-0.31592326
-0.00025857282
-0.31720447
-0.00028229629
-0.31702116
-0.00030633044
-0.31718925
-0.00033270956
-0.31659796
-0.00036134451
-0.31550999
-0.00039199202
-0.31426085
-0.00042477077
-0.31297592
-0.00046026017
-0.3113394
-0.0004994437
-0.3092332
-0.00054198998
-0.30779814
-0.00058789122
-0.30597193
-0.00063819841
-0.30422782
-0.000692841
-0.30285986
-0.00075221412
-0.301884
-0.0008172007
-0.30065523
-0.00088854356
-0.29867501
-0.00096679866
-0.29610966
-0.0010523671
-0.29365028
-0.0011457752
-0.29218764
-0.0012454127
-0.29196407
-0.0013522494
-0.29240738
-0.001468295
-0.29363951
-0.0015916699
-0.29545382
-0.0017254292
-0.29696905
-0.0018698466
-0.29835241
-0.0020256289
-0.30000001
-0.0021905962
-0.30238376
-0.002368178
-0.30537059
-0.0025563757
-0.30957819
-0.0027616069
-0.31321771
-0.0029875953
-0.31606941
-0.0032468335
-0.31304113
-0.0035478827
-0.30632942
-0.0038805935
-0.30397822
-0.0042129708
-0.30338518
-0.0045740103
-0.30568813
-0.0049577512
-0.30900334
-0.005352902
-0.31094343
-0.0057945693
-0.31097484
-0.006288371
-0.30851465
-0.0068449709
-0.30816244
-0.0074317835
-0.30898521
-0.0080801091
-0.31032495
-0.0087850785
-0.31297265
-0.0095300768
-0.31572073
-0.010279771
-0.32206408
-0.011116543
-0.33042611
-0.011973006
-0.012909481
-0.20153263
-0.000122399
-0.29981718
-0.00022223773
-0.31588963
-0.00025910537
-0.31698223
-0.00028285509
-0.31697979
-0.00030707167
-0.31635235
-0.00033358127
-0.31580567
-0.00036202053
-0.31447386
-0.00039275902
-0.31310798
-0.00042545781
-0.31162976
-0.00046112675
-0.31003512
-0.00050040915
-0.30773355
-0.00054316957
-0.30606367
-0.00058912885
-0.30443873
-0.00063937464
-0.30288321
-0.0006941737
-0.30160392
-0.0007536804
-0.30078298
-0.00081880108
-0.29985372
-0.00089026633
-0.29804367
-0.00096888783
-0.29533188
-0.0010549407
-0.29248863
-0.0011488016
-0.29070353
-0.0012487073
-0.29016816
-0.0013558166
-0.29070183
-0.0014715518
-0.29221744
-0.0015946526
-0.29409122
-0.0017290446
-0.29542708
-0.0018740203
-0.29685573
-0.0020300505
-0.29864896
-0.0021946927
-0.30120697
-0.002372238
-0.30432321
-0.0025609974
-0.3084832
-0.0027664224
-0.31216216
-0.002992477
-0.31500043
-0.0032522948
-0.31183306
-0.0035544719
-0.30504587
-0.0038879536
-0.30265247
-0.0042209411
-0.30200816
-0.0045828484
-0.30436196
-0.0049662206
-0.30779159
-0.0053618885
-0.30976728
-0.0058040546
-0.30983107
-0.0062986529
-0.30726038
-0.0068555769
-0.30690056
-0.0074420218
-0.30773462
-0.0080922999
-0.30906512
-0.0088013637
-0.3117434
-0.0095468805
-0.31450374
-0.010298705
-0.32080976
-0.011136842
-0.32911282
-0.011996257
-0.33616967
-0.012933462
-0.014065034
-0.20079373
-0.00012254001
-0.29874123
-0.00022256081
-0.3147605
-0.00025953085
-0.31584243
-0.00028332862
-0.31585649
-0.00030771618
-0.31517899
-0.00033425117
-0.3146604
-0.00036246559
-0.31341289
-0.0003932575
-0.31213741
-0.00042613007
-0.31074789
-0.00046193251
-0.30916602
-0.00050131185
-0.3068934
-0.00054414198
-0.305252
-0.00059018881
-0.30359295
-0.0006406033
-0.30197251
-0.00069555115
-0.30061524
-0.00075525499
-0.29966946
-0.00082058747
-0.29857594
-0.00089234598
-0.29668498
-0.00097111245
-0.29398769
-0.0010572769
-0.29119998
-0.0011511076
-0.28945118
-0.0012510275
-0.28892086
-0.0013582994
-0.28940155
-0.0014745068
-0.2908671
-0.0015981199
-0.29275671
-0.0017325047
-0.29418566
-0.001877498
-0.29564196
-0.0020335101
-0.29746237
-0.0021987613
-0.30004677
-0.0023763804
-0.30318287
-0.0025654698
-0.30739162
-0.0027706292
-0.31104447
-0.0029970192
-0.31386667
-0.0032574258
-0.31057559
-0.003560813
-0.30376103
-0.0038950982
-0.30134207
-0.0042284222
-0.30081851
-0.004590479
-0.30321453
-0.004973913
-0.30662182
-0.0053709454
-0.30855898
-0.0058139265
-0.30860099
-0.0063091952
-0.30603402
-0.0068677026
-0.30567676
-0.0074550926
-0.30649123
-0.0081075493
-0.30777999
-0.0088169862
-0.31049152
-0.0095634955
-0.31326557
-0.010316931
-0.31952099
-0.011156049
-0.32777988
-0.012017996
-0.33483801
-0.012957231
-0.34110913
-0.01409125
-0.3482234
-0.015410077
-0.34679977
-0.017083267
-0.019327398
-0.19949289
-0.0001225927
-0.29699908
-0.00022277033
-0.31310273
-0.00025986788
-0.31430604
-0.00028373353
-0.31436492
-0.00030798241
-0.31399696
-0.00033452257
-0.3137017
-0.00036304517
-0.31264853
-0.00039403353
-0.31143767
-0.00042693821
-0.31018381
-0.0004627358
-0.30866765
-0.00050215753
-0.3065207
-0.00054505568
-0.30493392
-0.00059118003
-0.30311976
-0.00064176571
-0.30126426
-0.00069684451
-0.2996738
-0.00075676313
-0.29847846
-0.00082228489
-0.29702624
-0.0008943312
-0.29486364
-0.00097315309
-0.29218623
-0.0010591953
-0.28969563
-0.0011528814
-0.28822568
-0.0012529058
-0.28795201
-0.0013603774
-0.28835849
-0.0014773134
-0.2896026
-0.0016017276
-0.29146269
-0.0017359983
-0.29312118
-0.0018808114
-0.29457646
-0.0020369235
-0.29628401
-0.0022028686
-0.29878934
-0.0023806839
-0.30191613
-0.0025693341
-0.30627965
-0.0027744698
-0.30997461
-0.0030015148
-0.3128545
-0.0032625727
-0.30940214
-0.0035674735
-0.30245586
-0.0039023814
-0.30000265
-0.0042356438
-0.29958657
-0.0045979391
-0.30207341
-0.0049823153
-0.30545056
-0.0053803353
-0.30735272
-0.0058246445
-0.30741696
-0.0063211626
-0.30488954
-0.0068813426
-0.30451144
-0.0074692493
-0.30530568
-0.0081223178
-0.30652585
-0.0088343773
-0.30924235
-0.0095810368
-0.3120637
-0.010334407
-0.3182954
-0.011175281
-0.32648534
-0.012040188
-0.33351091
-0.012980953
-0.33974629
-0.014117724
-0.346798
-0.015438979
-0.34531166
-0.017113926
-0.31955436
-0.01935701
-0.29942066
-0.020644057
-0.02144724
-0.19846113
-0.00012278676
-0.29561059
-0.00022315232
-0.31176708
-0.00026031251
-0.31307492
-0.00028421782
-0.31297666
-0.00030868441
-0.31309676
-0.00033530521
-0.31278505
-0.00036404904
-0.31169834
-0.00039506721
-0.31051896
-0.00042795057
-0.30927069
-0.00046369693
-0.30786818
-0.00050306068
-0.30568549
-0.00054599351
-0.30401055
-0.00059210395
-0.30224112
-0.00064260939
-0.30031882
-0.00069781883
-0.29856288
-0.00075796766
-0.2972208
-0.00082365487
-0.29558941
-0.00089589538
-0.29327874
-0.00097471508
-0.29061807
-0.0010605568
-0.28828702
-0.0011540201
-0.28691572
-0.001254154
-0.28671091
-0.0013618801
-0.28714487
-0.0014790767
-0.28835792
-0.0016040349
-0.29020886
-0.0017385622
-0.29196348
-0.00188353
-0.29344034
-0.0020397417
-0.29508193
-0.0022063308
-0.29754783
-0.0023843142
-0.30067512
-0.0025732325
-0.30504324
-0.0027786122
-0.30874474
-0.0030064195
-0.3116136
-0.0032680827
-0.30807484
-0.0035744104
-0.30112669
-0.0039091954
-0.29866935
-0.0042420055
-0.29835256
-0.0046043316
-0.30087147
-0.0049900557
-0.30421146
-0.0053892946
-0.30607728
-0.0058348033
-0.30614593
-0.0063323232
-0.303686
-0.0068951254
-0.30329161
-0.0074837472
-0.30406061
-0.0081368282
-0.30521709
-0.0088513372
-0.30793219
-0.0096003408
-0.31081145
-0.010355145
-0.31699113
-0.011194337
-0.32514012
-0.012062833
-0.33213996
-0.0130049
-0.33833513
-0.014144517
-0.34533991
-0.01546809
-0.34383161
-0.017144205
-0.31819453
-0.019383964
-0.29819168
-0.02067927
-0.021485404
-0.19736719
-0.00012301137
-0.29391548
-0.00022356356
-0.30982515
-0.00026076109
-0.31094698
-0.00028465737
-0.31110366
-0.00030897601
-0.31047392
-0.00033558182
-0.31017291
-0.00036390608
-0.30924181
-0.00039486609
-0.30837618
-0.00042793471
-0.30727906
-0.00046391189
-0.30621001
-0.00050337773
-0.30423437
-0.00054649958
-0.30262784
-0.00059272421
-0.30132798
-0.00064324684
-0.2996642
-0.00069866585
-0.29764931
-0.00075905288
-0.29602676
-0.00082487964
-0.29409753
-0.00089718877
-0.29179148
-0.00097594602
-0.28944063
-0.0010616396
-0.28750662
-0.0011549921
-0.28636848
-0.0012551454
-0.28614601
-0.0013630192
-0.28646459
-0.0014802942
-0.28748595
-0.0016055493
-0.28913182
-0.00174015
-0.29086649
-0.0018851849
-0.29233018
-0.0020414727
-0.29393592
-0.002208847
-0.29633538
-0.0023873272
-0.29938196
-0.0025771775
-0.30364424
-0.0027832446
-0.30717526
-0.0030118309
-0.30990451
-0.0032734937
-0.30661406
-0.0035783564
-0.29995726
-0.0039131485
-0.29759606
-0.0042472924
-0.29719503
-0.004610544
-0.29959076
-0.0049972735
-0.30286257
-0.0053972548
-0.30471802
-0.0058439155
-0.30482439
-0.0063423265
-0.30244605
-0.0069060068
-0.30204938
-0.0074965095
-0.3027977
-0.0081507856
-0.30387197
-0.008865711
-0.30654887
-0.0096149465
-0.3094924
-0.010373924
-0.31564208
-0.011214084
-0.32374215
-0.012084564
-0.33072834
-0.013028045
-0.33688693
-0.014169468
-0.34385926
-0.015494727
-0.34237117
-0.01717132
-0.31685405
-0.01941304
-0.29700889
-0.020715107
-0.27534728
-0.02152237
-0.27327109
-0.02350589
-0.27820896
-0.026675815
-0.029202316
-0.19632203
-0.00012319217
-0.29246437
-0.00022391435
-0.30835742
-0.00026119013
-0.30950173
-0.00028511371
-0.30965732
-0.00030936856
-0.30915533
-0.00033601079
-0.30896317
-0.00036457522
-0.30798827
-0.00039569092
-0.30707232
-0.00042866821
-0.30597224
-0.00046465828
-0.30487957
-0.00050421986
-0.30285949
-0.00054740093
-0.30120796
-0.00059370767
-0.29981802
-0.00064427496
-0.29811888
-0.00069970755
-0.29623451
-0.00076001709
-0.29481096
-0.00082584995
-0.29311336
-0.00089814918
-0.29085773
-0.00097707305
-0.28839066
-0.0010630123
-0.28632005
-0.0011566532
-0.2851573
-0.0012569297
-0.28497716
-0.0013648589
-0.28530246
-0.0014821646
-0.28630345
-0.0016073862
-0.28794057
-0.0017422144
-0.28962145
-0.0018876046
-0.29108515
-0.0020443055
-0.29272631
-0.0022117129
-0.29511069
-0.0023906255
-0.29812316
-0.0025809235
-0.30231595
-0.0027877646
-0.30579237
-0.0030168522
-0.30845065
-0.0032788614
-0.30519197
-0.0035840974
-0.29865354
-0.0039189017
-0.29632233
-0.0042537951
-0.29593711
-0.0046173864
-0.29828615
-0.0050046569
-0.30152481
-0.00540571
-0.30338004
-0.0058531883
-0.30349482
-0.0063523593
-0.30114144
-0.0069163414
-0.30074756
-0.0075084589
-0.30149557
-0.0081641028
-0.30251683
-0.0088785717
-0.30515371
-0.0096290839
-0.30812067
-0.010389828
-0.31426055
-0.011233387
-0.32231771
-0.012104942
-0.32927579
-0.013051362
-0.33541401
-0.014192753
-0.34236182
-0.015519484
-0.34091051
-0.017197896
-0.31550291
-0.019442953
-0.29583222
-0.020749943
-0.2742054
-0.021556878
-0.27208453
-0.023538611
-0.27692555
-0.026708748
-0.029241759
-0.19593345
-0.00012349218
-0.29182411
-0.00022444232
-0.30759737
-0.00026178003
-0.30863945
-0.00028571787
-0.30872672
-0.00030999319
-0.30801818
-0.0003367121
-0.30760655
-0.00036513912
-0.30659791
-0.00039621133
-0.30563601
-0.00042940206
-0.30438872
-0.00046551335
-0.30312153
-0.00050516785
-0.30107963
-0.00054841587
-0.29944745
-0.00059484544
-0.29807094
-0.00064553956
-0.29656149
-0.00070096404
-0.29495419
-0.00076123773
-0.29370517
-0.00082714354
-0.29221152
-0.00089939567
-0.29016727
-0.00097841829
-0.28769657
-0.0010647151
-0.28536997
-0.0011588718
-0.28399255
-0.0012594559
-0.28361965
-0.0013676199
-0.28396485
-0.0014847
-0.28510786
-0.0016096352
-0.2867655
-0.0017448633
-0.28830061
-0.0018908282
-0.28974066
-0.0020479611
-0.29147754
-0.0022152163
-0.29393299
-0.0023943638
-0.29695588
-0.0025853449
-0.30102626
-0.002793046
-0.3044459
-0.0030226293
-0.30702357
-0.0032850327
-0.30383137
-0.0035901475
-0.29741919
-0.0039251159
-0.29511771
-0.0042614672
-0.29465884
-0.0046259784
-0.29693217
-0.0050135621
-0.30014125
-0.0054146454
-0.30198846
-0.0058626948
-0.30219969
-0.0063624365
-0.29986285
-0.0069268131
-0.2994434
-0.0075196722
-0.30021772
-0.0081746482
-0.30122225
-0.008892784
-0.30383165
-0.0096452327
-0.30676678
-0.010405633
-0.31291382
-0.011252464
-0.32092731
-0.012125601
-0.32785835
-0.013075554
-0.33397739
-0.014216728
-0.34089235
-0.015545548
-0.33946205
-0.017225564
-0.31416039
-0.019473296
-0.29464537
-0.020784146
-0.27306565
-0.021590798
-0.2709098
-0.023570756
-0.27567068
-0.026741456
-0.029279496
-0.19549173
-0.00012377965
-0.29113384
-0.00022496866
-0.30681585
-0.00026235481
-0.30780152
-0.00028632968
-0.30760253
-0.00031090089
-0.30684385
-0.00033744622
-0.306281
-0.00036596699
-0.30527182
-0.00039693504
-0.30418009
-0.00043025702
-0.30306266
-0.00046639068
-0.30167453
-0.00050622292
-0.29960405
-0.00054953352
-0.2980842
-0.00059607794
-0.2964691
-0.00064695133
-0.29494315
-0.00070234764
-0.29368708
-0.00076262268
-0.29260521
-0.00082870458
-0.29137441
-0.00090105941
-0.28956418
-0.00098025031
-0.2870153
-0.0010668941
-0.28437375
-0.0011612878
-0.2827525
-0.0012620325
-0.28216793
-0.0013704145
-0.28247904
-0.0014874301
-0.28374865
-0.0016123793
-0.28544954
-0.0017479889
-0.28685207
-0.0018946334
-0.28832522
-0.0020517481
-0.29023544
-0.0022189296
-0.29280121
-0.0023979937
-0.29587866
-0.0025900055
-0.29987417
-0.0027980286
-0.30319453
-0.0030284206
-0.30567977
-0.0032912448
-0.30247465
-0.0035965727
-0.29611847
-0.0039320157
-0.29381357
-0.0042695199
-0.29329986
-0.0046348892
-0.29561005
-0.0050220215
-0.29890553
-0.0054227558
-0.30084738
-0.0058707815
-0.30094248
-0.0063715533
-0.29852917
-0.006934028
-0.29818213
-0.0075286121
-0.29893058
-0.0081877402
-0.29990971
-0.008902184
-0.30250928
-0.0096610568
-0.30542873
-0.010426186
-0.31157749
-0.011272388
-0.319546
-0.012148168
-0.32646532
-0.01310073
-0.33255477
-0.014244098
-0.33943158
-0.015574549
-0.33801817
-0.017256504
-0.3128229
-0.019507573
-0.29344738
-0.020821399
-0.27192758
-0.021627593
-0.26975029
-0.023605906
-0.27444942
-0.026777279
-0.029319405
-0.19442306
-0.00012397914
-0.28955072
-0.00022533944
-0.30512069
-0.00026280652
-0.30607643
-0.00028679579
-0.30579526
-0.00031113914
-0.30508033
-0.00033761342
-0.30456853
-0.00036621739
-0.30370029
-0.00039731395
-0.30275409
-0.00043086019
-0.30176459
-0.00046717177
-0.30055523
-0.00050719132
-0.29865937
-0.00055067859
-0.29716442
-0.00059741669
-0.29566515
-0.00064842138
-0.29416527
-0.00070403064
-0.29281156
-0.00076448749
-0.29153966
-0.00083074813
-0.29006221
-0.00090325375
-0.28815617
-0.00098252817
-0.28569824
-0.0010692371
-0.28322864
-0.00116384
-0.28173596
-0.0012648614
-0.28118595
-0.0013735485
-0.28134175
-0.0014909132
-0.28239849
-0.0016160605
-0.28397975
-0.0017516265
-0.28543285
-0.0018982005
-0.28693879
-0.0020555302
-0.28892369
-0.0022230027
-0.2915299
-0.0024024174
-0.29466514
-0.0025949246
-0.29872606
-0.0028034048
-0.301948
-0.0030338809
-0.30437267
-0.0032967946
-0.3012032
-0.0036019408
-0.2949035
-0.0039379804
-0.29260844
-0.0042763071
-0.2919754
-0.0046427538
-0.29427047
-0.0050292825
-0.2975715
-0.0054302543
-0.29950461
-0.0058782308
-0.29966886
-0.0063796292
-0.29728494
-0.0069425708
-0.29688022
-0.00753853
-0.29758891
-0.0081955327
-0.29860295
-0.0089162692
-0.30115725
-0.0096768001
-0.30406569
-0.010447433
-0.31024393
-0.011294283
-0.31817871
-0.01217371
-0.32505449
-0.01312527
-0.33112086
-0.014273913
-0.33795299
-0.015605995
-0.33653503
-0.017290143
-0.31145919
-0.019543966
-0.29221647
-0.020861857
-0.27077427
-0.021668123
-0.26858829
-0.023646284
-0.27324852
-0.026819745
-0.19412798
-0.00012410536
-0.28914369
-0.00022562408
-0.30474029
-0.00026320178
-0.30573116
-0.00028730382
-0.30548463
-0.00031179827
-0.30476036
-0.0003384325
-0.30415374
-0.00036713865
-0.3031326
-0.00039831477
-0.30199939
-0.00043189808
-0.30081896
-0.00046827002
-0.29937642
-0.00050833518
-0.29727049
-0.00055185624
-0.29569568
-0.00059861951
-0.29405639
-0.0006496875
-0.29250102
-0.00070533401
-0.29120181
-0.00076582936
-0.29014576
-0.00083208543
-0.28889194
-0.00090471137
-0.28702261
-0.00098437483
-0.2844037
-0.00107156
-0.28165198
-0.0011666844
-0.27992256
-0.0012679687
-0.27929002
-0.0013767498
-0.27960667
-0.0014941408
-0.28092935
-0.0016191284
-0.28270035
-0.0017552995
-0.28414601
-0.0019022051
-0.2856666
-0.0020602912
-0.28764545
-0.002227513
-0.29030397
-0.0024074351
-0.29346638
-0.002599367
-0.29753286