/*--------------------------------*- C++ -*----------------------------------*\
| =========                 |                                                 |
| \\      /  F ield         | OpenFOAM: The Open Source CFD Toolbox           |
|  \\    /   O peration     | Version:  2506                                  |
|   \\  /    A nd           | Website:  www.openfoam.com                      |
|    \\/     M anipulation  |                                                 |
\*---------------------------------------------------------------------------*/
FoamFile
{
    version     2.0;
    format      ascii;
    arch        "LSB;label=32;scalar=64";
    class       volScalarField;
    location    "2.95";
    object      omega;
}
// * * * * * * * * * * * * * * * * * * * * * * * * * * * * * * * * * * * * * //

dimensions      [0 0 -1 0 0 0 0];

internalField   nonuniform List<scalar> 
1375
(
38.004985
33.55706
29.88306
40.803932
37.276617
32.92731
29.359723
26.779181
24.970545
23.703703
22.815892
22.200241
40.037054
36.551682
32.300554
28.84026
26.349744
24.610825
23.397492
22.550987
21.967069
21.574501
21.321132
21.167188
21.082599
21.044131
21.032758
39.280642
35.829134
31.674437
28.320551
25.919288
24.249899
23.090557
22.286279
21.735135
21.367385
21.132156
20.991052
20.915201
20.882198
20.873399
20.875
20.893628
20.922296
20.956303
38.539619
35.117448
31.056449
27.805982
25.491202
23.889404
22.783127
22.021012
21.503149
21.160962
20.944598
20.816872
20.750035
20.722442
20.715866
20.719942
20.741102
20.770774
20.805457
20.844172
20.886325
20.931588
20.97983
37.824788
34.434113
30.4627
27.309736
25.076033
23.537573
22.481312
21.759402
21.273755
20.95671
20.759165
20.644906
20.587099
20.564721
20.560165
20.567378
20.590726
20.621306
20.656596
20.695734
20.738182
20.783654
20.83205
20.883401
20.937833
20.995543
21.056794
37.148346
33.798843
29.911542
26.84718
24.686596
23.205041
22.19365
21.507926
21.051531
20.757607
20.577634
20.476098
20.426781
20.409179
20.406501
20.417228
20.442397
20.473802
20.509641
20.549142
20.591823
20.637442
20.685934
20.737349
20.791823
20.849553
20.910801
20.9759
21.045264
21.119385
36.51591
33.219459
29.4112
26.426153
24.330266
22.898607
21.926138
21.27154
20.840259
20.566304
20.401683
20.311361
20.269492
20.256083
20.255088
20.269388
20.296031
20.328171
20.364491
20.404296
20.44716
20.492885
20.541429
20.592857
20.647316
20.705013
20.76621
20.83124
20.900509
20.974506
21.053793
21.13902
21.230934
35.923408
32.686286
28.9535
26.041346
24.004177
22.617181
21.678864
21.050989
20.640911
20.383695
20.231968
20.151086
20.115463
20.10539
20.106129
20.123707
20.151525
20.184313
20.221055
20.261122
20.30413
20.349916
20.398465
20.449865
20.504276
20.561906
20.623014
20.687928
20.757057
20.830883
20.909968
20.994952
21.086576
21.185709
21.293377
35.361267
32.182235
28.522507
25.680049
23.69863
22.353619
21.446847
20.843057
20.451599
20.208778
20.067989
19.995037
19.964558
19.95687
19.959756
19.980034
20.008794
20.042139
20.079235
20.119513
20.162636
20.208468
20.257012
20.308365
20.362686
20.420193
20.481163
20.545926
20.614882
20.688506
20.76735
20.852045
20.943328
21.04206
21.14925
21.266105
21.39407
21.53489
34.819081
31.69232
28.10434
25.330621
23.403972
22.100047
21.223925
20.643217
20.269243
20.039617
19.908615
19.842578
19.816379
19.810466
19.815828
19.838249
19.867781
19.901599
19.938987
19.97943
20.022634
20.068484
20.116998
20.168276
20.222488
20.279856
20.340661
20.405237
20.473983
20.547368
20.625929
20.710294
20.80119
20.89946
21.006106
21.122315
21.249514
21.389416
21.544149
21.716393
34.287876
31.205258
27.689347
24.98523
23.11368
21.850969
21.005574
20.447936
20.091273
19.874483
19.752764
19.693059
19.670562
19.666118
19.674166
19.698275
19.728456
19.762678
19.800302
19.840864
19.884111
19.929952
19.978409
20.029591
20.083669
20.140871
20.201484
20.265844
20.334352
20.407465
20.485716
20.569709
20.660165
20.757912
20.86394
20.979423
21.105771
21.244673
21.398216
21.569034
21.760542
21.977133
33.762553
30.715303
27.272691
24.63995
22.824491
21.603593
20.78942
20.255272
19.916193
19.712312
19.59973
19.54603
19.526886
19.523786
19.534628
19.560066
19.590802
19.62537
19.663181
19.70382
19.747071
19.792868
19.841243
19.892305
19.946228
20.003243
20.063638
20.127754
20.195989
20.268799
20.346702
20.430287
20.520251
20.61741
20.722749
20.837427
20.96284
21.100661
21.252935
21.422263
21.612006
21.826452
22.070708
33.244018
30.22611
26.857308
24.296597
22.537381
21.35831
20.575448
20.06496
19.743637
19.552737
19.449205
19.401272
19.385262
19.383473
19.397117
19.4236
19.454808
19.489663
19.527612
19.568286
19.611506
19.657226
19.70549
19.75641
19.810159
19.866967
19.927123
19.990967
20.058894
20.131357
20.208869
20.292006
20.381435
20.477961
20.582548
20.696353
20.820752
20.957404
21.108343
21.276131
21.464064
21.676318
21.917793
22.193136
22.505631
32.737408
29.747635
26.451353
23.960974
22.25643
21.117967
20.365547
19.878145
19.574202
19.395999
19.301222
19.258751
19.245729
19.245183
19.261567
19.288869
19.320473
19.355556
19.393594
19.434259
19.477404
19.523007
19.571125
19.621877
19.675434
19.732021
19.791919
19.855465
19.923052
19.995129
20.072203
20.154844
20.243702
20.339558
20.443352
20.556227
20.679553
20.814975
20.964515
21.130713
21.3168
21.526827
21.76546
22.036978
22.344269
22.69533
32.247672
29.288006
26.061417
23.637887
21.985215
20.885264
20.161706
19.696191
19.408732
19.242546
19.155988
19.118597
19.108163
19.109049
19.12792
19.155853
19.187778
19.22303
19.261112
19.30173
19.344764
19.390211
19.438143
19.488686
19.542016
19.598353
19.657971
19.721199
19.788425
19.860084
19.93668
20.018776
20.10702
20.202178
20.305159
20.417081
20.539295
20.673449
20.821547
20.986101
21.170291
21.378044
21.613776
21.88138
22.183386
22.528096
22.977996
31.777018
28.849514
25.6886
23.327854
21.724161
20.660681
19.964432
19.519555
19.247564
19.092573
19.013604
18.980826
18.972449
18.975166
18.996104
19.024523
19.056699
19.092064
19.130148
19.170683
19.213574
19.258831
19.306541
19.356841
19.409908
19.465961
19.525261
19.588129
19.654949
19.726157
19.802246
19.883768
19.971365
20.065795
20.167949
20.278912
20.400016
20.532883
20.679508
20.842376
21.024603
21.229998
21.462746
21.726352
22.023012
22.361386
22.806688
23.833586
31.172238
31.325965
28.432697
25.332311
23.029681
21.471976
20.443139
19.772967
19.34777
19.090431
18.945928
18.87397
18.845313
18.838597
18.843464
18.866041
18.894828
18.927191
18.962618
19.000664
19.041089
19.083813
19.128857
19.176316
19.226336
19.2791
19.334825
19.393773
19.456253
19.522637
19.593346
19.668875
19.749781
19.836702
19.930381
20.031696
20.141697
20.261694
20.393276
20.538415
20.699558
20.879765
21.082722
21.312376
21.571872
21.863116
22.195199
22.636335
23.680181
31.161558
30.893376
28.036839
24.991866
22.742525
21.227666
20.231651
19.586473
19.180213
18.936909
18.802335
18.736886
18.711904
18.706601
18.713817
18.737655
18.766723
18.799217
18.834658
18.87263
18.912915
18.955445
19.00025
19.047431
19.097138
19.149565
19.204931
19.263486
19.325536
19.391438
19.461619
19.536562
19.616815
19.703018
19.795911
19.896363
20.005402
20.124292
20.254586
20.398213
20.557591
20.735716
20.936155
21.162613
21.417886
21.703626
22.029466
22.466877
23.529385
31.121271
30.475926
27.657337
24.664412
22.464812
20.990274
20.025522
19.404408
19.016465
18.786689
18.661567
18.60217
18.580478
18.576443
18.586084
18.610869
18.640152
18.67273
18.708144
18.746007
18.786122
18.828431
18.872971
18.919844
18.969206
19.021256
19.076219
19.134343
19.19593
19.261328
19.33095
19.405266
19.484833
19.570291
19.662369
19.761924
19.869963
19.987724
20.116717
20.258812
20.416375
20.592349
20.790181
21.01334
21.264287
21.544456
21.864106
22.298154
23.382683
31.265032
30.070017
27.288152
24.345786
22.194224
20.758549
19.824022
19.22629
18.856181
18.639509
18.523417
18.469654
18.450937
18.448082
18.460113
18.485589
18.515035
18.547661
18.583015
18.62074
18.660659
18.702721
18.746967
18.793505
18.842492
18.89413
18.94865
19.006306
19.06739
19.132247
19.201282
19.274953
19.353809
19.438484
19.529707
19.628322
19.735327
19.851911
19.979553
20.120082
20.275802
20.449575
20.644722
20.864472
21.110968
21.385498
21.699031
22.130097
23.240146
31.521508
29.67381
26.926413
24.034224
21.930086
20.532374
19.627193
19.052128
18.699287
18.495242
18.387738
18.339205
18.32321
18.321474
18.335784
18.361745
18.391303
18.423932
18.459186
18.496737
18.536428
18.578219
18.622154
18.668341
18.71694
18.768147
18.82219
18.879335
18.939886
19.004178
19.072596
19.145595
19.223707
19.307568
19.397897
19.495528
19.601438
19.716799
19.843035
19.981933
20.135755
20.307286
20.499701
20.715971
20.957922
21.226734
21.534215
21.962744
23.099746
31.574843
29.286777
26.571839
23.729913
21.672986
20.312509
19.435735
18.882416
18.546043
18.353957
18.254485
18.21075
18.197261
18.196579
18.213007
18.239295
18.268917
18.301506
18.33662
18.373959
18.413386
18.454871
18.498463
18.544273
18.592463
18.643229
18.696801
18.753436
18.81343
18.87712
18.944894
19.01719
19.094536
19.177551
19.266938
19.36353
19.46829
19.582364
19.707139
19.844355
19.996228
20.165459
20.355078
20.567801
20.805141
21.068207
21.369719
21.796111
22.960274
31.53314
28.908373
26.224187
23.432723
21.422933
20.099143
19.249931
18.717413
18.396609
18.215703
18.123629
18.084259
18.073028
18.073378
18.091716
18.118205
18.147846
18.180352
18.21529
18.252383
18.291516
18.332672
18.3759
18.421312
18.469071
18.519371
18.572442
18.628544
18.68797
18.75105
18.818169
18.889756
18.966322
19.048451
19.136863
19.232366
19.335907
19.448618
19.571866
19.707362
19.857257
20.024157
20.210929
20.420027
20.652673
20.909971
21.20558
21.629995
22.822983
31.605673
28.537831
25.883028
23.141763
21.178843
19.891335
19.069109
18.556688
18.250711
18.080291
17.995057
17.95969
17.950297
17.951933
17.971861
17.998454
18.028067
18.06045
18.095177
18.131998
18.170812
18.211612
18.254457
18.299458
18.346775
18.396602
18.449161
18.504717
18.563551
18.625991
18.692417
18.763265
18.839036
18.920293
19.007706
19.102073
19.204345
19.315641
19.437306
19.571018
19.718886
19.883417
20.067303
20.272731
20.50064
20.752149
21.041842
21.464256
22.689619
31.896983
28.174465
25.548446
22.856306
20.939398
19.687661
18.892062
18.399361
18.10777
17.947368
17.868574
17.836893
17.829009
17.832222
17.85342
17.880042
17.909588
17.941807
17.976291
18.012811
18.05128
18.0917
18.134144
18.178721
18.225584
18.274924
18.326965
18.381958
18.440185
18.50197
18.567691
18.637773
18.712698
18.793039
18.879439
18.972672
19.073658
19.1835
19.303534
19.435426
19.581213
19.743306
19.924224
20.125922
20.349071
20.594801
20.878603
21.299118
22.559005
32.138657
27.817746
25.220807
22.576182
20.703814
19.487047
18.717745
18.244602
17.967216
17.816591
17.743987
17.715734
17.709152
17.71421
17.736379
17.762974
17.792418
17.82444
17.858651
17.894845
17.932946
17.972971
18.014992
18.059116
18.105498
18.154326
18.205823
18.260237
18.317853
18.378988
18.443992
18.51329
18.587368
18.666757
18.752106
18.844167
18.943844
19.052217
19.170601
19.300637
19.444293
19.603892
19.781775
19.979642
20.197952
20.437906
20.715942
21.134984
22.428911
32.13193
27.467098
24.899895
22.301531
20.472099
19.289262
18.545789
18.092035
17.828753
17.687767
17.621174
17.596137
17.590747
17.597864
17.620737
17.647271
17.676585
17.708378
17.742283
17.778115
17.815818
17.855416
17.896984
17.940638
17.986531
18.034833
18.085765
18.139572
18.196537
18.256981
18.32126
18.389772
18.462985
18.541417
18.625702
18.716577
18.814934
18.921805
19.038495
19.166623
19.308113
19.465168
19.639952
19.833916
20.04732
20.281475
20.55389
20.971999
22.300084
32.098348
27.121831
24.584042
22.031782
20.244404
19.094647
18.376449
17.9418
17.692438
17.560913
17.500125
17.478105
17.47385
17.483137
17.50648
17.53292
17.562069
17.593601
17.627174
17.662627
17.699916
17.739069
17.780165
17.823321
17.868682
17.916427
17.966769
18.019961
18.076273
18.135999
18.199492
18.267167
18.339476
18.41694
18.500167
18.589869
18.686885
18.792228
18.907215
19.033411
19.172675
19.327107
19.498716
19.688711
19.897148
20.125516
20.392494
20.810237
22.177072
32.358574
18.210488
17.794446
17.558601
17.436192
17.380898
17.36168
17.358517
17.369954
17.393568
17.419886
17.448836
17.480072
17.513284
17.548333
17.585185
17.623877
17.664489
17.707137
17.751964
17.799146
17.848881
17.901408
17.957015
18.016008
18.078718
18.145537
18.216895
18.293335
18.375436
18.463895
18.559559
18.663428
18.776714
18.90095
19.03796
19.189732
19.3581
19.544012
19.747396
19.96999
20.231782
20.64999
22.061994
32.656942
17.2469
17.244779
17.258235
17.281966
17.308135
17.336849
17.367754
17.400576
17.435194
17.471584
17.509787
17.549886
17.591996
17.636264
17.682865
17.732002
17.783898
17.838807
17.897022
17.958883
18.024792
18.09519
18.17058
18.251533
18.338731
18.433001
18.535304
18.64685
18.769144
18.903909
19.053019
19.218108
19.399875
19.598149
19.814943
20.071804
20.491722
21.954014
32.699524
17.226077
17.256621
17.289022
17.323182
17.359085
17.396775
17.436338
17.477891
17.521581
17.567582
17.616086
17.667307
17.721491
17.778924
17.839948
17.904948
17.974356
18.04867
18.128456
18.214376
18.30721
18.407938
18.51773
18.638012
18.770481
18.916895
19.07866
19.25628
19.449394
19.660449
19.912682
20.335602
21.853348
32.81801
17.28483
17.323842
17.364818
17.407907
17.453283
17.50113
17.551659
17.605107
17.661746
17.721908
17.785979
17.854384
17.927603
18.006207
18.090829
18.182228
18.281338
18.389329
18.507607
18.637763
18.781431
18.939801
19.113185
19.301112
19.50653
19.754433
20.181576
21.761808
33.095356
17.387151
17.436968
17.489654
17.545495
17.604813
17.667959
17.735345
17.807428
17.884783
17.968033
18.057948
18.155415
18.261608
18.377871
18.505708
18.646603
18.801542
18.970639
19.153365
19.353218
19.597116
20.029686
21.679622
33.410153
17.488621
17.550838
17.61719
17.688129
17.764229
17.846088
17.934453
18.030245
18.134579
18.248739
18.374185
18.512264
18.663766
18.828528
19.006089
19.200524
19.440816
19.880209
21.605515
33.627124
17.644438
17.724897
17.811727
17.90581
18.008252
18.120315
18.243344
18.378517
18.526455
18.686824
18.85923
19.048364
19.285445
19.733277
21.548653
33.848498
17.782046
17.882621
17.992581
18.113165
18.245384
18.389723
18.545658
18.712852
18.896779
19.130938
19.588731
21.503559
34.152084
17.983563
18.112863
18.25356
18.405033
18.567046
18.745858
18.977483
19.447043
21.471529
34.499378
18.264863
18.421767
18.59561
18.825152
19.308802
21.452414
34.830949
18.445955
18.674102
19.174456
21.442451
35.153288
21.427112
35.515196
)
;

boundaryField
{
    Side
    {
        type            empty;
    }
    Inlet
    {
        type            fixedValue;
        value           uniform 60.24606;
    }
    Airfoil
    {
        type            omegaWallFunction;
        blending        binomial;
        n               2;
        value           nonuniform List<scalar> 0();
    }
    Outlet
    {
        type            inletOutlet;
        inletValue      nonuniform List<scalar> 0();
        value           nonuniform List<scalar> 0();
    }
    procBoundary5to4
    {
        type            processor;
        value           nonuniform List<scalar> 
64
(
38.750695
34.205456
30.426137
27.21325
27.21325
25.335733
24.016237
23.087767
22.44062
21.783736
21.783736
21.512824
21.346294
21.252934
21.208792
21.19428
21.032617
21.032617
21.048426
21.075938
21.109188
20.994526
20.994526
21.036313
21.081296
21.129321
21.031064
21.031064
21.085407
21.143052
21.204261
21.121923
21.121923
21.191344
21.265551
21.19883
21.19883
21.284261
21.37643
21.33042
21.33042
21.438512
21.410806
21.410806
21.539461
21.681129
21.690734
21.690734
21.864341
21.909617
21.909617
22.128324
22.224117
22.224117
22.349789
22.349789
22.667401
22.863074
22.863074
23.150153
23.150153
23.98945
23.98945
31.067776
)
;
    }
    procBoundary5to6
    {
        type            processor;
        value           nonuniform List<scalar> 
61
(
26.78191
24.272135
21.766683
20.021227
18.903976
18.903976
18.048615
17.650503
17.427564
17.313752
17.263543
17.263543
17.133779
17.132635
17.147899
17.171633
17.197632
17.197632
17.11645
17.146613
17.178576
17.212262
17.247664
17.247664
17.173876
17.212331
17.252733
17.295224
17.339969
17.339969
17.274036
17.323151
17.375107
17.43016
17.43016
17.373185
17.434458
17.499788
17.569613
17.569613
17.52526
17.604325
17.689633
17.689633
17.658922
17.757604
17.865439
17.865439
17.85455
17.980836
18.117851
18.117851
18.125083
18.276865
18.276865
18.296957
18.524459
19.043935
19.043935
21.455995
35.910323
)
;
    }
    procBoundary5to12
    {
        type            processor;
        value           nonuniform List<scalar> 
30
(
40.924979
40.158093
39.414385
38.690006
37.982524
37.291749
36.621918
35.980291
35.372125
34.797986
34.255233
33.739387
33.244361
32.764138
32.294972
31.835157
31.383054
30.937389
30.499163
30.07112
29.6558
29.254553
28.867563
28.493541
28.129967
27.77416
27.424897
27.083003
41.582831
41.582831
)
;
    }
}


// ************************************************************************* //
