/*--------------------------------*- C++ -*----------------------------------*\
| =========                 |                                                 |
| \\      /  F ield         | OpenFOAM: The Open Source CFD Toolbox           |
|  \\    /   O peration     | Version:  2506                                  |
|   \\  /    A nd           | Website:  www.openfoam.com                      |
|    \\/     M anipulation  |                                                 |
\*---------------------------------------------------------------------------*/
FoamFile
{
    version     2.0;
    format      ascii;
    arch        "LSB;label=32;scalar=64";
    class       volSymmTensorField;
    location    "0.00032";
    object      R;
}
// * * * * * * * * * * * * * * * * * * * * * * * * * * * * * * * * * * * * * //

dimensions      [0 2 -2 0 0 0 0];

internalField   nonuniform List<symmTensor> 
3462
(
(0.016195279 0.00082230622 4.372521e-21 0.016300433 1.4117738e-21 0.016207684)
(0.015465086 0.00076501744 2.4279631e-22 0.015548934 7.2739676e-25 0.015468602)
(0.014767156 0.00071491572 7.8916469e-23 0.014834722 2.1570527e-22 0.014763974)
(0.014529044 0.00070676705 9.7426062e-21 0.014583662 3.0643255e-21 0.014518948)
(0.01503439 0.00077103466 -3.5973385e-23 0.015086766 -3.6961155e-22 0.015019166)
(0.015626901 0.00083611824 -6.3362692e-21 0.015676422 -1.9732006e-21 0.015605832)
(0.015663703 0.00083929787 -2.8165658e-22 0.015703165 2.8414156e-22 0.015636665)
(0.01544863 0.000819195 8.0956147e-21 0.015484172 2.3572037e-21 0.015420871)
(0.015671024 0.00084442457 -4.3576348e-21 0.015709335 -1.5450865e-21 0.015643574)
(0.016167105 0.00088925256 -2.1596665e-22 0.016208871 -9.7678141e-23 0.016138971)
(0.016566242 0.0009287595 -4.608568e-21 0.016618081 -1.8119634e-21 0.016541499)
(0.016887908 0.0009593057 -1.1436738e-20 0.016953301 -2.3162446e-21 0.016869401)
(0.017243348 0.00098276541 2.4661004e-20 0.017314655 7.3160617e-21 0.017227768)
(0.017503152 0.00099796266 -1.2817898e-20 0.017582554 -5.6163393e-21 0.017492957)
(0.01766127 0.0010189041 -1.4705828e-20 0.017767187 -3.2000301e-21 0.017665753)
(0.017874536 0.0010480244 1.0977999e-20 0.018011241 4.5006934e-21 0.017895831)
(0.018176804 0.0010791317 9.1192584e-21 0.018340554 1.103462e-21 0.018213119)
(0.01849915 0.0011139708 -1.7087856e-20 0.018704151 -2.7961734e-21 0.01855848)
(0.018778666 0.0011584885 4.4149057e-20 0.01905799 1.239927e-20 0.018876788)
(0.019056714 0.0012117779 -2.5484891e-20 0.019422165 -8.2935066e-21 0.019196961)
(0.01944478 0.0012535049 3.1096209e-20 0.019875025 8.7639843e-21 0.019615326)
(0.019989993 0.0013187266 -2.9117425e-20 0.020480971 -8.6708509e-21 0.020198492)
(0.020672324 0.0014397318 2.9323078e-20 0.021242369 8.0522496e-21 0.020944337)
(0.02136419 0.0014953592 -3.2328901e-20 0.022099896 -1.6183601e-20 0.021692592)
(0.021932429 0.0013725859 -4.158932e-20 0.02312554 -3.9388179e-21 0.022294258)
(0.022467404 0.0012432109 3.8240699e-20 0.02375097 2.0857158e-20 0.022845851)
(0.024347529 -0.00069622375 4.9973091e-20 0.024040485 2.8687472e-21 0.023944223)
(0.076740271 -0.037061954 -8.2375631e-20 0.041233051 -3.4192304e-20 0.056838606)
(10.207891 -6.2018882 -8.8294286e-20 1.5356681 3.1220256e-19 5.671247)
(43.527461 -23.01706 -1.4113687e-19 11.183671 -5.273843e-20 26.992446)
(70.743499 -32.472858 -1.0244413e-18 25.795777 -1.7043386e-19 47.860733)
(91.527037 -38.76769 1.027911e-18 39.069429 3.3002991e-19 64.752328)
(107.74732 -43.184106 -9.3148306e-19 50.407053 -4.2332004e-19 78.459642)
(120.44862 -46.319177 -4.1880457e-19 59.948655 3.3021798e-20 89.568654)
(130.36274 -48.478696 -6.5412893e-19 67.895042 -2.4699613e-21 98.546346)
(138.03969 -49.869805 1.7092183e-18 74.46132 2.3973768e-19 105.76439)
(143.90849 -50.652678 -5.3837258e-20 79.847014 1.3766764e-20 111.52044)
(148.29705 -50.987082 -2.7063153e-19 84.261137 4.6048791e-20 116.03939)
(151.48218 -50.975687 -1.3335674e-19 87.840301 -7.4368872e-20 119.52496)
(153.68134 -50.692083 -5.0325815e-19 90.684919 -8.4549942e-20 122.13956)
(155.06357 -50.200578 7.0969357e-19 92.891786 4.4349943e-20 124.01057)
(155.7609 -49.553788 -7.5179237e-18 94.549669 2.2630634e-17 125.23919)
(155.87652 -48.79404 4.6451343e-17 95.739338 -1.5207143e-17 125.90533)
(155.49113 -47.955987 -4.111735e-17 96.534858 -4.6042535e-18 126.07187)
(154.66987 -47.071369 3.2223524e-17 97.002627 3.4177234e-17 125.78876)
(153.45746 -46.161343 1.6155291e-17 97.205367 -5.9835776e-17 125.09333)
(151.89465 -45.250069 -3.9245308e-17 97.194632 -9.3654835e-18 124.01868)
(150.01755 -44.360651 -1.0545626e-17 97.010256 3.0414238e-17 122.59669)
(147.86054 -43.514121 -1.3548175e-18 96.676122 -3.0291525e-19 120.86159)
(145.46154 -42.729944 1.5793829e-17 96.196452 -4.2552616e-17 118.85518)
(142.86506 -42.02491 -5.1674735e-17 95.554125 3.7722309e-17 116.62997)
(140.12293 -41.411002 2.4158955e-17 94.712829 4.6255931e-17 114.24948)
(137.29186 -40.892392 1.415194e-17 93.624249 -4.0227697e-17 111.78439)
(134.42839 -40.461754 -1.6668165e-18 92.24249 -4.4217678e-19 109.3055)
(131.58218 -40.101745 4.9463596e-19 90.53864 1.7642013e-19 106.87219)
(128.78608 -39.782695 5.7006235e-19 88.519071 1.5050423e-19 104.51998)
(126.05147 -39.465242 4.4896746e-19 86.238472 1.144872e-19 102.25325)
(123.36625 -39.107828 -1.8192863e-18 83.798815 -5.2683669e-19 100.04324)
(120.70081 -38.676759 -1.7764904e-17 81.328491 5.968085e-17 97.838858)
(118.02358 -38.157965 5.8490582e-17 78.946942 -1.1685402e-16 95.590868)
(115.31744 -37.563315 -4.1583121e-17 76.725461 1.0430495e-17 93.278374)
(112.58968 -36.925146 -2.9668351e-17 74.661581 1.4458982e-16 90.924317)
(109.86551 -36.275859 4.4002621e-17 72.689102 -9.3930456e-17 88.582561)
(107.16526 -35.617881 2.442281e-19 70.718489 -3.6397265e-17 86.297771)
(104.48124 -34.908878 -9.6416022e-18 68.669667 3.131421e-17 84.066394)
(101.77417 -34.079287 -1.1325768e-19 66.46348 -2.9963504e-20 81.825472)
(98.991662 -33.060459 -1.907401e-20 63.94884 -5.2763929e-21 79.466422)
(96.100309 -31.797235 -1.8559321e-19 60.762772 -5.3189957e-20 76.826537)
(93.140014 -30.230516 3.7978079e-20 56.14266 1.0532977e-20 73.56683)
(90.300562 -28.025974 5.2057077e-21 48.32222 1.5260546e-21 68.861254)
(86.375397 -23.880443 -1.4886642e-24 34.583581 5.3430187e-24 59.50695)
(49.976623 -8.8997707 1.0775088e-22 16.272956 3.0456354e-23 28.990758)
(5.4401589e-06 -1.6073944e-06 -3.9165029e-23 4.5893938e-06 -1.1181889e-23 4.9104245e-06)
(0.015128068 0.00079502811 -8.8443869e-21 0.0152351 -2.7377097e-21 0.015142381)
(0.014986377 0.00077022606 8.7733758e-21 0.015077319 2.8841807e-21 0.014992582)
(0.014614573 0.0007326515 -4.6837433e-21 0.0146903 -1.8551808e-21 0.014613971)
(0.0145118 0.00072545928 -1.0070537e-20 0.014573121 -3.2438959e-21 0.014503531)
(0.01508208 0.00078886113 -5.7425775e-21 0.015141417 -1.4611465e-21 0.015068776)
(0.015723072 0.00085566974 6.4666424e-21 0.015781246 2.0109663e-21 0.015704521)
(0.015778529 0.0008579483 -7.2066332e-21 0.015827972 -2.2216671e-21 0.015754763)
(0.015571008 0.00083348136 7.6028361e-21 0.015619031 2.3128005e-21 0.015547866)
(0.015808439 0.00085470851 -8.0623301e-21 0.015861238 -3.0128493e-21 0.015786277)
(0.016322733 0.00089437299 -9.5564229e-21 0.016377245 -2.1648154e-21 0.016298622)
(0.016742609 0.00093027909 1.5232138e-20 0.016806051 5.6374991e-21 0.016721128)
(0.017079915 0.0009560086 1.7821324e-20 0.017158932 4.6352488e-21 0.017065539)
(0.017440483 0.00097101116 -6.9360168e-21 0.01752919 -2.7923952e-21 0.017430691)
(0.017707439 0.00097661609 1.8464054e-22 0.017811061 8.185769e-22 0.017705421)
(0.017877142 0.00098681991 1.1699579e-20 0.018011865 2.7278479e-21 0.017891925)
(0.018096072 0.0010025028 -1.6003228e-20 0.018268719 -5.6275056e-21 0.018130616)
(0.018403954 0.0010151305 -4.7903523e-21 0.018614196 -6.9788043e-22 0.018457403)
(0.018737857 0.0010326353 -2.066531e-21 0.018991207 -3.6443526e-22 0.01881142)
(0.019047145 0.0010515748 -1.1230594e-21 0.019340875 -1.6398145e-22 0.019140067)
(0.019357056 0.0010571393 6.9160206e-22 0.019691608 -3.6943304e-23 0.019472811)
(0.019753881 0.0010827434 -4.0406596e-21 0.020167466 -1.0476656e-21 0.019912711)
(0.020289129 0.0011369731 2.3546014e-21 0.020828452 9.5606173e-22 0.020506123)
(0.020959684 0.0011820453 1.0204526e-22 0.021646929 -1.2833287e-22 0.021233216)
(0.021657726 0.0012280633 -7.9000411e-22 0.022470159 -4.6963576e-22 0.021993698)
(0.022378424 0.0013891391 4.5300456e-22 0.023036646 9.5114954e-23 0.022799932)
(0.023117394 0.001133984 -2.0730472e-21 0.023422866 -3.1892253e-22 0.023466754)
(0.02764119 -0.0021307923 2.1767412e-21 0.025251228 -6.6812992e-21 0.026569981)
(0.4630239 -0.24129314 -3.2428826e-19 0.1515576 -3.9206502e-21 0.31429458)
(13.284733 -8.0425635 6.491554e-18 1.9631324 2.3391702e-18 7.7896976)
(47.740194 -25.267702 7.2159246e-19 13.270108 -4.3345276e-18 30.758038)
(74.793656 -34.348158 -1.4863526e-17 28.027957 -1.2261373e-18 51.784812)
(95.725927 -40.696696 1.7811415e-17 40.751286 3.9816779e-18 68.776129)
(112.17535 -45.415714 -2.1002252e-17 51.526189 -1.0425722e-17 82.531492)
(125.07905 -48.898332 8.3848299e-19 60.595477 -1.2319166e-18 93.63425)
(135.14037 -51.407636 -2.9716562e-17 68.187988 8.3675447e-19 102.55693)
(142.90884 -53.133169 2.4115313e-17 74.510941 2.6503951e-17 109.67798)
(148.82193 -54.216406 3.842486e-17 79.741714 -1.2951106e-17 115.30161)
(153.21594 -54.775382 -3.0512414e-17 84.028555 -2.0245996e-17 119.67395)
(156.35753 -54.908497 -4.0414501e-18 87.496623 1.2753259e-17 122.99419)
(158.46032 -54.698473 -9.0579309e-21 90.253766 -2.5669219e-21 125.42305)
(159.69569 -54.215381 -6.4104288e-18 92.394392 2.0204746e-17 127.09034)
(160.20081 -53.518555 4.3884207e-17 94.002132 -1.3186116e-17 128.10042)
(160.08496 -52.658666 -3.2780655e-17 95.151902 -2.9723513e-17 128.53632)
(159.43512 -51.679479 -1.438012e-17 95.911838 4.9379478e-17 128.4637)
(158.32311 -50.622103 4.5227746e-17 96.342823 -2.1055813e-17 127.93554)
(156.79731 -49.514827 -2.9367288e-17 96.502103 -3.4529833e-17 126.9895)
(154.90622 -48.391128 -7.4957102e-18 96.436292 2.8136479e-17 125.66197)
(152.68922 -47.279562 1.1765676e-17 96.181406 -3.6956688e-17 123.98515)
(150.18443 -46.206197 -4.7207226e-17 95.75891 3.1756769e-17 121.99396)
(147.43246 -45.194277 2.3812132e-17 95.172341 4.060649e-17 119.73035)
(144.47935 -44.263126 1.2285318e-17 94.405867 -3.4842593e-17 117.2463)
(141.37759 -43.426346 -1.5664722e-17 93.426313 4.563524e-17 114.60431)
(138.18383 -42.689642 6.0325665e-17 92.189941 -9.0401364e-17 111.87359)
(134.95524 -42.049781 -6.0535976e-17 90.654269 1.5253296e-19 109.12309)
(131.74007 -41.488716 1.3575025e-18 88.796613 8.6165012e-17 106.41038)
(128.57011 -40.975734 -3.3881533e-18 86.629266 1.0677112e-17 103.76964)
(125.45766 -40.471531 5.7203159e-17 84.210245 -1.0418091e-16 101.2058)
(122.39418 -39.935621 -6.3997851e-17 81.640762 6.077556e-17 98.693729)
(119.35661 -39.336255 2.9292548e-17 79.043745 3.4905734e-17 96.189621)
(116.32217 -38.661472 8.4289874e-18 76.530182 -8.6144845e-17 93.654458)
(113.28335 -37.924826 -1.2525375e-17 74.163319 4.1353666e-17 91.077872)
(110.25451 -37.156979 2.8830255e-20 71.938405 8.8221536e-21 88.489153)
(107.26347 -36.386611 -4.4521603e-19 69.79568 -1.2589109e-19 85.941707)
(104.32903 -35.613427 -1.3370077e-17 67.657703 4.3414348e-17 83.474694)
(101.4409 -34.796771 1.8175482e-17 65.455324 -3.8334697e-17 81.079472)
(98.557972 -33.873753 -7.0356382e-18 63.115639 8.4906996e-18 78.692252)
(95.623538 -32.781872 1.1085341e-17 60.494081 -2.7761845e-17 76.206324)
(92.587163 -31.462305 -3.5799498e-18 57.247663 4.2216514e-18 73.458935)
(89.435646 -29.836572 -2.1207222e-18 52.669932 7.9444931e-18 70.104783)
(86.203838 -27.51208 3.483279e-19 45.091475 -1.0977486e-18 65.306229)
(81.227421 -23.072392 -5.8215791e-20 31.998731 1.83465e-19 55.771887)
(42.253772 -7.6105533 3.2976129e-21 14.219705 -1.0026412e-20 24.82195)
(2.2015035e-06 -6.1364879e-07 -5.366093e-23 1.9079551e-06 4.8323004e-23 2.0189719e-06)
(0.013793673 0.00070185434 -4.2450451e-21 0.013872029 -1.0470088e-21 0.01379564)
(0.013760242 0.00069893654 1.0229269e-20 0.013826875 3.4602007e-21 0.013755639)
(0.014360589 0.00076067248 6.1152643e-21 0.014426124 1.4294803e-21 0.014351263)
(0.015166754 0.00083703327 -1.3292957e-20 0.015232326 -4.3542748e-21 0.015152198)
(0.015423787 0.00085011802 3.7664394e-22 0.015480844 6.2101393e-22 0.015403401)
(0.015397875 0.00083063512 7.2826576e-21 0.015451246 2.3120128e-21 0.015376561)
(0.01570374 0.0008510159 3.744785e-22 0.015761883 -1.149874e-22 0.015683532)
(0.016267598 0.00089108949 4.7117183e-23 0.016332043 -1.5862063e-22 0.016247986)
(0.016725275 0.00092421148 -5.2132169e-21 0.016801012 -1.1988622e-21 0.016709414)
(0.017084731 0.00094327393 1.0588057e-20 0.017174049 3.0116419e-21 0.017074991)
(0.017460829 0.00094887962 -1.2011003e-20 0.017557119 -4.0310045e-21 0.017454123)
(0.017747825 0.0009462186 2.9670092e-21 0.017853417 1.6260237e-21 0.017746529)
(0.017935443 0.00094717958 3.5693921e-21 0.018067964 9.3389031e-22 0.017948341)
(0.018167482 0.00094901084 4.4437703e-22 0.018329714 -5.869517e-23 0.018195413)
(0.018490747 0.00095309204 5.3906328e-22 0.018681363 1.5364847e-22 0.018533223)
(0.018842901 0.00096349714 -4.158797e-22 0.019079106 -1.1871872e-22 0.018908873)
(0.019162819 0.00097075993 5.1923015e-22 0.019462541 1.4812759e-22 0.019261251)
(0.019483119 0.00096063925 6.7482769e-23 0.019834004 -2.152582e-22 0.019604956)
(0.019912187 0.00093823064 -2.9923082e-21 0.020292107 -1.050512e-21 0.020043726)
(0.020483855 0.00094121805 -3.3975308e-21 0.020916831 1.9577394e-21 0.020640535)
(0.021181895 0.0009779731 3.4193383e-20 0.02168245 3.8814893e-21 0.02138364)
(0.021895038 0.00096294426 -7.1877394e-20 0.022491407 -1.6492168e-20 0.022131053)
(0.02249948 0.00084047528 7.775375e-20 0.023327512 2.6112654e-20 0.022750245)
(0.023083709 0.000760453 -3.9403005e-20 0.023906168 -1.5256718e-20 0.023347746)
(0.026537717 -0.0014423923 4.9656101e-20 0.025168909 1.2890522e-20 0.025812139)
(0.37047009 -0.19692539 -2.5649995e-19 0.13166732 -6.7496558e-20 0.24919404)
(12.303198 -7.3554376 2.7798656e-18 1.6109309 7.3264664e-19 6.9413448)
(48.09335 -24.861469 -8.5057827e-18 12.693852 -3.8642413e-18 30.442404)
(75.464639 -34.07076 -1.1800878e-19 27.809556 2.3619879e-18 51.626065)
(96.587082 -40.470584 -2.0409745e-19 40.69633 -1.1130702e-19 68.65882)
(113.21311 -45.128161 6.2915197e-19 51.553482 1.9654644e-19 82.451807)
(126.30441 -48.48835 1.0921521e-18 60.643268 3.1145715e-19 93.598182)
(136.57215 -50.846305 2.5844424e-20 68.204556 -1.0699544e-19 102.56995)
(144.55117 -52.408678 -9.1238355e-19 74.452772 -1.7329511e-19 109.74435)
(150.63425 -53.331256 -8.0778356e-19 79.59174 -2.9079438e-20 115.4201)
(155.15647 -53.736399 2.6456056e-18 83.779586 6.5365676e-19 119.8402)
(158.38745 -53.723206 -1.0350255e-18 87.152127 -5.7593564e-19 123.20228)
(160.54443 -53.376017 -1.2984037e-18 89.824088 -3.6791817e-19 125.66714)
(161.80409 -52.768182 1.1868599e-18 91.893009 4.0663176e-19 127.3658)
(162.30771 -51.962242 -2.4638545e-18 93.443768 -7.0132536e-19 128.4033)
(162.16831 -51.011431 1.2314425e-18 94.550854 4.0211319e-19 128.86311)
(161.47624 -49.960844 1.3384198e-18 95.280938 4.3654823e-19 128.8112)
(160.30634 -48.851477 -1.1750533e-18 95.692946 -3.8681355e-19 128.30076)
(158.70956 -47.710149 2.5597548e-18 95.841644 6.7431471e-19 127.36993)
(156.7368 -46.568006 -2.4435548e-21 95.771391 -6.9396614e-22 126.05533)
(154.42914 -45.450546 -1.2664023e-18 95.516218 -3.2228316e-19 124.38912)
(151.82606 -44.380638 -2.0679528e-21 95.096146 3.7130557e-20 122.40591)
(148.96903 -43.378421 6.4495838e-20 94.513961 -1.7821104e-20 120.14686)
(145.90459 -42.460486 -1.1542132e-18 93.75382 -3.6644556e-19 117.66266)
(142.68532 -41.638159 1.1263158e-18 92.783212 3.2131866e-19 115.01408)
(139.36772 -40.915128 -2.1438119e-18 91.559539 -6.1022993e-19 112.26841)
(136.00846 -40.285208 2.0230654e-18 90.042485 6.0079004e-19 109.49313)
(132.65649 -39.730556 2.8788633e-20 88.209665 7.7984864e-21 106.7449)
(129.3451 -39.221688 2.3844557e-21 86.072206 -7.571212e-21 104.05826)
(126.08875 -38.720916 2.0538147e-20 83.685684 6.0648162e-21 101.43992)
(122.88175 -38.189671 7.8971412e-19 81.14781 1.9758926e-19 98.867911)
(119.70419 -37.597922 -1.4736043e-18 78.577826 -4.1758997e-19 96.302267)
(116.53668 -36.934659 1.6906865e-17 76.083616 -5.3721048e-17 93.707703)
(113.37392 -36.211693 -3.0959334e-17 73.727864 5.2305795e-17 91.075977)
(110.23163 -35.458734 1.4759089e-18 71.507673 3.952158e-17 88.436691)
(107.13819 -34.70366 1.0558932e-17 69.366574 -3.6757183e-17 85.84235)
(104.11263 -33.946875 3.9021535e-19 67.230053 1.069567e-19 83.331423)
(101.14457 -33.150519 5.0373863e-21 65.030444 1.8278249e-21 80.895578)
(98.192021 -32.255713 -3.785499e-21 62.695584 -1.3664183e-21 78.47179)
(95.195582 -31.203994 2.0358941e-21 60.082574 2.1727153e-21 75.953215)
(92.097798 -29.941261 7.8233062e-20 56.852469 2.1241079e-20 73.174724)
(88.866211 -28.399078 4.8028689e-22 52.305009 1.0639058e-22 69.7842)
(85.482511 -26.220367 -1.5326096e-20 44.779539 -4.3487135e-21 64.925859)
(80.133819 -22.069879 1.9127376e-21 31.744373 5.3526052e-22 55.257389)
(40.738629 -7.1812267 2.7722667e-21 13.875 -9.3260065e-21 24.108814)
(2.2715564e-06 -6.0890474e-07 -7.0910457e-22 1.9798887e-06 2.3679818e-21 2.0909996e-06)
(0.013495542 0.00069052678 5.1060026e-21 0.013565785 1.4914643e-21 0.013493344)
(0.013989228 0.00074313182 5.3930634e-21 0.014057615 1.6362503e-21 0.013982514)
(0.014753868 0.00081669203 1.0639067e-22 0.014822846 2.2832518e-22 0.014742265)
(0.015008183 0.00083162966 1.4395955e-20 0.015069277 4.3802275e-21 0.014991059)
(0.014995489 0.00081437171 -7.7266132e-21 0.015054256 -2.6893447e-21 0.014977741)
(0.015300107 0.00082939 3.9886153e-21 0.015361989 1.2101057e-21 0.015282412)
(0.015904929 0.0008645396 -9.7734368e-21 0.015966981 -2.508518e-21 0.015884492)
(0.016439733 0.00089822567 2.1444037e-20 0.016508964 6.2014187e-21 0.016420674)
(0.016865413 0.00091807415 -2.3058776e-20 0.016946858 -7.4788128e-21 0.016851102)
(0.017292016 0.00092081538 1.3113534e-20 0.017377721 4.5377611e-21 0.017279239)
(0.017644958 0.0009158179 -1.0475563e-20 0.017737724 -3.6118515e-21 0.017635504)
(0.017898461 0.00091472246 3.0474696e-21 0.018013039 1.4385765e-21 0.017900308)
(0.018159043 0.00091212343 -2.1964713e-22 0.018298446 7.0238882e-22 0.018173662)
(0.018504529 0.00089612216 1.7943834e-20 0.018659002 4.3811492e-21 0.018526173)
(0.01888797 0.00087804853 -1.947099e-20 0.019055827 -5.6827401e-21 0.018915143)
(0.01924566 0.0008725019 2.0977628e-20 0.019437615 7.6681547e-21 0.019283455)
(0.019590739 0.00086774711 -1.9777372e-22 0.019820427 -1.3043282e-21 0.019648363)
(0.020014723 0.00086243951 4.698608e-21 0.020293963 -9.9636831e-22 0.020099896)
(0.020589906 0.00086496416 -3.0113867e-20 0.020919616 -6.7139191e-21 0.020699692)
(0.021296282 0.00085973017 2.9456719e-20 0.021686521 1.1481178e-20 0.021424959)
(0.022028107 0.00084677946 2.6062008e-21 0.022470814 -1.0035087e-20 0.022176458)
(0.022733062 0.00087660625 -7.8196774e-20 0.023080398 -1.872355e-20 0.022906577)
(0.02342741 0.00055784898 4.0067537e-20 0.023530937 2.0793311e-20 0.023491852)
(0.026354052 -0.0019653958 -5.2962256e-22 0.024607574 -5.3953017e-21 0.025352907)
(0.26473818 -0.13355322 1.5515737e-20 0.10339145 3.6524288e-21 0.18535297)
(10.366359 -6.2149407 -6.9896689e-20 1.0709641 -5.5928386e-21 5.7645632)
(45.312487 -23.658782 2.5864528e-19 10.827513 2.4267413e-20 28.199573)
(74.074278 -33.442028 -7.5667752e-19 25.822727 -3.3924178e-19 50.130507)
(95.929513 -39.963884 1.791578e-19 38.959047 2.2603227e-19 67.66612)
(113.16099 -44.857714 -1.9559206e-18 50.097238 5.2298451e-18 81.884868)
(126.72875 -48.473814 2.6260654e-17 59.401308 3.6801535e-20 93.368808)
(137.34096 -51.046055 -2.4157485e-17 67.127363 -1.3870259e-17 102.5962)
(145.55923 -52.76927 -3.1501786e-18 73.521436 7.6390831e-18 109.96444)
(151.84256 -53.813475 -3.8833722e-18 78.778835 1.1540002e-17 115.79745)
(156.54024 -54.31807 3.7225433e-17 83.075748 -4.5530536e-18 120.35258)
(159.92956 -54.397268 -2.555671e-17 86.553467 -3.7216096e-17 123.8353)
(162.23069 -54.142698 -4.5466781e-17 89.328262 2.2395012e-17 126.40988)
(163.6139 -53.630769 3.7342528e-17 91.501706 5.3575232e-18 128.20745)
(164.2212 -52.919692 -3.0206892e-17 93.155315 -2.6913237e-17 129.33276)
(164.16937 -52.056512 -1.4299215e-17 94.359996 4.4082312e-17 129.87026)
(163.5493 -51.083207 3.8167298e-17 95.181198 9.6069311e-18 129.88674)
(162.43604 -50.038067 -1.7574643e-18 95.676194 5.8421645e-18 129.43576)
(160.8822 -48.94752 3.5726906e-17 95.89864 8.4003724e-18 128.55682)
(158.93871 -47.841545 1.8615648e-17 95.891755 -6.2027645e-17 127.28663)
(156.64821 -46.746275 -2.3743059e-17 95.689011 -4.4697587e-17 125.6583)
(154.05129 -45.685308 -5.7114248e-17 95.310653 6.2890351e-17 123.70691)
(151.19039 -44.679725 3.5990222e-17 94.760734 -1.0796621e-18 121.47367)
(148.1127 -43.747197 -3.2006093e-17 94.025774 3.0341219e-18 119.0089)
(144.87118 -42.900303 3.2790162e-17 93.076544 -3.4908451e-18 116.37259)
(141.52263 -42.144247 -1.7050748e-17 91.874082 -4.3521037e-17 113.63122)
(138.12429 -41.474755 -2.8406877e-17 90.3812 8.9207347e-17 110.85188)
(134.72636 -40.876291 2.6516478e-17 88.577193 4.1353899e-18 108.09191)
(131.36428 -40.321931 -2.4208483e-18 86.472759 1.0993432e-17 105.38786)
(128.05552 -39.776506 3.9264794e-17 84.121003 -5.0866229e-17 102.74973)
(124.7976 -39.203294 -7.7355105e-18 81.616056 -4.5179733e-17 100.15919)
(121.5731 -38.573071 3.6091724e-18 79.0741 -1.1530723e-17 97.579041)
(118.36349 -37.874497 -3.3652352e-17 76.602249 5.3139032e-17 94.974582)
(115.163 -37.119143 -1.4399632e-17 74.264577 9.4917747e-17 92.336083)
(111.98589 -36.335817 5.6438626e-17 72.060733 -1.4215133e-16 89.690446)
(108.85912 -35.552485 -2.437022e-17 69.935806 1.2388415e-17 87.088076)
(105.8011 -34.770785 -2.6336788e-17 67.814566 1.0981684e-16 84.567104)
(102.80142 -33.953564 2.7086397e-17 65.627142 -6.7823812e-17 82.120086)
(99.817634 -33.040758 -6.9676344e-18 63.299293 8.7254316e-18 79.68433)
(96.789351 -31.970865 4.3788886e-18 60.68703 -6.3730159e-18 77.151959)
(93.658848 -30.686094 -2.3194084e-18 57.449886 3.6582915e-18 74.356045)
(90.398065 -29.113608 2.4321119e-18 52.882039 -6.7924227e-18 70.943301)
(87.009867 -26.889216 -6.9333574e-19 45.315181 1.8054713e-18 66.05662)
(81.749376 -22.654742 3.9421484e-20 32.207661 -9.0098459e-20 56.351861)
(42.442725 -7.5399317 -1.2499431e-21 14.322015 2.8928929e-21 25.045911)
(2.068608e-06 -5.6983132e-07 6.7849087e-23 1.7921103e-06 -1.025088e-22 1.8975527e-06)
(0.013872237 0.00074110559 -5.4452921e-21 0.013945493 -2.2355385e-21 0.0138674)
(0.014617547 0.00081341978 -6.3609477e-21 0.01469013 -1.929275e-21 0.014607177)
(0.014874254 0.00082662954 -5.654369e-22 0.014936696 4.4110303e-24 0.014857075)
(0.014869463 0.00080677126 7.9815417e-23 0.014925691 -2.0830386e-22 0.014849738)
(0.015136738 0.00081755367 -8.2559784e-21 0.015194118 -2.9129643e-21 0.015116303)
(0.015728211 0.0008527034 -9.3033677e-21 0.015786476 -2.3426153e-21 0.015705481)
(0.016281395 0.00088571766 9.7744412e-21 0.01634376 3.6422888e-21 0.016258269)
(0.016724856 0.00090203511 6.1484752e-21 0.016792848 2.0237659e-21 0.016703101)
(0.017162861 0.00089859172 1.2325107e-20 0.017228023 3.3523611e-21 0.017138656)
(0.017548114 0.00088985625 -6.0625415e-21 0.017611972 -3.3316093e-21 0.01752308)
(0.017833496 0.00088458182 -1.8545813e-20 0.017911265 -5.4707777e-21 0.01781551)
(0.01811652 0.0008722451 -9.0226806e-22 0.018206904 4.360377e-22 0.018104958)
(0.018477786 0.00086047555 -3.9341681e-21 0.018576333 -1.0951999e-21 0.018470653)
(0.018881494 0.00086619597 2.7840253e-21 0.01900608 1.119561e-21 0.018887386)
(0.019264531 0.0008631426 -5.4937398e-22 0.019416977 -1.9148515e-21 0.019285029)
(0.019652866 0.00082151379 -2.4082337e-20 0.019787921 -5.2617249e-21 0.019663405)
(0.020117613 0.00078288472 2.7652942e-20 0.020232778 1.2698273e-20 0.020114972)
(0.020704908 0.00078366626 3.2503864e-20 0.020846214 4.8031703e-21 0.0207121)
(0.021419001 0.00080220099 -3.1811217e-20 0.021584588 -1.2451024e-20 0.0214441)
(0.022171246 0.00078194944 -1.8932745e-21 0.022340956 6.2643462e-21 0.022197927)
(0.022822626 0.00068093216 3.7669077e-20 0.023089742 1.1586612e-20 0.022833905)
(0.023424577 0.0005522342 5.8050737e-21 0.023631931 -1.3748347e-20 0.023397268)
(0.025782201 -0.0012068089 -1.0046883e-19 0.0242165 -1.650277e-20 0.024944608)
(0.18069036 -0.087177085 3.1292324e-19 0.079435144 1.3339241e-19 0.12978845)
(8.4212767 -5.1435997 2.1119207e-19 0.74406773 -9.5933056e-19 4.5690694)
(42.297465 -22.172655 -7.8527091e-18 9.4576419 -3.8774267e-18 25.930759)
(72.205114 -32.537021 -1.444096e-17 24.513267 1.0682682e-18 48.399432)
(94.749885 -39.346969 1.8953331e-17 37.517661 4.5857581e-18 66.233532)
(112.49097 -44.36971 -2.1313258e-17 48.608109 -5.0262305e-18 80.713109)
(126.42853 -47.974933 1.9001423e-17 57.978058 1.8532209e-17 92.435581)
(137.32087 -50.476719 3.2763116e-17 65.844599 -6.9972864e-18 101.88272)
(145.76532 -52.138906 -2.7852676e-17 72.4017 -1.6382251e-17 109.44705)
(152.22803 -53.158607 -7.6059981e-18 77.822116 2.0998478e-17 115.44812)
(157.07168 -53.675633 3.2196527e-17 82.262016 8.7896422e-18 120.14506)
(159.9558 -47.410837 -1.2750082e-18 95.70114 -3.6720739e-19 127.69972)
(157.64814 -46.318088 1.2638868e-17 95.5332 -3.6244814e-17 126.09773)
(155.0235 -45.257529 -3.2262585e-17 95.183276 -6.9214876e-18 124.1663)
(152.12517 -44.249985 -3.5471368e-17 94.655589 1.161984e-16 121.94654)
(149.00104 -43.31272 7.8323072e-17 93.937399 -3.0648044e-17 119.48837)
(145.70461 -42.457936 -1.0244773e-17 93.000747 -8.0046003e-17 116.85112)
(142.29316 -41.690656 4.0446027e-18 91.808287 -9.2137225e-18 114.10053)
(138.82449 -41.006755 -2.7440094e-17 90.324412 -4.4700065e-18 111.30314)
(135.34967 -40.391237 -2.8116615e-17 88.529537 9.245555e-17 108.51617)
(131.9054 -39.818159 2.4721393e-17 86.434642 3.4295255e-18 105.77685)
(128.51096 -39.253692 1.0652755e-17 84.092111 -4.3396414e-17 103.09677)
(125.16613 -38.66262 8.074733e-19 81.594513 2.2093825e-19 100.46004)
(121.85597 -38.017017 1.5104677e-18 79.056159 4.4644463e-19 97.832283)
(118.56416 -37.306244 1.7538425e-17 76.582781 -5.393486e-17 95.181338)
(115.28666 -36.541798 -1.5815798e-17 74.238237 -7.1995451e-19 92.499086)
(112.03875 -35.751778 -2.8885324e-17 72.023404 9.0518403e-17 89.812793)
(108.84777 -34.96336 2.7209157e-17 69.885495 -4.821875e-17 87.172336)
(105.7325 -34.17788 1.3563599e-18 67.751284 -3.2637797e-17 84.615595)
(102.68222 -33.35958 -8.2142016e-18 65.551781 2.8786977e-17 82.134982)
(99.654148 -32.45037 -9.1880886e-18 63.212912 3.0617194e-17 79.66822)
(96.586792 -31.390568 2.4262114e-18 60.590952 -9.2572085e-19 77.107455)
(93.419357 -30.124109 3.2329163e-18 57.347015 -9.5122525e-18 74.284403)
(90.115463 -28.580443 -3.2240479e-20 52.777293 -9.0647491e-21 70.842661)
(86.652299 -26.408331 -1.8490276e-22 45.216965 -7.803569e-23 65.914714)
(81.21681 -22.276389 -9.5213109e-22 32.117662 -2.7652076e-22 56.130053)
(41.702427 -7.3602496 1.4998706e-22 14.165625 4.3058198e-23 24.702931)
(1.9852156e-06 -5.3872037e-07 -2.9253123e-23 1.724791e-06 -8.3979847e-24 1.8244448e-06)
(0.014582886 0.00081479044 6.4261746e-21 0.014657494 1.7837541e-21 0.014573295)
(0.014852337 0.0008313664 -6.886964e-21 0.014915768 -2.6156522e-21 0.014835245)
(0.014851191 0.00081332815 -7.7371452e-21 0.014907933 -2.178621e-21 0.014831063)
(0.015091918 0.00081856607 4.3196717e-21 0.015145714 1.5973435e-21 0.015068897)
(0.015672335 0.00084720862 2.6865404e-22 0.015719888 -5.5832759e-23 0.015643268)
(0.016237054 0.00087844906 -5.9017171e-22 0.016283775 -3.7658585e-22 0.016204871)
(0.016688733 0.00089472596 -5.4215909e-21 0.016737037 -1.9856004e-21 0.016655418)
(0.01713024 0.00089106491 -6.6405503e-21 0.017169197 -1.5802956e-21 0.017091213)
(0.017536039 0.00088267451 6.4020691e-21 0.017567724 2.9975146e-21 0.017492831)
(0.01784021 0.00087826939 1.5947512e-20 0.017876413 3.2399036e-21 0.017799032)
(0.018132893 0.00087058914 -2.8610735e-20 0.018172899 -7.5562852e-21 0.018093943)
(0.018505991 0.00084679261 4.0335592e-20 0.018534746 1.4011816e-20 0.018460851)
(0.018938255 0.00081766831 -1.8588746e-21 0.018951065 -4.3296323e-21 0.018884011)
(0.019351129 0.00081286105 -2.1583316e-20 0.019368825 -6.5550178e-21 0.019297649)
(0.019734754 0.00082235327 8.022341e-22 0.019780766 1.4871244e-21 0.019696378)
(0.020186319 0.00081013242 -4.5516026e-21 0.020235939 -1.5190853e-21 0.020152114)
(0.020789576 0.00079696826 -2.5690771e-21 0.020817168 -5.1153098e-22 0.020745947)
(0.021512179 0.00079390006 1.5213781e-21 0.021531942 6.0027116e-22 0.021459561)
(0.022267738 0.0007889477 2.355841e-22 0.022275449 -3.6586656e-21 0.022206977)
(0.022991397 0.0008316836 -3.9137307e-20 0.022862329 -7.1540921e-21 0.022930815)
(0.023668695 0.00056665408 4.3038146e-20 0.023310275 1.7100112e-20 0.023491539)
(0.025521709 -0.0012680167 -2.7029329e-24 0.023797832 -5.371374e-21 0.024543603)
(0.1163222 -0.048511128 -3.1927194e-21 0.060014905 -4.4994786e-22 0.088380159)
(6.2033753 -3.7865681 -4.4073248e-20 0.45989649 -1.2756329e-20 3.3456969)
(91.294553 -29.070225 5.9056249e-18 53.228643 -1.9293532e-17 71.725598)
(87.821962 -26.866567 -6.0599121e-19 45.637535 1.5715579e-18 66.775569)
(82.442856 -22.682346 -1.4369859e-19 32.478297 4.815542e-19 56.960473)
(42.995514 -7.6231424 5.8737339e-21 14.504462 -1.8584088e-20 25.415572)
(1.9369079e-06 -5.355707e-07 -3.7056863e-23 1.6751636e-06 4.6204921e-23 1.7754017e-06)
(0.01486962 0.00083848586 7.099367e-21 0.014931985 2.6536014e-21 0.014850385)
(0.014899644 0.00082097021 4.3744036e-22 0.014950909 -6.0369201e-23 0.014874813)
(0.015093211 0.00082206865 -3.1319009e-22 0.015139661 -9.0960106e-23 0.015064928)
(0.015667987 0.00085279669 6.1299125e-22 0.015706638 -3.3275096e-22 0.015632803)
(0.016241043 0.00088613246 -1.6210118e-20 0.01627321 -4.5790706e-21 0.0161996)
(0.016699449 0.00090237708 1.7305815e-20 0.016726273 6.3696239e-21 0.016653189)
(0.017143631 0.00089593956 6.6033891e-21 0.017155048 6.6938883e-22 0.017088087)
(0.017567808 0.00088717586 -1.6700437e-20 0.017561951 -5.7674149e-21 0.017502538)
(0.017910131 0.00088377783 -4.9303408e-21 0.017902464 9.6152256e-23 0.017843519)