/*--------------------------------*- C++ -*----------------------------------*\
| =========                 |                                                 |
| \\      /  F ield         | OpenFOAM: The Open Source CFD Toolbox           |
|  \\    /   O peration     | Version:  2506                                  |
|   \\  /    A nd           | Website:  www.openfoam.com                      |
|    \\/     M anipulation  |                                                 |
\*---------------------------------------------------------------------------*/
FoamFile
{
    version     2.0;
    format      ascii;
    arch        "LSB;label=32;scalar=64";
    class       volVectorField;
    location    "0.016";
    object      wallShearStress;
}
// * * * * * * * * * * * * * * * * * * * * * * * * * * * * * * * * * * * * * //

dimensions      [1 -1 -2 0 0 0 0];

internalField   uniform (0 0 0);

boundaryField
{
    Side
    {
        type            empty;
    }
    Inlet
    {
        type            calculated;
        value           uniform (0 0 0);
    }
    Airfoil
    {
        type            calculated;
        value           nonuniform List<vector> 
1047
(
(-30.26806 -9.6682885 -3.7843128e-21)
(-22.224364 -7.0452597 1.2519716e-16)
(-23.153103 -7.2888082 1.2569078e-16)
(-21.586116 -6.7543947 -2.5260833e-16)
(-21.454552 -6.6805277 2.4074124e-35)
(-20.793851 -6.4502143 1.2732034e-16)
(-20.579206 -6.3668376 1.9508346e-21)
(-20.312746 -6.2742487 1.2826832e-16)
(-20.152043 -6.2215752 9.4370567e-33)
(-20.113819 -6.2131192 -2.5821809e-16)
(-20.091206 -6.2161499 1.9785029e-21)
(-20.173591 -6.2582527 1.3000262e-16)
(-20.266628 -6.310597 -1.987942e-21)
(-20.449507 -6.3979693 -2.6161198e-16)
(-20.639828 -6.4952945 1.3119896e-16)
(-20.912063 -6.6264848 -2.0099334e-21)
(-21.197464 -6.7707425 0)
(-21.557709 -6.9485908 -1.3232952e-16)
(-21.933722 -7.1422673 -1.2037062e-35)
(-22.379136 -7.3704546 1.3306603e-16)
(-22.844304 -7.6185309 4.0773625e-21)
(-23.365421 -7.9001204 1.3382392e-16)
(-23.900691 -8.2032727 -4.1043198e-21)
(-24.473713 -8.5380971 -1.3460566e-16)
(-25.073074 -8.9031579 0)
(-25.600238 -9.2649204 2.7093688e-16)
(-25.766258 -9.4686084 1.3593824e-16)
(-25.776578 -9.572722 4.3814906e-33)
(-25.869637 -9.7099133 -1.3683306e-16)
(-26.007342 -9.8660774 0)
(-26.156373 -10.029491 2.4443612e-33)
(-26.320698 -10.201626 -1.2037062e-35)
(-26.494556 -10.380825 -1.3858097e-16)
(-26.680169 -10.567911 -1.3900853e-16)
(-26.866432 -10.758965 2.7887346e-16)
(-27.053146 -10.953822 -1.3986202e-16)
(-27.251521 -11.15744 4.2851941e-21)
(-27.455009 -11.367106 -2.8141061e-16)
(-27.655628 -11.579987 -1.2037062e-35)
(-27.862704 -11.79988 -1.4153784e-16)
(-28.067461 -12.023486 1.4195191e-16)
(-28.263431 -12.248007 4.340005e-21)
(-28.483492 -12.488065 1.4276297e-16)
(-28.705419 -12.734092 1.4316871e-16)
(-28.924753 -12.984474 -4.3766548e-21)
(-29.116627 -13.228053 1.439685e-16)
(-29.328351 -13.486513 -1.2037062e-35)
(-29.542613 -13.752131 4.4122523e-21)
(-29.74769 -14.019793 -4.4451911e-21)
(-29.961242 -14.297958 1.4550772e-16)
(-30.149309 -14.570887 4.4574635e-21)
(-30.360374 -14.863117 1.4626054e-16)
(-30.559986 -15.157137 -1.4662871e-16)
(-30.760518 -15.459075 0)
(-30.979802 -15.778297 -4.4908188e-21)
(-31.215477 -16.114337 -1.4770517e-16)
(-31.504191 -16.486927 1.2408273e-23)
(-31.765823 -16.855469 4.5373901e-21)
(-32.219747 -17.337752 0)
(-32.757865 -17.879621 -1.4908092e-16)
(-33.525763 -18.563987 1.4941809e-16)
(-34.298622 -19.270294 -1.4974117e-16)
(-34.888297 -19.893492 -7.3307007e-24)
(-35.578225 -20.593512 1.5035841e-16)
(-36.051185 -21.187861 -4.5901902e-21)
(-36.655509 -21.879647 1.5211658e-23)
(-37.187424 -22.549688 4.6230312e-21)
(-37.756646 -23.264869 1.5151125e-16)
(-38.285553 -23.978668 0)
(-38.728783 -24.662433 1.7574111e-33)
(-39.015135 -25.268623 1.5228031e-16)
(-39.086357 -25.754953 1.5244596e-16)
(-38.874207 -26.067333 -2.4074124e-35)
(-38.538483 -26.312171 -4.6544885e-21)
(-38.257213 -26.604746 1.8630081e-23)
(-38.344192 -27.168829 9.3637007e-21)
(-38.759918 -27.992608 -4.6979953e-21)
(-39.253637 -28.906179 -1.2903731e-32)
(-39.781142 -29.882644 -1.5400827e-16)
(-40.280882 -30.878962 -4.8148249e-35)
(-40.792549 -31.927847 3.0874643e-16)
(-41.257469 -32.985997 -9.4325093e-21)
(-41.70505 -34.078548 2.1633664e-23)
(-42.087806 -35.168424 4.7371542e-21)
(-42.395782 -36.247361 -4.7200358e-21)
(-42.603667 -37.293034 4.746658e-21)
(-42.70277 -38.295994 1.5532309e-16)
(-42.662838 -39.226458 -1.554714e-16)
(-42.721051 -40.303167 1.5562372e-16)
(-42.970241 -41.627599 4.8148249e-35)
(-43.318238 -43.128886 -3.1183932e-16)
(-43.592242 -44.646724 -1.9670586e-23)
(-43.854836 -46.249114 1.5623949e-16)
(-44.033994 -47.85978 4.7652993e-21)
(-44.119524 -49.472938 -9.5600525e-21)
(-44.234929 -51.233385 -1.568268e-16)
(-44.125701 -52.852644 2.1425971e-33)
(-44.104785 -54.704932 5.3581854e-33)
(-43.828827 -56.375348 -6.3184702e-33)
(-43.628799 -58.286426 -4.8169056e-21)
(-43.170766 -60.003579 3.1657835e-16)
(-42.775611 -61.968875 4.8427068e-21)
(-42.118492 -63.725469 -4.858721e-21)
(-41.517576 -65.748981 4.8671776e-21)
(-40.621276 -67.496479 0)
(-39.767317 -69.516349 -8.0335429e-17)
(-38.650072 -71.291457 -4.9134298e-21)
(-37.440719 -73.114771 -1.6197423e-16)
(-36.110819 -74.935709 -9.9335375e-21)
(-34.492331 -76.410812 8.1762011e-17)
(-32.924063 -78.311474 -5.0398637e-21)
(-30.922752 -79.32841 8.2696911e-17)
(-28.876172 -80.315612 1.6640083e-16)
(-26.680232 -81.071542 8.3669555e-17)
(-24.373317 -81.494221 8.4139525e-17)
(-22.002439 -81.7343 3.0355217e-23)
(-19.56998 -81.755275 4.2656077e-17)
(-17.105004 -81.587681 -8.5924286e-17)
(-14.57906 -81.028643 -3.9534778e-21)
(-12.100558 -80.553409 1.2094879e-21)
(-9.5747996 -79.492538 1.5046328e-36)
(-7.1071597 -78.448661 -4.419732e-17)
(-4.681971 -77.216412 -2.0962579e-23)
(-2.303495 -75.497847 4.4823602e-17)
(-0.015316921 -73.779721 -3.635118e-37)
(2.1559378 -71.682513 -1.2454427e-23)
(4.1583732 -69.108845 0)
(5.9908455 -66.496225 2.3028494e-17)
(7.6129511 -63.496978 -1.4050914e-21)
(9.0729999 -60.648788 -4.6621976e-17)
(10.328339 -57.616798 -1.4571126e-21)
(11.461311 -54.865597 -4.7132391e-17)
(12.423783 -52.077644 -4.7374885e-17)
(13.302777 -49.585097 -3.1981661e-23)
(14.04893 -47.128548 5.8343899e-21)
(14.730052 -44.9028 -9.5980267e-17)
(15.303675 -42.72917 -9.6330719e-17)
(15.812967 -40.706101 -1.9330077e-16)
(16.226149 -38.724713 -5.8905225e-21)
(16.538505 -36.770983 -9.7214257e-17)
(16.698707 -34.783296 -6.0219671e-21)
(16.754028 -32.843181 5.8858011e-21)
(16.720757 -30.9624 -9.783238e-17)
(16.612023 -29.153546 5.9578405e-21)
(16.430472 -27.409115 3.0726952e-33)
(16.189145 -25.739653 6.0061983e-21)
(15.892574 -24.140953 -5.9741382e-21)
(15.551125 -22.617896 -2.4074124e-35)
(15.171815 -21.170311 -1.9630845e-16)
(14.759201 -19.794467 -1.962269e-16)
(14.323913 -18.495345 1.2075989e-20)
(13.867312 -17.26576 1.9590153e-16)
(13.394879 -16.104281 4.8148249e-35)
(12.916197 -15.014872 5.0801101e-37)
(12.42476 -13.98271 -3.285788e-37)
(11.93621 -13.019035 -9.870391e-34)
(11.446367 -12.112818 1.9443673e-16)
(10.955619 -11.258085 2.4074124e-35)
(10.475402 -10.463657 -3.7962986e-23)
(9.991438 -9.7099957 2.4074124e-35)
(9.5192018 -9.0082206 1.9274407e-16)
(9.0605334 -8.3558792 5.8729295e-21)
(8.6031724 -7.7378563 -5.8472776e-21)
(8.1636855 -7.1659407 1.4329018e-32)
(7.7310292 -6.6275094 0)
(7.3035649 -6.1182593 -1.9021955e-16)
(6.8956148 -5.6482241 -1.8965781e-16)
(6.498112 -5.2072067 6.7287484e-24)
(6.1152996 -4.7967319 -1.88562e-16)
(5.751302 -4.4179296 -1.8797455e-16)
(5.386504 -4.0541497 5.7214956e-21)
(5.0360809 -3.7152873 -5.6987355e-21)
(4.7068827 -3.4052355 1.088208e-33)
(4.3846835 -3.1119088 -3.8998804e-37)
(4.0684035 -2.8337856 9.1831638e-24)
(3.7714316 -2.5789095 -5.6297918e-21)
(3.4814436 -2.3380974 -1.83811e-16)
(3.2052425 -2.1147562 -3.6640842e-16)
(2.9340382 -1.9026385 0)
(2.6822454 -1.7099036 -1.8197139e-16)
(2.4314976 -1.5245558 1.8135178e-16)
(2.1960305 -1.3544023 8.2464214e-24)
(1.9664024 -1.1935891 5.4970014e-21)
(1.7456358 -1.0428723 -5.4765781e-21)
(1.5206 -0.89459782 -5.4507558e-21)
(1.3210371 -0.76532264 -9.8089455e-25)
(1.092108 -0.62346816 1.7759184e-16)
(0.927192 -0.5214774 -1.7695022e-16)
(0.6661104 -0.3696062 -3.5262897e-16)
(0.54576768 -0.29814197 5.3615723e-21)
(0.35505311 -0.19168928 -5.3414363e-21)
(0.25545305 -0.13557838 -1.7440138e-16)
(0.18430819 -0.097271413 1.7376638e-16)
(-0.1193582 0.060906762 1.7311908e-16)
(-0.21242866 0.10741658 -5.2680152e-21)
(-0.41554185 0.20819447 1.7182641e-16)
(-0.50741121 0.25088579 -1.7118094e-16)
(-0.67312915 0.32880283 -1.7053262e-16)
(-0.77862716 0.37544176 -1.6988575e-16)
(-0.92779098 0.44190311 -3.3847263e-16)
(-1.0406994 0.48953567 5.1446147e-21)
(-1.1737215 0.54540785 -5.4896341e-25)
(-1.2921954 0.59319059 -1.672955e-16)
(-1.4141807 0.64143643 5.0851531e-21)
(-1.5310674 0.68621688 -5.0659362e-21)
(-1.6462414 0.7291701 1.6534576e-16)
(-1.7600455 0.77049552 -1.0051933e-20)
(-1.8703181 0.80932064 5.0065605e-21)
(-1.9795937 0.84680757 2.4244571e-37)
(-2.0863845 0.88235637 -4.9660751e-21)
(-2.1922647 0.91669112 -1.6208791e-16)
(-2.2953772 0.94907849 3.2288886e-16)
(-2.3975839 0.98034538 4.9066258e-21)
(-2.4980062 1.0101559 -9.3808874e-25)
(-2.5973301 1.038836 -4.8671828e-21)
(-2.6950443 1.0662036 1.5885096e-16)
(-2.7922291 1.092727 1.5820384e-16)
(-2.8876709 1.1179473 -1.3240768e-32)
(-2.9827143 1.142425 -1.5691162e-16)
(-3.077974 1.1663906 0)
(-3.1741486 1.190138 3.1124406e-16)
(-3.2729484 1.2142656 1.5497858e-16)
(-3.3801809 1.2409533 -1.5433535e-16)
(-3.4750722 1.2564161 1.5813633e-25)
(-3.5439537 1.2571881 0)
(-3.6024032 1.2555942 -1.5238784e-16)
(-3.6609878 1.2554366 -1.5176338e-16)
(-3.7193426 1.2565213 -3.0226805e-16)
(-3.7772683 1.2587529 9.1864178e-21)
(-3.8353354 1.2622584 -9.148745e-21)
(-3.8927334 1.2667706 4.5561321e-21)
(-3.950683 1.2726402 -3.6734198e-40)
(-4.0082928 1.2795942 -2.2595583e-21)
(-4.0660403 1.2877584 4.7643231e-25)
(-4.123935 1.2971644 2.2409962e-21)
(-4.1826854 1.3080245 2.9249313e-16)
(-4.2431382 1.3206488 2.2220983e-21)
(-4.3040232 1.3346386 -2.9008312e-16)
(-4.3695384 1.3513656 2.2036917e-21)
(-4.4351796 1.3694289 1.4382965e-16)
(-4.5235685 1.3959541 2.1858707e-21)
(-4.5999433 1.4202363 -2.1762237e-21)
(-4.7001281 1.453483 2.1675232e-21)
(-4.8017324 1.4888583 1.4142599e-16)
(-4.9284403 1.5339666 -2.1483819e-21)
(-5.0915857 1.5924193 -1.4020405e-16)
(-5.317742 1.6738072 -6.0185311e-36)
(-5.3327925 1.68937 -2.7795199e-16)
(-6.7293313 2.1511552 -1.6567792e-24)
(4.0666344 -0.56051762 1.1920824e-16)
(4.1019557 -0.58169409 7.4148287e-22)
(4.278034 -0.60780974 8.8167154e-17)
(4.2650994 -0.6074462 -8.2175323e-17)
(4.3413256 -0.61866272 -2.7736666e-22)
(4.0442221 -0.5777489 2.4255454e-25)
(3.6009873 -0.51590024 -1.410209e-16)
(3.0460871 -0.43885298 -1.3562247e-16)
(2.3604779 -0.34248185 2.6175432e-16)
(1.8004846 -0.26274356 -1.267153e-16)
(1.2367558 -0.1821695 1.2301352e-16)
(0.69105366 -0.10422222 -2.1881021e-22)
(0.19063848 -0.032743975 -9.4445954e-24)
(-0.12140889 0.01358824 -1.1380286e-16)
(-0.063777391 0.0081293867 -2.1208245e-22)
(0.41262166 -0.056585186 -1.1479437e-41)
(0.90467445 -0.1248562 2.0314498e-22)
(1.1803395 -0.16386162 1.0440545e-16)
(1.1812038 -0.16470494 1.024348e-16)
(1.0014561 -0.13996258 4.4416759e-33)
(0.79634323 -0.11162183 -3.9564897e-16)
(0.59770868 -0.083862462 1.946247e-16)
(0.37175504 -0.051832936 -1.8094225e-22)
(0.19210047 -0.02619056 -3.773502e-16)
(0.18154452 -0.023295438 -1.7728997e-22)
(0.46092943 -0.060330279 1.8308145e-16)
(0.91406431 -0.12181583 9.4039548e-38)
(1.2534845 -0.16901655 1.7760798e-16)
(1.2035491 -0.16406957 3.0092655e-36)
(0.58278656 -0.0829553 1.5046328e-36)
(-0.41712052 0.052126418 1.7099652e-16)
(-1.3127986 0.17335725 1.6913584e-16)
(-1.7226715 0.23166977 7.604414e-33)
(-1.4461044 0.19830479 -1.6563448e-16)
(-0.64183483 0.091094313 -1.6376944e-16)
(0.15160981 -0.014296417 1.6202045e-16)
(0.63801541 -0.081034737 3.0603688e-22)
(0.62214844 -0.082367686 3.174222e-16)
(-0.2570713 0.031082846 1.5742035e-16)
(-1.6399858 0.21282436 -2.9801344e-22)
(-2.6456746 0.34573818 1.5528946e-16)
(-2.9236885 0.38444456 1.5418602e-16)
(-2.5107615 0.33483718 -2.8796716e-22)
(-1.5668215 0.21254837 3.0313146e-16)
(-0.42171639 0.06538779 -2.8611703e-22)
(0.69641145 -0.080433472 2.841868e-22)
(1.7551343 -0.21804918 0)
(2.2793811 -0.28894089 1.5046328e-36)
(1.5835962 -0.2066542 1.4465892e-16)
(-0.36999378 0.039531234 -2.7517691e-22)
(-2.4122164 0.30004359 2.7281967e-22)
(-3.4715989 0.43838526 -2.8546811e-16)
(-3.6339972 0.46246513 1.4189779e-16)
(-3.3951093 0.43421282 1.4099626e-16)
(-3.2568548 0.41558095 2.6734024e-22)
(-3.2748761 0.41730841 -1.793662e-43)
(-3.2625319 0.41564198 2.574486e-22)
(-3.0453294 0.38780824 2.7572265e-16)
(-2.6905297 0.34283203 -2.7413253e-16)
(-2.157594 0.27579627 5.1942034e-22)
(-1.4521564 0.1884718 2.7049686e-16)
(-0.87913862 0.11495205 2.5641681e-22)
(-1.1926178 0.1476541 2.5461474e-22)
(-2.502146 0.30372195 -2.5283341e-22)
(-3.5576002 0.43277905 2.6448199e-16)
(-3.8256286 0.46944891 1.2037062e-35)
(-3.8310196 0.46964112 -2.6175945e-16)
(-3.7779342 0.46232386 -2.6061004e-16)
(-3.7475876 0.4571633 -2.5938359e-16)
(-3.7256634 0.45328397 2.4626974e-22)
(-3.6097599 0.43768576 -5.1428932e-16)
(-3.3362553 0.40380735 2.5599179e-16)
(-2.8860269 0.35011941 -2.4314471e-22)
(-2.2417501 0.27230925 2.4178881e-22)
(-1.4488153 0.17919215 5.0535764e-16)
(-0.57114376 0.074643094 -2.5138394e-16)
(0.29489826 -0.027614148 -2.3831596e-22)
(1.0481217 -0.11633276 2.3770215e-22)
(1.6973487 -0.19211754 2.4781214e-16)
(2.3293024 -0.26531624 -2.4653268e-16)
(2.4907894 -0.28608834 -6.0185311e-36)
(1.2903916 -0.1533205 2.4428193e-16)
(-0.57933823 0.060201232 -4.8788069e-16)
(-2.0086679 0.22478375 -1.5600033e-32)
(-3.115575 0.35196601 1.5046328e-36)
(-3.9595918 0.4460198 -2.4351341e-16)
(-4.3801988 0.49665059 4.8642538e-16)
(-4.1971732 0.47631675 -2.3118379e-22)
(-3.905297 0.44172646 2.3054961e-22)
(-3.9671187 0.44684595 2.3009413e-22)
(-4.2751383 0.47913294 -2.4096582e-16)
(-4.4711816 0.49957205 -4.8147537e-16)
(-4.2866981 0.47961289 -7.9197621e-28)
(-3.7676544 0.42154395 2.2881944e-22)
(-2.9645839 0.33285973 -2.3922727e-16)
(-1.9605938 0.22150712 2.3826442e-16)
(-0.91359271 0.10604546 4.7454442e-16)
(-0.1340566 0.01864217 2.2552522e-22)
(-0.037988092 0.0046681211 2.2439088e-22)
(-1.2715836 0.13224144 -2.2405537e-22)
(-3.1205047 0.32901413 -3.0288495e-38)
(-4.3620612 0.46361943 -9.6717794e-33)
(-4.862838 0.51736705 -4.7080877e-16)
(-4.2494335 0.45531279 2.2414269e-22)
(-2.7010487 0.29521112 -2.2376059e-22)
(-0.76533472 0.093434113 -2.2217442e-22)
(1.273466 -0.11927379 -2.323081e-16)
(3.2236271 -0.32338119 3.4117914e-22)
(4.3662394 -0.44488733 2.2962265e-16)
(3.7805127 -0.39350477 -2.2850809e-16)
(1.3848367 -0.15458402 2.180989e-22)
(-1.9553747 0.18539663 1.5499879e-32)
(-4.5742638 0.45123813 -2.2065619e-22)
(-5.4401071 0.54626218 4.4035543e-22)
(-5.11576 0.51852086 -2.1997552e-22)
(-4.7273774 0.47956077 -4.6145857e-16)
(-4.6117967 0.46539325 2.305102e-16)
(-4.712691 0.47296971 -2.3080919e-16)
(-4.7272056 0.47297808 2.3098628e-16)
(-4.591165 0.45849432 2.3117706e-16)
(-4.2582701 0.4251866 -2.3113301e-16)
(-3.5318925 0.35550673 2.203986e-22)
(-2.0189029 0.20921046 -5.7397185e-42)
(0.027425778 0.012911244 -2.1768445e-22)
(2.1610289 -0.19265759 1.5783073e-24)
(3.4979822 -0.32473604 2.2584398e-16)
(3.0992648 -0.29737877 2.2502265e-16)
(0.51973761 -0.05853517 -3.0654483e-33)
(-2.5928268 0.23277632 2.2640709e-16)
(-4.6372131 0.42749941 -4.3248122e-22)
(-5.5578869 0.51672282 2.2744413e-16)
(-5.3677349 0.50232061 2.2716518e-16)
(-5.0911782 0.4745321 2.1640514e-22)
(-5.0896596 0.47230755 -2.1656479e-22)
(-5.2936818 0.48798196 -2.2728423e-16)
(-5.4269092 0.49888027 6.0185311e-36)
(-5.2978533 0.48524684 2.2772317e-16)
(-4.9194574 0.45068676 2.1710757e-22)
(-4.1930815 0.38446633 -2.1716622e-22)
(-2.9073128 0.27128506 2.1615728e-22)
(-1.0160369 0.10332835 -1.1210394e-24)
(1.1978638 -0.090100284 -1.5025796e-24)
(3.085676 -0.25864018 2.2343366e-16)
(3.5373312 -0.30695366 -7.5231638e-37)
(1.0442145 -0.10029394 -8.7112038e-23)
(-3.1208513 0.25334286 -6.2502445e-33)
(-5.99138 0.49635933 -2.2594393e-16)
(-6.5681396 0.55036644 2.1550598e-22)
(-6.043574 0.5099989 2.2624885e-16)
(-5.9075607 0.49509373 -2.2663845e-16)
(-5.9469243 0.49681044 -2.2698834e-16)
(-6.2223486 0.51725527 -1.5046328e-36)
(-6.2452878 0.5165215 1.5046328e-36)
(-5.9031201 0.48712912 2.2808214e-16)
(-5.0861392 0.4186184 -2.2801789e-16)
(-3.5429867 0.29629925 6.670595e-25)
(-1.0692287 0.099798132 -2.2689237e-16)
(1.8765322 -0.12967523 -3.7615819e-37)
(4.6627572 -0.34898191 -1.121431e-16)
(6.2123934 -0.47199474 1.1146179e-16)
(5.3231834 -0.41580985 1.1123986e-16)
(2.0306434 -0.17231291 -1.1155432e-16)
(-2.3513553 0.15741595 1.1266718e-16)
(-5.6513201 0.40812776 -3.137992e-22)
(-6.8637366 0.50759893 5.2044898e-39)
(-6.7014861 0.49316142 2.1819553e-22)
(-6.248801 0.46410897 -2.1885458e-22)
(-5.8552826 0.43043773 9.033138e-27)
(-5.7335695 0.41811217 4.3931779e-22)
(-5.5389234 0.40212749 -2.3099055e-16)
(-5.2085843 0.37554045 3.0092655e-36)
(-4.68401 0.33683767 1.2142386e-33)
(-3.7670959 0.27198478 1.1582531e-16)
(-2.2830277 0.17120567 1.1565493e-16)
(-0.50360213 0.049904396 -1.153137e-16)
(1.115872 -0.062021987 2.2986844e-16)
(1.7098334 -0.10725344 1.1463897e-16)
(-0.020479149 -0.0086774616 -2.1873186e-22)
(-3.0974599 0.18793104 -1.1520686e-16)
(-5.1875986 0.32879098 1.1569177e-16)
(-6.0126669 0.38464592 1.1611597e-16)
(-5.4307172 0.35370417 2.3280595e-16)
(-3.475552 0.23601304 0)
(-0.20657432 0.03800469 -8.3125602e-33)
(3.5376113 -0.18839134 4.3839502e-22)
(6.9302337 -0.39031578 -1.1504098e-16)
(8.8992153 -0.51147511 -2.2858827e-16)
(8.8282766 -0.51869616 2.2770144e-16)
(5.7018654 -0.35188893 -4.7234184e-33)
(1.0914806 -0.094910838 1.147356e-16)
(-2.6207671 0.11437276 6.8058302e-33)
(-5.8377308 0.30281067 -9.2610358e-39)
(-7.9618953 0.43127511 -4.502741e-22)
(-7.6866067 0.41937088 1.1845493e-16)
(-6.8560932 0.37268235 4.5325222e-22)
(-6.4156187 0.34437276 4.5780556e-22)
(-6.3595101 0.33700533 -4.5603728e-22)
(-6.4665688 0.33765076 -1.1994205e-16)
(-6.4547069 0.33173314 -1.2034299e-16)
(-6.4645079 0.3269521 -1.2080578e-16)
(-6.4435254 0.32106319 -1.2124652e-16)
(-6.2609068 0.30777631 -4.3469518e-26)
(-5.8753268 0.28582729 4.6458827e-22)
(-5.2337331 0.25254838 -2.9051585e-38)
(-4.1244053 0.19988309 -1.0980853e-23)
(-2.1964704 0.11654323 -1.2139588e-16)
(0.88433219 -0.017068736 -4.0293792e-24)
(4.7978421 -0.17411373 -6.0236616e-17)
(8.8611949 -0.34096091 -5.9736302e-17)
(11.141105 -0.44042112 -6.7866557e-24)
(9.9031961 -0.39344868 -5.922798e-17)
(4.9740334 -0.23378106 9.0476167e-22)
(-0.41701186 -0.01280936 6.4763786e-24)
(-4.5788401 0.146563 -4.5775941e-22)
(-6.6045399 0.21642652 -2.365051e-38)
(-6.9230212 0.24629348 4.7186586e-22)
(-7.1645631 0.24655939 -1.7680434e-24)
(-7.0384242 0.23934138 -6.2282137e-17)
(-6.3519499 0.21768229 4.7629373e-22)
(-6.5487095 0.21452037 6.2684309e-17)
(-7.160448 0.22726954 -7.5231638e-37)
(-7.3660211 0.22574309 -6.361624e-17)
(-7.4507178 0.22381855 -6.3997311e-17)
(-7.7412559 0.22625994 -3.7615819e-37)
(-8.1816696 0.23276424 -4.909609e-22)
(-8.7397826 0.23970396 -1.2864404e-16)
(-9.3298016 0.24413364 6.4282118e-17)
(-9.6643747 0.2430696 -3.2160345e-17)
(-9.4948835 0.22923006 -9.8245493e-22)
(-8.6843678 0.20422297 -3.225397e-17)
(-6.8977639 0.15720604 -6.4589477e-17)
(-4.1323986 0.098498879 -9.4039548e-38)
(-0.77040514 0.030265373 -1.1874546e-23)
(1.8940046 -0.021352327 4.7019774e-38)
(3.3464109 -0.048018794 -3.2406481e-17)
(4.5705292 -0.060258827 4.9637029e-22)
(6.6339909 -0.084885651 -3.251836e-17)
(9.4503924 -0.10950433 3.250518e-17)
(11.442746 -0.13154381 -1.6170074e-17)
(11.517729 -0.13565466 3.2268015e-17)
(7.8986892 -0.093631795 4.9765185e-22)
(1.7922975 -0.048850726 1.6363368e-17)
(-3.0131604 -0.001903688 -6.2322359e-34)
(-4.5147718 0.027842739 -1.6746901e-17)
(-3.3310665 0.019900354 7.0529661e-38)
(-2.3465942 0.016766704 -5.1200909e-22)
(-2.2190514 0.010159225 5.1413653e-22)
(-2.5454082 0.0063605059 1.4326026e-25)
(-3.0356155 0.0048380872 5.2109666e-22)
(-2.9704268 0.0032202358 -1.0743316e-18)
(-2.5988485 0.0017433043 -7.8529285e-25)
(-2.3380221 -0.00075964736 -5.3189567e-22)
(-2.452801 -0.0056033632 2.1386159e-25)
(-2.9058871 -0.012549627 8.8252562e-18)
(-3.2433375 -0.017506329 5.4218714e-22)
(-3.2652018 -0.0199071 5.4532373e-22)
(-3.1945534 -0.023189684 -5.4780001e-22)
(-3.2491287 -0.02869748 1.8027124e-17)
(-3.5358123 -0.037483622 -2.5860876e-37)
(-3.9232274 -0.046477787 -1.8207925e-17)
(-4.1049072 -0.053601183 -5.5837733e-22)
(-4.1051355 -0.05816488 -5.6098549e-22)
(-4.1616185 -0.064500103 1.1274043e-21)
(-4.3065655 -0.072392257 -1.8559609e-17)
(-4.4101258 -0.07943389 -5.6947661e-22)
(-4.4367645 -0.085622721 3.7467761e-17)
(-4.5146416 -0.093390224 5.6423729e-37)
(-4.6449325 -0.1028556 -3.7818723e-17)
(-4.7099754 -0.11004102 -5.7996327e-22)
(-4.7754402 -0.1182239 -3.8179851e-17)
(-4.9669336 -0.13006379 -3.8373736e-17)
(-5.1453622 -0.14206591 -5.8853166e-22)
(-5.2356826 -0.15197279 5.9163825e-22)
(-5.3564773 -0.16267002 -3.8965881e-17)
(-5.4914755 -0.17426381 -2.8211864e-37)
(-5.5769765 -0.18522315 -6.0041006e-22)
(-5.7043682 -0.19763791 6.0381204e-22)
(-5.8840243 -0.21196788 3.9770526e-17)
(-6.0269187 -0.22569948 -3.7080818e-25)
(-6.1545414 -0.23931003 -4.2460936e-25)
(-6.3136483 -0.25476571 -6.1661183e-22)
(-6.487674 -0.2715316 8.1227834e-17)
(-6.6540831 -0.28852158 -8.1664853e-17)
(-6.8234129 -0.30614035 6.2259673e-22)
(-6.9999458 -0.32480145 -6.3014943e-22)
(-7.1598621 -0.34345327 -7.5231638e-37)
(-7.3374688 -0.36324245 -8.3502135e-17)
(-7.5184759 -0.38399511 -1.7632415e-38)
(-7.6616012 -0.40389184 -8.4467233e-17)
(-7.8259411 -0.42481933 -2.3509887e-38)
(-7.9953626 -0.44656748 -8.5483487e-17)
(-8.1327286 -0.4672914 -6.5586086e-22)
(-8.3008328 -0.48997212 8.6520396e-17)
(-8.4592458 -0.51277276 -6.6399993e-22)
(-8.5911196 -0.53483595 8.7589414e-17)
(-8.7567713 -0.55938387 1.7630046e-16)
(-8.9028195 -0.58321328 1.1284746e-36)
(-9.0339985 -0.6065637 8.928018e-17)
(-9.1962215 -0.63266081 6.8547719e-22)
(-9.3354653 -0.65787388 -6.9035278e-22)
(-9.4627148 -0.68264295 0)
(-9.6139689 -0.7095716 9.1680966e-17)
(-9.7428653 -0.73581793 1.846026e-16)
(-9.8766066 -0.76285279 9.2931017e-17)
(-10.023826 -0.79139342 9.3580701e-17)
(-10.154123 -0.81927242 4.9880771e-24)
(-10.288179 -0.84781629 1.7885322e-38)
(-10.430974 -0.8777098 -6.4483353e-33)
(-10.557467 -0.90687105 7.3403408e-22)
(-10.699532 -0.93769998 -1.479233e-21)
(-10.839272 -0.96908267 -9.7647491e-17)
(-10.972356 -1.0003917 7.5231638e-37)
(-11.123474 -1.0340293 -1.0336827e-33)
(-11.262867 -1.0673245 -1.9965254e-16)
(-11.409653 -1.1018426 -1.0057696e-16)
(-11.562807 -1.1377565 7.735021e-22)
(-11.706502 -1.1734766 1.0211839e-16)
(-11.85961 -1.2107642 -7.8548005e-22)
(-12.00788 -1.2483828 7.9094796e-22)
(-12.158295 -1.2869554 -6.7849188e-25)
(-12.310637 -1.3266098 1.0537391e-16)
(-12.454904 -1.3660622 -8.1010641e-22)
(-12.604028 -1.4066329 1.6341493e-21)
(-12.74569 -1.4470766 1.0797993e-16)
(-12.888263 -1.4881565 1.0888525e-16)
(-13.027116 -1.5295281 -8.380724e-22)
(-13.16104 -1.5708419 1.1074209e-16)
(-13.295538 -1.6129366 -8.5186022e-22)
(-13.422021 -1.654669 -1.1267126e-16)
(-13.551263 -1.6972995 8.6753761e-22)
(-13.677359 -1.7402545 8.7456842e-22)
(-13.803479 -1.783761 -1.1570788e-16)
(-13.934719 -1.8286172 -1.1676048e-16)
(-14.058869 -1.8732341 -6.4024219e-24)
(-14.190388 -1.9194437 -1.1892012e-16)
(-14.320287 -1.966231 1.2003178e-16)
(-14.45142 -2.014238 -1.2116584e-16)
(-14.584195 -2.0633765 -1.223216e-16)
(-14.706918 -2.1116801 9.4181869e-22)
(-14.830937 -2.1607412 -9.5176799e-22)
(-14.942533 -2.2086096 -1.5046328e-36)
(-15.052079 -2.2566243 -1.2716974e-16)
(-15.15329 -2.3039899 0)
(-15.248903 -2.3509305 9.8938073e-22)
(-15.338065 -2.3974075 -1.0003173e-21)
(-15.416494 -2.442669 1.0097035e-21)
(-15.490592 -2.4876459 -9.1907809e-25)
(-15.555873 -2.531658 -1.0317674e-21)
(-15.623166 -2.5763375 1.3660192e-16)
(-15.69412 -2.6220755 1.052757e-21)
(-15.770221 -2.6691043 -1.3953842e-16)
(-15.858331 -2.7186617 2.1521796e-21)
(-15.948768 -2.7692031 -2.1756659e-21)
(-16.05005 -2.8221745 1.4415803e-16)
(-16.153047 -2.876864 -1.4575479e-16)
(-16.26147 -2.9333925 2.9477644e-16)
(-16.369351 -2.9904394 -1.1365538e-21)
(-16.482146 -3.0488904 3.015052e-16)
(-16.597498 -3.1084022 1.52486e-16)
(-16.711286 -3.1682176 9.4039548e-38)
(-16.827004 -3.2289546 1.5606172e-16)
(-16.93354 -3.288573 -1.5790262e-16)
(-17.036775 -3.3480353 1.5978874e-16)
(-17.129727 -3.4060439 -3.0092655e-36)
(-17.226415 -3.4652741 -3.0092655e-36)
(-17.318397 -3.5241108 -1.6568614e-16)
(-17.412292 -3.5837926 -1.6773811e-16)
(-17.499325 -3.6425465 -1.2964478e-21)
(-17.588482 -3.7022267 0)
(-17.675761 -3.7619889 0)
(-17.76785 -3.8233021 -9.0891813e-34)
(-17.869586 -3.8872352 -1.3623922e-21)
(-17.979188 -3.9534408 1.6437952e-24)
(-18.103133 -4.0234955 1.3999721e-21)
(-18.356203 -4.1374639 1.4168882e-21)
(-18.66269 -4.291999 9.4153907e-17)
(-18.881586 -4.4245109 -9.5449549e-17)
(-19.034023 -4.5379246 -9.6779202e-17)
(-19.107066 -4.6276957 9.8156773e-17)
(-19.175032 -4.710932 9.9568986e-17)
(-19.171682 -4.7707372 -2.2725072e-27)
(-19.139557 -4.817055 1.1780352e-37)
(-19.05646 -4.8438347 -8.9477055e-41)
(-18.946141 -4.8568604 -6.6053379e-33)
(-18.820321 -4.8590633 -1.0715589e-16)
(-18.688101 -4.8529147 -1.6603303e-21)
(-18.552217 -4.8392855 2.2087372e-16)
(-18.424836 -4.8215177 0)
(-18.300736 -4.7987624 1.73614e-21)
(-18.196042 -4.7751907 -1.7644597e-21)
(-18.078425 -4.7431399 -7.8160328e-34)
(-18.021601 -4.7217873 1.8166892e-21)
(-17.958826 -4.6941889 -1.8466309e-21)
(-17.919593 -4.6681423 -1.2275035e-16)
(-17.831583 -4.6253082 -6.8551069e-33)
(-17.833718 -4.6017559 -5.0839599e-24)
(-17.403725 -4.4590791 1.9526392e-21)
(-14.940828 -3.8038021 -1.98697e-21)
(-24.378038 -6.2033529 -1.3153102e-16)
(-5.7955389 1.4722986 7.3282025e-17)
(-4.420067 1.1276221 1.4437306e-16)
(-4.8439958 1.2428702 2.8438119e-16)
(-4.9938402 1.2892587 1.4002639e-16)
(-5.1272462 1.3304971 -6.0185311e-36)
(-5.2353629 1.3643092 -2.071884e-21)
(-5.3309121 1.3937821 2.0407419e-21)
(-5.4218315 1.4208484 -1.4657951e-24)
(-5.5103119 1.445924 1.296905e-16)
(-5.5985914 1.4694476 -1.9498499e-21)
(-5.6891052 1.4919175 1.2577692e-16)
(-5.7730645 1.510884 1.8899271e-21)
(-5.8549066 1.5273593 1.2201233e-16)
(-5.935747 1.5415229 -2.4037265e-16)
(-6.015253 1.5531688 1.1839296e-16)
(-6.0931831 1.5621452 3.559519e-21)
(-6.1689441 1.5682097 -1.7538416e-21)
(-6.241845 1.5711405 2.2648314e-16)
(-6.3113353 1.5707624 -7.2824226e-33)
(-6.3763816 1.5668296 1.6781719e-21)
(-6.4347846 1.5588396 1.0843419e-16)
(-6.4852367 1.5465691 1.6311026e-21)
(-6.5261587 1.5297969 1.0542811e-16)
(-6.5487757 1.5066869 -1.5865572e-21)
(-6.549399 1.4770055 -1.0258778e-16)
(-6.5689626 1.4608254 0)
(-6.61913 1.4563717 9.9873469e-17)
(-6.6744299 1.4528302 -9.8559576e-17)
(-6.7261418 1.4483161 1.1968206e-24)
(-6.7776809 1.443522 -1.4648273e-21)
(-6.8269896 1.4380789 -1.8956269e-16)
(-6.8764622 1.4324315 1.4280757e-21)
(-6.9250994 1.4264577 -1.8479133e-16)
(-6.9732412 1.4201299 0)
(-7.0217657 1.4137257 3.0092655e-36)
(-7.0687235 1.4067765 -1.7800437e-16)
(-7.1157772 1.3997298 1.7583337e-16)
(-7.1611963 1.3921054 1.7370928e-16)
(-7.2069859 1.3843709 1.7162852e-16)
(-7.2503878 1.3760131 2.5877597e-21)
(-7.294208 1.3675457 1.6759189e-16)
(-7.3356197 1.3584678 1.6563887e-16)
(-7.37776 1.3493345 3.2744184e-16)
(-7.417479 1.3396054 1.6184328e-16)
(-7.4577133 1.3297877 1.2205222e-21)
(-7.496396 1.3197333 -3.1639554e-16)
(-7.5374309 1.3103022 2.3869162e-21)
(-7.5775393 1.3006304 -1.1804182e-21)
(-7.6185051 1.2909749 1.1825749e-32)
(-7.6577748 1.280936 -3.0092655e-36)
(-7.6979502 1.2709231 -1.4970362e-16)
(-7.7362294 1.2604927 1.4810636e-16)
(-7.7748996 1.25007 0)
(-7.8120866 1.239236 8.3910681e-33)
(-7.849375 1.2283637 -1.9727631e-38)
(-7.885167 1.2171062 -1.5046328e-36)
(-7.9206749 1.2057445 -1.4057154e-16)
(-7.9553139 1.1941074 1.0614802e-21)
(-7.9891633 1.1822881 1.3775675e-16)
(-8.0225611 1.1702709 0)
(-8.0538925 1.1578846 1.3504965e-16)
(-8.0850608 1.1453524 4.7019774e-38)
(-8.1138914 1.1324243 1.3244322e-16)
(-8.1429324 1.1195465 1.311745e-16)
(-8.1716444 1.1068728 -1.2993148e-16)
(-8.2014785 1.0943146 -1.2871149e-16)
(-8.2298468 1.0815548 -9.7270697e-22)
(-8.2585536 1.0688059 -1.2633879e-16)
(-8.2860222 1.0558716 -1.251859e-16)
(-8.3132616 1.0428799 1.2405422e-16)
(-8.339584 1.0297467 6.0185311e-36)
(-8.3653172 1.016514 -1.218543e-16)
(-8.3901021 1.0031362 2.4156808e-16)
(-8.414375 0.98967023 9.1335474e-22)
(-8.4372442 0.97601231 -9.057543e-22)
(-8.4591668 0.96221825 8.9567956e-22)
(-8.4795743 0.94822982 -2.6172415e-25)
(-8.4984839 0.93404855 -1.1571612e-16)
(-8.5169829 0.91980156 1.1475425e-16)
(-8.5336986 0.90534578 1.1381266e-16)
(-8.5499349 0.89095957 -1.906063e-24)
(-8.5658773 0.87664639 -1.1197442e-16)
(-8.5806036 0.86226518 2.2216263e-16)
(-8.5950989 0.84791606 -8.4068085e-22)
(-8.6084926 0.83352506 -2.1868434e-16)
(-8.6209517 0.81906636 1.0849697e-16)
(-8.633005 0.80466094 7.5231638e-37)
(-8.6441917 0.79019609 2.1369453e-16)
(-8.6546562 0.77574152 -1.0604391e-16)
(-8.6651237 0.76131657 8.7133284e-33)
(-8.6741154 0.74682108 -7.970204e-22)
(-8.6834307 0.73239357 1.0371805e-16)
(-8.6920953 0.71795756 -1.0296726e-16)
(-8.6995265 0.70345758 -2.0446156e-16)
(-8.7077655 0.68906135 1.5046328e-36)
(-8.7141489 0.67454322 1.1284746e-36)
(-8.7203692 0.66002701 -1.0009208e-16)
(-8.726437 0.64560847 -1.5168008e-21)
(-8.7312257 0.63119599 7.5331239e-22)
(-8.736543 0.61693129 7.480859e-22)
(-8.7415431 0.60273764 -7.4324214e-22)
(-8.7452338 0.58855947 -9.6764419e-17)
(-8.7496392 0.57451356 9.6132035e-17)
(-8.7536716 0.56054397 0)
(-8.7559781 0.54653093 1.8980221e-16)
(-8.759884 0.5327169 -9.4298277e-17)
(-8.7620423 0.51887268 -9.3709182e-17)
(-8.7639762 0.50508677 -7.1055946e-22)
(-8.7668755 0.49143485 3.3602211e-33)
(-8.768775 0.47779672 -9.1988155e-17)
(-8.7703217 0.46411236 9.1432762e-17)
(-8.7722869 0.45032472 -6.9335311e-22)
(-8.7705496 0.43647995 9.0350801e-17)