/*--------------------------------*- C++ -*----------------------------------*\
| =========                 |                                                 |
| \\      /  F ield         | OpenFOAM: The Open Source CFD Toolbox           |
|  \\    /   O peration     | Version:  2506                                  |
|   \\  /    A nd           | Website:  www.openfoam.com                      |
|    \\/     M anipulation  |                                                 |
\*---------------------------------------------------------------------------*/
FoamFile
{
    version     2.0;
    format      ascii;
    arch        "LSB;label=32;scalar=64";
    class       volScalarField;
    location    "0.016";
    object      yPlus;
}
// * * * * * * * * * * * * * * * * * * * * * * * * * * * * * * * * * * * * * //

dimensions      [0 0 0 0 0 0 0];

internalField   uniform 0;

boundaryField
{
    Side
    {
        type            empty;
    }
    Inlet
    {
        type            calculated;
        value           uniform 0;
    }
    Airfoil
    {
        type            calculated;
        value           nonuniform List<scalar> 
1047
(
0.65182845
0.564726
0.5712239
0.55779081
0.55306864
0.54778741
0.54476821
0.54207933
0.54072852
0.54000719
0.53947332
0.53954763
0.53984338
0.54064572
0.54162008
0.54301645
0.54456729
0.54649677
0.54856204
0.55100913
0.55358063
0.55654812
0.5596252
0.5629677
0.56663675
0.57001365
0.57011404
0.56851095
0.56764458
0.56743749
0.56738311
0.56752082
0.56770081
0.56797681
0.56826585
0.56861451
0.56896359
0.56935816
0.56974454
0.57016749
0.5705695
0.57101585
0.57142691
0.57188207
0.57230647
0.5727573
0.57319756
0.57363742
0.57409001
0.57451485
0.57500389
0.57547363
0.57597551
0.5763746
0.57683497
0.57717914
0.57761001
0.57790407
0.57830352
0.5785342
0.57890534
0.57909832
0.57938152
0.57955521
0.5797583
0.57987616
0.58000612
0.58005388
0.58009819
0.58006648
0.5800177
0.57988763
0.57972978
0.5794789
0.57915601
0.57872801
0.57819584
0.57754795
0.57677561
0.57591405
0.57487528
0.57371983
0.572409
0.57094335
0.56931616
0.56745849
0.56540248
0.56312202
0.56059
0.55782001
0.55476786
0.55147318
0.54786451
0.54391946
0.53974425
0.53539515
0.53100364
0.5265512
0.52214688
0.51788212
0.51362036
0.50949674
0.50526665
0.50102041
0.49647821
0.49163306
0.48615904
0.48001765
0.47309723
0.46551791
0.45686618
0.44663935
0.43477397
0.42143578
0.40641695
0.38955173
0.37066441
0.34964252
0.32555865
0.29905407
0.26798421
0.23649074
0.2018707
0.17474171
0.057546192
0.1858803
0.20927996
0.24070638
0.26892169
0.29945172
0.32568356
0.34999317
0.37121704
0.39028782
0.40721058
0.42225726
0.43557936
0.44740847
0.45762261
0.46620588
0.47376557
0.48062004
0.48676973
0.49216162
0.49705336
0.50150593
0.5058107
0.50992802
0.51413069
0.51827293
0.52262152
0.52696192
0.53141495
0.53580812
0.54014115
0.54430201
0.5482433
0.55185092
0.55515284
0.55817825
0.56095269
0.56347782
0.56573919
0.56780509
0.5696288
0.57127716
0.57274886
0.57404581
0.57519455
0.57620943
0.57708216
0.57783719
0.57848235
0.57901747
0.57944384
0.57976231
0.58001006
0.58016386
0.58029006
0.58033437
0.58036189
0.58031138
0.58025813
0.5801241
0.58000112
0.579793
0.57961715
0.57932854
0.57913353
0.57875942
0.5785247
0.57812213
0.57782502
0.57739001
0.57704306
0.57657816
0.57617679
0.57566898
0.57519648
0.57470281
0.57427566
0.57381593
0.57337486
0.57292905
0.5724778
0.57204749
0.57159085
0.57117763
0.57072445
0.57032277
0.56989231
0.56950583
0.56910496
0.56875602
0.56839938
0.56811175
0.56782938
0.56764961
0.56750652
0.56755993
0.56776382
0.56863164
0.57023175
0.57010389
0.56676495
0.56306939
0.55973008
0.55662638
0.55366221
0.55108361
0.54863378
0.54656328
0.54463366
0.54308371
0.54168569
0.54070719
0.5399031
0.53960376
0.53952836
0.54005979
0.54078245
0.54213235
0.54482183
0.54784269
0.55312781
0.55785138
0.57129397
0.56477705
0.65197595
0.42432365
0.19451297
0.11801787
0.10072723
0.055265051
0.040525111
0.070429572
0.067481775
0.018875793
0.096106602
0.14473567
0.17682303
0.19438634
0.19768008
0.19025417
0.17519141
0.15658543
0.14473471
0.14704724
0.17209729
0.21264731
0.24839443
0.26795144
0.27007019
0.2633688
0.25130608
0.23464354
0.21955499
0.20329369
0.18677342
0.17397583
0.17208703
0.19091691
0.22731388
0.25814887
0.27208904
0.27144502
0.26301689
0.25242674
0.23993194
0.2276512
0.21454915
0.20592561
0.20700784
0.23024838
0.26328183
0.28393552
0.29049711
0.29095623
0.293445
0.29914227
0.30503977
0.30989695
0.31306652
0.30849004
0.29506523
0.27473894
0.24715378
0.21945577
0.20635153
0.22407106
0.25875688
0.28186454
0.28989179
0.29160631
0.2908893
0.29085566
0.28661224
0.27705905
0.26468192
0.25624059
0.26052447
0.28352506
0.30445272
0.3126352
0.31618867
0.30792751
0.29239147
0.2772765
0.26418588
0.25781839
0.2698133
0.29751163
0.31878456
0.3273285
0.33021667
0.32764192
0.32138419
0.31100025
0.29686996
0.28290343
0.27522558
0.29547176
0.32469585
0.33704061
0.34414069
0.34656977
0.34281564
0.33322439
0.31244181
0.2838059
0.26467262
0.27437248
0.29290051
0.30532145
0.30535444
0.29048414
0.27182337
0.26324975
0.27637766
0.29246978
0.29897738
0.30169105
0.29971062
0.29786159
0.29903662
0.30187192
0.30368499
0.30456041
0.3050237
0.30526775
0.30619811
0.3075321
0.30836315
0.30865621
0.3089916
0.3102181
0.31183233
0.31271159
0.31294929
0.31299144
0.31385169
0.31586778
0.31762304
0.31841842
0.31856667
0.31871968
0.31991926
0.32185756
0.32305878
0.32337748
0.32387198
0.32542355
0.32701208
0.32766404
0.32788099
0.32854923
0.33014843
0.33165016
0.33225128
0.3328915
0.33440742
0.33586859
0.33643717
0.3367428
0.33762999
0.3395801
0.34140908
0.34221645
0.34238334
0.34266414
0.34357103
0.34483649
0.34589281
0.34684462
0.34789481
0.34886655
0.34951583
0.3509301
0.3523336
0.35290313
0.35347903
0.35489185
0.35630157
0.35701529
0.35770904
0.35902673
0.36042246
0.36120872
0.36203109
0.36334027
0.36455227
0.36526406
0.36619532
0.36742567
0.3683144
0.36909484
0.37033667
0.37152307
0.37227625
0.37328909
0.37459271
0.37548206
0.37625895
0.37746672
0.37853393
0.37914278
0.37998681
0.38119251
0.38214658
0.382864
0.38391261
0.38513311
0.38598088
0.38678442
0.38792811
0.3889818
0.38973623
0.3906036
0.39161498
0.39241088
0.39340538
0.39447657
0.39530042
0.39634693
0.3974721
0.39830743
0.3992673
0.40043316
0.4013169
0.40210038
0.40306568
0.40395712
0.40474234
0.40576165
0.40673053
0.40754968
0.40863755
0.40964876
0.41049219
0.41153497
0.41256957
0.41342586
0.41429905
0.41522529
0.4159139
0.41674526
0.41767025
0.41843861
0.41922002
0.42017159
0.42102816
0.42180292
0.42288478
0.42383443
0.42473076
0.42574228
0.42674638
0.42760337
0.42863316
0.42971448
0.43064956
0.43172701
0.43284479
0.43384573
0.43492129
0.43606223
0.43709838
0.43820343
0.43936098
0.44035847
0.4413958
0.44249235
0.44351159
0.44462543
0.44576848
0.44681843
0.44796159
0.4491432
0.45026492
0.45145338
0.45266323
0.45377795
0.45499035
0.45613522
0.45718838
0.45833034
0.45943065
0.46049804
0.46163287
0.46267395
0.46374451
0.46481398
0.46580674
0.46685808
0.46787428
0.46885231
0.46985474
0.47083227
0.47174142
0.47270193
0.47360356
0.4745528
0.4754972
0.4764129
0.47736252
0.47829055
0.47921539
0.48016779
0.48107139
0.48200957
0.4829237
0.48382074
0.48473398
0.48559236
0.48646817
0.48732219
0.48817168
0.48902149
0.48985599
0.49067508
0.49151914
0.49232484
0.4931349
0.49392115
0.49471248
0.49549513
0.49624503
0.49700597
0.49775368
0.49849167
0.49920511
0.49989574
0.50058078
0.50123664
0.50188805
0.50252911
0.50316182
0.50379079
0.50441228
0.50503477
0.50564911
0.50626563
0.50688394
0.50750059
0.50813657
0.50880165
0.50945675
0.51009794
0.51072049
0.51134749
0.51196378
0.5125898
0.51320343
0.51382587
0.5144468
0.51506209
0.51569417
0.51631825
0.5169482
0.51758881
0.51823059
0.5188712
0.51953864
0.52025434
0.52096319
0.52165299
0.5223106
0.52297175
0.52361576
0.52426236
0.52490001
0.52552842
0.52616232
0.52678829
0.52742059
0.52804961
0.5286861
0.52933176
0.53000712
0.53070306
0.53144849
0.53216896
0.53316799
0.53575443
0.53913917
0.54116153
0.54242428
0.5430203
0.54343075
0.54354049
0.54323896
0.5426098
0.54180697
0.54073912
0.53956521
0.53819898
0.53670601
0.53504579
0.53336852
0.53129738
0.52945671
0.52747141
0.52546966
0.52297633
0.52023038
0.51282397
0.47975655
0.58127553
0.58130483
0.47948596
0.51241412
0.51965408
0.52224186
0.52459269
0.5264303
0.52825202
0.52992836
0.53183173
0.53334162
0.53483453
0.5361548
0.53735767
0.53835941
0.53926596
0.53989554
0.54037713
0.54048994
0.54028388
0.53967456
0.5389528
0.53752018
0.53536723
0.53191686
0.52912418
0.52802022
0.52714562
0.5262424
0.52541745
0.52460245
0.52381343
0.52303248
0.52226607
0.52149568
0.52074342
0.51997527
0.51920469
0.51843388
0.51766532
0.51689325
0.51611032
0.51532406
0.51451799
0.51368799
0.51285794
0.51206863
0.51131621
0.5105579
0.50980678
0.5090617
0.50832201
0.50758713
0.50685203
0.50612759
0.50538672
0.50467663
0.50394403
0.50322951
0.50249352
0.50176802
0.50101928
0.50026288
0.49948662
0.49875466
0.4980308
0.49730943
0.49658617
0.49586301
0.49513718
0.49440859
0.49367898
0.49293968
0.49219472
0.49143591
0.4906738
0.4898856
0.48910326
0.48826935
0.48745013
0.48658657
0.48574181
0.48487158
0.48399743
0.48310037
0.48220481
0.48131039
0.48037875
0.4794679
0.47852113
0.47762259
0.47665073
0.47573072
0.47475749
0.47383034
0.47283411
0.47188739
0.47087191
0.46992271
0.46889291
0.46792962
0.46691734
0.46591375
0.46494063
0.46391781
0.46294066
0.46194533
0.46093458
0.45997337
0.45895033
0.45796859
0.45692125
0.45585877
0.45479256
0.45372469
0.45262084
0.45153368
0.45044503
0.44927487
0.44819221
0.44703683
0.44586161
0.44473963
0.44355355
0.44239483
0.44127741
0.43994455
0.4387991
0.43752594
0.43632782
0.43509794
0.43391601
0.43273711
0.43159135
0.43039737
0.42929015
0.42818863
0.4270143
0.42604543
0.42486388
0.42373014
0.42263246
0.42147035
0.42035768
0.41928847
0.41819232
0.41703658
0.416058
0.4149381
0.41384639
0.41289846
0.41186145
0.410842
0.40991286
0.4089253
0.40774566
0.40688521
0.40598406
0.40496723
0.40408594
0.40329063
0.40232934
0.40138493
0.40068073
0.39971136
0.39883364
0.39798069
0.39697986
0.39587599
0.39499464
0.39398898
0.39284498
0.39196187
0.3910177
0.3899168
0.38905048
0.38815707
0.38710975
0.38628919
0.38546771
0.38435721
0.38330233
0.38243899
0.3813672
0.38016892
0.37929938
0.3784378
0.37727851
0.37624858
0.37551456
0.3745173
0.37354823
0.37270866
0.37169804
0.3707192
0.36970279
0.36858212
0.36768239
0.36681645
0.36568218
0.3645815
0.36382317
0.36299762
0.36183883
0.36082777
0.36010158
0.35919696
0.35785548
0.35668407
0.35592427
0.3550314
0.3536777
0.35257612
0.35186428
0.35080223
0.34966039
0.34888162
0.34786798
0.34662735
0.34575913
0.34498932
0.34367454
0.34225736
0.34144592
0.34084771
0.33964479
0.33809827
0.33705408
0.33650531
0.33575313
0.33418976
0.33272745
0.33201003
0.33122828
0.33034664
0.32922316
0.32770473
0.32660743
0.32622609
0.32605548
0.32556075
0.32415733
0.32224378
0.32109657
0.32072117
0.32040959
0.31950875
0.31783148
0.31634036
0.3156565
0.31490952
0.31361579
0.31263338
0.31219904
0.31148138
0.30987403
0.30817517
0.30744616
0.30720044
0.3067346
0.30540895
0.30334516
0.30204114
0.30174985
0.30159444
0.30098356
0.29942402
0.29753746
0.29666722
0.29658805
0.29634308
0.29531997
0.29371251
0.29276191
0.29266183
0.29255712
0.29180779
0.29020903
0.28877107
0.28826424
0.28802296
0.28760611
0.28633537
0.28463463
0.2840532
0.28522861
0.2854866
0.28223929
0.27496971
0.25880953
0.24817954
0.25971481
0.27916743
0.29137067
0.28949564
0.27691699
0.25828938
0.24992054
0.26839378
0.29448376
0.31253475
0.32125415
0.32517161
0.3225324
0.31578669
0.3032326
0.27670157
0.259322
0.26659337
0.27974781
0.29282721
0.30240774
0.30802806
0.31064988
0.30852563
0.30140109
0.28082579
0.25550619
0.24615715
0.25218305
0.2636592
0.27679358
0.29016901
0.29773667
0.29470634
0.28726432
0.26722101
0.2429141
0.23599487
0.24218288
0.25352116
0.26441723
0.27469597
0.28443805
0.29015281
0.28661705
0.27698646
0.25220204
0.22609361
0.22509879
0.23505244
0.25148738
0.26490739
0.2628071
0.25283289
0.2332851
0.21551909
0.21420718
0.2273341
0.24340953
0.24641724
0.23744244
0.21056616
0.18126084
0.19152722
0.22445078
0.25870488
0.28123514
0.28924806
0.28834271
0.28349913
0.28030333
0.28082324
0.28202489
0.27655746
0.26170299
0.23571184
0.19821668
0.12874422
0.10821075
0.16821369
0.14319436
0.042242453
0.15539345
0.20455816
0.2316496
0.24599622
0.25152343
0.2513359
0.24946266
0.24973508
0.25143142
0.25243306
0.24903691
0.23753871
0.21517941
0.18219956
0.14267147
0.10335548
0.072526611
0.064122837
0.071859869
0.090663952
0.10778013
0.12524269
0.13974966
0.15598119
0.18526665
0.24037682
)
;
    }
    Outlet
    {
        type            calculated;
        value           uniform 0;
    }
}


// ************************************************************************* //
