/*--------------------------------*- C++ -*----------------------------------*\
| =========                 |                                                 |
| \\      /  F ield         | OpenFOAM: The Open Source CFD Toolbox           |
|  \\    /   O peration     | Version:  2506                                  |
|   \\  /    A nd           | Website:  www.openfoam.com                      |
|    \\/     M anipulation  |                                                 |
\*---------------------------------------------------------------------------*/
FoamFile
{
    version     2.0;
    format      ascii;
    arch        "LSB;label=32;scalar=64";
    class       volScalarField;
    location    "0.0065";
    object      omega;
}
// * * * * * * * * * * * * * * * * * * * * * * * * * * * * * * * * * * * * * //

dimensions      [0 0 -1 0 0 0 0];

internalField   nonuniform List<scalar> 
13761
(
17119.57
17119.568
17119.57
17119.568
17119.566
17114.597
17119.566
17114.597
17119.564
17114.596
17119.564
17114.595
17119.561
17114.593
17119.559
17114.338
17114.592
17119.563
17114.338
17114.591
17119.559
17114.336
17114.591
17119.563
17114.336
17114.591
17119.562
17114.334
17114.591
17119.566
17114.332
17114.591
17119.563
17114.35
17114.331
17114.591
17119.564
17114.35
17114.33
17114.593
17119.566
17114.348
17114.33
17114.594
17119.563
17114.347
17114.33
17114.594
17119.563
17114.345
17114.331
17114.592
17119.56
17114.342
17114.331
17114.591
17119.558
17114.335
17114.339
17114.331
17114.591
17119.562
17114.335
17114.339
17114.332
17114.592
17119.557
17114.332
17114.339
17114.331
17114.592
17119.563
17114.33
17114.34
17114.331
17114.592
17119.562
17114.326
17114.34
17114.331
17114.592
17119.562
17114.34
17114.323
17114.34
17114.331
17114.592
17119.558
17114.34
17114.323
17114.34
17114.331
17114.591
17119.557
17114.337
17114.323
17114.34
17114.331
17114.591
17119.564
17114.335
17114.323
17114.339
17114.331
17114.59
17119.559
17114.331
17114.323
17114.339
17114.332
17114.589
17119.562
17114.326
17114.323
17114.339
17114.332
17114.589
17119.56
17114.342
17114.322
17114.323
17114.339
17114.332
17114.591
17119.563
17114.342
17114.322
17114.323
17114.34
17114.331
17114.594
17119.56
17114.338
17114.322
17114.323
17114.34
17114.331
17114.596
17119.562
17114.333
17114.322
17114.323
17114.34
17114.33
17114.596
17119.566
17114.327
17114.322
17114.323
17114.34
17114.331
17114.594
17119.56
17114.351
17114.321
17114.322
17114.323
17114.34
17114.331
17114.592
17119.582
17114.35
17114.321
17114.322
17114.323
17114.34
17114.331
17114.592
17119.976
17114.346
17114.321
17114.322
17114.323
17114.34
17114.331
17114.591
17122.098
17114.342
17114.321
17114.322
17114.323
17114.34
17114.331
17114.592
17121.989
17114.336
17114.321
17114.322
17114.323
17114.34
17114.331
17114.594
17121.307
17114.328
17114.321
17114.322
17114.323
17114.34
17114.331
17114.621
17121.658
17114.354
17114.321
17114.321
17114.322
17114.323
17114.34
17114.33
17114.79
17124.319
17114.352
17114.321
17114.321
17114.322
17114.323
17114.34
17114.33
17115.146
17114.346
17114.321
17114.321
17114.322
17114.323
17114.34
17114.33
17115.521
17114.339
17114.321
17114.321
17114.322
17114.323
17114.34
17114.331
17115.794
17114.33
17114.321
17114.321
17114.322
17114.323
17114.34
17114.331
17116.004
17114.365
17114.321
17114.321
17114.321
17114.322
17114.323
17114.34
17114.331
17116.276
17114.363
17114.321
17114.321
17114.321
17114.322
17114.323
17114.34
17114.336
17116.769
17114.357
17114.321
17114.321
17114.321
17114.322
17114.323
17114.34
17114.394
17117.473
17114.352
17114.321
17114.321
17114.321
17114.322
17114.323
17114.34
17114.628
17118.156
17114.343
17114.321
17114.321
17114.321
17114.322
17114.323
17114.34
17115.009
17114.331
17114.321
17114.321
17114.321
17114.322
17114.323
17114.34
17115.353
17114.368
17114.321
17114.321
17114.321
17114.321
17114.322
17114.323
17114.34
17115.589
17114.366
17114.321
17114.321
17114.321
17114.321
17114.322
17114.323
17114.341
17115.781
17114.357
17114.321
17114.321
17114.321
17114.321
17114.322
17114.323
17114.352
17116.059
17114.346
17114.321
17114.321
17114.321
17114.321
17114.322
17114.323
17114.452
17116.566
17114.333
17114.321
17114.321
17114.321
17114.321
17114.322
17114.323
17114.744
17117.266
17114.375
17114.321
17114.321
17114.321
17114.321
17114.321
17114.322
17114.323
17115.13
17117.936
17114.373
17114.321
17114.321
17114.321
17114.321
17114.321
17114.322
17114.323
17115.439
17114.362
17114.321
17114.321
17114.321
17114.321
17114.321
17114.322
17114.323
17115.643
17114.351
17114.321
17114.321
17114.321
17114.321
17114.321
17114.322
17114.323
17115.822
17114.335
17114.321
17114.321
17114.321
17114.321
17114.321
17114.322
17114.324
17116.109
17114.376
17114.321
17114.321
17114.321
17114.321
17114.321
17114.321
17114.322
17114.348
17116.629
17114.372
17114.321
17114.321
17114.321
17114.321
17114.321
17114.321
17114.322
17114.499
17117.323
17114.354
17114.321
17114.321
17114.321
17114.321
17114.321
17114.321
17114.322
17114.837
17117.984
17114.337
17114.321
17114.321
17114.321
17114.321
17114.321
17114.321
17114.322
17115.212
17114.394
17114.321
17114.321
17114.321
17114.321
17114.321
17114.321
17114.321
17114.322
17115.484
17114.391
17114.321
17114.321
17114.321
17114.321
17114.321
17114.321
17114.321
17114.322
17115.662
17114.376
17114.321
17114.321
17114.321
17114.321
17114.321
17114.321
17114.321
17114.322
17115.833
17114.36
17114.321
17114.321
17114.321
17114.321
17114.321
17114.321
17114.321
17114.325
17116.132
17114.339
17114.321
17114.321
17114.321
17114.321
17114.321
17114.321
17114.321
17114.371
17116.664
17114.393
17114.321
17114.321
17114.321
17114.321
17114.321
17114.321
17114.321
17114.321
17114.577
17117.35
17114.388
17114.321
17114.321
17114.321
17114.321
17114.321
17114.321
17114.321
17114.321
17114.944
17118.002
17114.365
17114.321
17114.321
17114.321
17114.321
17114.321
17114.321
17114.321
17114.321
17115.296
17114.342
17114.321
17114.321
17114.321
17114.321
17114.321
17114.321
17114.321
17114.321
17115.533
17114.402
17114.321
17114.321
17114.321
17114.321
17114.321
17114.321
17114.321
17114.321
17114.321
17115.69
17114.397
17114.321
17114.321
17114.321
17114.321
17114.321
17114.321
17114.321
17114.321
17114.329
17115.859
17114.37
17114.321
17114.321
17114.321
17114.321
17114.321
17114.321
17114.321
17114.321
17114.407
17116.172
17114.344
17114.321
17114.321
17114.321
17114.321
17114.321
17114.321
17114.321
17114.321
17114.666
17116.714
17114.413
17114.321
17114.321
17114.321
17114.321
17114.321
17114.321
17114.321
17114.321
17114.321
17115.045
17117.393
17114.406
17114.321
17114.321
17114.321
17114.321
17114.321
17114.321
17114.321
17114.321
17114.321
17115.368
17118.036
17114.376
17114.321
17114.321
17114.321
17114.321
17114.321
17114.321
17114.321
17114.321
17114.321
17115.574
17114.347
17114.321
17114.321
17114.321
17114.321
17114.321
17114.321
17114.321
17114.321
17114.322
17115.715
17114.421
17114.321
17114.321
17114.321
17114.321
17114.321
17114.321
17114.321
17114.321
17114.321
17114.338
17115.884
17114.414
17114.321
17114.321
17114.321
17114.321
17114.321
17114.321
17114.321
17114.321
17114.321
17114.456
17116.212
17114.38
17114.321
17114.321
17114.321
17114.321
17114.321
17114.321
17114.321
17114.321
17114.321
17114.76
17116.762
17114.347
17114.321
17114.321
17114.321
17114.321
17114.321
17114.321
17114.321
17114.321
17114.321
17115.137
17117.432
17114.42
17114.318
17114.321
17114.321
17114.321
17114.321
17114.321
17114.321
17114.321
17114.321
17114.321
17115.429
17118.068
17114.412
17114.318
17114.321
17114.321
17114.321
17114.321
17114.321
17114.321
17114.321
17114.321
17114.321
17115.608
17114.374
17114.318
17114.321
17114.321
17114.321
17114.321
17114.321
17114.321
17114.321
17114.321
17114.323
17115.737
17114.338
17114.318
17114.321
17114.321
17114.321
17114.321
17114.321
17114.321
17114.321
17114.321
17114.353
17115.908
17114.345
17114.305
17114.318
17114.321
17114.321
17114.321
17114.321
17114.321
17114.321
17114.321
17114.321
17114.517
17116.252
17114.332
17114.305
17114.318
17114.321
17114.321
17114.321
17114.321
17114.321
17114.321
17114.321
17114.321
17114.856
17116.809
17114.283
17114.306
17114.318
17114.321
17114.321
17114.321
17114.321
17114.321
17114.321
17114.321
17114.321
17115.22
17117.471
17114.173
17114.249
17114.306
17114.318
17114.321
17114.321
17114.321
17114.321
17114.321
17114.321
17114.321
17114.321
17115.48
17118.099
17114.16
17114.249
17114.306
17114.318
17114.321
17114.321
17114.321
17114.321
17114.321
17114.321
17114.321
17114.321
17115.636
17114.106
17114.25
17114.306
17114.318
17114.321
17114.321
17114.321
17114.321
17114.321
17114.321
17114.321
17114.325
17115.755
17113.817
17114.07
17114.251
17114.306
17114.318
17114.321
17114.321
17114.321
17114.321
17114.321
17114.321
17114.321
17114.377
17115.933
17113.804
17114.072
17114.251
17114.306
17114.318
17114.321
17114.321
17114.321
17114.321
17114.321
17114.321
17114.321
17114.588
17116.293
17113.747
17114.074
17114.252
17114.307
17114.319
17114.321
17114.321
17114.321
17114.321
17114.321
17114.321
17114.321
17114.949
17116.854
17113.07
17113.71
17114.076
17114.253
17114.307
17114.319
17114.321
17114.321
17114.321
17114.321
17114.321
17114.321
17114.321
17115.294
17117.508
17113.058
17113.714
17114.078
17114.253
17114.307
17114.319
17114.321
17114.321
17114.321
17114.321
17114.321
17114.321
17114.321
17115.523
17118.129
17113.001
17113.719
17114.08
17114.254
17114.307
17114.319
17114.321
17114.321
17114.321
17114.321
17114.321
17114.321
17114.321
17115.66
17111.57
17112.966
17113.724
17114.082
17114.255
17114.307
17114.319
17114.321
17114.321
17114.321
17114.321
17114.321
17114.321
17114.33
17115.772
17111.565
17112.976
17113.728
17114.084
17114.255
17114.307
17114.319
17114.321
17114.321
17114.321
17114.321
17114.321
17114.321
17114.41
17115.958
17111.512
17112.987
17113.733
17114.086
17114.256
17114.308
17114.319
17114.321
17114.321
17114.321
17114.321
17114.321
17114.321
17114.667
17116.335
17108.75
17111.483
17113.001
17113.737
17114.088
17114.257
17114.308
17114.319
17114.321
17114.321
17114.321
17114.321
17114.321
17114.321
17115.038
17116.899
17108.749
17111.51
17113.012
17113.742
17114.09
17114.257
17114.308
17114.319
17114.321
17114.321
17114.321
17114.321
17114.321
17114.321
17115.357
17117.544
17104.52
17108.735
17111.535
17113.023
17113.747
17114.092
17114.258
17114.308
17114.319
17114.321
17114.321
17114.321
17114.321
17114.321
17114.322
17115.559
17118.158
17104.534
17108.783
17111.554
17113.034
17113.752
17114.094
17114.259
17114.308
17114.319
17114.321
17114.321
17114.321
17114.321
17114.321
17114.338
17115.681
17098.017
17104.539
17108.819
17111.573
17113.045
17113.757
17114.096
17114.259
17114.308
17114.319
17114.321
17114.321
17114.321
17114.321
17114.321
17114.456
17115.792
17098.078
17104.617
17108.852
17111.593
17113.055
17113.761
17114.098
17114.26
17114.309
17114.319
17114.321
17114.321
17114.321
17114.321
17114.321
17114.752
17115.991
17098.113
17104.678
17108.887
17111.615
17113.065
17113.765
17114.101
17114.261
17114.309
17114.319
17114.321
17114.321
17114.321
17114.321
17114.321
17115.121
17116.383
17090.02
17098.169
17104.742
17108.922
17111.637
17113.074
17113.77
17114.103
17114.261
17114.309
17114.319
17114.321
17114.321
17114.321
17114.321
17114.321
17115.412
17116.944
17090.146
17098.297
17104.799
17108.957
17111.659
17113.083
17113.775
17114.105
17114.262
17114.309
17114.319
17114.321
17114.321
17114.321
17114.321
17114.321
17115.587
17117.576
17084.039
17090.238
17098.404
17104.858
17108.993
17111.68
17113.093
17113.78
17114.108
17114.263
17114.309
17114.319
17114.321
17114.321
17114.321
17114.321
17114.323
17115.695
17118.182
17084.26
17090.427
17098.504
17104.919
17109.029
17111.7
17113.103
17113.785
17114.11
17114.263
17114.309
17114.319
17114.321
17114.321
17114.321
17114.321
17114.353
17115.804
17086.389
17084.425
17090.578
17098.605
17104.98
17109.065
17111.72
17113.113
17113.79
17114.112
17114.264
17114.31
17114.319
17114.321
17114.321
17114.321
17114.321
17114.511
17116.013
17098.866
17086.519
17084.632
17090.731
17098.707
17105.042
17109.101
17111.74
17113.124
17113.795
17114.114
17114.265
17114.31
17114.319
17114.321
17114.321
17114.321
17114.321
17114.839
17116.42
17098.706
17086.608
17084.821
17090.885
17098.809
17105.105
17109.137
17111.761
17113.135
17113.799
17114.116
17114.266
17114.31
17114.319
17114.321
17114.321
17114.321
17114.321
17115.198
17116.984
17109.903
17098.456
17086.7
17085.014
17091.041
17098.912
17105.168
17109.173
17111.782
17113.145
17113.804
17114.118
17114.266
17114.31
17114.319
17114.321
17114.321
17114.321
17114.321
17115.46
17117.613
17109.616
17098.289
17086.786
17085.204
17091.199
17099.015
17105.231
17109.208
17111.804
17113.156
17113.809
17114.121
17114.267
17114.31
17114.319
17114.321
17114.321
17114.321
17114.325
17115.614
17118.215
17111.14
17109.084
17098.116
17086.871
17085.393
17091.359
17099.12
17105.294
17109.245
17111.825
17113.166
17113.813
17114.123
17114.268
17114.31
17114.319
17114.321
17114.321
17114.321
17114.375
17115.714
17105.209
17110.851
17108.667
17097.931
17086.956
17085.582
17091.519
17099.226
17105.357
17109.282
17111.846
17113.176
17113.818
17114.125
17114.268
17114.311
17114.319
17114.321
17114.321
17114.321
17114.576
17115.826
17104.071
17105.257
17110.387
17108.247
17097.746
17087.044
17085.768
17091.68
17099.332
17105.42
17109.32
17111.867
17113.186
17113.823
17114.127
17114.269
17114.311
17114.319
17114.321
17114.321
17114.321
17114.924
17116.052
17104.929
17105.237
17109.944
17107.844
17097.56
17087.135
17085.953
17091.842
17099.439
17105.483
17109.358
17111.888
17113.196
17113.828
17114.13
17114.27
17114.311
17114.319
17114.321
17114.321
17114.321
17115.265
17116.47
17100.689
17105.569
17105.141
17109.5
17107.454
17097.379
17087.228
17086.137
17092.005
17099.546
17105.547
17109.396
17111.909
17113.207
17113.832
17114.132
17114.271
17114.311
17114.319
17114.321
17114.321
17114.321
17115.499
17117.026
17098.55
17101.171
17106.171
17104.999
17109.057
17107.076
17097.201
17087.324
17086.321
17092.168
17099.653
17105.612
17109.434
17111.929
17113.217
17113.837
17114.134
17114.271
17114.311
17114.319
17114.321
17114.321
17114.329
17115.634
17117.641
17099.617
17098.177
17101.785
17106.632
17104.833
17108.612
17106.707
17097.026
17087.422
17086.504
17092.332
17099.761
17105.676
17109.472
17111.95
17113.228
17113.842
17114.137
17114.272
17114.311
17114.319
17114.321
17114.321
17114.405
17115.726
17118.237
17098.294
17099.394
17097.683
17102.609
17106.986
17104.669
17108.164
17106.346
17096.856
17087.521
17086.689
17092.496
17099.869
17105.741
17109.509
17111.971
17113.238
17113.847
17114.139
17114.273
17114.312
17114.32
17114.321
17114.321
17114.648
17115.845
17094.427
17098.932
17099.089
17097.154
17103.668
17107.228
17104.493
17107.715
17105.995
17096.688
17087.623
17086.874
17092.66
17099.979
17105.807
17109.547
17111.992
17113.249
17113.851
17114.141
17114.273
17114.312
17114.32
17114.321
17114.321
17115.007
17116.085
17092.912
17094.555
17099.856
17098.603
17096.555
17104.808
17107.366
17104.299
17107.267
17105.66
17096.523
17087.725
17087.058
17092.824
17100.089
17105.873
17109.584
17112.014
17113.259
17113.856
17114.143
17114.274
17114.312
17114.32
17114.321
17114.322
17115.327
17116.513
17089.859
17091.279
17092.506
17094.824
17101.001
17097.897
17095.838
17106.121
17107.412
17104.088
17106.826
17105.342
17096.362
17087.826
17087.242
17092.987
17100.201
17105.938
17109.621
17112.035
17113.269
17113.861
17114.146
17114.275
17114.312
17114.32
17114.321
17114.337
17115.537
17117.066
17090.258
17089.268
17090.929
17091.947
17095.11
17102.078
17097.008
17095.14
17107.569
17107.352
17103.854
17106.406
17105.036
17096.209
17087.922
17087.424
17093.15
17100.313
17106.004
17109.659
17112.057
17113.28
17113.865
17114.148
17114.275
17114.312
17114.32
17114.321
17114.446
17115.659
17117.673
17087.987
17094.945
17088.721
17088.755
17090.411
17091.438
17095.754
17102.624
17096.174
17094.825
17108.948
17107.129
17103.607
17106.017
17104.73
17096.063
17088.013
17087.607
17093.312
17100.425
17106.069
17109.698
17112.079
17113.29
17113.87
17114.15
17114.276
17114.312
17114.32
17114.321
17114.726
17115.75
17118.263
17074.305
17082.334
17098.628
17093.22
17087.657
17088.419
17089.987
17091.038
17097.092
17102.652
17095.322
17095.427
17110.112
17106.752
17103.354
17105.662
17104.422
17095.922
17088.1
17087.79
17093.475
17100.537
17106.134
17109.738
17112.101
17113.3
17113.875
17114.153
17114.277
17114.313
17114.32
17114.321
17115.085
17115.876
17069.301
17061.333
17071.947
17092.514
17099.955
17090.245
17087.389
17088.267
17089.456
17090.739
17098.592
17102.163
17094.473
17096.785
17111.015
17106.275
17103.101
17105.333
17104.121
17095.785
17088.186
17087.973
17093.637
17100.648
17106.2
17109.778
17112.122
17113.311
17113.879
17114.155
17114.278
17114.313
17114.32
17114.321
17115.379
17116.124
17191.316
17118.113
17071.607
17052.293
17056.944
17077.141
17099.727
17095.197
17088.619
17087.491
17088.208
17088.707
17090.496
17100.751
17101.34
17093.61
17098.225
17111.649
17105.747
17102.863
17105.017
17103.825
17095.654
17088.274
17088.154
17093.801
17100.759
17106.266
17109.817
17112.144
17113.321
17113.884
17114.157
17114.278
17114.313
17114.32
17114.322
17115.561
17116.553
17296.509
17248.276
17168.237
17109.551
17075.306
17052.642
17045.143
17057.709
17089.194
17099.215
17091.699
17087.915
17087.622
17088.111
17088.065
17090.267
17102.886
17100.36
17092.748
17099.512
17112.078
17105.21
17102.651
17104.697
17103.546
17095.529
17088.36
17088.335
17093.964
17100.869
17106.331
17109.857
17112.165
17113.332
17113.888
17114.16
17114.279
17114.313
17114.32
17114.35
17115.666
17117.097
17126.855
17081.292
17104.628
17143.445
17165.299
17172.482
17140.548
17095.18
17068.488
17055.254
17044.253
17044.356
17069.672
17093.393
17093.504
17090.056
17087.733
17087.6
17088.001
17087.52
17090.299
17104.08
17099.268
17091.94
17101.168
17112.283
17104.677
17102.458
17104.368
17103.289
17095.409
17088.444
17088.515
17094.128
17100.98
17106.397
17109.897
17112.187
17113.342
17113.893
17114.162
17114.28
17114.313
17114.32
17114.497
17115.75
17117.695
17172.698
17162.107
17154.624
17183.231
17228.454
17268.763
17282.527
17239.217
17142.008
17070.591
17032.732
17024.321
17048.457
17078.996
17078.322
17059.706
17049.881
17046.792
17042.709
17054.497
17077.672
17088.296
17090.549
17089.613
17087.903
17087.277
17087.441
17086.932
17092.523
17104.33
17097.984
17091.176
17103.229
17112.276
17104.138
17102.285
17104.036
17103.046
17095.292
17088.527
17088.695
17094.291
17101.091
17106.464
17109.937
17112.208
17113.353
17113.897
17114.164
17114.28
17114.313
17114.32
17114.807
17115.884
17118.281
47805.205
67384.335
50783.736
25119.446
17986.176
16923.857
16783.655
16757.535
16750.145
16741.018
16733.425
16747.77
16809.861
16905.612
16894.351
16944.158
17223.917
17231.642
16967.357
16983.115
17274.689
17268.302
16919.769
16396.81
16292.537
16402.341
16637.821
16884.914
17093.654
17189.343
17224.606
17230.582
17191.959
17195.932
17237.746
17221.22
17202.785
17219.088
17255.787
17283.339
17279.212
17196.754
17049.781
16946.771
16913.587
16925.253
16975.063
17030.972
17049.713
17043.683
17042.312
17045.175
17051.698
17065.447
17076.264
17083.62
17089.453
17089.675
17088.301
17086.8
17086.21
17086.004
17096.697
17103.867
17096.257
17090.349
17105.603
17112.045
17103.605
17102.136
17103.706
17102.816
17095.182
17088.607
17088.876
17094.453
17101.202
17106.53
17109.976
17112.23
17113.363
17113.902
17114.167
17114.281
17114.313
17114.32
17115.159
17116.158
24907.533
24980.633
26462.545
31494.508
47007.346
67503.751
51876.389
25538.658
18113.277
16991.594
16842.167
16815.084
16807.83
16799.016
16791.444
16805.693
16867.222
16964.846
16954.213
17002.493
17283.111
17293.361
17029.503
17043.354
17334.844
17330.27
16983.332
16458.398
16352.227
16461.778
16697.191
16943.498
17150.041
17241.836
17271.131
17270.1
17224.935
17224.2
17257.981
17232.279
17202.208
17199.241
17198.532
17190.5
17159.82
17071.557
16936.936
16852.188
16840.255
16872.829
16940.387
17009.232
17036.969
17037.955
17041.306
17054.306
17064.028
17066.343
17069.928
17081.538
17089.233
17090.136
17088.493
17086.347
17084.604
17085.087
17102.745
17102.834
17094.554
17089.712
17108.155
17111.553
17103.092
17102.015
17103.385
17102.592
17095.075
17088.686
17089.055
17094.615
17101.314
17106.597
17110.016
17112.251
17113.373
17113.906
17114.169
17114.282
17114.313
17114.323
17115.429
17116.6
28553.55
26879.792
25651.477
24953.104
25004.202
26416.683
31246.109
46344.753
67424.094
52588.372
25932.67
18230.578
17045.124
16884.791
16856.157
16848.395
16839.178
16830.958
16844.447
16904.872
17002.744
16991.462
17037.739
17317.158
17327.269
17062.274
17073.913
17364.009
17358.871
17011.171
16484.537
16376.463
16484.4
16717.575
16960.556
17162.546
17248.687
17271.364
17261.615
17201.676
17177.103
17186.895
17138.369
17089.276
17074.972
17077.191
17077.915
17060.034
16988.069
16871.003
16803.16
16805.506
16849.193
16924.864
16999.891
17033.089
17038.345
17051.813
17066.839
17066.095
17059.624
17066.964
17080.934
17089.319
17090.537
17088.472
17085.661
17082.76
17084.934
17106.027
17101.513
17093.144
17089.728
17110.507
17110.764
17102.589
17101.919
17103.06
17102.368
17094.973
17088.764
17089.234
17094.778
17101.426
17106.663
17110.055
17112.272
17113.384
17113.911
17114.171
17114.282
17114.314
17114.368
17115.593
17117.143
36042.74
33154.325
30666.903
28579.062
26900.814
25665.02
24957.144
24995.886
26370.3
31098.348
45951.109
67011.73
52875.061
26176.236
18295.611
17063.266
16894.037
16863.855
16855.426
16845.593
16836.635
16849.281
16908.752
17006.034
16993.709
17038.32
17316.347
17325.15
17057.765
17066.653
17353.843
17344.136
16989.19
16457.086
16342.069
16441.448
16663.716
16893.763
17082.002
17154.99
17165.927
17146.892
17081.825
17058.559
17071.924
17029.586
16989.041
16984.985
16998.407
17011.673
17006.437
16946.879
16840.505
16781.324
16790.116
16839.066
16919.559
16997.821
17036.497
17051.165
17063.531
17068.856
17059.402
17056.051
17066.048
17080.873
17089.646
17090.725
17087.735
17084.301
17080.842
17089.193
17106.445
17100.061
17091.825
17091.552
17112.329
17109.772
17102.141
17101.82
17102.742
17102.145
17094.875
17088.844
17089.41
17094.94
17101.538
17106.73
17110.095
17112.293
17113.394
17113.915
17114.173
17114.283
17114.314
17114.554
17115.693
17117.735
56550.707
51488.812
46918.594
42805.162
39122.76
35853.641
32986.026
30514.37
28439.567
26772.776
25547.382
24850.601
24906.634
26304.271
31049.493
45858.95
66630.371
52158.816
26052.435
18272.155
17010.234
16831.644
16799.392
16789.773
16778.519
16768.165
16779.388
16837.643
16932.096
16916.356
16958.762
17233.917
17236.994
16965.105
16973.192
17257.657
17242.382
16883.688
16354.638
16241.217
16340.101
16561.094
16790.201
16978.616
17053.685
17068.37
17054.341
16995.582
16979.035
16999.823
16965.874
16934.12
16938.463
16959.814
16980.488
16981.972
16928.583
16827.326
16772.224
16785.03
16836.553
16920.348
17006.37
17050.811
17060.732
17064.465
17061.912
17055.42
17054.925
17065.944
17081.227
17090.026
17090.751
17087.087
17082.343
17079.688
17097.809
17104.429
17098.593
17090.607
17094.236
17113.421
17108.747
17101.751
17101.681
17102.497
17101.926
17094.781
17088.924
17089.583
17095.103
17101.65
17106.796
17110.134
17112.314
17113.404
17113.92
17114.176
17114.284
17114.314
17114.885
17115.781
17118.316
108816.7
98710.335
89640.409
81475.042
74102.459
67429.505
61380.032
55892.712
50918.256
46418.407
42363.458
38731.595
35507.217
32679.963
30244.556
28201.997
26563.842
25364.318
24692.225
24776.365
26226.613
31104.864
46092.255
66363.807
51148.395
25763.609
18227.944
16939.415
16751.996
16718.537
16708.751
16697.216
16686.793
16698.011
16756.636
16849.989
16833.244
16875.914
17150.348
17151.904
16880.233
16890.236
17175.202
17160.027
16803.486
16279.638
16169.464
16270.442
16493.156
16724.245
16915.271
16994.079
17013.267
17004.178
16950.756
16939.186
16964.824
16935.819
16908.807
16917.273
16942.423
16966.574
16971.315
16921.514
16823.487
16770.312
16785.938
16843.878
16933.7
17019.776
17057.937
17059.642
17057.303
17057.901
17054.108
17054.784
17066.28
17081.642
17090.22
17089.757
17085.735
17079.771
17080.026
17105.243
17101.988
17097.082
17089.576
17097.099
17113.803
17107.783
17101.41
17101.5
17102.293
17101.717
17094.692
17089.008
17089.751
17095.266
17101.763
17106.862
17110.174
17112.336
17113.414
17113.924
17114.178
17114.284
17114.314
17115.224
17115.92
49777064
15868217
7049430.4
3829939.3
2393793.3
1652959.7
1219163.8
938945.18
746641.34
609563.85
508846.4
432676.75
373383.96
325934.83
287014.2
254415.72
226650.67
202698.01
181832.17
163516.4
147349.37
133017.77
120266.05
108884.49
98695.436
89548.254
81317.281
73894.358
67187.325
61118.594
55623.81
50651.201
46159.658
42117.142
38500.09
35291.677
32480.714
30061.383
28034.349
26411.01
25225.6
24567.077
24665.786
26145.582
31047.482
46019.878
66143.273
50648.325
25729.589
18234.438
16894.736
16696.338
16661.993
16652.585
16641.422
16631.549
16643.354
16702.838
16796.088
16779.516
16823.094
17097.343
17099.184
16829.1
16840.884
17126.62
17112.926
16759.55
16239.834
16132.012
16234.753
16459
16691.685
16884.46
16965.542
16987.247
16980.854
16930.27
16921.075
16949.013
16922.489
16897.66
16908.254
16935.842
16962.312
16968.605
16920.906
16826.515
16779.07
16799.447
16858.138
16943.131
17022.616
17052.945
17052.673
17053.681
17056.591
17053.921
17055.076
17066.686
17082.047
17090.228
17088.868
17083.187
17076.942
17087.883
17106.391
17099.892
17095.314
17088.7
17100.684
17113.718
17106.833
17101.135
17101.3
17102.106
17101.515
17094.605
17089.095
17089.917
17095.429
17101.875
17106.929
17110.213
17112.357
17113.425
17113.929
17114.18
17114.285
17114.321
17115.468
17116.196
2.9789343e+08
49821594
15881609
7055160
3833305.6
2396502.3
1655734.8
1222247.1
942241.71
749911.48
612565.13
511398.42
434673.85
374785.94
326753.77
287300.25
254241.89
226107.82
201887.35
180850.75
162448.11
146260.91
131958.37
119269.21
107970.83
97875.85
88826.252
80688.768
73350.639
66717.702
60712.287
55271.071
50343.761
45890.765
41881.38
38293.104
35109.915
32321.2
29921.562
27911.994
26304.198
25132.715
24486.637
24596.775
26099.69
31055.416
46048.593
66031.022
50404.257
25791.809
18272.347
16875.711
16666.062
16630.779
16621.733
16610.977
16601.634
16613.986
16674.177
16767.519
16751.32
16795.543
17069.44
17071.999
16803.589
16816.246
17102.109
17089.897
16739.402
16222.235
16115.34
16218.834
16443.736
16677.159
16870.686
16952.829
16975.654
16970.622
16921.646
16913.872
16943.502
16918.522
16894.699
16906.423
16935.563
16964.648
16975.663
16932.446
16841.046
16793.077
16809.25
16862.605
16941.469
17015.626
17047.37
17049.77
17052.597
17056.407
17054.197
17055.527
17067.093
17082.26
17089.31
17087.616
17079.705
17075.536
17101.994
17103.698
17098.28
17092.718
17087.755
17105.019
17113.19
17105.842
17100.939
17101.106
17101.926
17101.318
17094.522
17089.183
17090.081
17095.591
17101.988
17106.996
17110.253
17112.378
17113.435
17113.933
17114.183
17114.286
17114.39
17115.614
17116.636
2.9816555e+08
49866931
15896009
7061842.3
3837444.6
2399673.9
1658382.3
1224405.7
943862.39
750960.95
613052.96
511366.63
434192.31
373947.75
325663.58
286061.07
252947.35
224831.36
200678.69
179739.5
161448.58
145376.28
131184.37
118597.12
107389.51
97373.438
88391.311
80311.093
73021.544
66430.015
60460.188
55049.868
50149.654
45720.627
41732.582
38163.362
34997.165
32223.506
29837.064
27838.895
26240.774
25077.248
24437.002
24549.754
26057.204
31005.745
45918.184
65965.892
50531.219
25972.919
18327.809
16873.106
16652.06
16615.632
16606.82
16596.405
16587.442
16600.155
16660.719
16754.21
16738.352
16782.712
17056.036
17059.498
16792.532
16805.222
17090.748
17079.846
16731.966
16216.341
16109.543
16213.294
16438.497
16672.393
16866.384
16949.092
16972.432
16968.112
16920.015
16913.094
16943.951
16921.264
16900.812
16915.546
16947.493
16978.496
16989.477
16944.439
16849.488
16796.663
16808.187
16856.432
16934.814
17011.47
17045.246
17049.063
17052.484
17056.67
17054.653
17055.917
17067.289
17081.827
17088.467
17084.931
17075.908
17080.272
17109.109
17101.055
17096.806
17090.194
17086.623
17109.812
17112.339
17104.841
17100.802
17100.93
17101.747
17101.129
17094.443
17089.27
17090.245
17095.753
17102.1
17107.063
17110.292
17112.399
17113.445
17113.938
17114.185
17114.286
17114.614
17115.705
17117.17
2.984292e+08
49910936
15910410
7068529.2
3841301.4
2402379.1
1660559.5
1226227.4
945355.53
752149.17
613986.68
512108.15
434797.24
374453.06
326090.23
286419.61
253243.05
225068.01
200860.46
179871.57
161536.93
145427.23
131204.16
118591.51
107364.16
97333.638
88341.652
80255.338
72962.695
66370.424
60401.686
54993.855
50097.161
45672.337
41688.83
38124.148
34962.197
32192.273
29808.899
27813.029
26216.355
25053.222
24411.269
24518.37
26014.093
30923.374
45690.078
65914.625
50911.86
26234.903
18392.893
16879.761
16648.474
16610.818
16602.121
16591.926
16583.155
16596.002
16656.646
16750.325
16734.67
16778.801
17051.834
17056.139
16789.907
16802.167
17087.497
17077.63
16731.512
16216.484
16109.362
16213.127
16438.553
16673.026
16867.895
16952.089
16977.317
16975.075
16929.076
16923.817
16956.346
16934.857
16914.452
16928.369
16957.991
16986.515
16993.982
16945.266
16846.209
16790.534
16801.899
16852.255
16932.232
17010.154
17044.82
17049.08
17052.814
17057.091
17054.989
17056.161
17067.296
17080.993
17087.01
17081.017
17074.091
17096.718
17106.385
17098.863
17095.299
17088.07
17085.863
17114.086
17111.123
17103.885
17100.676
17100.751
17101.578
17100.949
17094.361
17089.355
17090.412
17095.913
17102.212
17107.13
17110.332
17112.42
17113.455
17113.942
17114.187
17114.287
17114.96
17115.792
17117.754
2.986884e+08
49954264
15924671
7075243
3845220.6
2405067.1
1662570.2
1227752.7
946504.05
753023.2
614678.35
512686.66
435305.67
374912.46
326507.24
286793.53
253571.36
225349.25
201095.57
180063.74
161690.96
145548.73
131298.85
118664.82
107420.62
97376.926