/*--------------------------------*- C++ -*----------------------------------*\
| =========                 |                                                 |
| \\      /  F ield         | OpenFOAM: The Open Source CFD Toolbox           |
|  \\    /   O peration     | Version:  2506                                  |
|   \\  /    A nd           | Website:  www.openfoam.com                      |
|    \\/     M anipulation  |                                                 |
\*---------------------------------------------------------------------------*/
FoamFile
{
    version     2.0;
    format      ascii;
    arch        "LSB;label=32;scalar=64";
    class       volScalarField;
    location    "0.0215";
    object      p;
}
// * * * * * * * * * * * * * * * * * * * * * * * * * * * * * * * * * * * * * //

dimensions      [1 -1 -2 0 0 0 0];

internalField   nonuniform List<scalar> 
13761
(
46918.962
46919.514
46920.104
46920.731
46921.396
46922.1
46922.843
46923.625
46924.446
46925.306
46926.203
46927.136
46928.101
46929.088
46930.082
46931.057
46931.972
46932.764
46933.344
46933.602
46933.421
46932.705
46931.384
46929.416
47085.582
47085.629
47085.671
47085.717
47085.767
47085.822
47085.882
47085.951
47086.026
47086.111
47086.205
47086.31
47086.426
47086.553
47086.693
47086.847
47087.014
47087.199
47087.4
47087.619
47087.859
47088.12
47088.405
47088.714
47089.05
47089.414
47089.809
47090.235
47090.695
47091.19
47091.721
47092.291
47092.9
47093.551
47094.244
47094.983
47095.77
47096.606
47097.493
47098.434
47099.427
47100.469
47101.549
47102.646
47103.728
47104.753
47105.672
47106.446
47107.062
47107.548
47195.09
47195.116
47195.139
47195.164
47195.191
47195.221
47195.255
47195.293
47195.335
47195.382
47195.435
47195.493
47195.558
47195.63
47195.71
47195.798
47195.895
47196.001
47196.119
47196.248
47196.39
47196.546
47196.718
47196.906
47197.111
47197.337
47197.583
47197.852
47198.145
47198.466
47198.816
47199.197
47199.614
47200.07
47200.568
47201.113
47201.711
47202.368
47203.091
47203.887
47204.763
47205.726
47206.774
47207.903
47209.148
47210.585
47212.26
47214.195
47241.578
47241.584
47241.591
47241.597
47241.604
47241.612
47241.62
47241.629
47241.639
47241.65
47241.663
47241.677
47241.693
47241.71
47241.731
47241.753
47241.779
47241.808
47241.841
47241.878
47241.92
47241.968
47242.023
47242.085
47242.155
47242.235
47242.327
47242.431
47242.552
47242.69
47242.85
47243.035
47243.249
47243.499
47243.792
47244.134
47244.537
47245.013
47245.578
47246.252
47247.06
47248.035
47249.218
47250.668
47252.315
47254.109
47241.568
47241.556
47241.545
47241.534
47241.521
47241.507
47241.49
47241.472
47241.451
47241.427
47241.4
47241.371
47241.338
47241.303
47241.263
47241.22
47241.172
47241.12
47241.063
47241.001
47240.932
47240.857
47240.774
47240.684
47240.584
47240.476
47240.356
47240.226
47240.083
47239.926
47239.755
47239.567
47239.362
47239.137
47238.891
47238.623
47238.33
47238.01
47237.661
47237.281
47236.87
47236.427
47235.956
47175.024
47174.999
47174.975
47174.951
47174.925
47174.896
47174.863
47174.827
47174.787
47174.741
47174.69
47174.634
47174.573
47174.505
47174.431
47174.349
47174.261
47174.164
47174.058
47173.943
47173.818
47173.682
47173.534
47173.373
47173.199
47173.01
47172.805
47172.584
47172.344
47172.086
47171.807
47171.506
47171.181
47170.83
47170.451
47170.04
47169.594
47169.107
47168.576
47085.732
47085.695
47085.659
47085.623
47085.582
47085.538
47085.488
47085.433
47085.371
47085.301
47085.224
47085.138
47085.044
47084.94
47084.826
47084.702
47084.565
47084.415
47084.252
47084.073
47083.879
47083.666
47083.434
47083.182
47082.908
47082.61
47082.287
47081.935
47081.554
47081.14
47080.691
47080.202
47079.671
47079.093
47078.462
46939.534
46939.481
46939.435
46939.385
46939.33
46939.269
46939.203
46939.128
46939.044
46938.951
46938.847
46938.733
46938.607
46938.468
46938.316
46938.15
46937.968
46937.768
46937.551
46937.313
46937.053
46936.769
46936.46
46936.121
46935.752
46935.35
46329.399
46329.399
46329.399
46329.398
46329.398
46329.398
46329.398
46329.398
46329.398
46329.399
46329.399
46329.4
46329.402
46329.403
46329.405
46329.407
46329.41
46329.413
46329.416
46329.42
46329.425
46329.43
46329.436
46329.443
46329.45
46329.459
46329.468
46329.479
46329.491
46329.504
46329.519
46329.536
46329.554
46329.574
46329.597
46329.622
46329.65
46329.681
46329.716
46329.755
46329.798
46329.847
46329.901
46329.961
46330.027
46330.096
46330.166
46330.235
46330.301
46330.352
46330.351
46330.351
46330.351
46330.35
46330.35
46330.35
46330.349
46330.349
46330.35
46330.35
46330.35
46330.351
46330.352
46330.354
46330.355
46330.357
46330.359
46330.362
46330.365
46330.368
46330.372
46330.376
46330.381
46330.386
46330.393
46330.399
46330.407
46330.416
46330.425
46330.435
46330.446
46330.458
46330.472
46330.486
46330.502
46330.52
46330.539
46330.56
46330.582
46330.608
46330.635
46330.665
46330.697
46330.73
46330.762
46330.79
46330.811
46330.82
46330.815
46330.794
46330.757
46330.703
46330.637
46330.587
46330.574
46330.611
46330.719
46330.927
46331.244
46331.807
46332.753
46333.772
46334.754
46335.676
46336.573
46337.456
46338.286
46339.106
46340.023
46341.002
46342.052
46343.22
46344.482
46345.874
46347.348
46348.984
46350.771
46352.72
46354.837
46357.145
46359.684
46362.433
46365.429
46368.645
46372.151
46376.031
46380.32
46385.049
46390.191
46335.473
46335.472
46335.471
46335.47
46335.469
46335.468
46335.467
46335.466
46335.465
46335.464
46335.464
46335.463
46335.463
46335.463
46335.462
46335.462
46335.463
46335.463
46335.463
46335.464
46335.465
46335.466
46335.468
46335.469
46335.472
46335.474
46335.477
46335.48
46335.484
46335.489
46335.494
46335.499
46335.505
46335.512
46335.519
46335.527
46335.537
46335.547
46335.558
46335.57
46335.584
46335.599
46335.616
46335.633
46335.651
46335.668
46335.681
46335.688
46335.687
46335.675
46335.651
46335.614
46335.564
46335.504
46335.454
46335.433
46335.475
46335.544
46335.773
46336.123
46336.553
46337.161
46337.908
46338.719
46339.6
46340.474
46341.275
46342.073
46342.932
46343.853
46344.818
46345.904
46347.03
46348.243
46349.586
46351.042
46352.648
46354.346
46356.217
46358.257
46360.466
46362.918
46365.577
46368.494
46371.673
46375.132
46378.925
46383.097
46387.673
46392.623
46398.029
46403.962
46410.527
46417.8
46425.829
46434.509
46444.207
46454.88
46466.617
46342.558
46342.557
46342.556
46342.555
46342.554
46342.553
46342.552
46342.552
46342.551
46342.55
46342.55
46342.549
46342.549
46342.549
46342.549
46342.549
46342.549
46342.55
46342.551
46342.552
46342.553
46342.555
46342.557
46342.56
46342.563
46342.567
46342.571
46342.576
46342.581
46342.588
46342.595
46342.604
46342.613
46342.624
46342.636
46342.65
46342.666
46342.684
46342.704
46342.727
46342.753
46342.783
46342.817
46342.856
46342.898
46342.944
46342.991
46343.04
46343.087
46343.133
46343.177
46343.221
46343.266
46343.317
46343.389
46343.503
46343.63
46343.777
46343.98
46344.185
46344.346
46344.55
46344.818
46345.1
46345.455
46345.856
46346.346
46346.896
46347.565
46348.327
46349.163
46350.084
46351.17
46352.348
46353.609
46355.033
46356.57
46358.229
46360.013
46361.969
46364.114
46366.464
46369.016
46371.818
46374.94
46378.337
46382.047
46386.092
46390.523
46395.308
46400.563
46406.33
46412.655
46419.674
46427.52
46435.979
46445.378
46455.791
46467.319
46479.991
46493.883
46508.965
46524.951
46541.501
46347.21
46347.209
46347.209
46347.209
46347.208
46347.208
46347.207
46347.207
46347.207
46347.207
46347.207
46347.208
46347.208
46347.209
46347.21
46347.212
46347.214
46347.216
46347.218
46347.221
46347.224
46347.228
46347.233
46347.238
46347.244
46347.25
46347.257
46347.266
46347.275
46347.285
46347.297
46347.309
46347.324
46347.339
46347.357
46347.377
46347.398
46347.423
46347.45
46347.481
46347.515
46347.554
46347.596
46347.643
46347.694
46347.747
46347.8
46347.85
46347.896
46347.935
46347.97
46348.003
46348.039
46348.09
46348.184
46348.341
46348.542
46348.772
46348.991
46349.271
46349.681
46349.821
46349.654
46349.637
46349.71
46349.941
46350.399
46351.084
46351.861
46352.679
46353.574
46354.526
46355.587
46356.738
46357.958
46359.3
46360.748
46362.382
46364.136
46366.035
46368.101
46370.35
46372.799
46375.485
46378.497
46381.785
46385.391
46389.283
46393.53
46398.166
46403.304
46408.979
46415.125
46421.864
46429.426
46437.683
46446.822
46456.913
46468.155
46480.566
46494.267
46509.364
46525.538
46542.498
46559.725
46577.056
46594.597
46349.619
46349.618
46349.618
46349.617
46349.617
46349.616
46349.615
46349.615
46349.614
46349.614
46349.614
46349.614
46349.614
46349.614
46349.615
46349.616
46349.617
46349.618
46349.619
46349.621
46349.623
46349.626
46349.628
46349.632
46349.635
46349.639
46349.644
46349.649
46349.655
46349.661
46349.668
46349.676
46349.684
46349.694
46349.704
46349.714
46349.726
46349.739
46349.753
46349.769
46349.785
46349.804
46349.823
46349.844
46349.864
46349.883
46349.896
46349.902
46349.895
46349.874
46349.836
46349.783
46349.712
46349.628
46349.559
46349.523
46349.535
46349.58
46349.749
46349.973
46350.361
46351.054
46351.991
46352.921
46353.785
46354.619
46355.406
46356.144
46356.851
46357.615
46358.464
46359.391
46360.374
46361.452
46362.657
46363.943
46365.35
46366.91
46368.615
46370.481
46372.46
46374.611
46376.965
46379.566
46382.441
46385.613
46389.079
46392.784
46396.811
46401.254
46406.248
46411.818
46417.837
46424.355
46431.603
46439.609
46448.513
46458.301
46469.195
46481.316
46494.73
46509.669
46525.879
46543.134
46560.914
46578.654
46596.397
46614.306
46631.625
46649.37
46356.315
46356.314
46356.313
46356.311
46356.31
46356.309
46356.308
46356.307
46356.305
46356.304
46356.303
46356.302
46356.301
46356.3
46356.299
46356.299
46356.298
46356.297
46356.297
46356.296
46356.296
46356.296
46356.296
46356.296
46356.296
46356.297
46356.298
46356.299
46356.3
46356.301
46356.303
46356.305
46356.307
46356.31
46356.312
46356.316
46356.319
46356.323
46356.328
46356.333
46356.339
46356.346
46356.353
46356.361
46356.368
46356.373
46356.373
46356.367
46356.351
46356.322
46356.28
46356.223
46356.152
46356.071
46355.994
46355.951
46355.942
46355.985
46356.13
46356.433
46356.778
46357.21
46357.895
46358.563
46359.316
46360.078
46360.773
46361.428
46362.12
46362.891
46363.71
46364.61
46365.569
46366.596
46367.745
46368.976
46370.36
46371.828
46373.464
46375.263
46377.17
46379.244
46381.521
46384.033
46386.761
46389.815
46393.138
46396.684
46400.517
46404.754
46409.537
46414.88
46420.718
46427.072
46434.078
46441.798
46450.431
46459.962
46470.505
46482.293
46495.377
46509.999
46526.085
46543.499
46561.751
46580.059
46598.108
46616.239
46633.893
46651.473
46669.513
46687.822
46705.471
46364.234
46364.233
46364.232
46364.231
46364.23
46364.229
46364.228
46364.227
46364.226
46364.226
46364.225
46364.224
46364.224
46364.223
46364.223
46364.223
46364.223
46364.223
46364.224
46364.224
46364.225
46364.226
46364.228
46364.229
46364.232
46364.234
46364.237
46364.241
46364.245
46364.25
46364.255
46364.261
46364.268
46364.276
46364.285
46364.295
46364.307
46364.32
46364.335
46364.352
46364.372
46364.394
46364.42
46364.449
46364.481
46364.516
46364.551
46364.585
46364.618
46364.647
46364.674
46364.698
46364.721
46364.748
46364.795
46364.885
46364.984
46365.118
46365.231
46365.407
46365.529
46365.701
46365.933
46366.142
46366.411
46366.734
46367.098
46367.581
46368.16
46368.734
46369.411
46370.189
46371.032
46372.028
46373.118
46374.315
46375.643
46377.076
46378.64
46380.333
46382.206
46384.219
46386.414
46388.81
46391.437
46394.37
46397.559
46400.986
46404.707
46408.802
46413.372
46418.386
46423.903
46430.036
46436.836
46444.288
46452.586
46461.842
46472.075
46483.498
46496.243
46510.486
46526.324
46543.728
46562.252
46581.174
46599.72
46617.995
46636.065
46653.598
46671.494
46689.664
46707.298
46722.95
46735.647
46369.095
46369.095
46369.094
46369.093
46369.093
46369.092
46369.092
46369.091
46369.091
46369.091
46369.091
46369.091
46369.092
46369.093
46369.094
46369.095
46369.096
46369.098
46369.101
46369.103
46369.106
46369.11
46369.114
46369.119
46369.124
46369.13
46369.137
46369.144
46369.153
46369.163
46369.173
46369.186
46369.199
46369.214
46369.23
46369.249
46369.269
46369.293
46369.318
46369.348
46369.38
46369.417
46369.458
46369.504
46369.553
46369.603
46369.654
46369.701
46369.742
46369.776
46369.804
46369.829
46369.856
46369.895
46369.98
46370.117
46370.31
46370.505
46370.756
46370.982
46371.399
46371.724
46371.52
46371.415
46371.441
46371.618
46372.019
46372.605
46373.302
46374.069
46374.886
46375.735
46376.637
46377.644
46378.72
46379.899
46381.146
46382.549
46384.088
46385.739
46387.576
46389.53
46391.638
46393.918
46396.448
46399.233
46402.283
46405.608
46409.258
46413.275
46417.699
46422.415
46427.577
46433.404
46439.914
46447.109
46455.047
46463.948
46473.886
46484.958
46497.343
46511.197
46526.681
46543.885
46562.491
46581.888
46601.135
46619.67
46638.068
46655.742
46673.479
46691.511
46709.094
46724.879
46737.668
46748.642
46762.365
46372.739
46372.738
46372.738
46372.737
46372.736
46372.735
46372.734
46372.733
46372.733
46372.732
46372.732
46372.731
46372.731
46372.731
46372.731
46372.732
46372.732
46372.733
46372.734
46372.735
46372.737
46372.738
46372.74
46372.743
46372.746
46372.749
46372.752
46372.757
46372.761
46372.766
46372.772
46372.778
46372.784
46372.791
46372.799
46372.807
46372.816
46372.826
46372.836
46372.847
46372.859
46372.872
46372.885
46372.898
46372.909
46372.917
46372.918
46372.909
46372.885
46372.844
46372.785
46372.706
46372.607
46372.493
46372.391
46372.322
46372.298
46372.293
46372.435
46372.654
46372.966
46373.513
46374.455
46375.447
46376.344
46377.162
46377.938
46378.652
46379.338
46380.081
46380.868
46381.703
46382.627
46383.603
46384.655
46385.803
46387.006
46388.331
46389.796
46391.441
46393.214
46395.126
46397.185
46399.392
46401.824
46404.466
46407.375
46410.57
46414.11
46418.035
46422.339
46426.869
46431.795
46437.327
46443.447
46450.32
46457.908
46466.385
46475.95
46486.666
46498.652
46512.12
46527.215
46544.107
46562.646
46582.377
46602.234
46621.27
46639.893
46657.852
46675.473
46693.356
46710.883
46726.75
46739.679
46750.412
46763.453
46779.631
46380.798
46380.797
46380.796
46380.795
46380.793
46380.792
46380.79
46380.789
46380.787
46380.786
46380.785
46380.783
46380.782
46380.781
46380.78
46380.779
46380.778
46380.777
46380.776
46380.775
46380.774
46380.773
46380.773
46380.773
46380.772
46380.772
46380.772
46380.773
46380.773
46380.774
46380.774
46380.775
46380.777
46380.778
46380.78
46380.782
46380.784
46380.786
46380.789
46380.793
46380.797
46380.801
46380.806
46380.811
46380.815
46380.817
46380.815
46380.806
46380.787
46380.754
46380.708
46380.646
46380.568
46380.478
46380.391
46380.337
46380.309
46380.335
46380.418
46380.667
46380.995
46381.346
46381.945
46382.57
46383.251
46383.97
46384.64
46385.268
46385.921
46386.628
46387.383
46388.192
46389.062
46389.962
46390.953
46392.026
46393.223
46394.497
46395.885
46397.463
46399.144
46400.991
46403.014
46405.199
46407.552
46410.086
46412.884
46415.93
46419.311
46423.051
46427.157
46431.531
46436.352
46441.716
46447.505
46453.984
46461.225
46469.284
46478.366
46488.656
46500.207
46513.264
46527.961
46544.471
46562.779
46582.614
46602.977
46622.725
46641.601
46659.882
46677.474
46695.207
46712.634
46728.593
46741.649
46752.216
46764.588
46780.258
46800.954
46820.832
46389.999
46389.998
46389.997
46389.996
46389.994
46389.993
46389.992
46389.991
46389.989
46389.988
46389.987
46389.986
46389.986
46389.985
46389.984
46389.984
46389.983
46389.983
46389.983
46389.983
46389.984
46389.985
46389.986
46389.987
46389.989
46389.991
46389.994
46389.997
46390.001
46390.005
46390.01
46390.017
46390.024
46390.032
46390.042
46390.053
46390.066
46390.081
46390.098
46390.119
46390.143
46390.17
46390.202
46390.238
46390.278
46390.321
46390.364
46390.406
46390.443
46390.474
46390.5
46390.522
46390.54
46390.564
46390.61
46390.705
46390.805
46390.936
46391.009
46391.129
46391.246
46391.377
46391.549
46391.697
46391.9
46392.135
46392.432
46392.797
46393.236
46393.811
46394.384
46395.038
46395.794
46396.64
46397.591
46398.609
46399.758
46400.98
46402.309
46403.765
46405.38
46407.147
46409.102
46411.234
46413.517
46415.996
46418.714
46421.646
46424.878
46428.419
46432.273
46436.429
46441.112
46446.362
46451.997
46458.112
46465.001
46472.697
46481.264
46491.012
46502.058
46514.626
46528.89
46544.987
46562.979
46582.738
46603.436
46623.948
46643.201
46661.797
46679.468
46697.053
46714.386
46730.402
46743.569
46754.049
46765.783
46780.926
46801.399
46821.173
46833.299
46396.473
46396.472
46396.471
46396.471
46396.47
46396.469
46396.468
46396.467
46396.467
46396.466
46396.466
46396.465
46396.465
46396.465
46396.466
46396.466
46396.467
46396.468
46396.469
46396.47
46396.472
46396.474
46396.477
46396.48
46396.483
46396.487
46396.491
46396.496
46396.502
46396.508
46396.515
46396.522
46396.531
46396.54
46396.551
46396.562
46396.575
46396.589
46396.605
46396.623
46396.643
46396.665
46396.691
46396.719
46396.749
46396.779
46396.808
46396.833
46396.852
46396.863
46396.868
46396.869
46396.871
46396.882
46396.934
46397.039
46397.184
46397.335
46397.531
46397.724
46397.961
46398.309
46398.317
46398.153
46398.119
46398.218
46398.509
46398.991
46399.615
46400.272
46401.003
46401.794
46402.611
46403.499
46404.457
46405.499
46406.616
46407.812
46409.09
46410.453
46412.01
46413.7
46415.562
46417.581
46419.77
46422.174
46424.792
46427.626
46430.74
46434.132
46437.792
46441.724
46446.162
46451.177
46456.706
46462.579
46469.152
46476.536
46484.666
46493.839
46504.305
46516.289
46530.038
46545.694
46563.315
46582.823
46603.69
46624.827
46644.69
46663.588
46681.433
46698.905
46716.125
46732.18
46745.468
46755.888
46767.038
46781.632
46801.873
46821.52
46833.592
46844.867
46401.74
46401.739
46401.738
46401.738
46401.736
46401.735
46401.734
46401.733
46401.733
46401.732
46401.731
46401.73
46401.73
46401.73
46401.729
46401.729
46401.729
46401.73
46401.73
46401.731
46401.731
46401.732
46401.734
46401.735
46401.737
46401.739
46401.742
46401.745
46401.748
46401.752
46401.756
46401.76
46401.765
46401.771
46401.776
46401.782
46401.789
46401.796
46401.804
46401.812
46401.821
46401.831
46401.841
46401.851
46401.858
46401.863
46401.86
46401.846
46401.818
46401.773
46401.709
46401.626
46401.522
46401.402
46401.297
46401.209
46401.158
46401.098
46401.132
46401.248
46401.478
46401.844
46402.43
46403.335
46404.174
46404.931
46405.618
46406.247
46406.875
46407.509
46408.215
46408.974
46409.782
46410.668
46411.612
46412.653
46413.75
46414.949
46416.228
46417.591
46419.07
46420.673
46422.424
46424.347
46426.438
46428.725
46431.196
46433.885
46436.853
46440.114
46443.657
46447.459
46451.663
46456.315
46461.575
46467.277
46473.605
46480.684
46488.477
46497.185
46507.048
46518.365
46531.46
46546.569
46563.76
46582.958
46603.854
46625.394
46646.015
46665.258
46683.336
46700.757
46717.847
46733.935
46747.319
46757.738
46768.342
46782.388
46802.358
46821.859
46833.892
46845.189
46855.371
46867.414
46410.019
46410.017
46410.016
46410.015
46410.014
46410.012
46410.011
46410.01
46410.008
46410.007
46410.006
46410.004
46410.003
46410.002
46410.001
46410
46409.999
46409.999
46409.998
46409.997
46409.997
46409.996
46409.996
46409.996
46409.996
46409.996
46409.997
46409.997
46409.998
46409.999
46410
46410.002
46410.003
46410.005
46410.007
46410.01
46410.012
46410.015
46410.019
46410.023
46410.027
46410.032
46410.037
46410.042
46410.045
46410.044
46410.038
46410.022
46409.992
46409.947
46409.885
46409.807
46409.713
46409.609
46409.521
46409.47
46409.452
46409.46
46409.567
46409.737
46410.044
46410.36
46410.894
46411.497
46412.062
46412.685
46413.279
46413.854
46414.443
46415.054
46415.724
46416.443
46417.231
46418.078
46418.992
46419.996
46421.079
46422.259
46423.548
46424.936
46426.387
46427.944
46429.615
46431.497
46433.528
46435.717
46438.08
46440.614
46443.387
46446.464
46449.852
46453.563
46457.647
46461.971
46466.778
46472.221
46478.313
46485.06
46492.542
46500.932
46510.283
46520.931
46533.267
46547.684
46564.368
46583.2
46603.971
46625.716
46647.076
46666.807
46685.171
46702.594
46719.577
46735.649
46749.149
46759.584
46769.714
46783.206
46802.869
46822.187
46834.186
46845.519
46855.723
46867.714
46887.256
46418.633
46418.631
46418.63
46418.629
46418.628
46418.626
46418.625
46418.623
46418.622
46418.621
46418.619
46418.618
46418.617
46418.616
46418.615
46418.614
46418.613
46418.612
46418.611
46418.61
46418.609
46418.609
46418.608
46418.608
46418.608
46418.608
46418.609
46418.609
46418.61
46418.611
46418.612
46418.614
46418.616
46418.618
46418.62
46418.623
46418.627
46418.631
46418.636
46418.642
46418.649
46418.657
46418.667
46418.677
46418.687
46418.695
46418.699
46418.696
46418.684
46418.659
46418.623
46418.576
46418.518
46418.458
46418.412
46418.421
46418.442
46418.519
46418.611
46418.809
46419.048
46419.342
46419.714
46420.055
46420.457
46420.886
46421.313
46421.781
46422.285
46422.839
46423.449
46424.118
46424.862
46425.667
46426.55
46427.512
46428.569
46429.713
46430.965
46432.315
46433.753
46435.33
46436.982
46438.806
46440.815
46442.979
46445.308
46447.764
46450.405
46453.301
46456.464
46459.968
46463.943
46468.101
46472.509
46477.579
46483.339
46489.713
46496.825
46504.915
46513.893
46523.981
46535.568
46549.146
46565.154
46583.554
46604.092
46625.911
46647.877
46668.217
46686.909
46704.416
46721.292
46737.345
46750.945
46761.438
46771.147
46784.083
46803.406
46822.517
46834.475
46845.854
46856.085
46868.017
46887.361
46886.667
46427.088
46427.087
46427.085
46427.084
46427.083
46427.081
46427.08
46427.079
46427.077
46427.076
46427.074
46427.073
46427.072
46427.071
46427.069
46427.068
46427.067
46427.066
46427.065
46427.064
46427.063
46427.062
46427.062
46427.061
46427.061
46427.061
46427.061
46427.061
46427.061
46427.062
46427.063
46427.064
46427.065
46427.067
46427.069
46427.072
46427.074
46427.078
46427.082
46427.087
46427.094
46427.101
46427.109
46427.118
46427.127
46427.135
46427.138
46427.135
46427.123
46427.1
46427.066
46427.02
46426.965
46426.906
46426.863
46426.861
46426.872
46426.922
46426.996
46427.15
46427.314
46427.576
46427.834
46428.135
46428.498
46428.86
46429.251
46429.691
46430.177
46430.722
46431.313
46431.944
46432.63
46433.376
46434.235
46435.174
46436.205
46437.317
46438.521
46439.815
46441.222
46442.778
46444.432
46446.186
46448.153
46450.297
46452.612
46455.065
46457.71
46460.574
46463.601
46466.831
46470.557
46474.593
46478.813
46483.511
46488.812
46494.761
46501.42
46509.085
46517.727
46527.39
46538.371
46551.062
46566.215
46584.063
46604.28
46626.063
46648.402
46669.449
46688.547
46706.205
46722.999
46739.025
46752.711
46763.279
46772.63
46785.031
46803.978
46822.846
46834.752
46846.204
46856.464
46868.329
46887.469
46886.976
46898.401
46435.896
46435.895
46435.894
46435.893
46435.891
46435.89
46435.889
46435.887
46435.886
46435.885
46435.883
46435.882
46435.881
46435.88
46435.879
46435.878
46435.878
46435.877
46435.876
46435.876
46435.875
46435.875
46435.875
46435.875
46435.876
46435.876
46435.877
46435.879
46435.88
46435.882
46435.885
46435.888
46435.891
46435.896
46435.9
46435.906
46435.913
46435.921
46435.93
46435.94
46435.953
46435.968
46435.985
46436.004
46436.025
46436.046
46436.065
46436.08
46436.088
46436.088
46436.079
46436.065
46436.044
46436.026
46436.037
46436.076
46436.151
46436.201
46436.288
46436.346
46436.47
46436.527
46436.636
46436.846
46437.033
46437.289
46437.614
46437.973
46438.381
46438.858
46439.393
46439.996
46440.655
46441.377
46442.16
46443.046
46444.016
46445.113
46446.299
46447.565
46448.952
46450.447
46452.042
46453.734
46455.646
46457.717
46459.947
46462.339
46464.984
46467.91
46470.988
46474.083
46477.497
46481.308
46485.477
46489.952
46494.82
46500.335
46506.492
46513.592
46521.758
46531.025
46541.568
46553.507
46567.711
46584.754
46604.522
46626.195
46648.711
46670.476
46690.08
46707.946
46724.71
46740.676
46754.459
46765.115
46774.172
46786.04
46804.584
46823.175
46835.034
46846.557
46856.857
46868.649
46887.582
46887.288
46898.412
46919.189
46443.425
46443.424
46443.423
46443.422
46443.422
46443.421
46443.42
46443.419
46443.418
46443.417
46443.416
46443.416
46443.416
46443.415
46443.415
46443.415
46443.416
46443.416
46443.416
46443.417
46443.418
46443.42
46443.421
46443.423
46443.426
46443.429
46443.432
46443.436
46443.44
46443.445
46443.451
46443.457
46443.465
46443.473
46443.482
46443.492
46443.504
46443.517
46443.532
46443.549
46443.569
46443.591
46443.617
46443.645
46443.675
46443.706
46443.735
46443.759
46443.776
46443.784
46443.784
46443.78
46443.772
46443.77
46443.809
46443.889
46444.008
46444.099
46444.222
46444.319
46444.453
46444.736
46444.984
46444.808
46444.751
46444.801
46445.055
46445.488
46445.999
46446.539
46447.128
46447.783
46448.493
46449.261
46450.096
46450.998
46451.963
46453.006
46454.161
46455.434
46456.8
46458.265
46459.817
46461.513
46463.363
46465.356
46467.49
46469.759
46472.264
46475.131
46478.296
46481.477
46484.746
46488.316
46492.373
46496.722
46501.333
46506.457
46512.114
46518.615
46526.096
46534.845
46544.985
46556.385
46569.681
46585.742
46604.882
46626.343
46648.898
46671.269
46691.469
46709.635
46726.39
46742.319
46756.175
46766.93
46775.756
46787.109
46805.21
46823.499
46835.315
46846.922
46857.264
46868.981
46887.706
46887.605
46898.431
46919.211
46898.529
46448.831
46448.83
46448.829
46448.828
46448.827
46448.826
46448.825
46448.824
46448.824
46448.823
46448.823
46448.822
46448.822
46448.822
46448.822
46448.822
46448.822
46448.822
46448.823
46448.824
46448.825
46448.826
46448.827
46448.829
46448.831
46448.834
46448.836
46448.84
46448.843
46448.847
46448.851
46448.856
46448.861
46448.866
46448.872
46448.878
46448.885
46448.892
46448.9
46448.908
46448.917
46448.928
46448.938
46448.948
46448.957
46448.961
46448.958
46448.942
46448.909
46448.856
46448.783
46448.69
46448.579
46448.459
46448.361
46448.309
46448.277
46448.266
46448.33
46448.511
46448.873
46449.429
46449.868
46450.234
46450.788
46451.349
46451.904
46452.469
46453.102
46453.812
46454.594
46455.397
46456.215
46457.071
46457.976
46458.935
46459.969
46461.014
46462.119
46463.344
46464.673
46466.113
46467.659
46469.392
46471.216
46473.202
46475.324
46477.517
46479.828
46482.455
46485.477
46488.718
46492.037
46495.54
46499.418
46503.594
46508.119
46512.984
46518.23
46524.237
46530.964
46538.985
46548.553
46559.528
46572.14
46587.144
46605.414
46626.499
46649.006
46671.84
46692.712
46711.242
46728.059
46743.94
46757.867
46768.726
46777.38
46788.241
46805.871
46823.819
46835.583
46847.291
46857.689
46869.319
46887.83
46887.919
46898.459
46919.23
46898.772
46944.469
46456.14
46456.138
46456.137
46456.136
46456.134
46456.133
46456.131
46456.13
46456.128
46456.126
46456.125
46456.123
46456.122
46456.121
46456.119
46456.118
46456.116
46456.115
46456.113
46456.112
46456.11
46456.108
46456.107
46456.105
46456.104
46456.102
46456.1
46456.098
46456.096
46456.094
46456.091
46456.088
46456.085
46456.082
46456.077
46456.073
46456.067
46456.06
46456.053
46456.044
46456.034
46456.023
46456.009
46455.992
46455.97
46455.941
46455.901
46455.845
46455.77
46455.67
46455.545
46455.39
46455.205
46454.995
46454.782
46454.6
46454.441
46454.355
46454.381
46454.585
46454.896
46455.302
46455.976
46457.127
46458.115
46459.036
46459.883
46460.65
46461.378
46462.083
46462.779
46463.524
46464.327
46465.18
46466.059
46467.022
46468.004
46469.098
46470.212
46471.376
46472.664
46474.049
46475.542
46477.246
46479.026
46481.018
46483.175
46485.42
46487.706
46490.119
46492.848
46495.928
46499.261
46502.857
46506.615
46510.563
46515.029
46519.748
46524.723
46530.353
46536.449
46543.632
46552.388
46562.825
46574.938
46588.985
46606.215
46626.72
46649.114
46672.233
46693.777
46712.759
46729.694
46745.531
46759.538
46770.508
46779.04
46789.435
46806.559
46824.147
46835.861
46847.669
46858.121
46869.661
46887.967
46888.237
46898.496
46919.246
46899.022
46943.93
46467.383
46467.381
46467.38
46467.378
46467.376
46467.374
46467.372
46467.37
46467.368
46467.366
46467.364
46467.361
46467.359
46467.357
46467.354
46467.352
46467.349
46467.346
46467.344
46467.341
46467.338
46467.335
46467.332
46467.328
46467.325
46467.321
46467.318
46467.314
46467.31
46467.306
46467.302
46467.297
46467.293
46467.288
46467.283
46467.277
46467.272
46467.266
46467.26
46467.254
46467.248
46467.242
46467.235
46467.227
46467.218
46467.205
46467.188
46467.162
46467.126
46467.076
46467.013
46466.933
46466.838
46466.729
46466.627
46466.545
46466.486
46466.465
46466.454
46466.641
46466.919
46467.192
46467.53
46467.861
46468.246
46468.718
46469.21
46469.732
46470.299
46470.9
46471.515
46472.149
46472.883
46473.671
46474.501
46475.424
46476.371
46477.386
46478.465
46479.639
46480.927
46482.296
46483.718
46485.303
46486.987
46488.881
46490.98
46493.267
46495.663
46498.091
46500.631
46503.431
46506.585
46510.171
46513.885
46517.66
46521.96
46526.55
46531.391
46536.744
46542.445
46548.924
46556.727
46566.322
46577.912
46591.241
46607.403
46627.074
46649.224
46672.481
46694.648
46714.175
46731.277
46747.128
46761.18
46772.27
46780.716
46790.683
46807.279
46824.471
46836.129
46848.059
46858.564
46870.008
46888.116
46888.553
46898.54
46919.257
46899.276
46943.401
46944.882
46478.888
46478.886
46478.885
46478.883
46478.882
46478.88
46478.879
46478.877
46478.875
46478.874
46478.872
46478.871
46478.869
46478.868
46478.866
46478.865
46478.863
46478.862
46478.86
46478.859
46478.858
46478.857
46478.856
46478.856
46478.855
46478.855
46478.855
46478.855
46478.856
46478.857
46478.858
46478.86
46478.863
46478.867
46478.871
46478.877
46478.884
46478.893
46478.904
46478.917
46478.934
46478.954
46478.978
46479.006
46479.038
46479.073
46479.11
46479.148
46479.185
46479.221
46479.256
46479.294
46479.336
46479.392
46479.481
46479.603
46479.74
46479.842
46479.911
46479.874
46479.781
46479.569
46479.461
46479.38
46479.347
46479.364
46479.439
46479.568
46479.819
46480.166
46480.6
46481.135
46481.691
46482.334
46483.096
46483.892
46484.835
46485.845
46486.923
46488.078
46489.347
46490.762
46492.197
46493.705
46495.311
46497.032
46498.935
46501.094
46503.498
46506.026
46508.603
46511.287
46514.217
46517.57
46521.174