/*--------------------------------*- C++ -*----------------------------------*\
| =========                 |                                                 |
| \\      /  F ield         | OpenFOAM: The Open Source CFD Toolbox           |
|  \\    /   O peration     | Version:  2506                                  |
|   \\  /    A nd           | Website:  www.openfoam.com                      |
|    \\/     M anipulation  |                                                 |
\*---------------------------------------------------------------------------*/
FoamFile
{
    version     2.0;
    format      ascii;
    arch        "LSB;label=32;scalar=64";
    class       volScalarField;
    location    "1.2";
    object      nut;
}
// * * * * * * * * * * * * * * * * * * * * * * * * * * * * * * * * * * * * * //

dimensions      [0 2 -1 0 0 0 0];

internalField   nonuniform List<scalar> 
1375
(
0.072945876
0.073287581
0.095583394
0.12131976
0.14303672
0.15890189
0.074026227
0.096586393
0.12244815
0.14408735
0.15972246
0.16966962
0.17521261
0.17787901
0.17899383
0.17913921
0.07475126
0.097614744
0.12359124
0.14513516
0.16052838
0.17018104
0.1754593
0.17794704
0.1789394
0.17903274
0.17894367
0.1788535
0.17867794
0.178555
0.17852338
0.075434392
0.098629716
0.12470994
0.14614301
0.16128738
0.17064837
0.17567311
0.17799696
0.17887057
0.17892231
0.17882186
0.1787331
0.17854641
0.17844257
0.17841487
0.1783994
0.17839745
0.1784048
0.17841792
0.17843474
0.076056025
0.099595292
0.12577099
0.14708375
0.16197878
0.17105762
0.1758459
0.17802178
0.17878635
0.17880605
0.17869923
0.17861082
0.17841605
0.17833146
0.17830688
0.17829387
0.17829388
0.17830253
0.17831651
0.17833391
0.17835366
0.17837518
0.17839817
0.17842254
0.17844831
0.07660406
0.10047794
0.12674644
0.14793927
0.16259271
0.17140494
0.17597673
0.17802025
0.17868856
0.17868461
0.17857658
0.17848532
0.1782881
0.17822123
0.17819928
0.17818873
0.17819061
0.17820046
0.17821524
0.17823319
0.17825333
0.17827514
0.17829835
0.17832284
0.17834862
0.17837576
0.17840449
0.17843508
0.17846785
0.077075798
0.10125398
0.12761889
0.14870258
0.16313009
0.17169536
0.17607088
0.17799611
0.1785813
0.17856042
0.17845455
0.17835701
0.17816382
0.17811188
0.17809229
0.17808413
0.17808771
0.17809866
0.17811415
0.17813261
0.17815313
0.17817528
0.17819879
0.17822355
0.17824951
0.17827672
0.17830533
0.17833557
0.17836771
0.17840215
0.17843935
0.1784798
0.17852408
0.077483116
0.1019246
0.12839391
0.1493852
0.16360534
0.17194267
0.17613876
0.17795653
0.17846967
0.17843627
0.17833388
0.17822783
0.1780438
0.17800373
0.1779863
0.17798034
0.17798545
0.17799735
0.17801346
0.17803235
0.17805323
0.17807571
0.17809956
0.17812465
0.17815087
0.17817825
0.17820686
0.17823691
0.17826865
0.17830245
0.17833885
0.17837832
0.17842144
0.17846854
0.17852037
0.17857784
0.077844843
0.10250652
0.12908809
0.15000466
0.16403539
0.17216109
0.17619061
0.17790861
0.17835805
0.17831443
0.17821538
0.17809965
0.17792798
0.17789695
0.17788142
0.17787744
0.17788388
0.17789664
0.17791335
0.1779327
0.17795398
0.17797681
0.17800097
0.17802631
0.17805274
0.17808028
0.17810896
0.1781389
0.17817034
0.17820366
0.17823937
0.17827799
0.17831989
0.17836559
0.17841598
0.17847161
0.17853303
0.17860136
0.17867813
0.078178374
0.10301941
0.12971707
0.15057382
0.16443102
0.17235914
0.17623246
0.17785665
0.17824885
0.17819597
0.17809937
0.17797358
0.17781578
0.17779144
0.17777753
0.17777528
0.17778289
0.17779646
0.17781381
0.17783369
0.17785544
0.17787864
0.17790309
0.17792864
0.17795526
0.17798292
0.17801165
0.17804153
0.17807273
0.17810565
0.17814074
0.17817838
0.17821921
0.17826384
0.17831283
0.17836676
0.17842624
0.17849182
0.17856577
0.17865173
0.1787559
0.17888717
0.078503939
0.10349441
0.1303053
0.15110918
0.1648025
0.17254268
0.17626737
0.17780239
0.17814238
0.17808065
0.17798553
0.17784992
0.17770653
0.17768703
0.17767452
0.17767379
0.17768244
0.17769678
0.17771476
0.17773518
0.17775737
0.17778092
0.17780562
0.17783137
0.17785813
0.17788591
0.17791471
0.1779446
0.17797569
0.17800825
0.1780429
0.17808022
0.17812033
0.1781636
0.17821089
0.17826286
0.17832017
0.17838366
0.17845555
0.17853907
0.17864082
0.17877035
0.17893712
0.17914096
0.078842415
0.10397078
0.13088386
0.15163026
0.1651601
0.17271592
0.17629633
0.17774564
0.17803739
0.17796723
0.17787296
0.17772828
0.17759953
0.17758354
0.1775723
0.17757294
0.17758252
0.17759753
0.17761604
0.17763692
0.1776595
0.17768338
0.17770836
0.17773437
0.17776137
0.17778935
0.17781831
0.17784833
0.17787954
0.17791211
0.1779463
0.17798261
0.17802168
0.17806402
0.17811004
0.1781605
0.17821603
0.17827757
0.17834698
0.17842861
0.17852876
0.17865667
0.17882177
0.17902217
0.17921474
0.17920987
0.17800644
0.079203968
0.10447486
0.13147227
0.15214708
0.16550693
0.17287838
0.17631762
0.1776847
0.17793195
0.17785417
0.17776057
0.17760803
0.17749404
0.17748057
0.17747051
0.17747236
0.17748271
0.17749823
0.17751715
0.17753842
0.17756139
0.1775857
0.17761113
0.1776376
0.17766505
0.17769341
0.17772267
0.17775291
0.17778422
0.17781676
0.17785071
0.1778865
0.17792477
0.17796604
0.17801073
0.17805944
0.1781129
0.17817217
0.17823972
0.17831974
0.17841871
0.17854628
0.17870995
0.17890567
0.17908504
0.17903981
0.17766099
0.16825821
0.15116995
0.079586045
0.10501669
0.13207958
0.1526641
0.1658437
0.17302882
0.1763296
0.17761827
0.17782468
0.1777404
0.17764765
0.17748879
0.17738947
0.17737775
0.17736879
0.1773717
0.17738266
0.17739859
0.17741785
0.17743949
0.1774629
0.17748772
0.17751371
0.17754072
0.17756867
0.1775975
0.17762719
0.17765778
0.17768937
0.1777221
0.17775617
0.17779186
0.17782958
0.17786984
0.17791305
0.17795967
0.17801066
0.17806786
0.17813369
0.1782122
0.17831083
0.17843805
0.17860056
0.17879131
0.17895552
0.17886326
0.17728653
0.16728087
0.15003001
0.079982054
0.10560214
0.1327149
0.1531889
0.16617507
0.17316945
0.17633305
0.1775466
0.17771516
0.17762545
0.17753401
0.17737037
0.17728546
0.17727495
0.17726708
0.17727094
0.17728244
0.17729875
0.17731835
0.17734036
0.17736421
0.17738951
0.17741599
0.1774435
0.17747195
0.17750134
0.17753162
0.17756282
0.17759498
0.17762818
0.17766253
0.17769816
0.17773538
0.17777468
0.17781658
0.17786146
0.17791046
0.17796551
0.17802915
0.17810652
0.17820436
0.17833096
0.17849203
0.17867737
0.17882549
0.17868017
0.1768794
0.16616791
0.14855243
0.080383184
0.10622903
0.13338009
0.1537245
0.16650384
0.17330249
0.17632957
0.17747087
0.17760395
0.17750952
0.17741975
0.17725271
0.17718164
0.17717199
0.17716526
0.17716999
0.17718198
0.1771986
0.17721847
0.17724075
0.1772649
0.17729054
0.17731743
0.17734542
0.17737444
0.17740448
0.1774355
0.17746746
0.17750034
0.17753415
0.17756894
0.17760476
0.17764175
0.17768028
0.17772092
0.1777643
0.17781149
0.17786436
0.17792604
0.17800193
0.17809896
0.17822533
0.17838487
0.17856418
0.1786939
0.17848814
0.17642961
0.16491774
0.14826652
0.080774045
0.10687731
0.1340624
0.15426466
0.16682797
0.17342809
0.17632017
0.17739213
0.17749183
0.17739306
0.17730516
0.17713586
0.17707769
0.17706861
0.17706292
0.17706837
0.17708066
0.17709738
0.17711726
0.17713954
0.17716374
0.17718954
0.17721674
0.17724518
0.17727477
0.17730548
0.17733725
0.17736999
0.17740366
0.17743827
0.17747385
0.17751039
0.1775479
0.1775865
0.17762654
0.1776686
0.177714
0.17776514
0.17782542
0.17789965
0.17799539
0.17812072
0.17827839
0.17845154
0.17856082
0.17828551
0.17592786
0.16361344
0.14864643
0.081142175
0.10752551
0.13474773
0.15480293
0.16714586
0.17354693
0.17630588
0.17731155
0.17737964
0.17727664
0.17719075
0.17702012
0.1769736
0.17696487
0.17696006
0.17696593
0.17697822
0.17699469
0.17701421
0.17703616
0.17706015
0.17708593
0.1771133
0.17714212
0.17717224
0.17720358
0.17723608
0.17726967
0.1773043
0.17733996
0.17737665
0.17741429
0.17745277
0.17749205
0.17753231
0.17757408
0.17761858
0.17766803
0.1777265
0.17779949
0.17789432
0.1780186
0.17817353
0.17833845
0.17842464
0.1780688
0.17537086
0.16231544
0.14839546
0.081483846
0.10816039
0.13542638
0.15533477
0.16745663
0.17365942
0.17628907
0.17722977
0.17726836
0.17716119
0.1770772
0.17690594
0.17686976
0.17686111
0.17685694
0.1768629
0.1768748
0.17689066
0.17690953
0.17693087
0.17695441
0.17697996
0.17700736
0.17703641
0.17706695
0.17709887
0.17713211
0.17716661
0.17720234
0.17723925
0.17727723
0.17731611
0.17735573
0.17739601
0.17743703
0.17747917
0.17752357
0.1775724
0.17762966
0.17770138
0.1777952
0.17791792
0.17806924
0.17822492
0.17828379
0.1778325
0.17474578
0.16090264
0.14823229
0.08179999
0.10877219
0.13608919
0.15585455
0.16775769
0.17376484
0.17627143
0.17714645
0.17715841
0.17704792
0.17696478
0.17679376
0.17676647
0.17675757
0.17675367
0.17675937
0.17677053
0.17678548
0.17680338
0.1768238
0.17684658
0.17687159
0.17689867
0.17692764
0.17695832
0.17699062
0.17702447
0.17705986
0.1770967
0.17713488
0.17717424
0.17721457
0.17725569
0.1772975
0.17733989
0.17738313
0.17742826
0.17747749
0.17753486
0.1776064
0.17769962
0.17782046
0.1779671
0.17811123
0.17813694
0.17756975
0.17403555
0.15938395
0.14836621
0.082091889
0.10935021
0.13672504
0.15635455
0.16804492
0.17386195
0.17625238
0.17706187
0.17705037
0.17693753
0.17685389
0.1766843
0.17666425
0.17665469
0.17665066
0.17665568
0.17666579
0.17667951
0.17669617
0.1767154
0.17673707
0.1767611
0.17678738
0.17681577
0.1768462
0.17687855
0.17691277
0.17694877
0.17698647
0.17702578
0.17706654
0.17710856
0.17715163
0.17719547
0.17723986
0.17728501
0.17733192
0.17738275
0.17744144
0.17751377
0.17760692
0.17772612
0.17786707
0.17799561
0.17798018
0.1772773
0.17322225
0.1575641
0.14877206
0.082363415
0.10989004
0.13732801
0.15683065
0.16831642
0.1739507
0.17623161
0.17697679
0.17694496
0.17683071
0.17674503
0.1765783
0.17656381
0.17655314
0.17654854
0.17655249
0.17656122
0.17657344
0.17658856
0.17660628
0.17662649
0.17664914
0.17667422
0.17670166
0.17673139
0.17676338
0.17679755
0.17683377
0.17687202
0.17691224
0.17695433
0.17699808
0.17704324
0.17708937
0.17713613
0.17718378
0.1772332
0.17728647
0.17734757
0.17742206
0.17751628
0.17763412
0.17776877
0.1778795
0.17781526
0.17694687
0.17225754
0.15571533
0.14934152
0.082625937
0.11040182
0.1379022
0.15728376
0.1685722
0.17403122
0.17620866
0.17689159
0.17684235
0.17672738
0.17663846
0.17647571
0.17646539
0.17645321
0.17644763
0.17645011
0.17645709
0.17646743
0.17648061
0.17649643
0.17651482
0.17653577
0.17655928
0.17658535
0.17661394
0.17664506
0.17667869
0.17671473
0.17675317
0.17679406
0.17683729
0.17688264
0.17692974
0.17697808
0.17702739
0.1770779
0.17713046
0.17718724
0.17725202
0.17733007
0.17742679
0.17754431
0.17767225
0.17776241
0.17763909
0.17657224
0.17119616
0.1539564
0.15032078
0.082894832
0.11090188
0.13845585
0.15771636
0.16881226
0.17410304
0.17618273
0.17680625
0.17674237
0.17662721
0.17653438
0.17637653
0.17636916
0.17635512
0.17634812
0.17634866
0.17635341
0.17636143
0.17637227
0.17638575
0.17640187
0.17642069
0.17644224
0.17646655
0.17649365
0.17652357
0.17655632
0.17659185
0.17663012
0.17667123
0.17671508
0.17676143
0.17680993
0.17686011
0.17691173
0.17696519
0.17702138
0.17708246
0.17715215
0.17723529
0.17733617
0.17745465
0.17757583
0.17764261
0.17744937
0.17613702
0.16994972
0.1521949
0.15160245
0.083186388
0.1114051
0.13899767
0.15813196
0.16903739
0.1741659
0.17615317
0.17672045
0.17664459
0.17652977
0.17643277
0.17628068
0.17627532
0.17625918
0.17625054
0.17624889
0.17625111
0.17625644
0.17626451
0.17627524
0.17628868
0.17630492
0.17632411
0.17634634
0.17637166
0.17640008
0.17643163
0.17646624
0.17650388
0.17654461
0.17658835
0.1766349
0.17668405
0.17673537
0.17678871
0.17684474
0.17690438
0.17696998
0.17704521
0.17713445
0.17724089
0.1773617
0.17747714
0.17751964
0.17724287
0.17562817
0.16849424
0.15038115
0.15322384
0.083526898
0.11193454
0.13954678
0.15854358
0.1692548
0.17422306
0.1761213
0.17663443
0.17654869
0.17643464
0.17633356
0.17618815
0.17618401
0.17616583
0.17615546
0.1761515
0.17615117
0.17615368
0.17615875
0.17616641
0.17617676
0.17619007
0.17620652
0.17622626
0.17624931
0.1762757
0.17630545
0.1763385
0.17637482
0.17641452
0.17645755
0.17650373
0.17655278
0.17660445
0.17665886
0.17671679
0.17677963
0.1768499
0.17693097
0.17702703
0.17713973
0.17726342
0.17737347
0.17738908
0.17701354
0.17503126
0.16683013
0.14854123
0.15472444
0.083955839
0.11252328
0.14013058
0.15896947
0.16947446
0.17427905
0.17608911
0.17654843
0.17645429
0.17634122
0.17623636
0.17609832
0.17609488
0.17607468
0.17606255
0.17605631
0.17605333
0.17605301
0.17605504
0.17605948
0.17606658
0.17607658
0.17608977
0.17610638
0.17612655
0.17615025
0.17617748
0.1762083
0.17624269
0.17628067
0.17632232
0.1763674
0.17641567
0.17646723
0.17652234
0.17658193
0.17664787
0.17672267
0.17680991
0.17691329
0.17703288
0.17716011
0.17726403
0.1772489
0.17675122
0.17432597
0.16494714
0.14689873
0.15646855
0.084513671
0.11319473
0.14076997
0.1594241
0.16970431
0.17433753
0.17605812
0.17646233
0.17636082
0.17624853
0.17614036
0.17601045
0.17600709
0.17598514
0.1759714
0.17596288
0.17595734
0.17595415
0.17595318
0.17595452
0.17595831
0.17596488
0.17597453
0.17598756
0.17600421
0.17602459
0.17604876
0.17607675
0.17610864
0.17614426
0.17618363
0.17622694
0.17627422
0.17632536
0.17638102
0.17644228
0.17651091
0.17659015
0.17668402
0.17679484
0.17692136
0.17705113
0.17714699
0.177093
0.17643362
0.17340873
0.16276009
0.14559281
0.15885597
0.085170202
0.11395362
0.14147616
0.15991742
0.16995042
0.17440125
0.17602917
0.17637543
0.17626711
0.17615528
0.17604422
0.17592312
0.1759197
0.1758963
0.17588122
0.17587074
0.17586286
0.17585709
0.17585326
0.1758515
0.17585205
0.17585519
0.17586128
0.17587066
0.17588357
0.1759002
0.1759207
0.17594526
0.17597387
0.17600654
0.17604329
0.17608427
0.17612973
0.17618006
0.17623617
0.17629909
0.17637063
0.17645484
0.17655528
0.17667283
0.17680495
0.17693585
0.17702031
0.1769237
0.17604401
0.17232678
0.1602592
0.14467776
0.16195036
0.08590528
0.11478387
0.14223991
0.16044477
0.17021084
0.17446961
0.17600208
0.1762881
0.17617337
0.17606179
0.17594844
0.17583642
0.1758329
0.1758086
0.17579258
0.17578065
0.17577086
0.17576279
0.17575647
0.1757519
0.17574933
0.17574921
0.17575192
0.17575771
0.17576684
0.1757796
0.17579622
0.17581678
0.17584162
0.17587063
0.17590395
0.17594201
0.17598528
0.17603463
0.17609082
0.17615524
0.17623024
0.17631967
0.1764262
0.17654947
0.1766851
0.1768151
0.17688497
0.17673438
0.17559045
0.17103926
0.15751739
0.14385836
0.16479419
0.086639397
0.11570163
0.14308752
0.16102507
0.17049451
0.174544
0.17597467
0.1761971
0.17607588
0.17596409
0.17584943
0.17574711
0.17574314
0.17571866
0.17570221
0.17568906
0.17567774
0.17566787
0.1756592
0.17565199
0.17564653
0.17564321
0.17564254
0.17564477
0.17565001
0.17565868
0.17567107
0.17568739
0.1757076
0.17573221
0.17576171
0.17579631
0.17583693
0.17588438
0.17593975
0.17600507
0.1760834
0.17617699
0.17628866
0.17641759
0.17655504
0.17667815
0.17672747
0.17649843
0.17500034
0.1694843
0.15468409
0.14367536
0.16806778
0.087345774
0.11652965
0.14384412
0.16153825
0.17074098
0.17460557
0.17594695
0.17611485
0.17598841
0.17587693
0.17576161
0.17566864
0.17566407
0.17563973
0.17562324
0.17560947
0.17559714
0.17558569
0.17557514
0.17556577
0.17555785
0.17555176
0.17554795
0.1755468
0.17554861
0.17555375
0.17556244
0.17557484
0.17559127
0.17561216
0.17563787
0.1756693
0.17570744
0.17575307
0.17580764
0.17587395
0.17595495
0.1760519
0.17616824
0.1763033
0.17644338
0.17656136
0.17659199
0.17630702
0.17444242
0.16805753
0.15224779
0.14369679
0.17037556
0.088282107
0.11792542
0.1451518
0.16241098
0.17114517
0.17469069
0.17588338
0.17596583
0.17583249
0.17572079
0.17560787
0.17553215
0.17552593
0.17550256
0.17548661
0.17547256
0.17545928
0.17544621
0.17543364
0.1754217
0.17541061
0.17540081
0.17539264
0.17538651
0.17538284
0.17538203
0.17538439
0.17539011
0.17540022
0.17541464
0.17543392
0.17545932
0.17549148
0.17553195
0.17558256
0.17564668
0.17572718
0.17582544
0.17594382
0.17607964
0.17621659
0.17632496
0.17628973
0.17580498
0.17300881
0.16489011
0.14822702
0.14478169
0.1745535
)
;

boundaryField
{
    Side
    {
        type            empty;
    }
    Inlet
    {
        type            calculated;
        value           nonuniform List<scalar> 
21
(
0.1996875
0.1997031
0.19972302
0.19974352
0.19976634
0.19979127
0.19981214
0.1998279
0.19984585
0.19987396
0.199908
0.19994825
0.19999395
0.20003387
0.20007501
0.2001347
0.20019529
0.20024552
0.20026819
0.20031291
0.20043027
)
;
    }
    Airfoil
    {
        type            nutkWallFunction;
        blending        stepwise;
        value           nonuniform List<scalar> 0();
    }
    Outlet
    {
        type            calculated;
        value           nonuniform List<scalar> 
49
(
0.088282107
0.11792542
0.1451518
0.16241098
0.17114517
0.17469069
0.17588338
0.17596583
0.17583249
0.17572079
0.17560787
0.17553215
0.17552593
0.17550256
0.17548661
0.17547256
0.17545928
0.17544621
0.17543364
0.1754217
0.17541061
0.17540081
0.17539264
0.17538651
0.17538284
0.17538203
0.17538439
0.17539011
0.17540022
0.17541464
0.17543392
0.17545932
0.17549148
0.17553195
0.17558256
0.17564668
0.17572718
0.17582544
0.17594382
0.17607964
0.17621659
0.17632496
0.17628973
0.17580498
0.17300881
0.16489011
0.14822702
0.14478169
0.1745535
)
;
    }
    procBoundary6to5
    {
        type            processor;
        value           nonuniform List<scalar> 
61
(
0.072564461
0.094633868
0.12023786
0.14201812
0.15809974
0.16913861
0.16913861
0.17494828
0.17780447
0.17903777
0.17924408
0.1790634
0.1790634
0.17897324
0.1788108
0.17866931
0.17863271
0.17850539
0.17850539
0.17850136
0.17850731
0.17851951
0.17853573
0.17845409
0.17845409
0.17847538
0.17849827
0.1785227
0.1785487
0.17847561
0.17847561
0.17850471
0.17853589
0.17856949
0.17850315
0.17850315
0.1785414
0.17858305
0.17862865
0.17857271
0.17857271
0.17862639
0.17868589
0.17864153
0.17864153
0.17871262
0.17879273
0.17876705
0.17876705
0.178874
0.17900723
0.17905544
0.17905544
0.17926215
0.17934438
0.17934438
0.1793741
0.1783234
0.1692667
0.1692667
0.15017283
)
;
    }
    procBoundary6to12
    {
        type            processor;
        value           uniform 0.072149367;
    }
    procBoundary6to13
    {
        type            processor;
        value           nonuniform List<scalar> 
34
(
0.094628273
0.073674433
0.073674433
0.074292402
0.074787235
0.075177263
0.07551278
0.075861941
0.076278324
0.076780011
0.077356558
0.077977411
0.078600321
0.079185296
0.079704777
0.080139937
0.080483097
0.080750397
0.080971757
0.081175179
0.081383109
0.081613455
0.081876781
0.082169859
0.082487349
0.082832815
0.083233059
0.083719627
0.084323327
0.085018654
0.085783999
0.086531243
0.087238169
0.088153636
)
;
    }
}


// ************************************************************************* //
