/*--------------------------------*- C++ -*----------------------------------*\
| =========                 |                                                 |
| \\      /  F ield         | OpenFOAM: The Open Source CFD Toolbox           |
|  \\    /   O peration     | Version:  2506                                  |
|   \\  /    A nd           | Website:  www.openfoam.com                      |
|    \\/     M anipulation  |                                                 |
\*---------------------------------------------------------------------------*/
FoamFile
{
    version     2.0;
    format      ascii;
    arch        "LSB;label=32;scalar=64";
    class       volScalarField;
    location    "0.65";
    object      nut;
}
// * * * * * * * * * * * * * * * * * * * * * * * * * * * * * * * * * * * * * //

dimensions      [0 2 -1 0 0 0 0];

internalField   nonuniform List<scalar> 
1376
(
0.19798169
0.19641044
0.19532331
0.19452528
0.19391416
0.19345574
0.19311426
0.19285916
0.19266613
0.1925133
0.19238789
0.19228058
0.19218548
0.19210163
0.19202604
0.19195649
0.19189386
0.19183708
0.19178404
0.19173623
0.19169625
0.19166475
0.19163306
0.19161115
0.1915991
0.19159067
0.19159235
0.19161386
0.19167008
0.19174948
0.19184846
0.19202641
0.18250518
0.1444615
0.11589101
0.097313589
0.077759863
0.063135934
0.039763578
0.044779089
0.045717035
0.025387634
0.020284758
0.014050089
0.0067713441
0.0063385502
0.010114457
0.0085302855
0.00071580767
0.19795333
0.19646232
0.19541935
0.19463584
0.19403102
0.19356933
0.19322052
0.192958
0.1927584
0.19260002
0.19246942
0.19235734
0.1922576
0.19216937
0.19208953
0.19201632
0.19195034
0.19189013
0.19183357
0.19178362
0.19173995
0.19170632
0.19167373
0.19164722
0.19163079
0.1916214
0.19162231
0.19163949
0.19168729
0.19175044
0.19185993
0.1920217
0.18807387
0.15032492
0.12861504
0.10100529
0.08168642
0.061927266
0.062470441
0.040956621
0.027235973
0.023708401
0.025487813
0.015579466
0.012149952
0.0065908434
0.0078546157
0.0040431954
0.00072325143
0.19807285
0.19662543
0.19557896
0.19479642
0.19418737
0.19371353
0.19335201
0.19307771
0.19286806
0.19270165
0.19256365
0.19244482
0.19234
0.19224613
0.19216101
0.19208426
0.19201316
0.19194964
0.19188944
0.1918361
0.19178826
0.19175109
0.19171674
0.19168501
0.19166449
0.19165457
0.19165444
0.19166276
0.19169612
0.19175331
0.19186615
0.19200415
0.18595832
0.15092654
0.11981424
0.10395156
0.084337904
0.070775906
0.043569592
0.039651104
0.035677581
0.02571841
0.018126123
0.013344969
0.01531325
0.0038665502
0.004419544
0.0039176914
0.00076805234
0.19814004
0.19674386
0.19572276
0.19495294
0.19434308
0.19386134
0.19348898
0.19320368
0.19298446
0.19280962
0.19266369
0.19253784
0.19242698
0.19232762
0.19223673
0.19215577
0.19207941
0.19201208
0.19194784
0.19189035
0.19183918
0.1917973
0.19175986
0.19172461
0.19170174
0.1916891
0.19168357
0.19168898
0.19171605
0.19176282
0.19187162
0.1919916
0.19221034
0.15783136
0.12893829
0.09931467
0.081266757
0.063030093
0.060025502
0.041247472
0.031737117
0.025650941
0.020344992
0.015264997
0.0054941043
0.0082109682
0.0075116198
0.0040991686
0.00074329786
0.1982121
0.1968725
0.19587662
0.19511804
0.19450767
0.19401782
0.19363469
0.1933394
0.19311016
0.19292605
0.19277143
0.19263799
0.19252021
0.1924146
0.19231777
0.19223148
0.19215006
0.19207753
0.19200986
0.19194821
0.19189297
0.19184547
0.19180554
0.19176843
0.19174122
0.19172414
0.1917143
0.19171616
0.19173928
0.19178024
0.19186866
0.19198701
0.19218642
0.16069326
0.12793227
0.10678611
0.084312934
0.071345964
0.047969162
0.041456036
0.032991422
0.026462613
0.022124278
0.014383025
0.014848234
0.0081292229
0.0047861547
0.0027254877
0.00080679823
0.19827134
0.19699546
0.19603168
0.19528601
0.19467737
0.19418065
0.19378917
0.19348442
0.19324466
0.19305039
0.19288652
0.19274469
0.19261953
0.19250708
0.19240401
0.19231142
0.19222543
0.19214758
0.19207519
0.19200895
0.19194957
0.19189678
0.19185354
0.191815
0.19178394
0.1917617
0.1917469
0.19174387
0.19176107
0.19180126
0.19186471
0.19199382
0.19215992
0.16338789
0.13169291
0.10624182
0.084867673
0.065472392
0.059927913
0.041188711
0.033281094
0.024711473
0.018516842
0.017278791
0.0071314618
0.0069907225
0.0056157996
0.0035652099
0.00080297286
0.19832442
0.1971192
0.19618939
0.19545585
0.19485066
0.19435088
0.19395202
0.19363819
0.19338738
0.19318207
0.19300824
0.19285734
0.19272456
0.19260491
0.19249557
0.19239604
0.19230564
0.19222179
0.19214395
0.19207313
0.19200956
0.19195259
0.191905
0.19186325
0.19182767
0.19180073
0.19178221
0.1917765
0.19178749
0.19181802
0.19186846
0.1920008
0.19213526
0.1675211
0.13464617
0.10551925
0.088380231
0.069096004
0.051137889
0.044819681
0.033028204
0.027561391
0.020878744
0.01348926
0.01490195
0.0065660021
0.0055735147
0.0029748179
0.0008443357
0.19838659
0.19724462
0.19634665
0.19562685
0.19502675
0.19452629
0.19412169
0.19379906
0.1935368
0.19332005
0.19313569
0.19297569
0.19283493
0.1927076
0.19259163
0.19248491
0.19238883
0.19229911
0.19221625
0.19214092
0.19207274
0.19201212
0.19195914
0.19191236
0.19187241
0.19184216
0.19182093
0.19180947
0.19181448
0.19183834
0.19188692
0.19199694
0.19211625
0.17067139
0.13737452
0.11376218
0.086178146
0.071755817
0.056978207
0.040670121
0.035491579
0.024636597
0.019419752
0.016542819
0.0086523909
0.0073690199
0.0044974276
0.0032033952
0.00089361049
0.1984532
0.19736888
0.19650212
0.19579754
0.19520458
0.19470545
0.19429571
0.19396403
0.19369106
0.19346291
0.19326833
0.1930991
0.19294957
0.19281442
0.19269133
0.19257715
0.19247442
0.19237943
0.19229127
0.1922109
0.19213723
0.19207155
0.19201382
0.19196324
0.19192039
0.19188579
0.19185959
0.19184391
0.19184321
0.19186021
0.19191256
0.19196988
0.19212017
0.17255632
0.1398571
0.110375
0.091284938
0.069261048
0.057581534
0.046214635
0.031831461
0.027950921
0.02008706
0.013633268
0.012818189
0.0063086862
0.0052657386
0.0027689094
0.00088876229
0.198522
0.1974916
0.19665369
0.19596409
0.19537945
0.19488319
0.19446914
0.19412975
0.19384743
0.19360905
0.19340481
0.19322597
0.19306734
0.19292436
0.1927938
0.19267236
0.19256248
0.19246208
0.19236865
0.19228219
0.19220312
0.19213273
0.19207075
0.19201587
0.1919683
0.19192995
0.19189971
0.19187877
0.19187192
0.19188273
0.1919298
0.19195851
0.19213851
0.17645181
0.14426874
0.11479847
0.091791283
0.073128278
0.054026981
0.046239888
0.034572887
0.026082152
0.021088749
0.015103661
0.009529042
0.0078193731
0.0045702359
0.00295386
0.0009408915
0.19857911
0.19761018
0.19680065
0.19612374
0.19554832
0.19505564
0.19463942
0.1942943
0.19400437
0.1937569
0.19354266
0.1933544
0.19318657
0.19303497
0.19289663
0.19276843
0.19265128
0.19254485
0.19244632
0.19235446
0.19227055
0.19219535
0.19212877
0.19206967
0.19201745
0.19197412
0.19193956
0.19191435
0.1919021
0.19190834
0.1919448
0.19196042
0.19215208
0.1815859
0.14423944
0.11877076
0.091537985
0.074813457
0.05981048
0.042535861
0.037438845
0.025155935
0.01957855
0.015206539
0.011118852
0.0070394691
0.0049262363
0.0024625013
0.00086909093
0.19863076
0.19771592
0.19693439
0.19627353
0.195708
0.19522038
0.194805
0.19445529
0.1941593
0.19390319
0.19367921
0.19348152
0.19330471
0.19314498
0.19299882
0.19286306
0.19273868
0.19262633
0.19252279
0.19242568
0.19233656
0.19225639
0.19218515
0.19212135
0.19206453
0.19201749
0.19197965
0.19195074
0.19193298
0.19193373
0.19195887
0.19198022
0.19215068
0.18595682
0.14960227
0.11824269
0.097134237
0.073118222
0.058748954
0.046762921
0.034310086
0.028719657
0.020000543
0.014778264
0.010274007
0.0074739248
0.0043566168
0.0029688988
0.00096864255
0.19868566
0.19781072
0.19705552
0.1964133
0.19585876
0.19537731
0.1949646
0.19461165
0.19430833
0.19404367
0.19381066
0.19360435
0.19341906
0.19325142
0.19309816
0.19295563
0.19282421
0.19270528
0.19259627
0.19249458
0.19240053
0.19231523
0.19223943
0.19217164
0.19211086
0.19205964
0.19201813
0.19198582
0.19196371
0.19195961
0.1919731
0.1920203
0.19210883
0.19050601
0.1521593
0.12181282
0.095535763
0.077719512
0.058447332
0.047076145
0.034653835
0.027470439
0.020600634
0.014910164
0.010785062
0.0069023711
0.004607475
0.0024492688
0.00089612647
0.19873824
0.19790583
0.19717469
0.19654629
0.19599924
0.195525
0.19511554
0.19475868
0.1944479
0.19417552
0.19393416
0.19372004
0.19352718
0.19335223
0.19319222
0.19304346
0.19290551
0.19278032
0.19266592
0.1925597
0.19246124
0.19237134
0.19229133
0.1922195
0.1921545
0.19209935
0.1920542
0.19201853
0.19199249
0.19198299
0.19198933
0.19203902
0.1920841
0.19227989
0.15515519
0.12380922
0.097883408
0.076519337
0.060657318
0.046023105
0.0373571
0.026456778
0.020468799
0.014913942
0.010473857
0.0072071868
0.0045787513
0.0026568546
0.00095417389
0.19878446
0.19798526
0.1972756
0.19665999
0.1961246
0.19565816
0.19524882
0.19488842
0.19457267
0.19429467
0.19404734
0.19382626
0.19362635
0.19344451
0.19327802
0.19312361
0.19297983
0.19284877
0.19272906
0.19261813
0.19251523
0.19242083
0.19233688
0.19226194
0.19219367
0.19213528
0.19208712
0.19204845
0.19201925
0.19200546
0.19200494
0.19205509
0.19206761
0.19228483
0.15705598
0.12485597
0.099206943
0.077263415
0.060824284
0.046901138
0.035989688
0.027528643
0.020879726
0.014632783
0.010684933
0.0069401136
0.0041300644
0.0026078531
0.00091350166
0.19882953
0.19805515
0.1973604
0.19675667
0.19623236
0.19577162
0.19536219
0.19500103
0.19468249
0.19440083
0.1941484
0.19392047
0.19371367
0.19352537
0.193353
0.19319351
0.19304479
0.19290857
0.19278413
0.19266927
0.19256275
0.1924648
0.19237757
0.19229986
0.19222843
0.19216635
0.19211485
0.19207278
0.19204014
0.1920223
0.19201587
0.19206496
0.1920518
0.19228715
0.15913284
0.126768
0.10014387
0.078618018
0.060776077
0.047764407
0.036321376
0.027981292
0.020125523
0.015303383
0.010247111
0.0070260476
0.0043785905
0.0025745376
0.00091345417
0.1988672
0.19811312
0.19743225
0.19683845
0.19631997
0.19586211
0.19545637
0.19509603
0.19477474
0.19448827
0.19423042
0.19399683
0.19378471
0.19359151
0.19341464
0.19325096
0.19309814
0.19295739
0.19282871
0.19271055
0.19260116
0.19250027
0.19241009
0.19232986
0.19225586
0.19219071
0.19213646
0.1920915
0.19205577
0.19203462
0.19202394
0.1920716
0.19203922
0.19228876
0.16306446
0.12992945
0.10275932
0.080317697
0.06260956
0.048412177
0.037520424
0.028184426
0.021174576
0.015159048
0.010680728
0.0070671661
0.0043231914
0.0025426095
0.00092110282
0.19889494
0.19815383
0.19748284
0.19689795
0.1963866
0.1959336
0.19552799
0.19516447
0.19484016
0.19455008
0.19428928
0.19405262
0.19383709
0.19364035
0.1934601
0.19329314
0.19313729
0.1929932
0.19286127
0.19274048
0.19262897
0.19252604
0.19243386
0.19235184
0.19227604
0.19220881
0.19215295
0.19210664
0.19206995
0.19204828
0.19203641
0.19208303
0.19203993
0.1922981
0.16756229
0.1333643
0.10523068
0.082123539
0.063740024
0.04956026
0.038074761
0.028893985
0.021418852
0.015493509
0.010879485
0.0071765764
0.0044028661
0.0026899204
0.00094451807
0.19891171
0.19817832
0.1975136
0.19693317
0.19642471
0.19597397
0.19556945
0.19520541
0.19487945
0.1945875
0.19432493
0.19408637
0.19386851
0.1936692
0.19348638
0.19331722
0.19315963
0.19301377
0.19288001
0.19275778
0.19264531
0.19254144
0.19244853
0.19236595
0.19228959
0.19222228
0.19216667
0.19212112
0.19208649
0.19206836
0.19205964
0.19210865
0.19206968
0.19233101
0.16451681
0.13084951
0.10315436
0.080388942
0.062364351
0.048365897
0.037231563
0.028161087
0.020872107
0.015131456
0.010479553
0.0069529133
0.0042696127
0.0025217909
0.00091464443
0.19891726
0.19818635
0.19752381
0.19694384
0.19643498
0.19598424
0.19558038
0.19521765
0.1948913
0.19459836
0.19433498
0.19409578
0.19387715
0.19367685
0.19349281
0.19332259
0.19316444
0.19301822
0.19288414
0.19276174
0.19264942
0.19254564
0.19245312
0.19140148
0.19143563
0.19147008
0.19151407
0.19156612
0.19162912
0.19170735
0.19180635
0.19193298
0.19210536
0.19234792
0.19272335
0.19329714
0.19420406
0.19548724
0.19153258
0.19143966
0.19136105
0.19133102
0.1913149
0.19130813
0.19131614
0.19132336
0.19133509
0.19134498
0.19137291
0.19139327
0.19141968
0.19145542
0.19149298
0.19153109
0.19157901
0.19163473
0.19170232
0.19178574
0.19189096
0.19202551
0.19220813
0.19246635
0.19286294
0.19346011
0.1943797
0.1956809
0.053200471
0.065906288
0.097395352
0.12622281
0.12082597
0.12264133
0.16695233
0.19212168
0.19185127
0.1916712
0.19153337
0.19145323
0.19139271
0.19136228
0.19134374
0.19133793
0.19134479
0.19135791
0.19136547
0.19138762
0.19141318
0.19144203
0.19147165
0.19151012
0.19155231
0.191595
0.1916469
0.1917064
0.19177863
0.19186761
0.19197942
0.19212254
0.19231646
0.19259192
0.19301137
0.19363223
0.19456778
0.19588571
0.017535603
0.013799513
0.019660348
0.010814068
0.027684323
0.018039924
0.034958189
0.035835514
0.036720329
0.077335132
0.068756541
0.083333536
0.08740716
0.12318323
0.16290072
0.1923829
0.19206494
0.19182534
0.19165475
0.19154387
0.19147306
0.19140889
0.19138609
0.19137439
0.19137058
0.19138224
0.19139403
0.19141217
0.19143336
0.19146061
0.19149282
0.19152577
0.1915665
0.19161247
0.19166112
0.19171682
0.19178076
0.19185826
0.19195302
0.19207196
0.19222462
0.19243141
0.19272511
0.19316849
0.1938133
0.1947648
0.19610247
0.0007746385
0.020638163
0.016479504
0.021221672
0.028681292
0.020474949
0.023275745
0.032095496
0.027978452
0.042382565
0.052834793
0.043020103
0.064766278
0.0879071
0.11393333
0.13052325
0.16734375
0.1923346
0.1920351
0.19179816
0.19165607
0.1915442
0.19147379
0.19142513
0.19140277
0.19140413
0.1914062
0.19142148
0.19143787
0.19145802
0.19148071
0.1915112
0.19154509
0.19158174
0.19162554
0.19167403
0.19172815
0.19178826
0.1918579
0.19194113
0.19204222
0.19216912
0.19233202
0.19255323
0.19286702
0.19333525
0.19400306
0.19496686
0.19633168
0.00075771802
0.01378096
0.01847214
0.015462097
0.031430484
0.020404336
0.038266548
0.040576359
0.044438326
0.036201677
0.040634852
0.075478978
0.078852121
0.089732637
0.11071468
0.14024679
0.16183362
0.18627991
0.19199981
0.19178457
0.19164026
0.19155434
0.1914964
0.19145597
0.1914349
0.1914334
0.19143884
0.19145414
0.19147778
0.19150119
0.19152771
0.19156267
0.19159651
0.19164033
0.19168729
0.19173964
0.19179769
0.19186239
0.19193779
0.19202707
0.19213536
0.19227101
0.1924456
0.19268264
0.19301843
0.19351182
0.19420264
0.195184
0.19657358
0.0007411951
0.01275959
0.0090868721
0.0076053674
0.022914787
0.0086326465
0.021677656
0.020410437
0.02801437
0.046739859
0.051612389
0.056657899
0.07571657
0.10146177
0.11246335
0.13671894
0.16244765
0.19223649
0.19195567
0.19176372
0.19164115
0.19156489
0.19151865
0.19148467
0.19146815
0.19146979
0.19147685
0.19149338
0.19151607
0.19154249
0.19157508
0.19161249
0.19165513
0.19170046
0.191751
0.19180743
0.19187028
0.1919403
0.19202106
0.19211624
0.19223281
0.192378
0.19256554
0.19282027
0.19317983
0.19369873
0.19441142
0.19541095
0.19683339
0.00073530793
0.015180668
0.0094907937
0.0078171321
0.033934226
0.024360702
0.012082974
0.026580343
0.029079691
0.032974974
0.053930604
0.062794972
0.072452963
0.086376801
0.11510775
0.14417904
0.17925117
0.19217042
0.19192589
0.19175851
0.19164174
0.19157297
0.19153013
0.19150805
0.19149741
0.19150096
0.19151462
0.19153512
0.19156018
0.19158848
0.19162434
0.19166542
0.19171323
0.19176233
0.19181676
0.19187799
0.19194568
0.19202107
0.19210758
0.19221002
0.19233485
0.19249072
0.19269303
0.1929676
0.19335158
0.19389547
0.19462982
0.19564664
0.19710999
0.00075403132
0.0052992388
0.012213507
0.013036761
0.0083594447
0.014733988
0.02255519
0.022390483
0.041278237
0.037068798
0.043883183
0.0629075
0.081516592
0.10242301
0.11658122
0.14337285
0.16904021
0.19211503
0.19189355
0.1917583
0.19165308
0.1915879
0.19154856
0.19153369
0.19153241
0.19153683
0.19155233
0.19157681
0.19160487
0.1916364
0.19167654
0.19172064
0.19177172
0.19182544
0.19188448
0.19195107
0.19202366
0.19210515
0.19219853
0.19230834
0.19244181
0.19260933
0.19282837
0.19312437
0.19353326
0.19410197
0.19485801
0.19589804
0.19740299
0.00073957702
0.005674731
0.0061904926
0.005446473
0.0097430106
0.007494868
0.015409438
0.024233427
0.02182522
0.041306456
0.061865955
0.064814211
0.074087023
0.094965131
0.12738548
0.1467557
0.18072357
0.1920683
0.19187071
0.19175488
0.19165927
0.19159795
0.19156981
0.19156377
0.19156653
0.19157414
0.19159314
0.19162065
0.19165033
0.19168606
0.19173085
0.19177827
0.19183199
0.19189081
0.19195479
0.19202607
0.19210436
0.19219277
0.19229324
0.19241078
0.19255372
0.19273384
0.19297081
0.19328992
0.19372462
0.19431621
0.19509438
0.19616126
0.19771193
)
;

boundaryField
{
    Side
    {
        type            empty;
    }
    Inlet
    {
        type            calculated;
        value           nonuniform List<scalar> 
30
(
0.1989915
0.19899019
0.19897682
0.198979
0.19899896
0.19900801
0.1989993
0.19901269
0.19904407
0.19908015
0.19909233
0.19910803
0.19913247
0.19915817
0.19917916
0.19920438
0.19922765
0.19924676
0.19925944
0.19926384
0.19984994
0.19976052
0.19968593
0.19963037
0.19960312
0.19960145
0.19961417
0.19951862
0.19930807
0.19902509
)
;
    }
    Airfoil
    {
        type            nutkWallFunction;
        blending        stepwise;
        value           nonuniform List<scalar> 
25
(
0.00085843673
0.00084891485
0.00084175676
0.00083668106
0.00083393257
0.00083279966
0.00083343696
0.00083554762
0.00083889625
0.00084337538
0.00084863773
0.00085456764
0.00086075741
0.00086699957
0.00087292886
0.00087836372
0.00088306579
0.00088677635
0.0008892898
0.00090045377
0.00089073463
0.0008819899
0.00087542933
0.00087098645
0.0008683788
)
;
    }
    Outlet
    {
        type            calculated;
        value           nonuniform List<scalar> 0();
    }
    procBoundary7to0
    {
        type            processor;
        value           nonuniform List<scalar> 
50
(
0.19237111
0.19229527
0.19222933
0.19217552
0.1921313
0.19209756
0.19207977
0.19207247
0.19212398
0.19209499
0.19235717
0.16002808
0.1273349
0.10040866
0.078296798
0.060762642
0.047131754
0.036237394
0.027388964
0.02031474
0.014649498
0.010149767
0.0066696369
0.0040310118
0.002346367
0.0008742405
0.1989117
0.19817926
0.19751475
0.19693276
0.19642293
0.19597201
0.19556826
0.19520488
0.19487873
0.1945865
0.19432399
0.1940855
0.19386755
0.19366824
0.19348513
0.1933157
0.19315844
0.19301297
0.19287927
0.19275699
0.19264499
0.19254137
0.19237111
0.19244876
)
;
    }
    procBoundary7to8
    {
        type            processor;
        value           nonuniform List<scalar> 
53
(
0.19134824
0.19137931
0.19141143
0.19145274
0.19150084
0.19155916
0.19163237
0.19172558
0.19184521
0.19200784
0.19223671
0.19259223
0.19314256
0.1940293
0.19530606
0.19157881
0.19145484
0.19135329
0.19130971
0.19128089
0.19127364
0.19127974
0.19128726
0.1912998
0.19130358
0.19133169
0.1913481
0.1913703
0.1913703
0.04764883
0.081413806
0.086560977
0.10121304
0.10641255
0.19271699
0.19250807
0.19217453
0.19189567
0.19171105
0.19171105
0.013331175
0.017227315
0.023008683
0.018215709
0.029650238
0.023697395
0.035963696
0.029830969
0.067362844
0.067362844
0.00078749157
0.019817146
0.019817146
)
;
    }
}


// ************************************************************************* //
