/*--------------------------------*- C++ -*----------------------------------*\
| =========                 |                                                 |
| \\      /  F ield         | OpenFOAM: The Open Source CFD Toolbox           |
|  \\    /   O peration     | Version:  2506                                  |
|   \\  /    A nd           | Website:  www.openfoam.com                      |
|    \\/     M anipulation  |                                                 |
\*---------------------------------------------------------------------------*/
FoamFile
{
    version     2.0;
    format      ascii;
    arch        "LSB;label=32;scalar=64";
    class       volScalarField;
    location    "2.65";
    object      Cp;
}
// * * * * * * * * * * * * * * * * * * * * * * * * * * * * * * * * * * * * * //

dimensions      [0 0 0 0 0 0 0];

internalField   nonuniform List<scalar> 
1375
(
0.023455323
0.023614623
0.023811274
0.024017154
0.024144983
0.024232547
0.024409828
0.024690176
0.024984383
0.023452324
0.023614034
0.023809863
0.024017566
0.024143753
0.024228981
0.024406542
0.024684768
0.024978191
0.025248576
0.023448413
0.023616811
0.023809204
0.024017694
0.024143705
0.024226204
0.024405311
0.024681385
0.024972739
0.025244942
0.023448483
0.023618831
0.023801767
0.02401976
0.024143295
0.024223034
0.024404166
0.024677799
0.024966283
0.025240364
0.023454475
0.02361246
0.02379847
0.024022673
0.024142464
0.02422021
0.02440085
0.024674485
0.024959978
0.02523426
0.023459895
0.023603536
0.023801066
0.024020682
0.024141343
0.024217539
0.02439741
0.024669866
0.024952095
0.025227128
0.023466258
0.023595824
0.023798156
0.024023348
0.024139086
0.024215011
0.024393857
0.024665027
0.024941312
0.025219655
0.02347497
0.023590769
0.023790612
0.024018066
0.024138454
0.024212625
0.024389725
0.024660929
0.024925636
0.025210903
0.023486721
0.023582359
0.023782974
0.024012533
0.024137904
0.024210488
0.024385366
0.024652442
0.024910227
0.025200744
0.0235001
0.023567892
0.02378226
0.024010132
0.024134703
0.024209144
0.024380228
0.024635712
0.02489475
0.025195213
0.023514843
0.023554272
0.023778493
0.024006646
0.024131597
0.024208828
0.024373701
0.024618476
0.024881311
0.025183685
0.023518211
0.02355296
0.023774939
0.024002879
0.024128372
0.024209324
0.024366069
0.024600627
0.024871686
0.025161079
0.025400171
0.023511528
0.02356235
0.023771637
0.023998604
0.024125532
0.024209245
0.024356984
0.024580051
0.024858203
0.0251387
0.025377315
0.023507313
0.023571242
0.023767739
0.023994002
0.024123133
0.024207456
0.024345008
0.024557067
0.024839906
0.025118199
0.025353213
0.023506132
0.023578162
0.023763424
0.023988928
0.024120635
0.024202907
0.024329504
0.024533063
0.024815199
0.025100669
0.025327351
0.023509673
0.023580149
0.023759232
0.023982908
0.024117227
0.024195106
0.024310635
0.024508492
0.024789351
0.02507859
0.025299979
0.023519919
0.023579124
0.023755238
0.023976386
0.024112345
0.024184011
0.024288652
0.024482612
0.024760676
0.02504935
0.025271004
0.023530207
0.023575594
0.023753312
0.023970572
0.024105803
0.024170447
0.02426268
0.024455841
0.02472493
0.025013566
0.02523421
0.023536327
0.023573924
0.0237509
0.023967369
0.024096777
0.024157021
0.024233274
0.024426186
0.024682293
0.024967871
0.025184107
0.023542739
0.023570005
0.02374584
0.023966179
0.024083781
0.024143918
0.024208311
0.024393557
0.024629585
0.024907659
0.025124414
0.023548383
0.023563604
0.023738478
0.023963062
0.024071862
0.024129638
0.024189864
0.024346623
0.024569996
0.024837752
0.025064727
0.023553728
0.02355906
0.023725976
0.023955015
0.02406369
0.024114711
0.024170773
0.024294429
0.024506317
0.024765019
0.025006766
0.023557214
0.023559179
0.023705258
0.02393963
0.024056885
0.024100046
0.024148391
0.024246124
0.024437491
0.024688957
0.024933378
0.02355543
0.023562814
0.02368142
0.023915985
0.024046148
0.0240846
0.024122156
0.024198791
0.024364807
0.024601898
0.02483944
0.023547297
0.023567192
0.023651645
0.023882055
0.024032108
0.024065742
0.024096152
0.02415619
0.02429678
0.024502574
0.024719789
0.023539381
0.02357241
0.023628955
0.023828899
0.023995282
0.024045423
0.024063702
0.024107284
0.024229669
0.024416049
0.024583144
0.024774987
0.023537096
0.023574228
0.023623647
0.023761425
0.023932467
0.024014894
0.024032436
0.024065266
0.024142086
0.024321531
0.024482825
0.024589253
0.023523294
0.023563802
0.023589883
0.02369166
0.023865342
0.023974667
0.02400591
0.024024247
0.024055574
0.024190379
0.024386066
0.024476508
0.023477629
0.02353785
0.023560841
0.023636005
0.023789206
0.023920288
0.023968594
0.02398526
0.023988754
0.0240502
0.024229691
0.0243702
0.023437859
0.023479038
0.023534415
0.023575035
0.023710625
0.023846344
0.023919223
0.023951404
0.023947009
0.023949215
0.024036749
0.024162887
0.023432725
0.023449096
0.023466394
0.023511613
0.023628378
0.023756685
0.023848451
0.023897992
0.023910563
0.023887494
0.023886558
0.023911668
0.023333019
0.023400585
0.023420856
0.023451145
0.023523231
0.023652134
0.023765023
0.023819534
0.023833591
0.023819752
0.023789183
0.02376229
0.023792498
0.023249319
0.023351743
0.023365216
0.023392922
0.023436271
0.023520317
0.023610379
0.023688984
0.023748162
0.023752797
0.023686662
0.023654072
0.023639572
0.023219436
0.023278075
0.023309688
0.023332376
0.023344422
0.023382688
0.023451622
0.023523392
0.023585101
0.023602154
0.023581451
0.023615507
0.023545445
0.023200959
0.023190472
0.023257421
0.023259728
0.023254792
0.023258249
0.023306052
0.023362424
0.023404057
0.023427075
0.023453636
0.023462639
0.023406547
0.023388338
0.023184937
0.023170872
0.02320134
0.023189402
0.023172913
0.023153328
0.023134633
0.023167435
0.023213616
0.023273311
0.023308581
0.023249649
0.023248898
0.023268965
0.023132159
0.0231443
0.023130044
0.02310952
0.023100532
0.0230664
0.02301841
0.023002422
0.023017455
0.023056343
0.023075793
0.023073403
0.023062538
0.023055425
0.023077341
0.02308606
0.023076647
0.023096481
0.023020751
0.022981283
0.022938949
0.022947733
0.022916726
0.022835896
0.022855117
0.022855921
0.022878045
0.022840232
0.022808496
0.023001556
0.022979632
0.023010092
0.023004207
0.022946854
0.022932894
0.022903803
0.022913143
0.022843709
0.022766994
0.022738256
0.022675267
0.022634511
0.022584761
0.022595134
0.022963728
0.022943429
0.02290843
0.022861185
0.022893339
0.022886512
0.022890711
0.022888987
0.022823673
0.022830522
0.022749616
0.022643957
0.022550018
0.02251699
0.022449657
0.022392902
0.022818594
0.022789314
0.022789801
0.022779275
0.022743627
0.022705969
0.0227245
0.022714085
0.022699725
0.022679348
0.022612325
0.022587334
0.022567304
0.022483837
0.022419114
0.022411073
0.022348845
0.022733297
0.022749688
0.022776998
0.022726438
0.022653973
0.022625798
0.022637649
0.02259709
0.022605231
0.022591909
0.022575549
0.022550326
0.022501475
0.022469748
0.022500685
0.022410424
0.02230212
0.022714781
0.022694238
0.022652
0.022619991
0.022589739
0.022555309
0.022522352
0.02249658
0.022485975
0.022467578
0.022437886
0.0224088
0.02238721
0.022352957
0.022288025
0.022216515
0.022212232
0.022163025
0.022682484
0.022661666
0.022633928
0.022609574
0.022589722
0.022580731
0.022569487
0.022550915
0.022533638
0.022522751
0.022509385
0.022491551
0.022474337
0.02245488
0.022432285
0.02240173
0.022363598
0.022328179
0.022316314
0.022605838
0.022589249
0.022574811
0.022537242
0.022514337
0.022504396
0.022493347
0.022490206
0.022488811
0.022489075
0.022486859
0.022486866
0.022478135
0.02246812
0.022455698
0.022447243
0.022437291
0.022412864
0.022392115
0.022388357
0.022597116
0.022584011
0.022582275
0.02258162
0.022594396
0.022601221
0.022593939
0.022591519
0.022599456
0.022607439
0.022614674
0.022618049
0.022619799
0.022625592
0.022637205
0.022640209
0.022640632
0.02264598
0.02265526
0.022657196
0.022645228
0.022632784
0.02258024
0.022555855
0.022542892
0.022545424
0.022547883
0.02254107
0.022539188
0.022546178
0.022541116
0.022532837
0.022532628
0.022534009
0.022531235
0.022531195
0.022531182
0.022531801
0.022549146
0.022564493
0.022572709
0.022580743
0.022592737
0.022598666
0.022596951
0.022648283
0.022652421
0.022635441
0.022637309
0.022643592
0.022644481
0.022623086
0.02259937
0.022587732
0.022584995
0.022574239
0.02255837
0.0225466
0.022543548
0.022546957
0.022554349
0.02256003
0.022566258
0.022578696
0.022593957
0.02260697
0.022614815
0.022623867
0.022635412
0.022647589
0.02256265
0.022568512
0.022581799
0.022593083
0.02259305
0.022585956
0.02258337
0.022584572
0.022577287
0.02256124
0.022545636
0.022529858
0.022513036
0.022497995
0.022490099
0.022488988
0.022488845
0.022488723
0.022489141
0.022492361
0.022500277
0.022512833
0.022527649
0.022539975
0.022554821
0.022572558
0.022584426
0.023519028
0.023518907
0.023519859
0.023521911
0.023523354
0.023523139
0.023521684
0.023518584
0.023511864
0.023508369
0.023510548
0.02351025
0.023509445
0.023502753
0.023495975
0.02349245
0.023486326
0.02348287
0.023481245
0.02348039
0.023479964
0.023476051
0.023476579
0.023480026
0.023479719
0.023467341
0.023451379
0.023399524
0.02333501
0.023314283
0.023288107
0.023255195
0.023256733
0.023234045
0.023207958
0.023167514
0.023096401
0.023008291
0.022955162
0.022937898
0.022865858
0.022774885
0.022743286
0.022713277
0.02264721
0.022629395
0.022608815
0.02266061
0.022574671
0.023379999
0.023381014
0.023382198
0.02338384
0.023385726
0.023387432
0.023388492
0.02338908
0.023393171
0.023396208
0.023391863
0.023388338
0.023386431
0.023391901
0.023402777
0.023414909
0.023422741
0.023421136
0.023412184
0.023392408
0.023364332
0.023334016
0.023318066
0.023304829
0.023299758
0.023276081
0.023260257
0.023284287
0.023326251
0.023336257
0.023303324
0.023295076
0.023291467
0.023233274
0.023165803
0.023115823
0.02303531
0.022963636
0.022943696
0.022888188
0.022841205
0.022790037
0.022760585
0.022754319
0.022685941
0.022661669
0.02263042
0.02265501
0.022589646
0.023252489
0.02325418
0.023256074
0.023258407
0.02326127
0.023264613
0.023268591
0.023273232
0.023276383
0.023276385
0.023276277
0.023277015
0.023276559
0.023271352
0.023259214
0.023245551
0.02323823
0.023237927
0.023241979
0.023251853
0.023266791
0.023278541
0.023269758
0.023262712
0.02325627
0.023259469
0.023275085
0.023296041
0.023299797
0.023281437
0.023265851
0.023236469
0.023177585
0.023142971
0.023092227
0.023033207
0.023034647
0.022994864
0.022953887
0.022867759
0.02280518
0.022805155
0.022783583
0.022780726
0.022710638
0.022664584
0.022646092
0.022674399
0.022596531
0.023193117
0.023195206
0.023197607
0.02320047
0.023203783
0.023207255
0.023210622
0.023213866
0.023217235
0.023220474
0.023223099
0.023225178
0.023227079
0.023228886
0.023228877
0.023226156
0.023221303
0.023215203
0.023211
0.023208404
0.02320744
0.023205729
0.023202826
0.023199054
0.023196008
0.023199621
0.023191305
0.023160194
0.02312843
0.023107479
0.023123772
0.023148065
0.023178031
0.023153144
0.023077458
0.023008324
0.022967223
0.022945644
0.022918062
0.022846994
0.022792851
0.022821686
0.022824385
0.022799056
0.022738932
0.022682879
0.022660014
0.022674124
0.02260187
0.023118683
0.023125274
0.023131913
0.023138571
0.02314508
0.02315115
0.023156591
0.023161196
0.02316411
0.023165392
0.023165905
0.023165485
0.023164727
0.023164593
0.023164841
0.023163861
0.023161132
0.023156558
0.023151022
0.023144959
0.02313808
0.02313139
0.023126643
0.023120381
0.023115021
0.023100637
0.023072213
0.023047596
0.023043466
0.023046924
0.023054992
0.023050469
0.023042232
0.023051092
0.02304351
0.022966935
0.022906384
0.02286245
0.022873669
0.022854511
0.022852234
0.02287606
0.022844544
0.022796843
0.022759025
0.022720913
0.022679807
0.022668149
0.022613943
0.023011959
0.023016512
0.023020444
0.023023878
0.02302688
0.023029655
0.023032363
0.023035006
0.023037602
0.023040522
0.023044106
0.023048146
0.023052166
0.023056195
0.023060047
0.023062977
0.023064078
0.023062146
0.023056676
0.023047163
0.023031821
0.023016778
0.023018629
0.023032367
0.023038487
0.023041364
0.023042337
0.023030104
0.022999996
0.022959927
0.022944903
0.022935066
0.022936209
0.02296033
0.022958776
0.022906675
0.022874083
0.022861511
0.022875732
0.022887958
0.022911487
0.022906035
0.022837744
0.022816568
0.02279613
0.022738381
0.022691142
0.02267177
0.022627841
0.022904193
0.022907552
0.022911344
0.022915394
0.022919239
0.022922621
0.022925783
0.022929175
0.022933075
0.022937339
0.022941502
0.022945358
0.022949597
0.022954907
0.022960515
0.022965824
0.022969842
0.022970714
0.022968319
0.022965484
0.02296321
0.022955032
0.022935041
0.022925138
0.022931302
0.022949685
0.022969703
0.022966502
0.022943948
0.022929678
0.022879132
0.022867263
0.022907947
0.02290333
0.022864776
0.022853368
0.022881538
0.022899128
0.022886233
0.022895273
0.02295468
0.022925127
0.022847916
0.022848346
0.022819329
0.022745723
0.022699263
0.022693048
0.022635508
0.022849074
0.022848416
0.022849512
0.022852089
0.02285587
0.02286033
0.022864919
0.022869198
0.022872891
0.022875988
0.022878836
0.022882134
0.022886438
0.022891942
0.022898484
0.022906102
0.022914264
0.022922636
0.022931088
0.022939386
0.022946767
0.022947343
0.022930715
0.022891815
0.022863871
0.022872119
0.022882507
0.022872444
0.022862121
0.02283868
0.022881204
0.02291577
0.022862566
0.022854676
0.022905182
0.02290454
0.022921084
0.022951929
0.022939078
0.022917422
0.022951188
0.022932284
0.022872977
0.022866055
0.022835249
0.022763427
0.02270817
0.02270613
0.022636338
0.022841451
0.022839343
0.022837663
0.022836506
0.022836227
0.022836958
0.022838729
0.022841475
0.022844845
0.022848551
0.02285231
0.022855335
0.022857601
0.022860754
0.022865139
0.022870805
0.022877428
0.022882515
0.022887288
0.022894602
0.022901428
0.022901926
0.02289497
0.022887361
0.022881397
0.022855833
0.022843986
0.022861108
0.022878536
0.022901863
0.022897804
0.022882667
0.02290001
0.022900056
0.022899963
0.022943663
0.02296685
0.022990426
0.022989456
0.022991057
0.022966396
0.022909049
0.022877854
0.022882845
0.02285849
0.02279107
0.022711344
0.022717053
0.022638112
0.02279863
0.02280434
0.022808679
0.022811701
0.022813484
0.022814146
0.022813662
0.022812305
0.022809867
0.022807838
0.022807741
0.022808941
0.022811013
0.022814172
0.022816748
0.022819401
0.022824563
0.022830425
0.022832207
0.022827548
0.022818968
0.022811639
0.022834026
0.022859576
0.022853954
0.022849815
0.022859059
0.022881469
0.022904861
0.022913833
0.022906325
0.022901898
0.022907006
0.022918497
0.022967788
0.023012059
0.023019767
0.023025786
0.023021765
0.023001729
0.022940662
0.022907085
0.02289065
0.022911308
0.022882513
0.022818047
0.022718361
0.022712996
0.022640521
0.022714168
0.022718033
0.022721467
0.022724899
0.022728324
0.022732007
0.022736243
0.022740357
0.022748831
0.022754722
0.022754492
0.022756741
0.022753964
0.022753338
0.022755519
0.022756076
0.02275503
0.022755728
0.022759874
0.022768208
0.022784525
0.02281356
0.022833939
0.022848391
0.022881342
0.022896183
0.022895986
0.022884311
0.022892776
0.02291633
0.022915976
0.022931523
0.022934063
0.022942572
0.02298701
0.02301649
0.023041289
0.023020883
0.02297287
0.022942568
0.02291063
0.022936565
0.022924559
0.022948596
0.022908591
0.022834495
0.022724007
0.022711254
0.022644245
0.022637323
0.022641384
0.022646288
0.022651907
0.022657476
0.022661498
0.022664922
0.022669385
0.022671472
0.022677441
0.022690262
0.022700298
0.022715279
0.02273001
0.0227366
0.022741046
0.022749893
0.022759893
0.022773273
0.022790036
0.022813568
0.02283481
0.022843206
0.022845415
0.022844488
0.022833574
0.022804009
0.022786586
0.022800196
0.022865479
0.02290322
0.022918316
0.022931147
0.022948718
0.022976616
0.022998324
0.022998035
0.022976668
0.022957551
0.022948697
0.022919256
0.022929306
0.022947635
0.02297081
0.022917826
0.022842578
0.022717663
0.022711317
0.022643037
0.022611522
0.022617256
0.02262381
0.022630795
0.022637682
0.022643573
0.022650038
0.0226638
0.022683233
0.022698826
0.02270901
0.022716925
0.022725447
0.022737953
0.022743348
0.022745801
0.022743944
0.022739988
0.022745354
0.022768044
0.022764839
0.022748112
0.022764886
0.022815349
0.022860568
0.022891312
0.022913168
0.022939447
0.022958953
0.022971064
0.022973455
0.022954073
0.0229405
0.022916868
0.022938965
0.022963856
0.022972512
0.022924208
0.022836429
0.02270767
0.022716579
0.022641224
0.022614655
0.022612666
0.022618279
0.022623825
0.022635987
0.022647171
0.022650881
0.022677355
0.022722647
0.022754259
0.022740395
0.022762363
0.022804146
0.022831196
0.022862155
0.02289289
0.022921196
0.022944334
0.022959586
0.022955172
0.022953478
0.022933121
0.022950722
0.022964931
0.022966446
0.022923163
0.022831455
0.022711118
0.022715235
0.022637736
0.022679344
0.022705326
0.02269937
0.022700712
0.022719648
0.022743934
0.022807781
0.022857842
0.022901767
0.022938337
0.022967398
0.02295214
0.022955406
0.022956532
0.022955066
0.022959573
0.022959249
0.022905827
0.022835748
0.022709166
0.022712004
0.022629277
0.022833224
0.022893802
0.022931522
0.022922335
0.022950502
0.022990228
0.0229755
0.022970379
0.022949742
0.022942803
0.022888476
0.022842586
0.022710514
0.022704173
0.022620357
0.022984356
0.02300692
0.022995385
0.022958712
0.022927704
0.022922876
0.022875917
0.022852465
0.022721754
0.022698985
0.022621133
0.022942481
0.02290863
0.02289981
0.022878389
0.022863846
0.022726294
0.022699945
0.022625833
0.022893575
0.02287268
0.022730613
0.022687286
0.022627649
0.02274076
0.022675871
0.022626217
0.022620992
)
;

boundaryField
{
    Side
    {
        type            empty;
    }
    Inlet
    {
        type            calculated;
        value           nonuniform List<scalar> 
48
(
0.022569425
0.022583368
0.022608186
0.022624414
0.022631345
0.022631507
0.02261369
0.022581994
0.022556101
0.022532662
0.022509324
0.02248846
0.022471196
0.022457279
0.02244641
0.022437973
0.022430445
0.022423173
0.02241635
0.022409432
0.02240219
0.022395505
0.022390439
0.022386104
0.022382758
0.022383067
0.022400968
0.022570783
0.022570962
0.02257011
0.022570464
0.022571303
0.022571879
0.022571075
0.022569599
0.022568226
0.022565788
0.022561889
0.02255888
0.022560107
0.022568514
0.022583275
0.022596422
0.02259787
0.022595295
0.022591177
0.022586615
0.022581574
)
;
    }
    Airfoil
    {
        type            calculated;
        value           nonuniform List<scalar> 0();
    }
    Outlet
    {
        type            calculated;
        value           nonuniform List<scalar> 0();
    }
    procBoundary3to2
    {
        type            processor;
        value           nonuniform List<scalar> 
65
(
0.025541942
0.02553463
0.025524831
0.025514397
0.025504613
0.025495554
0.025479876
0.025462242
0.025442694
0.025421403
0.025421403
0.025681332
0.025650078
0.025614611
0.025574962
0.025529838
0.025478797
0.025421986
0.025359958
0.025291857
0.025214457
0.025141979
0.025081616
0.025017712
0.024939729
0.024939729
0.024996352
0.024793334
0.024570154
0.024356451
0.024215969
0.024016816
0.024016816
0.023855898
0.02364636
0.023456688
0.023456688
0.023365502
0.023199069
0.022945954
0.022945954
0.022828552
0.02258574
0.02258574
0.02234938
0.02234938
0.022249847
0.022279757
0.022279757
0.022116655
0.022116655
0.022293276
0.022293276
0.022374158
0.022374158
0.022344362
0.022620001
0.022620001
0.022589771
0.022589771
0.022578833
0.022647196
0.022647196
0.02264127
0.022586965
)
;
    }
    procBoundary3to4
    {
        type            processor;
        value           nonuniform List<scalar> 
57
(
0.022577827
0.022581673
0.022585903
0.022591603
0.022598798
0.022606017
0.022606017
0.022559984
0.02256491
0.022570636
0.022576728
0.02258134
0.022583362
0.022586438
0.022596669
0.022601671
0.022597581
0.022603238
0.022611403
0.022611403
0.022593317
0.022603515
0.022604793
0.022615336
0.0226288
0.022635154
0.02264467
0.022653793
0.022653793
0.022598838
0.022615362
0.022649731
0.022674844
0.022704263
0.022728826
0.022781723
0.022781723
0.022806305
0.022869993
0.022925038
0.02294653
0.02294653
0.023007292
0.023009715
0.022965529
0.022965529
0.022954116
0.02289086
0.022888283
0.022888283
0.02290752
0.022875477
0.022875477
0.022741778
0.022669998
0.022669998
0.022613647
)
;
    }
    procBoundary3to10
    {
        type            processor;
        value           nonuniform List<scalar> 
23
(
0.023458088
0.023615276
0.023810599
0.024015162
0.024144553
0.024233887
0.024408907
0.024691086
0.025255666
0.024985851
0.025255666
0.023519587
0.02337939
0.023251662
0.02319227
0.023114334
0.023010041
0.02290391
0.022851755
0.022844158
0.022795839
0.022715723
0.022639004
)
;
    }
    procBoundary3to11
    {
        type            processor;
        value           uniform 0.022573726;
    }
}


// ************************************************************************* //
