/*--------------------------------*- C++ -*----------------------------------*\
| =========                 |                                                 |
| \\      /  F ield         | OpenFOAM: The Open Source CFD Toolbox           |
|  \\    /   O peration     | Version:  2506                                  |
|   \\  /    A nd           | Website:  www.openfoam.com                      |
|    \\/     M anipulation  |                                                 |
\*---------------------------------------------------------------------------*/
FoamFile
{
    version     2.0;
    format      ascii;
    arch        "LSB;label=32;scalar=64";
    class       volScalarField;
    location    "2.65";
    object      nut;
}
// * * * * * * * * * * * * * * * * * * * * * * * * * * * * * * * * * * * * * //

dimensions      [0 2 -1 0 0 0 0];

internalField   nonuniform List<scalar> 
1375
(
0.030546597
0.02981593
0.028935334
0.028094323
0.027373971
0.026864166
0.026518233
0.02618996
0.025771981
0.033092488
0.032459424
0.031542122
0.03070066
0.029962045
0.029450989
0.029149771
0.028884709
0.028499051
0.027995099
0.037471578
0.036950953
0.035907581
0.0349607
0.034109262
0.033525784
0.033173146
0.032791616
0.032174812
0.031377997
0.04345195
0.043151218
0.041978089
0.040989627
0.040097386
0.039563031
0.039332668
0.039036435
0.038406969
0.037565221
0.051867462
0.05220853
0.051076693
0.050369004
0.049750662
0.049600952
0.049851126
0.050019875
0.049762621
0.049257579
0.063217745
0.064731646
0.063683521
0.063467418
0.063276409
0.063612369
0.064385515
0.065011433
0.065059409
0.064836646
0.076955418
0.079346969
0.078723591
0.078959649
0.079099085
0.07974771
0.080804552
0.08159332
0.08163227
0.081485279
0.091824473
0.094835209
0.094697979
0.095329645
0.095677301
0.096421429
0.097477452
0.098113097
0.097879686
0.097680724
0.10677856
0.11018198
0.11055185
0.11159145
0.11212614
0.11282373
0.11364851
0.11388486
0.11322687
0.11290538
0.12113639
0.12474231
0.12566064
0.12714833
0.12794355
0.12854708
0.12898665
0.1286724
0.12755353
0.12710907
0.13448639
0.13814017
0.13962229
0.1415458
0.14269936
0.14324014
0.14322888
0.14233339
0.14083961
0.14032722
0.14665177
0.1502064
0.15213332
0.15438056
0.1559102
0.15646057
0.15604085
0.15467721
0.15298811
0.15248488
0.15368377
0.15751732
0.16084028
0.16297189
0.16534086
0.1670949
0.16769726
0.16704628
0.16547672
0.16380137
0.16333775
0.16446035
0.16694937
0.16992676
0.17198774
0.17424837
0.17593746
0.17653845
0.17593349
0.17451548
0.17304198
0.172574
0.17346566
0.17486267
0.17733717
0.17909149
0.1810107
0.18238487
0.18291091
0.18256081
0.18159191
0.180494
0.17999126
0.18048601
0.18113879
0.18294897
0.18427167
0.1856894
0.18666614
0.18709483
0.18701269
0.18655351
0.18594734
0.18556951
0.18572321
0.18560421
0.18679418
0.18765458
0.18856992
0.18919852
0.18952846
0.18960946
0.18951164
0.1893201
0.18917866
0.18924291
0.18830208
0.1890014
0.18951272
0.19004965
0.19043428
0.1906762
0.19081378
0.1908908
0.19093866
0.19099365
0.19110037
0.18952892
0.18990819
0.19022216
0.19053416
0.1907764
0.19095475
0.19109419
0.19122391
0.19135795
0.19149736
0.19164088
0.18975672
0.18996465
0.19018996
0.19039137
0.19056131
0.19070203
0.19083067
0.19096501
0.19111018
0.19125871
0.19140128
0.18945234
0.18958491
0.18977279
0.18992643
0.19006395
0.19018686
0.19030846
0.19043909
0.19057895
0.19071896
0.19085057
0.18895427
0.18906215
0.18923116
0.18936683
0.18949408
0.18961404
0.18973612
0.18986554
0.19000123
0.19013631
0.19026382
0.18845472
0.18856231
0.18872131
0.18885337
0.1889817
0.18910696
0.18923461
0.18936588
0.18949914
0.18963051
0.18975523
0.1880372
0.18815479
0.18831039
0.18844609
0.18857965
0.18871116
0.18884318
0.18897453
0.18910295
0.18922672
0.18934449
0.18772255
0.18785252
0.18800873
0.18815081
0.18828956
0.18842398
0.18855526
0.18868251
0.18880433
0.18892052
0.18903185
0.18750208
0.18764197
0.18779883
0.1879455
0.18808723
0.18822227
0.18835109
0.1884741
0.18859144
0.18870396
0.18881303
0.18891989
0.1873568
0.18750224
0.18765762
0.18780445
0.18794593
0.18808036
0.18820795
0.18832973
0.18844672
0.18855967
0.18866912
0.18877553
0.18726225
0.18741335
0.18756509
0.18770933
0.18784816
0.18798109
0.18810812
0.18822987
0.18834729
0.18846097
0.18857083
0.18867679
0.18720804
0.18735875
0.18750721
0.18764804
0.18778344
0.18791401
0.18803999
0.18816195
0.18828047
0.18839564
0.18850684
0.1886133
0.1871738
0.18732339
0.18746872
0.18760751
0.18774165
0.18787158
0.18799746
0.18811963
0.18823835
0.18835333
0.18846397
0.1885695
0.1871562
0.18730469
0.18744802
0.1875854
0.18771827
0.18784709
0.18797217
0.18809364
0.18821147
0.18832529
0.18843465
0.18853936
0.18714567
0.18729344
0.18743616
0.18757389
0.18770716
0.18783599
0.18796027
0.18808018
0.18819624
0.18830843
0.18841634
0.18851986
0.1886197
0.18714598
0.18729373
0.18743655
0.18757488
0.18770783
0.18783525
0.18795771
0.18807604
0.18819066
0.18830104
0.18840672
0.18850826
0.18860653
0.18715798
0.18730429
0.18744449
0.18757988
0.18771009
0.18783558
0.18795697
0.1880745
0.18818797
0.18829711
0.18840198
0.18850314
0.1886005
0.18717742
0.18732135
0.18745889
0.18759176
0.18771985
0.18784357
0.18796339
0.18807934
0.18819141
0.18829959
0.18840386
0.18850408
0.18860019
0.18869284
0.18720244
0.1873441
0.1874792
0.1876097
0.18773577
0.18785774
0.18797588
0.18809034
0.18820089
0.18830756
0.18841034
0.18850924
0.18860465
0.18869661
0.1872335
0.18737328
0.18750647
0.18763534
0.1877596
0.18787969
0.18799601
0.18810858
0.18821736
0.18832237
0.18842376
0.18852163
0.18861615
0.18870753
0.18727487
0.187412
0.18754257
0.1876693
0.18779139
0.18790956
0.18802369
0.18813427
0.18824121
0.18834476
0.18844512
0.18854187
0.18863524
0.18872517
0.18881206
0.18732666
0.18746103
0.1875893
0.18771369
0.18783372
0.18794969
0.18806156
0.18817006
0.18827516
0.18837697
0.18847559
0.18857078
0.18866287
0.1887517
0.18883768
0.18739146
0.18752324
0.18764822
0.18776976
0.18788756
0.18800131
0.18811137
0.18821796
0.18832136
0.18842181
0.18851883
0.18861258
0.18870301
0.18879045
0.18887508
0.18895701
0.1874733
0.18760138
0.18772289
0.18784145
0.18795651
0.18806801
0.18817616
0.18828081
0.1883821
0.18848038
0.18857581
0.18866859
0.18875822
0.18884478
0.18892838
0.18900925
0.18908755
0.18757374
0.1876992
0.18781812
0.18793389
0.18804578
0.18815437
0.18825992
0.18836223
0.18846161
0.18855795
0.18865144
0.18874221
0.18883037
0.18891597
0.18899885
0.18907879
0.18915609
0.18769918
0.18782172
0.18793743
0.18805029
0.18815952
0.18826563
0.18836874
0.18846895
0.18856631
0.18866074
0.18875235
0.18884128
0.18892764
0.18901146
0.18909284
0.18917185
0.18924855
0.18932295
0.18785863
0.18797769
0.18809011
0.18820011
0.18830684
0.18841054
0.18851124
0.18860906
0.1887041
0.1887965
0.1888863
0.18897352
0.18905825
0.18914059
0.18922066
0.18929852
0.18937424
0.18944792
0.18951962
0.18806625
0.18818174
0.18829055
0.18839716
0.18850066
0.18860134
0.1886993
0.18879457
0.18888728
0.18897754
0.18906539
0.18915092
0.18923417
0.18931523
0.18939418
0.18947108
0.189546
0.18961899
0.18969016
0.18975956
0.18833803
0.18844951
0.18855455
0.18865769
0.18875805
0.18885583
0.18895105
0.1890438
0.18913417
0.18922227
0.1893082
0.18939206
0.18947396
0.18955395
0.18963207
0.18970836
0.18978287
0.18985565
0.18992676
0.18999621
0.19006405
0.19013033
0.18870717
0.18881441
0.1889153
0.1890148
0.18911192
0.18920688
0.18929969
0.18939038
0.18947897
0.18956552
0.18965012
0.18973286
0.18981386
0.18989314
0.18997078
0.19004682
0.19012129
0.19019419
0.19026551
0.19033531
0.19040363
0.19047047
0.19053587
0.18922425
0.18932539
0.18942408
0.18952085
0.18961568
0.18970852
0.18979944
0.18988867
0.18997631
0.19006231
0.19014665
0.19022937
0.19031052
0.19039017
0.19046831
0.19054497
0.19062015
0.19069388
0.19076619
0.19083711
0.19090666
0.19097485
0.19104175
0.19110737
0.19117171
0.18873644
0.18893506
0.189076
0.1892213
0.18935782
0.18948881
0.18961441
0.18973584
0.18985436
0.18997102
0.19008595
0.19019918
0.19031058
0.19042007
0.19052753
0.19063289
0.19073603
0.19083683
0.19093524
0.19103124
0.19112487
0.19121622
0.19130548
0.19139285
0.19147865
0.19156313
0.19164643
0.031305684
0.034142289
0.038924366
0.045456614
0.054445643
0.066220506
0.080224549
0.095166896
0.11004424
0.12424446
0.13741279
0.14934366
0.15989829
0.16905077
0.17654833
0.18231673
0.18626442
0.18852089
0.1894477
0.18951956
0.18916262
0.18866841
0.18819519
0.18780816
0.18752023
0.18731935
0.1871845
0.18710827
0.18705317
0.18702596
0.18701199
0.18700523
0.18700906
0.18702351
0.18704546
0.18707305
0.18710712
0.18715149
0.18720643
0.18727417
0.18735967
0.18746303
0.18759122
0.18775414
0.18796484
0.18824003
0.18861342
0.18912715
0.18857981
0.031961814
0.03508607
0.040296336
0.047412032
0.057056731
0.069426476
0.083820177
0.098981843
0.11397148
0.12822841
0.14139676
0.15318878
0.16343675
0.17212217
0.17890545
0.18386556
0.18706862
0.18876836
0.18936316
0.18928249
0.18888121
0.18839485
0.18794918
0.18759305
0.18733133
0.1871479
0.18702837
0.18696467
0.18691049
0.18688996
0.18687953
0.18687688
0.18688437
0.18690097
0.18692518
0.18695514
0.18699194
0.18703879
0.18709629
0.1871665
0.18725498
0.18736136
0.18749167
0.18765719
0.18787012
0.18814769
0.18852421
0.18903256
0.1884233
0.032592077
0.035964822
0.041607861
0.049313892
0.059631995
0.072624527
0.087450455
0.1028963
0.11806816
0.13241847
0.14556249
0.15716523
0.16704082
0.17511589
0.18109202
0.18521233
0.18770271
0.18891041
0.18923175
0.18903444
0.18860499
0.18813148
0.18771346
0.18738632
0.18714702
0.18697815
0.18688165
0.18681916
0.18677011
0.18675478
0.18674782
0.18674907
0.18675975
0.1867786
0.1868051
0.18683753
0.1868773
0.18692654
0.18698664
0.18705921
0.18715013
0.18725973
0.18739222
0.18756016
0.18777534
0.18805515
0.18843466
0.18893728
0.18826399
0.033264707
0.036865571
0.042953402
0.051254967
0.062227788
0.075793165
0.091008188
0.1066899
0.12196774
0.13628532
0.1492409
0.16050802
0.16992097
0.17735814
0.18263339
0.18609066
0.1880555
0.18891681
0.18905206
0.18877956
0.18833763
0.18788119
0.18749028
0.18718862
0.1869671
0.18681733
0.18673863
0.18667335
0.18663167
0.18662028
0.18661672
0.18662171
0.18663565
0.18665696
0.18668556
0.18672027
0.18676274
0.18681455
0.18687719
0.18695218
0.18704514
0.18715766
0.18729266
0.18746296
0.18768043
0.18796237
0.18834462
0.18884121
0.18810115
0.034012948
0.037857129
0.044410917
0.053312461
0.064907837
0.078974503
0.094494936
0.11030513
0.12555219
0.13967861
0.15229019
0.16309988
0.17199791
0.1788412
0.18357049
0.18656294
0.18818163
0.18882095
0.18883839
0.18852129
0.18807858
0.18764257
0.18727779
0.18699767
0.1867915
0.18666755
0.18659425
0.18653037
0.18649572
0.18648748
0.1864869
0.18649494
0.18651166
0.1865357
0.18656658
0.18660356
0.18664856
0.18670274
0.18676771
0.18684513
0.18694023
0.18705526
0.18719287
0.18736552
0.1875853
0.18786935
0.18825407
0.18874427
0.18793388
0.034820343
0.038945203
0.045989205
0.055496003
0.067687371
0.082196318
0.097942751
0.11377989
0.1288815
0.14270897
0.15489484
0.16519913
0.17357814
0.1798816
0.18416674
0.18681122
0.1881839
0.18866871
0.18860534
0.18826111
0.18782503
0.18741162
0.18707129
0.1868093
0.18662363
0.18652536
0.1864478
0.18639037
0.1863618
0.18635621
0.18635837
0.18636908
0.18638841
0.18641503
0.18644806
0.18648742
0.18653479
0.18659133
0.18665845
0.18673814
0.18683528
0.18695243
0.1870928
0.18726793
0.18748997
0.18777598
0.18816302
0.18864642
0.18776118
0.035640518
0.040089559
0.047649195
0.057769651
0.070541356
0.085453137
0.10136961
0.11716759
0.13205876
0.14553852
0.15727556
0.16707469
0.17495233
0.18075146
0.18463383
0.18697199
0.18813356
0.1884889
0.18836078
0.18799887
0.18757419
0.18718439
0.18686647
0.18662254
0.18646678
0.1863806
0.18630223
0.18625258
0.18622954
0.18622659
0.18623114
0.18624436
0.18626629
0.18629521
0.18633021
0.18637188
0.18642156
0.1864803
0.18654945
0.18663131
0.18673037
0.18684938
0.18699259
0.18717021
0.18739438
0.18768229
0.18807146
0.18854765
0.18758243
0.036427
0.041242835
0.04934442
0.060088822
0.073430934
0.088718524
0.10477038
0.1204945
0.13514679
0.14826243
0.15954893
0.16885329
0.17624687
0.18155925
0.18505217
0.18709493
0.18805549
0.18829155
0.18810808
0.18773549
0.18732567
0.18695905
0.18666121
0.18643967
0.1863177
0.18623089
0.18615807
0.18611632
0.18609851
0.18609812
0.18610544
0.18612105
0.18614489
0.18617602
0.18621335
0.18625712
0.18630879
0.18636955
0.18644068
0.18652463
0.18662552
0.18674641
0.18689236
0.18707232
0.1872985
0.18758834
0.18797941
0.18844785
0.18739784
0.037154136
0.042373865
0.051039228
0.062411052
0.076307788
0.091945214
0.10810757
0.12373782
0.13813698
0.15088073
0.16171576
0.1705315
0.17745563
0.18229611
0.18541501
0.1871768
0.1879497
0.18807886
0.18785028
0.18747364
0.18708091
0.18673583
0.18645788
0.18626899
0.18616894
0.18607863
0.18601545
0.18598119
0.18596837
0.18597072
0.1859804
0.18599818
0.18602424
0.18605736
0.18609658
0.18614256
0.18619623
0.18625889
0.18633215
0.18641821
0.18652084
0.18664355
0.18679205
0.18697424
0.18720235
0.18749411
0.1878868
0.18834703
0.18720863
0.037825455
0.043464096
0.052692849
0.064670473
0.079085203
0.095037074
0.11128505
0.1268056
0.14094272
0.15331211
0.16370005
0.17203971
0.17851834
0.1829169
0.1856939
0.1872046
0.18781425
0.18785478
0.18759317
0.18721859
0.18684379
0.18651811
0.18626132
0.18611029
0.18601554
0.18592769
0.18587411
0.1858466
0.18583832
0.18584324
0.18585545
0.18587567
0.18590366
0.18593864
0.18598011
0.18602818
0.18608378
0.18614831
0.1862237
0.18631185
0.18641617
0.18654086
0.18669166
0.18687598
0.1871059
0.18739951
0.18779362
0.18824523
0.1870163
0.038479049
0.044515895
0.054275243
0.066806314
0.08167814
0.097894418
0.11419657
0.12959179
0.1434638
0.15546749
0.16542784
0.17332058
0.1793945
0.18339908
0.18587937
0.1871781
0.18765407
0.18762573
0.18734234
0.18697398
0.18661555
0.18630684
0.18607894
0.18595889
0.18585913
0.18577918
0.18573391
0.18571224
0.18570813
0.18571582
0.18573074
0.18575345
0.18578343
0.18582027
0.1858637
0.18591379
0.18597137
0.18603766
0.18611501
0.18620518
0.18631144
0.18643835
0.1865912
0.18677754
0.18700914
0.18730446
0.18769984
0.18814263
0.18682182
0.039169061
0.045545873
0.055776657
0.06878822
0.084039902
0.10045787
0.11677449
0.13202661
0.14563831
0.15729922
0.16686984
0.17437351
0.18007811
0.18375332
0.1859845
0.18710903
0.18747818
0.18739771
0.18710081
0.18674018
0.18639579
0.18610498
0.18591255
0.18580707
0.18570307
0.185633
0.18559482
0.18557843
0.18557821
0.18558879
0.18560653
0.18563165
0.18566353
0.18570209
0.18574737
0.18579942
0.18585883
0.18592701
0.18600641
0.18609864
0.18620682
0.18633566
0.18649051
0.18667875
0.18691194
0.18720894
0.18760546
0.18803917
0.18661939
0.13411571
0.14747604
0.1588245
0.16805233
0.17522434
0.18060456
0.18400752
0.18603051
0.18701095
0.1872936
0.18717304
0.18686786
0.18651491
0.18618278
0.18591281
0.18575731
0.18565168
0.18554994
0.18548944
0.1854578
0.18544616
0.18544921
0.18546212
0.18548248
0.18551005
0.185544
0.1855844
0.18563149
0.18568537
0.1857466
0.18581664
0.18589784
0.18599202
0.18610209
0.18623283
0.18638955
0.18657953
0.18681424
0.18711293
0.18751051
0.18793478
0.18638388
0.18629393
0.1859739
0.18573366
0.18560622
0.18549342
0.18539988
0.18534802
0.18532222
0.18531501
0.18532139
0.18533678
0.1853595
0.18538932
0.18542528
0.18546749
0.18551624
0.18557175
0.18563461
0.18570631
0.18578927
0.18588538
0.18599731
0.18612984
0.18628828
0.18647989
0.18671604
0.18701649
0.18741504
0.18782943
0.18616157
0.18518537
0.18519475
0.18521275
0.18523771
0.18526947
0.18530719
0.18535114
0.18540149
0.18545851
0.18552289
0.18559623
0.18568079
0.18577869
0.18589249
0.18602668
0.18618675
0.1863799
0.18661736
0.18691966
0.18731901
0.18772309
0.18595557
0.18528708
0.1853456
0.18541146
0.18548622
0.18557243
0.18567207
0.18578758
0.18592343
0.18608503
0.18627952
0.1865183
0.18682247
0.18722252
0.18761557
0.18572851
0.1854643
0.18556543
0.18568265
0.18582005
0.1859831
0.18617886
0.18641892
0.18672493
0.1871256
0.18750669
0.18547188
0.18571662
0.185881
0.18607796
0.18631929
0.18662702
0.18702813
0.18739651
0.18519974
0.1862194
0.18652867
0.18692993
0.18728522
0.18493288
0.18683091
0.18717309
0.18467616
0.18442307
)
;

boundaryField
{
    Side
    {
        type            empty;
    }
    Inlet
    {
        type            calculated;
        value           nonuniform List<scalar> 
48
(
0.19944409
0.19944117
0.19943597
0.19943257
0.19943112
0.19943109
0.19943482
0.19944145
0.19944688
0.19945178
0.19945667
0.19946104
0.19946465
0.19946757
0.19946984
0.19947161
0.19947319
0.19947471
0.19947614
0.19947759
0.1994791
0.1994805
0.19948157
0.19948247
0.19948317
0.19948311
0.19947936
0.1994438
0.19944376
0.19944394
0.19944387
0.19944369
0.19944357
0.19944374
0.19944405
0.19944434
0.19944485
0.19944566
0.19944629
0.19944604
0.19944428
0.19944119
0.19943843
0.19943813
0.19943867
0.19943953
0.19944049
0.19944154
)
;
    }
    Airfoil
    {
        type            nutkWallFunction;
        blending        stepwise;
        value           nonuniform List<scalar> 0();
    }
    Outlet
    {
        type            calculated;
        value           nonuniform List<scalar> 0();
    }
    procBoundary3to2
    {
        type            processor;
        value           nonuniform List<scalar> 
65
(
0.027500062
0.030637675
0.036891231
0.049042451
0.065095703
0.082132626
0.098612201
0.11402278
0.12830921
0.14154788
0.14154788
0.15597488
0.16644597
0.17511956
0.18175661
0.18642132
0.18958264
0.19129232
0.19178985
0.19153298
0.19097065
0.19037988
0.1898693
0.18945498
0.18913924
0.18913924
0.18902546
0.18887942
0.18877964
0.18871546
0.18867023
0.1886398
0.1886398
0.18871612
0.18870202
0.18869448
0.18869448
0.18878264
0.18878532
0.18879561
0.18879561
0.18889615
0.18892092
0.18892092
0.18903641
0.18903641
0.18916326
0.18923113
0.18923113
0.18939516
0.18939516
0.18958933
0.18958933
0.18982722
0.18982722
0.1898932
0.19019507
0.19019507
0.19059987
0.19059987
0.1906625
0.19123476
0.19123476
0.19129655
0.19172847
)
;
    }
    procBoundary3to4
    {
        type            processor;
        value           nonuniform List<scalar> 
57
(
0.046586001
0.057223424
0.070639298
0.086187969
0.10273617
0.11902075
0.11902075
0.13596725
0.1490766
0.16013285
0.16905253
0.17593071
0.18102591
0.18419448
0.18603736
0.18689397
0.18710383
0.18695119
0.18664052
0.18664052
0.18607558
0.18577129
0.18556726
0.18545345
0.18533487
0.18525308
0.18520906
0.18518862
0.18518862
0.18505708
0.18506916
0.18508957
0.1851168
0.18515043
0.18518976
0.18523523
0.18523523
0.18517283
0.18523278
0.18530016
0.18537655
0.18537655
0.18535635
0.18545903
0.18557775
0.18557775
0.18561316
0.18577869
0.18597681
0.18597681
0.1861192
0.18642984
0.18642984
0.18673105
0.18706024
0.18706024
0.18416538
)
;
    }
    procBoundary3to10
    {
        type            processor;
        value           nonuniform List<scalar> 
23
(
0.030478017
0.029809117
0.028941271
0.02810421
0.027433629
0.026998208
0.026666008
0.026260954
0.02526836
0.025739441
0.02526836
0.03113895
0.03174042
0.032394497
0.033144778
0.033974706
0.034833147
0.035662063
0.036413559
0.037063017
0.037629217
0.038185408
0.038834877
)
;
    }
    procBoundary3to11
    {
        type            processor;
        value           uniform 0.039940282;
    }
}


// ************************************************************************* //
