/*--------------------------------*- C++ -*----------------------------------*\
| =========                 |                                                 |
| \\      /  F ield         | OpenFOAM: The Open Source CFD Toolbox           |
|  \\    /   O peration     | Version:  2506                                  |
|   \\  /    A nd           | Website:  www.openfoam.com                      |
|    \\/     M anipulation  |                                                 |
\*---------------------------------------------------------------------------*/
FoamFile
{
    version     2.0;
    format      ascii;
    arch        "LSB;label=32;scalar=64";
    class       volVectorField;
    location    "0.0265";
    object      wallShearStress;
}
// * * * * * * * * * * * * * * * * * * * * * * * * * * * * * * * * * * * * * //

dimensions      [1 -1 -2 0 0 0 0];

internalField   uniform (0 0 0);

boundaryField
{
    Side
    {
        type            empty;
    }
    Inlet
    {
        type            calculated;
        value           uniform (0 0 0);
    }
    Airfoil
    {
        type            calculated;
        value           nonuniform List<vector> 
117
(
(-17.107862 -4.0084752 -9.0055371e-17)
(-17.271367 -4.1172729 -9.1298345e-17)
(-17.363596 -4.2050722 9.258382e-17)
(-17.423064 -4.2801536 9.3901996e-17)
(-5.5457159 1.3625122 1.5898346e-21)
(-5.6067385 1.3580478 1.0272789e-16)
(-5.6612362 1.349883 1.545369e-21)
(-5.7078522 1.3378004 9.9887827e-17)
(-5.7394372 1.3203019 -1.5032065e-21)
(-5.7531052 1.2972475 -9.7199735e-17)
(-5.7815458 1.2855652 0)
(-5.8348565 1.2836477 9.4639364e-17)
(-5.8922478 1.282426 -9.3397328e-17)
(-5.9463582 1.2802452 1.2155783e-24)
(-6.0003231 1.2778165 -1.3882314e-21)
(-6.0533079 1.2749401 -1.796539e-16)
(-6.1061347 1.2718238 1.3534403e-21)
(-6.1589575 1.2684762 -1.7514543e-16)
(-6.2104005 1.2646381 0)
(-6.2625455 1.2607194 -6.0185311e-36)
(-6.312961 1.2562512 -1.687298e-16)
(-6.3640212 1.2516817 1.666811e-16)
(-6.4131938 1.2465462 1.6467323e-16)
(-6.4624451 1.2412234 1.6270483e-16)
(-6.5098301 1.2353331 2.4533052e-21)
(-6.5574615 1.2292992 1.588889e-16)
(-6.6030961 1.2226895 1.5704395e-16)
(-6.648959 1.2159355 3.1045996e-16)
(-6.6928154 1.2086177 1.5345604e-16)
(-6.7368623 1.2011566 1.1573204e-21)
(-6.7797317 1.1934649 -3.0001872e-16)
(-6.824452 1.1862782 2.2634224e-21)
(-6.8685107 1.1788481 -1.1193708e-21)
(-6.9133563 1.1714231 -5.415429e-34)
(-6.9570014 1.1636552 0)
(-7.0011385 1.155845 -1.4197436e-16)
(-7.0435957 1.1476245 1.4046245e-16)
(-7.087098 1.139414 -6.0185311e-36)
(-7.1286683 1.1307967 7.9610583e-33)
(-7.1710517 1.1221501 8.287621e-39)
(-7.2113475 1.1130748 0)
(-7.2518008 1.1038691 -1.3334064e-16)
(-7.2908696 1.094352 1.0069053e-21)
(-7.3293422 1.0845989 1.3067789e-16)
(-7.3672913 1.074674 0)
(-7.4036447 1.0643598 1.2811685e-16)
(-7.4397335 1.0539296 0)
(-7.4739171 1.0430744 1.256506e-16)
(-7.507744 1.0322202 1.2444907e-16)
(-7.5414756 1.0214914 -1.2327375e-16)
(-7.5758944 1.0108501 -1.2211865e-16)
(-7.6093978 1.0000119 -9.2291803e-22)
(-7.6434169 0.98919478 -1.1987389e-16)
(-7.676072 0.97814833 -1.1878301e-16)
(-7.7087895 0.96705395 1.1771223e-16)
(-7.7407406 0.95580997 6.0185311e-36)
(-7.7724024 0.94447546 -1.156308e-16)
(-7.8035415 0.93302036 2.2923635e-16)
(-7.8343072 0.92146412 8.6675751e-22)
(-7.8638655 0.90970891 -8.5955142e-22)
(-7.8928952 0.89783536 8.5017212e-22)
(-7.9207212 0.88577094 -2.3895381e-25)
(-7.9474545 0.87352771 -1.098215e-16)
(-7.9736314 0.86116994 1.0891065e-16)
(-7.9981846 0.84858674 1.0801885e-16)
(-8.0226949 0.83607863 -1.7285068e-24)
(-8.0467151 0.82358181 -1.0627736e-16)
(-8.0701428 0.81104404 2.1086208e-16)
(-8.0931699 0.79848434 -7.9792013e-22)
(-8.1148411 0.78582061 -2.0756416e-16)
(-8.1363673 0.77312475 1.0298076e-16)
(-8.1569362 0.76040215 7.5231638e-37)
(-8.176817 0.74758637 2.0283052e-16)
(-8.1961528 0.73478086 -1.0065255e-16)
(-8.2147421 0.72187695 9.0037225e-33)
(-8.232384 0.70894553 -7.5647001e-22)
(-8.249968 0.6959806 9.8442679e-17)
(-8.2662397 0.68295687 -9.7728944e-17)
(-8.2819263 0.66985477 -1.9405654e-16)
(-8.2974484 0.65678262 7.5231638e-37)
(-8.3108475 0.64350658 -3.7615819e-37)
(-8.3246517 0.63028176 -9.4992602e-17)
(-8.3370024 0.6169955 -1.4394728e-21)
(-8.3481945 0.60372226 7.1492473e-22)
(-8.3599161 0.59054795 7.0986988e-22)
(-8.3700523 0.57734434 -7.0532556e-22)
(-8.3795046 0.56416775 -9.1819648e-17)
(-8.3889609 0.55105605 9.1216505e-17)
(-8.3967071 0.53791288 3.7615819e-37)
(-8.4043602 0.52480482 1.8007898e-16)
(-8.4116403 0.51176929 -8.9463532e-17)
(-8.4168112 0.4986537 -8.8898859e-17)
(-8.42294 0.48565169 -6.7409948e-22)
(-8.427991 0.47265883 2.0150794e-33)
(-8.4319546 0.45965065 -8.7257768e-17)
(-8.4363902 0.44664782 8.6730461e-17)
(-8.4389905 0.43340381 -6.5766523e-22)
(-8.4394925 0.42018678 8.5701955e-17)
(-8.4417808 0.40718008 -6.5008832e-22)
(-8.4419283 0.3942136 6.4616438e-22)
(-8.4413417 0.38132615 -6.4260286e-22)
(-8.4421883 0.3686378 -8.3739699e-17)
(-8.4405858 0.35595551 -8.3269397e-17)
(-8.4396885 0.34342018 -8.2806976e-17)
(-8.4401263 0.3310557 -4.1175973e-17)
(-8.4372614 0.31866825 6.2482297e-22)
(-8.4359354 0.30644088 -6.2157164e-22)
(-8.4356819 0.29436332 4.0515025e-17)
(-8.4318439 0.28225765 4.0301383e-17)
(-8.4319771 0.27033224 4.009133e-17)
(-8.4302683 0.25802516 3.9884498e-17)
(-8.4236466 0.24559063 3.9681807e-17)
(-8.421014 0.23344769 -3.948157e-17)
(-8.4170851 0.22143907 7.8569932e-17)
(-8.4079181 0.20944988 -5.9647848e-22)
(-8.4033499 0.1977399 -7.7799265e-17)
(-8.3978767 0.18617043 -5.9069785e-22)
)
;
    }
    Outlet
    {
        type            calculated;
        value           nonuniform List<vector> 0();
    }
    procBoundary2to1
    {
        type            processor;
        value           uniform (0 0 0);
    }
    procBoundary2to3
    {
        type            processor;
        value           uniform (0 0 0);
    }
    procBoundary2to8
    {
        type            processor;
        value           uniform (0 0 0);
    }
    procBoundary2to9
    {
        type            processor;
        value           uniform (0 0 0);
    }
}


// ************************************************************************* //
