/*--------------------------------*- C++ -*----------------------------------*\
| =========                 |                                                 |
| \\      /  F ield         | OpenFOAM: The Open Source CFD Toolbox           |
|  \\    /   O peration     | Version:  2506                                  |
|   \\  /    A nd           | Website:  www.openfoam.com                      |
|    \\/     M anipulation  |                                                 |
\*---------------------------------------------------------------------------*/
FoamFile
{
    version     2.0;
    format      ascii;
    arch        "LSB;label=32;scalar=64";
    class       volScalarField;
    location    "0.2";
    object      Ma;
}
// * * * * * * * * * * * * * * * * * * * * * * * * * * * * * * * * * * * * * //

dimensions      [0 0 0 0 0 0 0];

internalField   nonuniform List<scalar> 
1376
(
0.28379427
0.28372531
0.2843736
0.28498638
0.28553133
0.28600561
0.2864463
0.28689942
0.28738086
0.28790568
0.2883718
0.28674123
0.28711338
0.2874842
0.28779019
0.2880302
0.288263
0.28853384
0.28884272
0.28921181
0.28946526
0.2911018
0.29114972
0.29120329
0.29121072
0.2911849
0.29118639
0.29122167
0.29129548
0.29144936
0.29140979
0.29465721
0.29456708
0.29446438
0.29432648
0.29416339
0.29402016
0.29391974
0.2938338
0.29379092
0.29358407
0.29664448
0.29657243
0.29647446
0.29634023
0.29618495
0.29603963
0.29591642
0.2957918
0.29569043
0.29542509
0.29754933
0.297527
0.29747599
0.29739214
0.29729218
0.29719728
0.29711147
0.29701789
0.29693389
0.29671649
0.29793763
0.29794056
0.29792252
0.29788297
0.29783342
0.2977871
0.29774405
0.29769381
0.29764817
0.29751046
0.29808686
0.29811028
0.29810485
0.29809201
0.29807756
0.29806576
0.29805412
0.29803768
0.29802563
0.29795885
0.29812931
0.29816122
0.2981645
0.29816624
0.29817344
0.29818369
0.29819202
0.29819768
0.29821458
0.29819157
0.29812547
0.29815609
0.29816478
0.29817586
0.29819643
0.29822058
0.29824125
0.29825978
0.29829334
0.29830169
0.29810191
0.29812603
0.29813764
0.29815543
0.29818478
0.29821753
0.29824575
0.29827199
0.29831044
0.29834273
0.29800919
0.29807081
0.29808748
0.29810073
0.29812348
0.29815843
0.29819623
0.29822915
0.29826011
0.29830105
0.29834498
0.29799117
0.29803754
0.29804856
0.29806366
0.29809061
0.29812912
0.29816951
0.29820507
0.29823867
0.29828066
0.29833001
0.2979795
0.29800655
0.29801436
0.2980318
0.29806276
0.29810397
0.29814528
0.2981818
0.29821666
0.29825888
0.29831015
0.29797334
0.29798414
0.29799053
0.29800956
0.29804364
0.29808701
0.29812829
0.29816472
0.29820012
0.29824248
0.29829366
0.29797184
0.29797508
0.29798238
0.29800216
0.29803733
0.29808092
0.29812112
0.29815734
0.29819345
0.29823628
0.29828641
0.29797529
0.29797773
0.29798939
0.29801209
0.298048
0.29808838
0.29812548
0.29816163
0.29819922
0.29824298
0.29829126
0.29798747
0.29799073
0.29800709
0.2980364
0.29807525
0.29810989
0.29814191
0.29817771
0.29821725
0.29826198
0.29830795
0.2980123
0.29801773
0.29803549
0.29807034
0.29811058
0.29813927
0.29816743
0.29820316
0.29824414
0.29828898
0.29833278
0.29804401
0.29805437
0.29807264
0.2981081
0.29814452
0.29816938
0.29819695
0.29823317
0.29827404
0.29831747
0.29835976
0.29806161
0.29808366
0.29811266
0.29814839
0.29817416
0.29819497
0.29822393
0.29826165
0.29830155
0.29834223
0.29838326
0.2980752
0.29810379
0.29814415
0.29817715
0.298194
0.2982134
0.29824492
0.29828459
0.29832334
0.29836082
0.29840018
0.29810398
0.29813373
0.29816732
0.2981894
0.29820502
0.2982281
0.29826169
0.29830033
0.29833719
0.298373
0.29841128
0.2981286
0.29816245
0.29818721
0.29820021
0.29821575
0.29824141
0.29827423
0.29830934
0.29834413
0.29838034
0.29841905
0.29814996
0.29817838
0.2981969
0.2982111
0.29823151
0.29825663
0.29828315
0.29831203
0.29834524
0.29838409
0.29842538
0.29814192
0.29817187
0.29819231
0.29820401
0.29821932
0.29824571
0.29827341
0.29829753
0.29831986
0.29834617
0.29838229
0.29842586
0.29816291
0.29818551
0.29820441
0.29821394
0.2982287
0.29825396
0.29828085
0.29830775
0.29833144
0.29835408
0.29838416
0.29842423
0.29818311
0.29820121
0.29821897
0.29823144
0.29825051
0.29826996
0.29828776
0.29831091
0.29833509
0.298359
0.29838966
0.29842943
0.29821533
0.29823064
0.2982362
0.29824664
0.29826351
0.29827537
0.29829101
0.29831599
0.29834347
0.29837039
0.29840098
0.2984369
0.29824841
0.29824859
0.29825108
0.29826779
0.29828211
0.29828881
0.29830265
0.2983244
0.29834898
0.29837733
0.29840981
0.29844442
0.29826014
0.29826289
0.29826865
0.29827871
0.29828643
0.29829763
0.29831633
0.29833748
0.2983608
0.29838895
0.2984201
0.29845283
0.29828417
0.29828157
0.29827967
0.29828114
0.2982882
0.29829709
0.29830915
0.29832382
0.29834206
0.29836776
0.29839838
0.29842863
0.29845894
0.29829383
0.29829701
0.29829795
0.29830022
0.29830503
0.29831204
0.29832188
0.29833521
0.29835266
0.29837537
0.29840261
0.2984319
0.29846362
0.29831828
0.29831327
0.29831288
0.29831696
0.29832442
0.29833063
0.29833466
0.29834124
0.29835603
0.29838075
0.29841106
0.29844146
0.29847251
0.29833377
0.2983359
0.29833941
0.29834254
0.2983447
0.29834575
0.29834586
0.29834783
0.29835536
0.29837116
0.29839453
0.29841976
0.29844531
0.29847624
0.29835539
0.29834956
0.29835324
0.2983601
0.29835786
0.29835044
0.29834769
0.29835206
0.29836586
0.29838753
0.29841328
0.2984372
0.29846064
0.29848853
0.29837819
0.2983726
0.29836461
0.29836043
0.29835363
0.29835115
0.29835543
0.29837015
0.29839258
0.29841868
0.29844172
0.29846089
0.29848215
0.29851011
0.29838238
0.29838316
0.29837814
0.2983706
0.29836689
0.29836597
0.2983671
0.2983761
0.29839302
0.29841356
0.29843333
0.29845163
0.29847288
0.2984987
0.29852564
0.29837119
0.29837745
0.29837857
0.29837802
0.29838164
0.29838958
0.2984
0.29841432
0.29843194
0.29844789
0.29846351
0.29848475
0.29851103
0.29853434
0.29855536
0.29836499
0.29837064
0.29837761
0.29838362
0.29838804
0.29839393
0.29840279
0.29841427
0.29842998
0.29844859
0.29846734
0.29848825
0.29851189
0.29853171
0.29854758
0.29856761
0.29834731
0.29836127
0.298374
0.29838551
0.29839664
0.29840673
0.29841791
0.2984336
0.29845248
0.29847102
0.29848696
0.29850207
0.29852088
0.29854119
0.29855958
0.29858131
0.29860858
0.29831181
0.29832307
0.2983345
0.29834896
0.2983699
0.29839256
0.29840964
0.29842793
0.29845204
0.29847519
0.29849475
0.2985151
0.29853494
0.29855354
0.2985729
0.29859226
0.29860725
0.29825306
0.29827282
0.29829216
0.29831337
0.29833805
0.29836461
0.29839026
0.29841487
0.29843904
0.29846056
0.29848143
0.29850362
0.29852691
0.29855303
0.29858016
0.29860613
0.2986321
0.29865746
0.29815197
0.29817045
0.29819025
0.29821193
0.29823529
0.29826104
0.29829028
0.29832035
0.29834867
0.2983768
0.29840435
0.29843193
0.29846002
0.2984876
0.29851783
0.29855087
0.29858063
0.29860638
0.29863006
0.29816409
0.29817876
0.29819386
0.29821022
0.2982277
0.29824532
0.29826292
0.29828077
0.2982988
0.29831815
0.29834177
0.2983718
0.29840564
0.29844139
0.29847969
0.29851824
0.29855846
0.29860123
0.29864304
0.29868596
0.29814629
0.29815665
0.29816762
0.29818011
0.29819413
0.2982082
0.2982213
0.29823227
0.29824049
0.29824792
0.29825393
0.29825789
0.29826298
0.29827151
0.29828312
0.29829673
0.29831253
0.298333
0.29836248
0.29840039
0.29844086
0.29848202
0.29821976
0.29822366
0.29822896
0.29823504
0.29824103
0.29824776
0.29825649
0.29826692
0.29827809
0.29828897
0.29829865
0.29830947
0.29832334
0.29833547
0.29834205
0.29834643
0.29835195
0.2983626
0.29838655
0.29842245
0.29845734
0.29848402
0.29850756
0.29836806
0.29836491
0.29836375
0.29835822
0.29834785
0.29833135
0.29830254
0.29828111
0.29826892
0.29827512
0.29828197
0.2982838
0.29826618
0.29824387
0.29824713
0.29823485
0.2982147
0.2982252
0.29823972
0.29825665
0.29825783
0.29822312
0.29819171
0.29820358
0.29823839
0.29950447
0.29942417
0.29936416
0.29934918
0.29932098
0.29931026
0.29928504
0.29926213
0.29922374
0.29915183
0.29908777
0.29904622
0.29903258
0.29904191
0.299038
0.29895426
0.29884771
0.29881678
0.29878153
0.29875633
0.29875565
0.298737
0.29865946
0.29855218
0.29849629
0.29851325
0.29854059
0.28884132
0.28991761
0.29180202
0.29387261
0.29560737
0.29682386
0.29757672
0.29800418
0.29822742
0.29833305
0.29837236
0.29837771
0.29836495
0.29834855
0.29833668
0.29833308
0.29834075
0.29835873
0.29838303
0.29840816
0.29842892
0.29844275
0.29845111
0.29845712
0.29846252
0.29846482
0.29846468
0.29846865
0.29847118
0.29847563
0.2984821
0.29848618
0.29849205
0.29849889
0.29850491
0.29851362
0.29853421
0.29854631
0.29857372
0.29858998
0.29862693
0.29862059
0.29867748
0.29865156
0.29872019
0.29852424
0.29853455
0.29828715
0.29856622
0.28927158
0.29035961
0.29221009
0.29418686
0.29581854
0.29695502
0.29765913
0.29806021
0.29827075
0.29836942
0.29840557
0.29841146
0.29839992
0.29838592
0.29837717
0.29837554
0.29838495
0.29840332
0.29842662
0.2984499
0.29846852
0.29848023
0.29848631
0.29848991
0.29849339
0.2984967
0.29849861
0.29850088
0.29850095
0.29850301
0.29850883
0.29851286
0.29851886
0.29852441
0.29853258
0.29853743
0.29855701
0.29856731
0.29859411
0.29861008
0.29864192
0.29863833
0.29869563
0.29866707
0.29874786
0.29857148
0.29857648
0.29834274
0.29855892
0.2896855
0.29079262
0.29261354
0.29450363
0.29603681
0.29709525
0.29774999
0.29812341
0.29831952
0.29841041
0.29844285
0.29844804
0.29843721
0.2984251
0.29841853
0.29841799
0.29842859
0.29844673
0.29846856
0.29848973
0.2985064
0.29851673
0.29852162
0.29852381
0.29852585
0.29852902
0.29853113
0.29853226
0.29853247
0.29853316
0.29853765
0.29854152
0.29854633
0.29855118
0.29856056
0.29856318
0.29858214
0.29859283
0.29861723
0.29862975
0.29866029
0.29866242
0.29871397
0.29868077
0.29877478
0.29862468
0.29863294
0.29838962
0.29853242
0.29008596
0.29120686
0.29299561
0.29480481
0.29624681
0.29723249
0.29783979
0.29818531
0.29836579
0.29844823
0.29847675
0.29848098
0.29847115
0.29846136
0.29845696
0.2984584
0.29847044
0.29848844
0.29850872
0.29852743
0.29854173
0.29855067
0.29855525
0.29855754
0.29855949
0.29856183
0.29856295
0.29856348
0.29856509
0.29856571
0.29856829
0.2985715
0.29857494
0.29857925
0.29858856
0.29859075
0.29860919
0.2986213
0.29864256
0.29865271
0.29868289
0.29868797
0.29873297
0.29869953
0.29880541
0.29867992
0.29869153
0.29841833
0.29850305
0.29046509
0.29158889
0.29334097
0.29507524
0.29643575
0.2973564
0.29792012
0.29823897
0.29840405
0.29847844
0.29850369
0.29850739
0.29849953
0.29849286
0.29849075
0.29849585
0.29850973
0.29852792
0.29854673
0.2985628
0.29857429
0.29858128
0.29858516
0.29858751
0.29858929
0.29859047
0.29859055
0.29859061
0.29859382
0.29859551
0.29859741
0.29860108
0.29860446
0.29860867
0.29861732
0.29862033
0.29863734
0.2986509
0.29867032
0.29867883
0.29870705
0.29871169
0.29875372
0.2987268
0.29883833
0.29873057
0.29874273
0.29844252
0.29846414
0.29081452
0.29193012
0.29364108
0.29530602
0.29659495
0.2974593
0.29798529
0.29828116
0.29843343
0.29850181
0.29852536
0.2985294
0.29852452
0.29852132
0.29852251
0.2985318
0.29854764
0.29856606
0.29858335
0.29859677
0.29860561
0.2986108
0.2986139
0.29861599
0.29861713
0.29861735
0.2986169
0.29861661
0.29862022
0.29862285
0.2986248
0.29862917
0.29863329
0.29863805
0.29864649
0.29865136
0.29866699
0.29868189
0.29869974
0.2987062
0.29873133
0.29873433
0.29877657
0.29876001
0.29887045
0.29877153
0.29878648
0.29847062
0.29842662
0.29113887
0.29223724
0.29390271
0.29550206
0.29672766
0.29754428
0.29803939
0.29831715
0.29845991
0.29852438
0.29854747
0.29855241
0.29855088
0.29855046
0.29855563
0.29856804
0.29858501
0.29860292
0.2986184
0.29862945
0.29863621
0.29864019
0.29864297
0.29864527
0.29864681
0.29864753
0.29864775
0.29864774
0.29865031
0.29865299
0.29865474
0.29865829
0.29866244
0.2986677
0.29867654
0.29868362
0.2986984
0.29871426
0.29872979
0.29873447
0.29875721
0.2987582
0.2988016
0.29879499
0.29890178
0.29880593
0.29882352
0.29849642
0.29841617
0.2914466
0.29252095
0.29413644
0.29567201
0.29684108
0.29761806
0.29808889
0.29835308
0.29848917
0.29855132
0.29857469
0.29858098
0.29858211
0.29858439
0.29859253
0.29860653
0.29862348
0.29864008
0.29865357
0.29866274
0.29866812
0.29867126
0.29867367
0.29867604
0.29867845
0.29868069
0.29868261
0.29868382
0.29868541
0.29868767
0.29868905
0.29869104
0.29869481
0.29869992
0.29870924
0.29871843
0.29873153
0.29874714
0.29876107
0.29876511
0.29878594
0.29878521
0.29882956
0.29883013
0.29893327
0.29884092
0.29885583
0.2985219
0.29842304
0.29174273
0.29278959
0.29435209
0.29582544
0.29694307
0.29768606
0.29813728
0.29839128
0.29852282
0.29858375
0.29860778
0.29861562
0.29861874
0.29862324
0.29863316
0.29864775
0.29866418
0.29867946
0.29869136
0.29869927
0.29870385
0.29870632
0.29870798
0.29870977
0.29871207
0.29871482
0.29871775
0.29872008
0.29872194
0.29872427
0.29872566
0.29872692
0.2987309
0.29873567
0.29874479
0.29875587
0.29876703
0.2987811
0.29879466
0.29879823
0.29881741
0.29881696
0.29886187
0.29886709
0.29896526
0.2988778
0.29889113
0.29855007
0.29842833
0.29202622
0.29304588
0.29455593
0.2959699
0.29703972
0.2977519
0.29818595
0.29843144
0.29855945
0.2986196
0.29864434
0.29865358
0.29865833
0.29866463
0.29867578
0.29869077
0.29870693
0.29872147
0.29873257
0.29873983
0.29874394
0.29874586
0.29874672
0.29874759
0.29874896
0.29875098
0.29875349
0.29875577
0.2987579
0.29876063
0.29876302
0.29876484
0.298769
0.29877411
0.29878232
0.29879434
0.29880528
0.29881775
0.29883112
0.29883364
0.29885212
0.29885482
0.29890111
0.29890885
0.29899838
0.29891276
0.29893306
0.29858452
0.29841909
0.2922985
0.29329468
0.29475639
0.29611522
0.29714014
0.2978227
0.29823979
0.29847654
0.29860062
0.29865956
0.29868458
0.29869484
0.29870096
0.29870882
0.29872108
0.29873658
0.29875275
0.29876705
0.29877795
0.29878508
0.29878897
0.29879055
0.29879096
0.2987908
0.2987908
0.29879129
0.29879242
0.298794
0.29879591
0.29879883
0.29880265
0.29880577
0.29880971
0.29881546
0.29882283
0.29883434
0.29884619
0.29885806
0.29887103
0.29887312
0.29889278
0.29890087
0.2989492
0.29895628
0.29903089
0.298941
0.2989762
0.29862213
0.29839513
0.29256722
0.29354437
0.29496329
0.29627178
0.29725441
0.29790774
0.29830689
0.29853349
0.29865234
0.29870901
0.29873349
0.29874415
0.29875113
0.29876003
0.29877287
0.29878835
0.29880398
0.29881753
0.29882779
0.29883466
0.29883863
0.29884053
0.29884113
0.29884045
0.29883888
0.29883718
0.29883635
0.29883699
0.29883883
0.2988421
0.29884706
0.29885162
0.29885571
0.29886178
0.29886881
0.29887918
0.29889108
0.29890286
0.29891505
0.29891908
0.29894245
0.29895632
0.29900461
0.29900421
0.29905691
0.29896198
0.29901245
0.29865548
0.29837337
0.29860677
0.29871947
0.29877309
0.29879641
0.29880688
0.29881416
0.2988233
0.29883571
0.29884995
0.29886371
0.29887513
0.29888339
0.29888871
0.29889208
0.29889435
0.29889559
0.29889576
0.29889383
0.29889067
0.29888814
0.29888776
0.29888933
0.29889272
0.29889796
0.29890349
0.29890824
0.2989142
0.29892137
0.29893093
0.29894121
0.29895283
0.29896452
0.29897291
0.29900043
0.29901764
0.29905905
0.29904151
0.29907214
0.29897884
0.2990376
0.29868003
0.2983657
0.29895119
0.29895265
0.29895369
0.29895455
0.29895514
0.29895391
0.29895108
0.29894849
0.29894784
0.2989491
0.29895211
0.29895647
0.29896164
0.2989666
0.29897194
0.29897896
0.29898758
0.29899564
0.29900731
0.29902018
0.29903343
0.29906025
0.29907359
0.29909747
0.29906028
0.29908223
0.2989932
0.29905407
0.2987087
0.29837612
0.29901398
0.29901523
0.29901771
0.29902076
0.29902463
0.29902915
0.29903379
0.29903953
0.29904631
0.29905337
0.29906472
0.2990787
0.29909332
0.29910993
0.29910915
0.29911192
0.29907177
0.29909527
0.29900621
0.29906864
0.29874936
0.29837965
0.29910183
0.29910634
0.2991131
0.29912162
0.29913157
0.29913947
0.29913898
0.29912298
0.29911927
0.29908845
0.29911033
0.29902088
0.29908287
0.2987913
0.29837767
0.29917024
0.29916656
0.29915483
0.2991363
0.29913496
0.29910733
0.29912509
0.2990378
0.29909484
0.29882279
0.29837116
0.29915543
0.29912377
0.29913703
0.29905325
0.29910452
0.29883577
0.29837277
0.29914529
0.29906584
0.29911601
0.29883912
0.29839818
0.29913275
0.298853
0.29845807
0.2985227
)
;

boundaryField
{
    Side
    {
        type            empty;
    }
    Inlet
    {
        type            calculated;
        value           nonuniform List<scalar> 
48
(
0.29951977
0.29948095
0.29945243
0.2994448
0.29942941
0.2994238
0.29941159
0.29940154
0.29938334
0.2993465
0.29931428
0.29929353
0.29928617
0.29929237
0.2992937
0.29925171
0.29919668
0.29918239
0.29916563
0.29915267
0.29915326
0.2991447
0.29910658
0.29905244
0.29902301
0.2990309
0.29904401
0.29905625
0.29905109
0.29903628
0.29902084
0.29900067
0.29898099
0.29897523
0.2989784
0.29898104
0.29897593
0.29896283
0.29895098
0.29894675
0.29895189
0.29895333
0.29895169
0.29894748
0.29894709
0.29895861
0.29898799
0.29901967
)
;
    }
    Airfoil
    {
        type            calculated;
        value           nonuniform List<scalar> 0();
    }
    Outlet
    {
        type            calculated;
        value           nonuniform List<scalar> 0();
    }
    procBoundary10to2
    {
        type            processor;
        value           uniform 0.28312245;
    }
    procBoundary10to3
    {
        type            processor;
        value           nonuniform List<scalar> 
23
(
0.28844237
0.28796881
0.28743379
0.28695199
0.28649188
0.2860257
0.28552508
0.28498836
0.28441626
0.28441626
0.28687658
0.28891016
0.28932435
0.28971617
0.29009797
0.29046673
0.290814
0.29114207
0.29145688
0.29176043
0.29204896
0.29232211
0.29258806
)
;
    }
    procBoundary10to9
    {
        type            processor;
        value           nonuniform List<scalar> 
66
(
0.28307098
0.28641401
0.29108787
0.2947615
0.29670926
0.29755871
0.29790032
0.29802597
0.29805813
0.29805145
0.29803128
0.29803128
0.29793758
0.29791282
0.2979032
0.2979103
0.29792816
0.29795506
0.297986
0.29801391
0.29804024
0.29805091
0.29806252
0.29808063
0.29809482
0.29811797
0.29811797
0.29810647
0.29814232
0.29817607
0.29820005
0.29823373
0.29825698
0.29825698
0.29827985
0.29829466
0.29832313
0.29832313
0.29834267
0.29836229
0.29837909
0.29837909
0.29837547
0.29837915
0.29837915
0.29835757
0.29835757
0.29833747
0.29830147
0.29830147
0.29823223
0.29823223
0.29813565
0.29813565
0.29813664
0.29814978
0.29814978
0.2981369
0.2981369
0.2982189
0.2982179
0.2982179
0.2983927
0.29837036
0.29837036
0.29953173
)
;
    }
    procBoundary10to11
    {
        type            processor;
        value           nonuniform List<scalar> 
58
(
0.29283807
0.29379835
0.29517901
0.29644175
0.29738506
0.2980102
0.29839111
0.29839111
0.2986982
0.29880488
0.29885542
0.29887742
0.29888742
0.29889446
0.298903
0.29891386
0.29892551
0.2989359
0.29894366
0.29894853
0.29894853
0.29902561
0.299024
0.29902227
0.29902099
0.29902006
0.29901849
0.29901618
0.29901428
0.29901428
0.29908371
0.29908388
0.29908503
0.29908657
0.29908905
0.29909295
0.29909745
0.29909745
0.29916281
0.29916506
0.29916935
0.2991708
0.2991708
0.29919764
0.29918728
0.29917534
0.29915887
0.29915887
0.29917714
0.29913752
0.29913752
0.29915269
0.29907786
0.29907786
0.29915253
0.298879
0.298879
0.29857718
)
;
    }
}


// ************************************************************************* //
