/*--------------------------------*- C++ -*----------------------------------*\
| =========                 |                                                 |
| \\      /  F ield         | OpenFOAM: The Open Source CFD Toolbox           |
|  \\    /   O peration     | Version:  2506                                  |
|   \\  /    A nd           | Website:  www.openfoam.com                      |
|    \\/     M anipulation  |                                                 |
\*---------------------------------------------------------------------------*/
FoamFile
{
    version     2.0;
    format      ascii;
    arch        "LSB;label=32;scalar=64";
    class       volScalarField;
    location    "0.008";
    object      nut;
}
// * * * * * * * * * * * * * * * * * * * * * * * * * * * * * * * * * * * * * //

dimensions      [0 2 -1 0 0 0 0];

internalField   nonuniform List<scalar> 
13761
(
3.7566148e-06
3.7566101e-06
3.7566771e-06
3.7566274e-06
3.7566247e-06
3.7566903e-06
3.756637e-06
3.7566905e-06
3.71428e-06
3.7566472e-06
3.7142798e-06
3.7567209e-06
3.7142796e-06
3.7566684e-06
3.7142795e-06
3.7566653e-06
3.7142795e-06
3.756735e-06
3.7142794e-06
3.7566784e-06
3.7142797e-06
3.75675e-06
3.7142811e-06
3.7566925e-06
3.7140593e-06
3.7142859e-06
3.7567658e-06
3.7140594e-06
3.7143213e-06
3.7567151e-06
3.7140593e-06
3.7143927e-06
3.7567128e-06
3.7140592e-06
3.7144668e-06
3.7569227e-06
3.7140591e-06
3.7145126e-06
3.756773e-06
3.7140589e-06
3.714529e-06
3.7571175e-06
3.7140589e-06
3.7145298e-06
3.7564927e-06
3.7140602e-06
3.714059e-06
3.7145177e-06
3.756396e-06
3.7140601e-06
3.714063e-06
3.714503e-06
3.7559385e-06
3.7140597e-06
3.7140889e-06
3.7144977e-06
3.7587716e-06
3.7140598e-06
3.7141537e-06
3.7144985e-06
3.759382e-06
3.7140597e-06
3.7142305e-06
3.714532e-06
3.7570129e-06
3.7140595e-06
3.714284e-06
3.714603e-06
3.7568114e-06
3.7140592e-06
3.7143066e-06
3.7146455e-06
3.714059e-06
3.7143111e-06
3.7146333e-06
3.7140562e-06
3.7140589e-06
3.7143045e-06
3.714614e-06
3.714056e-06
3.7140609e-06
3.7142847e-06
3.7146242e-06
3.7140557e-06
3.7140787e-06
3.7142743e-06
3.7146522e-06
3.7140558e-06
3.7141346e-06
3.7142731e-06
3.7146703e-06
3.7140557e-06
3.7142125e-06
3.7142916e-06
3.7146646e-06
3.7140553e-06
3.7142745e-06
3.714359e-06
3.7146686e-06
3.714055e-06
3.714305e-06
3.7144323e-06
3.714701e-06
3.7140549e-06
3.7143128e-06
3.7144523e-06
3.714056e-06
3.7140552e-06
3.7143108e-06
3.7144231e-06
3.7140559e-06
3.7140664e-06
3.7142912e-06
3.7143997e-06
3.7140559e-06
3.7141112e-06
3.714274e-06
3.714408e-06
3.7140557e-06
3.7141872e-06
3.7142691e-06
3.7144319e-06
3.7140553e-06
3.7142571e-06
3.7142707e-06
3.7144458e-06
3.7140549e-06
3.7142969e-06
3.7143006e-06
3.714439e-06
3.7140546e-06
3.7143102e-06
3.7143648e-06
3.7144483e-06
3.7140563e-06
3.7140543e-06
3.7143112e-06
3.7144169e-06
3.7144857e-06
3.7140563e-06
3.7140546e-06
3.7142963e-06
3.714419e-06
3.7140562e-06
3.7140606e-06
3.7142735e-06
3.7143954e-06
3.7140559e-06
3.7140938e-06
3.7142632e-06
3.7143923e-06
3.7140554e-06
3.714164e-06
3.7142615e-06
3.7144154e-06
3.7140549e-06
3.7142396e-06
3.7142701e-06
3.714443e-06
3.7140545e-06
3.7142895e-06
3.7143089e-06
3.7144522e-06
3.7140568e-06
3.7140542e-06
3.7143098e-06
3.7143611e-06
3.7144393e-06
3.7140568e-06
3.7140542e-06
3.7143134e-06
3.7143888e-06
3.7144462e-06
3.7140567e-06
3.7140543e-06
3.714305e-06
3.714377e-06
3.714481e-06
3.7140563e-06
3.7140571e-06
3.7142796e-06
3.7143642e-06
3.7140556e-06
3.7140795e-06
3.714263e-06
3.7143819e-06
3.7140551e-06
3.7141404e-06
3.7142588e-06
3.7144187e-06
3.7140546e-06
3.7142188e-06
3.7142604e-06
3.7144494e-06
3.7140573e-06
3.7140542e-06
3.7142785e-06
3.7142863e-06
3.7144538e-06
3.7140574e-06
3.7140542e-06
3.7143073e-06
3.7143416e-06
3.7144354e-06
3.7140572e-06
3.7140542e-06
3.7143145e-06
3.7143966e-06
3.7144406e-06
3.7140567e-06
3.7140554e-06
3.7143119e-06
3.7144155e-06
3.7144734e-06
3.7140558e-06
3.7140691e-06
3.7142894e-06
3.7143964e-06
3.7140552e-06
3.7141185e-06
3.7142677e-06
3.7143819e-06
3.7140547e-06
3.714196e-06
3.7142596e-06
3.7143955e-06
3.7140579e-06
3.7140542e-06
3.7142645e-06
3.7142587e-06
3.7144248e-06
3.714058e-06
3.7140542e-06
3.7143031e-06
3.7142713e-06
3.7144488e-06
3.7140578e-06
3.7140542e-06
3.7143159e-06
3.7143179e-06
3.7144485e-06
3.714057e-06
3.7140546e-06
3.7143168e-06
3.7143824e-06
3.7144312e-06
3.7140561e-06
3.7140622e-06
3.714301e-06
3.7144332e-06
3.7144423e-06
3.7140554e-06
3.7140992e-06
3.7142751e-06
3.7144381e-06
3.7144789e-06
3.7140547e-06
3.7141715e-06
3.7142619e-06
3.7144092e-06
3.7140587e-06
3.7140542e-06
3.7142466e-06
3.714259e-06
3.7143908e-06
3.7140585e-06
3.7140542e-06
3.7142955e-06
3.7142617e-06
3.7144005e-06
3.7140574e-06
3.7140542e-06
3.7143155e-06
3.7142859e-06
3.7144258e-06
3.7140564e-06
3.7140543e-06
3.7143192e-06
3.71433e-06
3.7144466e-06
3.7140556e-06
3.7140581e-06
3.7143112e-06
3.7143777e-06
3.7144439e-06
3.7140548e-06
3.7140839e-06
3.7142846e-06
3.7144075e-06
3.7144291e-06
3.7140595e-06
3.7140542e-06
3.7141478e-06
3.7142654e-06
3.7144001e-06
3.7144464e-06
3.7140596e-06
3.7140542e-06
3.7142263e-06
3.7142592e-06
3.7143801e-06
3.7144868e-06
3.714059e-06
3.7140542e-06
3.7142849e-06
3.7142588e-06
3.7143823e-06
3.7140578e-06
3.7140542e-06
3.714313e-06
3.7142713e-06
3.7144082e-06
3.7140566e-06
3.7140542e-06
3.7143202e-06
3.7143099e-06
3.7144397e-06
3.7140558e-06
3.7140559e-06
3.7143179e-06
3.7143621e-06
3.714458e-06
3.7140549e-06
3.7140725e-06
3.714295e-06
3.7144134e-06
3.7144478e-06
3.7140601e-06
3.7140542e-06
3.7141258e-06
3.7142707e-06
3.7144368e-06
3.7144282e-06
3.7140597e-06
3.7140542e-06
3.714204e-06
3.7142606e-06
3.7144192e-06
3.7144435e-06
3.7140582e-06
3.7140542e-06
3.7142711e-06
3.7142588e-06
3.7143936e-06
3.7144811e-06
3.7140569e-06
3.7140542e-06
3.7143087e-06
3.7142637e-06
3.7143913e-06
3.714056e-06
3.7140549e-06
3.7143216e-06
3.7142881e-06
3.7144116e-06
3.714055e-06
3.7140647e-06
3.7143228e-06
3.7143237e-06
3.7144383e-06
3.7140608e-06
3.7140542e-06
3.7141065e-06
3.7143089e-06
3.7143621e-06
3.7144529e-06
3.7140604e-06
3.7140542e-06
3.7141811e-06
3.714282e-06
3.7143957e-06
3.7144409e-06
3.7140586e-06
3.7140541e-06
3.7142546e-06
3.7142662e-06
3.7144021e-06
3.7144256e-06
3.7140573e-06
3.7140541e-06
3.7143013e-06
3.7142618e-06
3.7143837e-06
3.7144477e-06
3.7140562e-06
3.7140541e-06
3.7143201e-06
3.7142619e-06
3.714375e-06
3.7144892e-06
3.7140552e-06
3.7140544e-06
3.7143236e-06
3.7142745e-06
3.7143923e-06
3.7140601e-06
3.7140542e-06
3.71406e-06
3.7143155e-06
3.714306e-06
3.7144244e-06
3.7140594e-06
3.7140542e-06
3.7140915e-06
3.7142882e-06
3.714346e-06
3.7144538e-06
3.7140576e-06
3.7140542e-06
3.7141598e-06
3.7142675e-06
3.7143911e-06
3.7144638e-06
3.7140565e-06
3.7140542e-06
3.7142372e-06
3.7142604e-06
3.7144269e-06
3.7144441e-06
3.7140553e-06
3.7140541e-06
3.7142926e-06
3.7142596e-06
3.7144266e-06
3.7144255e-06
3.7140624e-06
3.7140542e-06
3.7140542e-06
3.7143189e-06
3.714268e-06
3.7144019e-06
3.7144458e-06
3.7140618e-06
3.7140542e-06
3.7140572e-06
3.7143256e-06
3.7142927e-06
3.7143886e-06
3.7144846e-06
3.7140595e-06
3.7140542e-06
3.7140796e-06
3.7143238e-06
3.7143214e-06
3.7144e-06
3.7140579e-06
3.7140542e-06
3.7141395e-06
3.7143022e-06
3.7143509e-06
3.7144258e-06
3.7140567e-06
3.7140542e-06
3.7142181e-06
3.7142768e-06
3.7143827e-06
3.7144507e-06
3.7140554e-06
3.7140542e-06
3.7142813e-06
3.7142647e-06
3.7144011e-06
3.7144569e-06
3.7140609e-06
3.7140542e-06
3.7140542e-06
3.7143152e-06
3.7142619e-06
3.7143909e-06
3.7144368e-06
3.7140601e-06
3.7140542e-06
3.7140557e-06
3.7143262e-06
3.7142631e-06
3.7143751e-06
3.7144245e-06
3.714058e-06
3.7140542e-06
3.7140712e-06
3.7143271e-06
3.7142779e-06
3.7143806e-06
3.7144522e-06
3.7140567e-06
3.7140541e-06
3.7141221e-06
3.7143127e-06
3.7143048e-06
3.7144076e-06
3.7144949e-06
3.7140553e-06
3.7140541e-06
3.7141993e-06
3.7142852e-06
3.7143355e-06
3.7144409e-06
3.7140604e-06
3.714054e-06
3.7140541e-06
3.7142685e-06
3.7142683e-06
3.7143729e-06
3.7144652e-06
3.7140595e-06
3.714054e-06
3.7140541e-06
3.7143099e-06
3.7142629e-06
3.7144142e-06
3.7144652e-06
3.7140572e-06
3.714054e-06
3.7140549e-06
3.7143258e-06
3.7142624e-06
3.7144317e-06
3.7144384e-06
3.7140558e-06
3.714054e-06
3.7140653e-06
3.7143286e-06
3.71427e-06
3.7144146e-06
3.7144239e-06
3.7140543e-06
3.7140539e-06
3.7141073e-06
3.7143207e-06
3.7142934e-06
3.7143936e-06
3.7144499e-06
3.7140559e-06
3.7140529e-06
3.7140539e-06
3.7141812e-06
3.7142942e-06
3.7143243e-06
3.7143938e-06
3.7144904e-06
3.7140552e-06
3.7140529e-06
3.7140539e-06
3.7142554e-06
3.7142732e-06
3.7143618e-06
3.7144144e-06
3.7140532e-06
3.7140529e-06
3.7140543e-06
3.7143052e-06
3.7142651e-06
3.7144106e-06
3.7144418e-06
3.7140516e-06
3.7140529e-06
3.714061e-06
3.714328e-06
3.7142637e-06
3.714455e-06
3.7144623e-06
3.7140508e-06
3.7140501e-06
3.7140529e-06
3.7140945e-06
3.7143338e-06
3.7142675e-06
3.7144594e-06
3.714459e-06
3.7140499e-06
3.7140502e-06
3.7140529e-06
3.7141632e-06
3.7143323e-06
3.7142845e-06
3.714428e-06
3.7144335e-06
3.7140475e-06
3.7140502e-06
3.7140529e-06
3.7142396e-06
3.714311e-06
3.7143066e-06
3.7143987e-06
3.7144263e-06
3.714046e-06
3.7140503e-06
3.7140529e-06
3.7142948e-06
3.7142838e-06
3.7143296e-06
3.7143935e-06
3.7144587e-06
3.7140443e-06
3.7140503e-06
3.7140531e-06
3.714322e-06
3.7142694e-06
3.7143598e-06
3.7144101e-06
3.7145017e-06
3.7140287e-06
3.7140427e-06
3.7140504e-06
3.7140577e-06
3.7143298e-06
3.7142651e-06
3.714402e-06
3.7144361e-06
3.7140283e-06
3.7140429e-06
3.7140504e-06
3.7140852e-06
3.7143297e-06
3.7142647e-06
3.7144344e-06
3.7144564e-06
3.7140264e-06
3.7140431e-06
3.7140504e-06
3.7141491e-06
3.714313e-06
3.7142715e-06
3.7144299e-06
3.714453e-06
3.7140249e-06
3.7140433e-06
3.7140505e-06
3.7142269e-06
3.7142866e-06
3.7142909e-06
3.7144058e-06
3.7144319e-06
3.7139858e-06
3.7140234e-06
3.7140434e-06
3.7140506e-06
3.7142882e-06
3.7142714e-06
3.7143164e-06
3.7143939e-06
3.7144336e-06
3.7139857e-06
3.7140239e-06
3.7140436e-06
3.7140537e-06
3.7143221e-06
3.7142667e-06
3.7143492e-06
3.714404e-06
3.7144721e-06
3.7139841e-06
3.7140243e-06
3.7140437e-06
3.7140754e-06
3.7143346e-06
3.7142664e-06
3.7143968e-06
3.7144281e-06
3.7145166e-06
3.7139829e-06
3.7140248e-06
3.7140439e-06
3.7141332e-06
3.7143368e-06
3.7142735e-06
3.7144507e-06
3.7144539e-06
3.7139167e-06
3.7139817e-06
3.7140252e-06
3.7140441e-06
3.7142108e-06
3.7143279e-06
3.7142905e-06
3.7144733e-06
3.714468e-06
3.7139172e-06
3.7139827e-06
3.7140257e-06
3.7140443e-06
3.7142768e-06
3.7143001e-06
3.7143078e-06
3.7144504e-06
3.7144552e-06
3.7139162e-06
3.7139837e-06
3.7140261e-06
3.7140465e-06
3.7143164e-06
3.7142776e-06
3.7143254e-06
3.7144143e-06
3.7144287e-06
3.7139158e-06
3.7139846e-06
3.7140266e-06
3.7140641e-06
3.7143328e-06
3.7142678e-06
3.7143513e-06
3.7143957e-06
3.7144297e-06
3.7137867e-06
3.7139151e-06
3.7139856e-06
3.714027e-06
3.7141167e-06
3.7143365e-06
3.7142655e-06
3.7143936e-06
3.7144012e-06
3.7144671e-06
3.7137883e-06
3.713917e-06
3.7139866e-06
3.7140274e-06
3.7141931e-06
3.7143325e-06
3.714266e-06
3.7144373e-06
3.7144225e-06
3.7145105e-06
3.7137891e-06
3.7139188e-06
3.7139875e-06
3.7140278e-06
3.7142624e-06
3.7143078e-06
3.714275e-06
3.7144468e-06
3.7144475e-06
3.7137903e-06
3.7139205e-06
3.7139885e-06
3.7140296e-06
3.7143068e-06
3.7142821e-06
3.7142929e-06
3.7144239e-06
3.714461e-06
3.7135358e-06
3.7137908e-06
3.7139224e-06
3.7139894e-06
3.714044e-06
3.714327e-06
3.7142693e-06
3.7143144e-06
3.7144016e-06
3.7144496e-06
3.7135419e-06
3.7137947e-06
3.7139241e-06
3.7139903e-06
3.7140917e-06
3.7143324e-06
3.7142655e-06
3.7143438e-06
3.7143993e-06
3.7144302e-06
3.7135493e-06
3.7137981e-06
3.7139258e-06
3.7139912e-06
3.7141678e-06
3.7143315e-06
3.7142652e-06
3.7143901e-06
3.7144156e-06
3.7144396e-06
3.7135539e-06
3.7138018e-06
3.7139274e-06
3.7139932e-06
3.7142426e-06
3.7143115e-06
3.7142706e-06
3.7144494e-06
3.7144406e-06
3.7144802e-06
3.7131395e-06
3.7135566e-06
3.7138057e-06
3.7139289e-06
3.7140054e-06
3.7142949e-06
3.7142839e-06
3.7142847e-06
3.7144862e-06
3.7144638e-06
3.7145232e-06
3.7131479e-06
3.7135653e-06
3.713809e-06
3.7139304e-06
3.7140485e-06
3.7143216e-06
3.714268e-06
3.7143006e-06
3.7144733e-06
3.71447e-06
3.7131577e-06
3.7135724e-06
3.7138124e-06
3.7139318e-06
3.714121e-06
3.7143305e-06
3.7142625e-06
3.7143186e-06
3.7144334e-06
3.7144499e-06
3.7126153e-06
3.7131703e-06
3.7135801e-06
3.7138157e-06
3.7139333e-06
3.7141951e-06
3.7143311e-06
3.7142616e-06
3.7143465e-06
3.7144023e-06
3.7144266e-06
3.7126352e-06
3.7131824e-06
3.7135869e-06
3.713819e-06
3.7139359e-06
3.7142488e-06
3.7143139e-06
3.7142643e-06
3.7143927e-06
3.714395e-06
3.7144365e-06
3.7126504e-06
3.713193e-06
3.7135938e-06
3.7138222e-06
3.7139474e-06
3.7142778e-06
3.7142804e-06
3.7142756e-06
3.7144456e-06
3.7144083e-06
3.7144773e-06
3.7119336e-06
3.7126681e-06
3.7132037e-06
3.7136006e-06
3.713825e-06
3.7139889e-06
3.714289e-06
3.7142567e-06
3.7142895e-06
3.7144673e-06
3.7144326e-06
3.7145203e-06
3.7119638e-06
3.7126842e-06
3.7132143e-06
3.7136073e-06
3.7138277e-06
3.7140622e-06
3.7142912e-06
3.7142462e-06
3.7143028e-06
3.7144474e-06
3.714456e-06
3.7119841e-06
3.7127013e-06
3.713225e-06
3.7136139e-06
3.7138318e-06
3.7141407e-06
3.7142829e-06
3.7142434e-06
3.7143195e-06
3.7144156e-06
3.7144629e-06
3.7111793e-06
3.7120056e-06
3.7127182e-06
3.7132356e-06
3.7136202e-06
3.7138438e-06
3.7142008e-06
3.7142559e-06
3.7142435e-06
3.7143483e-06
3.7143986e-06
3.7144461e-06
3.7112099e-06
3.712029e-06
3.7127348e-06
3.7132463e-06
3.713626e-06
3.7138829e-06
3.7142354e-06
3.7142342e-06
3.7142495e-06
3.7143943e-06
3.7144023e-06
3.7144311e-06
3.711229e-06
3.7120527e-06
3.7127513e-06
3.713257e-06
3.7136314e-06
3.7139552e-06
3.7142499e-06
3.7142245e-06
3.7142651e-06
3.7144369e-06
3.7144201e-06
3.7144478e-06
3.7105436e-06
3.7112495e-06
3.7120762e-06
3.7127677e-06
3.7132676e-06
3.7136383e-06
3.7140361e-06
3.714253e-06
3.7142221e-06
3.714283e-06
3.7144443e-06
3.7144436e-06
3.7144899e-06
3.7105617e-06
3.7112759e-06
3.7120994e-06
3.712784e-06
3.713278e-06
3.7136536e-06
3.7141011e-06
3.7142462e-06
3.7142227e-06
3.714304e-06
3.7144238e-06
3.7144623e-06
3.7145317e-06
3.7104156e-06
3.7105745e-06
3.7113018e-06
3.7121225e-06
3.7128003e-06
3.7132877e-06
3.7136937e-06
3.7141415e-06
3.7142153e-06
3.7142282e-06
3.7143362e-06
3.714405e-06
3.7144618e-06
3.710407e-06
3.7105879e-06
3.7113268e-06
3.7121454e-06
3.7128164e-06
3.713297e-06
3.7137668e-06
3.7141606e-06
3.7141861e-06
3.7142407e-06
3.7143878e-06
3.7144032e-06
3.7144407e-06
3.7103953e-06
3.7106018e-06
3.711352e-06
3.7121683e-06
3.7128324e-06
3.713308e-06
3.713851e-06
3.714166e-06
3.7141707e-06
3.7142533e-06
3.714448e-06
3.7144162e-06
3.714426e-06
3.7110512e-06
3.7103874e-06
3.7106161e-06
3.7113771e-06
3.712191e-06
3.7128479e-06
3.7133283e-06
3.713921e-06
3.7141639e-06
3.7141655e-06
3.7142642e-06
3.7144788e-06
3.714436e-06
3.7144445e-06
3.7110363e-06
3.710379e-06
3.7106308e-06
3.7114024e-06
3.7122138e-06
3.7128626e-06
3.7133725e-06
3.7139675e-06
3.7141377e-06
3.7141648e-06
3.7142764e-06
3.7144616e-06
3.7144556e-06
3.7144866e-06
3.7119867e-06
3.7110073e-06
3.7103722e-06
3.7106456e-06
3.7114278e-06
3.7122365e-06
3.7128763e-06
3.7134481e-06
3.7139924e-06
3.7141068e-06
3.7141675e-06
3.7142963e-06
3.7144218e-06
3.7144664e-06
3.714528e-06
3.7119812e-06
3.7109861e-06
3.7103658e-06
3.7106607e-06
3.7114529e-06
3.7122589e-06
3.712892e-06
3.7135361e-06
3.7140018e-06
3.7140895e-06
3.7141783e-06
3.7143304e-06
3.7143905e-06
3.7144566e-06
3.7119634e-06
3.7109635e-06
3.71036e-06
3.7106761e-06
3.7114779e-06
3.7122804e-06
3.7129178e-06
3.7136117e-06
3.7140009e-06
3.7140834e-06
3.7141947e-06
3.7143683e-06
3.7143797e-06
3.71443e-06
3.7118777e-06
3.7119473e-06
3.7109414e-06
3.7103546e-06
3.7106919e-06
3.711503e-06
3.7123011e-06
3.7129681e-06
3.7136652e-06
3.7139844e-06
3.7140826e-06
3.7142099e-06
3.7143826e-06
3.7143878e-06
3.7144157e-06
3.7119114e-06
3.7119346e-06
3.7109176e-06
3.7103496e-06
3.7107076e-06
3.7115282e-06
3.7123236e-06
3.7130509e-06
3.7136976e-06
3.7139529e-06
3.7140855e-06
3.7142261e-06
3.7143728e-06
3.7144083e-06
3.7144357e-06
3.7099829e-06
3.7119403e-06
3.7119193e-06
3.7108939e-06
3.7103446e-06
3.7107242e-06
3.7115529e-06
3.7123559e-06
3.7131482e-06
3.7137132e-06
3.713936e-06
3.7140952e-06
3.7142503e-06
3.7143633e-06
3.714434e-06
3.7144777e-06
3.7100442e-06
3.711958e-06
3.7119021e-06
3.71087e-06
3.7103396e-06
3.7107413e-06
3.7115767e-06
3.7124106e-06
3.7132334e-06
3.7137149e-06
3.7139295e-06
3.7141118e-06
3.7142909e-06
3.7143688e-06
3.7144523e-06
3.7145191e-06
3.705519e-06
3.7100971e-06
3.711977e-06
3.7118818e-06
3.7108457e-06
3.710335e-06
3.7107586e-06
3.7115997e-06
3.7124939e-06
3.7132946e-06
3.7137057e-06
3.7139295e-06
3.7141281e-06
3.7143449e-06
3.7143871e-06
3.7144483e-06
3.7056755e-06
3.7101753e-06
3.7119934e-06
3.7118615e-06
3.7108214e-06
3.7103308e-06
3.710776e-06
3.7116256e-06
3.7125913e-06
3.7133323e-06
3.7136819e-06
3.7139339e-06
3.7141433e-06
3.7143834e-06
3.7144095e-06
3.7144272e-06
3.6967799e-06
3.7057671e-06
3.7102453e-06
3.7120059e-06
3.7118425e-06
3.7107974e-06
3.7103273e-06
3.7107925e-06
3.7116635e-06
3.7126803e-06
3.7133498e-06
3.7136653e-06
3.713945e-06
3.7141618e-06
3.7143833e-06
3.71443e-06
3.7144197e-06
3.6811949e-06
3.6972398e-06
3.7058763e-06
3.710318e-06
3.7120154e-06
3.7118235e-06
3.7107741e-06
3.7103245e-06
3.7108086e-06
3.7117266e-06
3.7127495e-06
3.7133495e-06
3.7136589e-06
3.7139628e-06
3.714191e-06
3.7143598e-06
3.714444e-06
3.7144436e-06
3.6821245e-06
3.6974912e-06
3.7059822e-06
3.71039e-06
3.7120232e-06
3.7118036e-06
3.7107515e-06
3.7103221e-06
3.7108281e-06
3.7118199e-06
3.7127985e-06
3.7133361e-06
3.7136612e-06
3.7139818e-06
3.7142364e-06
3.7143389e-06
3.7144436e-06
3.7144851e-06
3.6623788e-06
3.6826534e-06
3.6977749e-06
3.7060898e-06
3.7104655e-06
3.7120299e-06
3.7117828e-06
3.7107297e-06
3.7103198e-06
3.71086e-06
3.711927e-06
3.7128301e-06
3.7133112e-06
3.7136697e-06
3.7139988e-06
3.7142863e-06
3.7143321e-06
3.7144221e-06
3.7145247e-06
3.6456503e-06
3.6641203e-06
3.6832853e-06
3.6980555e-06
3.706194e-06
3.7105448e-06
3.7120357e-06
3.7117611e-06
3.7107085e-06
3.7103174e-06
3.7109171e-06
3.7120237e-06
3.7128456e-06
3.7132908e-06
3.7136841e-06
3.7140165e-06
3.7143103e-06
3.7143383e-06
3.7143927e-06
3.6491742e-06
3.6648849e-06
3.6839073e-06
3.6983466e-06
3.7063074e-06
3.710618e-06
3.7120391e-06
3.7117393e-06
3.7106869e-06
3.7103183e-06
3.7110038e-06
3.7120982e-06
3.7128463e-06
3.7132836e-06
3.7137049e-06
3.7140406e-06
3.7143016e-06
3.7143528e-06
3.714384e-06
3.6420715e-06
3.6506835e-06
3.665862e-06
3.6845414e-06
3.6986433e-06
3.7064199e-06
3.7106848e-06
3.7120372e-06
3.7117174e-06
3.7106644e-06
3.710332e-06
3.7111042e-06
3.71215e-06
3.7128367e-06
3.7132878e-06
3.7137288e-06
3.7140774e-06
3.7142823e-06
3.7143719e-06
3.7144083e-06
3.6451787e-06
3.6456783e-06
3.651796e-06
3.6668803e-06
3.6851801e-06
3.6989446e-06
3.7065543e-06
3.710743e-06
3.7120328e-06
3.7116939e-06
3.7106427e-06
3.7103725e-06
3.7111956e-06
3.7121817e-06
3.712825e-06
3.7133002e-06
3.7137513e-06
3.7141265e-06
3.7142713e-06
3.7143901e-06
3.7144497e-06
3.6452748e-06
3.6471215e-06
3.6484862e-06
3.6528351e-06
3.6679499e-06
3.685825e-06
3.6992505e-06
3.7067595e-06
3.7107905e-06
3.7120303e-06
3.7116702e-06
3.7106278e-06
3.7104427e-06
3.7112661e-06
3.7121944e-06
3.7128219e-06
3.7133205e-06
3.7137729e-06
3.7141685e-06
3.714273e-06
3.7143954e-06
3.7144902e-06
3.6463064e-06
3.6486336e-06
3.6496869e-06
3.6540563e-06
3.6690355e-06
3.6864609e-06
3.699556e-06
3.7069534e-06
3.7108296e-06
3.7120293e-06
3.711646e-06
3.7106269e-06
3.7105249e-06
3.7113151e-06
3.7121904e-06
3.7128323e-06
3.7133479e-06
3.7137981e-06
3.7141796e-06
3.7142843e-06
3.7143787e-06
3.6381226e-06
3.6463037e-06
3.6519029e-06
3.6503294e-06
3.6554008e-06
3.6701316e-06
3.6870963e-06
3.6998593e-06
3.7071764e-06
3.7108644e-06
3.7120269e-06
3.7116237e-06
3.7106409e-06
3.7105976e-06
3.7113436e-06
3.7121762e-06
3.7128479e-06
3.7133776e-06
3.7138323e-06
3.7141684e-06
3.714301e-06
3.7143548e-06
3.6298723e-06
3.638441e-06
3.6470036e-06
3.6532294e-06
3.6511422e-06
3.6568086e-06
3.6712256e-06
3.6877323e-06
3.7001567e-06
3.7074035e-06
3.7108953e-06
3.7120219e-06
3.7116099e-06
3.7107036e-06
3.7106499e-06
3.7113521e-06
3.7121623e-06
3.7128698e-06
3.7134047e-06
3.7138784e-06
3.7141569e-06
3.7143201e-06
3.7143534e-06
3.6274916e-06
3.6305387e-06
3.6385531e-06
3.6497944e-06
3.6531067e-06
3.6522201e-06
3.6582378e-06
3.6723195e-06
3.688366e-06
3.7004475e-06
3.7076086e-06
3.7109232e-06
3.7120151e-06
3.7116075e-06
3.7107698e-06
3.7106789e-06
3.7113435e-06
3.7121609e-06
3.7128987e-06
3.7134291e-06
3.713929e-06
3.7141559e-06
3.7143359e-06
3.7143825e-06
3.6285771e-06
3.6261527e-06
3.6282025e-06
3.6307964e-06
3.6392726e-06
3.6514609e-06
3.6530684e-06
3.6534272e-06
3.6596637e-06
3.6734137e-06
3.6889974e-06
3.7007456e-06
3.7077952e-06
3.7109417e-06
3.7120091e-06
3.7116251e-06
3.7108233e-06
3.7106852e-06
3.7113251e-06
3.7121753e-06
3.7129327e-06
3.7134549e-06
3.7139616e-06
3.714165e-06
3.7143359e-06
3.7144252e-06
3.6348319e-06
3.6300248e-06
3.6275351e-06
3.6284475e-06
3.6312344e-06
3.6422536e-06
3.6508641e-06
3.6534218e-06
3.6546773e-06
3.6610793e-06
3.6744904e-06
3.6896255e-06
3.7010219e-06
3.707958e-06
3.7109519e-06
3.7120096e-06
3.711688e-06
3.7108532e-06
3.7106773e-06
3.7113063e-06
3.7121969e-06
3.7129671e-06
3.7134867e-06
3.713966e-06
3.7141806e-06
3.7143148e-06
3.7144658e-06
3.6384594e-06
3.6362168e-06
3.6303007e-06
3.6277264e-06
3.6286693e-06
3.6323381e-06
3.6443877e-06
3.650121e-06
3.6540162e-06
3.6559353e-06
3.6624841e-06
3.6755517e-06
3.6902473e-06
3.701441e-06
3.7080899e-06
3.7109633e-06
3.7120293e-06
3.711751e-06
3.7108663e-06
3.7106554e-06
3.7112986e-06
3.712227e-06
3.7129989e-06
3.713529e-06
3.7139594e-06
3.7141998e-06
3.7142921e-06
3.6361822e-06
3.6379016e-06
3.6398128e-06
3.6364316e-06
3.6305969e-06
3.6279699e-06
3.6292204e-06
3.6361664e-06
3.6437438e-06
3.6499394e-06
3.6547068e-06
3.6571932e-06
3.6638653e-06
3.6765959e-06
3.6908564e-06
3.7018979e-06
3.7081989e-06
3.7109813e-06
3.7120786e-06
3.7117969e-06
3.7108625e-06
3.7106188e-06
3.7113071e-06
3.7122648e-06
3.7130288e-06
3.713581e-06
3.7139584e-06
3.7142198e-06
3.7142943e-06
3.6352618e-06
3.6375225e-06
3.6392103e-06
3.6399481e-06
3.6366543e-06
3.6307674e-06
3.628153e-06
3.6309171e-06
3.6382427e-06
3.6428532e-06
3.6500854e-06
3.6554311e-06
3.6584433e-06
3.6652369e-06
3.6776221e-06
3.6914433e-06
3.7024918e-06
3.7082946e-06
3.7110112e-06
3.7121546e-06
3.7118202e-06
3.7108373e-06
3.7105854e-06
3.7113242e-06
3.7123071e-06
3.7130595e-06
3.7136284e-06
3.7139671e-06
3.7142341e-06
3.7143253e-06
3.6410991e-06
3.6351492e-06
3.636318e-06
3.6376249e-06
3.6393201e-06
3.6400793e-06
3.636722e-06
3.630839e-06
3.6289469e-06
3.6351955e-06
3.6375096e-06
3.6426344e-06
3.6503708e-06
3.6561758e-06
3.6596811e-06
3.6665803e-06
3.6786296e-06
3.6920222e-06
3.7030877e-06
3.7083915e-06
3.7110657e-06
3.7122316e-06
3.7118292e-06
3.7107938e-06
3.7105639e-06
3.7113497e-06
3.7123485e-06
3.7130935e-06
3.7136512e-06
3.7139829e-06
3.7142307e-06
3.7143679e-06
3.7810284e-06
3.7268439e-06
3.6728749e-06
3.6409678e-06
3.6351169e-06
3.6362641e-06
3.6377113e-06
3.6393981e-06
3.64006e-06
3.6367331e-06
3.6313378e-06
3.6324619e-06
3.6360612e-06
3.6368667e-06
3.6427958e-06
3.6507103e-06
3.6569265e-06
3.6609017e-06
3.667896e-06
3.6796189e-06
3.6925579e-06
3.7034924e-06
3.7084961e-06
3.711153e-06
3.7122896e-06
3.7118261e-06
3.7107382e-06
3.71055e-06
3.7113834e-06
3.7123864e-06
3.7131321e-06
3.7136518e-06
3.7140031e-06
3.7142083e-06
3.7144084e-06
3.7630392e-06
3.8098324e-06
3.8081912e-06
3.7794086e-06
3.725811e-06
3.6724523e-06
3.640695e-06
3.6349718e-06
3.6361746e-06
3.6376669e-06
3.6393238e-06
3.639965e-06
3.6369096e-06
3.6333792e-06
3.6356587e-06
3.6348911e-06
3.6369743e-06
3.6431224e-06
3.6510839e-06
3.6576722e-06
3.6621039e-06
3.6691826e-06
3.6805824e-06
3.6933237e-06
3.7037631e-06
3.7086261e-06
3.7112617e-06
3.7123211e-06
3.7117984e-06
3.7106858e-06
3.7105464e-06
3.7114227e-06
3.7124224e-06
3.7131717e-06
3.7136495e-06
3.7140256e-06
3.7141896e-06
3.7167825e-06
3.7040444e-06
3.7175253e-06
3.7613654e-06
3.8076938e-06
3.8061318e-06
3.7773006e-06
3.7243229e-06
3.6716349e-06
3.640343e-06
3.6347457e-06
3.6359695e-06
3.6375014e-06
3.6391724e-06
3.6399495e-06
3.6380283e-06
3.6379714e-06
3.6348805e-06
3.6344067e-06
3.6374218e-06
3.6435129e-06
3.6514759e-06
3.6584136e-06
3.6632926e-06
3.6704348e-06
3.6815059e-06
3.6942489e-06
3.7039875e-06
3.7087928e-06
3.7113686e-06
3.7123276e-06
3.7117507e-06
3.7106464e-06
3.7105595e-06
3.7114626e-06
3.7124599e-06
3.7132022e-06
3.7136554e-06
3.7140477e-06
3.7141977e-06
3.7446494e-06
3.7351855e-06
3.7354705e-06
3.7478689e-06
3.748636e-06
3.736167e-06
3.7156297e-06
3.7030589e-06
3.7163335e-06
3.7592042e-06
3.8050555e-06
3.803584e-06
3.7752727e-06
3.7228645e-06
3.6708433e-06
3.6398894e-06
3.6344418e-06
3.635649e-06
3.6372701e-06
3.6390749e-06
3.6406483e-06
3.6428304e-06
3.6382754e-06
3.6337351e-06
3.6345976e-06
3.6380347e-06
3.6439413e-06
3.6518835e-06
3.6591418e-06
3.664446e-06
3.671646e-06
3.6823938e-06
3.6956572e-06
3.7042226e-06
3.7089768e-06
3.7114558e-06
3.7123199e-06
3.7116911e-06
3.7106192e-06
3.7105753e-06
3.7114995e-06
3.7125038e-06
3.7132201e-06
3.7136706e-06
3.7140617e-06
3.7142325e-06
4.2073156e-06
4.1552495e-06
4.0144542e-06
3.8599869e-06
3.7543081e-06
3.7111879e-06
3.7042699e-06
3.7062377e-06
3.7243468e-06
3.7428289e-06
3.7337621e-06
3.733857e-06
3.745911e-06
3.7468165e-06
3.7346912e-06
3.7139066e-06
3.7015497e-06
3.714679e-06
3.7571112e-06
3.8024979e-06
3.801059e-06
3.7730884e-06
3.7212999e-06
3.669906e-06
3.6393797e-06
3.6340169e-06
3.6352775e-06
3.6371288e-06
3.6396576e-06
3.6453097e-06
3.6440794e-06
3.6367158e-06
3.6335696e-06
3.6350757e-06
3.6386999e-06
3.6443865e-06
3.6523008e-06
3.6598589e-06
3.6655642e-06
3.6728078e-06
3.6832395e-06
3.696783e-06
3.7044889e-06
3.7091528e-06
3.7115141e-06
3.7123071e-06
3.7116353e-06
3.7106013e-06
3.7105983e-06
3.7115329e-06
3.712558e-06
3.7132383e-06
3.713693e-06
3.7140565e-06
3.7142767e-06
1.9409239e-10
9.8610975e-10
2.0475473e-08
1.8523095e-07
9.4560049e-07
3.2209484e-06
8.0244658e-06
1.5810859e-05
2.6459186e-05
3.9692123e-05
5.5317271e-05
7.3244345e-05
9.344528e-05
0.00011594243
0.00014080081
0.0001681178
0.00019801735
0.00023063779
0.00026611433
0.00030458741
0.00034620993
0.00039112109
0.00043944737
0.00049131228
0.00054681857
0.00060605719
0.00066909486
0.00073595643
0.00080662251
0.00088099974
0.0009588859
0.0010399222
0.0011235195
0.0012087828
0.0012944106
0.0013785504
0.0014586595
0.0015313493
0.0015922634
0.0016360149
0.0016562315
0.0016457341
0.0015968836
0.0015020247
0.001353894
0.0011455284
0.00087280837
0.00053823622
0.00019267043
2.6993818e-05
8.9200606e-06
6.5458294e-06
5.6930374e-06
4.8184164e-06
4.2521035e-06
4.0207809e-06
3.9565055e-06
3.9365643e-06
3.9024942e-06
3.8342178e-06
3.8279481e-06
3.8351133e-06
3.7303188e-06
3.6547438e-06
3.7741565e-06
3.8374688e-06
3.7084261e-06
3.6393374e-06
3.7672375e-06
4.0861898e-06
4.2007567e-06
4.1496237e-06
4.0097608e-06
3.8560706e-06
3.7521375e-06
3.7095531e-06
3.7027291e-06
3.7047471e-06
3.722562e-06
3.7405278e-06
3.731779e-06
3.7316531e-06
3.7434274e-06
3.7444523e-06
3.7326016e-06
3.7123291e-06
3.700145e-06
3.7131222e-06
3.7549842e-06
3.7997961e-06
3.7983927e-06
3.7707383e-06
3.7196206e-06
3.6689032e-06
3.6387658e-06
3.6335416e-06
3.6351064e-06
3.6377244e-06
3.6443247e-06
3.6472041e-06
3.6422319e-06
3.6361625e-06
3.6338648e-06
3.6356649e-06
3.6393924e-06
3.6448527e-06
3.6527244e-06
3.6605673e-06
3.6666387e-06
3.6739189e-06
3.684483e-06
3.6973431e-06
3.704779e-06
3.7093079e-06
3.711542e-06
3.7122695e-06
3.7115928e-06
3.7105927e-06
3.7106229e-06
3.7115648e-06
3.7126204e-06
3.7132672e-06
3.7137203e-06
3.7140357e-06
3.7143185e-06
2.0064597e-10
1.0018883e-09
2.0738392e-08
1.8755114e-07
9.5680152e-07
3.2548829e-06
8.0951285e-06
1.5923058e-05
2.6609193e-05
3.9873076e-05
5.5522862e-05
7.3470555e-05
9.3690932e-05
0.00011620896
0.00014109154
0.00016843709
0.00019836981
0.00023102775
0.00026654557
0.00030506357
0.00034673837
0.00039171473
0.00044012633
0.0004921028
0.00054774883
0.00060714875
0.00067036393
0.00073741896
0.00080829623
0.00088290667
0.00096105043
0.0010423701
0.0011262724
0.0012118539
0.0012978036
0.0013822559
0.0014626475
0.0015355689
0.0015966398
0.0016404501
0.0016606055
0.00164991
0.0016007132
0.0015053603
0.0013566305
0.0011476951
0.00087411475
0.00053842394
0.00019284591
2.6996681e-05
8.8407744e-06
6.6069931e-06
5.7217635e-06
4.8057194e-06
4.2404752e-06
4.0095138e-06
3.9497512e-06
3.9306938e-06
3.8952903e-06
3.8300291e-06
3.8245138e-06
3.8314149e-06
3.7271371e-06
3.6530752e-06
3.7714215e-06
3.8349447e-06
3.7077431e-06
3.6377658e-06
3.7622926e-06
4.0777624e-06
4.1939439e-06
4.1439455e-06
4.0052175e-06
3.8524278e-06
3.7495387e-06
3.7074461e-06
3.7006862e-06
3.7027505e-06
3.7202919e-06
3.7383099e-06
3.7299106e-06
3.7296104e-06
3.7410591e-06
3.7422384e-06
3.7306452e-06
3.7106575e-06
3.6987162e-06
3.7114671e-06
3.7527842e-06
3.7970111e-06
3.7955356e-06
3.7682643e-06
3.7177989e-06
3.6678202e-06
3.6381135e-06
3.6334438e-06
3.6359276e-06
3.6426136e-06
3.6463744e-06
3.6452078e-06
3.6411859e-06
3.6362957e-06
3.6343585e-06
3.6363033e-06
3.6400931e-06
3.6453367e-06
3.6531377e-06
3.661243e-06
3.6676653e-06
3.6749687e-06
3.6861815e-06
3.6977278e-06
3.7050907e-06
3.7094402e-06
3.7115442e-06
3.7122144e-06
3.7115626e-06
3.7105925e-06
3.7106451e-06
3.7115983e-06
3.7126774e-06
3.7133036e-06
3.7137507e-06
3.7140234e-06
2.0500024e-10
1.012565e-09
2.0911295e-08
1.8908201e-07
9.641836e-07
3.2767842e-06
8.1387179e-06
1.5987825e-05
2.6688833e-05
3.9959953e-05
5.5610627e-05
7.3555335e-05
9.3771833e-05
0.00011628803
0.00014117339
0.00016852909
0.00019848269
0.00023117597
0.00026674734
0.00030534051
0.00034710877
0.00039219225
0.00044071917
0.00049281741
0.00054859443
0.00060814466
0.00067153827
0.00073880277
0.00080991779
0.0008847819
0.00096318036
0.0010447402
0.0011288636
0.0012146502
0.0013008059
0.001385472
0.0014660791
0.0015391993
0.0016004338
0.0016443688
0.0016646025
0.0016539335
0.0016047077
0.0015092369
0.0013603183
0.0011510644
0.00087704246
0.00054071146
0.00019451557
2.7240922e-05
8.8172304e-06
6.6852239e-06
5.7800604e-06
4.8160014e-06
4.2400119e-06