/*--------------------------------*- C++ -*----------------------------------*\
| =========                 |                                                 |
| \\      /  F ield         | OpenFOAM: The Open Source CFD Toolbox           |
|  \\    /   O peration     | Version:  2506                                  |
|   \\  /    A nd           | Website:  www.openfoam.com                      |
|    \\/     M anipulation  |                                                 |
\*---------------------------------------------------------------------------*/
FoamFile
{
    version     2.0;
    format      ascii;
    arch        "LSB;label=32;scalar=64";
    class       volScalarField;
    location    "0.008";
    object      T;
}
// * * * * * * * * * * * * * * * * * * * * * * * * * * * * * * * * * * * * * //

dimensions      [0 0 0 1 0 0 0];

internalField   nonuniform List<scalar> 
13761
(
245.45772
245.45781
245.45784
245.45779
245.45774
245.45769
245.45764
245.45759
245.60888
245.45756
245.60885
245.45752
245.6088
245.45747
245.60877
245.45741
245.60877
245.45738
245.60877
245.45736
245.60883
245.45731
245.60889
245.45721
245.52784
245.60892
245.45713
245.52779
245.60898
245.45704
245.52775
245.60904
245.45693
245.52783
245.60902
245.45685
245.52789
245.60891
245.45684
245.5279
245.60874
245.45692
245.52788
245.60856
245.45697
245.50871
245.52786
245.6085
245.45699
245.50872
245.52785
245.60856
245.45696
245.50873
245.52788
245.60869
245.45691
245.50874
245.52794
245.6088
245.45699
245.50874
245.52804
245.60889
245.45718
245.50875
245.52812
245.60893
245.4574
245.50877
245.52815
245.60884
245.50879
245.52816
245.60874
245.49022
245.5088
245.52815
245.60871
245.49023
245.50882
245.52818
245.6088
245.49023
245.50884
245.52821
245.60892
245.49024
245.50886
245.52824
245.609
245.49025
245.50889
245.52821
245.609
245.49025
245.50891
245.52817
245.60901
245.49026
245.50892
245.52818
245.60902
245.49027
245.50892
245.52825
245.48324
245.49028
245.50891
245.5283
245.48325
245.49028
245.50892
245.52835
245.48325
245.49029
245.50892
245.52839
245.48325
245.4903
245.50894
245.52842
245.48326
245.4903
245.50895
245.52849
245.48326
245.49031
245.50897
245.52855
245.48326
245.49032
245.50898
245.52859
245.48091
245.48327
245.49032
245.50899
245.52865
245.48091
245.48327
245.49033
245.50899
245.48091
245.48327
245.49034
245.50899
245.48091
245.48328
245.49034
245.50898
245.48091
245.48328
245.49035
245.50898
245.48091
245.48329
245.49036
245.50899
245.48091
245.48329
245.49036
245.509
245.48023
245.48091
245.48329
245.49037
245.50901
245.48023
245.48092
245.4833
245.49038
245.50903
245.48023
245.48092
245.4833
245.49039
245.50905
245.48023
245.48092
245.4833
245.49039
245.48023
245.48092
245.48331
245.4904
245.48023
245.48092
245.48331
245.49041
245.48023
245.48092
245.48331
245.49042
245.48005
245.48023
245.48092
245.48332
245.49043
245.48005
245.48023
245.48092
245.48332
245.49044
245.48005
245.48023
245.48093
245.48332
245.49045
245.48005
245.48023
245.48093
245.48333
245.49046
245.48005
245.48023
245.48093
245.48333
245.48005
245.48023
245.48093
245.48333
245.48005
245.48023
245.48093
245.48334
245.48001
245.48005
245.48023
245.48093
245.48334
245.48001
245.48005
245.48023
245.48093
245.48335
245.48001
245.48005
245.48024
245.48094
245.48335
245.48001
245.48006
245.48024
245.48094
245.48335
245.48001
245.48006
245.48024
245.48094
245.48336
245.48001
245.48006
245.48024
245.48094
245.48336
245.48001
245.48006
245.48024
245.48094
245.48
245.48001
245.48006
245.48024
245.48094
245.48
245.48001
245.48006
245.48024
245.48094
245.48
245.48001
245.48006
245.48024
245.48094
245.48
245.48001
245.48006
245.48024
245.48094
245.48
245.48001
245.48006
245.48024
245.48094
245.48
245.48001
245.48006
245.48024
245.48095
245.48
245.48
245.48001
245.48006
245.48024
245.48095
245.48
245.48
245.48001
245.48006
245.48024
245.48095
245.48
245.48
245.48001
245.48006
245.48024
245.48
245.48
245.48001
245.48006
245.48024
245.48
245.48
245.48001
245.48006
245.48024
245.48
245.48
245.48001
245.48006
245.48024
245.48
245.48
245.48001
245.48006
245.48024
245.48
245.48
245.48
245.48001
245.48006
245.48024
245.48
245.48
245.48
245.48001
245.48006
245.48024
245.48
245.48
245.48
245.48001
245.48006
245.48024
245.48
245.48
245.48
245.48001
245.48006
245.48
245.48
245.48
245.48001
245.48006
245.48
245.48
245.48
245.48001
245.48006
245.48004
245.48
245.48
245.48
245.48001
245.48006
245.48004
245.48
245.48
245.48
245.48001
245.48006
245.48004
245.48
245.48
245.48
245.48001
245.48006
245.48004
245.48
245.48
245.48
245.48001
245.48006
245.48004
245.48
245.48
245.48
245.48001
245.48006
245.48004
245.48
245.48
245.48
245.48001
245.48066
245.48003
245.48
245.48
245.48
245.48001
245.48066
245.48003
245.48
245.48
245.48
245.48001
245.48065
245.48003
245.48
245.48
245.48
245.48001
245.48065
245.48003
245.48
245.48
245.48
245.48001
245.48064
245.48003
245.48
245.48
245.48
245.48001
245.48525
245.48063
245.48003
245.48
245.48
245.48
245.48001
245.48522
245.48063
245.48003
245.48
245.48
245.48
245.48001
245.48519
245.48062
245.48003
245.48
245.48
245.48
245.48516
245.48062
245.48003
245.48
245.48
245.48
245.48513
245.48061
245.48003
245.48
245.48
245.48
245.4851
245.4806
245.48003
245.48
245.48
245.48
245.50478
245.48506
245.4806
245.48003
245.48
245.48
245.48
245.50467
245.48503
245.48059
245.48003
245.48
245.48
245.48
245.50456
245.485
245.48058
245.48002
245.48
245.48
245.48
245.50444
245.48497
245.48057
245.48002
245.48
245.48
245.48
245.50433
245.48493
245.48057
245.48002
245.48
245.48
245.56646
245.50421
245.4849
245.48056
245.48002
245.48
245.48
245.56618
245.50409
245.48486
245.48055
245.48002
245.48
245.48
245.5659
245.50398
245.48482
245.48054
245.48002
245.48
245.48
245.56562
245.50385
245.48478
245.48053
245.48002
245.48
245.48
245.56532
245.50373
245.48474
245.48053
245.48002
245.48
245.48
245.7147
245.56502
245.50361
245.4847
245.48052
245.48002
245.48
245.48
245.71426
245.56471
245.50348
245.48467
245.48051
245.48002
245.48
245.71384
245.5644
245.50335
245.48463
245.4805
245.48002
245.48
245.71339
245.56408
245.50322
245.48459
245.4805
245.48002
245.48
245.96276
245.71293
245.56375
245.50309
245.48455
245.48049
245.48002
245.48
245.96292
245.71245
245.56342
245.50296
245.48451
245.48048
245.48002
245.48
245.96307
245.71195
245.56308
245.50282
245.48447
245.48047
245.48002
245.48
245.96317
245.71143
245.56273
245.50268
245.48443
245.48047
245.48002
245.48
245.96324
245.7109
245.56238
245.50254
245.48439
245.48046
245.48002
245.48
246.17843
245.96328
245.71035
245.56202
245.5024
245.48435
245.48045
245.48002
246.18112
245.96329
245.70978
245.56166
245.50226
245.48431
245.48045
245.48002
246.18376
245.96325
245.7092
245.56129
245.50212
245.48427
245.48044
245.48002
246.18635
245.96317
245.7086
245.56092
245.50197
245.48423
245.48043
245.48001
246.02458
246.18889
245.96307
245.70798
245.56054
245.50183
245.48419
245.48042
245.48001
246.03115
246.19138
245.96292
245.70735
245.56016
245.50168
245.48415
245.48042
245.48001
246.03763
246.19381
245.96274
245.7067
245.55977
245.50153
245.48411
245.48041
245.48001
246.04415
246.19618
245.96253
245.70604
245.55937
245.50139
245.48407
245.4804
245.45132
246.05065
246.19851
245.96228
245.70536
245.55898
245.50124
245.48402
245.48039
245.45976
246.05716
246.20077
245.962
245.70467
245.55857
245.50109
245.48398
245.48039
245.46805
246.06366
246.20298
245.96168
245.70396
245.55817
245.50094
245.48394
245.48038
245.4764
246.07016
246.20514
245.96133
245.70324
245.55775
245.50078
245.4839
245.48037
244.92958
245.48473
246.07665
246.20725
245.96095
245.70251
245.55734
245.50063
245.48385
245.48037
244.93574
245.49308
246.08313
246.2093
245.96054
245.70176
245.55692
245.50048
245.48381
245.48036
244.9419
245.50143
246.0896
246.21129
245.96008
245.701
245.5565
245.50032
245.48377
244.94815
245.50978
246.09606
246.21324
245.95959
245.70023
245.55607
245.50017
245.48372
244.93223
244.95446
245.51814
246.10249
246.21513
245.95907
245.69944
245.55565
245.50001
245.48368
244.93403
244.96083
245.52652
246.10888
246.21698
245.95852
245.69864
245.55522
245.49985
245.48363
244.93596
244.96727
245.53492
246.11521
246.21877
245.95793
245.69783
245.55478
245.49969
245.48359
244.93797
244.97377
245.54336
246.12148
246.22052
245.95732
245.697
245.55435
245.49953
245.48355
245.19277
244.94007
244.98034
245.55183
246.12766
246.22222
245.95667
245.69616
245.55391
245.49937
245.48351
245.19243
244.94226
244.98697
245.56034
246.13378
246.22387
245.95599
245.69531
245.55347
245.4992
245.19226
244.94454
244.99366
245.56889
246.13983
246.22547
245.95528
245.69445
245.55302
245.49904
245.09942
245.19219
244.9469
245.00041
245.57747
246.14585
246.22701
245.95455
245.69358
245.55257
245.49888
245.09814
245.19224
244.94937
245.0072
245.58604
246.15185
246.2285
245.95378
245.6927
245.55212
245.49872
245.09701
245.19238
244.95193
245.01404
245.59461
246.15786
246.22992
245.95299
245.69181
245.55167
245.49856
244.92567
245.09609
245.19263
244.95458
245.02091
245.60314
246.16387
246.23129
245.95216
245.6909
245.55121
245.49839
244.92155
245.09538
245.19297
244.95733
245.02782
245.61166
246.16985
246.2326
245.95131
245.68999
245.55076
244.91772
245.09489
245.19338
244.96016
245.03476
245.62017
246.1758
246.23386
245.95043
245.68906
245.5503
245.15769
244.91409
245.09467
245.19386
244.96308
245.04174
245.62869
246.18171
246.23506
245.94952
245.68813
245.54983
245.14724
244.91061
245.09471
245.1944
244.96608
245.04875
245.63722
246.18759
246.23621
245.94859
245.68719
245.54937
245.1369
244.90719
245.09504
245.195
244.96915
245.0558
245.64574
246.19343
246.2373
245.94763
245.68623
245.5489
245.35276
245.12664
244.90377
245.09568
245.19566
244.9723
245.06289
245.65426
246.19925
246.23833
245.94664
245.68527
245.54844
245.34998
245.11658
244.90035
245.09652
245.1964
244.97552
245.07
245.66277
246.20503
246.2393
245.94562
245.6843
245.54797
245.1569
245.34695
245.10673
244.89695
245.09762
245.19721
244.97879
245.07714
245.67128
246.21079
246.24022
245.94458
245.68332
245.16157
245.34358
245.09712
244.8936
245.09892
245.19811
244.98214
245.0843
245.67978
246.2165
246.24109
245.94351
245.68233
245.16594
245.33981
245.08768
244.8904
245.10043
245.19912
244.98553
245.09149
245.68826
246.22218
246.24189
245.94242
245.68134
245.04153
245.17003
245.3356
245.0784
244.88737
245.10211
245.20021
244.98898
245.0987
245.69674
246.22783
246.24265
245.9413
245.68034
245.04596
245.17385
245.33089
245.06925
244.88456
245.10396
245.20141
244.99248
245.10595
245.70521
246.23344
246.24334
245.94016
245.67933
244.93473
245.05059
245.17743
245.32566
245.06022
244.88197
245.10599
245.20269
244.99602
245.11322
245.71367
246.23902
246.24398
245.939
245.67832
244.93444
245.0554
245.18079
245.31992
245.0513
244.87962
245.1082
245.20405
244.9996
245.12051
245.72213
246.24455
246.24457
245.93781
244.93453
245.06043
245.18398
245.3137
245.0425
244.87749
245.11059
245.20549
245.00322
245.12782
245.73058
246.25005
246.2451
245.9366
244.85274
244.93499
245.06566
245.18704
245.30703
245.03382
244.8756
245.11316
245.20699
245.00687
245.13515
245.73902
246.2555
246.24558
245.93536
244.84899
244.93582
245.07107
245.18994
245.29995
245.02526
244.87393
245.1159
245.20855
245.01056
245.1425
245.74747
246.2609
246.246
245.93411
244.94582
244.84514
244.93703
245.0766
245.19264
245.2925
245.01686
244.87249
245.11881
245.21018
245.01427
245.14985
245.75592
246.26626
246.24638
245.93283
244.94149
244.84122
244.93861
245.08222
245.19518
245.28471
245.00861
244.87126
245.12189
245.21187
245.018
245.15722
245.76437
246.27157
246.2467
245.93153
244.92991
244.93687
244.83732
244.94052
245.08789
245.19741
245.27661
245.00055
244.87027
245.12513
245.21363
245.02173
245.16459
245.77282
246.27682
246.24698
244.93103
244.93195
244.83355
244.94271
245.09357
245.1993
245.26824
244.99269
244.86951
245.12852
245.21548
245.02547
245.17196
245.78127
246.28203
246.2472
244.8573
244.93208
244.92683
244.83002
244.94514
245.09924
245.20081
245.25965
244.98505
244.86903
245.13204
245.21739
245.0292
245.17933
245.78973
246.28718
246.24738
244.82629
244.85751
244.93303
244.92164
244.82675
244.94779
245.10489
245.20186
245.25089
244.97762
244.8688
245.13571
245.21939
245.03293
245.18669
245.79819
246.29229
246.24752
244.82609
244.85773
244.93384
244.91648
244.82375
244.95058
245.11052
245.2024
245.24203
244.97039
244.8689
245.1395
245.22146
245.03664
245.19405
245.80664
246.29734
246.24761
244.7334
244.82601
244.8581
244.93449
244.91144
244.82095
244.95362
245.11613
245.20254
245.23309
244.96336
244.86927
245.14342
245.2236
245.04036
245.2014
245.81509
246.30234
246.24766
244.66882
244.73629
244.82605
244.85861
244.93493
244.90653
244.81828
244.957
245.1217
245.20213
245.22406
244.95658
244.86984
245.14747
245.22581
245.04407
245.20874
245.82352
246.30729
244.67057
244.73927
244.82621
244.85923
244.93515
244.90168
244.81567
244.9608
245.1272
245.20123
245.21491
244.95004
244.87073
245.15164
245.22807
245.04778
245.21608
245.83194
246.31219
244.58909
244.67246
244.74231
244.82646
244.8599
244.9351
244.89681
244.81312
244.96508
245.13259
245.19991
245.20563
244.9438
244.87186
245.15593
245.23038
245.0515
245.22343
245.84034
246.31704
244.51049
244.5935
244.67455
244.74541
244.82682
244.86064
244.93475
244.89183
244.8107
244.96989
245.13779
245.19824
245.19618
244.93785
244.87323
245.16032
245.23274
245.05522
245.23077
245.84873
246.32184
244.43809
244.51417
244.59804
244.67687
244.74842
244.82711
244.86143
244.93409
244.88668
244.80852
244.97524
245.14272
245.1963
245.1866
244.93217
244.87486
245.16479
245.23515
245.05895
245.23811
245.8571
246.32658
244.43902
244.51806
244.60264
244.67942
244.75123
244.82726
244.86237
244.93309
244.88131
244.80675
244.98106
245.14728
245.19411
245.1769
244.92676
244.87675
245.16935
245.23759
245.06269
245.24544
245.86547
244.36607
244.44028
244.52213
244.60727
244.68209
244.75372
244.82741
244.8635
244.93174
244.87574
244.80546
244.98719
245.15142
245.1917
245.16713
244.92161
244.87891
245.17397
245.24008
245.06643
245.25277
245.87383
244.3033
244.36573
244.4418
244.52633
244.61186
244.68485
244.75588
244.82763
244.86492
244.93003
244.87001
244.80469
244.99347
245.15521
245.1891
245.15735
244.91671
244.88135
245.17867
245.2426
245.07018
245.26008
245.88217
244.22805
244.30253
244.36561
244.44359
244.53058
244.61636
244.68768
244.75793
244.82789
244.86666
244.92797
244.86415
244.80441
244.99976
245.1585
245.18629
245.14759
244.91206
244.88404
245.18342
245.24515
245.07393
245.26739
245.89049
244.09474
244.15964
244.22741
244.30184
244.36577
244.44558
244.53486
244.62081
244.69065
244.76001
244.82826
244.86864
244.92558
244.85825
244.80485
245.00596
245.16132
245.18327
245.13787
244.90767
244.88698
245.18823
245.24773
245.07769
245.2747
245.89876
244.01682
244.09618
244.1596
244.22684
244.30124
244.36625
244.44773
244.53914
244.62526
244.69382
244.7622
244.82871
244.87077
244.92284
244.85237
244.80562
245.01209
245.16376
245.18
245.12824
244.90356
244.89017
245.19311
245.25033
245.08145
245.28201
245.90698
243.95594
244.01873
244.09745
244.15969
244.22651
244.30075
244.3669
244.45001
244.54346
244.62974
244.69715
244.76442
244.82928
244.87288
244.91977
244.8466
244.80676
245.01821
245.1659
245.17642
245.1187
244.89974
244.89358
245.19805
245.25294
245.08523
245.28934
243.85092
243.90942
243.9564
244.02088
244.09856
244.15989
244.22647
244.30029
244.3677
244.45239
244.54777
244.63423
244.70053
244.76659
244.82995
244.87485
244.91647
244.841
244.80833
245.02445
245.16769
245.17246
245.10929
244.89623
244.89722
245.20304
245.25555
245.08902
245.29669
243.79816
243.85144
243.90974
243.95723
244.0232
244.09955
244.16
244.22664
244.29997
244.36859
244.45481
244.55206
244.63863
244.70388
244.76869
244.8307
244.87659
244.913
244.83559
244.81024
245.03092
245.16913
245.16808
245.10003
244.89305
244.90108
245.2081
245.25818
245.09284
245.30407
243.71751
243.75577
243.79741
243.85207
243.91008
243.95848
244.02571
244.10095
244.16041
244.22686
244.29974
244.36958
244.45724
244.55629
244.64299
244.70719
244.77078
244.83172
244.8781
244.90939
244.83037
244.81252
245.0377
245.17013
245.16321
245.09095
244.89018
244.90513
245.21321
245.26081
245.09669
245.31149
243.5914
243.6388
243.67997
243.71682
243.75441
243.7971
243.85286
243.91062
243.96039
244.02848
244.10239
244.16153
244.22744
244.29952
244.37079
244.45975
244.56054
244.6474
244.71055
244.77293
244.83297
244.87944
244.90563
244.82531
244.81523
245.04481
245.17065
245.15785
245.08207
244.88764
244.90938
245.21838
245.26343
245.10056
245.31896
243.48498
243.51416
243.55296
243.59622
243.64052
243.68032
243.71574
243.75322
243.79718
243.85403
243.91203
243.9627
244.03148
244.10386
244.16263
244.22856
244.29944
244.37208
244.46247
244.56492
244.65198
244.71404
244.77518
244.8343
244.88074
244.90168
244.82037
244.8184
245.05219
245.1707
245.15205
245.07341
244.88544
244.91381
245.22359
245.26606
245.10446
243.39502
243.43273
243.45192
243.48597
243.51832
243.55629
243.6008
243.64189
243.68043
243.71437
243.75217
243.79767
243.85623
243.9134
243.96529
244.0348
244.10568
244.16381
244.22972
244.29963
244.37352
244.46547
244.56953
244.65672
244.71761
244.77744
244.83556
244.88198
244.89752
244.81553
244.82207
245.05973
245.17005
245.14584
245.065
244.88357
244.91842
245.22884
245.26867
245.1084
243.25274
243.26982
243.31012
243.31938
243.34664
243.38668
243.39649
243.43364
243.45475
243.48655
243.52234
243.55932
243.60436
243.64287
243.68016
243.71277
243.75157
243.79914
243.85886
243.91554
243.9683
244.0383
244.10788
244.16537
244.23095
244.30002
244.37529
244.46864
244.5742
244.66146
244.72106
244.77963
244.83668
244.88303
244.89316
244.81082
244.82625
245.06732
245.16881
245.13933
245.05683
244.88202
244.92319
245.23412
245.27128
245.11235
243.06704
243.10003
243.10766
243.11793
243.15259
243.18183
243.18855
243.21013
243.24473
243.26297
243.27554
243.31327
243.32694
243.34681
243.39032
243.39783
243.43395
243.45772
243.48711
243.52615
243.56192
243.60691
243.64316
243.67972
243.71099
243.75153
243.80156
243.86194
243.9182
243.97179
244.04206
244.1102
244.16727
244.23243
244.30031
244.37744
244.47203
244.57875
244.66603
244.72429
244.78167
244.83774
244.88364
244.88867
244.80634
244.83093
245.07482
245.16705
245.13261
245.04889
244.88083
244.92811
245.23943
245.27387
245.11633
244.55748
244.55765
244.55803
244.55867
244.5596
244.56084
244.56233
244.564
244.56576
244.56757
244.56943
244.57132
244.57325
244.57523
244.57725
244.57933
244.58146
244.58367
244.58595
244.58831
244.59075
244.59327
244.59589
244.59859
244.60139
244.60428
244.60727
244.61034
244.6135
244.61673
244.62002
244.62336
244.62672
244.63008
244.6334
244.63664
244.63974
244.64262
244.64521
244.64741
244.64909
244.65013
244.65036
244.64963
244.64772
244.64439
244.63931
244.63198
244.62163
244.60693
244.58559
244.55327
244.50035
244.39568
244.09969
243.30613
242.9577
242.91526
242.92448
242.92689
242.92635
242.93911
242.96826
242.99125
242.99129
242.9936
243.01532
243.04504
243.05173
243.0552
243.07871
243.1133
243.12318
243.13024
243.16234
243.19388
243.19954
243.21805
243.25166
243.2709
243.28085
243.31438
243.33392
243.34734
243.39182
243.39998
243.43394
243.46066
243.48736
243.52999
243.56393
243.60849
243.64267
243.67867
243.70939
243.75198
243.8046
243.86555
243.92124
243.9758
244.04615
244.11267
244.16918
244.2343
244.30083
244.37966
244.47577
244.58315
244.67039
244.72732
244.78364
244.83887
244.88382
244.8842
244.80219
244.83611
245.08214
245.16487
245.12577
245.04117
244.87999
244.93318
245.24477
245.27645
245.12031
244.55738
244.55751
244.55781
244.55833
244.5591
244.56015
244.56144
244.5629
244.56448
244.56613
244.56783
244.5696
244.57141
244.57328
244.57521
244.5772
244.57926
244.5814
244.58361
244.5859
244.58828
244.59074
244.59329
244.59593
244.59866
244.60147
244.60436
244.60733
244.61037
244.61348
244.61662
244.6198
244.62298
244.62614
244.62924
244.63222
244.63505
244.63763
244.63989
244.64173
244.64303
244.64365
244.64345
244.64224
244.63984
244.63599
244.63036
244.62244
244.61143
244.59599
244.57377
244.54032
244.48582
244.37827
244.07311
243.28563
242.95672
242.92459
242.93909
242.94515
242.942
242.94937
242.9763
243.00346
243.0055
243.00428
243.0232
243.05658
243.06838
243.0693
243.09003
243.12517
243.13715
243.14121
243.16968
243.20339
243.20901
243.22381
243.25651
243.27604
243.28476
243.31447
243.33953
243.34904
243.39205
243.40315
243.43187
243.46431
243.4874
243.53338
243.56557
243.60892
243.6421
243.67665
243.70858
243.75345
243.80817
243.86947
243.92472
243.98019
244.05037
244.11535
244.17114
244.23624
244.30214
244.38214
244.47975
244.58759
244.6746
244.73023
244.78563
244.84014
244.88353
244.87983
244.79849
244.84176
245.08916
245.16237
245.11889
245.03365
244.87946
244.93839
245.25013
245.27901
244.55541
244.55553
244.5558
244.55628
244.557
244.558
244.55924
244.56066
244.5622
244.56382
244.56551
244.56725
244.56905
244.5709
244.57282
244.5748
244.57684
244.57895
244.58114
244.58341
244.58575
244.58817
244.59067
244.59325
244.59591
244.59865
244.60146
244.60434
244.60728
244.61026
244.61328
244.61631
244.61934
244.62231
244.62521
244.62798
244.63055
244.63287
244.63483
244.63634
244.63729
244.63752
244.63691
244.63528
244.63242
244.62809
244.62195
244.61348
244.60186
244.58574
244.56269
244.52817
244.4721
244.36134
244.04575
243.26721
242.95903
242.93315
242.9507
242.9605
242.95597
242.95899
242.98274
243.01401
243.02185
243.01913
243.03354
243.06712
243.08426
243.0818
243.0982
243.13425
243.14963
243.15122
243.17565
243.21115
243.21743
243.22794
243.25953
243.27943
243.2881
243.31406
243.34286
243.35021
243.3904
243.40738
243.42801
243.46858
243.48855
243.53541
243.56728
243.60846
243.64127
243.67389
243.70842
243.75608
243.81236
243.87352
243.92848
243.98492
244.05476
244.11811
244.17335
244.23819
244.30377
244.38521
244.48397
244.59211
244.67876
244.73309
244.78771
244.84162
244.88291
244.87549
244.79531
244.8478
245.09579
245.15961
245.11203
245.02635
244.87922
244.94373
245.25552
245.28155
244.55343
244.55355
244.55382
244.5543
244.55504
244.55604
244.55729
244.55872
244.56027
244.5619
244.56359
244.56533
244.56712
244.56897
244.57087
244.57283
244.57486
244.57695
244.57911
244.58134
244.58364
244.58602
244.58847
244.59099
244.59359
244.59626
244.59899
244.60178
244.60461
244.60749
244.61038
244.61328
244.61614
244.61895
244.62166
244.62422
244.62657
244.62864
244.63033
244.63156
244.63219
244.63211
244.63115
244.62915
244.6259
244.62117
244.61459
244.60565
244.59352
244.57679
244.553
244.51749
244.45997
244.34623
244.02091
243.25293
242.96242
242.9392
242.95849
242.97229
242.96966
242.9716
242.99262
243.02558
243.03909
243.03489
243.04308
243.0744
243.0972
243.09343
243.10456
243.14087
243.16127
243.16009
243.18009
243.21605
243.22437
243.23101
243.26108
243.28222
243.29079
243.31326
243.34421
243.35127
243.38703
243.41179
243.42559
243.4717
243.49057
243.53612
243.56872
243.60712
243.63984
243.67133
243.70876
243.75948
243.81715
243.87767
243.93242
243.98978
244.05921
244.12084
244.17558
244.24048
244.30561
244.38884
244.48853
244.59651
244.68284
244.73586
244.78984
244.84331
244.88213
244.87094
244.79267
244.85411
245.10195
245.15666
245.10519
245.01931
244.87914
244.9492
245.26093
245.28407
244.55183
244.55196
244.55225
244.55275
244.55351
244.55454
244.55582
244.55728
244.55884
244.56047
244.56216
244.5639
244.56569
244.56752
244.56941
244.57135
244.57335
244.57541
244.57754
244.57973
244.58199
244.58432
244.58671
244.58918
244.59171
244.5943
244.59695
244.59965
244.60239
244.60516
244.60794
244.61071
244.61344
244.61609
244.61863
244.62101
244.62316
244.62501
244.62646
244.62742
244.62777
244.62738
244.62609
244.62374
244.62013
244.615
244.60799
244.59859
244.58591
244.56854
244.54397
244.50748
244.44857
244.33218
243.99823
243.2412
242.96689
242.9459
242.96609
242.98394
242.98492
242.98727
243.00503
243.03562
243.05192
243.04746
243.05123
243.07994
243.1083
243.10633
243.11168
243.14546
243.17177
243.16782
243.18262
243.2178
243.22954
243.23321
243.26142
243.28435
243.29182
243.31232
243.34453
243.35431
243.38408
243.41445
243.42474
243.47305
243.49218
243.53619
243.56974
243.60523
243.63841
243.66944
243.71061
243.76334
243.8221
243.88189
243.93646
243.99462
244.06348
244.12358
244.1778
244.24292
244.30793
244.39261
244.49339
244.60075
244.68668
244.73856
244.79197
244.84514
244.88128
244.86596
244.79057
244.8606
245.10759
245.15353
245.09839
245.0126
244.8793
244.95478
245.26636
245.28657
244.55058
244.55071
244.55101
244.55152
244.55231
244.55337
244.55468
244.55616
244.55775
244.55941
244.56111
244.56286
244.56466
244.56649
244.56837
244.5703
244.57229
244.57433
244.57643
244.57859
244.58082
244.58311
244.58546
244.58787
244.59034
244.59287
244.59545
244.59807
244.60072
244.60339
244.60606
244.60871
244.61131
244.61382
244.6162
244.61839
244.62035
244.62198
244.6232
244.62391
244.62399
244.62331
244.62171
244.61902
244.61506
244.60954
244.60212
244.59226
244.57907
244.56112
244.53583
244.49837
244.43798
244.31861
243.97491
243.23098
242.9754
242.95655
242.97543
242.99488
242.99793
242.99994
243.0146
243.04263
243.06089
243.05842
243.06055
243.08614
243.11804
243.11954
243.11962
243.1478
243.1792
243.17482
243.18408
243.21818
243.23379
243.2348
243.26095
243.2855
243.29162
243.31191
243.34425
243.35773
243.38118
243.41541
243.42458
243.47315
243.49461
243.53583
243.57101
243.6024
243.63751
243.66855
243.71377
243.7675
243.82713
243.88611
243.94052
243.99937
244.06746
244.12613
244.18023
244.24545
244.31092
244.39662
244.49827
244.60505
244.69023
244.74117
244.7941
244.84707
244.88031
244.86061
244.78881
244.86719
245.1128
245.15018
245.09158
245.00624
244.87961
244.96047
245.27179
245.28906
244.54954
244.54968
244.55001
244.55057
244.5514
244.55252
244.55388
244.55541
244.55703
244.55871
244.56044
244.5622
244.564
244.56585
244.56773
244.56967
244.57165
244.5737
244.57579
244.57795
244.58017
244.58245
244.58478
244.58718
244.58963
244.59212
244.59466
244.59723
244.59982
244.60241
244.60499
244.60753
244.61002
244.6124
244.61464
244.61669
244.61847
244.61991
244.62093
244.62141
244.62124
244.62029
244.6184
244.6154
244.61109
244.60521
244.59739
244.58709
244.57341
244.55486
244.52883
244.49036
244.42842
244.306
243.95215
243.22438
242.98692
242.96855
242.98438
243.0026
243.00678
243.00907
243.02274
243.05
243.0704
243.06987
243.07091
243.09241
243.12534
243.13076
243.12681
243.1485
243.18293
243.18188
243.18544
243.21839
243.23741
243.23581
243.25962
243.28604
243.29149
243.31161
243.34253
243.35947
243.37815
243.41572
243.4256
243.47139
243.49922
243.53387
243.57223
243.59964
243.63688
243.66847
243.71744
243.7717
243.83232
243.89037
243.94461
244.00398
244.07131
244.1285
244.18272
244.24837
244.31428
244.40124
244.50316
244.60943
244.69375
244.74374
244.79628
244.84899
244.87914
244.85508
244.78754
244.87389
245.11739
245.1466
245.08474
245.00026
244.88009
244.96627
245.27724
244.54896
244.54911
244.54944
244.55001
244.55085
244.55199
244.55337
244.55492
244.55656
244.55827
244.56002
244.5618
244.56362
244.56548
244.56739
244.56933
244.57133
244.57339
244.57549
244.57766
244.57988
244.58216
244.5845
244.5869
244.58934
244.59183
244.59436
244.59691
244.59948
244.60204
244.60458
244.60706
244.60946
244.61173
244.61384
244.61574
244.61736
244.61861
244.61942
244.61966
244.61923
244.61799
244.61578
244.61244
244.60776
244.60148
244.59323
244.58244
244.56822
244.54904
244.52225
244.48281
244.41947
244.29417
243.92937
243.21795
242.99765
242.98025
242.99301
243.00888
243.01444
243.01821
243.03241
243.05928
243.08048
243.07984
243.07906
243.09689
243.12996
243.13982
243.13361
243.14937
243.18452
243.18933
243.1866
243.21746
243.23982
243.23641
243.25748
243.28647
243.29227
243.31023
243.3408
243.36031
243.37605
243.41575
243.42885
243.46733
243.50378
243.53044
243.57286
243.59748
243.63657
243.67003
243.72165
243.77601
243.83766
243.89469
243.94882
244.00838
244.07492
244.13088
244.18526
244.2516
244.31809
244.4064
244.50832
244.61376
244.69733
244.74627
244.79846
244.85086
244.8777
244.84956
244.78675
244.88073
245.12157
245.14275
245.07784
244.99468
244.88078
244.97215
245.28267
244.54886
244.54902
244.54938
244.54998
244.55087
244.55206
244.55349
244.55509
244.55677
244.55851
244.56029
244.5621
244.56395
244.56584
244.56776
244.56973
244.57175
244.57381
244.57593
244.5781
244.58032
244.58259
244.58492
244.58728
244.5897
244.59214
244.59462
244.59711
244.59961
244.60209
244.60455
244.60694
244.60925
244.61141
244.61339
244.61512
244.61655
244.6176
244.61816
244.61814
244.61741
244.61584
244.61328
244.60955
244.60444
244.5977
244.58894
244.5776
244.56274
244.54282
244.51514
244.47457
244.40961
244.28087
243.90333
243.20952
243.00712
242.99297
243.0043
243.01808
243.02369
243.02777
243.04099
243.06624
243.08755
243.08714
243.08486
243.10004
243.13298
243.1476
243.1407
243.1517
243.18512
243.19536
243.18748
243.21312
243.24124
243.23708
243.25424
243.28653
243.29268
243.30764
243.34011
243.36072
243.37538
243.4147
243.43166
243.46424
243.5067
243.52766
243.57327
243.59601
243.637
243.6734
243.726
243.78087
243.84312
243.899
243.9531
244.01279
244.07832
244.13327
244.1881
244.25494
244.32246
244.41181
244.51378
244.61796
244.70082
244.74878
244.80055
244.85256
244.87602
244.84412
244.78636
244.88776
245.12535
245.13865
245.07088
244.98956
244.88167
244.97812
245.2881
244.54961
244.54977
244.55013
244.55074
244.55165
244.55286
244.55432
244.55595
244.55768
244.55946
244.56127
244.56312
244.56499
244.5669
244.56884
244.57082
244.57284
244.5749
244.57701
244.57917
244.58137
244.58362
244.58591
244.58824
244.5906
244.59299
244.59541
244.59783
244.60024
244.60263
244.60497
244.60723
244.60939
244.61141
244.61323
244.61479
244.61601
244.61682
244.61713
244.61682
244.61578
244.61386
244.61092
244.60677
244.60122
244.594
244.58471
244.57278
244.55725
244.53656
244.50792
244.46605
244.39914
244.26659
243.87556
243.19929
243.01466
243.00519
243.01711
243.0295
243.03273
243.03503
243.04622
243.07011
243.09232
243.09384
243.09064
243.10328
243.13498
243.15345
243.14641
243.15254