/*--------------------------------*- C++ -*----------------------------------*\
| =========                 |                                                 |
| \\      /  F ield         | OpenFOAM: The Open Source CFD Toolbox           |
|  \\    /   O peration     | Version:  2506                                  |
|   \\  /    A nd           | Website:  www.openfoam.com                      |
|    \\/     M anipulation  |                                                 |
\*---------------------------------------------------------------------------*/
FoamFile
{
    version     2.0;
    format      ascii;
    arch        "LSB;label=32;scalar=64";
    class       surfaceScalarField;
    location    "2.7";
    object      phi;
}
// * * * * * * * * * * * * * * * * * * * * * * * * * * * * * * * * * * * * * //

dimensions      [1 0 -1 0 0 0 0];

oriented        oriented;

internalField   nonuniform List<scalar> 
38210
(
5.611934
-51.637997
52.075345
5.2271969
-47.811192
48.192548
4.8520961
-44.273343
44.648282
4.5048356
-40.998145
41.345183
4.1830394
-37.968569
38.290173
3.8863949
-35.158915
35.455402
3.6107813
-32.556372
32.831967
3.3553664
-30.14685
30.402089
3.1167875
-27.915666
28.154051
2.8913062
-25.850555
26.076032
2.6872905
-23.939836
24.144444
2.5038635
-22.174213
22.35705
2.3307051
-20.534175
20.706775
2.1688869
-19.014687
19.176729
2.0202199
-17.611847
17.760963
1.8800687
-16.311398
16.451458
1.7514725
-15.109576
15.238399
1.6314349
-13.996347
14.116294
1.5188276
-12.964034
13.07585
1.4148803
-12.01
12.113909
1.3183874
-11.125708
11.22264
1.2287342
-10.308366
10.398096
1.1448972
-9.551543
9.6352398
1.0680088
-8.8514651
8.9283943
0.99612022
-8.2001992
8.2720448
0.92929055
-7.5997203
7.6665703
0.86628197
-7.0429709
7.1060637
0.80730096
-6.5286685
6.5874943
0.75222912
-6.0518914
6.1067234
0.70060072
-5.609338
5.6612009
0.65180428
-5.1996107
5.2482848
0.60625505
-4.8209359
4.8668444
0.56326994
-4.4702733
4.513587
0.52169114
-4.145047
4.1867117
0.48365549
-3.8437071
3.8813339
0.44661608
-3.5648992
3.6013233
0.41911741
-3.3080252
3.3358315
0.38617467
-3.0661268
3.0995463
0.35041674
-2.8427978
2.8786406
0.31386955
-2.6395217
2.675628
0.26861592
-2.4450184
2.4907335
0.23142009
-2.2772733
2.3152768
0.18303796
-2.1218576
2.170199
0.1559112
-1.9826773
2.0111274
0.094281953
-1.8240302
1.8874157
0.067223199
-1.7115467
1.7388266
0.015677428
-1.6417419
1.6937414
-0.01861841
-1.5243027
1.5618941
-1.5214392
1.5011996
6.9181931
-51.098215
6.4126968
-47.304119
5.9439001
-43.803218
5.5118229
-40.566273
5.1092455
-37.566543
4.7376696
-34.787641
4.3935835
-32.212455
4.0776687
-29.831022
3.7834059
-27.621493
3.5118072
-25.578837
3.2576102
-23.684812
3.0194353
-21.935643
2.7999668
-20.315377
2.5990252
-18.813244
2.4125724
-17.424888
2.2404292
-16.139243
2.0803263
-14.94927
1.9325017
-13.848233
1.7934927
-12.825702
1.664173
-11.880733
1.5451172
-11.006114
1.4349266
-10.197966
1.3315405
-9.44842
1.2352349
-8.7551181
1.1461942
-8.1111869
1.0629849
-7.5166049
0.98599524
-6.9658377
0.91392497
-6.456786
0.84634913
-5.9846243
0.78363578
-5.5464261
0.72468143
-5.1407898
0.66955613
-4.765648
0.61775476
-4.4180081
0.56927219
-4.0962751
0.52155202
-3.7964369
0.47511897
-3.5191164
0.42787022
-3.2607993
0.38774552
-3.0255431
0.3511156
-2.8057567
0.31405798
-2.6032914
0.28287276
-2.4137384
0.24629151
-2.240163
0.1967692
-2.0704393
0.15123142
-1.9369841
0.13989747
-1.8125083
0.11611381
-1.6896401
0.05587296
-1.5891208
0.013489712
-1.4866817
-1.5066843
8.4433616
-50.421399
7.8302191
-46.690486
7.2587108
-43.232112
6.7254628
-40.033792
6.2295597
-37.070832
5.7687598
-34.327223
5.344763
-31.78827
4.9540379
-29.440272
4.5904863
-27.257508
4.2531259
-25.241828
3.9439344
-23.375186
3.6548854
-21.646386
3.3833364
-20.044871
3.1349721
-18.56427
2.904089
-17.193671
2.6900968
-15.925172
2.4916418
-14.750534
2.3093975
-13.665305
2.1394801
-12.656258
1.981131
-11.722556
1.8347739
-10.859347
1.6987645
-10.061593
1.5725818
-9.3226059
1.4548217
-8.6373865
1.3461397
-8.0025395
1.2442786
-7.414881
1.1497662
-6.871205
1.0615835
-6.3688515
0.97943485
-5.9027392
0.90337935
-5.4702734
0.83235354
-5.0698361
0.76537723
-4.6987786
0.70365205
-4.3558858
0.64502602
-4.037225
0.59140508
-3.7431356
0.5409037
-3.4693731
0.49610225
-3.216364
0.4501948
-2.9791722
0.40669473
-2.7617757
0.36300183
-2.5603666
0.32287044
-2.3742642
0.28331088
-2.2006983
0.26706638
-2.0543873
0.23004256
-1.8995622
0.18025416
-1.7626528
0.14248764
-1.6537221
0.13765575
-1.600467
0.10568797
-1.4517216
-1.3885914
10.288638
-49.597432
9.5302554
-45.93282
8.8267336
-42.529488
8.1712169
-39.379197
7.5653561
-36.464799
7.002802
-33.764943
6.4818245
-31.267277
5.9965131
-28.955259
5.552637
-26.812961
5.1395484
-24.828445
4.7572093
-22.992389
4.4059224
-21.294742
4.0760351
-19.71545
3.7704728
-18.258846
3.4881146
-16.911342
3.2262749
-15.663251
2.9829462
-14.506863
2.757265
-13.439018
2.5498117
-12.449106
2.3565237
-11.529536
2.1772408
-10.680037
2.0109842
-9.8947805
1.8560692
-9.1680407
1.7122534
-8.4936346
1.5791217
-7.8695229
1.4550162
-7.2907418
1.3394409
-6.7557014
1.2326517
-6.2620424
1.1333851
-5.8037168
1.0408892
-5.3779149
0.95439998
-4.983448
0.87403531
-4.6186428
0.79913609
-4.2805671
0.73050194
-3.9680917
0.6636745
-3.6763563
0.6012303
-3.4075347
0.54153791
-3.1571906
0.48789585
-2.9251474
0.43720376
-2.7104909
0.38931199
-2.5130296
0.34161207
-2.3273913
0.29645624
-2.1557273
0.24271174
-2.0002273
0.19839277
-1.854438
0.15523327
-1.7184414
0.11430685
-1.6111837
0.0074051074
-1.4815236
-0.03094024
-1.4117822
-1.4257712
12.464469
-48.599202
11.536657
-45.004091
10.67682
-41.670567
9.8790717
-38.581508
9.1406735
-35.725885
8.4564309
-33.080797
7.8217283
-30.632819
7.2329916
-28.366776
6.6895678
-26.269304
6.1883952
-24.327012
5.7233109
-22.526583
5.2924712
-20.863229
4.8952502
-19.318426
4.523961
-17.888161
4.179052
-16.566262
3.8596966
-15.343878
3.5656781
-14.21273
3.2910125
-13.163908
3.0376065
-12.195704
2.8023351
-11.294713
2.5835564
-10.461592
2.3817787
-9.692351
2.1935512
-8.9798986
2.0193892
-8.3197145
1.8580635
-7.7082285
1.7088932
-7.1413825
1.5691881
-6.6159239
1.4389576
-6.1317991
1.3183118
-5.6833739
1.2070202
-5.2666814
1.1035612
-4.8800912
1.0067921
-4.5221839
0.91710681
-4.1905842
0.8331592
-3.8836464
0.756258
-3.599263
0.68321493
-3.3349874
0.61542799
-3.0899232
0.55329886
-2.86289
0.49552925
-2.6520095
0.43818809
-2.4558782
0.38536128
-2.2754546
0.33717651
-2.1081221
0.28677194
-1.9496423
0.23807762
-1.8055587
0.19776844
-1.6777565
0.14544594
-1.5587662
0.14056154
-1.4736064
0.093526508
-1.369166
-1.3364804
15.004853
-47.39283
13.87993
-43.879789
12.837206
-40.628551
11.874883
-37.618106
10.981608
-34.831839
10.153021
-32.252328
9.3879532
-29.868191
8.6792263
-27.658561
8.0225921
-25.612632
7.4119124
-23.716011
6.8503637
-21.964589
6.328477
-20.340837
5.8459206
-18.835983
5.4002009
-17.442807
4.9868373
-16.15274
4.6033389
-14.960301
4.2481377
-13.857618
3.9168113
-12.832051
3.6097356
-11.888695
3.326075
-11.011435
3.061344
-10.197301
2.8170434
-9.447602
2.5912283
-8.7539381
2.3809674
-8.1096945
2.1859198
-7.5130065
2.0053108
-6.9606402
1.8385955
-6.4491139
1.6829968
-5.9762156
1.5382252
-5.5385727
1.4041137
-5.132547
1.2796227
-4.7557276
1.1634418
-4.4064297
1.0564112
-4.0834871
0.95656323
-3.7833044
0.86403178
-3.506422
0.77717275
-3.2484239
0.695458
-3.0087977
0.61976135
-2.7873502
0.54969856
-2.5811302
0.48449036
-2.3905124
0.4227117
-2.21449
0.36176655
-2.0478114
0.31357554
-1.9015801
0.26355542
-1.7553161
0.21535242
-1.6294308
0.16590727
-1.5093942
0.068593232
-1.3758906
0.013221446
-1.3155218
-1.3241772
17.916842
-45.934121
16.571828
-42.534756
15.328383
-39.385872
14.176705
-36.465128
13.107185
-33.761713
12.11181
-31.256852
11.195198
-28.952173
10.346877
-26.810667
9.5604653
-24.826248
8.8336536
-22.988838
8.1576563
-21.288482
7.5325038
-19.715137
6.9541548
-18.257952
6.4157926
-16.904932
5.9190756
-15.656029
5.4582304
-14.49899
5.0304884
-13.429834
4.6361999
-12.437303
4.2700666
-11.522256
3.9310124
-10.67259
3.6161961
-9.8830268
3.3235785
-9.1546911
3.0525754
-8.4827057
2.8015643
-7.8589065
2.5691894
-7.2803956
2.3532131
-6.7446194
2.1532791
-6.2490891
1.9676858
-5.7905152
1.7949163
-5.3657965
1.6349264
-4.9724171
1.4867035
-4.6075365
1.3488714
-4.2690745
1.2205779
-3.9553411
1.1026832
-3.6650209
0.99223293
-3.3955627
0.88971544
-3.1459895
0.79503598
-2.9147346
0.70607761
-2.6987398
0.62466635
-2.4990002
0.54930085
-2.3146694
0.47684955
-2.1425471
0.41164886
-1.9833457
0.33894988
-1.8289237
0.27669569
-1.6928731
0.21436043
-1.5669212
0.15568493
-1.4507072
0.13639353
-1.3569017
0.087120633
-1.2664859
-1.236722
21.257735
-44.218203
19.656444
-40.933191
18.166879
-37.896012
16.794141
-35.091385
15.530109
-32.496886
14.341446
-30.068988
13.248008
-27.859438
12.237543
-25.799956
11.30462
-23.893483
10.438826
-22.122567
9.6370831
-20.486583
8.8968475
-18.974398
8.2112302
-17.572139
7.5728604
-16.267395
6.9790086
-15.062777
6.435001
-13.954461
5.9296325
-12.924477
5.4607316
-11.968075
5.024388
-11.085229
4.6204976
-10.268927
4.2480965
-9.511029
3.9020357
-8.8083091
3.580374
-8.1608273
3.2821445
-7.5609948
3.0067812
-7.0048071
2.7513845
-6.4892324
2.5138557
-6.0115131
2.2934421
-5.5699715
2.0891505
-5.1615975
1.9000323
-4.7830442
1.7246643
-4.4319618
1.5615534
-4.106381
1.4102801
-3.8043725
1.2703674
-3.5249088
1.1405913
-3.2653485
1.0200756
-3.0254509
0.90712104
-2.8022766
0.80277369
-2.5949171
0.70681394
-2.402649
0.61686538
-2.2239016
0.53362463
-2.0594285
0.45240359
-1.9027168
0.38770659
-1.7646013
0.32556482
-1.6307036
0.26348409
-1.5049405
0.20277852
-1.3901068
0.11553378
-1.2697927
0.050921736
-1.2016577
-1.1852532
24.954648
-42.174041
23.075801
-39.053977
21.335744
-36.155595
19.716244
-33.471288
18.235761
-31.016199
16.852039
-28.685054
15.564291
-26.571877
14.370759
-24.605543
13.267628
-22.790494
12.247863
-21.102631
11.301383
-19.540267
10.426158
-18.098862
9.618353
-16.763706
8.8733735
-15.522965
8.1783599
-14.368493
7.5325855
-13.308368
6.935507
-12.327356
6.3843548
-11.41682
5.8735015
-10.573678
5.3978135
-9.7934865
4.9579467
-9.0713953
4.5519939
-8.4019831
4.1743194
-7.7830678
3.8234112
-7.2105177
3.4987393
-6.6799813
3.1981835
-6.1885886
2.9200195
-5.733438
2.6620401
-5.3119094
2.4220736
-4.921792
2.1998208
-4.5605819
1.9942511
-4.2259448
1.8030319
-3.9154205
1.6260197
-3.627768
1.4614247
-3.3602891
1.3098354
-3.1134348
1.1687227
-2.8842103
1.0371839
-2.6710537
0.91541642
-2.47379
0.80276357
-2.2899997
0.69935344
-2.1196269
0.60082007
-1.9607002
0.51449497
-1.8168532
0.42343889
-1.6739238
0.34104184
-1.5481945
0.26623111
-1.430033
0.19266649
-1.3164913
0.14657804
-1.2238977
0.087000397
-1.1417914
-1.09778
29.056918
-39.806024
26.861482
-36.857805
24.826151
-34.119749
22.942149
-31.586369
21.194332
-29.267068
19.58678
-27.076072
18.089538
-25.074646
16.703843
-23.21924
15.418686
-21.505104
14.231844
-19.915828
13.130923
-18.439843
12.110396
-17.078184
11.166762
-15.819668
10.294131
-14.650719
9.4878622
-13.562138
8.7391016
-12.559354
8.0450619
-11.633396
7.4018641
-10.773859
6.8067688
-9.9779738
6.2547291
-9.2416849
5.742133
-8.5591882
5.2674754
-7.9271624
4.8279026
-7.3432768
4.4201244
-6.8031873
4.0429183
-6.3026754
3.693447
-5.838802
3.3689081
-5.4091108
3.0684277
-5.0113983
2.7897231
-4.6432853
2.531495
-4.3023361
2.2926364
-3.986492
2.0707979
-3.6936101
1.8645591
-3.4219516
1.6742375
-3.1700826
1.497469
-2.9364895
1.3336693
-2.7201974
1.1822111
-2.5197425
1.041265
-2.3333996
0.91047844
-2.1595791
0.78955171
-1.9981623
0.67881234
-1.8495321
0.57241174
-1.7107474
0.47998628
-1.5817169
0.39265844
-1.4609542
0.30984157
-1.3470111
0.23341205
-1.2400874
0.15035592
-1.1408382
0.071494404
-1.0625837
-1.0259118
33.448505
-37.072646
30.914988
-34.323785
28.575265
-31.779109
26.405531
-29.414753
24.392925
-27.252838
22.537559
-25.21925
20.812436
-23.349025
19.217404
-21.623792
17.738831
-20.026044
16.368886
-18.545971
15.102707
-17.173876
13.926545
-15.902292
12.837368
-14.730773
11.831239
-13.645059
10.903342
-12.6341
10.039761
-11.695738
9.2383975
-10.832239
8.4968593
-10.032639
7.8110743
-9.2915421
7.1747643
-8.6054458
6.5852766
-7.9702497
6.039815
-7.3816875
5.5340348
-6.8371453
5.0644249
-6.3338907
4.6299823
-5.8680569
4.2281715
-5.4363582
3.8551256
-5.0362613
3.50933
-4.665676
3.1884705
-4.3226711
2.8910214
-4.0051241
2.6160615
-3.710938
2.3612202
-3.4385229
2.1243617
-3.1854403
1.9051447
-2.9510833
1.7021271
-2.7334147
1.5140183
-2.5318556
1.3397712
-2.3454917
1.1776796
-2.1716007
1.0280276
-2.0104471
0.89006646
-1.8600611
0.76216389
-1.7211664
0.64257186
-1.5911389
0.53231212
-1.4716732
0.42543389
-1.3540903
0.33087953
-1.2523788
0.24444952
-1.1534932
0.16648276
-1.0625548
0.087887134
-0.98373325
-0.93775318
38.073525
-33.961798
35.190872
-31.441304
32.521246
-29.109402
30.051132
-26.943148
27.75851
-24.959535
25.642655
-23.103459
23.677479
-21.383881
21.858983
-19.805417
20.175091
-18.342085
18.614341
-16.985891
17.171229
-15.730856
15.836312
-14.567377
14.598149
-13.49261
13.449101
-12.496455
12.387375
-11.572783
11.406385
-10.714584
10.495964
-9.9216121
9.6519214
-9.188837
8.870728
-8.5098261
8.1463479
-7.8809517
7.4743747
-7.2988513
6.8526458
-6.7600579
6.2773614
-6.2614779
5.7432998
-5.8001406
5.2484627
-5.3731825
4.7908219
-4.9779096
4.3662989
-4.6117822
3.9729807
-4.2725225
3.6083215
-3.9583247
3.2701125
-3.6673918
2.9575233
-3.3979193
2.6677765
-3.1482578
2.3990559
-2.9169251
2.1494365
-2.7017408
1.9188318
-2.5028826
1.7054571
-2.3182795
1.5069086
-2.1468662
1.3233903
-1.9881487
1.1533608
-1.8408282
0.99626648
-1.703165
0.85064675
-1.5752692
0.71622835
-1.4565593
0.59022739
-1.345841
0.4811122
-1.2449393
0.3724866
-1.1437313
0.26981444
-1.0505814
0.17685265
-0.96957312
0.089412118
-0.89609863
-0.84811785
42.789811
-30.45787
39.546648
-28.198069
36.542432
-26.103773
33.765606
-24.165081
31.19011
-22.38461
28.806699
-20.72168
26.600281
-19.179037
24.556285
-17.762202
22.664097
-16.449789
20.910504
-15.233115
19.286134
-14.106719
17.78327
-13.064059
16.39097
-12.100032
15.101664
-11.207144
13.907299
-10.378701
12.802706
-9.609543
11.779066
-8.8976891
10.82994
-8.2399588
9.9517454
-7.6311882
9.1384478
-7.0672903
8.3840742
-6.5450209
7.6851054
-6.0614364
7.038012
-5.6140697
6.4378992
-5.2004246
5.8820692
-4.8176477
5.368149
-4.4631931
4.8913689
-4.134863
4.4493434
-3.8306704
4.0396211
-3.5489231
3.6596513
-3.2880113
3.3082052
-3.0462852
2.9830747
-2.8224239
2.6810323
-2.6148808
2.4013824
-2.4223958
2.1418707
-2.243592
1.901801
-2.0780839
1.6798964
-1.924853
1.4742807
-1.7824848
1.2833618
-1.650057
1.1065396
-1.5266807
0.94312142
-1.4118561
0.79232501
-1.305652
0.65359598
-1.2071546
0.52170451
-1.1130357
0.4029625
-1.0248299
0.29935676
-0.94692874
0.19678795
-0.8669057
0.097198836
-0.79631392
-0.75075045
47.455898
-26.572488
43.859719
-24.600741
40.527068
-22.771075
37.443443
-21.080918
34.585279
-19.526595
31.940964
-18.078329
29.495684
-16.735181
27.225819
-15.492859
25.126075
-14.34942
23.180489
-13.287946
21.378415
-12.30494
19.710575
-11.395761
18.166166
-10.554847
16.73581
-9.7761865
15.410948
-9.0538252
14.1852
-8.3832732
13.04978
-7.7619808
11.997422
-7.1876742
11.023001
-6.6562943
10.120292
-6.1640961
9.2831681
-5.7083766
8.5078214
-5.2866292
7.7904178
-4.8964432
7.1251822
-4.5355393
6.5085915
-4.2015945
5.9386596
-3.8924806
5.4103657
-3.6062083
4.9205159
-3.3409311
4.4664392
-3.0951341
4.0453738
-2.8675323
3.6556805
-2.6566337
3.2953214
-2.4613283
2.9610525
-2.2803714
2.6508059
-2.1124335
2.3635684
-1.9567066
2.0978185
-1.8123385
1.8513894
-1.678321
1.6231293
-1.5541657
1.4120337
-1.4388611
1.2170701
-1.3319425
1.0366699
-1.2316461
0.86985584
-1.138825
0.71381234
-1.0511296
0.5720847
-0.97134068
0.44209291
-0.89471451
0.31568769
-0.82041946
0.2046418
-0.75563939
0.10249615
-0.69402245
-0.64810226
51.881631
-22.321306
47.946776
-20.664542
44.30349
-19.129002
40.93232
-17.709011
37.807439
-16.400992
34.914405
-15.185593
32.235785
-14.056465
29.754828
-13.012105
27.459395
-12.053533
25.333457
-11.162076
23.364752
-10.336361
21.54139
-9.5721904
19.852579
-8.8653434
18.288312
-8.211222
16.839072
-7.6046982
15.497688
-7.0418066
14.255668
-6.5198697
13.10477
-6.0368879
12.039068
-5.5901894
11.052149
-5.17674
10.137231
-4.7939616
9.2896234
-4.4396824
8.5053087
-4.1119756
7.7784661
-3.8088939
7.104592
-3.5284022
6.4815791
-3.2687324
5.9042993
-3.0283245
5.368925
-2.8055655
4.8726752
-2.5991552
4.4125653
-2.4079832
3.9865786
-2.2308708
3.592672
-2.0667864
3.2275907
-1.9148418
2.8888951
-1.7739434
2.5748455
-1.6430993
2.2842316
-1.5218497
2.0154542
-1.4094558
1.7664424
-1.3051543
1.536008
-1.2082394
1.3221466
-1.118114
1.124548
-1.0342846
0.94174703
-0.95609329
0.77408989
-0.88349349
0.61749473
-0.81483004
0.47357922
-0.75077804
0.3450331
-0.69175298
0.22314697
-0.63365302
0.10869879
-0.5794197
-0.53928608
55.875357
-17.741268
51.636512
-16.424857
47.710984
-15.204784
44.077284
-14.075487
40.714525
-13.037791
37.59836
-12.070162
34.710283
-11.168308
32.036577
-10.338577
29.56205
-9.5787546
27.271461
-8.8715264
25.150789
-8.2156918
23.187922
-7.608948
21.370684
-7.0476345
19.687351
-6.5272894
18.12727
-6.0446978
16.682243
-5.5969919
15.344093
-5.1818562
14.104547
-4.7975552
12.956797
-4.4420936
11.893712
-4.1132224
10.908225
-3.8089447
9.995269
-3.5274704
9.1505297
-3.2671448
8.3679719
-3.0263737
7.6423112
-2.8035178
6.9713024
-2.5971496
6.3499475
-2.4061458
5.7736873
-2.2291922
5.2394773
-2.0652151
4.744248
-1.913318
4.2855818
-1.7725623
3.8614134
-1.64215
3.4685594
-1.5214068
3.1040382
-1.4095047
2.7661171
-1.3056418
2.4533106
-1.2092632
2.1638093
-1.1198927
1.8956234
-1.0369995
1.6476048
-0.96005248
1.4181136
-0.8885125
1.2054371
-0.8218167
1.0091036
-0.75987927
0.82759572
-0.70199808
0.66024148
-0.64758416
0.50606707
-0.59667721
0.36273712
-0.54835446
0.23234451
-0.50313411
0.11337054
-0.46032078
-0.42581391
59.237315
-12.884392
54.742474
-11.929654
50.579504
-11.042374
46.725389
-10.221635
43.161006
-9.4728248
39.854421
-8.7645925
36.794458
-8.1093036
33.963442
-7.5086313
31.338275
-6.9539271
28.906996
-6.4406244
26.656637
-5.9656916
24.574892
-5.526579
22.647224
-5.1195053
20.861947
-4.7416199
19.208222
-4.3910117
17.676569
-4.0656594
16.258201
-3.7637397
14.944506
-3.4840423
13.72815
-3.2253043
12.601563
-2.9860863
11.5573
-2.7650119
10.58978
-2.560703
9.6944257
-2.3717657
8.865112
-2.196976
8.0959346
-2.0351514
7.3843527
-1.8852745
6.7257366
-1.7465948
6.1149804
-1.6181971
5.5487765
-1.4992388
5.0239294
-1.3890215
4.537781
-1.2868527
4.0880641
-1.1921389
3.6717524
-1.1044704
3.2855715
-1.0232851
2.9274471
-0.94794633
2.595924
-0.87799827
2.2891505
-0.81309256
2.0050423
-0.75292158
1.7421416
-0.69703677
1.4987561
-0.64497917
1.2734805
-0.59668943
1.0650976
-0.55159775
0.87289221
-0.50978187
0.69547605
-0.47027645
0.53188144
-0.43321281
0.38175036
-0.39824221
0.24434619
-0.36564383
0.11824697
-0.3341111
-0.30747416
61.787296
-7.8178002
57.096679
-7.238789
52.754649
-6.7001018
48.734876
-6.201405
45.010626
-5.748576
41.573419
-5.3279202
38.382591
-4.9188358
35.426123
-4.5531763
32.687718
-4.2157912
30.151772
-3.9046219
27.802829
-3.6173848
25.629664
-3.3529144
23.617979
-3.1074556
21.754969
-2.8785232
20.029406
-2.665682
18.43107
-2.467795
16.950903
-2.2839642
15.580472
-2.1137876
14.312086
-1.9564222
13.137619
-1.8109645
12.049079
-1.6766574
11.040372
-1.5526918
10.106659
-1.4381251
9.2419401
-1.3321393
8.4399567
-1.2338957
7.6977069
-1.1429681
7.0108598
-1.0588325
6.3740096
-0.98102256
5.7835944
-0.90898054
5.2363389
-0.84224307
4.7293811
-0.7803412
4.2602764
-0.72289422
3.8261103
-0.66972685
3.4234839
-0.62054086
3.0501211
-0.57494468
2.7044379
-0.53256088
2.3844908
-0.49317097
2.0882593
-0.45669934
1.8141526
-0.42280535
1.5604219
-0.39114202
1.325381
-0.36180625
1.108269
-0.33455162
0.90774814
-0.30919648
0.72266287
-0.28528846
0.55207047
-0.26279808
0.39542419
-0.24166004
0.25174546
-0.22192365
0.12137055
-0.20364487
-0.18602401
63.379749
-2.6200787
58.567731
-2.4262378
54.114177
-2.2458198
49.992159
-2.0792486
46.167279
-1.9239704
42.630042
-1.7909439
39.360656
-1.6498427
36.331929
-1.5252453
33.527156
-1.411178
30.928748
-1.3062471
28.521033
-1.2106285
26.292124
-1.1238323
24.22754
-1.0427008
22.314928
-0.96616336
20.543686
-0.89485539
18.903429
-0.82811438
17.384685
-0.7658402
15.978551
-0.70796087
14.677346
-0.65475617
13.472708
-0.60567716
12.356527
-0.56056596
11.322133
-0.51895739
10.364294
-0.48046476
9.4770923
-0.4448832
8.6547064
-0.4120916
7.8933971
-0.38168348
7.1889351
-0.3535406
6.5358723
-0.32759919
5.9303953
-0.30362233
5.3692135
-0.28144165
4.8493173
-0.26083952
4.3681066
-0.24164626
3.9227385
-0.22388545
3.5098628
-0.20753009
3.1270362
-0.1924029
2.7725512
-0.17827843
2.4443884
-0.16509427
2.1406354
-0.15293705
1.8596297
-0.14160367
1.5994156
-0.13087764
1.3583922
-0.12101274
1.1357189
-0.11192069
0.93020164
-0.10354856
0.74042731
-0.095580803
0.56548989
-0.088067221
0.40472312
-0.081007516
0.25734465
-0.074535787
0.12287444
-0.06910088
-0.063083048
63.921342
2.622222
59.067887
2.4279264
54.575673
2.2466807
50.416658
2.0793123
46.564311
1.9283128
42.993243
1.7803384
39.695607
1.6479168
36.639577
1.5301657
33.810715
1.4177536
31.190675
1.3139697
28.763363
1.2161297
26.516354
1.1232491
24.434354
1.0390117
22.505411
0.9622864
20.719163
0.89112821
19.065039
0.82553478
17.53329
0.76517953
16.115398
0.70958655
14.803216
0.65780814
13.588359
0.60964851
12.462763
0.56492822
11.419462
0.5236921
10.4532
0.48556115
9.5580779
0.45017195
8.7285206
0.41696042
7.9605425
0.38626569
7.2498682
0.35785767
6.5911679
0.33144227
5.980461
0.30693894
5.4145035
0.2841853
4.8902102
0.26311996
4.4048575
0.24369544
3.9556071
0.22572939
3.5392477
0.20894631
3.1532675
0.1933614
2.7958492
0.1789768
2.4649107
0.1657052
2.1586635
0.15333616
1.8754117
0.14193216
1.6130343
0.13150225
1.3699768
0.12172648
1.1455123
0.11250777
0.93834799
0.10378806
0.747105
0.09562069
0.57075443
0.08806757
0.40871291
0.080886326
0.25969289
0.074466544
0.1227152
0.06793329
0.059690809
63.379607
7.8197378
58.567382
7.2404049
54.113481
6.7008703
49.989062
6.2034199
46.17026
5.7476043
42.63608
5.3146329
39.365367
4.9188287
36.334015
4.5609395
33.526271
4.2259434
30.925668
3.9152923
28.516335
3.6253109
26.287178
3.3525238
24.223638
3.1021592
22.31282
2.872608
20.543707
2.6602749
18.905225
2.4637524
17.387352
2.2823759
15.982099
2.1145908
14.680951
1.959296
13.475607
1.8152524
12.358621
1.6817403
11.32355
1.5581164
10.365251
1.443601
9.4777687
1.3374543
8.6553148
1.238939
7.8938866
1.1477146
7.1890671
1.0632815
6.5358144
0.98497243
5.9301545
0.91238256
5.3689494
0.84505513
4.8491481
0.78265208
4.3679023
0.72493457
3.922361
0.67152835
3.5094771
0.62191324
3.1267972
0.57588382
2.772397
0.53323597
2.4441964
0.49373638
2.1405196
0.45706694
1.8596667
0.42314531
1.5994018
0.39173356
1.3582715
0.36245609
1.1356224
0.3351059
0.93012298
0.3094671
0.74039696
0.28531943
0.56547666
0.26278104
0.40472632
0.2414739
0.25727098
0.22188456
0.12282962
0.20241788
0.18257237
61.786533
12.885939
57.095655
11.930828
52.754504
11.042974
48.735087
10.223549
45.014512
9.4684333
41.573998
8.7549093
38.382843
8.1100903
35.422791
7.5203418
32.684441
6.9643067
30.150887
6.449194
27.804255
5.9712848
25.631736
5.5249465
23.61994
5.1137392
21.756871
4.7353193
20.031946
4.3854456
18.434168
4.0614778
16.954069
3.7619246
15.583613
3.4849343
14.314671
3.2286496
13.139077
2.9910647
12.049865
2.770727
11.040791
2.5665383
10.106566
2.3775412
9.2411962
2.2024998
8.4394819
2.0402568
7.6973546
1.890014
7.0102194
1.750938
6.3733594
1.6220425
5.7828641
1.5025732
5.2357498
1.3917937
4.7291019
1.2891147
4.2599676
1.1941168
3.8254933
1.1061668
3.4228772
1.0245678
3.0497787
0.94886149
2.7042253
0.87864955
2.3842016
0.81359753
2.0881318
0.75325129
1.8142773
0.69741204
1.5604088
0.64552972
1.3252144
0.59719173
1.1080487
0.55218811
0.90766003
0.50999763
0.72261326
0.47033122
0.55206979
0.43313964
0.39531116
0.39807512
0.25190113
0.3652436
0.1217137
0.33264025
0.30433664
59.237351
17.741642
54.740681
16.426644
50.579132
15.205489
46.72658
14.076926
43.148476
13.04707
39.858052
12.045724
36.795145
11.173139
33.963925
10.351105
31.341317
9.5868275
28.911578
8.8783463
26.662137
8.2193615
24.579834
7.6070737
22.650812
7.0426709
20.863893
6.5219532
19.209486
6.0402229
17.676967
5.5940715
16.257461
5.1809926
14.94362
4.7989004
13.727353
4.4454664
12.600639
4.1180142
11.556597
3.8145014
10.5892
3.5333207
9.6934546
3.2730049
8.8636103
3.0319351
8.0950197
2.8085737
7.3836407
2.6017392
6.7247998
2.4102651
6.1141153
2.2328788
5.5478353
2.0684632
5.0232154
1.9160135
4.5375169
1.7747533
4.0877065
1.644041
3.6709884
1.5229791
3.2848383
1.4107188
2.9270644
1.3065258
2.5956622
1.2099034
2.2888122
1.1203376
2.0049275
1.0373445
1.7423545
0.96039551
1.4987589
0.88899403
1.273216
0.82226131
1.0649731
0.76030798
0.87278893
0.70224645
0.69536853
0.64769323
0.5319015
0.596452
0.38176765
0.54807636
0.24268133
0.50428208
0.11728473
0.45805789
0.42166939
55.875761
22.32098
51.637228
20.664436
47.712238
19.13112
44.079558
17.710394
40.709099
16.417593
37.604765
15.150053
34.713755
14.064187
32.039939
13.024864
29.565414
12.061452
27.274153
11.168636
25.153416
10.33862
23.190639
9.5697155
21.371313
8.8618583
19.685786
8.2071532
18.12559
7.6008582
16.680209
7.0394726
15.341246
6.5196001
14.102107
6.038427
12.954792
5.5932526
11.891977
5.1809706
10.907113
4.7990113
9.9946762
4.4452496
9.1497114
4.117724
8.3667545
3.8144247
7.6417122
3.5334647
6.9706716
3.2732842
6.3490438
3.0323788
5.7727591
2.8092251
5.2383564
2.6023704
4.7433989
2.4106021
4.2852991
2.2329624
3.8609327
2.0685762
3.4676687
1.9162888
3.1032787
1.7750655
2.7656673
1.6440178
2.4529669
1.5224614
2.1634938
1.4098051
1.8957662
1.3053762
1.6477253
1.2087756
1.4180045
1.1185172
1.2051673
1.034641
1.0086912
0.95660682
0.8271999
0.88370625
0.65994125
0.81489005
0.5053523
0.75095163
0.36399562
0.68932442
0.23625722
0.6319802
0.11572047
0.57861087
0.53742565
51.882811
26.572097
47.947878
24.599547
44.30246
22.776398
40.928215
21.084723
37.811512
19.53371
34.913236
18.047061
32.235208
16.741855
29.755221
15.504808
27.458701
14.358069
25.331709
13.294801
23.362605
12.306777
21.540877
11.391635
19.851783
10.550688
18.286797
9.7717219
16.838143
9.0498889
15.496292
8.3812257
14.253547
7.7619851
13.103286
7.1890443
12.037772
6.6589409
11.05072
6.1680185
10.135991
5.7133019
9.2886337
5.2922007
8.5038564
4.9022402
7.776629
4.54114
7.1033956
4.2066873
6.480335
3.8969506
5.903031
3.6101339
5.3676736
3.3444681
4.8712243
3.0982059
4.4116016
2.8699623
3.9862689
2.6585938
3.5920642
2.4629781
3.226662
2.2816783
2.8880632
2.1135555
2.5744441
1.9575034
2.2839857
1.8128143
2.0150716
1.6788657
1.7663322
1.5544954
1.5359368
1.4393696
1.3224581
1.3317201
1.124516
1.2321559
0.94197913
1.1388917
0.77301711
1.0525421
0.61765652
0.97020273
0.47546873
0.8931069
0.34134947
0.82337449
0.21583213
0.7574855
0.10525622
0.68926788
0.64272631
47.45771
30.457363
43.859373
28.197632
40.529713
26.105431
37.442521
24.171368
34.595531
22.380855
31.938998
20.703906
29.489753
19.19088
27.222974
17.771244
25.123685
16.457243
23.179054
15.238776
21.380361
14.105014
19.714142
13.058025
18.168128
12.09638
16.736427
11.203175
15.411668
10.375012
14.184327
9.6083272
13.047516
8.8983209
11.995445
8.2413987
11.020609
7.633735
10.117541
7.0709355
9.2807758
6.549546
8.5059335
6.0666604
7.7883139
5.6195847
7.1232234
5.2057355
6.5075822
4.8224594
5.9377242
4.4674436
5.4095511
4.1386896
4.9194759
3.8341885
4.465043
3.5519228
4.0445665
3.2903493
3.6554432
3.0481702
3.2946366
2.8239579
2.9600706
2.6161232
2.6501568
2.4232824
2.3631026
2.244428
2.097104
2.0787945
1.8513637
1.9249201
1.62352
1.7827081
1.4126082
1.6502719
1.2167225
1.5272708
1.0362759
1.4122301
0.86877488
1.3060545
0.71519681
1.2059269
0.5725218
1.1128653
0.43941875
1.0262161
0.32229208
0.94054204
0.21507361
0.86464935
0.10629981
0.79803356
0.7490732
42.791508
33.960004
39.546095
31.442449
36.545514
29.105767
33.763962
26.952934
31.194268
24.950372
28.801835
23.097123
26.596767
21.396656
24.55439
19.813813
22.662845
18.348819
20.910823
16.990295
19.289566
15.726032
17.785635
14.562092
16.391284
13.490261
15.100992
12.493224
13.90651
11.569662
12.800723
10.713863
11.777159
9.921624
10.829263
9.1898987
9.95043
8.512571
9.1363045
7.8848561
8.381816
7.3034394
7.6830789
6.7650471
7.0358559
6.2666165
6.4359403
5.8052313
5.8807522
5.3779126
5.3668349
4.9820745
4.8903124
4.6155259
4.4479805
4.2759038
4.0380472
3.9611129
3.6589459
3.6695908
3.3079498
3.3997081
2.9822732
3.149712
2.6802701
2.9178524
2.4005144
2.7028167
2.1414142
2.5034605
1.9017038
2.3186138
1.6795925
2.1474693
1.4740387
1.9885023
1.2832114
1.8408709
1.1063602
1.7038152
0.94239032
1.5758636
0.79097256
1.4570431
0.65103823
1.3456621
0.52330491
1.2406579
0.40548376
1.1441822
0.2903356
1.055755
0.18560945
0.96942692
0.093949526
0.88967998
0.8430522
38.07326
37.072011
35.191012
34.325199
32.520716
31.776774
30.047193
29.426169
27.76041
27.236832
25.636473
25.220747
23.675875
23.358076
21.858512
21.632262
20.175218
20.032407
18.618153
18.547076
17.176125
17.168035
15.837467
15.901219
14.59786
14.729451
13.450975
13.639781
12.390268
12.630518
11.406938
11.69703
10.494686
10.833804
9.6498785
10.035438
8.8673826
9.2952663
8.1428334
8.6093347
7.4714431
7.9742506
6.8498891
7.3863689
6.2741213
6.8422148
5.7403929
6.3385736
5.2466766
5.8720588
4.7896623
5.4399663
4.3655852
5.0397719
3.9717088
4.6689564
3.6069133
4.3253494
3.2696818
4.007228
2.9572561
3.712663
2.6672124
3.4396458
2.3981488
3.1865159
2.1490861
2.9517298
1.9184351
2.7341611
1.7046529
2.5326399
1.5073538
2.345232
1.3237114
2.1721892
1.1534676
2.0107479
0.99764647
1.8594105
0.85298973
1.7201955
0.71792708
1.5916511
0.59373221
1.4697126
0.47451799
1.3600298
0.37021717
1.2488063
0.27687671
1.1491614
0.18469027
1.0616962
0.09123612
0.98323973
0.93433414
33.448519
39.807878
30.918159
36.855834
28.576364
34.119954
26.407081
31.595527
24.396882
29.246762
22.533621
27.083988
20.81054
25.082025
19.216369
23.227518
17.739173
21.509932
16.373218
19.91309
15.105002
18.436736
13.929938
17.076755
12.842528