/*--------------------------------*- C++ -*----------------------------------*\
| =========                 |                                                 |
| \\      /  F ield         | OpenFOAM: The Open Source CFD Toolbox           |
|  \\    /   O peration     | Version:  2506                                  |
|   \\  /    A nd           | Website:  www.openfoam.com                      |
|    \\/     M anipulation  |                                                 |
\*---------------------------------------------------------------------------*/
FoamFile
{
    version     2.0;
    format      ascii;
    arch        "LSB;label=32;scalar=64";
    class       volVectorField;
    location    "2.7";
    object      wallShearStress;
}
// * * * * * * * * * * * * * * * * * * * * * * * * * * * * * * * * * * * * * //

dimensions      [1 -1 -2 0 0 0 0];

internalField   uniform (0 0 0);

boundaryField
{
    Side
    {
        type            empty;
    }
    Inlet
    {
        type            calculated;
        value           uniform (0 0 0);
    }
    Airfoil
    {
        type            calculated;
        value           nonuniform List<vector> 
117
(
(-5.3565474 -2.0685347 9.4009651e-19)
(-5.1380213 -2.1275562 -5.828241e-19)
(-4.7667199 -2.0278085 6.6361838e-19)
(-4.5710365 -2.3145344 -2.3690808e-18)
(-4.3989766 -2.0138496 -4.4341563e-19)
(-4.1891473 -2.2417211 5.7342455e-19)
(-4.1322219 -1.7645647 2.6118253e-20)
(-3.8402964 -1.8847319 7.7596372e-19)
(-3.858395 -1.4775126 4.0156629e-19)
(-3.6432139 -1.5208029 7.7281984e-18)
(-3.7951219 -1.2218369 2.343908e-19)
(-3.5810612 -1.0486457 1.2581442e-19)
(-3.6819191 -0.89199823 -1.08023e-17)
(-3.5978204 -0.68808721 1.1627428e-17)
(-3.6343298 -0.57428606 -3.2571543e-19)
(-3.6481603 -0.42140194 1.2562142e-17)
(-3.6065469 -0.29309691 -1.3251077e-17)
(-3.6019852 -0.20808029 -3.7317263e-20)
(-3.6340447 -0.1057547 -1.5963834e-18)
(-3.6773133 -0.0054304096 -8.3238599e-23)
(-3.6111935 0.096675794 -1.8577767e-18)
(-3.6388406 0.19798378 -3.6944684e-20)
(-3.5735697 0.29858534 -2.6565756e-17)
(-3.6585332 0.37886359 3.8639488e-17)
(-3.6403935 0.61492737 -2.4673869e-17)
(-3.5722126 0.64090261 2.3228191e-17)
(-3.6853831 0.90128185 -1.0109644e-17)
(-3.5871859 1.0357617 7.6465213e-19)
(-3.7625121 1.2223109 1.540744e-33)
(-3.6609874 1.4926059 -7.9488129e-18)
(-3.83706 1.5125114 -9.8608508e-21)
(-3.8212775 1.841744 1.2736339e-17)
(-4.1448292 1.7856159 -1.0568969e-17)
(-4.1555581 2.2208449 8.3229149e-18)
(-4.4912268 1.9853303 -4.191966e-18)
(-4.5756207 2.4286508 -9.6296497e-35)
(-4.8478801 2.0696185 -2.7094802e-18)
(-5.0678027 2.2886727 2.1561614e-18)
(-5.2935707 2.103068 -9.146116e-19)
(-5.9070577 1.0582692 -2.2237877e-18)
(-6.9501785 0.19888476 2.7701854e-18)
(-7.225019 1.0214639 -5.5671412e-35)
(-7.4598444 0.36584952 1.7957651e-18)
(-7.5868766 0.9953158 -1.9045361e-18)
(-7.7435959 0.3062548 3.9403271e-18)
(-7.7328688 1.0518152 -1.8055593e-35)
(-7.8547849 0.067544145 5.416678e-35)
(-7.8068153 1.069851 1.6372009e-18)
(-7.9850593 -0.33398564 -5.6175957e-19)
(-7.811417 1.3826043 -2.4549375e-20)
(-7.9714864 -0.86918502 -1.2116767e-18)
(-8.0661432 0.66156877 1.7237736e-18)
(-7.7948719 0.21514363 5.9841451e-19)
(-7.8213768 0.030554996 -6.2802069e-19)
(-7.7527455 0.26199582 6.5554557e-19)
(-7.6377713 0.13208808 1.3091547e-21)
(-7.7819842 -0.59858031 -3.3487393e-19)
(-7.6146295 0.74115093 -3.4565917e-19)
(-7.5989023 -0.93706007 5.2049831e-19)
(-7.5900418 0.083504102 -8.6975254e-20)
(-7.3003279 -0.33764872 1.5516525e-36)
(-7.2677334 -0.50282686 3.7916413e-19)
(-7.2054851 -0.59951516 -1.8794305e-19)
(-7.1172081 -0.65565313 -3.7888694e-19)
(-6.9775455 -0.65199466 -1.9378952e-19)
(-6.8214804 -0.64276142 -1.0246687e-19)
(-6.8123265 -1.4325743 1.116647e-19)
(-6.7939029 -0.55561296 -4.88812e-19)
(-6.524128 -1.220072 -3.9174668e-19)
(-6.4981361 -1.0186264 -6.1743274e-19)
(-6.2382587 -1.0993835 2.3094341e-19)
(-6.1382847 -1.4673996 1.3718734e-20)
(-6.2197007 -1.6320358 -6.0185311e-36)
(-6.0706013 -1.4539182 9.5206391e-19)
(-5.8046403 -1.7280643 -1.0388474e-18)
(-5.7053315 -1.7898282 -4.5812813e-19)
(-5.5379027 -1.767198 1.4692392e-18)
(-5.3500743 -1.9377892 -1.5760745e-18)
(-5.3431052 2.0523291 4.8148249e-35)
(-5.5270329 1.7236148 0)
(-5.7587831 1.6822326 4.506294e-19)
(-5.9938678 1.6200917 -3.4364875e-21)
(-6.0188917 1.7477274 -8.8969008e-19)
(-6.0504356 1.3716754 -4.9798427e-19)
(-6.2756575 1.2445029 -2.0168222e-20)
(-6.4545598 1.2755488 -4.1810388e-19)
(-6.4257705 1.3853868 4.5207006e-19)
(-6.4809115 0.89468591 4.2327026e-19)
(-6.7016285 0.81575783 -4.6731443e-21)
(-6.848298 0.78116889 -3.9474156e-19)
(-6.9106629 0.63968099 -1.9924321e-19)
(-7.2460636 0.41789219 -1.8644897e-19)
(-7.0359179 1.3738394 -8.0947179e-21)
(-7.3132291 -0.66508876 -1.0176584e-19)
(-7.3861443 1.5082319 3.743161e-19)
(-7.1941565 -0.24872482 -3.3703786e-19)
(-7.5536436 0.35934604 8.7189543e-20)
(-7.5754809 0.27340184 -7.1836559e-19)
(-7.7699317 -0.11999515 6.8388736e-19)
(-7.7684772 0.51357687 1.0096398e-18)
(-7.6639934 -0.45760923 -6.8085417e-19)
(-7.9531863 -0.14800261 -6.7711539e-19)
(-8.0759869 -0.10891218 6.3506475e-19)
(-7.9155212 -0.1072279 1.0532429e-35)
(-7.999648 -0.60054703 1.2496961e-18)
(-7.9036699 0.5235669 -1.1829551e-18)
(-7.8145925 -1.2480779 1.1735044e-18)
(-7.8758039 0.31671352 -1.1338406e-18)
(-7.6777201 -1.0105451 5.3578195e-19)
(-7.6767461 -0.034530176 -2.6389661e-18)
(-7.5779294 -1.0740045 5.1226712e-19)
(-7.6920372 -0.4355586 2.007872e-18)
(-7.6456493 -1.0375503 -1.9321072e-18)
(-7.5177756 -0.37986477 -9.2036634e-19)
(-7.2401555 -1.0266534 -2.6568967e-18)
(-6.9455062 -0.24388278 -3.3352556e-18)
(-5.9724968 -1.0748562 -7.5553698e-19)
)
;
    }
    Outlet
    {
        type            calculated;
        value           uniform (0 0 0);
    }
}


// ************************************************************************* //
