/*--------------------------------*- C++ -*----------------------------------*\
| =========                 |                                                 |
| \\      /  F ield         | OpenFOAM: The Open Source CFD Toolbox           |
|  \\    /   O peration     | Version:  2506                                  |
|   \\  /    A nd           | Website:  www.openfoam.com                      |
|    \\/     M anipulation  |                                                 |
\*---------------------------------------------------------------------------*/
FoamFile
{
    version     2.0;
    format      ascii;
    arch        "LSB;label=32;scalar=64";
    class       surfaceScalarField;
    location    "0.0165";
    object      phi;
}
// * * * * * * * * * * * * * * * * * * * * * * * * * * * * * * * * * * * * * //

dimensions      [1 0 -1 0 0 0 0];

oriented        oriented;

internalField   nonuniform List<scalar> 
26945
(
-0.0015764023
-1.9186916
1.9191212
-0.001978852
-1.788649
1.7890617
-0.0023615842
-1.6676717
1.668064
-0.0027206939
-1.5550674
1.5554357
-0.0030525148
-1.4501944
1.4505351
-0.0033536357
-1.3524643
1.352774
-0.0036208044
-1.2613344
1.26161
-0.003851267
-1.1763062
1.1765448
-0.0040427173
-1.0969191
1.0971184
-0.0041934194
-1.0227546
1.0229129
-0.0043023352
-0.95342616
0.95354239
-0.0043690807
-0.88858463
0.88865837
-0.0043940599
-0.82791321
0.82794486
-0.004378399
-0.77112292
0.7711136
-0.0043239854
-0.71795099
0.71790258
-0.0042332853
-0.66816221
0.66807719
-0.0041094476
-0.62154107
0.62142259
-0.0039558712
-0.57789327
0.57774475
-0.0037763328
-0.53703875
0.53686395
-0.0035747358
-0.49881198
0.49861483
-0.003355056
-0.46306341
0.4628479
-0.0031211359
-0.4296496
0.42941958
-0.0028767063
-0.39844057
0.39819979
-0.0026252135
-0.36930897
0.36906089
-0.0023698351
-0.34213857
0.34188637
-0.0021133909
-0.31681815
0.31656467
-0.0018583697
-0.29323778
0.29298552
-0.0016069129
-0.27129554
0.27104665
-0.0013608231
-0.25089515
0.25065145
-0.001121593
-0.23194242
0.23170541
-0.00089043693
-0.21434514
0.21411605
-0.00066829229
-0.19801855
0.19779832
-0.00045587122
-0.18288274
0.18267209
-0.00025369147
-0.16885694
0.16865641
-6.2111023e-05
-0.15586994
0.15567988
0.00011901609
-0.14385134
0.14367163
0.00028932302
-0.13273355
0.13256456
0.00044887434
-0.12245349
0.12229515
0.00059780745
-0.11295334
0.11280553
0.00073633559
-0.1041771
0.10403961
0.00086479519
-0.096073027
0.095945529
0.00098347513
-0.088591974
0.088474184
0.001092687
-0.081687999
0.081579611
0.0011927583
-0.075316716
0.075217406
0.001284015
-0.069440241
0.06934969
0.0013667812
-0.064021324
0.06393921
0.0014413471
-0.059022792
0.058948829
0.0015079643
-0.054414362
0.054348303
0.0015668149
-0.050165096
0.050106761
0.0016179747
-0.046247335
0.046196651
0.0016613491
-0.042636262
0.042593328
0.0016965807
-0.039306885
0.03927206
0.0017229363
-0.036236557
0.036210577
0.0017392218
-0.033405913
0.033389973
0.0017438873
-0.03079396
0.030789611
0.0017360164
-0.028381685
0.028389848
0.0017192747
-0.026138925
0.026155929
0.0017105084
-0.023995285
0.024004274
0.001720921
-0.021744037
0.02173379
0.0017168434
-0.019378073
0.019382263
0.0016905945
-0.01725597
0.017282333
0.0016495782
-0.015414162
0.015455286
0.0015979053
-0.013797843
0.013849612
0.0015383297
-0.012371756
0.012431419
0.001473104
-0.011108534
0.011173842
0.0014041409
-0.0099860517
0.010055095
0.0013330313
-0.0089872965
0.0090584875
0.0012610751
-0.0080961744
0.0081682157
0.001189295
-0.007300029
0.0073718987
0.0011184733
-0.0065874936
0.0066584101
0.0010491838
-0.0059493169
0.0060187065
0.00098184218
-0.0053763415
0.0054437887
0.00091672069
-0.0048620486
0.0049272804
0.00085399756
-0.0043995379
0.004462376
0.00079379444
-0.0039823385
0.0040426597
0.00073616262
-0.0036062445
0.0036639973
0.00068111378
-0.0032667419
0.0033219122
0.00062863235
-0.0029600541
0.0030126575
0.00057867721
-0.0026828094
0.0027328845
0.00053119974
-0.0024318964
0.002479492
0.00048614903
-0.0022043014
0.0022494662
0.00044345533
-0.0019982173
0.0020410209
0.00040306821
-0.0018107606
0.0018512524
0.00036491447
-0.0016406832
0.0016789347
0.00032893548
-0.0014860666
0.0015221378
0.00029507823
-0.0013450002
0.0013789399
0.00026327905
-0.0012168951
0.0012487717
0.00023348065
-0.0011001112
0.0011299748
0.00020566423
-0.00099295963
0.0010208377
0.00017977971
-0.00089500767
0.0009209402
0.00015580011
-0.00080547241
0.00082949835
0.00013368395
-0.00072336096
0.00074551016
0.00011342416
-0.00064775804
0.000668051
9.4995062e-05
-0.00057784048
0.00059629113
7.8407288e-05
-0.0005125832
0.00052919397
6.3632897e-05
-0.00045151238
0.00046630039
5.064069e-05
-0.00039407895
0.00040708645
3.9376988e-05
-0.00033882589
0.00035009822
2.975718e-05
-0.00028473796
0.00029436855
2.1612362e-05
-0.00023093955
0.0002390912
1.47503e-05
-0.00017724294
0.00018411343
9.0479719e-06
-0.00012614947
0.00013185529
4.5786371e-06
-8.1010804e-05
8.5483815e-05
1.427986e-06
-4.3341957e-05
4.649612e-05
-1.2979205e-05
1.441332e-05
-0.0018744332
-0.0022878495
-1.7882252
-0.002681508
-1.6672684
-0.0030515194
-1.5546882
-0.0033942935
-1.4498427
-0.0037064021
-1.3521435
-0.003984643
-1.2610478
-0.0042262486
-1.1760564
-0.004428888
-1.0967085
-0.0045907796
-1.0225851
-0.0047108266
-0.95329878
-0.0047885775
-0.88849987
-0.0048243599
-0.82787075
-0.0048191971
-0.77112173
-0.0047748843
-0.71798928
-0.0046938338
-0.66823756
-0.0045790655
-0.62165046
-0.0044339707
-0.5780333
-0.0042622423
-0.53720573
-0.0040677662
-0.499002
-0.0038545083
-0.46327248
-0.0036262924
-0.4298739
-0.0033868808
-0.39867632
-0.0031397325
-0.3695527
-0.0028880659
-0.34238704
-0.0026347489
-0.31706849
-0.0023823253
-0.29348743
-0.0021330008
-0.27154228
-0.0018886468
-0.2511371
-0.0016508345
-0.232178
-0.001420849
-0.21457306
-0.0011997186
-0.19823776
-0.00098823172
-0.18309244
-0.00078698483
-0.16905654
-0.0005963451
-0.15605905
-0.00041682992
-0.14402944
-0.00024834085
-0.13290073
-9.0880818e-05
-0.12260973
5.5613854e-05
-0.11309871
0.0001912624
-0.1043117
0.00031618976
-0.09619699
0.00043067
-0.088705562
0.00053497379
-0.081791478
0.00062939056
-0.075410369
0.00071429176
-0.069524437
0.00079002418
-0.064096404
0.00085694144
-0.059089106
0.00091541595
-0.054472279
0.00096584152
-0.050215006
0.001008652
-0.046289669
0.0010443422
-0.042671512
0.0010735109
-0.039335647
0.0010969278
-0.036259599
0.0011156074
-0.033424246
0.0011308592
-0.03080889
0.0011442013
-0.028394729
0.0011567974
-0.026151242
0.0011691446
-0.024007362
0.0011886348
-0.021763246
0.0012065624
-0.019395756
0.0012155976
-0.017264768
0.0012173846
-0.01541572
0.0012125069
-0.013792751
0.0012013079
-0.012360361
0.0011841811
-0.011091231
0.0011615874
-0.0099633021
0.0011340406
-0.0089596144
0.0011021061
-0.0080641247
0.0010663795
-0.0072642062
0.0010274727
-0.0065485084
0.00098598713
-0.0059077691
0.00094250968
-0.0053328168
0.0008975901
-0.0048170948
0.0008517352
-0.0043536607
0.000805412
-0.003936003
0.00075902936
-0.0035598586
0.00071294714
-0.0032206632
0.00066747114
-0.0029145878
0.00062285892
-0.0026382111
0.00057932084
-0.0023883761
0.00053703257
-0.002162033
0.00049612131
-0.0019573277
0.00045669448
-0.0017713562
0.00041882052
-0.0016028319
0.00038254455
-0.0014498133
0.00034790334
-0.0013103807
0.00031489515
-0.0011839085
0.00028351542
-0.0010687513
0.00025376491
-0.00096322877
0.00022562325
-0.00086688329
0.00019905723
-0.0007789236
0.00017403997
-0.00069835855
0.00015054446
-0.0006242772
0.00012855207
-0.00055586083
0.00010805901
-0.00049210249
8.9067769e-05
-0.00043253193
7.1581809e-05
-0.00037660356
5.5653421e-05
-0.00032290761
4.1366949e-05
-0.00027046109
2.884737e-05
-0.00021843046
1.8298171e-05
-0.00016670293
9.9884064e-06
-0.00011784879
4.1616681e-06
-7.5193042e-05
9.1713571e-07
-4.010619e-05
-1.2063534e-05
-0.0025630581
-1.7877906
-0.0029674025
-1.6668544
-0.0033480731
-1.5542983
-0.0037014881
-1.4494803
-0.0040242813
-1.3518121
-0.004313257
-1.2607504
-0.0045656409
-1.1757958
-0.0047790902
-1.0964871
-0.0049518128
-1.0224047
-0.0050826209
-0.95316062
-0.0051710166
-0.88840444
-0.0052172522
-0.82781782
-0.0052222558
-0.77111036
-0.0051877521
-0.71801775
-0.0051160502
-0.66830355
-0.0050101024
-0.62175102
-0.0048732333
-0.5781651
-0.0047090999
-0.5373651
-0.004521563
-0.49918508
-0.0043145299
-0.46347533
-0.0040918644
-0.43009265
-0.0038573313
-0.39890718
-0.0036143888
-0.36979222
-0.0033663164
-0.34263192
-0.0031160161
-0.31731581
-0.0028660854
-0.29373458
-0.0026187867
-0.27178699
-0.0023760563
-0.25137743
-0.0021395322
-0.23241229
-0.0019105742
-0.21479994
-0.0016902815
-0.19845612
-0.0014795241
-0.18330141
-0.0012789714
-0.16925544
-0.0010891057
-0.15624738
-0.00091035153
-0.14420677
-0.00074280899
-0.13306696
-0.000586547
-0.12276478
-0.00044162038
-0.11324251
-0.00030793725
-0.10444434
-0.00018521275
-0.096318749
-7.3250509e-05
-0.088816631
2.8241583e-05
-0.081892145
0.00011961227
-0.075500973
0.0002012153
-0.069605332
0.00027348728
-0.064168022
0.00033690014
-0.059151915
0.00039195353
-0.054526774
0.00043917889
-0.050261715
0.00047912829
-0.046329141
0.00051239349
-0.042704337
0.00053958134
-0.039362428
0.00056127998
-0.036280921
0.00057803782
-0.033440656
0.00059031819
-0.03082085
0.00059841554
-0.028402529
0.00060230959
-0.026154862
0.00060312268
-0.024007922
0.00061368901
-0.02177355
0.00062851955
-0.019410357
0.00063311126
-0.017269145
0.00062911383
-0.015411515
0.00061840176
-0.013781842
0.00060248071
-0.012344257
0.00058268778
-0.011071267
0.0005601677
-0.0099406227
0.00053586039
-0.0089351583
0.00051051322
-0.0080386384
0.00048470523
-0.0072382681
0.00045886322
-0.0065225448
0.00043329548
-0.0058820876
0.00040821669
-0.0053076315
0.00038377075
-0.0047925492
0.00036004902
-0.0043298456
0.00033711617
-0.0039129828
0.00031500649
-0.003537667
0.00029373854
-0.0031993187
0.00027331624
-0.002894094
0.00025373694
-0.002618565
0.00023499301
-0.0023695698
0.00021707471
-0.0021440566
0.00019996491
-0.001940164
0.00018365407
-0.0017549953
0.00016812148
-0.0015872532
0.00015335048
-0.0014349996
0.00013932636
-0.0012963178
0.0001260277
-0.0011705736
0.00011343476
-0.001056126
0.0001015362
-0.00095129986
9.0313287e-05
-0.00085563346
7.9748859e-05
-0.00076833369
6.9821676e-05
-0.00068840885
6.051854e-05
-0.0006149525
5.182281e-05
-0.00054714573
4.3726655e-05
-0.00048398789
3.6214889e-05
-0.00042500348
2.9271893e-05
-0.00036964461
2.2892858e-05
-0.00031651384
1.7089418e-05
-0.00026464366
1.1917658e-05
-0.00021324529
7.53443e-06
-0.00016230746
4.1499733e-06
-0.0001144531
1.8379107e-06
-7.2870377e-05
4.8544819e-07
-3.8743705e-05
-1.1571599e-05
-0.0028065414
-1.7873453
-0.0032214162
-1.6664299
-0.0036125074
-1.5538979
-0.0039763107
-1.4491075
-0.0043095087
-1.3514702
-0.0046089117
-1.2604425
-0.0048717667
-1.1755247
-0.0050957032
-1.0962552
-0.0052788964
-1.0222138
-0.0054201455
-0.95301201
-0.005518865
-0.88829868
-0.0055752171
-0.82775476
-0.0055900882
-0.7710891
-0.0055651044
-0.71803669
-0.0055024858
-0.66836045
-0.0054050952
-0.62184301
-0.0052762219
-0.57828889
-0.0051194889
-0.53751705
-0.0049386727
-0.49936141
-0.0047377291
-0.46367207
-0.0045204674
-0.43030598
-0.004290651
-0.39913332
-0.0040518081
-0.37002762
-0.0038072148
-0.3428733
-0.0035598231
-0.31756022
-0.0033122785
-0.29397934
-0.0030668953
-0.27202978
-0.0028256661
-0.25161624
-0.0025902889
-0.23264542
-0.0023621851
-0.21502596
-0.0021425182
-0.19867386
-0.0019322172
-0.18350992
-0.0017320155
-0.16945398
-0.001542452
-0.15643541
-0.001363946
-0.14438385
-0.0011966986
-0.13323289
-0.0010408157
-0.12291944
-0.00089632344
-0.11338587
-0.00076311981
-0.1045765
-0.00064098715
-0.096439914
-0.00052966474
-0.088927058
-0.00042883896
-0.081992142
-0.00033813925
-0.075590907
-0.00025704139
-0.069685722
-0.00018505745
-0.064239351
-0.00012165032
-0.059214717
-6.6238888e-05
-0.054581626
-1.8213639e-05
-0.050309225
2.3063718e-05
-0.046369941
5.8218717e-05
-0.04273905
8.7880267e-05
-0.039391682
0.00011267245
-0.036305337
0.00013320652
-0.033460842
0.00015006667
-0.030837388
0.00016382208
-0.028415986
0.00017507113
-0.026165836
0.00018654199
-0.024019138
0.00021554865
-0.021802272
0.00026046541
-0.019455041
0.00029725588
-0.017305716
0.00032475536
-0.015438804
0.00034464685
-0.013801534
0.00035812719
-0.012357551
0.00036614698
-0.011079114
0.00036952353
-0.0099438392
0.00036896553
-0.0089344528
0.00036509613
-0.0080346335
0.00035848481
-0.0072315325
0.00034962935
-0.0065135755
0.00033895753
-0.0058713118
0.00032684515
-0.0052954241
0.00031361127
-0.0047792286
0.00029953939
-0.0043156945
0.00028487063
-0.0038982417
0.00026981617
-0.0035225466
0.00025455341
-0.0031839957
0.00023923685
-0.0028787223
0.00022399377
-0.0026032716
0.00020893211
-0.0023544621
0.00019414335
-0.0021292257
0.00017970029
-0.0019256824
0.00016566415
-0.0017409238
0.0001520821
-0.0015736389
0.00013899224
-0.0014218801
0.0001264243
-0.0012837227
0.0001143966
-0.001158521
0.00010292314
-0.0010446296
9.2018846e-05
-0.00094037444
8.1689466e-05
-0.00084528462
7.1933545e-05
-0.0007585598
6.2750933e-05
-0.00067920956
5.4139105e-05
-0.00060632537
4.609764e-05
-0.00053909008
3.8628258e-05
-0.0004765055
3.1732176e-05
-0.00041809536
2.5408778e-05
-0.00036331014
1.9671456e-05
-0.00031076631
1.4544493e-05
-0.00025950729
1.0069458e-05
-0.00020876165
6.329848e-06
-0.00015855996
3.4312358e-06
-0.00011154716
1.4350432e-06
-7.0867479e-05
3.2585189e-07
-3.7628347e-05
-1.1239873e-05
-0.003020045
-1.7868893
-0.0034452937
-1.6659949
-0.0038466448
-1.5534872
-0.0042206419
-1.4487245
-0.0045639834
-1.3511182
-0.0048735428
-1.2601245
-0.0051465725
-1.1752434
-0.0053807021
-1.0960131
-0.0055740752
-1.0220127
-0.0057254467
-0.95285325
-0.0058341712
-0.88818289
-0.0059003641
-0.82768184
-0.0059248122
-0.77105826
-0.0059090609
-0.71804637
-0.0058552652
-0.66840851
-0.0057662217
-0.62192664
-0.005645149
-0.57840486
-0.0054955996
-0.53766181
-0.0053213566
-0.49953117
-0.0051263095
-0.4638629
-0.0049142929
-0.43051405
-0.0046890929
-0.39935482
-0.0044542261
-0.37025904
-0.0042130035
-0.34311131
-0.00396842
-0.3178018
-0.0037231565
-0.29422181
-0.0034795799
-0.27227076
-0.0032397303
-0.25185367
-0.0030053572
-0.23287754
-0.0027779294
-0.21525129
-0.0025586623
-0.19889118
-0.00234853
-0.18371826
-0.0021483068
-0.16965254
-0.0019585736
-0.1566236
-0.0017797497
-0.14456125
-0.0016120786
-0.13339924
-0.0014556829
-0.12307461
-0.0013105669
-0.11352985
-0.0011766165
-0.1047094
-0.0010536091
-0.096561951
-0.00094124544
-0.089038524
-0.00083915094
-0.082093407
-0.00074688014
-0.07568241
-0.00066391184
-0.06976798
-0.00058969282
-0.064312914
-0.0005236331
-0.05928017
-0.000465119
-0.05463958
-0.00041352593
-0.0503603
-0.00036824475
-0.046414744
-0.00032864954
-0.042778203
-0.00029415081
-0.039425772
-0.00026420187
-0.036334909
-0.00023829332
-0.033486403
-0.00021595154
-0.030859409
-0.00019668976
-0.028434949
-0.00017973544
-0.026182516
-0.00016141455
-0.024037206
-0.00012312451
-0.021840267
-6.3501247e-05
-0.019514453
-1.1482406e-05
-0.017357507
3.0030175e-05
-0.01548011
6.2831235e-05
-0.013834139
8.8445395e-05
-0.012382982
0.00010814422
-0.011098643
0.00012297441
-0.0099585116
0.00013378766
-0.0089451198
0.00014125637
-0.0080419669
0.00014600892
-0.0072361601
0.00014853
-0.0065159812
0.00014920632
-0.0058718816
0.00014834895
-0.0052944685
0.00014621898
-0.0047770079
0.00014303156
-0.0043124234
0.00013897432
-0.0038941071
0.00013420362
-0.0035177045
0.00012886201
-0.0031785882
0.00012307008
-0.0028728696
0.00011693511
-0.0025970804
0.00011055014
-0.0023480252
0.00010399996
-0.0021226276
9.7354812e-05
-0.001918993
9.068138e-05
-0.0017342096
8.4034366e-05
-0.0015669543
7.7461208e-05
-0.0014152722
7.1008193e-05
-0.0012772379
6.4707838e-05
-0.0011521912
5.8590905e-05
-0.0010384857
5.2686825e-05
-0.00093444542
4.7017052e-05
-0.000839592
4.1599863e-05
-0.00075312144
3.6448398e-05
-0.0006740387
3.1576479e-05
-0.00060143541
2.6992585e-05
-0.00053448958
2.2710198e-05
-0.0004722077
1.8735187e-05
-0.00041410613
1.5072255e-05
-0.00035963396
1.1731201e-05
-0.00030741297
8.7247619e-06
-0.00025648944
6.0799024e-06
-0.00020610614
3.8543986e-06
-0.00015632472
2.1246205e-06
-0.00010980829
9.2614612e-07
-6.96606e-05
2.3182639e-07
-3.6926236e-05
-1.1001484e-05
-0.0032049786
-1.7864228
-0.0036405259
-1.6655496
-0.0040519907
-1.5530664
-0.0044359937
-1.4483315
-0.004789297
-1.3507562
-0.0051087822
-1.2597965
-0.0053917322
-1.1749522
-0.0056357764
-1.095761
-0.005839056
-1.0218017
-0.0060002575
-0.95268463
-0.0061187185
-0.88805734
-0.0061944677
-0.82759934
-0.0062282175
-0.77101809
-0.006221452
-0.71804706
-0.0061762511
-0.66844796
-0.0060953234
-0.62200214
-0.0059818251
-0.57851325
-0.0058392857
-0.53779955
-0.0056714352
-0.49969452
-0.0054821612
-0.46404795
-0.0052752734
-0.43071698
-0.0050545483
-0.39957184
-0.0048235414
-0.37048659
-0.0045855904
-0.34334603
-0.0043437142
-0.31804067
-0.0041006369
-0.29446208
-0.0038587623
-0.27251002
-0.0036201745
-0.25208983
-0.0033866606
-0.23310879
-0.0031597362
-0.21547612
-0.0029406455
-0.19910833
-0.0027304011
-0.1839267
-0.0025297987
-0.16985147
-0.0023394378
-0.15681241
-0.0021597457
-0.14473951
-0.0019909778
-0.13356668
-0.0018332505
-0.12323111
-0.0016865544
-0.11367541
-0.0015507538
-0.10484415
-0.0014256081
-0.096686123
-0.0013107825
-0.08915245
-0.0012058699
-0.082197487
-0.0011103916
-0.075777119
-0.0010238167
-0.069853844
-0.00094556817
-0.064390505
-0.00087505708
-0.059350073
-0.0008116738
-0.054702401
-0.00075481445
-0.050416641
-0.00070388516
-0.046465194
-0.00065831364
-0.042823332
-0.0006175559
-0.039466121
-0.00058109844
-0.036370989
-0.00054845609
-0.033518697
-0.00051913759
-0.030888405
-0.00049250965
-0.028461278
-0.00046722275
-0.026207525
-0.00043813928
-0.024066027
-0.00038651044
-0.021891599
-0.00030981858
-0.019590916
-0.00023959687
-0.017427518
-0.00018057056
-0.015538934
-0.00013110282
-0.013883412
-8.9682608e-05
-0.012424218
-5.5072842e-05
-0.011133081
-2.6259147e-05
-0.0099871664
-2.3918388e-06
-0.00896884
1.7236889e-05
-0.0080614594
3.3206564e-05
-0.007252004
4.6013603e-05
-0.0065286722
5.6091616e-05
-0.0058818527
6.3814503e-05
-0.0053020929
6.9507515e-05
-0.0047826103
7.3453228e-05
-0.0043162857
7.5893661e-05
-0.0038964708
7.7044752e-05
-0.003518785
7.7104654e-05
-0.0031785831
7.6245828e-05
-0.002871951
7.4618425e-05
-0.002595398
7.235654e-05
-0.0023457128
6.9575949e-05
-0.0021198005
6.6382535e-05
-0.0019157568
6.2866882e-05
-0.0017306546
5.9111822e-05
-0.0015631631
5.518875e-05
-0.0014113158
5.1160463e-05
-0.0012731789
4.7082347e-05
-0.0011480849
4.3000294e-05
-0.0010343776
3.8959084e-05
-0.00093038025
3.499336e-05
-0.0008356042
3.1132913e-05
-0.00074924064
2.7404706e-05
-0.00067029169
2.3829992e-05
-0.00059784339
2.0430035e-05
-0.00053107365
1.7223072e-05
-0.00046898605
1.4225657e-05
-0.00041109516
1.1450814e-05
-0.00035684662
8.9138966e-06
-0.00030486453
6.6341656e-06
-0.0002541991
4.6338912e-06
-0.00020409611
2.948292e-06
-0.0001546302
1.6242506e-06
-0.00010847588
6.9571359e-07
-6.8724404e-05
1.6450838e-07
-3.6387985e-05
-1.08304e-05
-0.0033625466
-0.0038083109
-1.665094
-0.0042298075
-1.5526355
-0.0046236715
-1.4479285
-0.004986759
-1.3503843
-0.005315968
-1.2594587
-0.0056086124
-1.1746513
-0.0058623403
-1.0954992
-0.0060752492
-1.021581
-0.0062460334
-0.95250642
-0.0063739581
-0.88792231
-0.0064589995
-0.82750753
-0.0065018232
-0.77096884
-0.0065038084
-0.71803898
-0.0064669619
-0.66847904
-0.0063939369
-0.62206972
-0.0062878432
-0.57861421
-0.0061521323
-0.53793045
-0.0059905156
-0.49985162
-0.005806849
-0.46422738
-0.0056049498
-0.43091491
-0.005388599
-0.39978448
-0.0051613524
-0.37071037
-0.0049265735
-0.34357757
-0.0046873133
-0.31827692
-0.004446329
-0.29470025
-0.0042060582
-0.27274767
-0.0039686212
-0.25232483
-0.0037358384
-0.23333931
-0.0035092501
-0.2157006
-0.0032901331
-0.1993255
-0.0030795162
-0.1841355
-0.0028782099
-0.1700511
-0.0026868203
-0.15700225
-0.0025057718
-0.14491912
-0.0023353205
-0.1337358
-0.0021755738
-0.12338963
-0.0020265024
-0.11382334
-0.0018879589
-0.10498164
-0.0017596837
-0.096813422
-0.0016413298
-0.089269901
-0.001532474
-0.082305508
-0.0014326387
-0.075876182
-0.0013412929
-0.069944476
-0.001257882
-0.064473257
-0.0011818341
-0.059425512
-0.0011125812
-0.054771091
-0.0010495596
-0.050479142
-0.00099222802
-0.046522045
-0.0009400713
-0.042875045
-0.00089260608
-0.039513176
-0.00084938579
-0.036413831
-0.00080998356
-0.033557749
-0.00077394957
-0.030924116
-0.00074060387
-0.028494324
-0.00070822555
-0.026239625
-0.00067063299
-0.024103354
-0.00060904788
-0.021952886
-0.00051994006
-0.01967979
-0.00043653273
-0.017510721
-0.00036558529
-0.015609683
-0.00030505716
-0.013943747
-0.00025318329
-0.012475911
-0.00020863652
-0.011177459
-0.00017035136
-0.010025294
-0.00013743176
-0.0090016136
-0.00010910681
-0.0080896492
-8.4814599e-05
-0.0072761713
-6.4049271e-05
-0.0065493223
-4.6365632e-05
-0.00589943
-3.137948e-05
-0.005316981
-1.8755674e-05
-0.0047951438
-8.2078269e-06
-0.0043267503
5.1480084e-07
-0.0039051169
7.633255e-06
-0.0035258329
1.3341461e-05
-0.0031842264
1.7811107e-05
-0.0028763608
2.1198521e-05
-0.0025987303
2.3643348e-05
-0.0023481068
2.5273494e-05
-0.0021213838
2.620231e-05
-0.0019166425
2.6533305e-05
-0.0017309458
2.6360674e-05
-0.0015629538
2.5770616e-05
-0.0014106921
2.483863e-05
-0.0012722159
2.3631939e-05
-0.0011468496
2.2211376e-05
-0.0010329307
2.062972e-05
-0.00092877428
1.8935632e-05
-0.0008338877
1.716916e-05
-0.0007474535
1.5366552e-05
-0.00066847002
1.3560895e-05
-0.00059602014
1.1779589e-05
-0.00052927609
1.0049234e-05
-0.00046724071
8.3917482e-06
-0.00040942381
6.8259839e-06
-0.00035526804
5.3712733e-06
-0.00030339796
4.0454171e-06
-0.00025286231
2.8661753e-06
-0.00020290677
1.8555287e-06
-0.00015361033
1.0439784e-06
-0.00010765564
4.6011325e-07
-6.8132566e-05
1.1383463e-07
-3.6034366e-05
-1.0709908e-05
-0.0039496355
-1.6646282
-0.0043810817
-1.5521946
-0.0047847175
-1.4475158
-0.0051574294
-1.3500028
-0.0054961937
-1.2591114
-0.0057983501
-1.1743408
-0.0060615324
-1.095228
-0.0062838613
-1.0213509
-0.0064639844
-0.95231884
-0.006601136
-0.88777804
-0.0066952329
-0.82740664
-0.0067468697
-0.77091075
-0.0067573637
-0.71802237
-0.0067286731
-0.66850195
-0.0066633643
-0.62212957
-0.0065644643
-0.57870797
-0.0064354184
-0.53805466
-0.0062798874
-0.50000262
-0.0061016988
-0.46440132
-0.0059046674
-0.43110797
-0.0056925682
-0.39999285
-0.0054689767
-0.37093049
-0.0052372783
-0.34380602
-0.0050005485
-0.31851062
-0.0047615694
-0.29493641
-0.0045228151
-0.2729838
-0.004286429
-0.25255877
-0.0040542567
-0.23356921
-0.0038278654
-0.21592488
-0.0036085448
-0.19954286
-0.0033973339
-0.1843449
-0.003195051
-0.1702517
-0.0030022999
-0.15719344
-0.0028194987
-0.14510048
-0.002646898
-0.13390707
-0.0024845952
-0.1235507
-0.0023325529
-0.11397424
-0.0021906135
-0.10512252
-0.0020585157
-0.096944541
-0.0019359154
-0.089391595
-0.0018223945
-0.082418192
-0.001717496
-0.075980307
-0.0016207195
-0.070040536
-0.0015315426
-0.064561772
-0.0014494417
-0.059507001
-0.0013738958
-0.054846072
-0.0013043987
-0.050548117
-0.0012404671
-0.046585495
-0.001181641
-0.042933425
-0.0011274914
-0.039566914
-0.0010776204
-0.036463322
-0.0010316438
-0.033603376
-0.00098912911
-0.030966306
-0.00094935134
-0.028533801
-0.00091034749
-0.026278348
-0.00086543696
-0.024147997
-0.00079595782
-0.022022067
-0.00069612527
-0.019779379
-0.00060021754
-0.017606429
-0.00051757616
-0.015692128
-0.0004461338
-0.014014998
-0.00038400988
-0.012537853
-0.00032983718
-0.011231462
-0.00028253612
-0.010072437
-0.00024120433
-0.0090427988
-0.00020508321
-0.0081256345
-0.0001735218
-0.0073076071
-0.00014596065
-0.0065767674
-0.00012191974
-0.0059233639
-0.00010098368
-0.0053378185
-8.2793078e-05
-0.0048132435
-6.703445e-05
-0.0043424253
-5.3434046e-05
-0.0039186402
-4.1750969e-05
-0.003537445
-3.177995e-05
-0.0031941321
-2.3332845e-05
-0.0028847478
-1.6238062e-05
-0.0026057698
-1.0341926e-05
-0.002353952
-5.5027778e-06
-0.0021261761
-1.5924215e-06
-0.0019205097
1.5062292e-06
-0.0017340047
3.8991987e-06
-0.0015653102
5.6814649e-06
-0.0014124406
6.9401575e-06
-0.0012734435
7.7536366e-06
-0.0011476345
8.1923168e-06
-0.001033343
8.31918e-06
-0.00092887689
8.1898485e-06
-0.000833736
7.8567437e-06
-0.00074709979
7.3643017e-06
-0.00066795855
6.7515311e-06
-0.00059538985
6.0549472e-06
-0.00052856333
5.3063969e-06
-0.00046647727
4.5355325e-06
-0.00040863919
3.7665744e-06
-0.00035448638
3.0235836e-06
-0.00030264322
2.3264777e-06
-0.00025215442
1.6907745e-06
-0.00020226113
1.1278246e-06
-0.00015303837
6.5244972e-07
-0.00010717162
2.9200343e-07
-6.7764243e-05
7.1658623e-08
-3.5806799e-05
-1.0631624e-05
-0.0040652379
-1.664152
-0.0045066035
-1.5517438
-0.0049199355
-1.4470933
-0.0053021886
-1.3496117
-0.0056503642
-1.2587546
-0.0059618489
-1.1740209
-0.0062342886
-1.0949474
-0.00646582
-1.0211116
-0.0066550702
-0.95212211
-0.0068012108
-0.88762474
-0.0069041431
-0.8272969
-0.0069643732
-0.77084404
-0.0069831837
-0.71799743
-0.0069624254
-0.6685169
-0.0069046256
-0.6221819
-0.0068127588
-0.57879468
-0.006690215
-0.53817236
-0.006540601
-0.50014769
-0.006367771
-0.46456988
-0.0061754696
-0.43129628
-0.0059675224
-0.40019706
-0.0057474942
-0.37114702
-0.0055187879
-0.34403147
-0.0052845042
-0.31874187
-0.0050474535
-0.29517063
-0.0048101311
-0.27321848
-0.0045747079
-0.25279174
-0.0043430504
-0.23379858
-0.004116738
-0.21614908
-0.0038970707
-0.19976056
-0.0036850953
-0.18455505
-0.0034816241
-0.17045348
-0.003287263
-0.15738624
-0.0031024209
-0.14528388
-0.0029273403
-0.13408081
-0.0027621169
-0.12371468
-0.0026067081
-0.1141285
-0.0024609628
-0.1052672
-0.002324627
-0.097079894
-0.002197373
-0.08951794
-0.0020788149
-0.082535909
-0.0019685259
-0.076089819
-0.0018660514
-0.070142292
-0.0017709193
-0.06465624
-0.0016826581
-0.059594649
-0.0016008048
-0.054927358
-0.0015249119
-0.050623486
-0.0014545513
-0.046655372
-0.0013893161
-0.042998214
-0.0013288291
-0.039626988
-0.0012727347
-0.036519036
-0.0012206857
-0.033655073
-0.0011722802
-0.031014387
-0.0011267899
-0.028578989
-0.0010821796
-0.026322677
-0.0010316922
-0.024198217
-0.00095703097
-0.022096431
-0.00084943178
-0.019886726
-0.0007431453
-0.017712519
-0.00065084977
-0.015784231
-0.00057050176
-0.014095157
-0.00050006034
-0.012608113
-0.00043808426
-0.011293268
-0.00038344635
-0.010126918
-0.00033520918
-0.0090908897
-0.00029258206
-0.0081681261
-0.00025488383
-0.0073451799
-0.00022152967
-0.0066100057
-0.00019201335
-0.0059527733
-0.00016590593
-0.0053638273
-0.00014282772
-0.0048362309
-0.00012245296
-0.0043627164
-0.00010450157
-0.0039365145
-8.872203e-05
-0.0035531536
-7.4892484e-05
-0.0032078963
-6.2811867e-05
-0.0028967683
-5.2301424e-05
-0.0026162248
-4.319661e-05
-0.0023630058
-3.5351247e-05
-0.0021339745
-2.8626501e-05
-0.0019271912
-2.2899713e-05
-0.0017396917
-1.8058565e-05
-0.0015701147
-1.3998921e-05
-0.0014164665
-1.0627705e-05
-0.0012767837
-7.8584122e-06
-0.0011503751
-5.6122408e-06
-0.0010355628
-3.8192272e-06
-0.00093064557
-2.4145674e-06
-0.0008351182
-1.3404527e-06
-0.00074815321
-5.4408796e-07
-0.00066873579
2.2394882e-08
-0.0005959387
3.9971224e-07
-0.00052892435
6.2616732e-07
-0.00046668872
7.3556274e-07
-0.00040873468
7.5850292e-07
-0.00035449647
7.2125362e-07
-0.00030259407
6.4541823e-07
-0.0002520677
5.4495538e-07
-0.0002021506
4.2054504e-07
-0.00015290504
2.7599054e-07
-0.00010701803
1.3610639e-07
-6.7616274e-05
3.5886436e-08
-3.5699211e-05
-1.0589193e-05
-0.0041556437
-1.6636655
-0.0046069611
-1.5512829
-0.005029955
-1.4466611
-0.0054216557
-1.3492112
-0.0057791258
-1.2583885
-0.0060997926
-1.1736918
-0.0063813381
-1.0946577
-0.0066218849
-1.0208632
-0.0068200386
-0.95191644
-0.0069749695
-0.88746264
-0.0070865036
-0.82717853
-0.0071551302
-0.77076892
-0.0071820367
-0.71796436
-0.0071690165
-0.6685241
-0.0071185596
-0.62222686
-0.0070335442
-0.57887453
-0.006917326
-0.53828371
-0.0067735126
-0.50028694
-0.0066058817
-0.46473324
-0.0064182153
-0.43147994
-0.0062143092
-0.40039722
-0.0059977441
-0.37136008
-0.0057719459
-0.34425399
-0.0055400316
-0.31897073
-0.0053048352
-0.29540298
-0.0050688774
-0.2734518
-0.0048343463
-0.25302381
-0.0046031229
-0.23402752
-0.0043767996
-0.21637327
-0.0041566851
-0.1999787
-0.003943824
-0.18476609
-0.0037390297
-0.17065658
-0.0035428975
-0.15758081
-0.0033558371
-0.14546949
-0.0031780871
-0.13425721
-0.0030097413
-0.12388178
-0.002850767
-0.11428633
-0.0027010239
-0.10541588
-0.0025602824
-0.097219649
-0.0024282436
-0.089649067
-0.0023045605
-0.082658749
-0.0021888549
-0.076204744
-0.0020807195
-0.070249707
-0.0019797387
-0.064756555
-0.0018855007
-0.059688271
-0.0017975962
-0.055014693
-0.0017156349
-0.050704922
-0.001639237
-0.046731284
-0.0015680449
-0.043068958
-0.0015017199
-0.039692898
-0.0014399418
-0.036580432
-0.0013823912
-0.033712271
-0.0013286874
-0.031067765
-0.0012781238
-0.02862925
-0.0012286882
-0.02637183
-0.0011738174
-0.024252819
-0.0010957995
-0.022174154
-0.00098259401
-0.019999667
-0.00086712176
-0.017827795
-0.00076615012
-0.015885013
-0.00067781674
-0.014183302
-0.00059992772
-0.012685822
-0.00053097419
-0.011362053
-0.00046980013
-0.010187934
-0.00041544184
-0.0091451014
-0.00036708026
-0.0082163518
-0.00032400745
-0.0073881269
-0.00028561276
-0.0066482841
-0.00025136545
-0.0059869132
-0.0002208074
-0.0053942863
-0.00019354244
-0.0048634046
-0.0001692253
-0.0043869495
-0.00014756055
-0.0039581019
-0.0001282836
-0.0035723593
-0.00011116109
-0.0032249532
-9.5984791e-05
-0.0029118842
-8.2566646e-05
-0.0026295874
-7.0735329e-05
-0.002374786
-6.0336878e-05
-0.0021443259
-5.1228504e-05
-0.0019362562
-4.3281755e-05
-0.0017475985
-3.6374396e-05
-0.0015769853
-3.0396882e-05
-0.0014224102
-2.5249439e-05
-0.0012818999
-2.0837043e-05
-0.0011547588
-1.707412e-05
-0.0010392992
-1.3885521e-05
-0.00093380978
-1.1198392e-05
-0.00083778282
-8.9486346e-06
-0.00075038225
-7.0766042e-06
-0.00067058868
-5.5310315e-06
-0.00059746665
-4.2618267e-06
-0.00053017728
-3.2285129e-06
-0.00046770706
-2.392333e-06
-0.00040955701
-1.7179652e-06
-0.00035515805
-1.1759028e-06
-0.0003031243
-7.4125844e-07
-0.00025249152
-4.0246361e-07
-0.0002024794
-1.6542669e-07
-0.00015313308
-3.7650802e-08
-0.00010713701