/*--------------------------------*- C++ -*----------------------------------*\
| =========                 |                                                 |
| \\      /  F ield         | OpenFOAM: The Open Source CFD Toolbox           |
|  \\    /   O peration     | Version:  2506                                  |
|   \\  /    A nd           | Website:  www.openfoam.com                      |
|    \\/     M anipulation  |                                                 |
\*---------------------------------------------------------------------------*/
FoamFile
{
    version     2.0;
    format      ascii;
    arch        "LSB;label=32;scalar=64";
    class       volVectorField;
    location    "0.00022";
    object      U;
}
// * * * * * * * * * * * * * * * * * * * * * * * * * * * * * * * * * * * * * //

dimensions      [0 1 -1 0 0 0 0];

internalField   nonuniform List<vector> 
3431
(
(91.03 24.39 1.1968362e-20)
(91.03 24.39 -1.040174e-20)
(91.037678 24.361361 4.4040927e-24)
(91.03 24.39 1.0333778e-20)
(91.03 24.39 -9.0366534e-21)
(91.03 24.39 7.6981077e-24)
(91.03 24.39 3.3543267e-24)
(91.03 24.39 -1.1968338e-20)
(91.03 24.389999 1.0147497e-23)
(91.037691 24.361359 -4.403577e-24)
(91.03 24.39 2.2739026e-21)
(91.03 24.39 -4.1178973e-21)
(91.03 24.39 3.7238622e-21)
(91.03 24.39 0)
(91.03 24.39 1.3413216e-20)
(91.03 24.39 -5.8829982e-21)
(91.03 24.39 -1.0309944e-20)
(91.03 24.39 9.0157159e-21)
(91.03 24.39 0)
(91.03 24.39 0)
(91.03 24.39 1.1951111e-20)
(91.03 24.389999 1.0380531e-20)
(91.03768 24.361353 0)
(91.03 24.39 2.6624473e-24)
(91.03 24.39 0)
(91.03 24.39 -2.2461853e-21)
(91.03 24.39 8.1303274e-21)
(91.03 24.39 0)
(91.03 24.39 3.3236473e-21)
(91.03 24.39 -3.6618312e-25)
(91.03 24.39 3.0768921e-24)
(91.03 24.39 5.6280139e-21)
(91.03 24.39 -5.0234128e-21)
(91.03 24.39 -4.369506e-24)
(91.03 24.39 3.8856282e-24)
(91.03 24.39 -7.0648879e-21)
(91.03 24.39 0)
(91.03 24.39 0)
(91.03 24.39 0)
(91.03 24.39 8.6292086e-21)
(91.03 24.39 -7.5941035e-21)
(91.03 24.39 -6.685307e-21)
(91.03 24.39 5.8642796e-21)
(91.03 24.39 -1.0277032e-20)
(91.03 24.39 -4.3902016e-24)
(91.03 24.39 -7.8503657e-21)
(91.03 24.39 0)
(91.03 24.39 -1.1934319e-20)
(91.03 24.39 -1.0375276e-20)
(91.037678 24.361351 -4.4026498e-24)
(91.03 24.39 2.9600284e-21)
(91.03 24.39 -2.6876263e-21)
(91.03 24.39 -2.385419e-24)
(91.03 24.39 0)
(91.03 24.39 -4.0140791e-21)
(91.03 24.39 -3.6347472e-21)
(91.03 24.39 0)
(91.03 24.39 -5.9319429e-21)
(91.03 24.39 5.3489812e-21)
(91.03 24.39 1.1760035e-24)
(91.03 24.39 -4.334934e-21)
(91.03 24.39 -3.8880698e-21)
(91.03 24.39 -3.4880806e-21)
(91.03 24.39 0)
(91.03 24.39 -5.5838496e-21)
(91.03 24.39 0)
(91.03 24.39 4.4412706e-21)
(91.03 24.39 -3.85873e-24)
(91.03 24.39 6.8549044e-24)
(91.03 24.39 -3.0393062e-24)
(91.03 24.39 0)
(91.03 24.39 0)
(91.03 24.39 0)
(91.03 24.39 7.5708753e-21)
(91.03 24.39 0)
(91.03 24.39 0)
(91.03 24.39 1.0250049e-20)
(91.03 24.39 4.3806724e-24)
(91.03 24.39 1.5673434e-20)
(91.03 24.39 3.3407808e-24)
(91.03 24.39 0)
(91.03 24.389999 -5.0660648e-24)
(91.037681 24.361337 4.4022258e-24)
(91.03 24.39 -6.2709312e-24)
(91.03 24.39 1.1412247e-23)
(91.03 24.39 -2.5937049e-24)
(91.03 24.39 -2.4169229e-21)
(91.03 24.39 2.1373392e-24)
(91.03 24.39 0)
(91.03 24.39 3.5918649e-21)
(91.03 24.39 1.9824986e-25)
(91.03 24.39 5.8673182e-21)
(91.03 24.39 -5.2927681e-21)
(91.03 24.39 -4.7681159e-21)
(91.03 24.39 4.2895491e-21)
(91.03 24.39 3.8517313e-21)
(91.03 24.39 3.4603314e-21)
(91.03 24.39 6.1915724e-21)
(91.03 24.39 -5.5360909e-21)
(91.03 24.39 4.9435029e-21)
(91.03 24.39 4.3061075e-24)
(91.03 24.39 -3.8328524e-24)
(91.03 24.39 0)
(91.03 24.39 -1.2377078e-20)
(91.03 24.39 5.4865661e-21)
(91.03 24.39 -4.7330963e-24)
(91.03 24.39 8.5611015e-21)
(91.03 24.39 -3.6822676e-24)
(91.03 24.39 0)
(91.03 24.39 5.6920694e-24)
(91.03 24.39 -4.9921351e-24)
(91.03 24.39 0)
(91.03 24.39 -7.8273371e-21)
(91.03 24.39 -6.673083e-24)
(91.03 24.39 -1.1907558e-20)
(91.03 24.39 1.0370422e-20)
(91.037671 24.361334 0)
(91.03 24.39 -6.1908099e-24)
(91.03 24.39 5.634472e-24)
(91.03 24.39 -1.0247235e-23)
(91.03 24.39 2.3878593e-21)
(91.03 24.39 0)
(91.03 24.39 0)
(91.03 24.39 -3.5518023e-21)
(91.03 24.39 0)
(91.03 24.39 -5.8058037e-21)
(91.03 24.39 -6.3952476e-25)
(91.03 24.39 4.72194e-21)
(91.03 24.39 0)
(91.03 24.39 0)
(91.03 24.39 1.6733995e-24)
(91.03 24.39 -6.1436231e-21)
(91.03 24.39 5.4955331e-21)
(91.03 24.39 2.397158e-24)
(91.03 24.39 -4.3766857e-21)
(91.03 24.39 -7.6158402e-24)
(91.03 24.39 6.9366788e-21)
(91.03 24.39 6.1508275e-21)
(91.03 24.39 -5.4556455e-21)
(91.03 24.39 9.6525003e-21)
(91.03 24.39 -8.5247032e-21)
(91.03 24.39 3.6682665e-24)
(91.03 24.39 0)
(91.03 24.39 0)
(91.03 24.39 0)
(91.03 24.39 4.3623801e-24)
(91.03 24.39 -7.8145242e-21)
(91.03 24.39 6.821495e-21)
(91.03 24.39 0)
(91.03 24.39 -2.0731394e-20)
(91.03766 24.361349 -9.0141882e-21)
(91.03 24.39 -1.5591755e-21)
(91.03 24.39 0)
(91.03 24.39 0)
(91.03 24.39 -2.3554896e-21)
(91.03 24.39 -2.1383522e-21)
(91.03 24.39 -1.893762e-24)
(91.03 24.39 3.5160544e-21)
(91.03 24.39 -3.1800312e-21)
(91.03 24.39 2.8733742e-21)
(91.03 24.39 0)
(91.03 24.39 -1.1417401e-24)
(91.03 24.39 -4.2093242e-21)
(91.03 24.39 3.7835163e-21)
(91.03 24.39 1.6593971e-24)
(91.03 24.39 6.0901514e-21)
(91.03 24.39 5.4592365e-21)
(91.03 24.39 -4.8742182e-21)
(91.03 24.39 2.1236802e-24)
(91.03 24.39 -3.783869e-24)
(91.03 24.39 -1.3784985e-20)
(91.03 24.39 0)
(91.03 24.39 0)
(91.03 24.39 -9.6036627e-21)
(91.03 24.39 4.1432367e-24)
(91.03 24.39 0)
(91.03 24.39 -3.2184681e-24)
(91.03 24.39 5.6593578e-24)
(91.03 24.39 -4.9676748e-24)
(91.03 24.39 4.3536561e-24)
(91.03 24.39 7.7982129e-21)
(91.03 24.39 -1.3626643e-20)
(91.03 24.39 1.1893725e-20)
(91.03 24.39 1.0361154e-20)
(91.037673 24.36138 9.0090449e-21)
(91.03 24.39 1.8681945e-21)
(91.03 24.39 0)
(91.03 24.39 3.0932203e-21)
(91.03 24.39 0)
(91.03 24.39 0)
(91.03 24.39 2.3289882e-21)
(91.03 24.39 2.1148519e-21)
(91.03 24.39 -1.8734552e-24)
(91.03 24.39 1.6976411e-24)
(91.03 24.39 6.2939715e-21)
(91.03 24.39 -2.8450483e-21)
(91.03 24.39 5.8800903e-25)
(91.03 24.39 -1.6968703e-24)
(91.03 24.39 4.1731089e-21)
(91.03 24.39 -3.7523289e-21)
(91.03 24.39 0)
(91.03 24.39 -6.0459115e-21)
(91.03 24.39 -5.413776e-21)
(91.03 24.39 0)
(91.03 24.39 4.3250282e-21)
(91.03 24.39 0)
(91.03 24.39 -3.3462399e-24)
(91.03 24.39 0)
(91.03 24.39 0)
(91.03 24.39 0)
(91.03 24.39 0)
(91.03 24.39 -3.6415156e-24)
(91.03 24.39 3.208222e-24)
(91.03 24.39 0)
(91.03 24.39 -4.9559649e-24)
(91.03 24.39 4.3451505e-24)
(91.03 24.39 3.803631e-24)
(91.03 24.39 6.8119645e-21)
(91.03 24.39 -5.8028566e-24)
(91.03 24.39 0)
(91.037685 24.361377 0)
(91.03 24.389999 8.6143218e-24)
(91.03 24.389999 -7.8686063e-24)
(91.03 24.39 -1.8387509e-21)
(91.03 24.39 -1.6838062e-21)
(91.03 24.39 -3.0455883e-21)
(91.03 24.39 -5.4386957e-24)
(91.03 24.39 0)
(91.03 24.39 0)
(91.03 24.39 2.0923297e-21)
(91.03 24.39 -1.8539996e-24)
(91.03 24.39 1.6804671e-24)
(91.03 24.39 -3.1160354e-21)
(91.03 24.39 2.817963e-21)
(91.03 24.39 0)
(91.03 24.39 4.5934185e-21)
(91.03 24.39 -2.0201745e-24)
(91.03 24.39 -3.7196279e-21)
(91.03 24.39 -1.6329539e-24)
(91.03 24.39 -2.9299075e-24)
(91.03 24.39 5.2491624e-24)
(91.03 24.39 4.8052834e-21)
(91.03 24.39 -4.2932954e-21)
(91.03 24.39 0)
(91.03 24.39 6.8116234e-21)
(91.03 24.39 2.9572683e-24)
(91.03 24.39 -5.3735248e-21)
(91.03 24.39 0)
(91.03 24.39 -8.4180176e-21)
(91.03 24.39 -7.4316515e-21)
(91.03 24.39 0)
(91.03 24.39 5.6284644e-24)
(91.03 24.39 -4.9445717e-24)
(91.03 24.39 -4.3368709e-24)
(91.03 24.39 3.7978515e-24)
(91.03 24.39 0)
(91.03 24.39 5.798345e-24)
(91.03 24.389999 -5.0548673e-24)
(91.037674 24.36137 0)
(91.03 24.389999 -1.0180708e-23)
(91.03 24.389999 2.3745895e-21)
(91.03 24.389999 2.1877596e-21)
(91.03 24.389999 7.7769751e-24)
(91.03 24.39 -7.1000377e-24)
(91.03 24.39 1.6582685e-21)
(91.03 24.39 1.5117495e-21)
(91.03 24.39 -2.7541398e-21)
(91.03 24.39 -2.5066938e-21)
(91.03 24.39 0)
(91.03 24.39 0)
(91.03 24.39 -3.7589153e-21)
(91.03 24.39 0)
(91.03 24.39 0)
(91.03 24.39 0)
(91.03 24.39 5.045175e-21)
(91.03 24.39 -9.1043105e-21)
(91.03 24.39 -4.1039718e-21)
(91.03 24.39 7.3871596e-21)
(91.03 24.39 -1.6204922e-24)
(91.03 24.39 0)
(91.03 24.39 0)
(91.03 24.39 -4.7784406e-21)
(91.03 24.39 2.0833956e-24)
(91.03 24.39 -3.7165506e-24)
(91.03 24.39 3.3096252e-24)
(91.03 24.39 -6.0261332e-21)
(91.03 24.39 0)
(91.03 24.39 4.6285763e-24)
(91.03 24.39 8.3818019e-21)
(91.03 24.39 1.4812587e-20)
(91.03 24.39 6.5302704e-21)
(91.03 24.39 -5.6137114e-24)
(91.03 24.39 -1.0098964e-20)
(91.03 24.39 0)
(91.03 24.39 7.7627502e-21)
(91.03 24.39 3.3170375e-24)
(91.03 24.39 5.794011e-24)
(91.03 24.39 1.0338099e-20)
(91.037674 24.361367 4.4001952e-24)
(91.03 24.390001 0)
(91.03 24.389999 -1.3851497e-21)
(91.03 24.389999 -1.0061975e-23)
(91.03 24.389999 -1.1966028e-21)
(91.03 24.389999 1.6831041e-23)
(91.03 24.389999 0)
(91.03 24.39 -1.7974427e-21)
(91.03 24.39 -6.4068065e-24)
(91.03 24.39 1.5013268e-21)
(91.03 24.39 2.714408e-21)
(91.03 24.39 2.4855417e-21)
(91.03 24.39 -2.2562747e-21)
(91.03 24.39 2.0022181e-24)
(91.03 24.39 7.4449452e-21)
(91.03 24.39 -1.648321e-24)
(91.03 24.39 -7.4659066e-25)
(91.03 24.39 6.7555141e-25)
(91.03 24.39 -5.0018609e-21)
(91.03 24.39 4.5160932e-21)
(91.03 24.39 -9.9363929e-25)
(91.03 24.39 -3.6659313e-21)
(91.03 24.39 -6.588372e-21)
(91.03 24.39 5.916113e-21)
(91.03 24.39 0)
(91.03 24.39 -4.745746e-21)
(91.03 24.39 4.2453833e-21)
(91.03 24.39 7.5613072e-21)
(91.03 24.39 -6.7392614e-21)
(91.03 24.39 5.9968155e-21)
(91.03 24.39 5.3248234e-21)
(91.03 24.39 0)
(91.03 24.39 -8.3548086e-21)
(91.03 24.39 -7.3816794e-21)
(91.03 24.39 -6.5174587e-21)
(91.03 24.39 5.5993499e-24)
(91.03 24.39 1.0081911e-20)
(91.03 24.39 8.8494879e-21)
(91.03 24.39 0)
(91.03 24.39 0)
(91.03 24.39 0)
(91.03 24.389999 -1.0349226e-20)
(91.037677 24.361351 4.3999349e-24)
(91.029999 24.390002 2.8256656e-23)
(91.029999 24.390002 8.2886378e-22)
(91.03 24.390001 -2.3733069e-23)
(91.03 24.389999 1.412822e-21)
(91.03 24.389999 -1.989671e-23)
(91.03 24.389999 0)
(91.03 24.389999 -2.1305588e-21)
(91.03 24.389999 1.946997e-21)
(91.03 24.39 1.7781302e-21)
(91.03 24.39 0)
(91.03 24.39 -1.4799082e-21)
(91.03 24.39 2.6971387e-21)
(91.03 24.39 -2.4557757e-21)
(91.03 24.39 0)
(91.03 24.39 -2.0304964e-21)
(91.03 24.39 -3.6874628e-21)
(91.03 24.39 3.3431563e-21)
(91.03 24.39 1.4798507e-24)
(91.03 24.39 1.6742294e-25)
(91.03 24.39 -1.5135421e-25)
(91.03 24.39 4.4786469e-21)
(91.03 24.39 4.0376788e-21)
(91.03 24.39 -1.7757059e-24)
(91.03 24.39 6.5409801e-21)
(91.03 24.39 -5.8726288e-21)
(91.03 24.39 0)
(91.03 24.39 4.7163944e-21)
(91.03 24.39 -4.2123877e-21)
(91.03 24.39 -7.3508846e-24)
(91.03 24.39 3.275444e-24)
(91.03 24.39 -2.9142562e-24)
(91.03 24.39 -5.2989561e-21)
(91.03 24.39 0)
(91.03 24.39 8.3205445e-21)
(91.03 24.39 3.5926634e-24)
(91.03 24.39 6.4924765e-21)
(91.03 24.39 0)
(91.03 24.39 1.0060466e-20)
(91.03 24.39 -8.8338906e-21)
(91.03 24.39 -7.7445232e-21)
(91.03 24.39 -6.6199411e-24)
(91.03 24.39 -1.1843255e-20)
(91.03 24.39 0)
(91.037668 24.361348 -9.0106057e-21)
(91.029999 24.390001 3.0461476e-23)
(91.029999 24.390002 0)
(91.029999 24.390002 -5.1220674e-23)
(91.03 24.390001 1.5019598e-21)
(91.03 24.389999 2.149535e-23)
(91.03 24.389999 0)
(91.03 24.389999 -1.8006468e-23)
(91.03 24.389999 -2.0830485e-21)
(91.03 24.389999 -3.867885e-21)
(91.03 24.39 1.766465e-21)
(91.03 24.39 -1.5998217e-21)
(91.03 24.39 2.9241738e-21)
(91.03 24.39 -2.6755466e-21)
(91.03 24.39 4.7497029e-24)
(91.03 24.39 0)
(91.03 24.39 3.928723e-24)
(91.03 24.39 -3.5681291e-24)
(91.03 24.39 0)
(91.03 24.39 -3.0051765e-21)
(91.03 24.39 6.6405426e-25)
(91.03 24.39 4.9194263e-21)
(91.03 24.39 -4.443618e-21)
(91.03 24.39 4.8919905e-25)
(91.03 24.39 0)
(91.03 24.39 0)
(91.03 24.39 0)
(91.03 24.39 0)
(91.03 24.39 0)
(91.03 24.39 0)
(91.03 24.39 0)
(91.03 24.39 1.3349427e-20)
(91.03 24.39 2.9007967e-24)
(91.03 24.39 1.0555393e-20)
(91.03 24.39 0)
(91.03 24.39 0)
(91.03 24.39 0)
(91.03 24.39 -6.4806508e-21)
(91.03 24.39 1.1143632e-23)
(91.03 24.39 -1.0044553e-20)
(91.03 24.39 0)
(91.03 24.39 7.7338829e-21)
(91.03 24.39 1.3543746e-20)
(91.03 24.39 -5.7816527e-24)
(91.03 24.39 -1.0336469e-20)
(91.037658 24.361361 9.0145351e-21)
(91.03 24.39 -5.7235428e-22)
(91.03 24.39 -1.0506319e-21)
(91.029999 24.390001 0)
(91.029999 24.390002 2.7628795e-23)
(91.029999 24.390002 -2.5330474e-23)
(91.03 24.390001 1.4857002e-21)
(91.03 24.389999 0)
(91.03 24.389999 1.9469862e-23)
(91.03 24.389999 1.1224905e-21)
(91.03 24.389999 8.1479245e-24)
(91.03 24.389999 0)
(91.03 24.39 0)
(91.03 24.39 -1.5962802e-21)
(91.03 24.39 -2.9011373e-21)
(91.03 24.39 -2.6445737e-21)
(91.03 24.39 0)
(91.03 24.39 0)
(91.03 24.39 0)
(91.03 24.39 0)
(91.03 24.39 -3.2862908e-21)
(91.03 24.39 2.979856e-21)
(91.03 24.39 2.6970696e-21)
(91.03 24.39 -4.8801133e-21)
(91.03 24.39 -4.4087763e-21)
(91.03 24.39 0)
(91.03 24.39 0)
(91.03 24.39 0)
(91.03 24.39 0)
(91.03 24.39 0)
(91.03 24.39 -2.2756298e-24)
(91.03 24.39 2.0358124e-24)
(91.03 24.39 -7.448214e-21)
(91.03 24.39 -6.6423086e-21)
(91.03 24.39 -2.887741e-24)
(91.03 24.39 -5.2544878e-21)
(91.03 24.39 4.555981e-24)
(91.03 24.39 0)
(91.03 24.39 -3.5702566e-24)
(91.03 24.39 0)
(91.03 24.39 5.5585851e-24)
(91.03 24.39 -9.7845195e-24)
(91.03 24.39 4.2987772e-24)
(91.03 24.39 -7.7235317e-21)
(91.03 24.39 -1.3536754e-20)
(91.03 24.39 1.1838597e-20)
(91.03 24.39 1.0332818e-20)
(91.037671 24.36139 0)
(91.03 24.390001 -7.7645162e-22)
(91.03 24.390001 -1.342684e-21)
(91.03 24.390001 3.8536358e-23)
(91.03 24.39 4.9535506e-22)
(91.03 24.39 1.1042119e-21)
(91.029999 24.390001 -2.9799875e-23)
(91.029999 24.390002 -8.7468155e-22)
(91.03 24.390002 8.0198767e-22)
(91.03 24.390001 -1.4700919e-21)
(91.03 24.389999 0)
(91.03 24.389999 0)
(91.03 24.389999 1.7635506e-23)
(91.03 24.389999 -1.6131701e-23)
(91.03 24.389999 0)
(91.03 24.39 -1.731415e-21)
(91.03 24.39 3.1554841e-21)
(91.03 24.39 2.8734798e-21)
(91.03 24.39 2.6197763e-21)
(91.03 24.39 2.3819547e-21)
(91.03 24.39 -2.1681398e-21)
(91.03 24.39 1.971788e-21)
(91.03 24.39 3.5059186e-24)
(91.03 24.39 3.2602246e-21)
(91.03 24.39 -2.1641048e-24)
(91.03 24.39 6.5338137e-25)
(91.03 24.39 0)
(91.03 24.39 4.3758665e-21)
(91.03 24.39 0)
(91.03 24.39 -3.5578642e-21)
(91.03 24.39 -3.128982e-24)
(91.03 24.39 -5.758725e-21)
(91.03 24.39 2.5245132e-24)
(91.03 24.39 -2.2626144e-24)
(91.03 24.39 0)
(91.03 24.39 -7.410445e-21)
(91.03 24.39 -3.2279504e-24)
(91.03 24.39 2.8750355e-24)
(91.03 24.39 0)
(91.03 24.39 0)
(91.03 24.39 -8.2389322e-21)
(91.03 24.39 3.5594989e-24)
(91.03 24.39 -6.4425664e-21)
(91.03 24.39 1.1357554e-20)
(91.03 24.39 0)
(91.03 24.39 0)
(91.03 24.39 3.7663222e-24)
(91.03 24.39 1.351354e-20)
(91.03 24.39 -5.7739131e-24)
(91.03 24.39 5.0435727e-24)
(91.037682 24.361387 0)
(91.03 24.390001 0)
(91.03 24.39 0)
(91.03 24.390001 7.6811378e-22)
(91.03 24.390001 -4.1510061e-23)
(91.03 24.390001 0)
(91.03 24.39 -1.1202675e-21)
(91.03 24.39 0)
(91.029999 24.390001 0)
(91.029999 24.390002 -2.7050477e-23)
(91.03 24.390002 2.4804271e-23)
(91.03 24.390001 0)
(91.03 24.389999 0)
(91.03 24.389999 0)
(91.03 24.389999 -1.1174793e-21)
(91.03 24.389999 2.0286677e-21)
(91.03 24.389999 1.4604998e-23)
(91.03 24.39 -6.6727003e-24)
(91.03 24.39 -1.5537636e-21)
(91.03 24.39 -2.8524015e-21)
(91.03 24.39 5.0701297e-24)
(91.03 24.39 0)
(91.03 24.39 2.149125e-21)
(91.03 24.39 -1.9548508e-21)
(91.03 24.39 0)
(91.03 24.39 -1.5780959e-24)
(91.03 24.39 0)
(91.03 24.39 -5.3100127e-21)
(91.03 24.39 4.806432e-21)
(91.03 24.39 0)
(91.03 24.39 3.9215497e-21)
(91.03 24.39 0)
(91.03 24.39 0)
(91.03 24.39 1.1451952e-20)
(91.03 24.39 -5.0193204e-24)
(91.03 24.39 2.2499899e-24)
(91.03 24.39 0)
(91.03 24.39 0)
(91.03 24.39 3.2130211e-24)
(91.03 24.39 -5.7253711e-24)
(91.03 24.39 5.2175237e-21)
(91.03 24.39 -4.5226199e-24)
(91.03 24.39 8.0193423e-24)
(91.03 24.39 -3.5490055e-24)
(91.03 24.39 6.4226204e-21)
(91.03 24.39 -1.1326167e-20)
(91.03 24.39 -4.8730713e-24)
(91.03 24.39 4.2848101e-24)
(91.03 24.39 -3.761504e-24)
(91.03 24.39 -1.3503874e-20)
(91.03 24.39 -1.1811588e-20)
(91.03 24.389999 -5.041856e-24)
(91.03767 24.361379 0)
(91.03 24.390005 6.807889e-23)
(91.03 24.390003 -5.0089821e-22)
(91.03 24.390001 -5.7574589e-23)
(91.03 24.390001 -4.2345743e-22)
(91.03 24.39 0)
(91.03 24.390001 0)
(91.03 24.390001 -4.1079096e-23)
(91.03 24.390001 6.4145063e-22)
(91.03 24.39 1.6977769e-21)
(91.03 24.39 -3.1807038e-23)
(91.029999 24.390001 2.9189461e-23)
(91.029999 24.390002 1.6870134e-21)
(91.03 24.390001 -1.5961602e-21)
(91.03 24.39 -1.4181294e-21)
(91.03 24.389999 2.0625666e-23)
(91.03 24.389999 -3.7780785e-23)
(91.03 24.389999 3.4584745e-23)
(91.03 24.389999 -1.5821647e-23)
(91.03 24.389999 1.851854e-21)
(91.03 24.39 0)
(91.03 24.39 6.0374275e-24)
(91.03 24.39 -1.1020281e-23)
(91.03 24.39 5.025196e-24)
(91.03 24.39 0)
(91.03 24.39 0)
(91.03 24.39 -3.7935284e-24)
(91.03 24.39 3.5342571e-21)
(91.03 24.39 -6.4123108e-21)
(91.03 24.39 -2.9083736e-21)
(91.03 24.39 2.6360895e-21)
(91.03 24.39 -4.7715373e-21)
(91.03 24.39 -5.2652731e-25)
(91.03 24.39 -3.8942796e-21)
(91.03 24.39 3.5106226e-21)
(91.03 24.39 0)
(91.03 24.39 -5.6859105e-21)
(91.03 24.39 -2.4952548e-24)
(91.03 24.39 0)
(91.03 24.39 0)
(91.03 24.39 7.334554e-21)
(91.03 24.39 0)
(91.03 24.39 2.8506889e-24)
(91.03 24.39 -1.5584447e-20)
(91.03 24.39 0)
(91.03 24.39 1.6370916e-20)
(91.03 24.39 0)
(91.03 24.39 -6.4062304e-21)
(91.03 24.39 1.1306553e-20)
(91.03 24.39 0)
(91.03 24.39 -8.7615412e-21)
(91.03 24.39 0)
(91.03 24.39 -1.3491271e-20)
(91.03 24.39 1.1809967e-20)
(91.03 24.39 0)
(91.037672 24.361375 -9.0086859e-21)
(91.029999 24.389996 1.0215778e-22)
(91.03 24.390001 -1.8804281e-22)
(91.03 24.390006 -2.5957566e-22)
(91.03 24.390009 5.5730616e-22)
(91.03 24.390008 7.3247458e-23)
(91.03 24.390005 0)
(91.03 24.390002 4.9576182e-22)
(91.03 24.390001 -5.698566e-23)
(91.03 24.390001 4.1914579e-22)
(91.03 24.39 0)
(91.03 24.390001 4.4260545e-23)
(91.03 24.390001 1.3013318e-21)
(91.03 24.39 -5.9768136e-22)
(91.03 24.39 -1.0634223e-21)
(91.03 24.390001 -3.1492593e-23)
(91.029999 24.390001 0)
(91.029999 24.390002 0)
(91.03 24.390001 0)
(91.03 24.39 1.4268073e-21)
(91.03 24.389999 0)
(91.03 24.389999 0)
(91.03 24.389999 -1.0963885e-21)
(91.03 24.389999 0)
(91.03 24.389999 0)
(91.03 24.39 -6.5512584e-24)
(91.03 24.39 5.983844e-24)
(91.03 24.39 0)
(91.03 24.39 2.5557991e-21)
(91.03 24.39 -2.3294647e-21)
(91.03 24.39 0)
(91.03 24.39 -3.853079e-21)
(91.03 24.39 0)
(91.03 24.39 3.1829026e-21)
(91.03 24.39 2.8850433e-21)
(91.03 24.39 0)
(91.03 24.39 4.7370499e-21)
(91.03 24.39 0)
(91.03 24.39 -3.868887e-21)
(91.03 24.39 1.7040609e-24)
(91.03 24.39 -1.5351132e-24)
(91.03 24.39 -2.7620843e-24)
(91.03 24.39 -5.076805e-21)
(91.03 24.39 -4.5608689e-21)
(91.03 24.39 -3.9875312e-24)
(91.03 24.39 3.5662264e-24)
(91.03 24.39 6.5249393e-21)
(91.03 24.39 0)
(91.03 24.39 2.5269693e-24)
(91.03 24.39 -9.1976502e-21)
(91.03 24.39 -8.1638176e-21)
(91.03 24.39 7.2270377e-21)
(91.03 24.39 1.2780539e-20)
(91.03 24.39 -1.1276606e-20)
(91.03 24.39 9.9427737e-21)
(91.03 24.39 8.7396018e-21)
(91.03 24.39 -7.677066e-21)
(91.03 24.39 1.3475672e-20)
(91.03 24.39 0)
(91.03 24.389999 0)
(91.037674 24.361358 1.8016788e-20)
(91.029999 24.389996 1.0112594e-22)
(91.03 24.390001 -9.3074969e-23)
(91.03 24.390006 4.282775e-22)
(91.03 24.390009 -7.8817144e-23)
(91.03 24.390008 7.251482e-23)
(91.03 24.390005 0)
(91.03 24.390002 4.2948269e-22)
(91.03 24.390001 5.6421071e-23)
(91.03 24.390001 4.6688346e-22)
(91.03 24.39 -4.7687181e-23)
(91.03 24.390001 7.0124073e-22)
(91.03 24.390001 -1.2483895e-21)
(91.03 24.39 -6.2888367e-22)
(91.03 24.39 -3.3973097e-23)
(91.03 24.390001 3.1190636e-23)
(91.029999 24.390001 -2.8627342e-23)
(91.029999 24.390001 -8.1423502e-22)
(91.03 24.390001 7.7089006e-22)
(91.03 24.39 0)
(91.03 24.389999 0)
(91.03 24.389999 0)
(91.03 24.389999 2.1729444e-21)
(91.03 24.389999 0)
(91.03 24.389999 0)
(91.03 24.39 1.6624713e-21)
(91.03 24.39 1.5246192e-21)
(91.03 24.39 -5.4156863e-24)
(91.03 24.39 -2.5295347e-21)
(91.03 24.39 2.3013437e-21)
(91.03 24.39 4.1020344e-24)
(91.03 24.39 7.6491905e-21)
(91.03 24.39 -6.9550459e-21)
(91.03 24.39 0)
(91.03 24.39 -1.3990827e-24)
(91.03 24.39 2.5987831e-21)
(91.03 24.39 -3.5891066e-26)
(91.03 24.39 5.5186789e-25)
(91.03 24.39 3.8434698e-21)
(91.03 24.39 0)
(91.03 24.39 -1.525971e-24)
(91.03 24.39 -5.6231185e-21)
(91.03 24.39 5.0541543e-21)
(91.03 24.39 9.0702943e-21)
(91.03 24.39 8.1266725e-21)
(91.03 24.39 -7.2666201e-21)
(91.03 24.39 -6.4970146e-21)
(91.03 24.39 0)
(91.03 24.39 -5.0353601e-24)
(91.03 24.39 4.4759218e-24)
(91.03 24.39 3.9721048e-24)
(91.03 24.39 -7.2072311e-21)
(91.03 24.39 -6.3779039e-21)
(91.03 24.39 -5.4971749e-24)
(91.03 24.39 -9.920003e-21)
(91.03 24.39 -8.7350506e-21)
(91.03 24.39 7.6753982e-21)
(91.03 24.39 6.575666e-24)
(91.03 24.39 -5.7596089e-24)
(91.03 24.39 0)
(91.037667 24.361355 -9.0081862e-21)
(91.03 24.390003 0)
(91.03 24.390003 -1.5137863e-22)
(91.03 24.390002 -1.3939229e-22)
(91.03 24.390001 0)
(91.029999 24.389996 0)
(91.029999 24.389994 1.0878095e-22)
(91.029999 24.389996 0)
(91.03 24.390001 9.2164266e-23)
(91.03 24.390006 3.3927515e-22)
(91.03 24.39001 -3.1219626e-22)
(91.03 24.390008 -2.8724086e-22)
(91.03 24.390005 6.6059957e-23)
(91.03 24.390002 -4.8609475e-22)
(91.03 24.390001 -5.5878271e-23)
(91.03 24.390001 5.1378662e-23)
(91.03 24.39 -8.0293934e-22)
(91.03 24.390001 -6.9456431e-22)
(91.03 24.390001 6.3821988e-22)
(91.03 24.39 5.4966652e-22)
(91.03 24.39 -1.0769462e-21)
(91.029999 24.390001 3.08999e-23)
(91.029999 24.390001 9.0758364e-22)
(91.029999 24.390001 0)
(91.03 24.390001 0)
(91.03 24.39 0)
(91.03 24.389999 -1.3038491e-21)
(91.03 24.389999 1.8376344e-23)
(91.03 24.389999 0)
(91.03 24.389999 0)
(91.03 24.389999 0)
(91.03 24.39 -3.2966943e-21)
(91.03 24.39 0)
(91.03 24.39 -5.3709993e-24)
(91.03 24.39 0)
(91.03 24.39 4.467668e-24)
(91.03 24.39 -2.0838004e-21)
(91.03 24.39 -3.7971463e-21)
(91.03 24.39 3.3688999e-24)
(91.03 24.39 -1.5304276e-24)
(91.03 24.39 1.3891079e-24)
(91.03 24.39 0)
(91.03 24.39 -4.672597e-21)
(91.03 24.39 0)
(91.03 24.39 3.8197454e-21)
(91.03 24.39 -3.4472087e-21)
(91.03 24.39 1.5170962e-24)
(91.03 24.39 1.1184965e-20)
(91.03 24.39 0)
(91.03 24.39 -4.5123212e-21)
(91.03 24.39 0)
(91.03 24.39 7.2376423e-21)
(91.03 24.39 6.4698624e-21)
(91.03 24.39 -2.8167031e-24)
(91.03 24.39 1.0275372e-20)
(91.03 24.39 9.1365277e-21)
(91.03 24.39 0)
(91.03 24.39 3.5097246e-24)
(91.03 24.39 -6.3627653e-21)
(91.03 24.39 0)
(91.03 24.39 0)
(91.03 24.39 -4.2589366e-24)
(91.03 24.39 7.4867685e-24)
(91.03 24.39 1.34454e-20)
(91.03 24.39 1.1512526e-23)
(91.03 24.39 -5.0355883e-24)
(91.03766 24.361366 0)
(91.03 24.390003 1.6280082e-22)
(91.03 24.390003 1.4992174e-22)
(91.03 24.390002 2.7610867e-22)
(91.03 24.390001 0)
(91.029999 24.389996 0)
(91.029999 24.389994 0)
(91.029999 24.389996 0)
(91.03 24.390001 -9.1286142e-23)
(91.03 24.390007 8.4012443e-23)
(91.03 24.39001 3.0923541e-22)
(91.03 24.390008 3.5565465e-22)
(91.03 24.390005 4.5806457e-22)
(91.03 24.390002 0)
(91.03 24.390001 -4.4283944e-22)
(91.03 24.390001 -8.1438817e-22)
(91.03 24.39 1.5441603e-21)
(91.03 24.390001 0)
(91.03 24.390001 -7.9042468e-23)
(91.03 24.39 3.6308474e-23)
(91.03 24.39 3.3347861e-23)
(91.029999 24.390001 -6.1240039e-23)
(91.029999 24.390001 2.8106578e-23)
(91.029999 24.390001 -8.253239e-22)
(91.03 24.390001 0)
(91.03 24.39 1.3883923e-21)
(91.03 24.389999 2.5451464e-21)
(91.03 24.389999 1.8217221e-23)
(91.03 24.389999 -1.0843627e-21)
(91.03 24.389999 0)
(91.03 24.389999 0)
(91.03 24.39 0)
(91.03 24.39 -1.4936854e-21)
(91.03 24.39 0)
(91.03 24.39 -2.484274e-21)
(91.03 24.39 -4.4329889e-24)
(91.03 24.39 2.0679112e-21)
(91.03 24.39 -3.7614228e-21)
(91.03 24.39 -3.3442776e-24)
(91.03 24.39 0)
(91.03 24.39 1.3794486e-24)
(91.03 24.39 -2.5633041e-21)
(91.03 24.39 4.6419093e-21)
(91.03 24.39 4.2003298e-21)
(91.03 24.39 -3.79627e-21)
(91.03 24.39 3.4268318e-21)
(91.03 24.39 -6.1802671e-21)
(91.03 24.39 -5.5641647e-21)
(91.03 24.39 4.8841154e-24)
(91.03 24.39 -4.492307e-21)
(91.03 24.39 -8.0543659e-21)
(91.03 24.39 7.2095265e-21)
(91.03 24.39 -1.2880444e-20)
(91.03 24.39 5.7467038e-21)
(91.03 24.39 0)
(91.03 24.39 -4.446842e-24)
(91.03 24.39 3.9487002e-24)
(91.03 24.39 7.1656075e-21)
(91.03 24.39 -3.0980775e-24)
(91.03 24.39 5.4746869e-24)
(91.03 24.39 -4.8292484e-24)
(91.03 24.39 1.7423883e-20)
(91.03 24.39 0)
(91.03 24.39 -1.3450341e-20)
(91.03 24.39 -1.1770636e-20)
(91.03 24.39 -1.0068257e-23)
(91.037672 24.36139 9.0121701e-21)
(91.03 24.390003 0)
(91.03 24.390003 0)
(91.03 24.390002 -5.4705941e-22)
(91.03 24.390001 2.5185964e-22)
(91.029999 24.389996 -1.1594384e-22)
(91.029999 24.389994 -1.0674129e-22)
(91.029999 24.389996 1.9651624e-22)
(91.029999 24.390001 9.0440834e-23)
(91.03 24.390007 -6.658893e-22)
(91.03 24.39001 -3.0638432e-22)
(91.03 24.390009 7.047694e-23)
(91.03 24.390005 -6.4837816e-23)
(91.03 24.390002 -5.964076e-23)
(91.03 24.390001 9.3245985e-22)
(91.03 24.390001 4.0349715e-22)
(91.03 24.39 -1.4838248e-21)
(91.03 24.390001 0)
(91.03 24.390001 3.9167238e-23)
(91.03 24.39 5.7575194e-22)
(91.03 24.39 1.0245994e-21)
(91.029999 24.390001 0)
(91.029999 24.390001 -8.9152899e-22)
(91.029999 24.390001 0)
(91.03 24.390001 0)
(91.03 24.39 -1.3764687e-21)
(91.03 24.389999 -1.2814598e-21)
(91.03 24.389999 1.156071e-21)
(91.03 24.389999 0)
(91.03 24.389999 1.9686333e-21)
(91.03 24.389999 1.759536e-21)
(91.03 24.39 1.6215586e-21)
(91.03 24.39 0)
(91.03 24.39 0)
(91.03 24.39 4.9447426e-21)
(91.03 24.39 -4.3993962e-24)
(91.03 24.39 4.0088758e-24)
(91.03 24.39 3.7340005e-21)
(91.03 24.39 6.8003334e-21)
(91.03 24.39 0)
(91.03 24.39 1.3700914e-24)
(91.03 24.39 -1.2427377e-24)
(91.03 24.39 -9.2244936e-21)
(91.03 24.39 1.2738882e-25)
(91.03 24.39 9.2127779e-25)
(91.03 24.39 8.3180584e-25)
(91.03 24.39 1.2287553e-20)
(91.03 24.39 -2.701813e-24)
(91.03 24.39 -4.9711906e-21)
(91.03 24.39 -2.1819256e-24)
(91.03 24.39 8.0138845e-21)
(91.03 24.39 0)
(91.03 24.39 1.2828947e-20)
(91.03 24.39 -5.7281294e-21)
(91.03 24.39 2.4912393e-24)
(91.03 24.39 0)
(91.03 24.39 0)
(91.03 24.39 -7.1507157e-21)
(91.03 24.39 6.3304419e-21)
(91.03 24.39 5.4638697e-24)
(91.03 24.39 -9.6421489e-24)
(91.03 24.39 4.2468864e-24)
(91.03 24.39 0)
(91.03 24.39 0)
(91.03 24.39 1.1769886e-20)
(91.03 24.389999 -1.5804943e-31)
(91.037685 24.36138 -9.0032402e-21)
(91.03 24.390003 0)
(91.03 24.390003 1.4716957e-22)
(91.03 24.390002 -4.065627e-22)
(91.03 24.39 -1.2478614e-22)
(91.029999 24.389996 0)
(91.029999 24.389994 4.2310169e-22)
(91.029999 24.389996 -1.9474311e-22)
(91.029999 24.390001 8.9626416e-23)
(91.03 24.390007 6.5990514e-22)
(91.03 24.39001 0)
(91.03 24.390009 0)
(91.03 24.390005 0)
(91.03 24.390002 0)
(91.03 24.390001 -4.3491333e-22)
(91.03 24.390001 0)
(91.03 24.39 0)
(91.03 24.390001 4.224726e-23)
(91.03 24.390001 5.8237917e-22)
(91.03 24.39 -1.1415003e-21)
(91.03 24.390001 0)
(91.029999 24.390001 0)
(91.029999 24.390001 0)
(91.029999 24.390001 8.1119421e-22)
(91.03 24.390001 2.325628e-23)
(91.03 24.39 -2.1327414e-23)
(91.03 24.389999 -1.9551244e-23)
(91.03 24.389999 -1.1107479e-21)
(91.03 24.389999 -1.6408723e-23)
(91.03 24.389999 -1.922775e-21)
(91.03 24.389999 -1.745553e-21)
(91.03 24.39 0)
(91.03 24.39 0)
(91.03 24.39 -1.0491486e-23)
(91.03 24.39 0)
(91.03 24.39 -2.2358453e-21)
(91.03 24.39 0)
(91.03 24.39 0)
(91.03 24.39 -6.7531205e-21)
(91.03 24.39 0)
(91.03 24.39 0)
(91.03 24.39 0)
(91.03 24.39 4.5830348e-21)
(91.03 24.39 -4.148748e-21)
(91.03 24.39 0)
(91.03 24.39 3.3878793e-21)
(91.03 24.39 -6.1112637e-21)
(91.03 24.39 0)
(91.03 24.39 4.9490552e-21)
(91.03 24.39 4.4497853e-21)
(91.03 24.39 0)
(91.03 24.39 -7.1417639e-21)
(91.03 24.39 -1.2781982e-20)
(91.03 24.39 0)
(91.03 24.39 4.9657344e-24)
(91.03 24.39 -9.0593451e-21)
(91.03 24.39 0)
(91.03 24.39 7.1362403e-21)
(91.03 24.39 1.263277e-20)
(91.03 24.39 -5.4532817e-24)
(91.03 24.39 -9.8572041e-21)
(91.03 24.39 0)
(91.03 24.39 7.6446412e-21)
(91.03 24.39 0)
(91.03 24.39 5.7467123e-24)
(91.03 24.389999 -1.0309131e-20)
(91.037673 24.361359 0)
(91.03 24.390002 1.8672231e-22)
(91.03 24.390002 0)
(91.03 24.390003 0)
(91.03 24.390003 0)
(91.03 24.390002 2.6864222e-22)
(91.03 24.390001 2.4736578e-22)
(91.029999 24.389996 -3.4163446e-22)
(91.029999 24.389994 3.1452999e-22)
(91.029999 24.389996 0)
(91.029999 24.390001 -8.8839642e-23)
(91.03 24.390007 -2.4529671e-22)
(91.03 24.39001 0)
(91.03 24.390009 -6.9237613e-23)
(91.03 24.390005 -4.4590489e-22)
(91.03 24.390002 4.1018303e-22)
(91.03 24.390001 5.3893976e-23)
(91.03 24.39 3.9648402e-22)
(91.03 24.39 1.4581293e-21)
(91.03 24.390001 6.7018627e-22)
(91.03 24.390001 -6.1592146e-22)
(91.03 24.39 5.6591865e-22)
(91.03 24.390001 1.0396922e-21)
(91.029999 24.390001 -9.5478798e-22)
(91.029999 24.390001 0)
(91.029999 24.390001 0)
(91.03 24.390001 1.476187e-21)
(91.03 24.39 -2.1153924e-23)
(91.03 24.389999 1.2605693e-21)
(91.03 24.389999 0)
(91.03 24.389999 0)
(91.03 24.389999 -1.9077017e-21)
(91.03 24.389999 1.7456693e-21)
(91.03 24.39 0)
(91.03 24.39 0)
(91.03 24.39 0)
(91.03 24.39 -4.8717115e-21)
(91.03 24.39 2.2241006e-21)
(91.03 24.39 2.0232691e-21)
(91.03 24.39 0)
(91.03 24.39 3.3503636e-21)
(91.03 24.39 1.488759e-24)
(91.03 24.39 2.7693459e-21)
(91.03 24.39 1.2269721e-24)
(91.03 24.39 -4.5553377e-21)
(91.03 24.39 0)
(91.03 24.39 0)
(91.03 24.39 -3.3692128e-21)
(91.03 24.39 -6.0789499e-21)
(91.03 24.39 0)
(91.03 24.39 -4.9299686e-21)
(91.03 24.39 2.1617085e-24)
(91.03 24.39 0)
(91.03 24.39 7.112626e-21)
(91.03 24.39 6.3680599e-21)
(91.03 24.39 0)
(91.03 24.39 0)
(91.03 24.39 9.023219e-21)
(91.03 24.39 8.0192189e-21)
(91.03 24.39 -7.1117522e-21)
(91.03 24.39 -1.2608315e-20)
(91.03 24.39 5.4429242e-24)
(91.03 24.39 9.8412779e-21)
(91.03 24.39 -4.2353904e-24)
(91.03 24.39 -7.6327255e-21)
(91.03 24.39 0)
(91.03 24.39 1.1763031e-20)
(91.03 24.39 1.0301358e-20)
(91.037664 24.361356 0)
(91.030001 24.390012 1.0048022e-22)
(91.03 24.390002 0)
(91.03 24.390002 1.704897e-22)
(91.03 24.390003 0)
(91.03 24.390003 1.4460434e-22)
(91.03 24.390002 1.3316302e-22)
(91.029999 24.390001 -3.6785417e-22)
(91.029999 24.389996 4.5159789e-22)
(91.029999 24.389994 0)
(91.029999 24.389996 -7.6550284e-22)