/*--------------------------------*- C++ -*----------------------------------*\
| =========                 |                                                 |
| \\      /  F ield         | OpenFOAM: The Open Source CFD Toolbox           |
|  \\    /   O peration     | Version:  2506                                  |
|   \\  /    A nd           | Website:  www.openfoam.com                      |
|    \\/     M anipulation  |                                                 |
\*---------------------------------------------------------------------------*/
FoamFile
{
    version     2.0;
    format      ascii;
    arch        "LSB;label=32;scalar=64";
    class       surfaceScalarField;
    location    "0.0085";
    object      phi;
}
// * * * * * * * * * * * * * * * * * * * * * * * * * * * * * * * * * * * * * //

dimensions      [1 0 -1 0 0 0 0];

oriented        oriented;

internalField   nonuniform List<scalar> 
27063
(
0.0021984234
-0.051394396
0.0019191837
-0.047669973
-0.044193473
0.0047692106
-0.073619595
0.0042253383
-0.068507695
0.0037396093
-0.063707561
0.0033063009
-0.059207171
0.0029201555
-0.05499145
0.0025763066
-0.051046721
0.0022703641
-0.047360481
0.0019983006
-0.043918117
-0.040705969
0.007483366
-0.090087658
0.0066827665
-0.08403694
0.0059624955
-0.078333992
0.005315316
-0.072966965
0.0047345447
-0.06792186
0.0042139677
-0.06318228
0.003747814
-0.058736649
0.0033307654
-0.054570346
0.0029579332
-0.050670125
0.0026248262
-0.047023881
0.0023273549
-0.043617405
0.0020617942
-0.040437404
-0.037472885
0.012518609
-0.11668595
0.011262937
-0.10921772
0.010123829
-0.10214817
0.0090918701
-0.095462932
0.0081582119
-0.089147302
0.0073146201
-0.083187129
0.0065533837
-0.07756698
0.0058672786
-0.072275495
0.0052495721
-0.067299171
0.0046940272
-0.06262211
0.0041948401
-0.058233167
0.0037466531
-0.054118172
0.0033445255
-0.050264298
0.0029839121
-0.046659835
0.0026606596
-0.043290969
0.0023709827
-0.040144775
-0.037210586
0.018121061
-0.13974322
0.016396175
-0.13114639
0.014822267
-0.12298525
0.013387749
-0.11524252
0.012081834
-0.10790355
0.010894435
-0.10095311
0.0098161049
-0.094377499
0.008838012
-0.088162618
0.007951894
-0.082294893
0.0071500403
-0.076759447
0.0064252216
-0.071545403
0.0057706967
-0.066639751
0.0051802133
-0.062027081
0.0046479447
-0.05769668
0.0041685029
-0.053634815
0.0037369103
-0.049829072
0.0033485744
-0.046268129
0.0029992891
-0.042938559
0.0026852091
-0.039827797
0.0024028158
-0.036925508
-0.034218798
0.025534873
-0.16579146
0.023217465
-0.15598701
0.021093588
-0.14665783
0.019148638
-0.13778715
0.017369125
-0.12935661
0.01574252
-0.12134916
0.014257183
-0.1137484
0.012902265
-0.10654049
0.011667651
-0.099710959
0.010543884
-0.093246744
0.0095221261
-0.087134379
0.0085941177
-0.081360871
0.0077521523
-0.0759119
0.0069890049
-0.070777076
0.0062979344
-0.065943873
0.0056726842
-0.06139737
0.0051074163
-0.057127272
0.0045967242
-0.053120282
0.0041356032
-0.049364388
0.0037194255
-0.045848646
0.0033439425
-0.042560011
0.0030052612
-0.039486275
0.0026998072
-0.03661742
0.0024243272
-0.033940879
-0.031447633
0.035193628
-0.19493261
0.032129534
-0.18383598
0.029313079
-0.17326259
0.026725486
-0.16318978
0.024349457
-0.15359804
0.022169068
-0.14446553
0.020169582
-0.13577669
0.018337379
-0.12751428
0.016659844
-0.11966227
0.015125276
-0.11220518
0.013722784
-0.10513
0.012442225
-0.098422985
0.011274134
-0.092071781
0.010209672
-0.086063547
0.0092405875
-0.080385878
0.0083591844
-0.075025018
0.0075582502
-0.069971059
0.0068310528
-0.065211959
0.0061713425
-0.060733283
0.0055732803
-0.05652515
0.0050314522
-0.052574688
0.0045408385
-0.048870281
0.004096786
-0.045401355
0.0036950149
-0.042155236
0.0033315923
-0.039120068
0.0030028978
-0.036286146
0.0027056311
-0.033641222
0.0024367583
-0.031176547
-0.028880572
0.047646756
-0.22725503
0.0436378
-0.21477197
0.039946696
-0.20286807
0.036548934
-0.19151663
0.033421998
-0.18069242
0.030545223
-0.17037062
0.027899605
-0.16053024
0.025467634
-0.15115329
0.023233224
-0.14221937
0.0211815
-0.13371415
0.019298733
-0.12562153
0.017572223
-0.11792654
0.015990211
-0.11061465
0.014541764
-0.10367367
0.013216716
-0.097090647
0.012005595
-0.090853909
0.010899568
-0.084951264
0.0098903914
-0.079370903
0.0089703885
-0.074099638
0.0081323644
-0.069128048
0.007369604
-0.064444574
0.0066758737
-0.060035264
0.0060453437
-0.055890642
0.0054726034
-0.051998258
0.0049526284
-0.048346885
0.0044807525
-0.044926307
0.004052675
-0.041724218
0.0036644342
-0.038729103
0.0033123731
-0.03593156
0.0029931486
-0.033319658
0.0027036843
-0.030884916
0.0024411763
-0.028616058
-0.0265036
0.06360525
-0.26281274
0.058393759
-0.24884295
0.053591635
-0.23551864
0.049166888
-0.22280615
0.045090134
-0.21067337
0.041334366
-0.19909247
0.037874757
-0.18803898
0.034688508
-0.17748972
0.031754706
-0.16742179
0.029054132
-0.15781591
0.026569091
-0.14865563
0.024283336
-0.13992202
0.022181865
-0.131602
0.020250845
-0.12368068
0.018477496
-0.11614412
0.016850004
-0.10897878
0.015357397
-0.10217332
0.013989495
-0.095715581
0.012736815
-0.089594598
0.011590532
-0.083798841
0.010542418
-0.0783171
0.0095848174
-0.073136765
0.0087105576
-0.068248901
0.0079129473
-0.063642432
0.0071857756
-0.059303891
0.006523231
-0.055224201
0.0059199157
-0.051391331
0.0053708118
-0.047794433
0.0048712515
-0.044423643
0.0044169239
-0.041267014
0.004003851
-0.038313364
0.0036283493
-0.035553589
0.0032870436
-0.032976065
0.0029768164
-0.030572571
0.0026948249
-0.028332105
-0.026245423
0.083991732
-0.30160596
0.07724334
-0.28604625
0.071023043
-0.27120561
0.06528936
-0.25704619
0.060004121
-0.24352822
0.055132133
-0.23062012
0.050641016
-0.21829109
0.046501033
-0.20651172
0.042684859
-0.19525665
0.039167381
-0.18450364
0.03592554
-0.17423161
0.032938194
-0.16441959
0.030185922
-0.15505005
0.027650856
-0.14610811
0.025316607
-0.13757634
0.023168049
-0.12944293
0.021191252
-0.1216942
0.019373366
-0.11431731
0.017702526
-0.1072997
0.016167727
-0.10063091
0.014758768
-0.094299588
0.013466169
-0.088295491
0.012281109
-0.082607758
0.01119538
-0.077225793
0.010201347
-0.072137565
0.0092918669
-0.067334632
0.0084602749
-0.062806403
0.0077003883
-0.058539891
0.0070064201
-0.054526421
0.0063729941
-0.050754372
0.0057951078
-0.047213271
0.0052681014
-0.043893601
0.0047876663
-0.040783766
0.0043498187
-0.03787291
0.0039508617
-0.035152217
0.0035873992
-0.032610366
0.0032562852
-0.030239386
0.0029546418
-0.028028545
0.0026798286
-0.025968835
-0.02405133
0.11944664
-0.36166199
0.10999385
-0.34354802
0.10127887
-0.32629281
0.093244347
-0.3098438
0.08583716
-0.29415254
0.079008145
-0.27917621
0.072711925
-0.26487286
0.066906571
-0.25120818
0.061553501
-0.23814588
0.056617147
-0.22565744
0.05206478
-0.21371498
0.047866346
-0.20229182
0.043994228
-0.19136507
0.040423052
-0.1809148
0.037129522
-0.170922
0.034092285
-0.16136769
0.031291741
-0.15223609
0.028709861
-0.14351395
0.026330121
-0.13518533
0.02413729
-0.12723975
0.02211735
-0.11966473
0.020257387
-0.11244857
0.018545485
-0.1055797
0.016970613
-0.099048564
0.015522559
-0.092844627
0.014191839
-0.086958385
0.012969646
-0.081379658
0.011847788
-0.076098467
0.010818658
-0.071103373
0.009875139
-0.066386425
0.0090105985
-0.061937518
0.0082188851
-0.057744153
0.007494241
-0.053798048
0.0068313166
-0.050087992
0.0062251317
-0.046603884
0.0056710432
-0.043336546
0.0051647535
-0.040274728
0.0047022842
-0.037407895
0.0042799351
-0.03472751
0.003894302
-0.03222255
0.0035422219
-0.029885284
0.0032207946
-0.027705246
0.0029273503
-0.025673659
-0.023781812
0.16849005
-0.42948743
0.15529369
-0.40843868
0.14312108
-0.38842422
0.13189435
-0.36937575
0.12154113
-0.35123109
0.11199421
-0.33393353
0.10319117
-0.31743063
0.095074117
-0.30167472
0.087589422
-0.28662189
0.080687462
-0.27223348
0.074322433
-0.25847154
0.068452013
-0.24530535
0.063037256
-0.23270207
0.058042249
-0.22063632
0.05343396
-0.20908315
0.04918204
-0.19801863
0.045258618
-0.1874224
0.041638082
-0.17727679
0.038296924
-0.16756495
0.035213605
-0.15826988
0.032368358
-0.14937761
0.029743013
-0.14087649
0.027320932
-0.13275214
0.025086781
-0.1249954
0.023026469
-0.11759504
0.021127019
-0.11054048
0.019376482
-0.10382121
0.017763803
-0.097428544
0.016278759
-0.091352806
0.014911869
-0.085585232
0.013654339
-0.080116338
0.012497998
-0.07493677
0.011435267
-0.070035685
0.01045906
-0.065405629
0.009562776
-0.061036984
0.0087402975
-0.056917738
0.0079858991
-0.053040003
0.0072942609
-0.049392976
0.0066604292
-0.045966924
0.0060797828
-0.042753001
0.0055480414
-0.039740302
0.0050612392
-0.036918607
0.0046156821
-0.034279652
0.0042079666
-0.031812703
0.0038349238
-0.029510269
0.0034936427
-0.027362139
0.0031814366
-0.025359763
0.0028958317
-0.023494643
-0.021758277
0.27757136
-0.55848888
0.25604723
-0.53125026
0.2361745
-0.50546809
0.21782883
-0.48103658
0.20089483
-0.45785864
0.18526602
-0.43584715
0.17084408
-0.41492184
0.1575379
-0.3950104
0.14526299
-0.37604504
0.13394084
-0.35796407
0.12349851
-0.34071143
0.11386825
-0.32423603
0.10498712
-0.30849069
0.096796753
-0.29343264
0.089243097
-0.27902257
0.082276118
-0.26522602
0.075849637
-0.25200904
0.069920981
-0.23934453
0.064450882
-0.22720316
0.059403134
-0.21556268
0.054744421
-0.20440113
0.050444153
-0.19369732
0.046474222
-0.18343343
0.042808812
-0.17359411
0.039424229
-0.16416467
0.036298768
-0.15513012
0.033412517
-0.14647831
0.030747187
-0.13819922
0.028286031
-0.13028005
0.026013635
-0.12271297
0.023915839
-0.11548802
0.021979623
-0.10859578
0.020193003
-0.10202677
0.018544907
-0.095773243
0.017025109
-0.089826359
0.015624136
-0.08417812
0.01433321
-0.078819739
0.013144185
-0.073742498
0.01204951
-0.068936157
0.01104213
-0.064393759
0.010115481
-0.060106178
0.0092634814
-0.05606189
0.0084804378
-0.052253397
0.0077610638
-0.048670303
0.0071004345
-0.04530324
0.0064939534
-0.042143691
0.0059373611
-0.03918109
0.0054267085
-0.036405528
0.004958312
-0.033809009
0.0045287752
-0.031381088
0.0041349296
-0.029114499
0.003773861
-0.02699929
0.0034428748
-0.025027129
0.0031394851
-0.023189729
-0.021478785
0.57654715
-0.84032823
0.53215218
-0.79808978
0.49123972
-0.75827106
0.45351624
-0.72066433
0.41870022
-0.68512212
0.38653814
-0.65153119
0.35681044
-0.61979223
0.32932904
-0.58980435
0.30393003
-0.56146016
0.28046497
-0.53464835
0.25879446
-0.50925845
0.23878583
-0.48518414
0.22031391
-0.46232969
0.20326255
-0.44060769
0.18752455
-0.41994007
0.17300095
-0.40025497
0.15960006
-0.38148781
0.1472368
-0.36357792
0.13583214
-0.34647031
0.12531266
-0.33011502
0.11561011
-0.31446662
0.10666113
-0.29948325
0.098406948
-0.28512709
0.090793118
-0.2713634
0.083769267
-0.25816199
0.077288889
-0.24549291
0.071309015
-0.23333275
0.065790099
-0.22165568
0.060695676
-0.21044261
0.055992198
-0.19967456
0.051648855
-0.18933315
0.047637346
-0.17940309
0.043931675
-0.16987137
0.040507987
-0.16072548
0.037344438
-0.15195246
0.034420994
-0.143542
0.031719258
-0.13548573
0.0292224
-0.12777242
0.026914935
-0.12039563
0.024782649
-0.11334667
0.022812487
-0.10661728
0.020992442
-0.10019905
0.019311433
-0.094085164
0.017759235
-0.088267641
0.016326389
-0.082739256
0.015004139
-0.07749193
0.013784362
-0.072517585
0.012659545
-0.06780659
0.011622667
-0.063352489
0.010667201
-0.059146647
0.0097871009
-0.055178029
0.0089767128
-0.051439528
0.0082307833
-0.047921151
0.0075444193
-0.044613893
0.006913051
-0.041509561
0.0063324429
-0.038597926
0.0057986645
-0.035869384
0.0053080463
-0.033316201
0.0048572008
-0.030928216
0.004442963
-0.028698386
0.0040624184
-0.02661701
0.0037128675
-0.024675973
0.0033918147
-0.022867192
-0.021182559
14.981125
-13.841008
13.782935
-12.789549
12.695158
-11.780349
11.694166
-10.854232
10.774224
-10.002001
9.929177
-9.2171406
9.152289
-8.4942883
8.4374341
-7.8284214
7.7792097
-7.2149296
7.1728583
-6.6496103
6.6141485
-6.128633
6.0992686
-5.6484941
5.6247497
-5.2059805
5.1874149
-4.7981382
4.7843451
-4.4222484
4.4128529
-4.0758069
4.070455
-3.7565055
3.7547935
-3.4622155
3.4633518
-3.190979
3.1930069
-2.9410632
2.9393463
-2.7111292
2.6969314
-2.5001788
2.4602756
-2.3091599
2.2347461
-2.1377795
2.0378464
-1.9921123
1.8953522
-1.8689382
1.7616803
-1.7518268
1.632565
-1.6419431
1.5103291
-1.540415
1.3961117
-1.4471641
1.2900263
-1.3616701
1.1917568
-1.2831707
1.1008006
-1.2108649
1.0166222
-1.1440605
0.93872238
-1.082197
0.8666652
-1.0248075
0.80004812
-0.97145038
0.73848531
-0.92172641
0.68161729
-0.87529044
0.6291199
-0.83182191
0.58069889
-0.79101202
0.53607094
-0.75257311
0.49494489
-0.71625786
0.45702382
-0.68188193
0.42202373
-0.64932042
0.38968949
-0.61848147
0.35980059
-0.58928531
0.33216839
-0.56164836
0.30662857
-0.5354783
0.28303234
-0.51067687
0.26123988
-0.4871451
0.24111794
-0.46478729
0.22254072
-0.44351785
0.2053914
-0.42325914
0.18956219
-0.40394219
0.17495358
-0.38550355
0.16147338
-0.36788636
0.14903604
-0.35103719
0.13756209
-0.33490771
0.12697766
-0.31945411
0.11721414
-0.30463664
0.10820777
-0.29041881
0.09989945
-0.27676776
0.092234419
-0.26365337
0.085162011
-0.25104971
0.078635451
-0.2389309
0.072611519
-0.22727718
0.067050442
-0.21606628
0.061915537
-0.20528229
0.05717306
-0.19490923
0.052792024
-0.18493151
0.048743962
-0.17533642
0.045002731
-0.16611329
0.041544345
-0.1572518
0.038346842
-0.14874104
0.03539009
-0.14057256
0.032655606
-0.13273966
0.03012649
-0.12523271
0.027787203
-0.11804662
0.025623496
-0.11117404
0.023622283
-0.10460788
0.021771549
-0.098340784
0.02006021
-0.092366888
0.018478054
-0.086679092
0.017015639
-0.081270945
0.015664236
-0.076135083
0.014415756
-0.071264078
0.013262721
-0.066648909
0.012198151
-0.062283624
0.011215558
-0.058160081
0.01030894
-0.054267736
0.0094726794
-0.050599868
0.0087015619
-0.047146888
0.0079907287
-0.043900149
0.0073356399
-0.040851778
0.0067320862
-0.037991879
0.0061761593
-0.03531115
0.0056642059
-0.032802113
0.005192851
-0.030454886
0.0047589361
-0.028262644
0.0043595491
-0.026215933
0.0039919888
-0.02430685
0.0036537538
-0.022527512
-0.020870004
15.065888
-12.57228
13.861168
-11.617165
12.767268
-10.700529
11.760668
-9.8592842
10.835543
-9.085171
9.9857113
-8.3722582
9.2044124
-7.7156689
8.4854938
-7.1108399
7.8235262
-6.5535839
7.2137267
-6.0400841
6.6518399
-5.5668615
6.1340324
-5.1307339
5.6568156
-4.7287826
5.2169943
-4.3583245
4.8116329
-4.01689
4.4380288
-3.7022046
4.0936851
-3.4121713
3.7762349
-3.1448564
3.4831574
-2.8984801
3.2113259
-2.6714752
2.9563246
-2.4626624
2.7127121
-2.2712152
2.4748358
-2.0982275
2.2477774
-1.943628
2.0489366
-1.8133191
1.9050852
-1.703835
1.7707329
-1.5996367
1.6410235
-1.5014628
1.5181812
-1.4107325
1.4033698
-1.3274843
1.2967394
-1.2512286
1.1979834
-1.1812466
1.1065911
-1.1167908
1.0220158
-1.0572315
0.9437543
-1.0020655
0.87136983
-0.95085809
0.80445648
-0.9031997
0.74262469
-0.8587354
0.68551267
-0.81715685
0.63279424
-0.77817167
0.5841731
-0.74149836
0.53936359
-0.70687441
0.49807125
-0.67407571
0.45999602
-0.64294188
0.42485167
-0.61337093
0.3923818
-0.58529323
0.36236532
-0.55864888
0.33461332
-0.53337165
0.30896136
-0.5093842
0.28526051
-0.48660118
0.26337071
-0.46493494
0.24315826
-0.44430041
0.22449685
-0.42462225
0.20726913
-0.40583264
0.1913668
-0.38787167
0.17668991
-0.37068436
0.16314588
-0.3542216
0.15064875
-0.33843719
0.13911869
-0.32328952
0.12848151
-0.30874091
0.11866825
-0.29475736
0.10961488
-0.28130778
0.101262
-0.26836427
0.09355462
-0.25590135
0.086441835
-0.24389738
0.079876657
-0.23233057
0.073815668
-0.22118483
0.068218908
-0.21044147
0.063049526
-0.20008776
0.058273624
-0.19011072
0.05386007
-0.18049759
0.049780272
-0.17123823
0.046007968
-0.16232434
0.04251907
-0.1537478
0.039291527
-0.14549978
0.036305129
-0.13757366
0.033541332
-0.12996445
0.030983186
-0.12266413
0.028615115
-0.115669
0.026422846
-0.10897301
0.024393282
-0.10257027
0.022514405
-0.096454512
0.020775144
-0.090620823
0.019165306
-0.085062987
0.017675476
-0.079775337
0.016296956
-0.074751234
0.015021701
-0.069983901
0.013842271
-0.065464934
0.012751733
-0.061188886
0.011743644
-0.057148109
0.010812046
-0.053332549
0.0099513667
-0.049735869
0.0091564326
-0.046348883
0.0084224226
-0.043163298
0.0077448307
-0.040171559
0.0071194771
-0.037364095
0.0065424788
-0.034731903
0.0060102024
-0.032267757
0.0055192884
-0.029962048
0.005066588
-0.027808164
0.0046491945
-0.025796894
0.0042644082
-0.023920542
0.0039097238
-0.022171421
-0.020541807
15.133078
-11.297867
13.923213
-10.43954
12.824463
-9.6158709
11.813424
-8.8598773
10.884194
-8.1642305
10.030571
-7.5235876
9.2457759
-6.9335584
8.5236353
-6.3900411
7.8586996
-5.8892732
7.2461657
-5.4278254
6.6817597
-5.0025717
6.1616308
-4.6106526
5.6822745
-4.2494455
5.2404816
-3.9165392
4.8333031
-3.6097145
4.4580242
-3.3269275
4.1121378
-3.0662936
3.7932698
-2.8260747
3.4988972
-2.6046705
3.2258901
-2.4006806
2.969829
-2.2130868
2.7252712
-2.0412358
2.4864129
-1.8863641
2.2580842
-1.7486536
2.057616
-1.633798
1.9125899
-1.5381202
1.7777261
-1.4468591
1.6475721
-1.3604401
1.5242626
-1.2805615
1.4089898
-1.2073657
1.3019389
-1.1403926
1.2028117
-1.0789675
1.1110893
-1.0223985
1.0262143
-0.97012126
0.94768162
-0.92168282
0.87505373
-0.87667925
0.80792113
-0.83474005
0.74589148
-0.79555617
0.68860126
-0.75885362
0.63572254
-0.72436733
0.58695737
-0.69184385
0.54201808
-0.66104541
0.50060708
-0.63177217
0.46242138
-0.60388753
0.42717278
-0.57731333
0.39460399
-0.55200297
0.36449368
-0.52791663
0.33665303
-0.50500542
0.31091774
-0.48320686
0.28713899
-0.46244817
0.26517659
-0.44265282
0.24489657
-0.4237465
0.22617219
-0.40566419
0.20888569
-0.38834788
0.19292838
-0.37174673
0.17819996
-0.35581423
0.16460753
-0.34050902
0.15206486
-0.32579223
0.14049182
-0.31162889
0.12981397
-0.29798755
0.11996211
-0.28483997
0.11087198
-0.27216045
0.102484
-0.25992608
0.094742969
-0.24811605
0.087597821
-0.23671303
0.081001409
-0.2256993
0.074910169
-0.21506252
0.069284004
-0.20478753
0.064085943
-0.1948648
0.05928197
-0.18528439
0.054840854
-0.17603635
0.050733907
-0.16711312
0.046934787
-0.15850879
0.043419331
-0.15021745
0.040165428
-0.14223234
0.037152815
-0.13454873
0.034362912
-0.12716331
0.031778737
-0.12006969
0.029384697
-0.11326557
0.027166511
-0.10674622
0.025111086
-0.10050695
0.023206418
-0.094542588
0.021441456
-0.088849189
0.019806037
-0.083421425
0.018290783
-0.078254424
0.016887038
-0.07334227
0.0155868
-0.068678849
0.014382683
-0.064256372
0.013267802
-0.0600699
0.012235764
-0.056112277
0.011280663
-0.052373941
0.010396974
-0.048848939
0.0095795686
-0.045528482
0.0088236683
-0.042404627
0.0081248041
-0.039470132
0.0074788294
-0.036715751
0.0068818896
-0.034132772
0.0063303742
-0.031714215
0.005820942
-0.029450742
0.0053504564
-0.027335946
0.0049160194
-0.025360855
0.0045149346
-0.023517977
0.0041446962
-0.021799814
-0.020198831
15.182534
-10.019267
13.96892
-9.2580565
12.866605
-8.5276501
11.852308
-7.8571877
10.920062
-7.2402637
10.06365
-6.6721273
9.2762802
-6.1488769
8.551767
-5.6668728
7.8846455
-5.2227788
7.2700978
-4.8135542
6.7038363
-4.4364272
6.1819977
-4.088862
5.7010658
-3.768533
5.2578208
-3.4733019
4.849304
-3.2012008
4.4727918
-2.9504169
4.1257693
-2.7192791
3.805858
-2.5062453
3.5105342
-2.3098957
3.2366654
-2.1289982
2.9798282
-1.9626964
2.7345797
-1.8105113
2.4949792
-1.6738197
2.2656381
-1.5530857
2.0638473
-1.4537613
1.9178494
-1.3719866
1.7826446
-1.2936677
1.6521952
-1.2190371
1.5285587
-1.1500522
1.4129585
-1.0869468
1.3056128
-1.0292908
1.2062308
-0.97645216
1.1142846
-0.92779866
1.0292084
-0.88283186
0.95049596
-0.84114053
0.87770908
-0.80235427
0.81043482
-0.76614987
0.74827897
-0.73226166
0.69087685
-0.70044771
0.63789899
-0.67047019
0.58904626
-0.6421047
0.54402928
-0.61513773
0.50254752
-0.5893943
0.46429523
-0.56476172
0.42898251
-0.54118706
0.39635163
-0.51864717
0.36618141
-0.49712236
0.33828344
-0.47658114
0.31249386
-0.45697556
0.28866414
-0.43824493
0.26665414
-0.42032381
0.24632969
-0.40314879
0.22756377
-0.38666521
0.2102383
-0.37082478
0.19424431
-0.35558576
0.17948127
-0.34091011
0.16585604
-0.32676428
0.15328217
-0.3131167
0.14167938
-0.29993911
0.13097305
-0.28720626
0.12109382
-0.27489571
0.11197727
-0.26298717
0.10356369
-0.25146273
0.095797784
-0.24030624
0.08862835
-0.22950472
0.082008147
-0.21904457
0.075893517
-0.20891712
0.070244279
-0.19911079
0.065023381
-0.18961929
0.060196738
-0.18043565
0.055733056
-0.17155279
0.051603589
-0.16296572
0.047781944
-0.15467094
0.04424392
-0.14666474
0.040967371
-0.13894246
0.037932012
-0.13150123
0.035119241
-0.12433948
0.032512074
-0.11745242
0.030094917
-0.11083917
0.027853499
-0.10449634
0.025774746
-0.098420442
0.02384668
-0.092607404
0.022058286
-0.087054252
0.020399439
-0.081756559
0.018860806
-0.076710249
0.017433786
-0.071910142
0.016110428
-0.06735078
0.014883402
-0.063024999
0.013745881
-0.058928365
0.012691526
-0.055054217
0.011714489
-0.051393481
0.010809297
-0.047940583
0.0099708709
-0.044687132
0.0091944778
-0.041625532
0.0084756892
-0.038748846
0.0078103949
-0.036048147
0.0071947717
-0.033515014
0.0066252337
-0.031142704
0.0060984605
-0.028922144
0.0056113292
-0.026847128
0.0051609515
-0.024908919
0.0047446352
-0.02310022
0.0043598745
-0.021413722
15.21417
-8.7379824
13.99821
-8.0741059
12.893622
-7.4371479
11.877252
-6.8523966
10.943083
-6.3143595
10.084889
-5.818881
9.2958727
-5.3625491
8.5698406
-4.9421873
7.9013192
-4.5548861
7.2854818
-4.1979943
6.7180321
-3.8690948
6.1950985
-3.5659766
5.7131575
-3.2866115
5.2689826
-3.0291347
4.8596087
-2.7918301
4.4823066
-2.5731165
4.1345568
-2.3715367
3.8139788
-2.1857451
3.5180493
-2.0145031
3.2436342
-1.8567484
2.9863062
-1.7117868
2.7406225
-1.5793138
2.5005196
-1.4608456
2.2704228
-1.3571539
2.0676068
-1.273424
1.9208568
-1.2056276
1.7854816
-1.1402392
1.6548854
-1.077418
1.5310628
-1.0193563
1.4152698
-0.9663677
1.3077559
-0.91805132
1.2082357
-0.8738189
1.1161725
-0.83310211
1.0309939
-0.79546331
0.95219386
-0.76052836
0.87933253
-0.72796666
0.81199443
-0.69750737
0.74978432
-0.66892396
0.69233679
-0.6420049
0.63932103
-0.61654057
0.59043738
-0.59233617
0.54539484
-0.56920222
0.50389024
-0.54698827
0.46561519
-0.52560687
0.43027849
-0.50503155
0.39762235
-0.48526228
0.36742616
-0.46630001
0.3395023
-0.44813053
0.3136876
-0.4307198
0.28983402
-0.41401875
0.26780156
-0.39797321
0.24745599
-0.38253079
0.22867011
-0.36764707
0.2113256
-0.35328343
0.19531335
-0.33940728
0.18053266
-0.32598907
0.16689027
-0.3130031
0.15429965
-0.3004251
0.1426804
-0.28823351
0.13195783
-0.27640931
0.12206249
-0.26493589
0.1129299
-0.25379835
0.1045003
-0.24298378
0.096718321
-0.23248075
0.089532719
-0.22228061
0.082896208
-0.21237386
0.076765091
-0.20275555
0.071099146
-0.19341766
0.065861291
-0.1843571
0.061017415
-0.17556994
0.056536195
-0.16705193
0.05238887
-0.1588007
0.048549027
-0.1508151
0.044992459
-0.14309369
0.041697012
-0.13563387
0.038642404
-0.12843467
0.035810042
-0.12149623
0.033182954
-0.1148154
0.030745571
-0.10839271
0.028483644
-0.10222611
0.026384138
-0.096313323
0.024435112
-0.090651395
0.022625599
-0.085238324
0.020945529
-0.08007059
0.019385621
-0.075144913
0.017937334
-0.070456855
0.016592778
-0.066001616
0.015344687
-0.061772659
0.014186297
-0.057766053
0.013111331
-0.053975631
0.012114001
-0.050392807
0.011188891
-0.047012385
0.010330975
-0.043826364
0.0095355696
-0.040827491
0.0087982895
-0.03800913
0.0081150627
-0.03536267
0.007482099
-0.03287997
0.0068958394
-0.030554522
0.0063529848
-0.028377514
0.0058504273
-0.02634293
0.0053852896
-0.024442265
0.0049548848
-0.022668414
-0.02101425
15.227984
-7.4555193
14.011082
-6.8890774
12.905512
-6.3456448
11.888255
-5.8466849
10.953256
-5.3876069
10.094288
-4.9648523
9.3045526
-4.5754999
8.5778552
-4.2168367
7.9087203
-3.8863804
7.2923174
-3.5818694
6.7243466
-3.3012418
6.2009329
-3.0426113
5.7185495
-2.8042477
5.2739668
-2.5845599
4.8642172
-2.3820836
4.4865689
-2.1954698
4.1385005
-2.023475
3.817632
-1.8649508
3.5214426
-1.7188403
3.2467968
-1.584252
2.9892636
-1.4606537
2.7433998
-1.3479153
2.5030335
-1.2476933
2.2724356
-1.1610873
2.0688848
-1.0930002
1.9216162
-1.039239
1.7862402
-0.98675284
1.6556446
-0.93574809
1.5317764
-0.88862576
1.4159257
-0.84576828
1.30837
-0.80680212
1.2088278
-0.77118613
1.1167542
-0.73841827
1.0315727
-0.70811262
0.95277687
-0.67993458
0.87992532
-0.6536002
0.81260116
-0.62889012
0.75040866
-0.60561434
0.69298205
-0.5835897
0.63998946
-0.56263784
0.5911313
-0.54259243
0.54611518
-0.52328859
0.50463543
-0.50459974
0.46638122
-0.48646541
0.43106047
-0.46888603
0.39841576
-0.45188482
0.36822748
-0.43548388
0.34030914
-0.4196856
0.31449857
-0.40446919
0.2906483
-0.38979703
0.26861859
-0.37562653
0.24827526
-0.36191616
0.22949102
-0.34863157
0.21214746
-0.33574392
0.19613535
-0.32322978
0.18135399
-0.31106817
0.1677101
-0.29924119
0.15511714
-0.2877319
0.14349472
-0.27652542
0.13276814
-0.26560898
0.12286796
-0.2549718
0.11372973
-0.24460437
0.10529367
-0.23449881
0.097504428
-0.2246484
0.09031078
-0.21504883
0.083665451
-0.20569469
0.077524752
-0.19658472
0.071848477
-0.1877145
0.066599556
-0.17908412
0.061743891
-0.17069271
0.057250175
-0.16253883
0.053089663
-0.15462271
0.049235965
-0.14694562
0.045664889
-0.13950833
0.04235431
-0.13231034
0.039283973
-0.12535257
0.036435315
-0.11863686
0.033791403
-0.11216172
0.031336705
-0.10592909
0.029057022
-0.099938269
0.026939367
-0.094188197
0.024971855
-0.088677033
0.023143577
-0.083403758
0.021444524
-0.078365758
0.019865486
-0.073560559
0.018397983
-0.068984458
0.017034201
-0.064633324
0.01576694
-0.060501241
0.014589504
-0.056584784
0.013495685
-0.052878275
0.012479759
-0.049373617
0.01153637
-0.046065983
0.010660551
-0.042947762
0.009847667
-0.040012037
0.0090933797
-0.037252469
0.008393657
-0.034660754
0.0077447427
-0.03222903
0.0071431054
-0.029951013
0.0065854675
-0.027818147
0.006068736
-0.025824601
0.0055900436
-0.023962097
0.0051467082
-0.022223716
15.224049
-6.1733783
14.007601
-5.7043549
12.902336
-5.2544151
11.885374
-4.8412283
10.950635
-4.4610906
10.091895
-4.1110409
9.302364
-3.7886506
8.5758518
-3.4916699
7.9068863
-3.2180439
7.2906392
-2.9659003
6.7228119
-2.7335324
6.1995305
-2.5193785
5.7172691
-2.3220059
5.2727989
-2.1400975
4.8631529
-1.9724407
4.4856001
-1.8179186
4.1376202
-1.6755014
3.8168364
-1.5442377
3.5207313
-1.4232533
3.2461692
-1.3118284
2.9887153
-1.2095914
2.7429254
-1.1165865
2.5025327
-1.0346134
2.2716852
-0.96511545
2.0676845
-0.91270544
1.9201412
-0.8730161
1.7849322
-0.83338773
1.6544824
-0.7941916
1.5307086
-0.75801172
1.4149347
-0.72528722
1.307463
-0.69567086
1.2080143
-0.66867184
1.1160367
-0.64385416
1.0309511
-0.62087569
0.95225084
-0.59944824
0.8794928
-0.57933881
0.81225993
-0.56037568
0.75015653
-0.54240361
0.69281659
-0.5252661
0.63990775
-0.50882086
0.59113105
-0.49292729
0.54619294
-0.47744615
0.5047853
-0.46227446
0.46659512
-0.44737965
0.43132997
-0.43278946
0.39873313
-0.41855148
0.3685865
-0.40470845
0.34070507
-0.39127837
0.31492785
-0.37825324
0.29110803
-0.3656073
0.26910628
-0.3533094
0.24878853
-0.34132851
0.2300275
-0.32964045
0.21270478
-0.31822625
0.19671118
-0.30707172
0.18194606
-0.29616438
0.16831625
-0.28549422
0.1557353
-0.2750515
0.14412293
-0.26482809
0.13340452
-0.25481746
0.12351072
-0.24501467
0.11437718
-0.23541558
0.10594418
-0.22601735
0.098156456
-0.21681798
0.090962856
-0.20781749
0.084316172
-0.19901452
0.078172778
-0.19041154
0.072492531
-0.18200768
0.067238419
-0.17380625
0.0623764
-0.16580939
0.057875222
-0.15801851
0.053706193
-0.15043645
0.049842975
-0.14306685
0.046261431
-0.13591271
0.042939488
-0.12897563
0.039856945
-0.12225844
0.036995297
-0.11576467
0.034337667
-0.10949449
0.031868585
-0.10345125
0.029573916
-0.097635589
0.027440737
-0.092047685
0.025457234
-0.086686811
0.02361257
-0.081552928
0.021896808
-0.076644333
0.020300813
-0.071959358
0.018816185
-0.06749504
0.017435181
-0.06324791
0.016150681
-0.059212677
0.014956061
-0.055386418
0.013845185
-0.051763944
0.012812396
-0.048337641
0.011852404
-0.04510305
0.010960299
-0.042052942
0.010131502
-0.039180733
0.009361719
-0.036480372
0.0086469605
-0.033943858
0.0079835048
-0.031563601
0.0073678483
-0.029333534
0.0067967359
-0.027245351
0.0062670899
-0.0252934
0.0057760546
-0.023469626
-0.021767289
15.202516
-4.8930519
13.987906
-4.5213097
12.884221
-4.1647195
11.868726
-3.8371918
10.935327
-3.5358856
10.077811
-3.258438
9.2893997
-3.0029143
8.5639159
-2.7675287
7.8958962
-2.5506523
7.28052
-2.350802
6.7134952
-2.1666254
6.1909533
-1.9968851
5.7093735
-1.8404457
5.2655314
-1.6962633
4.8564644
-1.5633768
4.4794453
-1.440901
4.1319577
-1.3280196
3.8116302
-1.2239782
3.5159508
-1.1280855
3.2417842
-1.0397945
2.9846916
-0.95889141
2.7392271
-0.88559543
2.4990424
-0.82185399
2.2681934
-0.76946816
2.0640219
-0.73275751
1.916456
-0.70714986
1.7815783
-0.68031929
1.651417
-0.6529104
1.5278763
-0.62766315
1.4123128
-0.60506234
1.3050495
-0.58478456
1.2058085
-0.56639275
1.1140329
-0.54951418
1.029141
-0.53384956
0.95062634
-0.51915966
0.87804469
-0.50526602
0.81097962
-0.49204125
0.74903603
-0.47936113
0.69184752
-0.4670984
0.6390823
-0.45514856
0.59044223
-0.44339511
0.54563307
-0.4317246
0.5043442
-0.4200579
0.46626076
-0.40839127
0.4310904
-0.39678056
0.39857763
-0.38529894
0.36850623
-0.37400788
0.34069298
-0.36294046
0.31497822
-0.35210134
0.29121593
-0.34147702
0.26926722
-0.33104718
0.24899827
-0.32079118
0.23028187
-0.31069521
0.21299973
-0.30075025
0.19704281
-0.29095133
0.1823107
-0.28129454
0.16871039
-0.27177766
0.15615567
-0.26239815
0.14456644
-0.25315462
0.13386827
-0.24404684
0.12399197
-0.23507563
0.11487336
-0.22624223
0.10645287
-0.21754887
0.098675367
-0.20899824
0.091489842
-0.20059464
0.084849208
-0.19234079
0.078709955
-0.18424285
0.073032046
-0.17630352
0.067778575
-0.16852932
0.062915599
-0.16092539
0.058411962
-0.15349599
0.054239057
-0.14624654
0.050370636
-0.13918308
0.046782644
-0.13231084
0.043453091
-0.12563351
0.040361856
-0.1191558
0.037490516
-0.11288296
0.034822273
-0.1068168
0.032341738
-0.1009621
0.030034856
-0.09532084
0.027888788
-0.08989442
0.025891803
-0.084683234
0.024033145
-0.079688226
0.022302965
-0.074908605
0.020692211
-0.070343506
0.019192565
-0.065990706
0.01779637
-0.061847399
0.016496585
-0.057908919
0.015286666