/*--------------------------------*- C++ -*----------------------------------*\
| =========                 |                                                 |
| \\      /  F ield         | OpenFOAM: The Open Source CFD Toolbox           |
|  \\    /   O peration     | Version:  2506                                  |
|   \\  /    A nd           | Website:  www.openfoam.com                      |
|    \\/     M anipulation  |                                                 |
\*---------------------------------------------------------------------------*/
FoamFile
{
    version     2.0;
    format      ascii;
    arch        "LSB;label=32;scalar=64";
    class       volVectorField;
    location    "0.95";
    object      U;
}
// * * * * * * * * * * * * * * * * * * * * * * * * * * * * * * * * * * * * * //

dimensions      [0 1 -1 0 0 0 0];

internalField   nonuniform List<vector> 
1375
(
(91.050932 0.0060467615 0)
(90.934045 0.0062766413 0)
(90.782752 0.0071081421 0)
(90.626012 0.01081619 0)
(90.46762 0.010920471 0)
(90.31351 0.0068953172 0)
(90.158841 0.005195424 1.0301041e-18)
(90.002351 0.0046213802 -1.0817782e-18)
(89.843481 0.0091537141 0)
(91.435939 0.011044824 0)
(91.378195 0.012863103 0)
(91.270379 0.014287935 0)
(91.173138 0.018226759 0)
(91.077617 0.018666649 0)
(90.98368 0.014515237 0)
(90.886449 0.013282902 0)
(90.795073 0.012038811 0)
(90.722033 0.016064218 0)
(90.662366 0.026930357 0)
(92.083288 0.014945225 0)
(92.10325 0.016276042 0)
(92.059388 0.018748995 7.2718622e-19)
(92.035582 0.022128538 -7.6392833e-19)
(92.017471 0.022485424 0)
(92.003706 0.018903992 -8.4209839e-19)
(91.990223 0.017338277 -1.5006405e-23)
(91.983182 0.015562334 1.8571591e-18)
(91.988029 0.018150341 -9.793514e-19)
(92.027437 0.029068448 0)
(92.782943 0.016071208 -3.0536491e-19)
(92.846296 0.015194311 3.211113e-19)
(92.857046 0.018768482 6.7616225e-19)
(92.880503 0.021148856 -1.4187099e-18)
(92.909823 0.02161225 1.488954e-18)
(92.946082 0.016690561 -7.8134932e-19)
(92.980734 0.015443699 0)
(93.014857 0.012186219 0)
(93.058254 0.012273296 0)
(93.116879 0.020549821 0)
(93.357688 0.015582394 -5.6648071e-19)
(93.433213 0.012038969 -2.9765406e-19)
(93.45849 0.016598518 6.2613901e-19)
(93.492043 0.018135988 6.5722832e-19)
(93.529433 0.017876906 -1.3796029e-18)
(93.572094 0.012832904 7.2380174e-19)
(93.611496 0.011262883 0)
(93.644772 0.0079189414 1.5965402e-18)
(93.676966 0.0076980123 -1.6762203e-18)
(93.712299 0.015130107 0)
(93.747791 0.014102326 -5.2520344e-19)
(93.807722 0.0087021212 -5.7077719e-24)
(93.827837 0.014237159 5.8023795e-19)
(93.851587 0.015387642 0)
(93.877542 0.014848294 -1.2784882e-18)
(93.907266 0.0092833724 -1.9756025e-23)
(93.933641 0.0081126577 1.4071537e-18)
(93.952496 0.0048675106 0)
(93.966447 0.0047318685 0)
(93.978732 0.012758927 1.6282062e-18)
(93.979719 0.012582692 0)
(94.017737 0.0062239676 0)
(94.028196 0.012783892 0)
(94.039539 0.013692506 0)
(94.052473 0.012819099 -1.1850832e-18)
(94.068345 0.0067777204 1.2419402e-18)
(94.081506 0.0059817575 -1.3010913e-18)
(94.088126 0.0031001295 1.3614361e-18)
(94.089997 0.003593902 0)
(94.088049 0.010734739 -1.5125104e-18)
(94.105858 0.011412268 0)
(94.125763 0.005164914 0)
(94.128439 0.01176292 0)
(94.130676 0.012574674 0)
(94.13442 0.011981108 -1.0989734e-18)
(94.140477 0.005568573 1.1494391e-18)
(94.144607 0.0049706947 0)
(94.145411 0.0029996312 1.2662709e-18)
(94.138337 0.003267495 -1.3342576e-18)
(94.128069 0.011449626 -2.7992121e-18)
(94.168584 0.010490889 8.3799697e-19)
(94.176634 0.004267755 4.3951814e-19)
(94.174256 0.011853656 -9.2389037e-19)
(94.170262 0.012876413 0)
(94.169253 0.011169379 1.012526e-18)
(94.170012 0.0055451347 -1.0624828e-18)
(94.170148 0.0049045726 2.2401438e-18)
(94.165007 0.0024066557 4.9354183e-23)
(94.151989 0.0045635546 -2.4726328e-18)
(94.138124 0.012081316 0)
(94.19591 0.0096575002 3.8940696e-19)
(94.197727 0.0046191099 -8.1476019e-19)
(94.190149 0.012634984 -7.6257087e-24)
(94.183521 0.012858653 8.982775e-19)
(94.180311 0.011921266 0)
(94.178957 0.0048092707 0)
(94.176397 0.0049292975 0)
(94.167833 0.0036996124 0)
(94.15144 0.0057038032 2.292844e-18)
(94.134889 0.013351466 -2.4048603e-18)
(94.203868 0.010017187 3.6112223e-19)
(94.201637 0.0048019209 7.6009726e-19)
(94.191183 0.012952057 -7.9520222e-19)
(94.183509 0.013614812 0)
(94.179491 0.012112095 -1.7541503e-18)
(94.177352 0.0050868332 1.8467187e-18)
(94.173886 0.0055599103 0)
(94.164166 0.0049009477 0)
(94.145428 0.0077890219 0)
(94.126238 0.014889528 0)
(94.202778 0.009925187 0)
(94.195889 0.0053175854 0)
(94.185486 0.014629509 0)
(94.17725 0.014183078 0)
(94.172937 0.012566058 1.6277935e-18)
(94.170692 0.0052407448 -3.4273485e-18)
(94.167474 0.0061947416 1.8001372e-18)
(94.158331 0.0065764685 -1.8859725e-18)
(94.138356 0.010318682 3.9474956e-18)
(94.116456 0.016914402 5.9358529e-23)
(94.103161 0.027819512 -2.1735327e-18)
(94.197096 0.010007128 0)
(94.187562 0.0072605352 -6.540836e-19)
(94.17737 0.015335038 6.8562414e-19)
(94.168903 0.015207644 1.4374853e-18)
(94.164314 0.0130359 -1.5104635e-18)
(94.16216 0.0053977804 1.5903728e-18)
(94.159605 0.0066827999 -1.6716486e-18)
(94.152213 0.008388174 -3.503398e-18)
(94.132662 0.013328727 3.6651236e-18)
(94.108279 0.01947116 0)
(94.093142 0.029297831 0)
(94.18967 0.010183301 0)
(94.17954 0.0082056356 -1.2149335e-18)
(94.169669 0.016735498 1.2737895e-18)
(94.161146 0.016243513 0)
(94.156167 0.013551134 0)
(94.154018 0.0055859585 0)
(94.151992 0.0069735644 0)
(94.146582 0.010140677 0)
(94.129355 0.016566801 0)
(94.103426 0.022575756 0)
(94.085747 0.031197601 -3.7378542e-18)
(94.18316 0.010837846 -5.3855075e-19)
(94.173385 0.010097186 0)
(94.164162 0.017631486 0)
(94.155979 0.017600296 0)
(94.150441 0.014094442 0)
(94.147996 0.0057198353 0)
(94.146024 0.0070010416 0)
(94.141849 0.01154433 0)
(94.128286 0.020015175 0)
(94.102553 0.026520222 0)
(94.082183 0.033483725 0)
(94.179324 0.011268938 -5.0018411e-19)
(94.170239 0.011741309 -1.0487917e-18)
(94.162139 0.018616952 1.1003168e-18)
(94.154887 0.019155853 -2.3067999e-18)
(94.148635 0.014881461 -3.3452925e-23)
(94.145234 0.0060145795 -3.5502652e-23)
(94.142572 0.0070559557 2.6743462e-18)
(94.138501 0.012701474 0)
(94.128803 0.02315802 0)
(94.105464 0.030256712 -3.0744799e-18)
(94.083058 0.0366242 -8.3235046e-23)
(94.179017 0.011951998 -4.6473367e-19)
(94.170675 0.013399123 -9.7451822e-19)
(94.164158 0.019396254 3.0695281e-18)
(94.158762 0.02077399 -2.1467498e-18)
(94.152051 0.015837676 0)
(94.146581 0.0063583711 -2.3621603e-18)
(94.142005 0.0071565316 2.4802939e-18)
(94.136931 0.013560936 0)
(94.130206 0.025650996 0)
(94.111761 0.034493481 5.7158102e-18)
(94.088622 0.040916329 -5.9802333e-18)
(94.182357 0.012879971 0)
(94.174628 0.014834229 0)
(94.169639 0.019611507 0)
(94.166828 0.022416446 0)
(94.161107 0.017313902 0)
(94.152679 0.0080069686 0)
(94.144795 0.0078713595 0)
(94.137939 0.014446536 0)
(94.132977 0.027442837 5.0842298e-18)
(94.12102 0.036974301 -5.3162151e-18)
(94.098868 0.04502345 0)
(94.188789 0.013923734 1.0978145e-23)
(94.181419 0.016130788 8.4059407e-19)
(94.177398 0.019798738 -1.7680398e-18)
(94.176553 0.023158791 1.8631016e-18)
(94.173904 0.019356883 -3.9020469e-18)
(94.163158 0.0097284177 6.121514e-18)
(94.151483 0.0092959155 -4.2732725e-18)
(94.142487 0.015991843 -4.486483e-18)
(94.13794 0.028182658 4.7233553e-18)
(94.131882 0.039815736 0)
(94.113058 0.048722984 5.1640576e-18)
(94.196966 0.01525294 0)
(94.189884 0.017086189 1.562734e-18)
(94.186215 0.020416038 -1.6381293e-18)
(94.18596 0.022764516 3.4587731e-18)
(94.18583 0.020261362 -3.6360662e-18)
(94.175726 0.014156766 0)
(94.161034 0.011519914 0)
(94.149874 0.017100039 0)
(94.144873 0.028540683 0)
(94.14271 0.040215116 0)
(94.129237 0.053023751 4.8060872e-18)
(94.205297 0.016659101 0)
(94.198151 0.018013213 0)
(94.194138 0.020088697 0)
(94.193478 0.022929654 0)
(94.193779 0.022309257 3.3590882e-18)
(94.186716 0.016162326 -3.5351683e-18)
(94.171436 0.015924364 3.696109e-18)
(94.158823 0.018999439 -7.7319003e-18)
(94.152252 0.030078832 4.0704596e-18)
(94.150641 0.039288312 0)
(94.142959 0.054688641 -8.95245e-18)
(94.213072 0.018077076 -1.2968087e-18)
(94.205438 0.018642983 0)
(94.19984 0.020327698 0)
(94.197623 0.023353388 0)
(94.197044 0.022458899 0)
(94.193101 0.020121598 3.2932147e-18)
(94.180649 0.019926124 -3.4424524e-18)
(94.167594 0.020267411 0)
(94.158569 0.031528394 7.5561814e-18)
(94.155463 0.040328185 -7.9640118e-18)
(94.151734 0.054964669 0)
(94.219457 0.01960747 0)
(94.211696 0.020692407 0)
(94.20338 0.020114055 0)
(94.198801 0.024068628 -2.7791078e-18)
(94.1972 0.023241635 5.8516443e-18)
(94.195332 0.022316788 -3.0690932e-18)
(94.187182 0.023181156 -6.41655e-18)
(94.175004 0.023599688 6.7079683e-18)
(94.163958 0.033735891 0)
(94.158973 0.041440641 -7.3926007e-18)
(94.156975 0.055686927 7.7676877e-18)
(94.222476 0.020042412 0)
(94.215688 0.021035372 -2.3596817e-18)
(94.206267 0.022872472 2.4674861e-18)
(94.200321 0.025654798 0)
(94.1983 0.024344577 -5.4438113e-18)
(94.197171 0.02448958 5.7203728e-18)
(94.191175 0.024098404 -5.9796059e-18)
(94.179772 0.026542442 -7.1008765e-23)
(94.167561 0.035213402 -7.5404658e-23)
(94.161872 0.044499377 -6.5700225e-23)
(94.161724 0.054324562 7.2465888e-18)
(94.223239 0.020676478 1.0523305e-18)
(94.21787 0.024525977 0)
(94.209366 0.021380374 0)
(94.202766 0.027071007 -4.8227807e-18)
(94.199965 0.024648637 -6.490839e-23)
(94.198024 0.02491262 1.0647574e-17)
(94.191884 0.029738607 5.0082274e-23)
(94.182719 0.030759253 5.7540682e-23)
(94.17326 0.038829005 -6.0736906e-18)
(94.167496 0.045956549 0)
(94.166926 0.049470989 0)
(94.222342 0.020452098 0)
(94.217538 0.024679003 0)
(94.210779 0.025140135 -4.2957422e-18)
(94.205152 0.029247706 4.500276e-18)
(94.202293 0.027637652 0)
(94.199943 0.025208888 4.9581674e-18)
(94.194451 0.03143719 -5.1865165e-18)
(94.18788 0.033155708 0)
(94.180679 0.03755277 0)
(94.172664 0.049962249 0)
(94.169116 0.053287977 0)
(94.168917 0.067782245 1.3147765e-17)
(94.222117 0.020788087 0)
(94.217679 0.024634546 -3.8339976e-18)
(94.212306 0.024363957 4.0116801e-18)
(94.207212 0.028423453 4.1995398e-18)
(94.204015 0.027307724 -8.8170291e-18)
(94.20183 0.027152666 4.6250531e-18)
(94.197457 0.035988189 0)
(94.191143 0.038113774 0)
(94.185664 0.039434806 -1.0598718e-17)
(94.180333 0.052759496 1.1086588e-17)
(94.175505 0.05743179 0)
(94.172344 0.067929147 -1.2193865e-17)
(94.222554 0.020471414 -1.7097419e-18)
(94.217342 0.025101331 1.7900803e-18)
(94.212307 0.027308355 0)
(94.207565 0.030605096 -3.9195883e-18)
(94.204139 0.029434046 4.1069563e-18)
(94.202566 0.029056452 8.6321751e-18)
(94.200949 0.036050459 -9.0413124e-18)
(94.196377 0.039132933 9.4450138e-18)
(94.191338 0.039981145 -9.8785694e-18)
(94.186583 0.050981177 1.0331964e-17)
(94.183083 0.057180356 -1.083629e-17)
(94.180678 0.074820556 -1.136867e-17)
(94.222822 0.020557247 0)
(94.218413 0.024170301 0)
(94.214952 0.025941594 0)
(94.210837 0.028690161 0)
(94.205497 0.029027812 0)
(94.202831 0.029831644 0)
(94.20225 0.036385617 0)
(94.200651 0.04294992 0)
(94.195505 0.044377628 0)
(94.190313 0.055890363 0)
(94.188545 0.058379998 -1.0026817e-17)
(94.189543 0.066200661 2.0975558e-17)
(94.22447 0.019506689 -2.9916999e-18)
(94.219916 0.024274036 3.1321704e-18)
(94.216013 0.027430186 -6.5627614e-18)
(94.211774 0.030766102 6.8598588e-18)
(94.206341 0.031519755 7.1454309e-18)
(94.203503 0.033121138 -7.5164255e-18)
(94.20353 0.036264055 0)
(94.204638 0.039830208 8.2197613e-18)
(94.203816 0.045138653 -8.6360136e-18)
(94.199883 0.056004631 0)
(94.197154 0.060227282 1.8799122e-17)
(94.196146 0.071127671 -1.9712882e-17)
(94.227868 0.020103527 0)
(94.223168 0.022349552 0)
(94.218722 0.025330008 6.1413598e-18)
(94.214494 0.028465876 -6.424042e-18)
(94.209964 0.030494147 0)
(94.206344 0.03322158 0)
(94.205105 0.036060235 0)
(94.204921 0.039837839 0)
(94.204755 0.046056976 0)
(94.204673 0.055815064 0)
(94.205082 0.05975941 0)
(94.204945 0.065744118 0)
(94.232942 0.020022002 2.6311826e-18)
(94.227498 0.022546115 0)
(94.22196 0.026406368 0)
(94.217047 0.030517062 0)
(94.213185 0.032378823 0)
(94.211107 0.034210292 1.313064e-17)
(94.210384 0.037616501 -2.7390954e-17)
(94.20991 0.040190291 1.4368002e-17)
(94.210256 0.047354287 1.503702e-17)
(94.211399 0.054417626 -1.5590405e-17)
(94.211509 0.057039515 0)
(94.211312 0.064733903 0)
(94.211906 0.074528516 0)
(94.236444 0.022618414 4.9407443e-18)
(94.232807 0.021567253 1.1270247e-22)
(94.228987 0.024282817 -5.4033174e-18)
(94.224707 0.027192169 0)
(94.220097 0.030698074 1.177115e-17)
(94.217169 0.0327745 -1.2305973e-17)
(94.21626 0.035452889 1.2868462e-17)
(94.215618 0.040314189 7.7548122e-23)
(94.21536 0.043153499 6.2060719e-23)
(94.215911 0.05622348 -1.4765266e-17)
(94.218385 0.063142031 1.5286553e-17)
(94.220111 0.066876529 -1.5886601e-17)
(94.218777 0.073080667 0)
(94.241492 0.022163814 4.64509e-18)
(94.238564 0.021881432 -4.8563132e-18)
(94.235703 0.024078486 0)
(94.232243 0.027409788 -1.0612502e-17)
(94.22781 0.031821361 1.1070566e-17)
(94.223691 0.033626003 0)
(94.221419 0.036455078 0)
(94.219994 0.040846303 1.2571504e-17)
(94.218942 0.043198851 -1.3173759e-17)
(94.219839 0.051472218 1.3763304e-17)
(94.222638 0.055039076 -1.4401173e-17)
(94.222737 0.054930675 1.517777e-17)
(94.224713 0.085763291 -1.5702339e-17)
(94.246016 0.027690919 0)
(94.243812 0.022933399 -4.5698693e-18)
(94.241615 0.02277443 4.7758974e-18)
(94.23944 0.02538936 9.9838869e-18)
(94.236948 0.0289413 -1.0429321e-17)
(94.23387 0.034106141 1.0876227e-17)
(94.230333 0.036209916 -1.1338811e-17)
(94.228095 0.041150297 0)
(94.226783 0.044721199 0)
(94.226839 0.055750495 2.5831657e-17)
(94.227366 0.055606654 -2.668549e-17)
(94.226008 0.058092438 0)
(94.23229 0.071771784 0)
(94.238534 0.073584724 0)
(94.250121 0.026983211 -2.3377193e-23)
(94.250565 0.025450999 4.294818e-18)
(94.248766 0.023904497 0)
(94.246083 0.023785308 9.3969682e-18)
(94.243096 0.026153295 -9.806369e-18)
(94.240347 0.030430653 -1.023437e-17)
(94.237801 0.038109217 1.0665961e-17)
(94.235638 0.039498616 -2.2152653e-17)
(94.234533 0.042888328 4.6044855e-17)
(94.235345 0.050104565 -4.853442e-17)
(94.235266 0.052733495 2.5312608e-17)
(94.233714 0.055957126 2.6236126e-17)
(94.23653 0.067950346 -2.7405753e-17)
(94.238767 0.067375907 0)
(94.24966 0.030759628 -3.8864132e-18)
(94.250413 0.029618061 1.2204058e-17)
(94.251474 0.029198836 -8.4485644e-18)
(94.252056 0.028891106 0)
(94.251907 0.02902809 0)
(94.250952 0.031818107 -1.9356632e-17)
(94.248391 0.034685857 4.0197658e-17)
(94.244837 0.040463613 -2.0830275e-17)
(94.243551 0.04577074 0)
(94.24363 0.052125718 2.2700379e-17)
(94.242133 0.058264638 -2.3657677e-17)
(94.240439 0.060165974 0)
(94.241679 0.068558307 0)
(94.243116 0.066654016 -2.702793e-17)
(94.249439 0.029532458 0)
(94.24917 0.027845602 0)
(94.250791 0.024599996 0)
(94.254656 0.023231229 1.6707308e-17)
(94.257816 0.024728563 1.1823232e-22)
(94.258604 0.025820806 1.3626797e-22)
(94.256407 0.033575056 -3.8007533e-17)
(94.252592 0.035734917 1.9743187e-17)
(94.249562 0.037675672 0)
(94.247996 0.044864315 0)
(94.247614 0.051206043 0)
(94.249619 0.060915494 2.3256725e-17)
(94.252261 0.061655295 -4.8065862e-17)
(94.253226 0.061246472 2.4917068e-17)
(94.253228 0.063743319 0)
(94.253631 0.034949036 6.9760162e-18)
(94.252112 0.033836863 4.3273535e-23)
(94.253204 0.032731477 7.6336802e-18)
(94.256438 0.030159275 -1.5867643e-17)
(94.259527 0.029856091 0)
(94.262091 0.033109655 1.7141385e-17)
(94.264072 0.038441306 -1.7766146e-17)
(94.264173 0.042281795 0)
(94.261618 0.050091311 0)
(94.260191 0.046474881 0)
(94.259003 0.047768362 0)
(94.259935 0.059260877 0)
(94.261759 0.063243659 0)
(94.261507 0.068829207 4.7360616e-17)
(94.260331 0.06849243 -9.843114e-17)
(94.263287 0.028166623 -6.639391e-18)
(94.262427 0.026441719 6.891415e-18)
(94.262438 0.022586656 0)
(94.261747 0.020649013 0)
(94.262116 0.019470967 -1.5748651e-17)
(94.263696 0.022614096 3.2710881e-17)
(94.265736 0.023750889 -1.7004719e-17)
(94.268455 0.028930583 0)
(94.270932 0.03781559 0)
(94.271556 0.03656349 0)
(94.270413 0.040163649 0)
(94.26957 0.043703155 -4.1388059e-17)
(94.26872 0.051322812 -2.731885e-22)
(94.267613 0.057015546 4.4145209e-17)
(94.267376 0.067344937 0)
(94.268104 0.062178219 0)
(94.274405 0.033160752 0)
(94.276336 0.029378685 1.3232682e-17)
(94.275008 0.03401415 -2.7625424e-17)
(94.271575 0.036741796 -7.8571176e-23)
(94.269609 0.037372565 3.4145342e-23)
(94.26994 0.037888924 4.6759604e-17)
(94.271422 0.037787181 -3.2347778e-17)
(94.273666 0.03802725 0)
(94.277363 0.042922177 -3.4708525e-17)
(94.280172 0.04794358 3.5859259e-17)
(94.280999 0.049246992 3.7126969e-17)
(94.280335 0.056007759 -3.8537566e-17)
(94.280344 0.057529104 -4.0307786e-17)
(94.280344 0.064862294 4.1833357e-17)
(94.280344 0.06840217 0)
(94.278998 0.078137009 0)
(94.277884 0.077532102 -4.6360346e-17)
(94.289397 0.012772028 -6.0906988e-18)
(94.287928 0.0077504996 0)
(94.285024 0.010615162 1.3205887e-17)
(94.281056 0.019547771 -1.3685688e-17)
(94.27726 0.018865271 -2.8313424e-17)
(94.275425 0.020917345 2.9292446e-17)
(94.275176 0.018586457 0)
(94.276322 0.019853209 3.1912381e-17)
(94.27869 0.022217366 -3.2987254e-17)
(94.280247 0.024553072 0)
(94.281045 0.031087813 0)
(94.282049 0.035043442 0)
(94.282569 0.036587264 0)
(94.28202 0.045571036 3.9638786e-17)
(94.281527 0.050661895 -4.0785236e-17)
(94.281269 0.05315423 -4.2307628e-17)
(94.281855 0.063812861 8.7648435e-17)
(94.29423 0.029675597 0)
(94.296552 0.026156608 0)
(94.295209 0.028266951 0)
(94.292623 0.033620558 0)
(94.288365 0.037799566 2.725094e-17)
(94.283913 0.0394631 4.2057801e-22)
(94.280687 0.039412965 -2.9135095e-17)
(94.279173 0.04098597 3.0081662e-17)
(94.278936 0.046688641 -3.1394056e-17)
(94.27992 0.050326787 0)
(94.282131 0.054497309 0)
(94.284448 0.057260898 3.4961298e-17)
(94.285973 0.059104291 -3.6216153e-17)
(94.287031 0.064967584 -7.5257786e-17)
(94.28779 0.065686993 7.8098719e-17)
(94.289156 0.069705254 -8.018461e-17)
(94.290923 0.072891504 -4.5186653e-22)
(94.291197 0.069199332 8.7008247e-17)
(94.295478 0.00087841789 1.1331036e-17)
(94.298864 -0.00010518365 -1.1695149e-17)
(94.299952 3.78872e-05 0)
(94.299771 0.0037627737 0)
(94.297622 0.0072751951 0)
(94.292126 0.011283999 0)
(94.285025 0.012378588 0)
(94.278591 0.014078187 0)
(94.274167 0.016692219 0)
(94.272185 0.019494943 0)
(94.272515 0.02541091 0)
(94.274525 0.027011731 6.6841576e-17)
(94.277576 0.034721208 -6.9021774e-17)
(94.281615 0.037490298 -7.120344e-17)
(94.285639 0.03730702 7.3431408e-17)
(94.288601 0.039329384 0)
(94.29026 0.037326686 7.8786783e-17)
(94.291789 0.036494783 -8.1162883e-17)
(94.294107 0.039198503 -8.2903189e-17)
(94.277341 0.028850652 0)
(94.282227 0.02737072 0)
(94.286535 0.028323146 0)
(94.289051 0.031509494 0)
(94.289903 0.038517768 0)
(94.288799 0.043024833 0)
(94.285403 0.048331579 -5.4188384e-17)
(94.279605 0.051803215 5.5866611e-17)
(94.273497 0.054111678 0)
(94.268535 0.056913211 0)
(94.266021 0.058690168 0)
(94.265904 0.06108996 -6.3164091e-17)
(94.268987 0.062257607 6.5730858e-17)
(94.272534 0.066026114 0)
(94.276732 0.065977603 0)
(94.282201 0.072381071 7.2120506e-17)
(94.288752 0.071642625 -7.4222509e-17)
(94.294109 0.06505627 0)
(94.297953 0.063823485 0)
(94.301824 0.061567648 8.1216505e-17)
(94.272475 -0.0045826683 4.0386763e-23)
(94.269275 -0.0051523122 3.3217976e-17)
(94.268714 -0.0059318311 -2.2969627e-17)
(94.26967 -0.0065365575 -2.3858232e-17)
(94.271056 -0.0005604513 4.9170869e-17)
(94.272723 0.0023259207 -2.5210838e-17)
(94.274235 0.0038942553 0)
(94.274468 0.0065571257 0)
(94.272258 0.0087551408 0)
(94.269011 0.010413585 5.7329708e-17)
(94.265635 0.012266784 -1.1802963e-16)
(94.262126 0.012897934 1.2106157e-16)
(94.259481 0.011106797 -6.1927517e-17)
(94.258727 0.015886014 -6.4144105e-17)
(94.259797 0.0089009172 -1.6630317e-22)
(94.261266 0.0059456487 1.3765248e-16)
(94.264653 0.012470933 -7.0653276e-17)
(94.269854 0.011856651 0)
(94.275582 0.006418473 7.4572458e-17)
(94.280933 0.012563943 -1.5337063e-16)
(94.28534 0.006846633 1.2567801e-21)
(94.28905 0.0095924856 1.6228721e-16)
(94.265744 0.058855951 1.0652177e-17)
(94.261539 0.062536877 0)
(94.259629 0.064268408 2.2569173e-17)
(94.262929 0.06170883 2.3372503e-17)
(94.269094 0.054303145 -4.7967732e-17)
(94.274777 0.050411929 -4.927345e-17)
(94.278706 0.046432766 5.0604713e-17)
(94.280856 0.04311485 0)
(94.281718 0.040054023 0)
(94.280879 0.041649598 5.5674091e-17)
(94.278214 0.044811508 1.104316e-21)
(94.27309 0.048156965 -5.8539147e-17)
(94.266544 0.051292595 0)
(94.259865 0.055016488 0)
(94.253299 0.057267399 0)
(94.247967 0.057576782 0)
(94.24505 0.058977255 0)
(94.243957 0.059831191 0)
(94.245133 0.058518989 0)
(94.249334 0.059646435 0)
(94.255717 0.061265747 0)
(94.262975 0.059898829 1.5270779e-16)
(94.270351 0.062510233 -3.1286079e-16)
(94.324788 -0.012926697 0)
(94.32101 -0.010161634 0)
(94.319844 -0.0067414216 0)
(94.317686 -0.0043674867 -4.6066869e-17)
(94.318335 -0.0019283697 4.7503378e-17)
(94.328402 0.0032886253 0)
(94.333683 0.0010441493 4.9909212e-17)
(94.338459 -0.0012932994 -5.1159869e-17)
(94.34976 0.0023719381 0)
(94.358019 0.0040268832 5.2905083e-17)
(94.358714 0.0072479944 -1.6452673e-16)
(94.358037 0.0031917835 1.1379657e-16)
(94.35525 0.0046601727 0)
(94.347764 0.0026858826 0)
(94.339951 -0.00018290546 0)
(94.332774 -0.0014467173 1.2449465e-16)
(94.324988 -0.003166249 -1.272691e-16)
(94.31821 -0.0049771089 0)
(94.313541 -0.0061086735 0)
(94.310235 -0.0065745653 0)
(94.308398 -0.0065028217 1.3971858e-16)
(94.308926 -0.0077119562 -6.3878879e-22)
(94.310411 -0.0076226124 -1.4411896e-16)
(94.310202 -0.0089497724 1.5023595e-16)
(94.310559 -0.013159734 -1.5606586e-16)
(94.498312 0.036630091 -2.1553457e-17)
(94.488119 0.012498008 0)
(94.47911 0.013508367 -4.4503213e-17)
(94.476522 0.043196557 4.5336417e-17)
(94.476507 0.07034694 0)
(94.471916 0.027704537 -4.7800132e-17)
(94.464424 0.11611965 9.7534183e-17)
(94.474609 0.072792163 -4.9835733e-17)
(94.485764 0.018247814 0)
(94.485681 0.055852011 1.0428152e-16)
(94.485102 0.055684979 -1.0537425e-16)
(94.485398 0.047643257 -1.0842877e-16)
(94.482097 0.030127448 1.1076429e-16)
(94.479794 0.047657096 -1.1312856e-16)
(94.483667 0.039140197 2.3111152e-16)
(94.486394 0.012520293 3.3766005e-21)
(94.485316 0.14974787 -1.2278837e-16)
(94.484064 0.018786335 0)
(94.479401 0.014797824 1.2734997e-16)
(94.472331 0.019746302 -2.5933667e-16)
(94.467598 0.031281678 -1.3770938e-21)
(94.463838 0.044373841 1.3615667e-16)
(94.456822 0.049391863 1.3798346e-16)
(94.446518 0.086563036 -1.0636589e-21)
(94.442501 0.1302798 -1.4277163e-16)
(94.452776 0.031824011 0)
(94.462183 0.060651365 1.4999338e-16)
(91.174253 0.0092207839 0)
(91.562262 0.014950775 -1.1268171e-17)
(92.201033 0.018329385 -3.2891015e-19)
(92.874828 0.018722633 9.8308529e-18)
(93.417712 0.016903399 2.6595869e-24)
(93.781972 0.014323768 -1.7142906e-17)
(93.997318 0.012044395 1.6261016e-17)
(94.11396 0.01043656 0)
(94.171702 0.0094959719 -4.3694423e-19)
(94.196279 0.0090067036 -4.0825696e-19)
(94.20336 0.0089515905 -1.8930831e-19)
(94.202609 0.0092574914 1.7706148e-19)
(94.19751 0.0091467264 0)
(94.191874 0.010107108 1.9959245e-17)
(94.187489 0.011066885 -1.803717e-17)
(94.185612 0.011926133 5.6133348e-19)
(94.186859 0.012982169 3.3078042e-17)
(94.19164 0.01392958 -3.0460352e-17)
(94.198834 0.014997492 1.0012685e-18)
(94.206913 0.016146514 2.6847625e-17)
(94.214377 0.016837707 -2.512475e-17)
(94.220114 0.017297065 1.8240153e-18)
(94.2235 0.017267816 2.1878145e-17)
(94.224943 0.017578111 -2.0474605e-17)
(94.225482 0.016585269 -1.1965073e-18)
(94.225385 0.016410582 0)
(94.226045 0.016523579 -5.2535181e-19)
(94.227447 0.01573534 1.4784733e-17)
(94.227896 0.017269821 -1.4799472e-17)
(94.229734 0.016487704 0)
(94.233262 0.01842822 0)
(94.237814 0.017856927 -3.0707638e-18)
(94.240352 0.021904283 1.4441058e-18)
(94.244892 0.023052301 1.0881862e-17)
(94.247896 0.027194099 -1.0265922e-17)
(94.249652 0.027966183 -4.8096579e-18)
(94.250336 0.031827913 -9.0859455e-18)
(94.251016 0.028088463 2.1545834e-18)
(94.257336 0.034749795 8.1874057e-18)
(94.266251 0.026608836 0)
(94.274013 0.037221011 0)
(94.287992 0.018952726 7.0027234e-18)
(94.289588 0.033966823 0)
(94.289653 0.0029741759 -6.4527007e-18)
(94.274407 0.029879981 -1.5468887e-18)
(94.278219 -0.0033037724 -1.0464438e-17)
(94.273172 0.052899165 -2.3191969e-17)
(94.33467 -0.0167787 -3.5305805e-19)
(94.5048 0.039277333 3.3799782e-17)
(91.296774 0.009084948 0)
(91.691155 0.015459079 0)
(92.324243 0.019165707 3.1056848e-19)
(92.972465 0.019699004 0)
(93.482811 0.017970381 2.7311486e-19)
(93.819572 0.015430345 1.023793e-18)
(94.01691 0.013079749 3.141435e-17)
(94.123174 0.011303804 -2.7855221e-17)
(94.17542 0.010111498 0)
(94.197367 0.0096213759 7.8758151e-19)
(94.20363 0.0091391434 2.3295504e-17)
(94.20283 0.0092405639 -2.2182747e-17)
(94.197899 0.0095041971 2.0723812e-17)
(94.193122 0.0098025658 -1.9421382e-17)
(94.190097 0.01030828 -1.8746678e-17)
(94.189333 0.010900055 5.1130297e-17)
(94.191709 0.011657783 -3.194114e-17)
(94.197259 0.012296448 0)
(94.204645 0.012932574 2.8363965e-17)
(94.212249 0.01340138 -2.6055174e-17)
(94.218512 0.013663713 5.7662134e-19)
(94.222549 0.013696449 2.2330409e-17)
(94.224668 0.013227422 -4.3173961e-17)
(94.225983 0.013322368 2.0530355e-17)
(94.227217 0.012120742 2.9592607e-19)
(94.228346 0.011744319 0)
(94.230077 0.011648995 1.7438493e-17)
(94.232364 0.010739403 -3.0175579e-17)
(94.233525 0.011820302 1.4685381e-17)
(94.235415 0.012659175 0)
(94.238595 0.015510412 0)
(94.242145 0.015749289 1.239183e-17)
(94.24417 0.020595351 -1.2557061e-17)
(94.247615 0.022854023 1.0818426e-17)
(94.249439 0.0277561 -1.0198297e-17)
(94.250093 0.028692537 0)
(94.252222 0.033736243 -1.1340054e-18)
(94.254489 0.031876865 -2.1477464e-18)
(94.261568 0.043192569 0)
(94.269955 0.033376519 -3.8776611e-18)
(94.274615 0.042522336 3.6712642e-18)
(94.284631 0.025111598 0)
(94.282912 0.037131541 -3.349666e-18)
(94.283884 0.0068699177 3.216285e-18)
(94.274894 0.033573757 -1.5283054e-18)
(94.285062 -0.0024319854 2.9758923e-18)
(94.282391 0.046135943 1.0097062e-17)
(94.344245 -0.019123991 5.6231731e-18)
(94.506634 0.034297599 -1.0955781e-17)
(91.421867 0.007628953 0)
(91.820987 0.014672168 1.2481115e-18)
(92.444948 0.01861765 -1.0584544e-17)
(93.065691 0.019174409 8.8583994e-18)
(93.543415 0.017508843 0)
(93.853969 0.015053876 1.4695121e-17)
(94.034597 0.012756233 -1.5654849e-17)
(94.1314 0.011007247 -8.6544009e-19)
(94.17869 0.0099497345 0)
(94.198138 0.0088060096 -7.5990434e-19)
(94.203405 0.0088193171 -2.1363032e-17)
(94.20268 0.0086181701 2.0070549e-17)
(94.198369 0.0084249461 -2.0114597e-17)
(94.194319 0.0091028273 2.3277751e-24)
(94.192116 0.0090826349 1.8327156e-17)
(94.1919 0.0093134617 3.3384767e-17)
(94.194906 0.00966084 -3.1348831e-17)
(94.200701 0.0098205915 0)
(94.207938 0.0099545308 -4.3069748e-19)
(94.215036 0.0098205985 -4.0386318e-19)
(94.220606 0.0096304093 -3.7861734e-19)
(94.224105 0.0094215772 -2.2353522e-17)
(94.226055 0.0090323478 2.1275335e-17)
(94.227621 0.0089574119 -3.117401e-19)
(94.229636 0.0080861628 -2.9265934e-19)
(94.231824 0.0076802775 -1.7590444e-17)
(94.234322 0.0079253193 3.2775758e-17)
(94.237262 0.0082388519 -1.2128866e-19)
(94.239344 0.010472086 -1.5488919e-17)
(94.241325 0.012244201 -1.2846239e-17)
(94.243706 0.015762972 1.2886382e-17)
(94.246405 0.018706944 -1.8944291e-19)
(94.248287 0.023013771 -3.566678e-19)
(94.250348 0.027766445 1.0752578e-17)
(94.251618 0.030890766 -9.5062772e-18)
(94.25213 0.029545609 9.5514107e-18)
(94.255497 0.036386738 -7.3543101e-18)
(94.259723 0.02759313 0)
(94.265907 0.030927856 0)
(94.271865 0.029676208 3.8672689e-18)
(94.274924 0.044854172 -3.8818139e-18)
(94.2797 0.02954881 1.0901793e-19)
(94.276346 0.040520248 3.3405754e-18)
(94.280365 0.013074831 3.2133413e-18)
(94.277742 0.035250543 0)
(94.291728 -0.00014414634 0)
(94.289469 0.040538413 0)
(94.350571 -0.019797867 -5.2284768e-18)
(94.505484 0.042295857 -1.6794473e-18)
(91.540143 0.0063187092 0)
(91.941663 0.01344206 -3.5416306e-18)
(92.554023 0.017120089 -1.1162279e-18)
(93.14707 0.017461138 -2.1088828e-18)
(93.594308 0.015785409 1.5923488e-17)
(93.881616 0.01343568 -1.31412e-17)
(94.047832 0.011275544 2.8314971e-17)
(94.136584 0.0096048754 -2.6682869e-17)
(94.179689 0.00830287 -2.5148107e-17)
(94.197494 0.0078271803 -1.6893463e-24)
(94.202417 0.007489119 2.079725e-17)
(94.20181 0.0071309282 1.3050296e-18)
(94.197983 0.0072641941 -1.9609351e-17)
(94.1947 0.0069418411 1.6188765e-17)
(94.193297 0.0071874954 -1.9585948e-17)
(94.193677 0.0071159596 4.7066355e-17)
(94.197357 0.0071267442 -6.1459391e-17)
(94.203418 0.006919719 5.5903277e-17)
(94.210579 0.0067406512 -4.6377613e-23)
(94.217382 0.0063958531 -5.0858461e-17)
(94.222689 0.0060806251 6.7288905e-23)
(94.226204 0.0058011089 4.3387266e-17)
(94.22845 0.0055419729 -2.6277703e-18)
(94.230435 0.0055586195 -3.9481353e-17)
(94.23304 0.0053569058 1.8545899e-17)
(94.235956 0.0053003951 -2.1784996e-18)
(94.238966 0.0059392232 0)
(94.242343 0.0068976649 1.923775e-18)
(94.245248 0.0087015418 9.0442729e-19)
(94.247395 0.010077066 -1.446315e-17)
(94.24898 0.013112058 1.2807321e-17)
(94.25104 0.01666573 0)
(94.252982 0.021483064 0)
(94.253787 0.024621756 0)
(94.254319 0.030499827 -1.0726359e-17)
(94.255189 0.031252146 7.1502362e-18)
(94.258341 0.033103953 -2.818719e-18)
(94.263754 0.035241055 -2.1365286e-18)
(94.26973 0.040510748 -2.0278582e-18)
(94.272929 0.031884574 0)
(94.273877 0.043490551 -1.5879154e-18)
(94.274527 0.030163336 -1.0870588e-19)
(94.272501 0.039150166 -3.3056736e-18)
(94.280044 0.020432007 3.1750263e-18)
(94.281567 0.035428243 -4.5738835e-18)
(94.296748 0.00011487867 4.4199807e-18)
(94.292675 0.036963489 0)
(94.357922 -0.016930292 0)
(94.508405 0.10170579 1.3348803e-18)
(91.643156 0.0029129176 2.3579874e-18)
(92.045607 0.0097179532 1.3115759e-23)
(92.647481 0.012697347 1.0618179e-17)
(93.216464 0.012665795 -6.0358427e-18)
(93.637742 0.011024322 0)
(93.905404 0.0089534818 1.2604461e-17)
(94.059343 0.0071428704 -1.1909784e-17)
(94.141191 0.0058162048 -2.8915083e-17)
(94.180808 0.0049654554 2.424006e-17)
(94.197078 0.0044555057 -2.2797012e-17)