/*--------------------------------*- C++ -*----------------------------------*\
| =========                 |                                                 |
| \\      /  F ield         | OpenFOAM: The Open Source CFD Toolbox           |
|  \\    /   O peration     | Version:  2506                                  |
|   \\  /    A nd           | Website:  www.openfoam.com                      |
|    \\/     M anipulation  |                                                 |
\*---------------------------------------------------------------------------*/
FoamFile
{
    version     2.0;
    format      ascii;
    arch        "LSB;label=32;scalar=64";
    class       surfaceScalarField;
    location    "0.0135";
    object      phi;
}
// * * * * * * * * * * * * * * * * * * * * * * * * * * * * * * * * * * * * * //

dimensions      [1 0 -1 0 0 0 0];

oriented        oriented;

internalField   nonuniform List<scalar> 
27187
(
0.016153712
-3.4754051
0.016969341
-3.6639582
0.01776676
3.860797
-3.8616263
0.018538589
4.0584817
-4.0593509
0.019335442
4.2572638
-4.2581672
0.020208876
4.4652009
-4.4661486
0.021180224
4.6892641
-4.6902674
0.022246828
4.9333385
-4.934396
0.023394516
5.2004013
-5.2015105
0.024606459
5.4921424
-5.4933053
0.025870358
5.8089319
-5.8101542
0.027183217
6.1506933
-6.1519807
0.028550515
6.5168317
-6.5181869
6.9068294
0.029980898
-6.908255
0.018659636
0.019469619
4.0575695
0.020305948
4.2563156
0.021222727
4.4642061
0.022242332
4.688211
0.023361855
4.9322286
0.024566547
5.1992369
0.025838664
5.4909219
0.027165316
5.8076489
0.02854337
6.149342
0.029978533
6.5154093
6.905333
0.031479921
0.020447905
0.021325675
0.022287939
4.4631619
0.023358109
4.6871057
0.024533204
4.9310637
0.025797679
5.1980149
0.027132966
5.4896408
0.028525456
5.8063023
0.029971881
6.1479237
0.031478237
6.5139163
6.9037624
0.033054104
0.023406269
0.024529542
0.025762919
4.929841
0.027090125
5.1967322
0.028491659
5.4882962
0.02995327
5.8048889
0.031471466
6.146435
0.033052529
6.5123494
6.9021139
0.034706556
0.027054673
0.028447742
0.029918841
5.4868848
0.031452976
5.8034053
0.033046481
6.1448725
0.034705973
6.5107046
6.9003837
0.036441995
0.031417763
0.033027997
0.034700515
0.036442278
6.5089784
6.8985676
0.038264383
0.038264947
1.4460311
0.041750074
-1.4577997
1.4340371
0.043474545
1.4218137
0.045278212
1.4093567
0.047164209
1.3966621
0.049137344
1.5615155
0.054633587
-1.5743983
1.5483861
0.056604866
1.5350054
0.058659699
1.5213692
0.060801349
1.6862291
0.068742837
-1.7003376
1.6718505
0.070984346
1.6571968
0.073314222
0.075735785
1.8208989
0.08420113
-1.8363564
1.8051453
0.086738668
1.7890904
0.089369857
1.9663168
0.10114495
-1.98326
1.9490492
0.10400693
0.10696835
2.1233379
0.11972543
-2.1419179
2.1044021
0.1229432
2.2928853
0.1401101
-2.3132697
0.14371813
2.4759561
0.16248461
-2.4983304
0.16652096
2.6736263
0.18705492
-2.6981965
0.19156156
2.8870575
0.21404931
-2.9140518
0.21907258
3.117504
0.24372136
-3.147176
0.27635313
-3.3989502
0.31225686
-3.6708661
0.35178068
-3.9645353
0.39531156
-4.2816984
0.44327955
-4.624234
0.49616403
-4.9941727
0.55449845
-5.3937066
0.61887716
-5.8252032
0.68996312
-6.2912194
0.76849526
-6.7945171
0.85529775
-7.3380783
0.95129087
-7.9251246
-8.5591345
-1.4654418
0.031124668
-0.023482093
-1.4732284
0.032443264
-0.024656152
-1.481162
0.033823225
-0.025889118
-1.4892451
0.035266974
-0.027183372
-1.4974802
0.036778283
-0.028542648
-1.5058698
0.038360209
-0.029969981
-1.5144166
0.040015676
-0.031468275
-1.5231232
0.041748869
-0.033041671
-1.5319921
0.043563405
-0.034693804
-1.5410262
0.045463023
-0.036428312
-1.5502279
0.047452312
-0.03824984
-1.5596001
0.049535332
-0.040162367
-1.5691455
0.051716546
-0.042170377
-1.5788668
0.054001134
-0.044279007
-1.5887669
0.056394016
-0.046493132
-1.5988484
0.058900137
-0.048817721
-1.6091142
0.061525137
-0.051258403
-1.6195671
0.06427529
-0.053821403
-1.63021
0.067156496
-0.056512596
-1.6410456
0.070174893
-0.059338179
-1.6520769
0.073337362
-0.062304953
-1.6633067
0.076651182
-0.065420214
-1.6747379
0.080123831
-0.068691476
-1.6863733
0.08376259
-0.072125918
-1.6982158
0.08757594
-0.075732135
-1.7102682
0.091572741
-0.079518913
-1.7225335
0.095761457
-0.083494755
-1.7350144
0.10015193
-0.087669527
-1.7477138
0.10475401
-0.092053038
-1.7606344
0.10957801
-0.096655694
-1.7737792
0.11463505
-0.10148856
-1.7871508
0.11993638
-0.10656295
-1.800752
0.12549408
-0.11189098
-1.8145855
0.13132101
-0.11748554
-1.828654
0.13743033
-0.12335982
-1.84296
0.14383596
-0.12952781
-1.8575061
0.15055281
-0.13600443
-1.8722949
0.15759571
-0.14280461
-1.8873287
0.16498106
-0.1499448
-1.9026099
0.1727259
-0.15744211
-1.9181408
0.18084798
-0.16531438
-1.9339237
0.18936574
-0.17358009
-1.9499606
0.19829879
-0.18225898
-1.9662534
0.20766783
-0.19137192
-1.9828042
0.21749473
-0.20094076
-1.9996146
0.22780148
-0.21098775
-2.0166863
0.23861228
-0.2215371
-2.0340208
0.24995225
-0.23261418
-2.0516193
0.26184718
-0.24424488
-2.0694831
0.27432478
-0.25645708
-2.087613
0.28741412
-0.26928003
-2.10601
0.30114544
-0.28274425
-2.1246744
0.31555061
-0.29688169
-2.1436067
0.33066286
-0.31172591
-2.1628069
0.34651739
-0.3273123
-2.1822749
0.36315115
-0.3436781
-2.2020102
0.38060257
-0.36086202
-2.222012
0.39891259
-0.37890526
-2.2422793
0.41812388
-0.39785087
-2.2628107
0.43828079
-0.4177435
-2.2836043
0.45943063
-0.43863083
-2.304658
0.48162275
-0.46056261
-2.3259692
0.50490899
-0.4835911
-2.3475349
0.52934374
-0.5077711
-2.3693516
0.55498383
-0.53315996
-2.3914152
0.58188939
-0.55981825
-2.4137213
0.6101234
-0.58780956
-2.4362648
0.63975197
-0.61720046
-2.4590399
0.6708444
-0.64806094
-2.4820404
0.70347352
-0.68046441
-2.5052592
0.73771601
-0.71448828
-2.5286886
0.77365213
-0.75021348
-2.5523201
0.81136602
-0.7877249
-2.5761445
0.85094636
-0.82711212
-2.6001517
0.89248584
-0.86846852
-2.6243305
0.93608192
-0.91189261
-2.6486691
0.98183748
-0.95748815
-2.6731543
1.02986
-1.0053637
-2.6977722
1.0802626
-1.0556333
-2.7225076
1.1331631
-1.1084161
-2.7473439
1.1886866
-1.1638384
-2.7722636
1.2469639
-1.2220319
-2.7972477
1.308132
-1.2831355
-2.8222757
1.3723345
-1.3472938
-2.8473258
1.4397233
-1.4146604
-2.8723744
1.5104575
-1.4853958
-2.8973964
1.5847032
-1.559668
-2.9223649
1.6626358
-1.637654
-2.9472511
1.7444389
-1.7195392
-2.9720242
1.830306
-1.8055193
-2.9966515
1.9204392
-1.8957983
-3.021098
2.0150516
-1.9905916
-3.0453263
2.1143668
-2.090125
-3.0692969
2.2186189
-2.1946351
-3.0929673
2.328054
-2.3043705
-3.1162925
2.4429316
-2.4195934
-3.1392249
2.5635226
-2.5405777
-3.1617134
2.6901122
-2.6676115
-3.1837042
2.8229993
-2.8009968
-3.2051399
2.9624986
-2.9410516
-3.2259595
3.1089396
-3.0881093
-3.2460985
3.2626693
-3.2425202
-3.2654886
3.4240512
-3.4046517
-3.2840571
3.5934667
-3.5748894
-3.3017271
3.7713175
-3.7536395
-3.3184172
3.9580238
-3.9413266
-3.334041
4.1540285
-4.1383982
-3.3485074
4.3597946
-4.3453226
-3.3617196
4.5758102
-4.5625933
-3.3735754
4.8025871
-4.7907272
-3.3839666
5.040662
-5.0302675
-3.392779
5.2905989
-5.2817839
-3.3998915
5.5529904
-5.5458758
-3.4051765
5.8284582
-5.8231718
-3.4084988
6.1176557
-6.1143323
-3.4097158
6.4212683
-6.4200506
-3.4086769
6.7400152
-6.7410538
-3.4052229
7.0746534
-7.0781073
-3.3991858
7.4259758
-7.4320129
-3.3903883
7.794816
-7.8036136
-3.378643
8.1820487
-8.1937941
-3.3637528
8.5885936
-8.6034842
-3.3455092
9.0154143
-9.0336585
-3.3236924
9.4635241
-9.4853419
-3.2980711
9.933987
-9.9596102
-3.2684015
10.427919
-10.457592
-3.2344271
10.946496
-10.980476
-3.1958784
11.490949
-11.529509
-3.1524731
12.062575
-12.106
-3.1039162
12.662739
-12.711331
-3.0499008
13.292877
-13.346954
-2.9901099
13.954509
-14.014405
-2.9242173
14.649243
-14.715309
-2.8518902
15.378783
-15.45139
-2.7727898
16.144951
-16.224489
-2.6865727
16.949689
-17.036569
-2.592887
17.795078
-17.889733
-2.4913619
18.68334
-18.786231
-2.3815764
19.61682
-19.728443
-2.262997
20.597886
-20.718781
-2.1348903
21.62873
-21.759475
-1.9962473
22.711181
-22.852372
-1.8456747
23.846805
-23.999126
-1.6829641
25.035503
-25.199409
-1.5044841
26.284658
-26.46084
-1.3169062
27.587923
-27.777053
-1.111336
28.941713
-29.144959
-0.89841299
30.448829
-30.665879
31.810109
-32.043017
-1.5827956
0.03952264
-1.5913518
0.041000073
-1.6000696
0.042541616
-1.6089517
0.044149703
-1.6180008
0.045828122
-1.6272199
0.047579994
-1.6366117
0.049408225
-1.6461791
0.051317075
-1.6559251
0.053310181
-1.6658525
0.055391287
-1.6759643
0.05756501
-1.6862636
0.059835462
-1.6967532
0.062207122
-1.7074363
0.06468518
-1.7183158
0.067274556
-1.7293949
0.069980275
-1.7406766
0.072807967
-1.7521641
0.075763911
-1.7638604
0.078854002
-1.7757687
0.082084452
-1.7878922
0.085462125
-1.800234
0.088994285
-1.8127972
0.092688458
-1.825585
0.096551861
-1.8386006
0.10059305
-1.8518471
0.10482082
-1.8653277
0.10924367
-1.8790455
0.11387145
-1.8930036
0.11871392
-1.9072052
0.12378146
-1.9216533
0.12908508
-1.936351
0.13463607
-1.9513013
0.14044647
-1.9665072
0.14652906
-1.9819716
0.15289701
-1.9976974
0.15956414
-2.0136874
0.16654535
-2.0299445
0.17385537
-2.0464714
0.18151057
-2.0632706
0.18952787
-2.0803446
0.19792496
-2.097696
0.20672017
-2.1153271
0.21593299
-2.1332401
0.22558409
-2.151437
0.23569512
-2.16992
0.24628797
-2.1886907
0.2573867
-2.2077509
0.26901629
-2.227102
0.2812023
-2.2467453
0.29397231
-2.266682
0.30735517
-2.2869129
0.32138092
-2.3074388
0.33608116
-2.3282599
0.35148891
-2.3493765
0.36763909
-2.3707884
0.38456838
-2.3924952
0.4023149
-2.4144961
0.42091923
-2.43679
0.44042373
-2.4593753
0.46087236
-2.4822503
0.48231204
-2.5054125
0.50479168
-2.5288593
0.52836271
-2.5525873
0.55307898
-2.5765928
0.57899685
-2.6008716
0.6061759
-2.6254186
0.63467851
-2.6502285
0.66457022
-2.6752951
0.6959196
-2.7006115
0.72879886
-2.7261702
0.76328391
-2.7519628
0.79945425
-2.7779801
0.83739314
-2.8042121
0.87718847
-2.8306476
0.91893188
-2.857275
0.96271999
-2.8840809
1.0086545
-2.9110514
1.0568419
-2.9381711
1.107394
-2.9654236
1.1604275
-2.9927909
1.2160662
-3.0202539
1.2744394
-3.047792
1.3356828
-3.0753828
1.3999383
-3.1030026
1.4673563
-3.1306258
1.538094
-3.158225
1.6123159
-3.1857708
1.6901953
-3.213232
1.7719138
-3.2405751
1.8576629
-3.2677644
1.9476421
-3.2947616
2.0420626
-3.3215263
2.141145
-3.3480151
2.2451211
-3.3741819
2.3542341
-3.3999777
2.4687403
-3.4253504
2.5889079
-3.4502445
2.7150185
-3.4746011
2.8473677
-3.4983578
2.9862665
-3.5214482
3.1320406
-3.5438018
3.2850329
-3.5653441
3.4456027
-3.5859957
3.6141269
-3.6056729
3.7910025
-3.624287
3.9766448
-3.6417435
4.1714912
-3.657943
4.3759994
-3.6727801
4.5906519
-3.6861432
4.8159539
-3.6979142
5.0524361
-3.7079684
5.3006554
-3.7161738
5.5611977
-3.7223911
5.8346768
-3.7264727
6.1217381
-3.7282631
6.4230593
-3.7275976
6.73935
-3.7243028
7.0713587
-3.7181952
7.4198681
-3.7090811
7.7857018
-3.6967565
8.1697238
-3.6810055
8.5728422
-3.6616009
8.9960089
-3.638303
9.4402249
-3.6108589
9.9065407
-3.5790029
10.396059
-3.5424547
10.90994
-3.5009207
11.449402
-3.4540927
12.015723
-3.4016492
12.610254
-3.3432561
13.234413
-3.2785678
13.8897
-3.20723
14.577705
-3.1288804
15.300114
-3.0431516
16.058724
-2.9496695
16.855455
-2.8480507
17.692362
-2.7378893
18.571636
-2.6187216
19.495583
-2.4899568
20.466523
-2.3507777
21.486604
-2.2000592
22.557637
-2.0363011
23.681143
-1.8592361
24.85716
-1.6650393
26.093111
-1.4609595
27.382117
-1.2372023
28.720514
-1.0056344
30.2126
31.556492
-1.7095692
0.048754898
-1.7189756
0.050407054
-1.7285596
0.052126263
-1.7383244
0.053915091
-1.7482729
0.05577729
-1.7584082
0.05771604
-1.7687336
0.059734291
-1.7792521
0.061836338
-1.789967
0.064025805
-1.8008814
0.066306527
-1.8119987
0.068683121
-1.8233221
0.071159718
-1.8348549
0.073740836
-1.8466005
0.076431692
-1.8585622
0.07923724
-1.8707435
0.082162508
-1.8831476
0.085213134
-1.8957781
0.088395474
-1.9086384
0.091715382
-1.9217319
0.095179115
-1.9350622
0.098793524
-1.9486325
0.10256589
-1.9624466
0.10650377
-1.9765078
0.11061437
-1.9908196
0.11490622
-2.0053855
0.11938817
-2.020209
0.12406868
-2.0352936
0.12895756
-2.0506427
0.13406458
-2.0662597
0.13940012
-2.0821481
0.14497515
-2.0983111
0.15080093
-2.1147523
0.15688944
-2.1314748
0.16325349
-2.1484819
0.1699061
-2.1657768
0.17686114
-2.1833627
0.18413338
-2.2012426
0.19173752
-2.2194195
0.19968983
-2.2378964
0.20800714
-2.256676
0.21670709
-2.2757611
0.22580787
-2.2951542
0.23532888
-2.314858
0.24529062
-2.3348746
0.25571466
-2.3552063
0.26662274
-2.3758551
0.27803871
-2.396823
0.28998742
-2.4181115
0.30249428
-2.4397222
0.31558656
-2.4616564
0.32929301
-2.483915
0.34364335
-2.5064988
0.35866898
-2.5294084
0.37440263
-2.552644
0.39087894
-2.5762054
0.40813424
-2.6000923
0.42620639
-2.6243038
0.44513555
-2.6488388
0.46496375
-2.6736958
0.4857345
-2.6988727
0.50749431
-2.7243671
0.53029164
-2.750176
0.55417738
-2.776296
0.57920491
-2.8027229
0.60543
-2.8294523
0.63291164
-2.8564787
0.6617116
-2.8837964
0.6918947
-2.9113986
0.72352887
-2.9392779
0.75668551
-2.9674261
0.79143973
-2.9958343
0.82787017
-3.0244923
0.86605923
-3.0533894
0.9060938
-3.0825135
0.94806454
-3.1118518
0.99206697
-3.1413899
1.0382016
-3.1711127
1.0865739
-3.2010034
1.1372942
-3.2310441
1.1904779
-3.2612155
1.2462474
-3.2914966
1.3047305
-3.3218649
1.3660613
-3.3522963
1.43038
-3.3827647
1.4978353
-3.4132424
1.5685824
-3.4436995
1.6427838
-3.4741042
1.7206108
-3.5044222
1.8022427
-3.5346171
1.8878687
-3.5646501
1.9776859
-3.5944794
2.0719027
-3.6240609
2.1707372
-3.6533473
2.2744181
-3.6822885
2.3831856
-3.7108309
2.4972929
-3.7389177
2.6170045
-3.7664884
2.7425987
-3.793479
2.8743673
-3.8198211
3.0126172
-3.8454423
3.1576699
-3.8702659
3.3098642
-3.8942104
3.4695543
-3.9171895
3.6371124
-3.9391116
3.8129304
-3.9598797
3.9974181
-3.9793911
4.1910072
-3.9975372
4.3941494
-4.0142028
4.6073208
-4.0292662
4.83102
-4.0425985
5.0657706
-4.0540636
5.3121222
-4.0635173
5.5706527
-4.0708075
5.8419678
-4.0757733
6.1267045
-4.0782445
6.4255308
-4.0780419
6.7391475
-4.0749755
7.0682924
-4.0688453
7.4137379
-4.0594398
7.7762961
-4.046536
8.1568196
-4.0298986
8.5562042
-4.009279
8.9753886
-3.9844157
9.41536
-3.9550328
9.877155
-3.9208397
10.361861
-3.881531
10.870623
-3.8367858
11.40464
-3.7862684
11.965177
-3.729628
12.553564
-3.6665008
13.171201
-3.5965106
13.819568
-3.5192717
14.500234
-3.4343909
15.214863
-3.3414683
15.965228
-3.2400975
16.753223
-3.1298604
17.580874
-3.0103115
18.450337
-2.8809397
19.363875
-2.7410882
20.323754
-2.5898438
21.332075
-2.4259479
22.390627
-2.2477717
23.500914
-2.0550386
24.663063
-1.8436423
25.88475
-1.6215462
27.158087
-1.3779518
28.479758
-1.1260345
29.955432
31.280237
-1.8465103
0.058909311
-1.8568564
0.060753661
-1.867398
0.062668383
-1.8781383
0.064656044
-1.8890809
0.066720451
-1.9002291
0.068864842
-1.9115863
0.07109217
-1.9231561
0.073406779
-1.934942
0.075812355
-1.9469475
0.078312695
-1.9591762
0.080912547
-1.9716317
0.083615989
-1.9843177
0.086427606
-1.9972379
0.089352653
-2.0103959
0.0923961
-2.0237955
0.095562966
-2.0374405
0.098859001
-2.0513346
0.10229047
-2.0654816
0.10586332
-2.0798853
0.10958382
-2.0945496
0.11345882
-2.1094783
0.11749559
-2.1246752
0.12170175
-2.1401442
0.12608445
-2.1558891
0.13065228
-2.1719137
0.13541401
-2.188222
0.14037818
-2.2048177
0.14555455
-2.2217047
0.15095286
-2.2388866
0.15658346
-2.2563674
0.16245737
-2.2741507
0.16858572
-2.2922403
0.17498054
-2.3106398
0.18165452
-2.3293527
0.18862069
-2.3483827
0.19589284
-2.3677332
0.20348563
-2.3874076
0.21141376
-2.4074093
0.21969339
-2.4277415
0.22834126
-2.4484072
0.23737488
-2.4694096
0.24681236
-2.4907515
0.25667298
-2.5124357
0.26697712
-2.5344649
0.27774614
-2.5568414
0.28900167
-2.5795675
0.3007674
-2.6026455
0.31306797
-2.626077
0.32592857
-2.649864
0.3393763
-2.6740076
0.3534396
-2.6985093
0.36814804
-2.7233698
0.38353265
-2.7485898
0.39962591
-2.7741697
0.41646213
-2.8001093
0.43407734
-2.8264082
0.45250896
-2.8530658
0.47179687
-2.8800807
0.49198257
-2.9074514
0.51310923
-2.9351758
0.53522279
-2.9632511
0.5583713
-2.9916743
0.58260504
-3.0204417
0.60797687
-3.0495489
0.63454191
-3.0789909
0.66235856
-3.108762
0.69148783
-3.1388559
0.72199384
-3.1692654
0.75394376
-3.1999824
0.78740812
-3.2309982
0.82246124
-3.2623028
0.85918071
-3.2938856
0.89764804
-3.3257345
0.93794901
-3.3578368
0.98017323
-3.3901782
1.024415
-3.4227435
1.0707737
-3.4555159
1.1193532
-3.4884774
1.1702627
-3.5216085
1.2236162
-3.554888
1.2795343
-3.5882932
1.3381432
-3.6217996
1.3995753
-3.655381
1.4639691
-3.689009
1.5314711
-3.7226533
1.6022345
-3.7562815
1.6764198
-3.7898587
1.7541959
-3.8233478
1.8357397
-3.856709
1.9212378
-3.8898998
2.0108847
-3.9228751
2.1048858
-3.9555865
2.2034563
-3.9879825
2.3068217
-4.0200083
2.4152189
-4.0516057
2.5288975
-4.0827127
2.6481184
-4.1132633
2.773156
-4.1431873
2.9042977
-4.1724105
3.0418464
-4.2008539
3.186119
-4.2284336
3.3374491
-4.2550606
3.4961861
-4.2806409
3.6626971
-4.3050744
3.8373678
-4.3282553
4.0206024
-4.3500715
4.2128264
-4.3704043
4.4144848
-4.389128
4.6260467
-4.4061097
4.8480035
-4.4212087
5.080871
-4.4342762
5.3251908
-4.445155
5.5815321
-4.4536788
5.8504922
-4.4596717
6.1326978
-4.4629483
6.4288076
-4.4633124
6.7395116
-4.4605568
7.0655367
-4.4544627
7.4076437
-4.4447994
7.7666326
-4.4313231
8.1433429
-4.4137766
8.5386571
-4.3918889
8.9534998
-4.3653739
9.3888431
-4.3339303
9.8457079
-4.2972409
10.325166
-4.2549722
10.828343
-4.206774
11.356423
-4.15228
11.910649
-4.0911078
12.492333
-4.022861
13.102853
-3.9471303
13.74367
-3.8634963
14.416328
-3.7715314
15.122467
-3.6708014
15.863835
-3.5608641
16.642298
-3.4412631
17.459847
-3.3115099
18.318599
-3.1710393
19.220767
-3.0191182
20.168561
-2.8547215
21.164027
-2.6764384
22.208929
-2.4824919
23.304779
-2.2726454
24.451742
-2.0424153
25.657973
-1.8006423
26.914138
-1.5354035
28.217681
-1.2612711
29.675395
30.979229
-1.9944337
0.070083418
-2.0058189
0.072139343
-2.0174194
0.074269264
-2.0292387
0.07647581
-2.0412806
0.078762822
-2.0535488
0.081133573
-2.0660472
0.083591086
-2.0787796
0.086139713
-2.0917499
0.088783168
-2.104962
0.091525347
-2.1184198
0.094370939
-2.1321274
0.097324164
-2.1460887
0.10038959
-2.1603079
0.10357245
-2.174789
0.10687784
-2.1895361
0.11031077
-2.2045534
0.11387697
-2.219845
0.11758281
-2.2354151
0.1214342
-2.251268
0.12543744
-2.2674078
0.12959942
-2.2838388
0.13392741
-2.3005652
0.13842897
-2.3175913
0.14311141
-2.3349213
0.14798318
-2.3525595
0.15305311
-2.37051
0.15832971
-2.3887772
0.16382275
-2.4073653
0.16954195
-2.4262785
0.17549764
-2.4455208
0.18170079
-2.4650965
0.18816253
-2.4850096
0.19489481
-2.5052642
0.20191033
-2.5258643
0.20922201
-2.5468137
0.2168436
-2.5681164
0.22478969
-2.5897762
0.23307492
-2.6117967
0.2417153
-2.6341815
0.25072754
-2.6569341
0.26012902
-2.6800579
0.26993772
-2.7035561
0.28017278
-2.7274317
0.29085443
-2.7516877
0.30200392
-2.7763269
0.31364268
-2.8013518
0.32579418
-2.8267648
0.33848289
-2.852568
0.35173378
-2.8787633
0.3655737
-2.9053524
0.38003085
-2.9323366
0.39513447
-2.959717
0.41091536
-2.9874943
0.42740566
-3.015669
0.44463931
-3.0442411
0.46265201
-3.0732103
0.48148076
-3.1025757
0.50116502
-3.1323361
0.52174581
-3.1624899
0.5432659
-3.1930347
0.56577064
-3.2239678
0.58930757
-3.2552859
0.61392635
-3.2869849
0.63967923
-3.3190603
0.6666207
-3.3515066
0.69480838
-3.3843177
0.7243026
-3.4174867
0.75516666
-3.451006
0.78746688
-3.4848667
0.82127286
-3.5190594
0.85665797
-3.5535733
0.89369885
-3.5883968
0.93247585
-3.623517
0.97307366
-3.6589199
1.0155807
-3.6945901
1.0600899
-3.7305109
1.1066993
-3.7666643
1.1555115
-3.8030306
1.206634
-3.8395885
1.2601791
-3.8763151
1.316266
-3.9131856
1.3750189
-3.9501733
1.4365684
-3.9872496
1.5010508
-4.0243838
1.5686106
-4.0615428
1.6393989
-4.0986911
1.7135736
-4.135791
1.7913012
-4.1728017
1.8727559
-4.2096801
1.9581216
-4.2463798
2.0475897
-4.2828514
2.1413627
-4.3190423
2.2396524
-4.3548963
2.3426808
-4.3903537
2.4506812
-4.4253509
2.5638994
-4.4598201
2.6825923
-4.4936894
2.8070297
-4.5268824
2.9374949
-4.5593179
3.0742858
-4.5909095
3.2177143
-4.6215658
3.3681089
-4.6511899
3.5258133
-4.6796786
3.6911886
-4.7069229
3.8646146
-4.7328074
4.046489
-4.7572094
4.2372303
-4.7799993
4.4372763
-4.80104
4.6470887
-4.8201861
4.8671506
-4.8372841
5.0979698
-4.8521713
5.3400787
-4.864676
5.5940374
-4.8746165
5.860433
-4.8818009
6.1398824
-4.8860262
6.4330329
-4.8870781
6.7405636
-4.8847303
7.0631889
-4.8787438
7.401657
-4.8688662
7.7567547
-4.8548313
8.1293077
-4.8363582
8.5201831
-4.8131503
8.9302905
-4.7848954
9.3605857
-4.7512641
9.8120722
-4.7119101
10.285804
-4.6664688
10.782888
-4.6145583
11.304488
-4.5557787
11.851828
-4.4897132
12.426195
-4.4159298
13.028949
-4.3339831
13.661525
-4.2434172
14.325442
-4.1437674
15.022314
-4.0345618
15.753862
-3.9153192
16.521917
-3.7855417
17.328437
-3.6446928
18.175493
-3.492146
19.065241
-3.3270804
19.999828
-3.1483412
20.981241
-2.9543445
22.011214
-2.743143
23.091287
-2.5146024
24.221595
-2.2637385
25.411013
-2.0004737
26.648422
-1.711604
27.932325
-1.4132094
29.370364
30.651153
-2.1542199
0.082385742
-2.1667549
0.084674662
-2.1795269
0.087041594
-2.1925399
0.089489216
-2.2057982
0.092021411
-2.2193057
0.094641471
-2.2330667
0.097352514
-2.2470855
0.10015887
-2.2613663
0.10306438
-2.2759135
0.10607291
-2.2907313
0.10918924
-2.3058243
0.11241759
-2.3211968
0.11576256
-2.3368534
0.11922949
-2.3527985
0.12282341
-2.3690367
0.12654944
-2.3855725
0.13041332
-2.4024106
0.13442142
-2.4195556
0.1385797
-2.437012
0.14289446
-2.4547846
0.14737261
-2.4728781
0.15202149
-2.4912972
0.15684861
-2.5100464
0.16186128
-2.5291306
0.167068
-2.5485544
0.17247757
-2.5683225
0.17809853
-2.5884396
0.18394055
-2.6089103
0.19001343
-2.6297394
0.19632744
-2.6509313
0.20289351
-2.6724907
0.20972275
-2.6944222
0.21682708
-2.7167301
0.22421909
-2.7394189
0.23191171
-2.762493
0.2399186
-2.7859566
0.24825425
-2.8098139
0.25693324
-2.8340691
0.26597151
-2.8587261
0.2753856
-2.8837889
0.2851928
-2.909261
0.29541098
-2.9351462
0.30605913
-2.9614479
0.31715729
-2.9881693
0.32872658
-3.0153136
0.34078819
-3.0428835
0.35336545
-3.0708819
0.36648257
-3.0993109
0.38016425
-3.128173
0.39443717
-3.1574698
0.40932918
-3.187203
0.42486922
-3.2173739
0.44108779
-3.2479832
0.45801667
-3.2790317
0.47568946
-3.3105193
0.49414137
-3.3424458
0.51340907
-3.3748104
0.53353149
-3.4076119
0.55454922
-3.4408484
0.5765044
-3.4745177
0.59944196
-3.5086167
0.6234087
-3.5431419
0.64845376
-3.578089
0.67462861
-3.6134531
0.70198708
-3.6492284
0.73058603
-3.6854082
0.76048489
-3.7219852
0.79174616
-3.7589509
0.8244352
-3.796296
0.85862065
-3.8340101
0.89437481
-3.8720817
0.93177324
-3.910498
0.97089506
-3.9492452
1.0118238
-3.988308
1.0546464
-4.0276696
1.0994546
-4.0673121
1.1463449
-4.1072156
1.1954182
-4.1473588
1.2467805
-4.1877186
1.3005423
-4.22827
1.3568208
-4.2689861
1.4157384
-4.3098378
1.4774235
-4.3507939
1.5420103
-4.3918208
1.6096411
-4.4328826
1.6804642
-4.4739407
1.7546352
-4.5149537
1.8323178
-4.5558774
1.9136832
-4.5966646
1.9989123
-4.6372649
2.0881934
-4.6776242
2.1817254
-4.7176851
2.2797166
-4.7573865
2.3823854
-4.7966631
2.4899609
-4.8354453
2.6026847
-4.8736594
2.7208092
-4.9112268
2.8445999
-4.9480641
2.9743347
-4.9840824
3.1103065
-5.0191878
3.2528219
-5.0532801
3.4022032
-5.0862535
3.5587886
-5.1179956
3.7229323
-5.1483869
3.8950075
-5.1773015
4.0754049
-5.2046055
4.2645354
-5.2301572
4.462829
-5.2538066
4.6707389
-5.2753952
4.8887398
-5.2947549
5.1173299
-5.3117081
5.3570323
-5.3260671
5.6083965
-5.3376332
5.8719993
-5.3461966
6.1484459
-5.3515358
6.4383721
-5.3534162
6.7424439
-5.3515905
7.0613631
-5.3457974
7.3958638
-5.3357612
7.7467183
-5.3211907
8.1147365
-5.3017787
8.5007701
-5.2772013
8.9057113
-5.2471169
9.3304981
-5.2111657
9.7761155
-5.1689692
10.243597
-5.1201293
10.734031
-5.0642288
11.248557
-5.0008312
11.788378
-4.9294824
12.354759
-4.8497116
12.949033
-4.7610342
13.572609
-4.6629543
14.226981
-4.554967
14.913734
-4.4365595
15.634557
-4.3072082
16.391247
-4.1663689
17.18572
-4.0134523
18.019999
-3.8477619
18.896177
-3.6683745
19.81633
-3.4739856
20.782377
-3.2628154
21.796025
-3.0327237
22.858851
-2.7837626
23.970888
-2.5102852
25.141943
-2.2235454
26.358918
-1.9088585
27.6215
-1.5839497
29.038
30.293485
-2.3268207
0.095936986
-2.3406285
0.09848266
-2.3546974
0.10111073
-2.3690319
0.10382402
-2.3836366
0.10662637
-2.3985161
0.10952117
-2.4136749
0.11251159
-2.4291178
0.115602
-2.4448494
0.11879627
-2.4608745
0.12209834
-2.4771981
0.12551305
-2.4938247
0.12904459
-2.5107596
0.13269771
-2.5280075
0.13647769
-2.5455734
0.14038965
-2.5634623
0.14443872
-2.5816794
0.14863072
-2.6002296
0.15297199
-2.6191181
0.15746856
-2.63835
0.16212674
-2.6579305
0.16695346
-2.6778647
0.17195607
-2.6981577
0.1771421
-2.7188149
0.18251888
-2.7398414
0.18809488
-2.7612423
0.19387896
-2.7830229
0.19987957
-2.8051883
0.20610647
-2.8277438
0.21256937
-2.8506944
0.21927852
-2.8740452
0.22624482
-2.8978013
0.23347938
-2.9219677
0.24099406
-2.9465494
0.24880137
-2.9715513
0.2569142
-2.9969782
0.26534613
-3.0228349
0.27411157
-3.0491261
0.28322504
-3.0758562
0.29270228
-3.1030297
0.30255982
-3.130651
0.31281478
-3.1587242
0.32348487
-3.1872533
0.33458896
-3.2162421
0.34614691
-3.2456943
0.3581796
-3.2756134
0.37070812
-3.3060026
0.38375547
-3.3368649
0.39734568
-3.3682029
0.4115032
-3.4000192
0.42625438
-3.4323158
0.44162678
-3.4650947
0.45764906
-3.4983572
0.47435128
-3.5321044
0.49176493
-3.5663369
0.5099231
-3.6010551
0.5288607
-3.6362587
0.5486138
-3.6719469
0.56922088
-3.7081185
0.59072202
-3.7447716
0.61315872
-3.7819037
0.63657537
-3.8195117
0.66101805
-3.8575918
0.68653525
-3.8961395
0.71317769
-3.9351493
0.74099838
-3.9746151
0.77005334
-4.0145299
0.80040116
-4.0548854
0.83210333
-4.0956728
0.8652242
-4.1368819
0.89983136
-4.1785013
0.93599595
-4.2205187
0.97379234
-4.2629202
1.0132984
-4.3056907
1.0545961
-4.3488137
1.0977713
-4.3922711
1.1429139
-4.4360431
1.1901188
-4.4801083
1.2394854
-4.5244434
1.2911176
-4.5690233
1.3451242
-4.6138209
1.4016204
-4.6588066
1.4607262
-4.703949
1.522568
-4.749214
1.5872774
-4.794565
1.6549942
-4.8399628
1.7258641
-4.8853653
1.8000398
-4.9307275
1.877682
-4.9760011
1.9589588
-5.0211345
2.0440478
-5.0660727
2.1331336
-5.1107569
2.2264115
-5.1551243
2.324086
-5.1991082
2.4263711
-5.2426371
2.5334917
-5.2856355
2.6456847
-5.3280225
2.7631979
-5.3697124
2.8862913
-5.410614
3.0152377
-5.4506304
3.1503243
-5.4896588
3.2918515
-5.5275899
3.4401355
-5.5643081
3.5955077
-5.5996902
3.7583154
-5.6336064
3.9289244
-5.6659183
4.1077176
-5.6964799
4.2950975
-5.7251363
4.4914859
-5.7517236
4.6973266
-5.7760683
4.9130848
-5.7979868
5.1392486
-5.817285
5.3763306
-5.8337576
5.6248692
-5.8471873
5.8854291
-5.8573449
6.1586034
-5.8639877
6.4450149
-5.8668597
6.7453158
-5.8656902
7.0601934
-5.8601935
7.3903669
-5.850068
7.7365923
-5.8349954
8.0996631
-5.8146396
8.4804129
-5.7886465
8.8797158
-5.7566424
9.2984899
-5.7182342
9.7377
-5.6730079
10.198358
-5.6205289
10.681529
-5.5603412
11.188332
-5.4919689
11.719941
-5.4149164
12.277598
-5.3286712
12.862609
-5.2327058
13.476355
-5.1264812
14.1203
-5.0094489
14.795998
-4.8810513
15.505104
-4.7407182
16.249376
-4.5878548
17.030685
-4.4218119
17.851
-4.2418126
18.712345
-4.0468132
19.616719
-3.8353353
20.565968
-3.6053788
21.561765
-3.3545909
22.605731
-3.0833248
23.697737
-2.7850605
24.848663
-2.4726778
26.043409
-2.1297579
27.282756
-1.7758616
28.675728
29.903471
-2.5132648
0.1108715
-2.5284822
0.11370021
-2.5439875
0.11661624
-2.5597857
0.11962237
-2.5758818
0.12272259
-2.5922808
0.12592029
-2.6089877
0.12921875
-2.6260079
0.13262233
-2.6433465
0.13613501
-2.6610087
0.13976076
-2.6789999
0.14350442
-2.6973255
0.14737034
-2.7159908
0.15136321
-2.7350013
0.15548841
-2.7543625
0.15975109
-2.77408
0.16415644
-2.7941593
0.16871027
-2.8146061
0.17341898
-2.835426
0.17828865
-2.8566246
0.18332558
-2.8782077
0.18853677
-2.9001809
0.19392954
-2.92255
0.19951147
-2.9453207
0.20528988
-2.9684989
0.2112733
-2.9920901
0.21747046
-3.0161002
0.22388995
-3.0405348
0.23054143
-3.0653998
0.23743464
-3.0907008
0.24457979
-3.1164434
0.25198774
-3.1426332
0.25966956
-3.1692759
0.26763706
-3.1963769
0.27590272
-3.2239416
0.28447931
-3.2519755
0.29338038
-3.2804838
0.30262025
-3.3094717
0.31221326
-3.3389442
0.32217519
-3.3689062
0.33252231
-3.3993627
0.34327164
-3.4303181
0.35444077
-3.4617771
0.36604837
-3.4937438
0.37811412
-3.5262224
0.39065867
-3.5592167
0.40370292
-3.5927304
0.41726966
-3.6267668
0.43138259
-3.6613289
0.4460659
-3.6964197
0.46134567
-3.7320414
0.47724908
-3.7681962
0.49380443
-3.8048857
0.51104145
-3.8421113
0.52899115
-3.8798738
0.54768625
-3.9181735
0.56716105
-3.9570103
0.58745126
-3.9963835
0.60859474
-4.0362917
0.63063097
-4.0767331
0.65360089
-4.1177051
0.6775481
-4.1592043
0.70251811
-4.2012268
0.72855852
-4.2437676
0.75571933
-4.286821
0.78405262
-4.3303803
0.81361356
-4.374438
0.8444597
-4.4189853
0.87665151
-4.4640124
0.91025226
-4.5095084
0.94532833
-4.5554611
0.98194963
-4.6018569
1.0201892
-4.648681
1.0601234
-4.6959168
1.101833
-4.7435464
1.145402
-4.7915502
1.1909187
-4.8399067
1.2384764
-4.8885925
1.2881723
-4.9375824
1.3401086
-4.9868489
1.3943919
-5.0363625
1.4511351
-5.0860912
1.510456
-5.1360005
1.5724784
-5.1860534
1.6373314
-5.2362098
1.7051519
-5.2864272
1.7760827
-5.3366595
1.8502733
-5.3868577
1.9278813
-5.436969
2.0090713
-5.4869372
2.0940171
-5.5367022
2.1828997
-5.5861997
2.2759102
-5.6353614
2.3732486
-5.6841141
2.4751248
-5.7323801
2.5817586
-5.7800766
2.6933821
-5.8271155
2.8102377
-5.8734029
2.9325795
-5.9188393
3.0606749
-5.9633189
3.1948045
-6.006729
3.3352623
-6.0489507
3.4823577
-6.089857
3.6364145
-6.1293137
3.7977726
-6.1671786
3.9667896
-6.2033006
4.1438399
-6.23752
4.3293172
-6.2696674
4.5236335
-6.2995636
4.7272229
-6.3270187
4.9405401
-6.3518322
5.1640622
-6.3737915
5.39829
-6.3926721
5.6437499
-6.4082366
5.9009936
-6.4202339
6.1706007
-6.4283987
6.4531796
-6.4324509
6.7493679
-6.4320944
7.0598368
-6.4270166
7.3852887
-6.4168876
7.7264626
-6.4013589
8.0841334
-6.3800631
8.4591153
-6.3526126
8.8522621
-6.318599
9.2644708
-6.2775921
9.6966834
-6.2291393
10.149889
-6.1727656
10.625127
-6.1079732
11.123491
-6.0342428
11.646129
-5.9510338
12.194254
-5.8577883
12.769143
-5.7539326
13.372146