/*--------------------------------*- C++ -*----------------------------------*\
| =========                 |                                                 |
| \\      /  F ield         | OpenFOAM: The Open Source CFD Toolbox           |
|  \\    /   O peration     | Version:  2506                                  |
|   \\  /    A nd           | Website:  www.openfoam.com                      |
|    \\/     M anipulation  |                                                 |
\*---------------------------------------------------------------------------*/
FoamFile
{
    version     2.0;
    format      ascii;
    arch        "LSB;label=32;scalar=64";
    class       volScalarField;
    location    "2.75";
    object      rho;
}
// * * * * * * * * * * * * * * * * * * * * * * * * * * * * * * * * * * * * * //

dimensions      [1 -3 0 0 0 0 0];

internalField   nonuniform List<scalar> 
1376
(
0.66549395
0.66550208
0.66554046
0.66557461
0.66551535
0.66548716
0.66549552
0.66553373
0.66556756
0.66558966
0.66560225
0.66560944
0.66561417
0.66561783
0.66562081
0.66550888
0.66548081
0.66548932
0.66552701
0.66555996
0.66558132
0.66559356
0.66560075
0.66560576
0.66560996
0.66561361
0.66561678
0.66561944
0.66562166
0.6656238
0.66562601
0.66550278
0.66547529
0.66548436
0.66552173
0.66555384
0.66557433
0.66558591
0.66559274
0.66559757
0.66560172
0.66560558
0.66560914
0.66561222
0.66561486
0.66561731
0.66561974
0.66562221
0.66562463
0.66562693
0.66562929
0.66549531
0.66546872
0.66547856
0.6655159
0.66554753
0.66556746
0.66557852
0.66558489
0.66558944
0.66559338
0.66559719
0.66560093
0.66560428
0.66560719
0.66560973
0.66561213
0.66561457
0.66561703
0.66561951
0.66562209
0.66562502
0.66562859
0.66563292
0.66563762
0.66564196
0.66548528
0.66545945
0.66547002
0.66550736
0.66553848
0.66555783
0.66556841
0.66557428
0.66557825
0.66558178
0.66558547
0.66558927
0.66559308
0.66559665
0.66559978
0.66560262
0.66560536
0.66560808
0.66561071
0.66561329
0.66561616
0.66561961
0.66562386
0.66562917
0.66563502
0.66564029
0.66564499
0.66564933
0.6656522
0.6654741
0.66544895
0.66546056
0.66549815
0.6655291
0.66554814
0.66555846
0.66556416
0.66556783
0.66557107
0.66557446
0.66557795
0.66558174
0.66558563
0.66558936
0.66559292
0.66559637
0.66559977
0.665603
0.66560594
0.66560877
0.66561187
0.66561531
0.66561905
0.66562364
0.66562908
0.66563427
0.66563929
0.66564467
0.6656492
0.66565246
0.66565486
0.66565678
0.66546253
0.66543803
0.66545063
0.66548873
0.66551995
0.66553926
0.66554999
0.66555629
0.66556077
0.66556455
0.66556794
0.66557111
0.66557426
0.6655775
0.66558086
0.66558435
0.66558788
0.66559132
0.66559454
0.66559749
0.6656002
0.6656028
0.66560565
0.66560882
0.66561235
0.66561715
0.66562295
0.66562786
0.66563255
0.6656385
0.66564432
0.66564958
0.66565504
0.66565963
0.66566273
0.66566554
0.6654483
0.66542405
0.66543739
0.66547587
0.66550724
0.66552677
0.66553797
0.66554507
0.66555053
0.66555531
0.66555951
0.66556302
0.66556612
0.6655691
0.66557225
0.66557567
0.66557924
0.66558276
0.66558596
0.66558884
0.6655916
0.66559433
0.66559699
0.66560021
0.66560416
0.66560805
0.66561245
0.665617
0.66561987
0.66562352
0.66563113
0.66564038
0.6656493
0.66565713
0.66566193
0.6656658
0.6656698
0.66567337
0.66567591
0.66543383
0.66540947
0.6654236
0.66546242
0.66549373
0.66551318
0.66552444
0.6655317
0.66553748
0.66554254
0.66554692
0.66555064
0.66555393
0.66555711
0.66556046
0.66556406
0.66556781
0.66557157
0.6655752
0.66557856
0.66558168
0.66558481
0.66558798
0.66559068
0.66559355
0.66559751
0.66560161
0.6656066
0.66561261
0.66561651
0.66561845
0.6656224
0.66563052
0.66564374
0.66565541
0.66566214
0.66566641
0.66567248
0.66567681
0.66568072
0.66568426
0.66568869
0.66542308
0.66539906
0.66541379
0.6654526
0.66548346
0.66550244
0.66551344
0.66552033
0.66552572
0.66553029
0.66553401
0.66553723
0.66554018
0.66554305
0.66554591
0.66554887
0.66555206
0.66555564
0.66555968
0.66556418
0.6655689
0.6655734
0.6655776
0.66558194
0.66558506
0.66558709
0.6655907
0.66559488
0.66559995
0.66560695
0.66561419
0.66562034
0.66562378
0.66562433
0.66562982
0.66564062
0.66565139
0.66566252
0.66567271
0.66568108
0.66568511
0.66568871
0.66569299
0.66569855
0.66570355
0.66541132
0.66538797
0.66540298
0.66544127
0.66547119
0.66548931
0.66549975
0.6655066
0.66551167
0.66551601
0.66552022
0.66552426
0.66552827
0.6655319
0.66553497
0.6655376
0.66554022
0.66554312
0.6655464
0.66555017
0.66555445
0.66555906
0.66556336
0.66556681
0.6655716
0.66557681
0.66558067
0.66558629
0.66559246
0.6655981
0.66560477
0.66561175
0.66561696
0.66562059
0.66562588
0.66563216
0.66563988
0.66564512
0.66565156
0.66566158
0.66567324
0.66568462
0.66569228
0.66569988
0.6657075
0.66571643
0.6657105
0.66539611
0.66537302
0.66538833
0.66542627
0.66545536
0.66547266
0.66548229
0.66548824
0.66549274
0.66549702
0.66550158
0.66550654
0.66551152
0.66551591
0.66551958
0.6655229
0.66552628
0.66552983
0.6655336
0.66553766
0.66554206
0.66554651
0.665551
0.66555556
0.66555874
0.66556268
0.66556744
0.66557111
0.66557712
0.66558472
0.66559103
0.66559872
0.66560858
0.66561674
0.66562136
0.66562613
0.66563407
0.66564198
0.66564934
0.66565697
0.66566535
0.66567445
0.66568274
0.66568778
0.66569885
0.66571821
0.66571339
0.66575914
0.66569573
0.66538221
0.66535958
0.66537584
0.66541425
0.66544314
0.66545969
0.66546822
0.66547277
0.66547623
0.66547965
0.66548332
0.66548756
0.66549174
0.66549546
0.66549879
0.66550238
0.6655065
0.66551119
0.66551661
0.66552272
0.66552911
0.66553557
0.66554139
0.66554748
0.6655544
0.66555842
0.66556305
0.66556792
0.6655704
0.6655745
0.66558004
0.66558259
0.66558638
0.66559522
0.66560473
0.66561441
0.66562574
0.66563759
0.66564627
0.665652
0.6656615
0.66567249
0.66567974
0.66568897
0.66569556
0.66570533
0.66570283
0.6657587
0.66568981
0.66536993
0.66534839
0.66536578
0.6654048
0.66543379
0.66544998
0.66545817
0.66546307
0.66546697
0.66547079
0.66547496
0.66547932
0.66548344
0.66548676
0.66548932
0.66549165
0.66549383
0.66549586
0.66549818
0.66550157
0.66550627
0.66551247
0.66552058
0.66552811
0.66553744
0.66554945
0.66555601
0.6655611
0.66556767
0.66557174
0.66557712
0.66558397
0.6655895
0.66559309
0.6655981
0.66560245
0.66560418
0.66561168
0.66562438
0.66563594
0.66565094
0.6656677
0.66567972
0.66569033
0.66569335
0.66570932
0.66569652
0.66575606
0.66568294
0.66535478
0.66533344
0.66535071
0.66538895
0.66541699
0.66543275
0.66544117
0.665447
0.66545184
0.66545645
0.66546131
0.66546603
0.66547027
0.66547391
0.66547744
0.66548093
0.66548395
0.66548656
0.66548905
0.66549121
0.66549282
0.6654939
0.66549605
0.66550062
0.66550345
0.66550872
0.665523
0.66553991
0.66555611
0.66556975
0.66557713
0.66558236
0.66558701
0.66559306
0.6655989
0.66560414
0.66560932
0.66561475
0.66562115
0.66562595
0.66563149
0.66564098
0.66565557
0.66567248
0.66568848
0.66571179
0.66569378
0.6657644
0.6656762
0.66533742
0.66531596
0.66533304
0.66537007
0.66539664
0.66541165
0.66541994
0.6654253
0.66542963
0.66543376
0.66543773
0.66544141
0.66544477
0.66544864
0.66545351
0.66545839
0.66546281
0.66546772
0.66547334
0.66547906
0.66548435
0.66548838
0.66549115
0.66549568
0.66550364
0.66550932
0.66551242
0.66551539
0.66551911
0.66552366
0.66553599
0.66555274
0.66556654
0.66558162
0.66559293
0.66560313
0.66561188
0.66561642
0.66562039
0.66562753
0.66563351
0.66564057
0.66564945
0.66565658
0.6656697
0.66568976
0.66567655
0.66575822
0.66567244
0.66532202
0.66530088
0.66531849
0.66535553
0.66538196
0.66539706
0.66540543
0.66541044
0.66541398
0.66541696
0.66541956
0.66542204
0.66542471
0.6654281
0.66543179
0.66543509
0.66543889
0.66544391
0.66544935
0.66545633
0.66546754
0.66548095
0.6654888
0.66549118
0.66549643
0.6655064
0.66551284
0.66551652
0.66552256
0.6655297
0.66553363
0.66553565
0.66554201
0.66554797
0.66555598
0.66556839
0.6655825
0.66559646
0.66560859
0.6656225
0.66563397
0.66564366
0.6656507
0.66565911
0.66566976
0.66569315
0.66566856
0.66574422
0.66565581
0.66530551
0.66528427
0.66530233
0.66534008
0.66536745
0.66538335
0.66539225
0.66539787
0.66540204
0.6654055
0.66540884
0.6654127
0.66541728
0.6654223
0.66542728
0.6654321
0.66543667
0.66544032
0.66544074
0.66543554
0.66543018
0.66543703
0.6654546
0.66547046
0.66547935
0.66549004
0.66550539
0.66551644
0.66552013
0.6655258
0.66552916
0.66553284
0.66553888
0.66554808
0.66555791
0.66556579
0.66557328
0.66557883
0.66558538
0.66559502
0.66560703
0.66562031
0.6656355
0.66565348
0.66566731
0.66569787
0.66566593
0.66575385
0.66564191
0.66528714
0.66526494
0.66528269
0.66532039
0.66534778
0.66536333
0.66537175
0.66537722
0.66538113
0.66538429
0.66538807
0.66539319
0.66539883
0.66540382
0.66540839
0.66541358
0.66541926
0.66542488
0.66543175
0.6654402
0.66544522
0.66544149
0.66543734
0.66544079
0.66544349
0.66544283
0.66545102
0.66545663
0.66547244
0.66549458
0.66551086
0.66552647
0.66553664
0.66554552
0.66555531
0.66556308
0.66557083
0.66557953
0.66558819
0.66559742
0.66560758
0.66561573
0.6656232
0.66562905
0.66564232
0.66567224
0.6656522
0.66575235
0.66563267
0.66526819
0.66524566
0.66526332
0.66530055
0.6653271
0.66534173
0.66534919
0.66535331
0.66535631
0.66535909
0.66536228
0.66536623
0.66537024
0.66537433
0.66537913
0.66538508
0.66539154
0.66539827
0.66540638
0.66541633
0.66542522
0.66543001
0.66543276
0.66543697
0.66544267
0.66545029
0.66545172
0.66545826
0.66546203
0.66546007
0.66546328
0.66547449
0.66549074
0.66550603
0.66552409
0.66554349
0.66555875
0.66557285
0.6655835
0.66559386
0.66560561
0.66561624
0.66562595
0.66563409
0.66564008
0.66567237
0.66563997
0.66574129
0.66561322
0.66524898
0.66522726
0.66524588
0.6652836
0.6653101
0.66532477
0.66533248
0.66533721
0.66534052
0.66534327
0.66534599
0.66534833
0.66535023
0.66535239
0.66535509
0.66535763
0.66536034
0.66536486
0.6653717
0.6653806
0.66539216
0.66540382
0.66541283
0.66542186
0.66543132
0.66543913
0.66544957
0.66545897
0.66546311
0.6654688
0.66547485
0.66548011
0.66548505
0.66548985
0.66549605
0.66550468
0.66551678
0.66553195
0.66554607
0.6655587
0.66557266
0.66558993
0.66560901
0.66562941
0.66564148
0.66568132
0.66563232
0.66575923
0.6655931
0.6652297
0.66520824
0.66522716
0.66526502
0.66529165
0.66530676
0.66531534
0.66532134
0.66532612
0.66533022
0.6653342
0.66533802
0.66534152
0.66534525
0.66534971
0.66535412
0.66535767
0.6653598
0.66535959
0.66535732
0.66535746
0.66536251
0.66536831
0.66537714
0.66539036
0.66540333
0.66541785
0.66543326
0.66544966
0.66546333
0.66547366
0.66547786
0.6654818
0.66548705
0.66549298
0.6655012
0.66551165
0.66552349
0.66553569
0.66554752
0.665558
0.66556663
0.66557564
0.66558844
0.66560563
0.66565032
0.66561689
0.66575778
0.66558089
0.66520966
0.66518789
0.66520641
0.66524334
0.66526908
0.66528378
0.66529248
0.66529856
0.66530352
0.66530768
0.66531162
0.66531605
0.66532057
0.66532511
0.66533003
0.66533577
0.66534227
0.66534924
0.66535645
0.66536276
0.66536635
0.66536899
0.66537141
0.66537212
0.66537198
0.6653722
0.66537103
0.66537506
0.6653857
0.66540022
0.66541849
0.66543503
0.66544988
0.66546395
0.66547584
0.66548674
0.66549774
0.66550893
0.66552244
0.66553723
0.6655525
0.66556624
0.6655799
0.66559272
0.6655997
0.66563987
0.6655921
0.66574395
0.66555031
0.66518933
0.66516773
0.66518633
0.66522234
0.66524684
0.6652605
0.66526854
0.66527437
0.66527879
0.6652821
0.66528507
0.66528836
0.66529238
0.66529693
0.66530153
0.66530667
0.66531279
0.66531961
0.66532705
0.6653352
0.66534257
0.66534864
0.66535512
0.66536132
0.66536746
0.66537307
0.66537684
0.66538018
0.66538083
0.66538229
0.66538746
0.66539598
0.6654073
0.66542026
0.66543314
0.6654472
0.66546159
0.66547533
0.66548934
0.66550291
0.66551791
0.66553647
0.66555898
0.66558473
0.66559757
0.66565844
0.66557728
0.66577095
0.6655212
0.66517031
0.66514895
0.66516803
0.66520363
0.66522734
0.66524022
0.66524758
0.6652531
0.66525745
0.66526065
0.66526313
0.6652652
0.66526767
0.66527102
0.66527486
0.66527893
0.66528343
0.66528835
0.66529345
0.6652992
0.66530574
0.66531227
0.66531941
0.66532717
0.66533553
0.66534418
0.66535238
0.66536087
0.66536845
0.66537571
0.66538262
0.66538978
0.66539729
0.66540521
0.66541441
0.66542628
0.6654396
0.66545413
0.66546882
0.66548184
0.66549297
0.66550309
0.66551598
0.66553172
0.66554998
0.66562153
0.66554857
0.66576694
0.66550277
0.66515195
0.66513052
0.66514994
0.66518516
0.6652084
0.66522073
0.66522752
0.66523268
0.66523691
0.66524051
0.66524367
0.66524616
0.66524859
0.6652517
0.6652557
0.66526015
0.66526469
0.66526909
0.66527309
0.66527675
0.66528037
0.66528385
0.66528752
0.66529144
0.66529563
0.66530154
0.66530911
0.66531802
0.66532835
0.66533957
0.6653505
0.66536095
0.66537043
0.66537968
0.66539022
0.66540303
0.66541747
0.66543324
0.66544957
0.66546632
0.66548435
0.66550223
0.66551931
0.66553438
0.66553802
0.66560032
0.6655048
0.66575155
0.66543328
0.66513365
0.66511229
0.66513194
0.66516641
0.66518857
0.66519974
0.66520513
0.66520852
0.66521149
0.66521444
0.66521744
0.66522037
0.66522325
0.66522654
0.66523083
0.66523607
0.66524171
0.66524747
0.66525325
0.66525904
0.66526468
0.66526975
0.66527423
0.66527792
0.6652802
0.66528213
0.66528447
0.66528741
0.66529212
0.66529845
0.66530638
0.66531608
0.6653267
0.66533795
0.66534984
0.66536283
0.66537669
0.66539137
0.66540756
0.66542551
0.66544628
0.66547112
0.66549682
0.66552781
0.6655303
0.66561226
0.6654756
0.66577279
0.66539644
0.66511141
0.66509074
0.66511139
0.66514552
0.66516653
0.66517638
0.66518059
0.66518286
0.66518436
0.66518561
0.66518749
0.66519008
0.66519292
0.66519604
0.6651998
0.66520437
0.66520931
0.66521431
0.66521953
0.66522504
0.66523091
0.66523698
0.66524317
0.66524986
0.6652567
0.66526305
0.66526837
0.66527259
0.66527649
0.66527998
0.66528426
0.66529053
0.66529841
0.66530755
0.66531787
0.66532942
0.66534225
0.6653557
0.66536992
0.66538433
0.66539798
0.66541561
0.66543988
0.66546909
0.66547852
0.66559934
0.66543824
0.66579958
0.66534235
0.66508305
0.66506325
0.66508523
0.66511971
0.66514087
0.66515105
0.6651557
0.66515854
0.66515978
0.66516048
0.66516191
0.66516347
0.6651655
0.66516811
0.66517107
0.66517428
0.66517766
0.66518095
0.66518431
0.66518796
0.66519168
0.66519564
0.66520012
0.66520542
0.66521177
0.6652187
0.66522542
0.665232
0.66523888
0.66524543
0.66525212
0.66525971
0.66526775
0.66527626
0.66528559
0.66529603
0.66530797
0.66532125
0.66533605
0.66535247
0.66536784
0.66538086
0.66539553
0.66542178
0.66541595
0.66552203
0.66535474
0.66570588
0.66526301
0.66505578
0.66503636
0.66505907
0.66509388
0.66511567
0.66512681
0.66513234
0.66513572
0.66513798
0.66513942
0.66514058
0.66514176
0.6651433
0.66514516
0.66514701
0.66514873
0.66515065
0.66515283
0.66515481
0.66515654
0.66515864
0.665161
0.66516328
0.66516589
0.66516923
0.66517311
0.66517744
0.66518264
0.66518881
0.66519534
0.6652023
0.66521007
0.665218
0.66522612
0.66523512
0.66524497
0.66525615
0.66526864
0.66528219
0.66529752
0.66531511
0.66533479
0.66535955
0.66540505
0.66538607
0.66559326
0.66530166
0.66593754
0.66513444
0.66502946
0.66501
0.66503233
0.66506657
0.66508761
0.66509807
0.66510322
0.66510616
0.66510847
0.66511002
0.66511105
0.66511273
0.66511427
0.6651152
0.66511572
0.66511621
0.66511732
0.66511873
0.66511947
0.66512048
0.66512269
0.66512491
0.66512674
0.66512863
0.66513049
0.66513192
0.66513373
0.66513665
0.66514021
0.6651441
0.66514831
0.66515262
0.66515733
0.66516267
0.66516879
0.66517579
0.66518363
0.66519266
0.66520263
0.66521379
0.6652261
0.66523895
0.66525555
0.66529533
0.66525632
0.66541801
0.66514965
0.66548837
0.66504926
0.66501511
0.66499609
0.66501811
0.665052
0.66507138
0.66508057
0.66508467
0.66508696
0.66508796
0.66508886
0.66509032
0.6650918
0.66509282
0.66509335
0.66509392
0.66509479
0.66509585
0.66509576
0.66509534
0.66509651
0.66509851
0.66510131
0.66510426
0.66510644
0.66510762
0.66510871
0.66511091
0.66511229
0.66511448
0.66511727
0.66512004
0.66512332
0.66512584
0.66512993
0.66513554
0.66514168
0.6651486
0.66515664
0.66516701
0.66517849
0.6651926
0.66521366
0.66524033
0.66530855
0.66525801
0.66559737
0.66514846
0.66624677
0.66496973
)
;

boundaryField
{
    Side
    {
        type            empty;
    }
    Inlet
    {
        type            calculated;
        value           nonuniform List<scalar> 
21
(
0.66573004
0.6657285
0.66572672
0.66572524
0.66572288
0.66571931
0.66571608
0.66571219
0.66570743
0.66570306
0.66569722
0.66568977
0.66568349
0.66567309
0.66566042
0.66564712
0.665629
0.6655996
0.66558022
0.66555098
0.66555512
)
;
    }
    Airfoil
    {
        type            calculated;
        value           nonuniform List<scalar> 0();
    }
    Outlet
    {
        type            calculated;
        value           nonuniform List<scalar> 
49
(
0.66498974
0.66497016
0.6649944
0.66502853
0.66504846
0.66505737
0.66506097
0.66506263
0.66506355
0.66506398
0.66506408
0.66506411
0.66506423
0.66506436
0.6650644
0.66506429
0.6650642
0.66506455
0.66506521
0.6650653
0.66506521
0.66506533
0.66506538
0.66506561
0.66506604
0.66506662
0.66506713
0.66506798
0.6650687
0.66506938
0.6650702
0.66507088
0.66507193
0.66507264
0.66507312
0.66507356
0.66507362
0.6650731
0.66507193
0.66507051
0.66506908
0.66506783
0.6650669
0.66507568
0.66506203
0.6651099
0.66501029
0.66519633
0.66492699
)
;
    }
    procBoundary13to6
    {
        type            processor;
        value           nonuniform List<scalar> 
34
(
0.66552231
0.66552231
0.66551419
0.66550841
0.66550245
0.66549481
0.66548492
0.66547363
0.66546164
0.66544798
0.66543398
0.66542252
0.66541063
0.6653959
0.66538168
0.66536857
0.66535365
0.66533666
0.66532036
0.6653043
0.66528743
0.66526842
0.66524822
0.66522875
0.66520951
0.66518911
0.66516965
0.66515155
0.66513339
0.66511093
0.66508243
0.66505504
0.6650287
0.66501422
)
;
    }
    procBoundary13to12
    {
        type            processor;
        value           nonuniform List<scalar> 
60
(
0.66550066
0.66550827
0.66554645
0.66558052
0.66559688
0.66559688
0.66560937
0.66561619
0.66562033
0.66562332
0.66562572
0.66562324
0.66562324
0.6656253
0.66562713
0.66562907
0.66563126
0.66562828
0.66562828
0.66563052
0.66563271
0.66563509
0.66563207
0.66563207
0.66563536
0.66563895
0.66564265
0.66564641
0.66564581
0.66564581
0.66564911
0.66565175
0.66565466
0.66565375
0.66565375
0.66565551
0.66565865
0.66566431
0.66566075
0.66566075
0.6656675
0.66567491
0.66566982
0.66566982
0.66567558
0.66568331
0.66568009
0.66568009
0.66568715
0.6656942
0.66569444
0.66569444
0.66569959
0.66570448
0.66571033
0.66571033
0.6657114
0.6657504
0.6657504
0.66570222
)
;
    }
}


// ************************************************************************* //
