/*--------------------------------*- C++ -*----------------------------------*\
| =========                 |                                                 |
| \\      /  F ield         | OpenFOAM: The Open Source CFD Toolbox           |
|  \\    /   O peration     | Version:  2506                                  |
|   \\  /    A nd           | Website:  www.openfoam.com                      |
|    \\/     M anipulation  |                                                 |
\*---------------------------------------------------------------------------*/
FoamFile
{
    version     2.0;
    format      ascii;
    arch        "LSB;label=32;scalar=64";
    class       surfaceScalarField;
    location    "0.016";
    object      phi;
}
// * * * * * * * * * * * * * * * * * * * * * * * * * * * * * * * * * * * * * //

dimensions      [1 0 -1 0 0 0 0];

oriented        oriented;

internalField   nonuniform List<scalar> 
27235
(
0.0016459514
-0.071228238
0.001690968
-0.067974466
-0.043122084
-0.0013079115
-0.0431527
-0.0012915118
-0.067997286
-0.0012361437
-0.071285541
-0.0011248039
-0.051396081
-0.022564444
-0.0013836145
-0.043184465
-0.001366124
-0.068021523
-0.0013086536
-0.07134508
-0.0011906773
-0.051513622
-0.0010953324
-0.022652711
-0.001062525
-0.026675229
-0.072613198
-0.0014645256
-0.04321754
-0.0014461737
-0.068046914
-0.0013862115
-0.071407253
-0.0012615546
-0.051637888
-0.0011613177
-0.022745489
-0.0011262511
-0.026715126
-0.001150518
-0.072595695
-0.0011850219
-0.10466821
-0.089057246
-0.0015499666
-0.043251902
-0.0015306839
-0.0680736
-0.001468183
-0.071472114
-0.0013364634
-0.051769122
-0.0012310542
-0.022843145
-0.0011937906
-0.026757375
-0.0012193608
-0.072576897
-0.0012567642
-0.10463535
-0.001224165
-0.089087001
-0.0011232706
-0.042552966
-0.0058369445
-0.0016408678
-0.043287581
-0.0016205657
-0.068101638
-0.0015554252
-0.071539784
-0.0014162474
-0.051907835
-0.0013053624
-0.022945872
-0.0012657807
-0.02680203
-0.0012927077
-0.072557425
-0.001333273
-0.10459948
-0.001299623
-0.08911831
-0.0011929033
-0.042649516
-0.0011044357
-0.0059249102
-0.0010409316
-0.0046918916
-0.028940917
-0.0017378417
-0.043324532
-0.0017164398
-0.06813118
-0.0016485929
-0.071610338
-0.0015015257
-0.052054402
-0.0013848147
-0.023054065
-0.001342748
-0.026849433
-0.0013711009
-0.072536924
-0.00141511
-0.10456023
-0.0013804937
-0.089150481
-0.0012675242
-0.04275197
-0.0011744681
-0.0060172378
-0.0011075191
-0.0047630467
-0.0010620562
-0.028987421
-0.0010470734
-0.053611985
-0.05736178
-0.0018406934
-0.043362773
-0.0018180857
-0.068162312
-0.0017474408
-0.071683888
-0.001592075
-0.052209311
-0.0014691887
-0.023167987
-0.0014244995
-0.026899723
-0.0014543258
-0.072515425
-0.0015020289
-0.10451749
-0.0014664454
-0.089183564
-0.0013468292
-0.042860496
-0.0012489572
-0.0061142003
-0.0011783763
-0.0048380567
-0.0011302712
-0.029036455
-0.0011149862
-0.053626502
-0.0010927993
-0.057380021
-0.0010468425
-0.05429013
-0.00092047452
-0.041660846
-0.0097131481
-0.0019501039
-0.043402261
-0.0019261858
-0.068195202
-0.0018526521
-0.071760536
-0.0016885554
-0.052372966
-0.0015590945
-0.023288057
-0.0015116149
-0.026953131
-0.0015429651
-0.072492811
-0.0015946244
-0.10447094
-0.0015581845
-0.089217502
-0.001431461
-0.042975535
-0.0013285146
-0.0062160151
-0.0012541104
-0.0049171526
-0.0012031665
-0.029088307
-0.0011876386
-0.053640724
-0.0011647082
-0.057398985
-0.0011170563
-0.054340387
-0.00098468383
-0.041800959
-0.00071146424
-0.0099905423
-0.00052721125
0.022195953
0.026252689
-0.0020663536
-0.043442997
-0.0020410068
-0.06822996
-0.0019644918
-0.0718404
-0.001791228
-0.052545853
-0.0016547657
-0.023414648
-0.0016043332
-0.027009862
-0.0016372684
-0.072469054
-0.0016931769
-0.10442038
-0.0016559026
-0.089252198
-0.0015216263
-0.043097518
-0.0014133206
-0.00632302
-0.0013348929
-0.005000513
-0.0012809281
-0.029143152
-0.0012651907
-0.053654666
-0.0012415351
-0.057418915
-0.0011921734
-0.05439263
-0.0010535983
-0.041947993
-0.00076211256
-0.010286677
-0.00056402849
0.022006995
-0.00050815258
0.026201845
-0.0004627118
0.014930269
0.0024130728
-0.0021898508
-0.043484948
-0.0021629754
-0.068266741
-0.0020833666
-0.071923608
-0.0019004992
-0.052728398
-0.0017565717
-0.023548228
-0.0017030136
-0.027070079
-0.0017375689
-0.072444132
-0.0017979793
-0.10436554
-0.0017600067
-0.089287531
-0.0016176873
-0.04322688
-0.0015037168
-0.0064354449
-0.0014210455
-0.0050883717
-0.0013638863
-0.029201159
-0.0013479967
-0.053668415
-0.0013235812
-0.057439577
-0.0012725304
-0.054446752
-0.0011275731
-0.042101871
-0.00081671623
-0.010602563
-0.00060349082
0.021803281
-0.00054362666
0.026147502
-0.0004953141
0.01488133
-0.00044932599
0.0023618634
-0.00042553439
-0.00059310175
0.00061195216
-0.0023217986
-0.043528116
-0.0022932799
-0.068305663
-0.002210474
-0.072010293
-0.0020175198
-0.052921119
-0.0018656116
-0.023689279
-0.0018087332
-0.027134037
-0.001844998
-0.072417969
-0.0019102792
-0.1043061
-0.0018717034
-0.08932338
-0.0017208245
-0.043364112
-0.0016008147
-0.0065537116
-0.001513658
-0.0051809692
-0.0014530781
-0.029262538
-0.0014371097
-0.053681891
-0.0014119368
-0.057460948
-0.0013592271
-0.054502754
-0.0012076877
-0.042262878
-0.00087617019
-0.010939626
-0.00064622595
0.021583577
-0.00058198629
0.026089116
-0.00053061122
0.014829426
-0.00048173601
0.0023074129
-0.00045659788
-0.00062073469
-0.00046221021
0.00061662988
-0.00049384591
-0.0043204249
-0.014750985
-0.0024623085
-0.043572474
-0.0024320319
-0.068346896
-0.0023459179
-0.072100586
-0.0021424104
-0.053124484
-0.0019819739
-0.023838345
-0.0019215639
-0.027201919
-0.0019596145
-0.07239052
-0.0020300653
-0.10424175
-0.0019910264
-0.089359599
-0.0018310717
-0.043509681
-0.0017046168
-0.0066781372
-0.0016127226
-0.0052785595
-0.0015485437
-0.029327436
-0.0015325639
-0.053695138
-0.0015066462
-0.057482953
-0.0014522899
-0.054560659
-0.0012939735
-0.042431288
-0.00094057796
-0.011299052
-0.00069222585
0.021346031
-0.00062319783
0.026026468
-0.00056858122
0.01477417
-0.00051664368
0.0022494641
-0.00049008662
-0.00064995206
-0.00049684592
0.0006223877
-0.00053187865
-0.0042837303
-0.00055670756
-0.01470967
-0.00054855222
-0.019495342
-0.00052123629
-0.018349152
-0.015609893
-0.0026115869
-0.043618076
-0.0025794655
-0.068390535
-0.002489919
-0.072194649
-0.0022753818
-0.053339008
-0.0021058451
-0.023995979
-0.0020416912
-0.027273998
-0.0020815869
-0.072361726
-0.002157551
-0.10417217
-0.002118127
-0.08939611
-0.0019485749
-0.043664086
-0.0018152326
-0.0068092042
-0.0017183374
-0.0053813555
-0.0016503491
-0.029396081
-0.0016344257
-0.053708154
-0.0016077464
-0.057505538
-0.0015518089
-0.054620404
-0.0013865914
-0.042607242
-0.0010101074
-0.011682155
-0.00074157405
0.021088601
-0.00066729819
0.025959122
-0.00060923935
0.014715452
-0.00055407651
0.0021878884
-0.00052603949
-0.00068091915
-0.0005341129
0.00062953249
-0.00057294042
-0.0042430146
-0.00060043732
-0.014664179
-0.00059218992
-0.019481207
-0.0005636377
-0.018369565
-0.00051104443
-0.015658676
-0.00043023119
-0.012845426
-0.010371506
-0.002770634
-0.043664941
-0.0027365532
-0.068436756
-0.0026434656
-0.072292618
-0.0024174096
-0.053565193
-0.0022381387
-0.024162808
-0.0021699688
-0.02735054
-0.0022117536
-0.072331552
-0.002293622
-0.10409697
-0.0022539851
-0.089432727
-0.0020742832
-0.043827841
-0.0019335413
-0.0069473218
-0.0018313425
-0.005489648
-0.0017593596
-0.02946867
-0.0017435802
-0.053720847
-0.0017161759
-0.057528701
-0.0016586552
-0.054682022
-0.0014864062
-0.042790936
-0.0010854706
-0.012090284
-0.00079477262
0.020809189
-0.00071469075
0.025886521
-0.00065298481
0.014653017
-0.00059440872
0.0021224351
-0.00056483395
-0.00071361627
-0.00057441662
0.0006381213
-0.00061750126
-0.0041976674
-0.00064799354
-0.014614025
-0.00063958608
-0.019465702
-0.00060976291
-0.018390763
-0.00055366696
-0.01571079
-0.00046630377
-0.012931774
-0.00037454693
-0.010462117
-0.00030559073
-0.0083450043
-0.00025264538
-0.0062704635
-0.0048949966
-0.0029401625
-0.043713166
-0.00290404
-0.068485663
-0.0028073122
-0.072394636
-0.0025691984
-0.053803631
-0.0023795203
-0.024339483
-0.0023070586
-0.02743188
-0.002350853
-0.072299883
-0.0024390007
-0.1040158
-0.0023992865
-0.089469323
-0.0022088675
-0.044001489
-0.0020601662
-0.0070930768
-0.001952333
-0.0056037649
-0.0018761679
-0.029545368
-0.0018606123
-0.053733222
-0.0018324751
-0.057552376
-0.0017734724
-0.054745414
-0.0015940707
-0.042982522
-0.00116722
-0.012525001
-0.0008521748
0.020505199
-0.00076566378
0.025808097
-0.00070008683
0.014586672
-0.00063790087
0.0020529142
-0.00060674172
-0.00074812477
-0.0006180551
0.00064845255
-0.000665921
-0.0041472059
-0.00069976739
-0.014558662
-0.00069113866
-0.019448815
-0.00066000351
-0.0184127
-0.00060022223
-0.015766368
-0.0005057738
-0.013025203
-0.00040551958
-0.010561187
-0.00033007291
-0.0084194966
-0.00027268607
-0.0063279425
-0.00023242802
-0.0049403273
-0.00018377008
-0.0036313748
-0.0001151434
0.0043040489
0.0012154086
-8.8979667e-05
-0.0031209984
-0.043762849
-0.0030827535
-0.068537405
-0.0029822826
-0.072500845
-0.0027315775
-0.054054879
-0.0025307585
-0.024526732
-0.0024536885
-0.027518353
-0.0024995408
-0.07226668
-0.0025944494
-0.10392817
-0.0025548464
-0.089505696
-0.0023531284
-0.044185578
-0.0021958274
-0.0072469926
-0.0020819824
-0.0057240669
-0.0020014109
-0.029626409
-0.0019862233
-0.053745121
-0.0019574264
-0.057576561
-0.0018969414
-0.054810609
-0.0017103392
-0.043182113
-0.0012560333
-0.01298783
-0.00091422842
0.02017435
-0.00082054752
0.025723103
-0.00075084893
0.014516124
-0.00068486203
0.0019790772
-0.00065208297
-0.0007844398
-0.0006653784
0.00066068549
-0.00071860396
-0.0040909145
-0.00075626187
-0.014497438
-0.00074728126
-0.019430478
-0.00071482113
-0.018435468
-0.00065114214
-0.015825713
-0.00054905675
-0.013126215
-0.00043935725
-0.010669587
-0.00035661475
-0.0085012738
-0.00029433121
-0.006390462
-0.00025162939
-0.0049864581
-0.00020232506
-0.0037083017
-0.0001299321
0.0042300085
0.0011865312
-0.00010168422
-0.003314059
-0.04381416
-0.0032736261
-0.068592091
-0.0031693409
-0.072611371
-0.0029054654
-0.054319584
-0.0026927039
-0.02472533
-0.0026106574
-0.027610384
-0.0026586996
-0.072231867
-0.0027608582
-0.10383365
-0.00272157
-0.089541642
-0.0025079254
-0.044380713
-0.0023413255
-0.0074097758
-0.0022210351
-0.0058509823
-0.0021358211
-0.029712019
-0.0021211607
-0.053756477
-0.0020917522
-0.057601146
-0.0020298895
-0.054877503
-0.0018360468
-0.043389783
-0.0013526977
-0.013480484
-0.00098141865
0.019813919
-0.00087969796
0.025630804
-0.00080561742
0.014441134
-0.00073563494
0.001900725
-0.00070121884
-0.00082258798
-0.00071678316
0.00067516191
-0.0007760068
-0.0040281555
-0.00081800008
-0.014429605
-0.0008085302
-0.019410723
-0.00077472238
-0.018459089
-0.00070694995
-0.015889042
-0.00059663451
-0.013235501
-0.00047642364
-0.010788468
-0.00038541089
-0.0085908367
-0.00031771717
-0.0064574665
-0.000272509
-0.0050342838
-0.00022272792
-0.0037697539
-0.00014642582
0.0041532155
0.0011551282
-0.00011581802
-0.0035200138
-0.043867336
-0.0034773486
-0.068649844
-0.0033691861
-0.072726327
-0.0030915527
-0.054598375
-0.0028659833
-0.024936139
-0.0027785442
-0.027708416
-0.0028288843
-0.072195417
-0.0029388314
-0.1037317
-0.0029000771
-0.089576936
-0.0026738978
-0.044587477
-0.0024972216
-0.0075820727
-0.0023699837
-0.0059849886
-0.0022800796
-0.029802259
-0.0022659486
-0.053767269
-0.0022360305
-0.0576261
-0.002172837
-0.054946074
-0.0019718038
-0.043605549
-0.0014578631
-0.0140045
-0.0010541274
0.019421451
-0.00094334995
0.025530163
-0.00086460582
0.014361386
-0.00079045179
0.0018176321
-0.00075440507
-0.00086252901
-0.00077255038
0.00069212791
-0.00083845515
-0.003958109
-0.00088541648
-0.014354303
-0.00087527419
-0.019389612
-0.00084011231
-0.018483589
-0.00076805131
-0.015956572
-0.0006489093
-0.013353693
-0.00051701622
-0.010919025
-0.00041661436
-0.0086897195
-0.00034292428
-0.0065304515
-0.00029513091
-0.0050834831
-0.0002450963
-0.0037929301
-0.00016478337
0.0040714441
0.001121193
-0.0001315434
-0.003739172
-0.043922713
-0.0036942038
-0.068710799
-0.0035821301
-0.07284581
-0.0032901575
-0.054891911
-0.0030508618
-0.025160058
-0.0029575513
-0.027812979
-0.0030103042
-0.072157222
-0.0031285765
-0.10362188
-0.0030905979
-0.089611316
-0.0028512668
-0.044806474
-0.0026636766
-0.0077647067
-0.0025289274
-0.0061266353
-0.0024343154
-0.029897154
-0.0024206694
-0.053777585
-0.0023903858
-0.057651229
-0.0023259473
-0.055016233
-0.0021178538
-0.043829309
-0.001571921
-0.014561461
-0.0011325641
0.018993802
-0.0010115251
0.025420075
-0.00092783843
0.014276612
-0.0008493724
0.0017296543
-0.00081173674
-0.0009042243
-0.00083280345
0.00071198166
-0.00090606809
-0.0038800308
-0.00095869206
-0.01427058
-0.00094770774
-0.019367216
-0.00091117859
-0.018509039
-0.00083467298
-0.0160285
-0.00070614075
-0.01348138
-0.00056132046
-0.011062505
-0.00045026266
-0.0087992128
-0.00036992315
-0.0066100791
-0.00031951567
-0.0051352948
-0.00026949593
-0.0038314892
-0.00018509965
0.003984878
0.0010843069
-0.00014898405
-0.0039730985
-0.043980692
-0.0039258084
-0.068775075
-0.0038098191
-0.072969885
-0.0035028694
-0.055200895
-0.0032488156
-0.025398117
-0.003149064
-0.027924665
-0.003204423
-0.072117131
-0.0033316595
-0.10350363
-0.0032947362
-0.089644484
-0.0030416197
-0.045038321
-0.0028421761
-0.0079584699
-0.0026992472
-0.0062765574
-0.0025996371
-0.029997018
-0.0025868274
-0.053786984
-0.0025562415
-0.057676514
-0.0024907041
-0.055087855
-0.0022757307
-0.044060951
-0.001696261
-0.015152904
-0.0012176819
0.018527555
-0.001084928
0.025299062
-0.00099596583
0.014186451
-0.00091306089
0.0016366379
-0.00087390033
-0.00094755242
-0.00089828551
0.00073504953
-0.0009796652
-0.003793086
-0.0010387663
-0.014177356
-0.0010267727
-0.019343626
-0.00098891114
-0.018535421
-0.00090776212
-0.016105083
-0.00076923357
-0.013619227
-0.0006100712
-0.01122036
-0.00048683142
-0.0089208355
-0.00039903638
-0.0066971545
-0.00034597213
-0.0051900637
-0.0002962445
-0.0038892709
-0.00020765083
0.003893505
0.0010443863
-0.00016842217
-0.0042232456
-0.04404181
-0.0041736184
-0.068842792
-0.0040537733
-0.073098567
-0.0037311889
-0.055526085
-0.003461212
-0.025651454
-0.0033543567
-0.028044175
-0.0034125275
-0.072074894
-0.0035494835
-0.10337631
-0.0035139996
-0.089676074
-0.0032464209
-0.045283682
-0.003034063
-0.008164377
-0.0028821699
-0.0064355224
-0.0027773977
-0.030102037
-0.0027656228
-0.053795192
-0.0027349387
-0.057701692
-0.0026684373
-0.055160805
-0.002446834
-0.044300265
-0.0018322032
-0.015780683
-0.0013103829
0.018018284
-0.0011641798
0.025165515
-0.0010695519
0.014090514
-0.00098211696
0.001538487
-0.00094153379
-0.0009924241
-0.00096970097
0.00076185572
-0.0010600083
-0.0036963359
-0.0011264724
-0.014073408
-0.0011133986
-0.01931881
-0.0010742196
-0.018562811
-0.0009882616
-0.016186552
-0.00083909423
-0.013767925
-0.00066403119
-0.011394173
-0.00052677038
-0.0090564613
-0.00043054794
-0.0067926667
-0.00037477773
-0.0052480152
-0.00032563092
-0.0039629977
-0.0002327133
0.0037974398
0.0010011407
-0.00019015134
-0.0044899508
-0.044106799
-0.0044379792
-0.068914096
-0.0043143968
-0.073231824
-0.0039755258
-0.055868203
-0.0036883551
-0.025921348
-0.0035735748
-0.028172335
-0.0036348318
-0.072030113
-0.0037823098
-0.10323925
-0.0037486112
-0.08970571
-0.0034659826
-0.045543202
-0.0032395421
-0.008383429
-0.0030777888
-0.0066043838
-0.002967731
-0.030212356
-0.0029572451
-0.05380175
-0.0029265907
-0.057726657
-0.0028593632
-0.055234852
-0.002631471
-0.044546979
-0.0019802739
-0.016446197
-0.0014110013
0.017461646
-0.0012492841
0.025017394
-0.0011486151
0.013988403
-0.0010566303
0.0014351978
-0.0010147829
-0.0010385827
-0.0010472337
0.00079280653
-0.0011472778
-0.0035888449
-0.0012219869
-0.013957545
-0.0012078913
-0.019292686
-0.0011674555
-0.018591197
-0.0010765306
-0.016273178
-0.00091614414
-0.013928146
-0.00072362597
-0.01158556
-0.00057026817
-0.0092081698
-0.00046444748
-0.0068977867
-0.00040595699
-0.0053091431
-0.0003577015
-0.0040458245
-0.00026039514
0.0036965792
0.00095448258
-0.00021434164
-0.0047748303
-0.044176558
-0.0047205166
-0.068989139
-0.0045933941
-0.073369539
-0.0042375983
-0.056227999
-0.0039317632
-0.02620927
-0.003808059
-0.028310158
-0.0038727603
-0.071982237
-0.0040317508
-0.10309163
-0.0040002354
-0.089733036
-0.0037019423
-0.04581754
-0.0034601144
-0.0086168451
-0.0032874591
-0.0067841658
-0.003172006
-0.030328087
-0.0031630454
-0.05380624
-0.0031326209
-0.057751158
-0.0030649982
-0.055309643
-0.0028312147
-0.04480072
-0.0021420713
-0.017151074
-0.0015206217
0.016852471
-0.0013409437
0.024852381
-0.0012337721
0.013879667
-0.0011372748
0.0013268172
-0.0010943907
-0.0010857752
-0.0011317306
0.00082852487
-0.0012423721
-0.0034696237
-0.001326281
-0.013828409
-0.0013113252
-0.019265032
-0.0012697044
-0.018620638
-0.0011736836
-0.016365202
-0.0010014866
-0.014100577
-0.00078990505
-0.011796192
-0.0006180054
-0.0093784687
-0.00050109109
-0.0070140423
-0.00043984439
-0.0053734499
-0.00039276623
-0.0041267334
-0.00029101149
0.0035912146
0.00090425037
-0.00024134208
-0.0050793522
-0.044252254
-0.0050227389
-0.069068077
-0.0048923806
-0.073511489
-0.0045190237
-0.056606218
-0.004192843
-0.026516931
-0.0040589858
-0.02845886
-0.0041275676
-0.071930624
-0.0042992338
-0.10293248
-0.0042703781
-0.089757624
-0.003955884
-0.046107325
-0.0036971635
-0.0088659272
-0.0035123933
-0.0069760353
-0.003391468
-0.030449216
-0.0033843362
-0.053808119
-0.0033543702
-0.057775001
-0.003286747
-0.055384755
-0.0030475382
-0.045061023
-0.002319242
-0.017896633
-0.0016404058
0.016185359
-0.0014398066
0.024667572
-0.0013256038
0.013763771
-0.0012246779
0.0012134998
-0.0011810851
-0.0011335909
-0.0012240322
0.00086966487
-0.0013461724
-0.0033376311
-0.0014402238
-0.01368467
-0.0014248385
-0.019235429
-0.0013820853
-0.018651166
-0.0012808847
-0.016462883
-0.0010962743
-0.014285964
-0.00086407746
-0.012027723
-0.00067077285
-0.0095702577
-0.00054083479
-0.0071433732
-0.00047676928
-0.005440895
-0.00043111862
-0.0042002396
-0.00032487248
0.0034814297
0.00085040764
-0.00027151782
-0.0054043027
-0.044335373
-0.0053454278
-0.069151091
-0.0052122807
-0.07365732
-0.0048208247
-0.057003529
-0.0044723416
-0.026846343
-0.0043269102
-0.028619829
-0.004399867
-0.071874652
-0.0045854905
-0.1027607
-0.0045597823
-0.089779072
-0.0042286328
-0.046413176
-0.0039513306
-0.0091322236
-0.0037530337
-0.0071813698
-0.0036266741
-0.030575452
-0.0036216009
-0.053807015
-0.0035923236
-0.057797953
-0.003525282
-0.055459543
-0.003281191
-0.045326915
-0.0025129705
-0.018685025
-0.0017712286
0.015455068
-0.0015462251
0.024459648
-0.0014243236
0.013640066
-0.0013191287
0.0010954519
-0.0012753156
-0.0011815115
-0.0013247119
0.00091707499
-0.0014592224
-0.0031918266
-0.00156437
-0.013524893
-0.0015491826
-0.019203247
-0.0015053381
-0.0186829
-0.0013989225
-0.016566427
-0.0012013843
-0.01448499
-0.00094725474
-0.012281591
-0.00072937507
-0.0097868108
-0.00058391322
-0.007288334
-0.00051691208
-0.005511551
-0.00047291158
-0.0042622952
-0.00036218705
0.0033674581
0.00079293497
-0.00030515108
-0.0057518537
-0.044427846
-0.0056908449
-0.069238314
-0.0055555167
-0.073806529
-0.0051455314
-0.057420514
-0.0047723715
-0.027199987
-0.004613741
-0.028794622
-0.0046917225
-0.07181372
-0.0048927421
-0.10257499
-0.0048707341
-0.089796912
-0.0045225887
-0.046735685
-0.004224694
-0.0094177519
-0.0040111826
-0.0074016763
-0.0038795214
-0.030705963
-0.0038768249
-0.053802502
-0.0038485543
-0.057819739
-0.0037827625
-0.055533279
-0.0035343609
-0.04559783
-0.0027257085
-0.019517035
-0.0019149062
0.014655297
-0.001661296
0.024224511
-0.0015309006
0.013507765
-0.0014216104
0.00097297589
-0.0013782644
-0.0012288318
-0.0014350728
0.00097168208
-0.0015829057
-0.0030310722
-0.0017001591
-0.013347602
-0.0016860483
-0.019167681
-0.0016411464
-0.018715915
-0.0015295307
-0.01667607
-0.001318546
-0.014698392
-0.001041306
-0.01255914
-0.00079526302
-0.010031809
-0.00063105956
-0.0074521872
-0.00056082684
-0.0055856694
-0.00051864143
-0.0043134169
-0.00040343957
0.0032493475
0.00073188721
-0.00034276672
-0.006123003
-0.044532137
-0.0060600238
-0.069329864
-0.0059233509
-0.073958423
-0.0054946007
-0.057857616
-0.0050946211
-0.027580197
-0.0049204758
-0.028985694
-0.0050041385
-0.071747295
-0.0052219803
-0.10237398
-0.0052042051
-0.089810725
-0.0048389621
-0.047075286
-0.0045180244
-0.0097253909
-0.0042873296
-0.0076385096
-0.0041507028
-0.030839489
-0.0041508955
-0.05379409
-0.0041237659
-0.057840159
-0.00406017
-0.055604942
-0.003808025
-0.045873182
-0.002959143
-0.020392927
-0.0020728001
0.013779103
-0.001785596
0.023957231
-0.0016457461
0.013365944
-0.0015325912
0.00084643132
-0.0014906957
-0.0012745232
-0.0015559718
0.0010345426
-0.0017179787
-0.0028543343
-0.0018483884
-0.013151175
-0.0018364638
-0.019127684
-0.0017905775
-0.018750288
-0.0016738668
-0.016791966
-0.0014490363
-0.014926822
-0.001147693
-0.012861568
-0.00086974608
-0.010309144
-0.00068294752
-0.0076388851
-0.00060886118
-0.0056638804
-0.00056859516
-0.004357145
-0.00044895741
0.0031269651
0.0006673624
-0.00038477037
-0.0065196279
-0.044651449
-0.0064550504
-0.069425669
-0.0063180533
-0.07411218
-0.005870659
-0.058315023
-0.0054417548
-0.027989347
-0.0052486379
-0.0291965
-0.005338942
-0.071674349
-0.0055751673
-0.10215602
-0.0055622214
-0.089820019
-0.0051799024
-0.047432184
-0.0048328367
-0.010057699
-0.004582857
-0.0078935456
-0.0044419906
-0.030975352
-0.0044455488
-0.053781401
-0.0044197149
-0.057859115
-0.0043594667
-0.055673324
-0.0041041491
-0.04615237
-0.0032159543
-0.021312292
-0.0022471545
0.012819158
-0.0019201828
0.023651353
-0.0017697445
0.013213514
-0.0016530858
0.00071642817
-0.0016140894
-0.0013170705
-0.0016889449
0.0011066958
-0.0018657758
-0.002660755
-0.002010514
-0.012933888
-0.0020020612
-0.019082116
-0.0019554059
-0.018785909
-0.001833802
-0.016914287
-0.0015948375
-0.015170863
-0.0012682652
-0.01319026
-0.00095470405
-0.010622682
-0.00074093514
-0.0078529187
-0.00066167213
-0.0057475595
-0.00062334811
-0.0043971477
-0.00049928682
0.0030001894
0.0005995331
-0.00043176572
-0.0069433113
-0.044789983
-0.0068778318
-0.069525331
-0.0067417879
-0.07426678
-0.0062762645
-0.058792655
-0.0058118781
-0.02843411
-0.0055982256
-0.029428273
-0.0056976783
-0.071591748
-0.0059542081
-0.10191898
-0.0059466262
-0.089824365
-0.0055470834
-0.047806717
-0.0051704607
-0.010417476
-0.0048981219
-0.0081695419
-0.0047545134
-0.031111297
-0.0047623211
-0.053763797
-0.0047380818
-0.057876197
-0.0046825544
-0.055737003
-0.004424403
-0.046435024
-0.0034988722
-0.02227333
-0.002440664
0.011767802
-0.0020661624
0.023298891
-0.001903774
0.013049202
-0.0017843316
0.00058400783
-0.0017500649
-0.00135459
-0.0018354474
0.0011890091
-0.0020276196
-0.0024496493
-0.0021880317
-0.012693735
-0.0021845231
-0.019029639
-0.0021375122
-0.018822476
-0.0020113093
-0.017043183
-0.0017580563
-0.015431003
-0.0014049392
-0.013546841
-0.0010524758
-0.010975917
-0.00080707485
-0.0080991064
-0.00072006867
-0.0058393397
-0.00068357019
-0.0044369679
-0.00055503615
0.0028688191
0.00052858793
-0.00048440784
-0.0073953096
-0.044953291
-0.0073303444
-0.069627696
-0.0071964776
-0.074421283
-0.0067140144
-0.059289731
-0.0062059691
-0.02892274
-0.0059715148
-0.029681173
-0.0060818076
-0.071497108
-0.0063608529
-0.10166032
-0.0063593075
-0.089823138
-0.0059422276
-0.048199437
-0.005532997
-0.010807164
-0.0052359674
-0.0084681948
-0.0050907148
-0.031246417
-0.0051028078
-0.05374164
-0.0050804674
-0.057891033
-0.0050313844
-0.055794239
-0.0047711827
-0.046720284
-0.0038105954
-0.023273878
-0.0026557604
0.010617244
-0.0022249584
0.022890885
-0.0020488848
0.012871381
-0.0019278343
0.00045082006
-0.0019001173
-0.0013851719
-0.0019966038
0.0012819354
-0.0022049261
-0.0022200327
-0.0023825244
-0.012428564
-0.0023855892
-0.018968824
-0.0023389483
-0.018859318
-0.0022086247
-0.017178519
-0.0019410904
-0.015707557
-0.0015599019
-0.013933203
-0.0011660157
-0.011371591
-0.00088429426
-0.0083822725
-0.00078514249
-0.0059436745
-0.00075012843
-0.0044778064
-0.00061691037
0.0027326243
0.00045477987
-0.00054343378
-0.007877842
-0.045147258
-0.0078146599
-0.069731673
-0.0076839806
-0.074574956
-0.0071865542
-0.059804574
-0.0066299109
-0.029460177
-0.0063715899
-0.029958184
-0.0064932835
-0.071389335
-0.0067971122
-0.10137753
-0.0068022849
-0.089815656
-0.006367029
-0.048611176
-0.0059224554
-0.011228815
-0.0056004932
-0.0087891069
-0.0054537275
-0.031381411
-0.0054689079
-0.05371629
-0.0054490669
-0.057903154
-0.0054079875
-0.055843481
-0.0051468373
-0.04700692
-0.0041540882
-0.024311466
-0.0028958231
0.0093601953
-0.0023987792
0.022417251
-0.0022061278
0.012677296
-0.0020846983
0.00031877455
-0.0020657617
-0.0014064885
-0.0021739406
0.0013859117
-0.0023990847
-0.0019711543
-0.0025957623
-0.012135806
-0.0026073615
-0.01889792
-0.0025620425
-0.018895542
-0.0024282462
-0.01731918
-0.0021467508
-0.016000082
-0.0017358672
-0.014351367
-0.0012985969
-0.011811934
-0.00097618864
-0.0087068695
-0.00085863338
-0.0060668193
-0.00082420944
-0.0045199303
-0.00068575699
0.0025910387
0.00037833391
-0.00060969065
-0.0083967929
-0.045374633
-0.0083332301
-0.069839472
-0.0082064491
-0.074727348
-0.0076965262
-0.060335098
-0.0070869011
-0.030050798
-0.0068003199
-0.030263321
-0.0069345905
-0.07126726
-0.0072651547
-0.10106855
-0.0072777115
-0.089801178
-0.0068233586
-0.049042972
-0.0063411874
-0.011683975
-0.0059927735
-0.0091332189
-0.0058459147
-0.031514733
-0.0058628601
-0.053689295
-0.005845957
-0.057912346
-0.0058146935
-0.05588274
-0.0055538279
-0.047293572
-0.0045328604
-0.025382504
-0.0031658274
0.0079906872
-0.0025912842
0.021866389
-0.0023768038
0.012461832
-0.002256137
0.00018992511
-0.0022486585
-0.001415678
-0.002368886
0.0015010704
-0.0026115941
-0.0017022467
-0.0028298532
-0.011812377
-0.0028524726
-0.018814787
-0.0028096654
-0.018930288
-0.0026731008
-0.017465407
-0.0023785171
-0.016308861
-0.0019363062
-0.014803386
-0.0014535643
-0.012299289
-0.0010865055
-0.0090768858
-0.00094338002
-0.0062158178
-0.00090734812
-0.0045640606
-0.00076264051
0.0024430358
0.00029943579
-0.00068420263
-0.0089539596
-0.045638275
-0.0088880409
-0.069953029
-0.0087656198
-0.07487819
-0.0082465048
-0.060878496
-0.007579035
-0.030699367
-0.0072601805
-0.030600537
-0.0074082737
-0.071130354
-0.007766729
-0.1007323
-0.0077873111
-0.089778948
-0.0073123439
-0.04949635
-0.006791041
-0.012173708
-0.0064131562
-0.0095030619
-0.0062680962
-0.031644326
-0.0062862664
-0.053661278
-0.0062729339
-0.057918372
-0.0062531376
-0.055910204
-0.0059939717
-0.047578598
-0.0049501952
-0.026481829
-0.0034722532
0.0065056163
-0.0028006708
0.021218284
-0.002562279
0.012223119
-0.0024440635
6.7169331e-05
-0.0024500722
-0.0014104081
-0.0025820554
0.0016268231
-0.0028434412
-0.0014122121
-0.0030866737
-0.011454419
-0.0031234639
-0.018716846
-0.0030846541
-0.018963041
-0.0029463754
-0.017617533
-0.0026397603
-0.016633825
-0.0021649243
-0.015290333
-0.0016340475
-0.012836514
-0.0012180492
-0.0094966186
-0.0010426447
-0.0063971941
-0.0010008419
-0.0046131131
-0.00084868614
0.0022873855
0.00021817293
-0.00076802279
-0.0095524879
-0.045941395
-0.0094826867
-0.070074227
-0.00936442
-0.075027293
-0.0088401644
-0.061430996
-0.0081102722
-0.031410382
-0.0077542581
-0.030974866
-0.0079186346
-0.070977123
-0.0083051366
-0.10036886
-0.0083342399
-0.089748385
-0.0078366165
-0.049973138
-0.0072753431
-0.012698144
-0.0068675123
-0.0098985497
-0.0067235927
-0.031770761
-0.0067420563
-0.053633025
-0.0067333495
-0.057920845
-0.0067266746
-0.055924199
-0.0064705442
-0.047860266
-0.0054108366
-0.027602799
-0.0038218539
0.0049033131
-0.0030294649
0.020448423
-0.0027647613
0.011958874
-0.002653457
-4.4098529e-05
-0.0026717644
-0.0013912637
-0.0028148343
0.001762459
-0.0030961065
-0.0010998268
-0.0033692792
-0.011056706
-0.0034243356
-0.018600754
-0.0033911502
-0.018992549
-0.0032524062
-0.01777512
-0.0029352564
-0.016973697
-0.0024267081
-0.015814648
-0.00184447
-0.013426686
-0.0013734467
-0.0099721979
-0.0011586998
-0.006617671
-0.0011060935
-0.0046716876
-0.00094553441
0.0021229811
0.00013449837
-0.00086265508
-0.010195605
-0.046286502
-0.010120805
-0.070204834
-0.010006407
-0.075174707
-0.0094798671
-0.06199
-0.0086844066
-0.032187109
-0.0082866943
-0.031390853
-0.0084696214
-0.070805625
-0.0088838057
-0.099978709
-0.00892163
-0.089709302
-0.008398246
-0.050476058
-0.0077972701
-0.013256424
-0.0073620889
-0.010316298
-0.0072145934
-0.031898812
-0.0072328207
-0.053604895
-0.0072304281
-0.057918169
-0.0072384265
-0.055923143
-0.0069865815
-0.048136884
-0.0059194429
-0.028737064
-0.0042151058
0.0031777024
-0.0032830221
0.019536714
-0.0029873328
0.011665434
-0.0028874453
-0.00014030452
-0.0029148054
-0.0013613835
-0.0030672226
0.001906096
-0.0033706417
-0.00076291171
-0.0036808436
-0.010612211
-0.0037592535
-0.018462185
-0.0037335024
-0.019016975
-0.0035958012
-0.017937487
-0.0032698239
-0.017326196
-0.0027267681
-0.016376061
-0.0020904272
-0.014073323
-0.0015565358
-0.010511573
-0.0012932479
-0.0068863875
-0.0012249749
-0.004744526
-0.001055058
0.0019487525
4.8170582e-05
-0.00096980196
-0.01088611
-0.046674798
-0.010805016
-0.070346548
-0.010693969
-0.075321066
-0.010167463
-0.062553486
-0.0093051037
-0.033031323
-0.008863189
-0.031850226
-0.0090633036
-0.070615881
-0.0095049698
-0.099561898
-0.0095520483
-0.089661219
-0.0089987248
-0.051008917
-0.0083597596
-0.013846074
-0.0079014907
-0.010751484
-0.0077399664
-0.032038873
-0.0077607212
-0.053574161
-0.0077664208
-0.057909052
-0.0077906042
-0.055905487
-0.0075443139
-0.048406664
-0.0064792232
-0.029875081
-0.0046524643
0.0013209491
-0.0035665819
0.018467088
-0.0032359958
0.011339028
-0.0031504996
-0.00021707011
-0.0031803627
-0.0013280857
-0.0033389452
0.0020544312
-0.0036677572
-0.00039849152
-0.004024234
-0.010112115
-0.0041320362
-0.018296337
-0.0041154372
-0.01903664
-0.0039801028
-0.018103481
-0.0036470955
-0.017687904
-0.0030708025
-0.01697193
-0.0023778238
-0.014778223
-0.0017728817
-0.01112298
-0.0014494114
-0.0072150807
-0.0013599696
-0.0048370912
-0.0011792647