/*--------------------------------*- C++ -*----------------------------------*\
| =========                 |                                                 |
| \\      /  F ield         | OpenFOAM: The Open Source CFD Toolbox           |
|  \\    /   O peration     | Version:  2506                                  |
|   \\  /    A nd           | Website:  www.openfoam.com                      |
|    \\/     M anipulation  |                                                 |
\*---------------------------------------------------------------------------*/
FoamFile
{
    version     2.0;
    format      ascii;
    arch        "LSB;label=32;scalar=64";
    class       volScalarField;
    location    "0.001";
    object      k;
}
// * * * * * * * * * * * * * * * * * * * * * * * * * * * * * * * * * * * * * //

dimensions      [0 2 -2 0 0 0 0];

internalField   nonuniform List<scalar> 
13761
(
48.327145
46.372485
44.172844
41.709435
38.961612
35.908524
32.530407
28.811669
24.746714
20.349628
15.670327
10.823844
6.0457386
2.1618253
0.74099819
0.55982589
0.54828603
0.54765311
0.54757599
0.54755058
0.54751289
0.54749144
0.54744549
0.54726891
0.16281556
0.088966423
0.53269388
2.1606118
6.0576082
12.800769
21.344478
29.760007
36.872405
42.450467
46.690551
49.87108
52.234886
53.968972
55.210631
56.058912
56.584246
56.836783
56.851937
56.654419
56.260486
55.680047
54.917868
53.97446
52.846713
51.528402
50.010216
48.279854
46.322871
44.122261
41.658946
38.912256
35.86122
32.486103
28.771246
24.711066
20.319552
15.646553
10.8067
6.0356682
2.1578112
0.74021812
0.55980957
0.54812169
0.54747258
0.54739575
0.54737799
0.54734033
0.54727458
0.54722938
0.16362859
0.088542842
0.52853446
2.1444829
6.0171742
12.729832
21.252723
29.664801
36.785099
42.375758
46.628501
49.820139
52.19246
53.933141
55.179922
56.032294
56.561043
56.816581
56.834182
56.639132
56.247572
55.66954
54.909959
53.96938
52.844618
51.529343
50.014024
48.286752
46.332819
44.135165
41.674634
38.930547
35.881872
32.508846
28.795723
24.736835
20.346068
15.673087
10.832145
6.0579804
2.1700733
0.74229882
0.55985616
0.5480539
0.54740161
0.54732584
0.54728495
0.54724916
0.16450283
0.088569595
0.52782599
2.1416617
6.0097937
12.71567
21.231822
29.639086
36.756394
42.345361
46.597573
49.789634
52.163288
53.905972
55.155369
56.01075
56.542884
56.802069
56.823569
56.63215
56.24402
55.669169
54.912319
53.974124
52.851453
51.538094
50.024656
48.299214
46.34704
44.151055
41.692068
38.949369
35.901884
32.5298
28.817309
24.758741
20.368098
15.694869
10.852727
6.0752931
2.1801454
0.74415507
0.55995989
0.54805928
0.54739475
0.54731909
0.16502528
0.088815136
0.52920307
2.1467898
6.0221562
12.736059
21.256067
29.661707
36.774968
42.359839
46.60928
49.799823
52.173116
53.916098
55.166285
56.02259
56.555717
56.815757
56.838003
56.647151
56.259485
55.68485
54.928111
53.989852
52.867044
51.553467
50.039842
48.314342
46.362362
44.166827
41.708528
38.966658
35.920071
32.548785
28.836837
24.778584
20.388714
15.716052
10.873126
6.0915791
2.1909571
0.74628507
0.56010326
0.16495479
0.088801522
0.52916719
2.1465849
6.0214501
12.734444
21.253566
29.658613
36.771864
42.357284
46.60775
49.799634
52.174571
53.919453
55.171685
56.030142
56.565425
56.827568
56.851771
56.662602
56.276467
55.703187
54.947531
54.010016
52.887678
51.574563
50.06167
48.337257
46.386663
44.192684
41.73596
38.995425
35.949551
32.577973
28.864433
24.803625
20.414548
15.742554
10.898102
0.16482547
0.088755085
0.52892838
2.1456431
6.0190231
12.730211
21.248344
29.653704
36.768175
42.355334
46.607707
49.801636
52.178573
53.925378
55.179333
56.039294
56.575784
56.838895
56.863877
56.675519
56.290109
55.717593
54.962946
54.02686
52.906327
51.59514
50.084051
48.36134
46.411935
44.21849
41.761694
39.020644
35.974001
32.601288
28.884787
0.16481584
0.088743051
0.5288391
2.1452777
6.0180386
12.72843
21.246073
29.651441
36.766251
42.353924
46.606901
49.801457
52.179066
53.92661
55.181447
56.042503
56.580338
56.845014
56.871645
56.684787
56.300728
55.729301
54.975269
54.03908
52.917514
51.604108
0.15700992
0.081497249
0.47972349
1.94921
5.5110929
11.856021
20.245106
28.856756
36.358966
42.362851
46.991719
50.504736
53.146785
55.114149
56.553872
57.573245
58.249589
58.638402
58.779127
58.699926
58.419822
57.951574
57.302207
56.474325
55.466761
54.275158
52.892027
51.307215
49.507742
47.478077
45.200329
42.654494
39.819232
36.672672
33.193948
29.36691
25.18591
20.665527
15.857964
10.883009
5.9838244
2.0725846
0.72040656
0.55964157
0.54992216
0.54945032
0.54941295
0.54940334
0.54939813
0.15669307
0.081298253
0.47848103
1.9441991
5.4974907
11.829534
20.206486
28.810683
36.309622
42.312554
46.941527
50.455085
53.097854
55.066014
56.506587
57.526865
58.204194
58.594095
58.736043
58.658239
58.379833
57.913295
57.265663
56.439536
55.43373
54.243863
52.862417
51.279204
49.481216
47.452896
45.176338
42.631536
39.797174
36.651428
33.17351
29.347381
25.167534
20.648701
15.843207
10.87087
5.9747078
2.0684084
0.71976352
0.55962126
0.54989512
0.54942879
0.54939164
0.54938094
0.5493746
0.54939016
0.54938876
0.54940545
0.54940194
0.54933952
0.54924093
0.54912967
0.54906591
0.54905214
0.54907478
0.5491025
0.54913114
0.54913464
0.54912135
0.54910424
0.54909779
0.54909242
0.54909009
0.54908526
0.5490748
0.54906
0.54904326
0.54903451
0.54902907
0.54900819
0.54897606
0.54896197
0.54895793
0.54893598
0.54892334
0.54877389
0.54872482
0.54910713
0.54879203
0.54808062
0.54868591
0.5501019
0.54967378
0.54772701
0.54596688
0.54531982
0.15634114
0.08107588
0.47709278
1.938624
5.4824447
11.800417
20.1643
28.760747
36.256658
42.259186
46.888942
50.40377
53.047993
55.017672
56.459777
57.481578
58.160412
58.551795
58.695215
58.618912
58.342135
57.877263
57.231321
56.406903
55.402816
54.214666
52.834921
51.253378
49.457007
47.430233
45.15513
42.611678
39.778556
36.633949
33.157094
29.331997
25.153211
20.635543
15.831401
10.860684
5.9664872
2.0644823
0.7191774
0.559588
0.54987194
0.54940337
0.54936549
0.54935375
0.54934649
0.54936898
0.54936811
0.54938427
0.54938
0.54931664
0.54921713
0.54910565
0.54904187
0.54902865
0.54905177
0.54907941
0.54910779
0.54911152
0.54909778
0.5490806
0.54907413
0.5490689
0.54906607
0.54906085
0.54905056
0.54903591
0.54901823
0.54900939
0.54900382
0.54898286
0.54895058
0.54893598
0.54893157
0.54890928
0.54889644
0.5487442
0.54869605
0.5490825
0.54876225
0.54804677
0.54866
0.55008387
0.54965075
0.54768662
0.5459173
0.54527043
0.54562094
0.54663921
0.54772271
0.54866037
0.54897797
0.54872821
0.54846626
0.54790675
0.54743743
0.15605247
0.080884495
0.47588145
1.9337314
5.4691278
11.77433
20.125889
28.714383
36.20642
42.207441
46.836859
50.351915
52.996674
54.967086
56.410086
57.432924
58.112933
58.50562
58.650453
58.575629
58.300302
57.836945
57.192596
56.369836
55.367464
54.18108
52.80314
51.223431
49.428912
47.403992
45.130731
42.589095
39.757744
36.614851
33.139643
29.316123
25.138845
20.622635
15.819942
10.850761
5.9583795
2.0605495
0.71859754
0.55954539
0.5498495
0.54937925
0.54934112
0.54932968
0.54932317
0.54934384
0.54934361
0.54935807
0.5493529
0.54928909
0.54918925
0.54907747
0.54901287
0.54899937
0.54902271
0.54905008
0.54907802
0.54908214
0.54906768
0.54905018
0.54904363
0.54903861
0.54903536
0.5490295
0.54901909
0.54900472
0.548986
0.54897709
0.54897106
0.54894971
0.54891731
0.54890232
0.54889731
0.54887453
0.54886184
0.54870441
0.54865662
0.54905032
0.54872158
0.5479999
0.54862422
0.5500592
0.54962037
0.54763202
0.54584854
0.54519704
0.54557101
0.54659025
0.54767836
0.54862785
0.54894967
0.54869338
0.54843533
0.54787101
0.54738953
0.54778774
0.54792453
0.54676682
0.54585932
0.54653024
0.15578092
0.080703087
0.47473139
1.929091
5.456515
11.749667
20.089634
28.670698
36.159155
42.158812
46.787919
50.303154
52.948335
54.919309
56.362975
57.38657
58.067425
58.461051
58.606923
58.533259
58.259267
57.797319
57.154462
56.333277
55.332556
54.147892
52.77173
51.193845
49.401177
47.378117
45.106699
42.566864
39.737242
36.595978
33.122271
29.30011
25.124054
20.60897
15.807407
10.839573
5.9491702
2.0562143
0.71797224
0.55949437
0.54982404
0.54935254
0.54931467
0.54930522
0.54930108
0.54932049
0.54931994
0.54933159
0.54932648
0.54926454
0.54916649
0.54905472
0.54898842
0.54897279
0.54899545
0.5490221
0.54904937
0.54905384
0.54903852
0.54902042
0.54901371
0.54900889
0.54900553
0.54899918
0.5489881
0.54897382
0.54895452
0.54894594
0.54893909
0.54891678
0.54888443
0.54886961
0.54886387
0.54884086
0.54882943
0.5486648
0.54861705
0.54902064
0.54868042
0.54795073
0.54858656
0.55003251
0.5495883
0.54757312
0.54577153
0.54511318
0.54549366
0.5465179
0.54761959
0.54858934
0.5489108
0.54864502
0.54839617
0.5478186
0.54731834
0.54774324
0.547888
0.54672242
0.54580446
0.5464773
0.54826775
0.55017086
0.55155342
0.15552953
0.080533359
0.4736521
1.9247365
5.444677
11.726507
20.055573
28.629629
36.114677
42.112966
46.741658
50.256895
52.902262
54.87351
56.317506
57.341485
58.022788
58.416937
58.563427
58.490488
58.217332
57.756285
57.114472
56.294468
55.295066
54.111853
52.737271
51.161084
49.370224
47.349065
45.079621
42.541804
39.714214
36.574955
33.103189
29.282867
25.108529
20.595048
15.795039
10.828878
5.9406201
2.0522432
0.7173904
0.55943992
0.54979483
0.54932166
0.5492843
0.54927778
0.54927656
0.54929489
0.54929215
0.54930032
0.54929697
0.5492397
0.54914546
0.5490342
0.54896602
0.548947
0.5489681
0.54899358
0.54902002
0.54902469
0.5490085
0.54898977
0.54898287
0.54897831
0.54897495
0.54896847
0.54895617
0.54894166
0.5489224
0.54891485
0.54890703
0.54888319
0.54885102
0.54883706
0.54883041
0.54880751
0.54879835
0.54862482
0.54857731
0.54899302
0.54863868
0.54789825
0.54854462
0.55000024
0.54955142
0.54750939
0.54569014
0.54502781
0.54540813
0.54644464
0.5475652
0.54855229
0.54886879
0.54859724
0.5483552
0.54775722
0.54724378
0.547685
0.54784352
0.54666057
0.54572414
0.54639984
0.54822683
0.55014423
0.55153857
0.55221653
0.55242278
0.55245992
0.15529641
0.080366107
0.47257235
1.9203748
5.4328027
11.703191
20.021092
28.587764
36.068958
42.065422
46.693275
50.208148
52.853418
54.824758
56.269006
57.293385
57.975225
58.37004
58.517309
58.445254
58.173077
57.713115
57.072527
56.253884
55.255972
54.074371
52.701513
51.12715
49.338198
47.319014
45.05159
42.515813
39.69025
36.552977
33.083123
29.264614
25.091978
20.580103
15.781672
10.817219
5.9311153
2.0475512
0.71664972
0.55936924
0.54976269
0.54928918
0.54925212
0.54924789
0.54924871
0.54926551
0.54925951
0.5492645
0.5492637
0.54921201
0.54912207
0.54901164
0.54894226
0.54892003
0.54893932
0.54896355
0.54898912
0.54899377
0.54897684
0.54895771
0.54895069
0.54894655
0.54894304
0.54893661
0.54892262
0.54890759
0.54888881
0.54888282
0.54887397
0.54884812
0.54881601
0.54880337
0.54879545
0.548773
0.5487664
0.54858239
0.54853529
0.54896611
0.54859626
0.54784241
0.54849859
0.5499633
0.54951182
0.54744533
0.54561113
0.54494644
0.5453242
0.5463753
0.54751296
0.54851293
0.54882615
0.54854969
0.54830815
0.54769197
0.54717566
0.54763262
0.54780014
0.54659153
0.54563414
0.54631504
0.5481676
0.55010672
0.55151867
0.55220883
0.55241797
0.55245572
0.55246469
0.5524632
0.55246328
0.15513637
0.080237337
0.47171971
1.9169245
5.4234047
11.684733
19.993788
28.554528
36.032398
42.026878
46.65326
50.166804
52.810769
54.780825
56.223841
57.247084
57.927921
58.321896
58.468511
58.396003
58.123605
57.663761
57.023503
56.205429
55.208339
54.02782
52.656303
51.083532
49.296407
47.279261
45.014055
42.480637
39.657531
36.52276
33.055405
29.239346
25.069081
20.559503
15.763362
10.80137
5.9182777
2.0412462
0.7156484
0.55927752
0.5497277
0.54925648
0.54921931
0.54921565
0.54921711
0.54923332
0.54922601
0.54922933
0.54922963
0.54918095
0.54909347
0.54898377
0.5489144
0.5488905
0.54890847
0.54893174
0.54895659
0.548961
0.54894344
0.5489243
0.54891726
0.5489137
0.54890983
0.5489032
0.54888734
0.5488717
0.54885358
0.54884909
0.54883916
0.54881098
0.54877856
0.54876745
0.54875782
0.54873645
0.54873225
0.5485368
0.5484898
0.54893961
0.54855541
0.54778739
0.5484543
0.5499287
0.54947502
0.54738544
0.54553681
0.54486849
0.54524411
0.54630776
0.54745917
0.54847185
0.54878429
0.5484995
0.54825726
0.54763197
0.54711554
0.54758602
0.54775334
0.54651514
0.54553814
0.54622747
0.54810409
0.55006803
0.55149888
0.55219978
0.55241291
0.55245153
0.55246055
0.55245908
0.55245916
0.55246443
0.55246303
0.15494652
0.080104733
0.47087049
1.9135
5.4141339
11.666778
19.967828
28.523852
35.999704
41.993389
46.619256
50.132155
52.775211
54.744081
56.185672
57.207311
57.886435
58.278661
58.423565
58.349451
58.075616
57.614592
56.973314
56.154435
55.156807
53.976061
52.604662
51.032384
49.246146
47.230292
44.966782
42.435452
39.614801
36.482814
33.018521
29.205743
25.038917
20.532885
15.740388
10.782219
5.903372
2.0342238
0.71456487
0.55917836
0.54969065
0.54922217
0.54918431
0.5491795
0.54918043
0.54919775
0.54919292
0.54919644
0.54919553
0.54914559
0.54905747
0.54894782
0.54887947
0.5488556
0.54887298
0.54889574
0.54892018
0.54892418
0.54890613
0.54888727
0.54888037
0.54887744
0.54887318
0.54886585
0.54884824
0.54883237
0.54881502
0.54881149
0.54880053
0.54876998
0.54873702
0.54872757
0.5487159
0.54869667
0.54869492
0.54848827
0.54844038
0.54891164
0.54851659
0.54773612
0.54841473
0.54989862
0.54944068
0.54732818
0.54546424
0.54479066
0.54516581
0.54623982
0.54740399
0.54843122
0.54874244
0.54844795
0.54821028
0.54758014
0.54705758
0.54753967
0.54770022
0.54643309
0.54543977
0.54614033
0.54803981
0.5500296
0.55147907
0.55219173
0.55240872
0.55244819
0.55245639
0.55245498
0.55245503
0.55246028
0.55245888
0.5524641
0.55246295
0.15471532
0.079958557
0.46995665
1.9098199
5.4041932
11.647635
19.940458
28.492048
35.966522
41.960229
46.586462
50.099615
52.742649
54.711195
56.152177
57.172961
57.851029
58.242044
58.385624
58.310116
58.034861
57.572311
56.929516
56.109183
55.110215
53.928294
52.555942
50.982984
49.196393
47.180564
44.917504
42.387093
39.56786
36.437815
32.975994
29.166209
25.002873
20.500792
15.71268
10.759347
5.8859013
2.0261958
0.71335332
0.55907202
0.54965225
0.54918532
0.54914639
0.54913927
0.54913863
0.54915697
0.54915701
0.54916192
0.54915867
0.54910427
0.54901304
0.54890246
0.5488353
0.54881227
0.54882956
0.54885211
0.54887652
0.54888014
0.54886192
0.5488435
0.54883692
0.5488347
0.54883039
0.54882181
0.54880283
0.54878737
0.54877116
0.54876781
0.54875605
0.54872356
0.54869007
0.54868226
0.54866846
0.54865228
0.54865306
0.54843657
0.54838699
0.54887861
0.54847589
0.54768618
0.54837685
0.54986959
0.54940513
0.54726841
0.5453897
0.54471092
0.54508683
0.54617008
0.54734779
0.54839016
0.54869935
0.54839824
0.54816886
0.54752984
0.54699361
0.5474879
0.54764057
0.54634795
0.54534143
0.54605455
0.54797703
0.54999218
0.55145953
0.55218323
0.55240381
0.55244412
0.55245302
0.55245167
0.55245167
0.55245612
0.55245474
0.55245991
0.55245877
0.55246384
0.1544576
0.079804441
0.46900874
1.9060099
5.3939383
11.62806
19.912909
28.460774
35.934865
41.929689
46.557404
50.0719
52.715954
54.685144
56.126398
57.147103
57.824775
58.215123
58.357817
58.281262
58.004908
57.541061
56.896908
56.075182
55.074821
53.891541
52.5179
50.943761
49.156139
47.139474
44.875821
42.345114
39.525941
36.396372
32.935508
29.127228
24.966009
20.466733
15.682209
10.733401
5.8656816
2.0169583
0.71197998
0.55895886
0.5496153
0.54915047
0.54911058
0.54910088
0.54909745
0.5491132
0.54911664
0.54912293
0.54911776
0.54905837
0.54896351
0.5488514
0.54878482
0.54876247
0.54877992
0.54880223
0.54882676
0.54883015
0.54881237
0.54879438
0.54878815
0.5487869
0.54878306
0.54877282
0.54875306
0.54873821
0.54872358
0.54871951
0.54870756
0.54867401
0.54863994
0.5486331
0.54861767
0.54860419
0.54860684
0.5483823
0.54833257
0.54883891
0.54842854
0.547633
0.54833799
0.54984408
0.54937046
0.54720413
0.54531187
0.54462953
0.54500683
0.54609819
0.54728984
0.54834682
0.54865482
0.54835055
0.54812728
0.54747258
0.54691894
0.54742653
0.54757454
0.5462598
0.54524237
0.54596788
0.5479153
0.54995507
0.55143942
0.55217406
0.55239815
0.55243921
0.5524489
0.5524476
0.55244754
0.55245267
0.5524513
0.55245568
0.5524546
0.55245963
0.55246358
0.55246283
0.15417271
0.07963055
0.46793358
1.9016883
5.3823084
11.605865
19.881703
28.42546
35.899382
41.89591
46.525926
50.042759
52.688976
54.660091
56.103014
57.125122
57.803916
58.195082
58.338268
58.261863
57.985331
57.52101
56.876092
56.053325
55.051673
53.866897
52.491616
50.91577
49.126451
47.108178
44.843082
42.311171
39.491104
36.361017
32.900073
29.092222
24.932028
20.434488
15.652574
10.707503
5.84504
2.0075008
0.71058194
0.55884588
0.54958295
0.54912295
0.54908261
0.54907125
0.54906531
0.54907564
0.54907918
0.54908585
0.54907934
0.54901651
0.54891888
0.548806
0.54873957
0.54871821
0.54873604
0.5487578
0.5487818
0.54878464
0.54876774
0.54874984
0.54874359
0.54874342
0.54874004
0.54872807
0.54870816
0.5486927
0.54867947
0.54867416
0.54866299
0.54862927
0.54859422
0.54858703
0.54857161
0.54855886
0.54856132
0.54833068
0.54828562
0.54879887
0.54837574
0.54757615
0.54830156
0.54982738
0.54934427
0.54714143
0.54523427
0.54454946
0.54492694
0.54602474
0.54723014
0.54830165
0.54860981
0.54830209
0.5480804
0.54740619
0.54683733
0.54735691
0.54750483
0.54616967
0.54514314
0.5458808
0.54785236
0.54991525
0.55141603
0.55216342
0.55239115
0.55243276
0.55244379
0.5524426
0.5524424
0.55244842
0.55244707
0.5524521
0.55245106
0.55245538
0.55245936
0.55245856
0.5524634
0.15385839
0.079440539
0.46676207
1.8969824
5.3696504
11.581689
19.847677
28.386977
35.86087
41.859583
46.492573
50.01251
52.661697
54.635538
56.080901
57.105138
57.785739
58.178378
58.322718
58.247207
57.971228
57.507278
56.862497
56.039594
55.037505
53.851972
52.475604
50.898347
49.107323
47.087119
44.819969
42.286003
39.464028
36.332329
32.870207
29.061774
24.901754
20.405296
15.625524
10.683856
5.8263052
1.9989724
0.7093137
0.55873484
0.54955104
0.54909756
0.54905701
0.54904524
0.54903901
0.54904707
0.54905171
0.54905874
0.5490504
0.54898544
0.5488857
0.54877354
0.54870748
0.5486881
0.54870626
0.54872736
0.54875013
0.54875179
0.54873552
0.5487173
0.5487105
0.54871101
0.54870735
0.54869385
0.54867419
0.5486566
0.54864391
0.54863759
0.54862801
0.54859461
0.54855846
0.54855025
0.54853655
0.54852307
0.54852366
0.54828877
0.54825143
0.54876728
0.54832732
0.54752274
0.54827167
0.54981532
0.54932562
0.54709008
0.54516443
0.54447581
0.544849
0.54595323
0.54717396
0.54826031
0.54856753
0.54825326
0.54803042
0.54733877
0.54676097
0.54728707
0.54743905
0.54608427
0.54504932
0.54579925
0.5477899
0.5498744
0.55139182
0.55214928
0.55238054
0.55242251
0.55243671
0.5524357
0.55243517
0.55244294
0.55244165
0.5524477
0.55244669
0.55245172
0.55245511
0.55245428
0.55245911
0.55246328
0.15353549
0.079233993
0.46546686
1.8917666
5.355541
11.554372
19.808311
28.340992
35.813048
41.812549
46.447483
49.969822
52.621583
54.59806
56.046088
57.073007
57.756294
58.151599
58.298524
58.22538
57.951573
57.489641
56.846692
56.025399
55.024661
53.840179
52.464523
50.887601
49.096504
47.07579
44.807672
42.27229
39.448505
36.314729
32.850492
29.04015
24.878721
20.381653
15.602425
10.662888
5.8094333
1.991309
0.70815149
0.55861197
0.54950777
0.54906078
0.54901992
0.54900889
0.54900529
0.54901699
0.54902704
0.5490357
0.54902502
0.54895819
0.54885628
0.54874562
0.54867991
0.548663
0.54868108
0.54870171
0.54872329
0.54872351
0.54870744
0.54868872
0.54868123
0.54868188
0.54867726
0.54866241
0.54864309
0.54862276
0.54860991
0.54860323
0.54859564
0.54856282
0.54852616
0.5485174
0.54850579
0.54849179
0.54849079
0.54825284
0.54822163
0.54873981
0.54828636
0.54747584
0.54824303
0.54979904
0.54930501
0.54704691
0.54510358
0.54440845
0.54477511
0.54588908
0.54712674
0.54822748
0.54853104
0.54820808
0.54798541
0.5472801
0.5466969
0.54722657
0.54738383
0.54600964
0.54496549
0.54572688
0.54773297
0.54983933
0.55137445
0.55213649
0.55237018
0.55241328
0.5524261
0.55242501
0.5524242
0.55243489
0.55243358
0.55244183
0.55244082
0.5524471
0.55245144
0.55245056
0.55245477
0.55245897
0.55246309
0.55246242
0.15324725
0.079049279
0.46430749
1.8870909
5.3428445
11.529611
19.772183
28.29805
35.767456
41.766681
46.402464
49.926162
52.579535
54.557773
56.007676
57.036571
57.721933
58.119408
58.268591
58.197777
57.926126
57.466318
56.825436
56.006121
55.007236
53.824445
52.450273
50.874579
49.084397
47.064222
44.796197
42.26038
39.43554
36.300037
32.833651
29.021236
24.858305
20.360466
15.581444
10.643305
5.7925857
1.9830719
0.706835
0.55844445
0.54943557
0.54899004
0.54894896
0.54894029
0.54894364
0.54896751
0.54898988
0.54900245
0.54898912
0.54892024
0.54881532
0.5487067
0.54864072
0.54862682
0.54864392
0.54866417
0.54868473
0.54868332
0.54866717
0.54864781
0.54863963
0.54863992
0.54863374
0.54861739
0.5485985
0.54857501
0.54856149
0.5485553
0.54855047
0.5485188
0.54848257
0.54847429
0.54846456
0.54845084
0.54844899
0.5482085
0.54818071
0.54870184
0.54823981
0.54742368
0.54820189
0.54976629
0.54926898
0.5469957
0.54503766
0.54433356
0.5447014
0.54582952
0.54708249
0.54819604
0.54849421
0.54816266
0.54794232
0.54722485
0.54663526
0.54717502
0.54733827
0.54594266
0.54488762
0.54565839
0.54768216
0.54981098
0.5513623
0.55213024
0.55236852
0.55241263
0.55241893
0.55241733
0.55241724
0.55242383
0.5524223
0.55243293
0.55243177
0.5524406
0.55244677
0.55244583
0.5524509
0.55245461
0.55245876
0.55245806
0.55246288
0.15298522
0.078880767
0.46324961
1.8828255
5.3312482
11.50692
19.738886
28.258187
35.724832
41.723515
46.35984
49.884593
52.539273
54.518964
55.970415
57.000934
57.687982
58.087201
58.238188
58.169265
57.899722
57.442068
56.803374
55.986268
54.989595
53.808997
52.436976
50.863375
49.075211
47.056976
44.790828
42.256866
39.433915
36.30032
32.835195
29.022196
24.856079
20.353125
15.568206
10.625125
5.7733331
1.9723799
0.70524023
0.55821656
0.54929768
0.548848
0.54880742
0.54880408
0.54882199
0.54887136
0.54891713
0.54893774
0.54892144
0.54885034
0.54874047
0.5486349
0.54856692
0.54855727
0.54857134
0.54859106
0.54861081
0.54860743
0.54859092
0.54857071
0.54856199
0.54856119
0.54855265
0.54853412
0.54851594
0.54848851
0.54847359
0.54846926
0.54846915
0.54843971
0.5484053
0.54839907
0.54839091
0.54837844
0.54837598
0.54813289
0.54810597
0.54863069
0.54816324
0.54734133
0.54812463
0.54969643
0.54919607
0.54690945
0.54493656
0.54422002
0.54461153
0.54575873
0.54702454
0.54814957
0.54844102
0.54810121
0.54788379
0.54715323
0.54655425
0.54711838
0.54728935
0.5458707
0.54480268
0.54558023
0.54763037
0.54978238
0.55134806
0.55212579
0.55236785
0.55241239
0.5524181
0.55241709
0.55241707
0.55241865
0.55241729
0.55242208
0.55242081
0.55243054
0.55244001
0.55243886
0.5524458
0.55245066
0.55245437
0.55245365
0.55245847
0.55246263
0.15275327
0.078727168
0.46227706
1.8788973
5.3205321
11.485784
19.707443
28.219871
35.683023
41.68026
46.316199
49.841117
52.496278
54.47667
55.929008
56.960591
57.648879
58.04951
58.202066
58.134833
57.867009
57.411216
56.774519
55.959538
54.965106
53.786848
52.417248
50.846122
49.06046
47.04472
44.781019
42.249408
39.428664
36.297116
32.83424
29.024622
24.863312
20.365686
15.585238
10.64369
5.7866426
1.9779413
0.7056369
0.55799405
0.54903856
0.54858377
0.5485445
0.54855016
0.54859328
0.5486866
0.54877188
0.54880703
0.54878732
0.54871417
0.5485961
0.54849537
0.54842224
0.5484191
0.54842622
0.54844498
0.54846402
0.54845813
0.54844101
0.54841957
0.54841073
0.54840789
0.54839572
0.54837336
0.54835629
0.54832358
0.54830617
0.5483058
0.5483138
0.5482881
0.54825758
0.54825541
0.54824763
0.54823815
0.54823484
0.54798671
0.54795793
0.54848963
0.54801658
0.54718459
0.54796824
0.54955129
0.54904772
0.54673993
0.54474634
0.54401273
0.54447171
0.54564711
0.54692404
0.54805904
0.54834275
0.54799433
0.54777798
0.54703203
0.54642037
0.54703342
0.54721552
0.54577224
0.54468981
0.54547204
0.54756355
0.54974151
0.55132093
0.55211694
0.55236408
0.55240875
0.55241697
0.55241657
0.55241635
0.55241785
0.55241705
0.55241831
0.55241758
0.55242074
0.55242948
0.55242802
0.5524379
0.55244532
0.55245034
0.55244952
0.55245396
0.55245819
0.55246248
0.15255846
0.078598907
0.46146668
1.8756237
5.3115843
11.468058
19.680879
28.18717
35.646922
41.642459
46.277588
49.802159
52.457225
54.437683
55.890204
56.922074
57.610753
58.011892
58.16509
58.098666
57.831885
57.377266
56.741884
55.928366
54.935544
53.759045
52.391349
50.822258
49.038749
47.025251
44.763852
42.234562
39.416111
36.286793
32.826043
29.018229
24.858456
20.362357
15.583685
10.644834
5.793486
1.9825928
0.70599168
0.55775183
0.54868098
0.54821158
0.54817084
0.54817945
0.54823917
0.5483736
0.54850627
0.54856168
0.54853764
0.54846316
0.54833341
0.54823932
0.5481573
0.54816324
0.54815818
0.54817562
0.54819381
0.54818495
0.54816712
0.54814413
0.54813612
0.5481305
0.54811324
0.54808486
0.54806905
0.54803012
0.54800956
0.54801532
0.54803422
0.54801359
0.5479897
0.54799274
0.54798203
0.54797892
0.54797534
0.54771512
0.54768127
0.54823005
0.5477471
0.54689483
0.54767701
0.54927886
0.548772
0.54642867
0.54440741
0.54365385
0.54422639
0.54544199
0.54673088
0.54787478
0.54814903
0.54779098
0.54757309
0.54680843
0.54617992
0.54688481
0.54708297
0.54561354
0.54451575
0.54530093
0.54746057
0.54966938
0.55126129
0.55209178
0.55234659
0.55239017
0.55240998
0.5524111
0.55240982
0.55241583
0.55241558
0.55241751
0.55241704
0.55241813
0.55242016
0.55241927
0.55242646
0.55243674
0.55244469
0.55244357
0.55244956
0.55245363
0.552458
0.55246234
0.15238412
0.078478151
0.46069386
1.8724999
5.3030325
11.451048
19.655212
28.155273
35.611327
41.604769
46.238673
49.7625
52.417123
54.397353
55.849821
56.881794
57.570719
57.972238
58.125948
58.060173
57.794203
57.340443
56.706091
55.893764
54.902289
53.727285
52.361224
50.793903
49.012285
47.000787
44.741477
42.21434
39.398081
36.270961
32.81238
29.006651
24.848852
20.354661
15.577918
10.64097
5.7911887
1.9818021
0.7058405
0.55755775
0.54843592
0.54796478
0.54791747
0.54790631
0.5479255
0.54801555
0.54814394
0.54820668
0.54817726
0.54810237
0.54796372
0.54787356
0.54778398
0.54779605
0.54777977
0.54779702
0.54781405
0.54780372
0.54778586
0.54776233
0.54775634
0.54774917
0.54772879
0.5476959
0.54768028
0.54763993
0.54761913
0.54762996
0.54765337
0.54763612
0.54762099
0.54762518
0.54760688
0.54761467
0.54761584
0.54733256
0.54729373
0.54787697
0.54737744
0.54649601
0.54728771
0.548913
0.54840433
0.54601857
0.54397039
0.54321236
0.54383727
0.54508609
0.54638947
0.54754492
0.54781319
0.54744389
0.54722515
0.54644601
0.54580007
0.54662263
0.54684516
0.54534973
0.54423564
0.54502072
0.54728623
0.54953242
0.55113348
0.55202706
0.55229293
0.55233307
0.55238284
0.55238713
0.55238286
0.55240527
0.55240583
0.55241452
0.55241426
0.55241693
0.55241813
0.55241769
0.55241943
0.55242499
0.55243533
0.55243356
0.55244285
0.55244904
0.55245336
0.5524578
0.55246213
0.15225014
0.078378754
0.46004643
1.8698767
5.2958404
11.436703
19.633471
28.128069
35.580646
41.571806
46.204016
49.72643
52.379798
54.358895
55.810354
56.841458
57.529672
57.930655
58.084006
58.018052
57.7521
57.298703
56.664878
55.853269
54.86272
53.688858
52.324157
50.758408
48.978563
46.969024
44.711837
42.186963
39.373078
36.248411
32.792323
28.989088
24.833753
20.341981
15.567629
10.633079
5.7856674
1.979555
0.70542635
0.55741016
0.54838927
0.54794634
0.54789783
0.5478766
0.54786301
0.54787385
0.54792308
0.54795686
0.54792287
0.54784752
0.54771439
0.54761797
0.5475331
0.54753913
0.54752682
0.54754741
0.54756348
0.54755586
0.54753936
0.54751822
0.54751439
0.54750916
0.54749313
0.54746373
0.54744653
0.54741479
0.54739897
0.54740922
0.54742097
0.54740074
0.54739118
0.54738748
0.54736089
0.54737881
0.54739041
0.54708221
0.54704686
0.5476679
0.54715191
0.5462524
0.54707168
0.54871228
0.54820172
0.54579257
0.54373612
0.54298966
0.54344046
0.54466657
0.54599274
0.54716391
0.54743552
0.5470675
0.54685401
0.54607139
0.54543324
0.54623793
0.54647639
0.54496826
0.54384461
0.54463526
0.54699849
0.54928138
0.55088673
0.55188287
0.5521634
0.55219619
0.55230863
0.55231803
0.55230721
0.55236862
0.55237024
0.55240011
0.55239981
0.55241177
0.55241696
0.55241648
0.55241793
0.5524191
0.55242384
0.55242228
0.55243169
0.55244163
0.55244845
0.55245305
0.55245756
0.55246194
0.1520947
0.078281331
0.45943818
1.8674205
5.2891458
11.423517
19.613872
28.104133
35.554316
41.544139
46.17542
49.696991
52.349466
54.327577
55.777962
56.807936
57.49501
57.894895
58.047249
57.980445
57.713833
57.259849
56.625593
55.81375
54.823201
53.649598
52.285437
50.720523
48.941818
46.933725
44.678281
42.155435
39.343834
36.221674
32.768272
28.967848
24.815386
20.326494
15.554989
10.62325
5.7786759
1.9767513
0.70525984
0.55743015
0.54844379
0.54799227
0.54794171
0.54791516
0.54789008
0.54788339
0.54791366
0.54793466
0.54789975
0.54782408
0.54769531
0.54759513
0.54751412
0.54751621
0.54750823
0.54753031
0.5475462
0.54753984
0.54752379
0.54750366
0.54750015
0.54749571
0.54748182
0.54745432
0.54743653
0.54740761
0.54739315
0.54740256
0.54740981
0.54738789
0.54737878
0.54737215
0.54734393
0.54736376
0.5473782
0.54706487
0.54703209
0.54766016
0.54714098
0.54623968
0.54706614
0.54870847
0.54819779
0.54578521
0.54372969
0.54298809
0.54330696
0.54447414
0.5458292
0.54703125
0.54730956
0.54694437
0.5467477
0.54595858
0.54532802
0.5459466
0.54613082
0.54461135
0.54349698
0.54432206
0.54663742
0.54893223
0.55054862
0.5516164
0.55190913
0.55193263
0.55214338
0.55215852
0.55213579
0.55227432
0.55227629
0.55235383
0.55235257
0.55239038
0.55241118
0.55240996
0.55241574
0.55241788
0.55241906
0.55241852
0.55242178
0.5524297
0.55244012
0.55244766
0.55245268
0.55245729
0.15189467
0.078170286
0.45877085
1.8647363
5.2818624
11.409314
19.593125
28.079408
35.52794
41.517391
46.148834
49.670714
52.323458
54.301713
55.752077
56.781849
57.468543
57.867889
58.019578
57.952041
57.684745
57.230037
56.59509
55.782619
54.791536
53.617535
52.25315
50.688227
48.909764
46.902198
44.647595
42.125921
39.315834
36.195522
32.744282
28.946293
24.796484
20.310388
15.541753
10.61292
5.7713289
1.9738376
0.70506687
0.55764958
0.54860723
0.54813989
0.54808544
0.54805018
0.54800264
0.5479599
0.54796159
0.5479735
0.54793938
0.54786405
0.54773912
0.5476355
0.54755742
0.54755605