/*--------------------------------*- C++ -*----------------------------------*\
| =========                 |                                                 |
| \\      /  F ield         | OpenFOAM: The Open Source CFD Toolbox           |
|  \\    /   O peration     | Version:  2506                                  |
|   \\  /    A nd           | Website:  www.openfoam.com                      |
|    \\/     M anipulation  |                                                 |
\*---------------------------------------------------------------------------*/
FoamFile
{
    version     2.0;
    format      ascii;
    arch        "LSB;label=32;scalar=64";
    class       volScalarField;
    location    "0.019";
    object      T;
}
// * * * * * * * * * * * * * * * * * * * * * * * * * * * * * * * * * * * * * //

dimensions      [0 0 0 1 0 0 0];

internalField   nonuniform List<scalar> 
13761
(
240.91654
240.85088
240.78995
240.73319
240.67992
240.62963
240.58218
240.53746
240.49513
240.45464
240.41529
240.37647
240.33764
240.29842
240.25892
240.22072
240.18833
240.17075
240.18437
240.25217
240.40728
240.67474
241.06751
241.52873
241.96355
242.37923
242.74946
243.06534
243.32937
243.54811
243.72804
243.87429
243.98723
244.06936
244.12263
244.15127
244.16282
244.16535
241.943
241.85164
241.76555
241.68365
241.60535
241.53053
241.45965
241.3934
241.33194
241.27489
241.22162
241.17156
241.12437
241.07989
241.03809
240.99891
240.96223
240.92785
240.8957
240.86589
240.83897
240.81629
240.8004
240.79563
240.80588
240.83707
240.89815
241.00908
241.19549
241.48503
241.87201
242.28821
242.7024
243.08073
243.40996
243.68559
243.90986
244.08877
244.22887
244.33669
244.41456
244.46437
244.49089
244.50156
244.50392
242.38156
242.29251
242.21013
242.13363
242.06104
241.99164
241.92593
241.86447
241.80741
241.75441
241.70486
241.65819
241.61406
241.57243
241.53327
241.49624
241.46075
241.42613
241.3918
241.35726
241.3221
241.2863
241.25106
241.22029
241.20197
241.2103
241.26141
241.38048
241.58613
241.88313
242.27088
242.65921
243.04679
243.4049
243.71854
243.985
244.20744
244.39004
244.5363
244.64731
244.72582
244.77526
244.80137
244.81187
244.8142
242.80267
242.72452
242.65154
242.58134
242.51332
242.44814
242.38675
242.32978
242.27713
242.22822
242.18235
242.13907
242.09825
242.05984
242.02379
241.98995
241.95811
241.92809
241.89988
241.87365
241.84992
241.82989
241.81572
241.81091
241.81846
241.8427
241.89032
241.97736
242.12351
242.34767
242.66327
243.02406
243.39723
243.75242
244.06984
244.34003
244.56216
244.74002
244.87847
244.98246
245.05532
245.10074
245.12461
245.13421
245.13637
243.22648
243.1515
243.08105
243.01484
242.95194
242.89221
242.83621
242.78424
242.73603
242.69108
242.64883
242.60891
242.57119
242.53569
242.50235
242.47081
242.44047
242.41072
242.38104
242.35097
242.32014
242.28844
242.25687
242.2289
242.21158
242.21718
242.25767
242.3531
242.51777
242.75634
243.06009
243.41361
243.75897
244.09029
244.39085
244.65131
244.8687
245.04415
245.18072
245.28261
245.35284
245.39599
245.41848
245.4275
245.42953
243.7007
243.62751
243.56193
243.50113
243.44206
243.38423
243.3289
243.27722
243.22954
243.1855
243.14442
243.10569
243.06905
243.03454
243.00218
242.97183
242.94321
242.91605
242.89021
242.86576
242.84293
242.82221
242.80471
242.7923
242.78789
242.79388
242.81387
242.85388
242.92763
243.05147
243.23896
243.49328
243.80887
244.126
244.43726
244.72259
244.97183
245.18133
245.3512
245.48333
245.58098
245.64765
245.68831
245.70945
245.71794
245.71987
244.09392
244.03024
243.96925
243.91008
243.85323
243.79939
243.74911
243.70269
243.65987
243.62003
243.58258
243.54716
243.51367
243.48214
243.45255
243.42475
243.39833
243.37276
243.34751
243.32216
243.29632
243.26962
243.24194
243.21413
243.18932
243.17361
243.17748
243.21004
243.28756
243.42182
243.61846
243.8724
244.1706
244.47532
244.77347
245.04858
245.28961
245.49137
245.6534
245.77789
245.86941
245.93132
245.96877
245.98815
245.99593
245.99772
244.53253
244.46804
244.40778
244.35319
244.30253
244.25342
244.20553
244.16006
244.11784
244.07886
244.04264
244.00862
243.97644
243.94602
243.91746
243.89078
243.8657
243.84183
243.8189
243.79683
243.77576
243.75597
243.73796
243.72271
243.71191
243.70808
243.71325
243.73061
243.76584
243.83004
243.93651
244.09503
244.3064
244.56247
244.83912
245.11345
245.36766
245.59203
245.78189
245.93573
246.05436
246.14085
246.19892
246.23387
246.25192
246.25917
246.26084
244.89085
244.83441
244.78408
244.73564
244.68679
244.63866
244.59342
244.55211
244.51455
244.47997
244.44755
244.4168
244.3876
244.36007
244.33427
244.31011
244.28729
244.26539
244.24398
244.2227
244.20122
244.17921
244.15632
244.13241
244.10825
244.08665
244.07282
244.07562
244.10222
244.16646
244.27834
244.44354
244.65855
244.91084
245.17585
245.43669
245.6789
245.89233
246.0716
246.21548
246.32537
246.40515
246.45844
246.49039
246.50686
246.51348
246.51501
245.2876
245.23386
245.184
245.13613
245.09053
245.04773
245.00736
244.96912
244.93324
244.8998
244.86855
244.83913
244.81133
244.78506
244.76037
244.73729
244.71569
244.69523
244.6755
244.65625
244.6375
244.61943
244.60232
244.58665
244.57336
244.56397
244.56078
244.56559
244.58137
244.6134
244.67028
244.76267
244.89763
245.07494
245.28631
245.52195
245.75794
245.97897
246.17541
246.34179
246.47592
246.57874
246.65293
246.70219
246.73161
246.74674
246.75282
246.75423
245.66687
245.6154
245.56633
245.52173
245.48175
245.4433
245.40401
245.3648
245.32803
245.29486
245.26492
245.23729
245.21124
245.18643
245.1629
245.1408
245.12016
245.10075
245.08219
245.06412
245.04627
245.02843
245.01036
244.99177
244.9723
244.95184
244.93112
244.91263
244.90078
244.90315
244.92541
244.97954
245.07393
245.21377
245.39664
245.61122
245.8363
246.05985
246.26779
246.45141
246.60572
246.72911
246.82399
246.89207
246.93703
246.96375
246.97745
246.98293
246.98421
246.01903
245.9699
245.92262
245.88117
245.84395
245.80673
245.76883
245.73266
245.69996
245.67052
245.64334
245.61763
245.59304
245.56954
245.54724
245.52629
245.50673
245.48846
245.47121
245.45463
245.43839
245.42233
245.4065
245.39107
245.3763
245.36264
245.35099
245.34282
245.34028
245.3449
245.3598
245.3891
245.4398
245.52032
245.63569
245.78533
245.96298
246.15893
246.3588
246.54648
246.71358
246.85506
246.96878
247.05598
247.11835
247.15941
247.18377
247.19622
247.20119
247.20234
246.30337
246.26045
246.2218
246.18634
246.15192
246.11911
246.08817
246.05795
246.02812
245.99972
245.97361
245.94981
245.92784
245.90723
245.88773
245.86931
245.85203
245.83581
245.82037
245.80537
245.79053
245.77572
245.76084
245.74571
245.73005
245.71357
245.6962
245.67867
245.66319
245.65339
245.65575
245.67498
245.72117
245.80118
245.91946
246.07426
246.25642
246.4495
246.63467
246.80908
246.96337
247.09307
247.19772
247.27754
247.33435
247.37161
247.39363
247.40488
247.40936
247.41038
246.61551
246.57622
246.53869
246.5042
246.47304
246.44444
246.41573
246.38568
246.35632
246.33025
246.30783
246.28768
246.2685
246.24979
246.23162
246.21426
246.19795
246.18275
246.16848
246.15483
246.14149
246.12822
246.11493
246.10163
246.08847
246.07568
246.0637
246.05343
246.04629
246.04442
246.04896
246.06316
246.09015
246.13564
246.20593
246.30443
246.43012
246.57825
246.74176
246.90497
247.06103
247.20072
247.31922
247.41495
247.48764
247.53915
247.57279
247.59262
247.6027
247.60669
247.60759
246.90033
246.86726
246.83272
246.80047
246.77293
246.74777
246.72156
246.69478
246.66994
246.64768
246.62675
246.6063
246.58648
246.56781
246.55054
246.53455
246.51962
246.50559
246.49239
246.47987
246.46778
246.45582
246.44377
246.43156
246.41915
246.40645
246.39323
246.37931
246.36469
246.35008
246.33742
246.32974
246.33233
246.34929
246.38913
246.45732
246.55729
246.68724
246.83945
247.00081
247.15518
247.29887
247.42666
247.53488
247.6217
247.68727
247.73354
247.76366
247.78135
247.79032
247.79385
247.79465
247.16541
247.13812
247.10716
247.0774
247.05255
247.02996
247.00683
246.9841
246.96244
246.94065
246.91875
246.89852
246.88114
246.86614
246.85232
246.83887
246.82553
246.81249
246.8001
246.78852
246.77761
246.76706
246.75652
246.7458
246.73482
246.72364
246.71238
246.70125
246.69072
246.68167
246.67545
246.67412
246.67865
246.692
246.71675
246.75747
246.81874
246.90264
247.0079
247.13046
247.26477
247.39973
247.5278
247.6423
247.7393
247.817
247.87556
247.91677
247.94353
247.95917
247.96707
247.97017
247.97087
247.40713
247.38484
247.35958
247.33364
247.31041
247.28911
247.26874
247.24951
247.23018
247.20988
247.19045
247.17401
247.16015
247.14691
247.13328
247.11955
247.10635
247.09406
247.08274
247.07236
247.06274
247.05359
247.04456
247.03529
247.02561
247.01553
247.00514
246.99443
246.9833
246.97165
246.95954
246.9476
246.9375
246.93181
246.93474
246.94994
246.98452
247.04264
247.12687
247.23527
247.3613
247.49412
247.6215
247.73941
247.84327
247.93044
247.99984
248.05191
248.08847
248.11217
248.12606
248.13308
248.13583
248.13646
247.62533
247.60871
247.58983
247.56787
247.54599
247.52655
247.51039
247.49589
247.48025
247.46344
247.44744
247.43282
247.4186
247.40453
247.39144
247.38003
247.37006
247.36069
247.35138
247.34218
247.3334
247.32522
247.31743
247.30961
247.30139
247.29265
247.28348
247.27403
247.26444
247.25489
247.24577
247.23788
247.23246
247.23144
247.23578
247.24801
247.27043
247.3067
247.36003
247.43144
247.51922
247.61974
247.72882
247.83888
247.94237
248.03393
248.11073
248.17169
248.21726
248.24911
248.26967
248.28164
248.28765
248.29
248.29054
247.82702
247.81392
247.80035
247.78405
247.76607
247.74933
247.73587
247.72346
247.70944
247.69453
247.67997
247.6654
247.65123
247.63924
247.63004
247.62221
247.61399
247.60476
247.595
247.58558
247.57723
247.57009
247.56377
247.55761
247.55102
247.54368
247.53565
247.52716
247.51842
247.50946
247.5002
247.49054
247.48053
247.47074
247.46257
247.45834
247.46135
247.47478
247.50467
247.55402
247.62469
247.71463
247.81819
247.92659
248.03032
248.1249
248.2072
248.27551
248.32937
248.36947
248.39746
248.4155
248.42605
248.43135
248.43342
248.43389
247.99744
247.9896
247.97979
247.96549
247.94906
247.93548
247.92474
247.91464
247.90464
247.89396
247.88211
247.8709
247.8623
247.85538
247.8478
247.83896
247.82996
247.82185
247.81488
247.80881
247.80341
247.79839
247.79341
247.78801
247.78183
247.77484
247.76727
247.75943
247.75148
247.74343
247.73529
247.72729
247.7201
247.71487
247.71334
247.71668
247.72703
247.7464
247.77771
247.82317
247.88306
247.95569
248.03789
248.12584
248.21411
248.29592
248.36753
248.42702
248.47385
248.50865
248.53288
248.5485
248.5576
248.56222
248.56404
248.56447
248.16621
248.16255
248.15696
248.14614
248.13176
248.12068
248.11428
248.10943
248.10322
248.09385
248.08235
248.07186
248.06363
248.05617
248.04844
248.04115
248.03515
248.02985
248.02418
248.01799
248.01198
248.00683
248.00251
247.99842
247.9938
247.98825
247.98187
247.97501
247.96798
247.96085
247.95349
247.94568
247.93729
247.92841
247.91966
247.9123
247.90846
247.91087
247.92204
247.94709
247.98812
248.04629
248.11948
248.20309
248.29049
248.37389
248.44805
248.51194
248.56452
248.60566
248.63609
248.65722
248.67077
248.67867
248.68262
248.68417
248.68454
248.31385
248.31402
248.31288
248.30719
248.29812
248.28919
248.28426
248.28095
248.27622
248.26819
248.25889
248.25123
248.24514
248.23951
248.23465
248.23103
248.22747
248.22266
248.21647
248.21026
248.20552
248.2026
248.20074
248.19872
248.19567
248.19124
248.18568
248.17952
248.1732
248.16689
248.16046
248.15368
248.14637
248.13872
248.1314
248.12556
248.12276
248.12452
248.13243
248.14838
248.17455
248.21238
248.26165
248.3207
248.38672
248.45644
248.52642
248.5896
248.64457
248.68998
248.72558
248.75196
248.77034
248.78226
248.78928
248.79291
248.7944
248.79476
248.45084
248.45172
248.45578
248.45479
248.44955
248.44278
248.43739
248.43688
248.43572
248.43147
248.42538
248.41987
248.41479
248.41032
248.40745
248.40529
248.40165
248.39611
248.39047
248.3862
248.38357
248.38177
248.37986
248.3774
248.37419
248.37018
248.36549
248.36042
248.35521
248.34998
248.3446
248.3388
248.3323
248.32492
248.31671
248.30799
248.29943
248.29223
248.28826
248.28977
248.29875
248.31905
248.35232
248.39905
248.45716
248.52298
248.59151
248.65663
248.71403
248.76301
248.80297
248.83401
248.85686
248.87268
248.88287
248.88884
248.89189
248.89314
248.89346
248.56875
248.57134
248.57804
248.58313
248.58144
248.57746
248.57478
248.5757
248.57773
248.57575
248.57187
248.56823
248.56498
248.56251
248.56142
248.55986
248.55618
248.5515
248.5479
248.54584
248.54402
248.54208
248.54034
248.53905
248.53803
248.53652
248.53406
248.53066
248.52661
248.52221
248.51753
248.51241
248.50664
248.5
248.49252
248.48455
248.47683
248.47042
248.46664
248.46721
248.47296
248.48575
248.50711
248.53784
248.57745
248.62428
248.67585
248.72955
248.78303
248.83129
248.87286
248.9069
248.93338
248.95288
248.96639
248.97511
248.98023
248.98288
248.98398
248.98428
248.67557
248.67981
248.69039
248.69932
248.7026
248.70127
248.70075
248.70258
248.70559
248.7081
248.70739
248.70563
248.70356
248.70175
248.70056
248.69919
248.6971
248.69514
248.69454
248.69406
248.69287
248.69145
248.69096
248.6912
248.69097
248.68952
248.6866
248.68288
248.67895
248.67503
248.67101
248.66663
248.66161
248.65575
248.64898
248.64141
248.63331
248.62506
248.61725
248.61082
248.6073
248.60835
248.61563
248.63179
248.6581
248.69457
248.7394
248.78965
248.84148
248.89053
248.93387
248.97048
249.00006
249.02286
249.03953
249.05102
249.05841
249.06274
249.06497
249.0659
249.06616
248.76599
248.77237
248.78553
248.79852
248.80545
248.80722
248.80834
248.81194
248.81782
248.82261
248.82578
248.82452
248.82273
248.82329
248.82443
248.82536
248.82665
248.82765
248.8276
248.82645
248.82462
248.82322
248.8227
248.82239
248.82177
248.82047
248.81892
248.81756
248.81641
248.81486
248.81245
248.80903
248.80463
248.79936
248.79331
248.78662
248.77947
248.77223
248.76544
248.7599
248.75653
248.75697
248.76148
248.77174
248.78877
248.81295
248.84365
248.87936
248.91805
248.95775
248.9969
249.03236
249.06263
249.08715
249.10603
249.11981
249.12927
249.13531
249.13882
249.1406
249.14132
249.14151
248.85282
248.86907
248.88661
248.89813
248.90326
248.90681
248.91283
248.921
248.92837
248.93298
248.93383
248.93479
248.93715
248.94013
248.94097
248.94194
248.94371
248.94317
248.9418
248.94079
248.94102
248.94149
248.94169
248.94241
248.94397
248.94521
248.94595
248.94527
248.94307
248.93947
248.93501
248.93013
248.92503
248.9197
248.91404
248.90801
248.90169
248.89521
248.8888
248.88288
248.87817
248.87578
248.87691
248.88301
248.89576
248.91608
248.94373
248.97726
249.01433
249.05204
249.08738
249.11868
249.14451
249.16515
249.18093
249.19239
249.20027
249.20533
249.20831
249.20984
249.21048
249.21065
248.92034
248.94013
248.96122
248.97616
248.98368
248.98944
248.99789
249.00801
249.01743
249.02427
249.02771
249.03008
249.03348
249.03661
249.03891
249.0418
249.04568
249.04811
249.04788
249.04852
249.04972
249.05058
249.05122
249.05305
249.056
249.05835
249.05783
249.05585
249.0528
249.04947
249.04632
249.04338
249.04034
249.037
249.03315
249.02867
249.02364
249.01825
249.01272
249.00751
249.00323
249.00071
249.00116
249.00486
249.01296
249.02609
249.04433
249.06705
249.09303
249.12075
249.14875
249.17583
249.20028
249.22058
249.23678
249.24909
249.25793
249.26389
249.26762
249.26972
249.27075
249.27114
249.27123
248.97476
249.00042
249.02485
249.04261
249.05332
249.06215
249.07374
249.0865
249.09829
249.1078
249.11344
249.11714
249.12186
249.12699
249.13139
249.13588
249.1397
249.14226
249.14237
249.1436
249.14539
249.14641
249.14743
249.14916
249.15229
249.15374
249.15257
249.15059
249.14867
249.14699
249.14536
249.1434
249.14102
249.13822
249.1349
249.1311
249.12661
249.12158
249.11613
249.11045
249.10485
249.09982
249.09602
249.09434
249.0957
249.10096
249.11122
249.12686
249.14741
249.17168
249.19794
249.22421
249.24857
249.26981
249.28712
249.30068
249.31082
249.31802
249.32282
249.32578
249.32741
249.32818
249.32845
249.3285
249.02762
249.0552
249.07929
249.0975
249.11083
249.1228
249.1371
249.15248
249.1661
249.17715
249.18461
249.19014
249.19671
249.20357
249.20912
249.21407
249.21877
249.22241
249.22506
249.22781
249.23012
249.23097
249.23184
249.23374
249.23659
249.23932
249.23993
249.24001
249.24013
249.23991
249.23893
249.23759
249.23617
249.23482
249.23312
249.23045
249.22676
249.22182
249.2161
249.20994
249.20373
249.198
249.19338
249.1905
249.19048
249.1932
249.19955
249.20977
249.22368
249.24061
249.25954
249.27932
249.29887
249.3173
249.33365
249.34705
249.35758
249.36546
249.37104
249.37474
249.37701
249.37825
249.37883
249.37902
249.37905
249.08614
249.1132
249.1357
249.15501
249.1726
249.19121
249.20952
249.22511
249.23756
249.24743
249.25571
249.26413
249.27226
249.27909
249.28542
249.29148
249.29614
249.29927
249.30176
249.30381
249.30545
249.30772
249.31131
249.31528
249.31851
249.32061
249.32162
249.32156
249.3209
249.3197
249.31856
249.31801
249.31737
249.31566
249.31259
249.30769
249.30161
249.29489
249.28791
249.28093
249.27422
249.26806
249.26286
249.25916
249.25763
249.2589
249.26343
249.27184
249.28406
249.29949
249.31708
249.33558
249.35376
249.37056
249.38512
249.3969
249.40603
249.41278
249.4175
249.42059
249.42246
249.42347
249.42391
249.42405
249.42407
249.1213
249.15252
249.17802
249.20037
249.22012
249.23935
249.25784
249.2736
249.28738
249.29939
249.31013
249.31992
249.32914
249.33764
249.34557
249.35271
249.35824
249.36247
249.36637
249.3701
249.37337
249.37662
249.38026
249.38398
249.38709
249.39003
249.39183
249.39264
249.39245
249.39194
249.39144
249.39124
249.39037
249.38841
249.38506
249.38046
249.37505
249.36909
249.36275
249.35613
249.34936
249.34272
249.33658
249.33145
249.32793
249.32668
249.32805
249.33235
249.33986
249.35034
249.36317
249.37744
249.3922
249.40656
249.41984
249.43159
249.44133
249.44881
249.4544
249.45836
249.461
249.46263
249.46354
249.46398
249.46414
249.46417
249.13964
249.17011
249.19635
249.22024
249.24344
249.26601
249.28826
249.30857
249.32667
249.34267
249.35594
249.36788
249.3788
249.38919
249.39875
249.40722
249.41432
249.41999
249.42455
249.42819
249.43136
249.43498
249.43961
249.44456
249.44901
249.45219
249.45467
249.45477
249.45445
249.45432
249.45429
249.45466
249.45445
249.45356
249.45186
249.44923
249.44529
249.44027
249.43435
249.4278
249.42089
249.41391
249.40713
249.40082
249.39529
249.39093
249.38824
249.38783
249.38981
249.3947
249.4025
249.41272
249.42457
249.43714
249.44954
249.46098
249.4709
249.47905
249.48535
249.49003
249.49335
249.49558
249.49699
249.4978
249.49821
249.49838
249.49843
249.13941
249.17595
249.20964
249.24173
249.27233
249.30108
249.32683
249.34934
249.36784
249.38305
249.39589
249.40767
249.41969
249.43102
249.44209
249.45195
249.46009
249.46616
249.47053
249.47435
249.47874
249.48421
249.49021
249.49564
249.49959
249.50234
249.50428
249.50562
249.50687
249.50855
249.51044
249.51223
249.51301
249.51282
249.51194
249.50998
249.50647
249.50179
249.49638
249.49066
249.4849
249.47917
249.47355
249.46813
249.46305
249.45863
249.45522
249.45321
249.45303
249.45464
249.45831
249.46387
249.47091
249.47889
249.4872
249.49531
249.50279
249.50935
249.5148
249.51903
249.52217
249.52438
249.52584
249.52674
249.52725
249.52749
249.52758
249.52761
249.19132
249.22816
249.26231
249.29298
249.32037
249.34432
249.36493
249.38309
249.39936
249.4155
249.43181
249.44839
249.46444
249.47859
249.49087
249.49958
249.50599
249.51135
249.51681
249.52302
249.52969
249.53617
249.54174
249.54606
249.54909
249.55116
249.55246
249.55358
249.55493
249.55686
249.55882
249.56008
249.56058
249.56003
249.55851
249.55532
249.55108
249.54625
249.54115
249.53592
249.5306
249.52513
249.51959
249.51405
249.50877
249.50403
249.50016
249.4975
249.49638
249.49702
249.49944
249.50362
249.50921
249.51571
249.52256
249.52927
249.53542
249.54073
249.54505
249.54835
249.55071
249.55232
249.55335
249.55395
249.55426
249.55438
249.55441
249.55441
249.17728
249.21792
249.25457
249.28885
249.31962
249.34844
249.37466
249.39965
249.4235
249.44616
249.46742
249.48607
249.50215
249.51461
249.5238
249.53095
249.5364
249.5431
249.5504
249.5581
249.56591
249.57315
249.57914
249.58322
249.58548
249.58686
249.58817
249.59046
249.59395
249.59792
249.60153
249.6037
249.60378
249.60304
249.60081
249.59729
249.59305
249.58847
249.58378
249.57901
249.57422
249.56949
249.56479
249.56008
249.55544
249.55104
249.5471
249.54385
249.54154
249.54041
249.54062
249.54208
249.54477
249.54839
249.55259
249.55699
249.56126
249.56516
249.56853
249.57129
249.57341
249.5749
249.57591
249.57654
249.5769
249.57706
249.57712
249.57712
249.5771
249.17518
249.22002
249.26141
249.29943
249.33446
249.36619
249.39551
249.42162
249.44585
249.46671
249.48499
249.50047
249.51349
249.52486
249.5347
249.54495
249.55556
249.56685
249.57939
249.59004
249.59939
249.60668
249.61142
249.61422
249.61616
249.61842
249.62159
249.62555
249.62992
249.63418
249.63765
249.63994
249.64067
249.64025
249.6385
249.63538
249.63129
249.62665
249.62185
249.61707
249.61233
249.60777
249.60332
249.59884
249.59426
249.58963
249.58504
249.58071
249.57684
249.5737
249.57155
249.57058
249.57088
249.57231
249.5747
249.57773
249.58106
249.58439
249.58746
249.59013
249.59231
249.59398
249.59517
249.59595
249.59643
249.59669
249.59681
249.59685
249.59684
249.59683
249.1964
249.24127
249.28181
249.31969
249.35361
249.3851
249.4135
249.43927
249.46294
249.484
249.5039
249.52206
249.53955
249.55629
249.5726
249.58794
249.60119
249.61291
249.6211
249.62679
249.63082
249.63303
249.63503
249.63795
249.64209
249.64708
249.65248
249.6579
249.66301
249.66716
249.66968
249.66982
249.66886
249.66657
249.66355
249.66033
249.65716
249.65402
249.65104
249.64785
249.64431
249.64035
249.63604
249.63148
249.6268
249.62212
249.61759
249.61333
249.60951
249.60628
249.60376
249.60208
249.60129
249.60135
249.60207
249.60329
249.6048
249.60638
249.60788
249.6092
249.61029
249.61112
249.61171
249.61209
249.6123
249.61241
249.61244
249.61244
249.61242
249.61241
249.18238
249.23049
249.27625
249.31738
249.35597
249.39033
249.42291
249.45169
249.47882
249.50299
249.52534
249.54542
249.56337
249.57914
249.59258
249.60411
249.61379
249.62157
249.62801
249.63315
249.63787
249.64334
249.64866
249.65641
249.66497
249.67334
249.68047
249.68607
249.68999
249.69209
249.69283
249.69237
249.69147
249.69001
249.68802
249.68562
249.68302
249.68029
249.67782
249.6754
249.67283
249.66989
249.66643
249.66246
249.65807
249.6534
249.64861
249.64381
249.63918
249.63484
249.63092
249.62756
249.62491
249.62303
249.62192
249.62152
249.62166
249.62217
249.62289
249.62367
249.62441
249.62503
249.62552
249.62585
249.62606
249.62616
249.62619
249.62618
249.62615
249.62612
249.62611
249.14725
249.19929
249.24759
249.29197
249.33281
249.36994
249.40401
249.43541
249.46357
249.48961
249.51238
249.53392
249.55257
249.57003
249.58547
249.59951
249.61186
249.6234
249.63406
249.64494
249.65445
249.66523
249.67419
249.68386
249.69119
249.69646
249.70009
249.70269
249.70433
249.70534
249.70568
249.70553
249.70512
249.7044
249.70366
249.70313
249.70269
249.70216
249.70125
249.69976
249.69765
249.69502
249.69196
249.68847
249.68458
249.68035
249.67589
249.67128
249.66666
249.66213
249.65779
249.6537
249.64998
249.6467
249.64394
249.6417
249.63998
249.63871
249.63781
249.63717
249.63672
249.63639
249.63614
249.63594
249.63576
249.63561
249.63546
249.63534
249.63524
249.63517
249.63513
249.63511
249.17473
249.22552
249.27495
249.31885
249.36065
249.39786
249.43317
249.46428
249.49401
249.52032
249.54506
249.56682
249.58671
249.60428
249.62009
249.63399
249.64653
249.65765
249.66787
249.67633
249.68448
249.69057
249.69587
249.69973
249.7027
249.70525
249.70757
249.70978
249.71188
249.71379
249.71563
249.71739
249.71932
249.72121
249.72258
249.72323
249.72321
249.72277
249.72168
249.7198
249.71715
249.71384
249.71008
249.70594
249.70162
249.69718
249.69266
249.68812
249.68357
249.67905
249.6746
249.67027
249.66616
249.66235
249.65894
249.65599
249.65352
249.65151
249.64991
249.64864
249.64763
249.64684
249.6462
249.64568
249.64525
249.6449
249.64462
249.6444
249.64423
249.64411
249.64403
249.644
249.13323
249.18766
249.23902
249.2862
249.33062
249.37052
249.40799
249.44118
249.47204
249.50002
249.52575
249.54881
249.56986
249.58851
249.6052
249.62008
249.63381
249.6461
249.65711
249.66655
249.67494
249.68215
249.68848
249.69407
249.69894
249.70335
249.70747
249.71163
249.71579
249.71998
249.72399
249.72785
249.73119
249.73362
249.7353
249.73574
249.7355
249.73467
249.73315
249.731
249.72831
249.7252
249.72178
249.7181
249.71424
249.71025
249.70616
249.702
249.69778
249.69351
249.68917
249.68478
249.68036
249.67595
249.67166
249.66757
249.66379
249.66038
249.65738
249.65481
249.65264
249.65084
249.64938
249.6482
249.64727
249.64654
249.64598
249.64556
249.64525
249.64503
249.64489
249.64481
249.64477
249.09583
249.15487
249.20965
249.26042
249.3077
249.35125
249.39191
249.42888
249.4633
249.49424
249.52309
249.54918
249.57317
249.59435
249.61354
249.63043
249.64534
249.65848
249.67016
249.68048
249.68968
249.69778
249.70501
249.7115
249.7174
249.72285
249.72793
249.73275
249.73715
249.74113
249.74449
249.74718
249.74933
249.75068
249.75077
249.75043
249.74974
249.74874
249.74732
249.74543
249.7431
249.74039
249.73736
249.73406
249.73055
249.72687
249.72304
249.71909
249.71504
249.71091
249.70672
249.70242
249.69803
249.69354
249.68902
249.68454
249.68023
249.67618
249.6725
249.66925
249.66644
249.66406
249.66208
249.66045
249.65913
249.65808
249.65725
249.6566
249.65611
249.65575
249.6555
249.65533
249.65523
249.65519
249.10725
249.16476
249.21927
249.26886
249.31541
249.35797
249.39764
249.43373
249.46695
249.49712
249.52443
249.54922
249.57167
249.59179
249.60982
249.62577
249.64002
249.65281
249.66432
249.67473
249.68412
249.69256
249.70012
249.7069
249.71295
249.71834
249.72314
249.72737
249.73111
249.73441
249.73718
249.73931
249.74105
249.74223
249.74231
249.74202
249.74105
249.7393
249.73693
249.73409
249.73095
249.72765
249.72432
249.72106
249.71797
249.71503
249.71216
249.7093
249.70639
249.70334
249.70009
249.69659
249.6928
249.6887
249.68432
249.67975
249.67512
249.67061
249.66635
249.66246
249.65904
249.6561
249.65363
249.6516
249.64996
249.64865
249.64763
249.64685
249.64627
249.64584
249.64554
249.64534
249.64522
249.64517
249.06353
249.12533
249.18277
249.2366
249.28632
249.3322
249.37475
249.41383
249.45
249.48316
249.51374
249.5416
249.56698
249.58996
249.61065
249.62912
249.64553
249.66008
249.67299
249.68448
249.69473
249.70383
249.71192
249.71909
249.72547
249.73122
249.7365
249.74134
249.74565
249.74952
249.75295
249.75481
249.75489
249.75422
249.75234
249.74914
249.74465
249.7391
249.73272
249.72584
249.71873
249.71162
249.70475
249.69838
249.69286
249.68842
249.68519
249.68308
249.6817
249.6807
249.67979
249.67878
249.67758
249.67615
249.67452
249.67274
249.67088
249.66904
249.66729
249.6657
249.66431
249.66311
249.66211
249.66128
249.66059
249.66004
249.6596
249.65924
249.65897
249.65876
249.6586
249.65848
249.6584
249.65835
249.65833
249.07107
249.13165
249.18827
249.24089
249.2897
249.3347
249.37621
249.41446
249.44966
249.48173
249.51095
249.53757
249.5615
249.58308
249.60246
249.61978
249.63528
249.64915
249.66157
249.67261
249.68253
249.69144
249.69945
249.70664
249.71306
249.7188
249.72397
249.72871
249.73304
249.73679
249.73985
249.74244
249.74427
249.74456
249.74423
249.74317
249.74117
249.73812
249.734
249.72875
249.72249
249.7154
249.70771
249.69962
249.69115
249.68264
249.67456
249.66734
249.66126
249.6564
249.6527
249.64998
249.64805
249.64671
249.64582
249.64525
249.64493
249.64477
249.6447
249.64469
249.6447
249.6447
249.64471
249.64471
249.64472
249.64473
249.64474
249.64474
249.64475
249.64475
249.64475
249.64475
249.64474
249.64474
249.64474
249.02191
249.0865
249.14653
249.20267
249.25469
249.30291
249.34732
249.38822
249.4261
249.46089
249.49309
249.52264
249.54959
249.57389
249.59551
249.61456
249.63149
249.6463
249.65965
249.67142
249.68182
249.69096
249.69909
249.70639
249.71301
249.7191
249.72464
249.72973
249.7344
249.73865
249.74235
249.74537
249.74778
249.74859
249.74843
249.74765
249.74606
249.74361
249.74036
249.73631
249.73158
249.72615
249.71996
249.71302
249.70541
249.69739
249.68918
249.68106
249.67337
249.66644
249.66051
249.65569
249.65194
249.64919
249.64729
249.64611
249.6455
249.64533
249.64546
249.6458
249.64624
249.64674
249.64723
249.64769
249.6481
249.64844
249.64873
249.64896
249.64913
249.64927
249.64936
249.64943
249.64947
249.64949
249.64951
249.64951
248.95742
249.02605
249.09007
249.14941
249.20465
249.25595
249.30331
249.34697
249.38689
249.42369
249.45754
249.48864
249.51676
249.54244
249.56574
249.58669
249.60543
249.62205
249.6369
249.65001
249.66184
249.6723
249.68144
249.68944
249.69645
249.70257
249.70799
249.71285
249.71729
249.72144
249.72528
249.7288
249.73219
249.7351
249.73733
249.73799
249.73789
249.7372
249.73551
249.73279
249.72912
249.72466
249.71953
249.71379
249.70743
249.70051
249.6931
249.68534
249.67744
249.66968
249.66239
249.65587
249.65033
249.64584
249.64239
249.63988
249.6382
249.63721
249.63676
249.63672
249.63694
249.63732
249.63779
249.63828
249.63877
249.63923
249.63963
249.63998
249.64028
249.64051
249.64069
249.64083
249.64092
249.64099
249.64104
249.64106
249.64107
248.96926
249.03714
249.10062
249.15933
249.21361
249.26426
249.31108
249.35454
249.39424
249.43037
249.46323
249.49356
249.52151
249.5469
249.56974
249.59013
249.60831
249.6244
249.63874
249.65137
249.66264
249.67265
249.68144
249.68908
249.69571
249.70148
249.70654
249.71101
249.71494
249.71851
249.72175
249.72458
249.72711
249.72926
249.73057
249.73074
249.73036
249.7294
249.72789
249.72559
249.7224
249.71833
249.71347
249.70792
249.70185
249.69532
249.68838
249.68113
249.67368
249.66627
249.65916
249.65267
249.64702
249.64234
249.6387
249.63606
249.63437
249.63353
249.63339
249.63376
249.6345
249.63547
249.63653
249.63759
249.63859
249.63947
249.64023
249.64084
249.64133
249.6417
249.64198