/*--------------------------------*- C++ -*----------------------------------*\
| =========                 |                                                 |
| \\      /  F ield         | OpenFOAM: The Open Source CFD Toolbox           |
|  \\    /   O peration     | Version:  2506                                  |
|   \\  /    A nd           | Website:  www.openfoam.com                      |
|    \\/     M anipulation  |                                                 |
\*---------------------------------------------------------------------------*/
FoamFile
{
    version     2.0;
    format      ascii;
    arch        "LSB;label=32;scalar=64";
    class       volScalarField;
    location    "2";
    object      omega;
}
// * * * * * * * * * * * * * * * * * * * * * * * * * * * * * * * * * * * * * //

dimensions      [0 0 -1 0 0 0 0];

internalField   nonuniform List<scalar> 
1375
(
37.78961
33.356508
29.708912
40.654073
37.09934
32.757703
29.205804
26.641578
24.852595
23.609641
22.747707
22.156333
39.939744
36.447635
32.193806
28.732779
26.244375
24.513632
23.314979
22.487362
21.923038
21.547581
21.306893
21.160959
21.080658
21.044083
21.033324
39.249516
35.816416
31.649746
28.27851
25.864394
24.190185
23.033987
22.238713
21.69943
21.343479
21.117912
20.983571
20.911849
20.881013
20.873012
20.875224
20.894399
20.923154
20.957167
38.574049
35.191387
31.112284
27.832231
25.493016
23.875375
22.761317
21.997807
21.48278
21.14544
20.934096
20.810514
20.746612
20.720763
20.714866
20.719747
20.741553
20.771464
20.806257
20.845004
20.887137
20.932354
20.98054
37.910704
34.569014
30.576649
27.388722
25.125144
23.564587
22.493075
21.761588
21.270876
20.951994
20.754551
20.641281
20.584641
20.563154
20.558991
20.566882
20.590809
20.621698
20.657164
20.69639
20.738867
20.784337
20.832707
20.88401
20.938381
20.996033
21.057245
37.262448
33.956065
30.04731
26.949775
24.760851
23.257018
22.228115
21.528891
21.062706
20.762355
20.578712
20.475475
20.425645
20.408047
20.405445
20.416515
20.442133
20.473847
20.509883
20.549501
20.592248
20.637906
20.686407
20.737797
20.792211
20.849866
20.911046
20.976094
21.045413
21.119477
36.633625
33.361665
29.531933
26.520394
24.403106
22.954312
21.967254
21.300032
20.858299
20.5764
20.406386
20.312867
20.269407
20.255367
20.25423
20.26851
20.295483
20.327905
20.364422
20.404358
20.447308
20.493088
20.541659
20.593084
20.647504
20.705137
20.766267
20.831237
20.900453
20.974387
21.05359
21.13872
21.23055
36.026842
32.79099
29.03574
26.104696
24.054894
22.658521
21.711815
21.075783
20.658035
20.394249
20.237529
20.153326
20.115827
20.104989
20.105338
20.122741
20.150808
20.183843
20.22077
20.26096
20.304052
20.349899
20.398491
20.44991
20.504302
20.561885
20.622936
20.6878
20.756885
20.830661
20.909677
20.994575
21.086108
21.185163
21.292788
35.442672
32.245509
28.561553
25.705696
23.718825
22.371661
21.463213
20.857039
20.462401
20.216099
20.072154
19.996798
19.964831
19.956544
19.958957
19.979076
20.00804
20.041609
20.078883
20.119276
20.162467
20.208341
20.256911
20.308279
20.362604
20.420105
20.481055
20.54579
20.614715
20.688298
20.767087
20.851717
20.942931
21.041593
21.148717
21.265517
21.393454
21.534304
34.879549
31.722969
28.109361
25.324838
23.396787
22.095495
21.222838
20.644759
20.271972
20.042232
19.910352
19.843266
19.816283
19.810042
19.815054
19.837404
19.867115
19.901142
19.9387
19.979251
20.022505
20.068372
20.116887
20.168169
20.222392
20.279775
20.340589
20.405164
20.473899
20.547258
20.625784
20.710107
20.800959
20.899189
21.005787
21.121927
21.249035
21.388861
21.543568
21.715875
34.333849
31.21746
27.675623
24.960913
23.088921
21.830733
20.991502
20.439619
20.08721
19.872906
19.752228
19.692715
19.670114
19.665592
19.673521
19.697635
19.727969
19.762378
19.800162
19.840825
19.88411
19.929945
19.978381
20.029549
20.083634
20.140861
20.201501
20.265878
20.334381
20.407473
20.485693
20.569665
20.660112
20.757865
20.86389
20.979333
21.105586
21.244362
21.397788
21.568557
21.760126
21.976898
33.801572
30.723065
27.255649
24.611152
22.793922
21.576949
20.769211
20.241772
19.908261
19.708206
19.597792
19.545086
19.526297
19.523291
19.534223
19.559694
19.590543
19.625262
19.66321
19.703942
19.747228
19.79301
19.841346
19.892375
19.946291
20.003325
20.06375
20.127889
20.196121
20.268904
20.346771
20.430338
20.52032
20.617535
20.722939
20.837647
20.963012
21.100714
21.252843
21.422056
21.611772
21.826327
22.070814
33.279888
30.237005
26.846398
24.273107
22.510162
21.333197
20.555474
20.050983
19.735009
19.548047
19.446948
19.400276
19.3848
19.383179
19.397019
19.423525
19.454798
19.489754
19.527807
19.568559
19.611811
19.657514
19.705729
19.756599
19.810319
19.867125
19.927296
19.991155
20.059077
20.131511
20.208978
20.292088
20.381547
20.478165
20.582883
20.696804
20.821248
20.957848
21.108656
21.276299
21.464152
21.67645
21.918089
22.19368
22.506511
32.767339
29.758965
26.446162
23.944572
22.235651
21.097948
20.349222
19.86655
19.567002
19.392128
19.299465
19.258123
19.245601
19.245208
19.261777
19.28907
19.32069
19.355824
19.393932
19.43466
19.47784
19.523434
19.571503
19.622189
19.675686
19.732236
19.792121
19.855666
19.923241
19.995284
20.072309
20.154916
20.243798
20.339757
20.443728
20.556797
20.680264
20.815725
20.965194
21.131247
21.317207
21.527209
21.76592
22.037585
22.345128
22.696636
32.263857
29.29015
26.05419
23.623646
21.968249
20.86929
20.148945
19.687372
19.403484
19.239938
19.155018
19.118484
19.108388
19.109414
19.128379
19.156271
19.188176
19.223437
19.261555
19.302219
19.345289
19.39074
19.438636
19.489112
19.542361
19.598626
19.658193
19.721389
19.788586
19.860211
19.936764
20.018825
20.107079
20.202327
20.305493
20.417648
20.540076
20.674347
20.822437
20.986878
21.170918
21.37856
21.614254
21.881885
22.18405
22.529151
22.979937
31.770925
28.832922
25.670654
23.309021
21.706098
20.645383
19.953085
19.512256
19.2436
19.090894
19.013244
18.981101
18.972938
18.975766
18.996723
19.025081
19.057219
19.092567
19.130659
19.171221
19.214141
19.25941
19.307097
19.357333
19.41031
19.466268
19.525492
19.588309
19.655092
19.726266
19.802315
19.883803
19.971402
20.065898
20.1682
20.279381
20.400711
20.533731
20.680384
20.843167
21.025247
21.230486
21.463099
21.726606
22.023301
22.362003
22.80818
23.834505
31.002831
31.291228
28.390118
25.296585
23.000284
21.448075
20.424916
19.760434
19.340226
19.086627
18.944498
18.873811
18.845713
18.839163
18.844161
18.866724
18.895448
18.927772
18.96317
19.001204
19.041633
19.084368
19.129419
19.176859
19.226824
19.279503
19.335132
19.393993
19.456409
19.522752
19.593439
19.668947
19.749825
19.83673
19.930438
20.031849
20.142019
20.262192
20.3939
20.539059
20.700123
20.880181
21.082975
21.312455
21.571777
21.862937
22.195231
22.636896
23.679207
31.136719
30.828026
27.964548
24.933725
22.698102
21.194128
20.207468
19.570453
19.17077
18.932146
18.800439
18.736485
18.712142
18.707034
18.714485
18.738307
18.767321
18.799786
18.835196
18.873139
18.913406
18.955926
19.000722
19.047881
19.097543
19.149894
19.205168
19.26364
19.325635
19.391517
19.461695
19.53663
19.616862
19.703049
19.795936
19.896414
20.005531
20.124513
20.254867
20.398481
20.557776
20.735755
20.936033
21.16232
21.417411
21.70302
22.028909
22.466199
23.526447
31.287246
30.3844
27.558916
24.584811
22.404651
20.945715
19.993898
19.383578
19.004062
18.780184
18.658671
18.601181
18.58033
18.576578
18.586644
18.611426
18.640666
18.673224
18.708606
18.746428
18.786503
18.828779
18.87329
18.920136
18.969463
19.021458
19.076353
19.134419
19.195961
19.261338
19.330967
19.405304
19.484878
19.570313
19.662356
19.76188
19.869913
19.987669
20.116626
20.258654
20.41613
20.591985
20.789696
21.01272
21.263505
21.543543
21.863081
22.296307
23.375383
31.295841
29.961759
27.173527
24.25145
22.122091
20.704854
19.785783
19.200903
18.840782
18.631115
18.519362
18.467947
18.450316
18.447861
18.460557
18.486042
18.515452
18.548055
18.583367
18.621035
18.660894
18.702905
18.747114
18.793627
18.842592
18.894201
18.948677
19.006285
19.067342
19.132215
19.201276
19.27496
19.353819
19.438474
19.529657
19.628216
19.735144
19.851649
19.979186
20.119589
20.275194
20.448881
20.643971
20.863668
21.110081
21.384515
21.697782
22.127375
23.226082
31.24682
29.559682
26.806588
23.933634
21.851641
20.473165
19.584621
19.023581
18.681703
18.485393
18.382734
18.336874
18.322172
18.320958
18.336147
18.362126
18.391653
18.42425
18.459449
18.496928
18.536544
18.578269
18.622153
18.668309
18.71689
18.76809
18.822134
18.879285
18.939837
19.004123
19.07255
19.14557
19.223689
19.307527
19.397796
19.495355
19.601182
19.716428
19.842527
19.981284
20.134984
20.306427
20.498818
20.715114
20.957098
21.225902
21.533001
21.959391
23.080651
31.299804
29.176227
26.455411
23.630226
21.593455
20.251436
19.391337
18.852399
18.527376
18.343336
18.248927
18.208026
18.196001
18.195883
18.213362
18.239669
18.269262
18.301805
18.336847
18.374102
18.413446
18.454859
18.4984
18.544179
18.592352
18.643116
18.696696
18.75335
18.813371
18.877086
18.944875
19.017181
19.09452
19.177493
19.266839
19.363376
19.468022
19.581962
19.706611
19.843709
19.995478
20.164636
20.354261
20.56705
20.804505
21.067636
21.368683
21.792341
22.94122
31.579049
28.807597
26.115657
23.338332
21.346073
20.039152
19.205901
18.6875
18.377944
18.205023
18.117984
18.081476
18.071575
18.072769
18.092133
18.118644
18.148259
18.180704
18.215556
18.252558
18.291604
18.332685
18.37586
18.42124
18.468984
18.519287
18.572379
18.62851
18.687961
18.75106
18.818181
18.889767
18.966316
19.048442
19.136821
19.232235
19.335688
19.448318
19.571452
19.706829
19.85664
20.023495
20.210292
20.419498
20.652319
20.909699
21.204796
21.62632
22.806474
31.786778
28.44892
25.781996
23.05345
21.106238
19.834174
19.026995
18.528102
18.232947
18.070178
17.989749
17.95709
17.948826
17.951571
17.972387
17.999008
18.028599
18.060907
18.095536
18.132259
18.170988
18.211722
18.254522
18.299499
18.346805
18.396632
18.449201
18.504771
18.563636
18.626102
18.692531
18.763363
18.839088
18.920298
19.007683
19.102026
19.204255
19.315487
19.437062
19.570685
19.718476
19.882958
20.066874
20.272434
20.500526
20.752133
21.041418
21.46146
22.673863
31.769077
28.096243
25.45145
22.772316
20.870908
19.634007
18.852763
18.372926
18.091552
17.938289
17.863919
17.834659
17.827711
17.832181
17.854076
17.880737
17.910262
17.942397
17.976771
18.013185
18.051569
18.09193
18.134334
18.178894
18.225758
18.275109
18.327164
18.382168
18.4404
18.502188
18.567903
18.637961
18.71284
18.793136
18.879504
18.972708
19.07367
19.183488
19.30348
19.435296
19.581015
19.74307
19.924023
20.125819
20.349091
20.594916
20.878529
21.297636
22.543649
31.761307
27.747414
25.124388
22.494408
20.638824
19.437174
18.681858
18.220911
17.953005
17.808864
17.740179
17.713987
17.708173
17.714489
17.737166
17.763812
17.793236
17.825167
17.859259
17.895339
17.933352
17.973317
18.015302
18.05942
18.105813
18.154657
18.206164
18.260582
18.318186
18.379303
18.444296
18.513578
18.587623
18.666977
18.752294
18.84434
18.943999
19.052317
19.170639
19.300612
19.444252
19.603832
19.78176
19.979719
20.198077
20.438059
20.716071
21.13449
22.418509
32.035443
27.40105
24.801578
22.220143
20.409786
19.243108
18.513614
18.071448
17.816829
17.681562
17.618293
17.594922
17.590146
17.598377
17.621594
17.648184
17.677482
17.70919
17.742983
17.778713
17.816337
17.85588
17.897417
17.941062
17.986961
18.035288
18.086243
18.140059
18.197011
18.257425
18.321673
18.390163
18.463356
18.541779
18.626044
18.716885
18.815177
18.921984
19.038612
19.166666
19.30812
19.465182
19.640037
19.834091
20.047501
20.281637
20.554096
20.972117
22.298603
32.37278
27.056426
24.48289
21.949471
20.183594
19.05146
18.347608
17.92415
17.682708
17.556149
17.49809
17.477363
17.473581
17.48375
17.507307
17.533806
17.562948
17.594406
17.627881
17.663241
17.700462
17.739576
17.78066
17.823826
17.869214
17.916988
17.967351
18.020549
18.076855
18.136569
18.200047
18.267694
18.339979
18.417419
18.5006
18.590243
18.687178
18.792455
18.907359
19.033468
19.172723
19.327191
19.498844
19.688896
19.897317
20.125626
20.392681
20.810939
22.181585
32.370699
18.18405
17.779057
17.550602
17.43255
17.379491
17.361263
17.358457
17.37054
17.394278
17.420656
17.449612
17.480796
17.513931
17.548904
17.5857
17.624359
17.664961
17.707617
17.752471
17.799691
17.849472
17.902043
17.957668
18.016654
18.079348
18.146148
18.217507
18.293924
18.375975
18.464366
18.559907
18.663632
18.776814
18.900984
19.038007
19.18984
19.358262
19.544233
19.74758
19.970052
20.231887
20.651035
22.067742
32.449758
17.246636
17.244785
17.258693
17.282488
17.308721
17.337464
17.36835
17.401124
17.43569
17.472039
17.51022
17.550318
17.592447
17.636746
17.683381
17.732543
17.784458
17.839388
17.897643
17.959544
18.02547
18.095864
18.171224
18.252114
18.339241
18.433394
18.535557
18.646983
18.769168
18.90391
19.053065
19.218226
19.400082
19.598327
19.815023
20.071834
20.492433
21.9595
32.710852
17.226453
17.257018
17.289415
17.323562
17.359457
17.397152
17.43673
17.478306
17.522021
17.568046
17.616574
17.667821
17.722036
17.779515
17.840574
17.905586
17.974989
18.049279
18.129011
18.214855
18.307592
18.40819
18.51786
18.638055
18.770493
18.916917
19.078707
19.256383
19.449527
19.66054
19.912609
20.335626
21.858356
32.971967
17.285083
17.324127
17.365144
17.408274
17.453681
17.501551
17.552101
17.605577
17.662263
17.722471
17.786561
17.854948
17.928122
18.006648
18.091168
18.182462
18.281484
18.389395
18.507601
18.637746
18.781397
18.939808
19.113258
19.301233
19.506589
19.754235
20.180988
21.764509
33.129941
17.387418
17.43726
17.489991
17.545878
17.605216
17.668359
17.735719
17.807778
17.885084
17.968265
18.058088
18.155487
18.2616
18.377784
18.5056
18.646505
18.801522
18.970716
19.153503
19.35329
19.596826
20.028598
21.678606
33.324098
17.488764
17.550955
17.617286
17.688225
17.764301
17.846135
17.93448
18.030251
18.134561
18.248712
18.374166
18.512267
18.663822
18.8287
19.006315
19.200616
19.440454
19.878798
21.602302
33.607852
17.644276
17.724737
17.811585
17.905719
18.008219
18.120326
18.243417
18.378691
18.526753
18.687257
18.859665
19.048593
19.285167
19.732001
21.549506
33.920158
17.781916
17.882551
17.992569
18.113261
18.245667
18.390188
18.546282
18.713525
18.897262
19.131088
19.588634
21.509765
34.206614
17.983791
18.113217
18.25406
18.405663
18.567753
18.746508
18.978174
19.448827
21.482049
34.511519
18.265505
18.422407
18.596342
18.826413
19.312496
21.468523
34.863745
18.446836
18.675897
19.179947
21.469144
35.230627
21.464151
35.597833
)
;

boundaryField
{
    Side
    {
        type            empty;
    }
    Inlet
    {
        type            fixedValue;
        value           uniform 60.24606;
    }
    Airfoil
    {
        type            omegaWallFunction;
        blending        binomial;
        n               2;
        value           nonuniform List<scalar> 0();
    }
    Outlet
    {
        type            inletOutlet;
        inletValue      nonuniform List<scalar> 0();
        value           nonuniform List<scalar> 0();
    }
    procBoundary5to4
    {
        type            processor;
        value           nonuniform List<scalar> 
64
(
38.536775
34.005266
30.253137
27.064701
27.064701
25.21391
23.923261
23.02364
22.401971
21.759475
21.759475
21.502037
21.343197
21.253297
21.210184
21.195741
21.033399
21.033399
21.049411
21.076802
21.109932
20.995351
20.995351
21.037069
21.081976
21.129931
21.031717
21.031717
21.086014
21.143638
21.204856
21.122353
21.122353
21.191753
21.265919
21.198845
21.198845
21.284186
21.376293
21.329985
21.329985
21.438091
21.410223
21.410223
21.538954
21.680775
21.690256
21.690256
21.86405
21.909264
21.909264
22.128187
22.224142
22.224142
22.350201
22.350201
22.668191
22.864435
22.864435
23.152251
23.152251
23.992534
23.992534
31.039563
)
;
    }
    procBoundary5to6
    {
        type            processor;
        value           nonuniform List<scalar> 
61
(
26.714437
24.169609
21.683599
19.961055
18.862658
18.862658
18.023695
17.636609
17.420729
17.310846
17.262512
17.262512
17.133512
17.132579
17.148153
17.171897
17.197956
17.197956
17.116563
17.146775
17.17877
17.212475
17.247894
17.247894
17.17403
17.212522
17.252954
17.295468
17.340227
17.340227
17.274241
17.323342
17.375282
17.430324
17.430324
17.373227
17.434435
17.499695
17.569466
17.569466
17.525136
17.604186
17.689481
17.689481
17.658959
17.757698
17.865578
17.865578
17.855024
17.981404
18.118476
18.118476
18.125769
18.277518
18.277518
18.297949
18.526692
19.051042
19.051042
21.477871
35.981782
)
;
    }
    procBoundary5to12
    {
        type            processor;
        value           nonuniform List<scalar> 
30
(
40.798459
40.035017
39.305102
38.606804
37.935744
37.285868
36.653099
36.037562
35.442433
34.87174
34.328327
33.811084
33.314155
32.829197
32.348677
31.868088
31.387195
30.909872
30.442703
29.993268
29.567679
29.168544
28.795202
28.443895
28.107729
27.778257
27.448698
27.115632
41.405614
41.405614
)
;
    }
}


// ************************************************************************* //
