/*--------------------------------*- C++ -*----------------------------------*\
| =========                 |                                                 |
| \\      /  F ield         | OpenFOAM: The Open Source CFD Toolbox           |
|  \\    /   O peration     | Version:  2506                                  |
|   \\  /    A nd           | Website:  www.openfoam.com                      |
|    \\/     M anipulation  |                                                 |
\*---------------------------------------------------------------------------*/
FoamFile
{
    version     2.0;
    format      ascii;
    arch        "LSB;label=32;scalar=64";
    class       volVectorField;
    location    "2.8";
    object      U;
}
// * * * * * * * * * * * * * * * * * * * * * * * * * * * * * * * * * * * * * //

dimensions      [0 1 -1 0 0 0 0];

internalField   nonuniform List<vector> 
19257
(
(94.216091 0.26983447 -3.5524781e-17)
(94.229776 0.054094545 1.3698544e-21)
(94.257305 0.02207621 6.4024996e-17)
(94.258193 0.037163896 -9.380362e-18)
(94.271258 0.060008146 4.8812815e-17)
(94.283133 0.046351567 1.1240104e-22)
(94.290867 0.031641661 -5.1502993e-17)
(94.298791 0.064761161 8.4537535e-18)
(94.318979 0.092775717 3.9987476e-17)
(94.323372 0.10263417 -1.1524842e-17)
(94.329653 0.08864311 6.0471266e-17)
(94.345579 0.11593876 5.4996724e-17)
(94.36705 0.12127422 7.2960441e-17)
(94.384877 0.17032199 0)
(94.395677 0.14843482 0)
(94.414095 0.22373707 5.6581419e-17)
(94.439529 0.27273565 5.7476969e-17)
(94.460655 0.30015754 -2.8473221e-17)
(94.489604 0.37312606 4.4024036e-17)
(94.515565 0.43910247 0)
(94.544181 0.53033746 5.8920907e-17)
(94.581005 0.58675683 -3.403146e-17)
(94.628946 0.66840349 0)
(94.674097 0.76860332 5.686642e-17)
(94.703587 0.96263817 3.9324027e-17)
(94.746287 1.0896263 0)
(94.787486 1.29272 2.6143265e-17)
(94.828302 1.4743142 4.0060499e-17)
(94.869453 1.7284267 1.1526217e-17)
(94.905626 1.9967901 0)
(94.932149 2.3044669 0)
(94.963576 2.6716686 8.7077508e-18)
(94.99115 3.0320199 -9.984367e-18)
(95.003042 3.491623 4.5534604e-17)
(94.975892 4.0082642 0)
(94.942164 4.6202477 0)
(94.91386 5.3389683 3.3909985e-17)
(94.914893 5.7247367 -7.7367259e-17)
(94.827403 6.8019969 -3.2840637e-17)
(94.884434 7.3800048 3.7721346e-17)
(94.832055 8.9182217 -7.1537894e-17)
(94.703794 11.382243 3.2476842e-17)
(95.130228 13.65955 -1.9142962e-17)
(96.335859 5.132906 0)
(95.513544 16.601504 0)
(96.733738 12.484093 -1.3360809e-17)
(97.560611 25.530747 1.5512859e-17)
(102.91589 6.6253226 -1.7744004e-17)
(100.57252 36.053122 -1.5989177e-17)
(94.211904 -0.03634528 5.6925193e-22)
(94.233001 0.030347649 3.7136511e-17)
(94.26009 0.025303621 5.8169848e-17)
(94.259865 0.039982722 0)
(94.265463 0.053271957 7.8666246e-17)
(94.279275 0.12069354 0)
(94.286755 0.088006915 -6.7040505e-18)
(94.299565 0.073998928 1.5513935e-17)
(94.308256 0.031705545 -9.0664551e-18)
(94.320708 0.061184023 -3.1784866e-17)
(94.320089 0.098755052 -1.486501e-22)
(94.340714 0.13775246 -1.4366086e-17)
(94.350725 0.13159561 -6.6598065e-17)
(94.363571 0.16151094 -9.6722539e-18)
(94.373138 0.21432821 1.1249068e-17)
(94.400519 0.2215217 -3.9454863e-17)
(94.416037 0.20737387 -1.5253577e-17)
(94.433846 0.35245842 8.856195e-18)
(94.461417 0.37815048 -6.1776388e-17)
(94.484516 0.4409779 1.1977726e-17)
(94.50558 0.53165722 -5.5580037e-17)
(94.533799 0.61258619 0)
(94.579842 0.75988872 -9.3766469e-18)
(94.609056 0.85552453 -3.2577598e-17)
(94.634404 0.9831164 -5.0328074e-17)
(94.665361 1.1169617 0)
(94.694914 1.3021442 0)
(94.713643 1.5108501 -3.9067384e-17)
(94.739864 1.7412159 0)
(94.751617 2.047393 0)
(94.75857 2.3386285 6.8007576e-17)
(94.762268 2.6827465 -7.8787476e-17)
(94.750082 3.0932236 -4.0196722e-17)
(94.729532 3.5717591 -3.4459128e-17)
(94.681649 4.0424638 -2.6584876e-17)
(94.579436 4.6033929 1.5377213e-17)
(94.482722 5.3734233 -2.6668982e-17)
(94.361146 6.3619763 7.1443707e-17)
(94.195381 7.0952344 -1.1750365e-17)
(94.0334 8.537266 -2.704867e-17)
(93.917926 9.296228 -1.8113774e-20)
(93.773969 10.879403 -1.7622535e-17)
(93.508094 12.577174 -2.9945069e-17)
(91.519971 25.830984 4.6422275e-17)
(92.776943 18.912124 -1.3085238e-17)
(91.309631 29.883055 -1.5410924e-17)
(94.500448 26.899848 -1.7483753e-17)
(93.713583 36.345766 1.9868529e-17)
(98.370424 38.085884 1.090358e-17)
(94.186169 0.24586642 -7.7266379e-17)
(94.232404 0.085309344 4.4943405e-17)
(94.265341 0.043063647 -3.947314e-17)
(94.261752 0.04313575 4.602924e-17)
(94.262528 0.055881308 -8.9633057e-18)
(94.274782 0.053905649 5.2352312e-17)
(94.280382 0.091965257 0)
(94.292062 0.088564389 -1.4222445e-17)
(94.297252 0.11372255 8.2720036e-18)
(94.307722 0.095951904 4.8250259e-17)
(94.310866 0.11387398 3.3813359e-17)
(94.32178 0.12836181 -2.6191175e-17)
(94.332276 0.15250142 6.1108248e-17)
(94.345284 0.15763169 -1.7828824e-17)
(94.35605 0.23472986 -4.1606213e-17)
(94.376751 0.2560706 3.6342124e-17)
(94.388638 0.30997058 -4.2349972e-17)
(94.405843 0.27210718 -6.5737418e-17)
(94.427886 0.36722218 -7.6625365e-17)
(94.447922 0.43262124 -3.351285e-17)
(94.46204 0.52425949 7.7984314e-17)
(94.485884 0.63266396 1.5134766e-17)
(94.522724 0.68981573 -7.0609169e-17)
(94.540039 0.80860549 9.2368427e-17)
(94.562205 0.94843088 3.5858145e-17)
(94.577053 1.1125756 0)
(94.594443 1.2984838 0)
(94.601149 1.5197139 0)
(94.608691 1.7082554 1.0890462e-17)
(94.601225 2.0506487 2.8702305e-22)
(94.589794 2.292515 -7.3337372e-17)
(94.561845 2.6296439 8.5310611e-18)
(94.523732 3.027095 2.9854424e-17)
(94.47518 3.4294543 4.6261525e-17)
(94.394228 3.99943 1.3432113e-17)
(94.247946 4.5371297 -1.5607065e-17)
(94.079914 5.2313006 -7.275198e-17)
(93.911324 5.8896418 -4.2227867e-17)
(93.68537 6.8817454 4.9127793e-17)
(93.42483 7.6105957 5.6956909e-17)
(93.188569 9.1595192 0)
(92.964649 10.30379 6.7034574e-17)
(92.476245 11.711025 1.0886644e-17)
(93.006491 8.2263538 -5.0188762e-17)
(91.850283 14.807769 7.3624028e-17)
(92.562338 14.759529 -2.5702214e-20)
(91.97401 23.924459 2.9794107e-17)
(92.964797 22.238809 -1.134937e-17)
(92.176779 50.190711 -1.3722435e-17)
(94.174193 0.16366354 3.5122662e-17)
(94.235802 0.076736967 -6.1516348e-17)
(94.270348 0.032608275 0)
(94.261182 0.032230827 -6.9943533e-17)
(94.260486 0.070073209 -4.9057539e-17)
(94.266883 0.060769607 2.8579373e-17)
(94.272365 0.087616811 1.1128324e-17)
(94.280189 0.092561341 0)
(94.288781 0.09712602 6.0570442e-17)
(94.296754 0.12515337 -1.7663011e-17)
(94.301569 0.13792761 -1.0320685e-17)
(94.303789 0.11902522 -1.2005965e-17)
(94.317472 0.17070378 -7.0206372e-17)
(94.329868 0.18850134 1.6417699e-17)
(94.338436 0.21594991 1.149365e-16)
(94.347298 0.26199527 0)
(94.360239 0.29239862 0)
(94.375127 0.37528795 4.5643393e-17)
(94.394451 0.43034819 8.8914393e-17)
(94.406901 0.46339341 4.1511385e-17)
(94.415561 0.54220563 -8.4685503e-17)
(94.433561 0.61501596 -1.4124204e-17)
(94.452027 0.74253817 6.5944034e-17)
(94.470242 0.88198636 -4.8202472e-17)
(94.485414 0.96657361 -3.387123e-17)
(94.486642 1.1328892 0)
(94.491721 1.3194337 1.5264451e-17)
(94.48742 1.5295121 7.5013817e-23)
(94.476723 1.7289663 -2.0816448e-17)
(94.454282 1.9699388 -1.2182973e-17)
(94.415154 2.3080922 5.6955219e-17)
(94.360518 2.6525231 8.3241734e-17)
(94.29777 3.0267537 -7.7877415e-17)
(94.219246 3.4413181 0)
(94.109266 3.8849923 0)
(93.932095 4.5176953 0)
(93.707496 5.0986972 8.2170907e-17)
(93.457842 5.9827365 4.2876638e-17)
(93.175345 6.8537212 -6.2679243e-17)
(92.800112 7.7000343 4.4059489e-20)
(92.448714 8.9084028 0)
(91.972972 10.412092 -4.0261956e-17)
(91.398632 11.942154 4.7643861e-17)
(89.859177 19.57031 0)
(89.612103 18.628684 -6.6013691e-17)
(88.166328 24.329466 8.6611719e-17)
(88.460405 26.066775 -9.0542072e-17)
(89.025533 25.739527 -5.4339345e-17)
(92.575774 41.043182 4.5556128e-17)
(94.17169 0.16939476 4.8017542e-17)
(94.230344 0.093291042 1.8765036e-17)
(94.271935 0.038868375 -2.1865785e-17)
(94.25864 0.038805791 -1.2763946e-17)
(94.256181 0.067842109 -1.4890646e-17)
(94.25727 0.067288942 -6.9523276e-17)
(94.263453 0.067257765 0)
(94.270877 0.083583709 -4.750557e-17)
(94.282884 0.10367651 -5.5577933e-17)
(94.287828 0.099418093 1.6219558e-17)
(94.289315 0.11708121 7.5670269e-17)
(94.291279 0.16356964 -6.6228105e-17)
(94.30411 0.17615171 1.2912514e-17)
(94.311747 0.18385582 -4.4895444e-23)
(94.315177 0.2039736 -1.5850061e-16)
(94.320157 0.24428428 0)
(94.330871 0.30146679 -1.2015227e-17)
(94.345462 0.34220744 2.8151435e-17)
(94.358574 0.41156087 -1.6471532e-17)
(94.364699 0.47707943 0)
(94.368473 0.53188937 3.3721091e-17)
(94.375266 0.62447423 2.6334207e-23)
(94.383309 0.73048613 1.5364898e-17)
(94.401615 0.827707 9.0234116e-17)
(94.404942 0.97393926 -4.215265e-17)
(94.396842 1.112474 2.4591357e-17)
(94.385846 1.2743968 -5.7794984e-17)
(94.369334 1.4771676 -1.6917878e-17)
(94.341946 1.7128915 -7.6548823e-22)
(94.301717 1.9827877 2.3241735e-17)
(94.241572 2.2509055 -5.4504287e-17)
(94.162849 2.5777695 0)
(94.071171 2.9339483 1.5037467e-16)
(93.967331 3.3608294 0)
(93.826863 3.8088361 0)
(93.627224 4.3673521 -6.1261783e-17)
(93.343776 5.0016397 1.8054396e-17)
(93.049423 5.6657193 -6.4051244e-17)
(92.697355 6.3480417 5.0415074e-17)
(92.240744 7.6826149 -5.9776648e-17)
(91.76228 8.5928567 5.3003909e-17)
(91.190358 9.8232416 2.0976322e-17)
(90.34816 12.271241 0)
(90.136034 9.5006443 0)
(88.697508 14.36187 0)
(87.762487 17.12883 -8.6226685e-17)
(86.346268 23.246041 1.0282498e-16)
(83.337467 33.867862 6.1907491e-17)
(84.917413 49.421553 9.6535302e-18)
(94.169734 0.16837927 4.3876296e-17)
(94.22647 0.11591333 1.7193038e-17)
(94.270527 0.051161736 8.0353936e-17)
(94.259457 0.051148713 0)
(94.253231 0.057112456 0)
(94.249276 0.078766764 0)
(94.253764 0.082679021 0)
(94.262918 0.1037625 8.7205418e-17)
(94.275433 0.11260937 2.5512963e-17)
(94.280318 0.11872059 2.9864724e-17)
(94.280372 0.14242974 -6.9661679e-17)
(94.281901 0.17339492 4.0618269e-17)
(94.286214 0.17790109 0)
(94.291207 0.2008849 -1.3895723e-17)
(94.293431 0.23146015 8.1295932e-17)
(94.295078 0.24268773 5.6924353e-17)
(94.301708 0.30013458 2.2177832e-17)
(94.312528 0.3522636 -5.2041941e-17)
(94.318819 0.42568787 -4.5728517e-17)
(94.323563 0.46886784 -1.7788397e-17)
(94.322416 0.54847704 -6.2270531e-17)
(94.318602 0.61842071 2.4297612e-17)
(94.319865 0.76053987 0)
(94.328175 0.84913511 -6.6813162e-17)
(94.322476 0.95784634 -7.8324243e-17)
(94.301773 1.1050591 -2.3046665e-17)
(94.274429 1.2874668 1.4923343e-16)
(94.245197 1.4894907 4.7815801e-17)
(94.203404 1.6919321 1.8716901e-17)
(94.14773 1.9283725 -6.6034536e-17)
(94.067814 2.2216761 -5.178918e-17)
(93.9641 2.5420485 6.1019622e-17)
(93.844787 2.8977767 -8.9954537e-17)
(93.713648 3.2743487 -6.3766159e-17)
(93.548233 3.7323367 0)
(93.323125 4.242755 1.1895688e-16)
(93.002581 4.8566239 0)
(92.634365 5.6291585 0)
(92.216854 6.5208199 -5.0024182e-17)
(91.749132 7.1806171 1.4931973e-17)
(91.126668 8.3094917 -1.0683071e-16)
(90.385705 9.995063 -5.348983e-17)
(89.631012 10.55505 1.5164502e-20)
(87.984423 15.707268 -1.5410648e-17)
(86.839518 17.080426 0)
(84.581335 23.109891 -9.2786631e-17)
(83.632554 23.586846 -1.423538e-17)
(83.139304 25.312053 2.6455974e-17)
(82.688769 43.518541 -9.8478656e-18)
(94.171121 0.17244229 5.7117757e-23)
(94.222743 0.11500793 1.5794876e-17)
(94.266698 0.042781755 -5.5279491e-17)
(94.261621 0.051213197 0)
(94.252024 0.06209761 2.5195098e-17)
(94.243569 0.065259862 -2.9324844e-17)
(94.244909 0.077899492 0)
(94.252756 0.087933416 -2.0034815e-17)
(94.263971 0.11033909 -7.0356929e-17)
(94.270902 0.11843596 0)
(94.270677 0.13184514 -4.7971469e-17)
(94.268044 0.11804389 -3.7438237e-17)
(94.265644 0.17685486 -2.1872551e-17)
(94.27093 0.2096121 0)
(94.274641 0.24740165 -1.4987296e-17)
(94.272502 0.25609616 -6.9919935e-17)
(94.273291 0.29532752 8.1946973e-17)
(94.275149 0.32934746 -1.3780441e-21)
(94.278044 0.41650955 8.4558854e-17)
(94.282344 0.47292878 0)
(94.277378 0.52922892 3.8599413e-17)
(94.264712 0.60948566 0)
(94.25469 0.71490097 0)
(94.24909 0.83388478 1.5660632e-17)
(94.235154 0.95616154 5.4969226e-17)
(94.202478 1.0929021 0)
(94.162371 1.2487593 -7.6240236e-17)
(94.11846 1.4271668 -8.9742109e-17)
(94.062453 1.6431213 -7.0453203e-17)
(93.991366 1.8878002 4.1509578e-17)
(93.89444 2.150178 -1.0644164e-20)
(93.767612 2.4542936 -4.3376914e-17)
(93.622306 2.7938777 2.5862736e-21)
(93.461305 3.1603015 8.1128095e-17)
(93.271569 3.5994415 4.8181655e-17)
(93.021243 4.0760346 -2.860148e-17)
(92.676803 4.6808334 6.8286916e-17)
(92.253767 5.2439464 -8.1587233e-17)
(91.790522 6.0245143 -1.2237327e-17)
(91.225908 6.9415087 1.4679539e-17)
(90.529956 8.1100903 -1.7719275e-17)
(89.757179 8.7465775 1.0685529e-16)
(88.615954 11.338064 1.3034483e-17)
(87.597963 11.238746 4.7895064e-17)
(85.966814 14.448034 -9.8385231e-18)
(84.753332 13.817314 2.0608428e-16)
(82.070134 19.417867 -1.2193052e-16)
(77.482261 32.134673 0)
(76.0203 45.938926 6.2459438e-19)
(94.162389 0.17471944 -4.9793482e-17)
(94.215006 0.089687597 -5.8251e-17)
(94.260278 0.03332516 0)
(94.258158 0.044882719 -1.9841256e-17)
(94.248494 0.074575838 -2.3207647e-17)
(94.2401 0.049102394 5.4312391e-17)
(94.236804 0.085251651 0)
(94.240359 0.089938744 3.2643256e-22)
(94.248568 0.13670796 -7.7978379e-22)
(94.254904 0.14268276 5.0583274e-17)
(94.254205 0.13620763 5.9027916e-17)
(94.248624 0.14518161 3.4596996e-17)
(94.245942 0.16300894 0)
(94.249677 0.17834081 -2.3686395e-17)
(94.253389 0.22973561 1.7561928e-22)
(94.249174 0.2486009 3.2463924e-17)
(94.243111 0.28459646 -1.9062369e-17)
(94.237732 0.3479656 2.2393945e-17)
(94.236395 0.40721733 7.888456e-17)
(94.235654 0.46805262 -6.1366519e-17)
(94.225661 0.53758605 1.7943294e-17)
(94.206036 0.60735684 2.1128833e-17)
(94.184568 0.69431872 2.485847e-17)
(94.166 0.80580177 -2.9207006e-17)
(94.14204 0.9262458 1.7146236e-17)
(94.102235 1.0671492 2.0178361e-17)
(94.049983 1.22381 0)
(93.989655 1.4088189 5.6087856e-17)
(93.918529 1.6060419 1.323695e-16)
(93.832371 1.8238813 1.9539265e-17)
(93.72042 2.0810826 2.3087901e-17)
(93.573366 2.3712212 -2.7342625e-17)
(93.401357 2.7000086 -3.2449201e-17)
(93.211102 3.0623031 0)
(92.993945 3.442578 -6.8870175e-17)
(92.719952 3.920073 -2.7392176e-17)
(92.354467 4.4723172 -1.637391e-17)
(91.879438 5.1145992 1.1804123e-16)
(91.345374 5.8498178 -3.5555666e-17)
(90.721658 6.7194635 7.1687154e-17)
(89.99587 7.4858874 1.7425322e-17)
(89.020781 9.1624373 -3.1857241e-17)
(88.009295 9.5718605 -9.1400754e-17)
(86.378411 13.100035 7.6538989e-20)
(84.590158 14.499057 -8.0169389e-17)
(81.30795 21.752958 -1.1431638e-16)
(78.536901 24.140254 1.5972548e-17)
(76.138119 26.957674 1.0547715e-17)
(71.959921 42.830782 -1.2796581e-17)
(94.142753 0.18945899 4.6104412e-17)
(94.203932 0.15839617 5.3964043e-17)
(94.256387 0.056826539 3.1434513e-17)
(94.251051 0.043551307 0)
(94.242026 0.10226369 2.1492745e-17)
(94.236829 0.038521662 -2.5175164e-17)
(94.228942 0.070403577 -5.8698664e-17)
(94.230661 0.085887857 3.7148983e-22)
(94.236288 0.089734656 -2.0100859e-17)
(94.239094 0.12493491 2.3489242e-17)
(94.23801 0.16233017 0)
(94.231623 0.17029612 0)
(94.226816 0.19156533 0)
(94.226234 0.21961663 0)
(94.227535 0.23169232 -2.5700283e-17)
(94.222018 0.27241647 -6.0308517e-17)
(94.210712 0.29420393 3.5432409e-17)
(94.199604 0.32915894 -2.0800859e-17)
(94.190796 0.38968396 -7.3193504e-17)
(94.182006 0.43728916 0)
(94.166816 0.49882259 -1.0059517e-16)
(94.142331 0.58120133 1.9704074e-17)
(94.111778 0.68452507 2.3183947e-17)
(94.08086 0.78627335 0)
(94.047429 0.9002891 0)
(94.000818 1.0298641 -7.5574294e-17)
(93.937223 1.1784101 -4.4568872e-17)
(93.861371 1.3389894 0)
(93.774086 1.5262314 -6.2177754e-17)
(93.672021 1.741424 0)
(93.545782 1.9866224 6.530733e-17)
(93.381621 2.2569947 2.5820315e-17)
(93.184775 2.5647927 4.6013107e-17)
(92.966809 2.8975139 7.3126954e-17)
(92.719017 3.2831962 2.1824845e-17)
(92.423185 3.7220692 0)
(92.037748 4.2193895 -6.2703872e-17)
(91.533204 4.840122 0)
(90.943209 5.4751448 9.1473782e-17)
(90.265389 6.2044132 3.5787539e-20)
(89.439609 7.3965782 -8.4962264e-17)
(88.483494 8.1691431 2.0862559e-17)
(87.155813 9.9553347 -9.7656261e-20)
(85.749076 10.64474 -8.056726e-17)
(83.5133 13.723387 1.0147505e-16)
(81.693656 12.797462 1.0473218e-16)
(78.33225 17.123565 1.3665629e-16)
(73.472641 25.82352 1.836734e-16)
(67.206152 41.105614 -6.8748457e-18)
(94.125964 0.17740308 -2.1480093e-17)
(94.191656 0.075970438 -2.513816e-17)
(94.255662 0.047580486 -5.8519911e-17)
(94.246741 0.038368058 0)
(94.23748 0.11508557 0)
(94.232265 0.045182179 0)
(94.222634 0.05838933 5.4872452e-17)
(94.221523 0.080305875 3.2061249e-17)
(94.225247 0.10808722 -3.7467895e-17)
(94.22661 0.12481283 8.6628358e-22)
(94.225709 0.13529548 -2.5573864e-17)
(94.218605 0.15810619 -5.9958297e-17)
(94.209101 0.16244763 -4.8956139e-22)
(94.202344 0.18065879 4.1225686e-17)
(94.198798 0.2073517 -2.411157e-17)
(94.191219 0.23034553 -2.5737499e-21)
(94.176891 0.27537218 3.3089046e-17)
(94.161587 0.32338347 -3.8846416e-17)
(94.144689 0.37918245 -2.3521909e-21)
(94.127037 0.44664531 0)
(94.107537 0.51103688 1.2564746e-16)
(94.079861 0.57664367 -3.6900946e-17)
(94.041631 0.65601482 4.3411112e-17)
(93.998035 0.75266088 5.1137167e-17)
(93.953241 0.85845762 -6.0234764e-17)
(93.898121 0.97861302 3.5473523e-17)
(93.824991 1.1158029 4.1854141e-17)
(93.734856 1.2775704 -4.9465845e-17)
(93.630391 1.4586542 0)
(93.511881 1.6576522 0)
(93.371693 1.87904 -4.1073035e-17)
(93.192987 2.1350478 -4.8764734e-17)
(92.973783 2.4187642 0)
(92.727264 2.7451721 -6.9284838e-17)
(92.45217 3.0960046 -8.2946326e-17)
(92.13006 3.4768521 0)
(91.725691 3.9690305 0)
(91.201186 4.4862463 1.8088566e-17)
(90.558903 5.1578741 -1.0970386e-16)
(89.811693 5.9207848 -1.0708081e-16)
(88.957019 6.4935614 1.6380322e-17)
(87.874004 7.8105907 6.0928445e-17)
(86.540287 8.8010807 8.8382215e-17)
(84.781462 10.772279 1.586486e-17)
(82.662276 12.172456 0)
(79.194405 17.64032 -1.053804e-16)
(75.215856 21.610986 0)
(69.816834 27.591146 6.1084077e-19)
(62.155425 39.938057 -1.3253066e-16)
(94.106986 0.18306049 4.0230513e-17)
(94.180977 0.15272566 0)
(94.258592 0.067661166 5.494126e-17)
(94.247814 0.051071726 3.2150236e-17)
(94.236108 0.13366856 -3.7629767e-17)
(94.227553 0.065268246 0)
(94.217314 0.042562226 0)
(94.211355 0.082623347 -5.9988916e-17)
(94.213513 0.086447368 0)
(94.213021 0.11023701 1.1510022e-22)
(94.212077 0.14134291 -4.8013661e-17)
(94.204935 0.16005446 2.8096856e-17)
(94.192528 0.18414465 3.2964233e-17)
(94.180961 0.20652669 -3.8644587e-17)
(94.171269 0.2358973 4.5262347e-17)
(94.160701 0.26362536 5.2995248e-17)
(94.144207 0.28116413 3.1065246e-17)
(94.125321 0.3108098 -7.2926618e-17)
(94.102341 0.36123304 4.2790554e-17)
(94.076861 0.41464546 0)
(94.050927 0.47343593 -2.9535679e-17)
(94.019046 0.54011121 1.5162757e-21)
(93.974149 0.61693931 3.650888e-21)
(93.919325 0.70489868 -9.6197939e-17)
(93.861876 0.80637102 5.6704513e-17)
(93.796631 0.92309991 -6.6861502e-17)
(93.714895 1.0527794 0)
(93.613141 1.1949682 4.6640794e-17)
(93.492491 1.3571555 -2.761523e-17)
(93.356457 1.5434467 3.2749297e-17)
(93.201254 1.7527749 0)
(93.009686 1.9884406 0)
(92.771512 2.2538595 5.502096e-17)
(92.49888 2.5366648 -6.5764121e-17)
(92.196044 2.8725597 7.8814721e-17)
(91.844791 3.2517011 -2.3685279e-17)
(91.420457 3.6808079 5.7139442e-17)
(90.876071 4.184552 1.730094e-17)
(90.1995 4.7154587 2.1023325e-17)
(89.400624 5.4504092 5.1492276e-17)
(88.443627 6.2673909 6.3340503e-17)
(87.328399 7.0355233 -7.8686236e-17)
(85.882082 8.565468 0)
(84.082803 9.4445057 0)
(81.606372 12.380236 0)
(78.90036 11.949954 -1.3293652e-17)
(74.920419 15.263148 1.6255237e-16)
(69.75737 18.633976 -4.1011247e-16)
(60.025651 34.162488 -4.6803696e-18)
(94.083133 0.1773017 -7.5733036e-17)
(94.166619 0.10680281 7.9671374e-21)
(94.256451 -0.018108343 3.4353353e-21)
(94.24775 -0.022987778 -6.0517558e-17)
(94.23469 0.041967501 3.5432628e-17)
(94.221545 0.10174281 4.1419105e-17)
(94.211288 0.033827949 -4.8457192e-17)
(94.201903 0.06927318 5.6715175e-17)
(94.201165 0.080941319 0)
(94.198534 0.099128092 0)
(94.195075 0.11558311 4.5261482e-17)
(94.18705 0.14277386 -2.6488912e-17)
(94.174062 0.16134476 -3.1058319e-17)
(94.159834 0.17781131 3.6416061e-17)
(94.14595 0.1971788 1.1856989e-21)
(94.132243 0.22759705 0)
(94.113015 0.26404582 0)
(94.09037 0.2994271 -3.4405649e-17)
(94.062316 0.33496741 4.0381635e-17)
(94.029043 0.38019951 -2.3726614e-17)
(93.995367 0.43431198 5.5796462e-17)
(93.958231 0.4971724 6.5579468e-17)
(93.908049 0.57188075 -3.8567385e-17)
(93.844149 0.65774412 -2.2728239e-17)
(93.774867 0.75325356 1.0724645e-16)
(93.699303 0.85739773 3.1629645e-17)
(93.609189 0.9739655 4.2958197e-21)
(93.497642 1.1067753 2.2086729e-17)
(93.362757 1.257502 2.6158551e-17)
(93.208752 1.4266132 -6.2075706e-17)
(93.037624 1.6137051 -3.688066e-17)
(92.833862 1.8230712 4.385189e-17)
(92.580398 2.0621609 -1.045738e-16)
(92.283694 2.3346887 6.2539e-17)
(91.953984 2.6201688 1.8774909e-17)
(91.576965 2.9715931 4.5187754e-17)
(91.129286 3.3353889 -1.0912171e-16)
(90.568706 3.8299549 -9.9268543e-17)
(89.863876 4.3509791 0)
(89.025143 4.877446 0)
(88.015285 5.675745 0)
(86.806259 6.5470701 -1.9072846e-17)
(85.350898 7.3452023 -7.2074231e-17)
(83.362933 9.1251534 -1.5342752e-17)
(81.001007 9.7569815 2.9815024e-17)
(77.307638 14.100012 7.9595e-17)
(72.590843 17.229469 9.2413329e-18)
(64.197962 26.6304 2.265792e-16)
(54.967251 33.863075 -2.5408529e-18)
(94.054668 0.17696157 0)
(94.149075 0.13296734 4.200166e-17)
(94.250949 0.071332505 -3.4919508e-21)
(94.241099 0.060786094 2.8599597e-17)
(94.224181 0.045074196 0)
(94.209614 0.13094074 0)
(94.198919 0.042045207 0)
(94.195043 0.063322443 1.0633084e-22)
(94.191797 0.084065095 3.1384154e-17)
(94.185812 0.093996658 -7.3356384e-17)
(94.178136 0.11357966 -4.2927205e-17)
(94.167314 0.13650879 1.0048585e-16)
(94.152672 0.15927581 0)
(94.136433 0.17522746 3.4506741e-17)
(94.118894 0.19148359 -4.0456693e-17)
(94.102064 0.21216924 0)
(94.081243 0.23767692 5.5618026e-17)
(94.055214 0.26904679 3.2635983e-17)
(94.022992 0.31005841 -3.8317835e-17)
(93.982911 0.3575427 -9.0057797e-17)
(93.940789 0.40779186 6.3568118e-22)
(93.897434 0.4634315 0)
(93.843254 0.52650959 -7.3274059e-17)
(93.772917 0.59866295 4.3170179e-17)
(93.693078 0.67918128 5.2891956e-21)
(93.606916 0.77147419 3.0075096e-17)
(93.508316 0.87683431 4.7791371e-21)
(93.388283 0.99522489 2.10122e-17)
(93.241817 1.1299147 -4.9791938e-17)
(93.071602 1.2804849 5.9114748e-17)
(92.88389 1.4496939 8.2266476e-21)
(92.667969 1.638395 -6.2739365e-17)
(92.402299 1.853652 7.4825924e-17)
(92.086188 2.0861267 2.9864714e-17)
(91.729891 2.3659475 -3.5869744e-17)
(91.327935 2.646503 -2.1622578e-17)
(90.854426 3.0226438 5.2250975e-17)
(90.279732 3.3979462 1.5856777e-17)
(89.559007 3.8747051 3.8777717e-17)
(88.674178 4.4037021 -2.3802147e-17)
(87.622588 5.0417249 -1.4766019e-17)
(86.357886 5.7108691 1.8423671e-17)
(84.784245 6.7504536 1.8623128e-16)
(82.803151 7.7182226 4.4801616e-17)
(80.074676 9.7403501 1.9425345e-17)
(76.736359 10.644914 -9.1669453e-17)
(71.769618 13.786895 -1.5559939e-16)
(65.621317 14.051097 -2.3103271e-16)
(53.909798 26.89231 1.739817e-16)
(94.025852 0.1646808 -6.8406265e-17)
(94.132995 0.10335499 4.0060677e-17)
(94.252882 0.022365361 -7.0059799e-17)
(94.238931 0.027368279 8.1868277e-17)
(94.2162 0.0047377321 0)
(94.201327 0.12161191 -3.7404813e-17)
(94.18671 0.067700162 0)
(94.18733 0.043835177 -2.5496917e-17)
(94.185369 0.054937501 2.9859287e-17)
(94.178476 0.075125235 3.499841e-17)
(94.167837 0.097246705 4.0991006e-17)
(94.153551 0.12268011 -4.7981769e-17)
(94.135375 0.1435691 0)
(94.115867 0.16169297 -6.5854492e-17)
(94.094425 0.18018945 7.7197466e-17)
(94.072878 0.20027883 -1.337456e-22)
(94.049255 0.22313251 -5.3088385e-17)
(94.020716 0.24835778 -9.3454369e-17)
(93.985822 0.27802595 1.097328e-16)
(93.940919 0.31316031 -2.8908632e-21)
(93.891064 0.35456886 5.0573759e-17)
(93.840463 0.40171268 2.975388e-17)
(93.781594 0.45708853 -5.444098e-22)
(93.706119 0.52257045 -4.1247154e-17)
(93.617528 0.59789387 -8.4346188e-22)
(93.520986 0.68290517 2.8754028e-17)
(93.41387 0.77680535 -6.7951829e-17)
(93.286259 0.88015822 -4.0186773e-17)
(93.130406 0.99666292 7.9300507e-21)
(92.947038 1.1299159 0)
(92.743557 1.2757391 0)
(92.515059 1.4421553 2.0045221e-17)
(92.23932 1.6239999 9.8346147e-21)
(91.907828 1.8371564 -5.7259389e-17)
(91.529679 2.0591161 -3.4423625e-17)
(91.101488 2.3410014 2.0765345e-17)
(90.605315 2.6256241 2.5126743e-17)
(90.009434 2.985479 -1.5286192e-17)
(89.276943 3.3832285 1.8672599e-17)
(88.366022 3.8972819 0)
(87.268619 4.3389536 -4.2759838e-17)
(85.937608 5.1013501 -1.7844402e-17)
(84.308453 5.8646335 -9.0504562e-17)
(82.218345 6.9538198 -7.2751517e-17)
(79.482169 8.0719661 1.9091275e-17)
(75.751655 9.9073386 -6.4524087e-18)
(70.485084 12.850958 -1.366655e-16)
(61.219001 20.541791 3.295018e-16)
(49.460011 26.659186 -1.8387214e-16)
(93.996166 0.15137964 4.223901e-21)
(94.114147 0.10107955 3.8456349e-17)
(94.255077 0.034749522 4.4902902e-17)
(94.244809 0.04181273 -7.8684712e-17)
(94.217674 0.0031644906 -3.0701435e-17)
(94.197584 0.069523274 3.5928032e-17)
(94.177915 0.13751591 6.3050912e-17)
(94.171618 0.039362485 -4.9076295e-17)
(94.173208 0.034972437 2.8618795e-17)
(94.168958 0.044401366 -3.3542646e-17)
(94.159267 0.068135508 -5.9029412e-17)
(94.144815 0.098374243 -2.3053519e-17)
(94.124598 0.12469041 -7.6048329e-22)
(94.101695 0.14399994 6.329125e-17)
(94.076758 0.15874994 -3.7091361e-17)
(94.05069 0.17357564 6.5243392e-17)
(94.022631 0.19289601 -5.1019252e-17)
(93.989922 0.21492867 -2.9937831e-17)
(93.951629 0.2409187 2.2325496e-21)
(93.903179 0.27185168 -2.0649707e-17)
(93.847367 0.30824469 -2.4299949e-17)
(93.789982 0.35072625 5.7201265e-17)
(93.726143 0.40004835 -6.7314168e-17)
(93.646172 0.45641598 -3.9653072e-17)
(93.550672 0.51882366 2.3401024e-17)
(93.444862 0.58824057 0)
(93.329804 0.66553851 -3.7607399e-21)
(93.195843 0.75187805 1.9336352e-17)
(93.032041 0.84988117 -6.8749881e-17)
(92.837931 0.96103504 2.7228274e-17)
(92.620452 1.0854163 0)
(92.379292 1.2221553 0)
(92.094282 1.3812123 0)
(91.751267 1.5529153 8.2807107e-17)
(91.35382 1.7547142 -3.3193846e-17)
(90.903906 1.9696237 -4.0072259e-17)
(90.384379 2.2344849 0)
(89.769354 2.5283073 -2.9537459e-17)
(89.020736 2.874558 0)
(88.099431 3.2101761 -2.227113e-17)
(86.959836 3.7649529 8.2887159e-17)
(85.585637 4.243166 -1.735482e-17)
(83.898694 4.9156662 1.0975499e-17)
(81.74723 5.7561847 2.8415396e-17)
(78.915741 6.8810019 -9.3187266e-18)
(75.011807 8.6692605 -6.3180002e-18)
(69.558764 10.269076 2.0683965e-16)
(61.441763 11.981137 -1.1451175e-16)
(48.862741 19.254895 4.4596719e-18)
(93.968713 0.12991805 0)
(94.097868 0.087096568 0)
(94.253298 0.024177245 -4.3461936e-17)
(94.245301 0.028414593 2.5347498e-17)
(94.217331 0.005107731 -1.483754e-17)
(94.194424 0.034246795 3.4757151e-17)
(94.174791 0.10401747 -2.0306585e-17)
(94.157686 0.060359939 2.3784186e-17)
(94.155131 0.042534797 -2.7836597e-17)
(94.151311 0.048215395 6.4946472e-17)
(94.144356 0.054101559 -5.7021784e-17)
(94.132688 0.067069746 8.9475076e-23)
(94.113715 0.088499005 -5.2210719e-17)
(94.090081 0.1102471 -1.5304499e-17)
(94.063211 0.12852455 3.5886489e-17)
(94.033629 0.14368289 -4.2080978e-17)
(94.001293 0.15897003 2.4681468e-17)
(93.964236 0.17610784 -1.2618721e-21)
(93.92217 0.19757437 -2.0465119e-21)
(93.870829 0.22328342 1.9978311e-17)
(93.810573 0.25270765 0)
(93.747588 0.28548616 -2.7672454e-17)
(93.679235 0.32307773 6.5140876e-17)
(93.595508 0.36696969 5.7556556e-17)
(93.494648 0.417175 5.1970625e-21)
(93.380936 0.47421315 -5.3519135e-17)
(93.258422 0.53811133 6.3304916e-17)
(93.119388 0.60926055 -1.8728486e-17)
(92.949533 0.6886797 2.2189261e-17)
(92.746591 0.77918257 -2.6361663e-17)
(92.517472 0.87875154 0)
(92.264173 0.99067449 -3.7419806e-17)
(91.970428 1.115433 0)
(91.61836 1.2586937 0)
(91.205809 1.4154789 0)
(90.736341 1.5961664 0)
(90.197981 1.8020363 0)
(89.564776 2.0392442 4.300664e-17)
(88.801859 2.3110259 -1.7537424e-17)
(87.862431 2.6531146 0)
(86.706545 2.9625936 0)
(85.287156 3.455953 -1.6885159e-17)
(83.545584 3.9655672 2.1422677e-17)
(81.336139 4.6795673 4.8512071e-17)
(78.420616 5.5797659 9.1396524e-18)
(74.486254 6.5073722 5.0041148e-17)
(68.65277 8.9454575 -7.1294983e-17)
(59.357145 12.340866 -3.456077e-18)
(45.80408 17.934326 -1.9261982e-16)
(93.943815 0.10398742 3.0906107e-17)
(94.083238 0.070979663 -3.6205384e-17)
(94.251706 0.019552205 2.115964e-17)
(94.245028 0.023297243 5.7237411e-22)
(94.217785 0.022608283 1.18492e-21)
(94.190782 -0.019359156 -3.3848122e-17)
(94.172018 0.11439946 -2.918657e-23)
(94.156151 0.049303709 2.3139119e-17)
(94.144175 0.026162847 1.354691e-17)
(94.136757 0.039946847 -1.5842513e-17)
(94.128721 0.045071828 -5.5551918e-17)
(94.11651 0.05381675 4.3351993e-17)
(94.098452 0.068727418 5.0826043e-17)
(94.076391 0.085077681 -2.9802946e-17)
(94.049987 0.098997967 -1.7472713e-17)
(94.018556 0.11136365 -2.0494093e-17)
(93.983025 0.12478942 1.2021749e-17)
(93.942703 0.13906527 4.2336346e-17)
(93.897808 0.1542068 0)
(93.844659 0.17102538 -1.9463452e-17)
(93.7815 0.19076571 0)
(93.714218 0.21462661 -2.6954486e-17)
(93.642115 0.2435625 1.5866043e-17)
(93.555561 0.27741863 0)
(93.45101 0.31555928 -2.2056186e-17)
(93.331224 0.35824523 3.910318e-17)
(93.20177 0.40587273 0)
(93.058092 0.45949629 0)
(92.88418 0.51950437 -2.1629465e-17)
(92.674998 0.58717077 -1.284679e-17)
(92.437242 0.66154932 3.0580297e-17)
(92.1739 0.74391343 1.8231159e-17)
(91.872306 0.83917974 -8.991749e-21)
(91.513368 0.94660086 1.3033478e-17)
(91.090028 1.065182 1.5684658e-17)
(90.60561 1.2024722 0)
(90.051611 1.3577118 0)
(89.403746 1.5386592 0)
(88.629516 1.7445806 0)
(87.679151 1.9752061 0)
(86.501265 2.2705961 0)
(85.058026 2.5748083 0)
(83.274834 3.0212283 3.1424473e-17)
(81.015806 3.4892874 -6.7770068e-17)
(78.035222 4.17945 8.9853459e-18)
(73.957114 5.1575693 -1.1019425e-16)
(68.094347 6.3137168 -7.4822975e-17)
(58.60056 8.4906208 -1.0315e-16)
(45.027111 12.124903 2.0098893e-16)
(93.923708 0.072845881 1.5158444e-17)
(94.070655 0.050695887 1.7753692e-17)
(94.251068 0.012894185 -2.0758706e-17)
(94.244605 0.013827451 0)
(94.215455 0.03364905 1.4171133e-17)
(94.185055 -0.062333766 -1.6610232e-17)