/*--------------------------------*- C++ -*----------------------------------*\
| =========                 |                                                 |
| \\      /  F ield         | OpenFOAM: The Open Source CFD Toolbox           |
|  \\    /   O peration     | Version:  2506                                  |
|   \\  /    A nd           | Website:  www.openfoam.com                      |
|    \\/     M anipulation  |                                                 |
\*---------------------------------------------------------------------------*/
FoamFile
{
    version     2.0;
    format      ascii;
    arch        "LSB;label=32;scalar=64";
    class       volScalarField;
    location    "4e-05";
    object      nut;
}
// * * * * * * * * * * * * * * * * * * * * * * * * * * * * * * * * * * * * * //

dimensions      [0 2 -1 0 0 0 0];

internalField   nonuniform List<scalar> 
13761
(
6.075171e-28
5.6061802e-33
2.8845757e-23
2.6097385e-23
1.0428286e-24
2.2929539e-10
2.0716277e-07
1.3566562e-06
4.2193421e-06
8.9644017e-06
1.4937441e-05
2.1189966e-05
2.6907969e-05
3.1860319e-05
3.5716386e-05
3.8580226e-05
4.058975e-05
4.2195156e-05
4.3606212e-05
4.508906e-05
4.706253e-05
4.936815e-05
5.2152393e-05
5.5286043e-05
5.8705415e-05
6.2325118e-05
6.6153537e-05
6.993084e-05
7.3770051e-05
7.790283e-05
8.2495057e-05
8.7569702e-05
9.3018933e-05
9.859436e-05
0.00010406536
0.00010899294
0.00011279479
0.00011496013
0.0001151033
0.00011306674
0.000107434
9.9150791e-05
8.8260276e-05
7.5855463e-05
6.2146059e-05
4.7528809e-05
3.2686877e-05
1.7706845e-05
5.0884485e-06
6.2324119e-07
8.6015848e-08
2.7067917e-08
1.1845726e-08
5.8476294e-09
3.7714135e-09
3.2202832e-09
3.0864063e-09
3.0463708e-09
3.0204609e-09
2.983804e-09
2.9078252e-09
2.8311861e-09
2.7673995e-09
2.6565421e-09
2.5399206e-09
2.5338403e-09
2.5368229e-09
2.498697e-09
2.4711253e-09
2.5340583e-09
2.8360584e-09
3.1314882e-09
3.1406406e-09
3.0383186e-09
2.8199972e-09
2.5954921e-09
2.4425343e-09
2.398742e-09
2.4041732e-09
2.4273275e-09
2.4301019e-09
2.4322832e-09
2.4503712e-09
2.4610204e-09
2.4517247e-09
2.4235271e-09
2.4033335e-09
2.4237206e-09
2.4882127e-09
2.5761304e-09
2.5869868e-09
2.5541697e-09
2.4605666e-09
2.344902e-09
2.2691696e-09
2.2380053e-09
2.2221071e-09
2.2189431e-09
2.2227516e-09
2.2093383e-09
2.185794e-09
2.1783934e-09
2.1524389e-09
2.1353665e-09
2.1576524e-09
2.1592095e-09
2.0996172e-09
2.0293848e-09
2.0211963e-09
2.0562039e-09
2.1043267e-09
2.1658689e-09
2.2144326e-09
2.2211894e-09
2.2221488e-09
2.2503731e-09
2.2625592e-09
2.2441029e-09
2.2231516e-09
2.2150763e-09
2.2160588e-09
2.219539e-09
2.224046e-09
2.2260354e-09
2.2266953e-09
2.229163e-09
2.2317936e-09
2.2319303e-09
2.2309159e-09
2.2300922e-09
2.229794e-09
2.2299597e-09
2.2302425e-09
2.2304479e-09
2.2306263e-09
2.2308544e-09
2.2309785e-09
2.2312755e-09
1.1091623e-27
4.5114959e-21
6.9281163e-12
7.9830473e-11
2.5829124e-10
7.3341956e-10
2.047762e-09
5.6023395e-09
1.4926266e-08
3.8202423e-08
9.1134333e-08
2.0215688e-07
4.1170792e-07
7.7501493e-07
1.3464717e-06
2.1749736e-06
3.2886699e-06
4.73509e-06
6.5605437e-06
8.826536e-06
1.1623004e-05
1.4992861e-05
1.9001193e-05
2.3638318e-05
2.8882278e-05
3.4677785e-05
4.1025988e-05
4.7902198e-05
5.5272589e-05
6.3053121e-05
7.1089032e-05
7.918304e-05
8.7082798e-05
9.4483919e-05
0.00010104978
0.00010642407
0.00011020979
0.00011194946
0.00011154721
0.00010892013
0.00010276846
9.390009e-05
8.254435e-05
6.9153352e-05
5.4637911e-05
3.9846991e-05
2.5142615e-05
1.0628421e-05
1.886786e-06
1.8855174e-07
4.1055828e-08
1.7557616e-08
8.2400658e-09
4.5598774e-09
3.4434851e-09
3.1342675e-09
3.0630192e-09
3.0439424e-09
3.0221494e-09
2.9683971e-09
2.8821918e-09
2.8117843e-09
2.7499253e-09
2.6295627e-09
2.5337318e-09
2.5388331e-09
2.5395894e-09
2.4935291e-09
2.4747176e-09
2.5630102e-09
2.8937714e-09
3.1472804e-09
3.1389067e-09
3.0198344e-09
2.7960009e-09
2.5789403e-09
2.4375039e-09
2.4011336e-09
2.4088369e-09
2.4310876e-09
2.4321317e-09
2.4349423e-09
2.4541662e-09
2.4634067e-09
2.4528403e-09
2.4248633e-09
2.4058707e-09
2.4271306e-09
2.4916597e-09
2.5776144e-09
2.58662e-09
2.5520077e-09
2.4571643e-09
2.3422206e-09
2.2677143e-09
2.2373401e-09
2.2220358e-09
2.2190026e-09
2.222186e-09
2.208386e-09
2.1850308e-09
2.1774259e-09
2.151354e-09
2.1352121e-09
2.1576675e-09
2.15802e-09
2.0978672e-09
2.0279399e-09
2.0204746e-09
2.0560436e-09
2.1045163e-09
2.1661706e-09
2.2145991e-09
2.2213063e-09
2.2223734e-09
2.2506487e-09
2.262644e-09
2.244086e-09
2.223108e-09
2.2150071e-09
2.2160641e-09
2.2195142e-09
2.2240271e-09
2.2259919e-09
2.2266789e-09
2.2291558e-09
2.2317812e-09
2.2319189e-09
2.2309336e-09
2.2301102e-09
2.2298087e-09
2.2299723e-09
2.2302437e-09
2.2304557e-09
2.2306676e-09
2.2308929e-09
2.2310424e-09
2.2314733e-09
1.8011054e-29
4.6052324e-21
1.2239635e-11
1.0350696e-10
3.3338984e-10
9.8705035e-10
2.8624217e-09
8.1644653e-09
2.2689122e-08
6.0448524e-08
1.5019451e-07
3.4614879e-07
7.2501059e-07
1.3799199e-06
2.3884608e-06
3.8007625e-06
5.6143654e-06
7.8688084e-06
1.0595363e-05
1.3831518e-05
1.7681953e-05
2.214048e-05
2.7250082e-05
3.2936332e-05
3.9117388e-05
4.5722696e-05
5.2716394e-05
6.0086546e-05
6.778647e-05
7.5710988e-05
8.3662406e-05
9.1403397e-05
9.8653795e-05
0.00010510035
0.00011039949
0.00011417879
0.00011617045
0.00011609438
0.00011424553
0.00010919524
0.00010133301
9.1008559e-05
7.8808972e-05
6.5437764e-05
5.175712e-05
3.8193102e-05
2.3916206e-05
8.9764815e-06
1.3130497e-06
1.3748569e-07
3.4921065e-08
1.5225825e-08
7.2337235e-09
4.2929611e-09
3.4009434e-09
3.1591384e-09
3.0860226e-09
3.054271e-09
3.0214725e-09
2.9545026e-09
2.8701495e-09
2.8059738e-09
2.7446845e-09
2.6178143e-09
2.5327145e-09
2.5429406e-09
2.5420577e-09
2.4906056e-09
2.4768304e-09
2.5778643e-09
2.9241786e-09
3.1554602e-09
3.1403546e-09
3.012803e-09
2.7870162e-09
2.5738271e-09
2.4369358e-09
2.4037253e-09
2.4121707e-09
2.434022e-09
2.4343543e-09
2.4375128e-09
2.4574997e-09
2.4660453e-09
2.4553581e-09
2.4280052e-09
2.408594e-09
2.4291269e-09
2.4927269e-09
2.5780159e-09
2.586458e-09
2.5512906e-09
2.4561249e-09
2.3414749e-09
2.2672039e-09
2.2370866e-09
2.2221802e-09
2.2189911e-09
2.2215942e-09
2.2077028e-09
2.1844183e-09
2.1766721e-09
2.1506177e-09
2.1349519e-09
2.1573574e-09
2.1570814e-09
2.0966547e-09
2.0267501e-09
2.0195274e-09
2.0551444e-09
2.1038958e-09
2.1659157e-09
2.2146187e-09
2.2213641e-09
2.2225232e-09
2.2508136e-09
2.2626829e-09
2.2442128e-09
2.2231504e-09
2.2149414e-09
2.2160116e-09
2.2194528e-09
2.2240223e-09
2.2259761e-09
2.2266748e-09
2.2291559e-09
2.2318079e-09
2.2319399e-09
2.2309458e-09
2.2301165e-09
2.2298142e-09
2.2299773e-09
2.2302337e-09
2.2304817e-09
2.2307102e-09
2.2309264e-09
2.2311369e-09
2.2310338e-09
1.6062369e-27
1.6191347e-21
5.5190695e-12
6.3023157e-11
2.0077421e-10
5.7050451e-10
1.5841163e-09
4.3453909e-09
1.1740283e-08
3.0961399e-08
7.7487762e-08
1.8354407e-07
4.0051619e-07
8.048715e-07
1.4760652e-06
2.4850532e-06
3.8720555e-06
5.6883679e-06
7.974637e-06
1.0778084e-05
1.4183309e-05
1.8219155e-05
2.2931799e-05
2.8281874e-05
3.421327e-05
4.0669003e-05
4.7612035e-05
5.5013891e-05
6.2776724e-05
7.0751303e-05
7.8715533e-05
8.6413673e-05
9.3565353e-05
9.9869371e-05
0.000105
0.00010858335
0.00011021581
0.00010990727
0.00010769136
0.00010258033
9.5338278e-05
8.5995271e-05
7.4801324e-05
6.2263636e-05
4.8996759e-05
3.5381714e-05
2.1013463e-05
7.2779239e-06
9.4935118e-07
1.0416678e-07
2.9451039e-08
1.336281e-08
6.7480126e-09
4.2815395e-09
3.4781874e-09
3.2325213e-09
3.1076518e-09
3.0278903e-09
2.9917482e-09
2.938534e-09
2.8631137e-09
2.8058837e-09
2.7387875e-09
2.6023612e-09
2.5317452e-09
2.5485135e-09
2.5456718e-09
2.4875739e-09
2.4795462e-09
2.59777e-09
2.9595577e-09
3.1627624e-09
3.1398206e-09
3.003323e-09
2.776039e-09
2.5681237e-09
2.4370657e-09
2.4071202e-09
2.4162646e-09
2.4373234e-09
2.4369536e-09
2.4405818e-09
2.4612736e-09
2.4689077e-09
2.4578792e-09
2.4309113e-09
2.4113842e-09
2.4313164e-09
2.4940058e-09
2.5784691e-09
2.5861165e-09
2.550254e-09
2.4547541e-09
2.3404766e-09
2.2665218e-09
2.236775e-09
2.2222658e-09
2.2189582e-09
2.220922e-09
2.2068425e-09
2.1836869e-09
2.1758029e-09
2.1497339e-09
2.1347057e-09
2.1571477e-09
2.1560172e-09
2.0951592e-09
2.0253761e-09
2.0185986e-09
2.0545223e-09
2.1035602e-09
2.1657904e-09
2.214639e-09
2.2214295e-09
2.2226997e-09
2.2510105e-09
2.2627425e-09
2.244318e-09
2.2231558e-09
2.2148589e-09
2.2159148e-09
2.2194073e-09
2.2240042e-09
2.2259575e-09
2.2266758e-09
2.2291646e-09
2.2318206e-09
2.2319506e-09
2.2309578e-09
2.2301269e-09
2.2298233e-09
2.2299694e-09
2.2302323e-09
2.2305181e-09
2.2307579e-09
2.2309683e-09
2.2312768e-09
3.3605695e-26
1.4162827e-20
4.7488658e-12
8.4359953e-11
2.86355e-10
8.3661981e-10
2.3810854e-09
6.6838954e-09
1.827898e-08
4.8197869e-08
1.1934584e-07
2.7700188e-07
5.9054961e-07
1.1577687e-06
2.0743399e-06
3.4159973e-06
5.213432e-06
7.5145117e-06
1.0341835e-05
1.3734544e-05
1.7763415e-05
2.2420835e-05
2.7720153e-05
3.3564709e-05
3.9851635e-05
4.6488885e-05
5.3421098e-05
6.0617442e-05
6.8022661e-05
7.5515945e-05
8.2884476e-05
8.9890638e-05
9.626808e-05
0.00010173673
0.00010600806
0.00010868188
0.00010930836
0.00010846669
0.00010522941
9.9607719e-05
9.2029544e-05
8.2542067e-05
7.1472996e-05
5.9202503e-05
4.6112794e-05
3.2326714e-05
1.7773051e-05
5.4026041e-06
6.5548822e-07
8.4574043e-08
2.6856202e-08
1.2452029e-08
6.5957539e-09
4.4938793e-09
3.7479388e-09
3.3881221e-09
3.1330014e-09
3.0184709e-09
2.984097e-09
2.9354546e-09
2.8604866e-09
2.8029957e-09
2.7315281e-09
2.590288e-09
2.5330232e-09
2.5540686e-09
2.54864e-09
2.4847527e-09
2.482213e-09
2.6182583e-09
2.9919158e-09
3.16859e-09
3.1382761e-09
2.9940914e-09
2.765846e-09
2.5628972e-09
2.4379016e-09
2.4104228e-09
2.4202041e-09
2.4407055e-09
2.4398639e-09
2.44389e-09
2.4650139e-09
2.4718625e-09
2.4608854e-09
2.4341496e-09
2.4140559e-09
2.4332226e-09
2.4951347e-09
2.5788682e-09
2.585819e-09
2.5492664e-09
2.4534535e-09
2.3394742e-09
2.2658174e-09
2.2364492e-09
2.2223571e-09
2.2188497e-09
2.2201836e-09
2.2059104e-09
2.1829153e-09
2.1748987e-09
2.1488357e-09
2.134452e-09
2.1568887e-09
2.1549028e-09
2.093588e-09
2.023944e-09
2.0176411e-09
2.0538387e-09
2.1031621e-09
2.1656243e-09
2.2146537e-09
2.2214823e-09
2.2228713e-09
2.2512071e-09
2.2628086e-09
2.2444159e-09
2.2231507e-09
2.2147754e-09
2.2158277e-09
2.2193777e-09
2.2239833e-09
2.2259355e-09
2.2266703e-09
2.2291808e-09
2.2318348e-09
2.2319581e-09
2.230967e-09
2.2301326e-09
2.229823e-09
2.2299586e-09
2.2302406e-09
2.2305591e-09
2.2308028e-09
2.2310326e-09
2.2314754e-09
1.2258998e-25
2.8076262e-20
5.0461088e-12
9.7365965e-11
3.391371e-10
1.000511e-09
2.8709045e-09
8.0829154e-09
2.2107744e-08
5.7850358e-08
1.4125979e-07
3.2267347e-07
6.7706093e-07
1.3084411e-06
2.3177455e-06
3.7882453e-06
5.7433713e-06
8.232199e-06
1.1267619e-05
1.4864765e-05
1.9091294e-05
2.3895934e-05
2.9271819e-05
3.5092909e-05
4.1243271e-05
4.7628856e-05
5.4210496e-05
6.0975107e-05
6.7890534e-05
7.4861206e-05
8.1706463e-05
8.8212159e-05
9.4117244e-05
9.9130817e-05
0.00010295631
0.00010528794
0.00010573846
0.00010496778
0.00010204141
9.6853803e-05
8.9756812e-05
8.0770074e-05
7.0117969e-05
5.8113854e-05
4.5000611e-05
3.0885408e-05
1.6196304e-05
4.7268001e-06
5.8696758e-07
8.1227623e-08
2.6380343e-08
1.236939e-08
6.8134247e-09
4.8186187e-09
4.1849856e-09
3.7773776e-09
3.3300002e-09
3.0599502e-09
2.9807594e-09
2.923452e-09
2.8504639e-09
2.7979391e-09
2.725717e-09
2.5807001e-09
2.5342938e-09
2.5593102e-09
2.5505882e-09
2.4823692e-09
2.4850173e-09
2.6403516e-09
3.0223451e-09
3.1734583e-09
3.1361859e-09
2.9848298e-09
2.7561453e-09
2.5582651e-09
2.4387183e-09
2.4139018e-09
2.4242784e-09
2.4444416e-09
2.4431123e-09
2.4473528e-09
2.468709e-09
2.4750238e-09
2.4644098e-09
2.4374624e-09
2.4164364e-09
2.4348089e-09
2.4961508e-09
2.5791737e-09
2.5854532e-09
2.5482428e-09
2.4521767e-09
2.3384462e-09
2.2650728e-09
2.2361117e-09
2.2224301e-09
2.2186744e-09
2.2193725e-09
2.204884e-09
2.1821055e-09
2.1739449e-09
2.1479114e-09
2.1342052e-09
2.1566168e-09
2.1537175e-09
2.0919067e-09
2.022442e-09
2.0166785e-09
2.0531772e-09
2.1027758e-09
2.1654528e-09
2.21466e-09
2.2215219e-09
2.2230563e-09
2.2514058e-09
2.2628725e-09
2.2445179e-09
2.2231183e-09
2.2146758e-09
2.2157394e-09
2.2193548e-09
2.2239555e-09
2.2259201e-09
2.2266693e-09
2.2292027e-09
2.2318472e-09
2.2319644e-09
2.2309749e-09
2.2301383e-09
2.229821e-09
2.2299503e-09
2.230273e-09
2.2306047e-09
2.2308419e-09
2.2311323e-09
2.231026e-09
1.7987619e-25
4.5832253e-20
6.1962065e-12
1.1837566e-10
4.1749106e-10
1.2486242e-09
3.6190729e-09
1.0276976e-08
2.8128621e-08
7.3029733e-08
1.7579766e-07
3.9367982e-07
8.084728e-07
1.5328429e-06
2.6721454e-06
4.3099456e-06
6.4693623e-06
9.198806e-06
1.2512592e-05
1.6403424e-05
2.0937259e-05
2.6028899e-05
3.1667616e-05
3.7675889e-05
4.3931634e-05
5.0336813e-05
5.6861492e-05
6.350237e-05
7.0238278e-05
7.6945014e-05
8.3448571e-05
8.9535207e-05
9.4974335e-05
9.9523752e-05
0.00010294244
0.00010497363
0.00010518875
0.00010428151
0.0001011564
9.5888385e-05
8.8698971e-05
7.9593976e-05
6.873314e-05
5.6435789e-05
4.3075957e-05
2.9046285e-05
1.4998142e-05
4.2903233e-06
5.3324099e-07
7.541026e-08
2.5183047e-08
1.2241748e-08
7.0411866e-09
5.2974624e-09
4.7449151e-09
4.2312298e-09
3.5509278e-09
3.1083638e-09
2.9794168e-09
2.9161567e-09
2.8461345e-09
2.7959901e-09
2.71962e-09
2.5722661e-09
2.5349298e-09
2.5634392e-09
2.5515314e-09
2.4798784e-09
2.4883337e-09
2.6634151e-09
3.0501009e-09
3.1778111e-09
3.134068e-09
2.9758869e-09
2.7470411e-09
2.5541642e-09
2.4395658e-09
2.4173366e-09
2.4284315e-09
2.4485088e-09
2.4466513e-09
2.4509403e-09
2.4723805e-09
2.4785896e-09
2.4684499e-09
2.4406405e-09
2.4183306e-09
2.4359642e-09
2.4970149e-09
2.5793799e-09
2.5850002e-09
2.5471805e-09
2.4509349e-09
2.3374102e-09
2.2643009e-09
2.2357641e-09
2.2224682e-09
2.2184469e-09
2.2184833e-09
2.2037707e-09
2.1812709e-09
2.1729481e-09
2.1469685e-09
2.1339658e-09
2.1563101e-09
2.152469e-09
2.0901253e-09
2.0208794e-09
2.015722e-09
2.0525168e-09
2.1023789e-09
2.1652672e-09
2.2146587e-09
2.2215489e-09
2.2232556e-09
2.2516056e-09
2.26294e-09
2.244624e-09
2.2230657e-09
2.2145599e-09
2.2156524e-09
2.2193302e-09
2.2239223e-09
2.2259096e-09
2.2266695e-09
2.2292287e-09
2.231858e-09
2.2319702e-09
2.2309822e-09
2.2301407e-09
2.2298122e-09
2.2299489e-09
2.2303095e-09
2.230651e-09
2.2308771e-09
2.2312722e-09
2.7484836e-26
5.8937507e-20
9.4254358e-12
1.4467675e-10
5.0096738e-10
1.516199e-09
4.4539912e-09
1.2770944e-08
3.5162043e-08
9.1183858e-08
2.1767064e-07
4.8041819e-07
9.6851346e-07
1.8014311e-06
3.0858546e-06
4.9074808e-06
7.2852259e-06
1.0267309e-05
1.3864517e-05
1.805892e-05
2.2903371e-05
2.8284061e-05
3.4166894e-05
4.0342978e-05
4.6672929e-05
5.3055348e-05
5.9472596e-05
6.5939366e-05
7.2451533e-05
7.8901035e-05
8.5130386e-05
9.0942301e-05
9.6124096e-05
0.00010044707
0.00010368937
0.00010552998
0.00010565345
0.00010469756
0.00010154461
9.6256781e-05
8.8989829e-05
7.9699372e-05
6.8526032e-05
5.5756167e-05
4.1914993e-05
2.7724277e-05
1.4188433e-05
4.1499106e-06
5.3339606e-07
7.3057876e-08
2.3705224e-08
1.175447e-08
7.0218835e-09
5.7606765e-09
5.6163277e-09
5.0281302e-09
3.8205679e-09
3.1257865e-09
2.962274e-09
2.9083628e-09
2.8429825e-09
2.7913908e-09
2.7127855e-09
2.56429e-09
2.5365253e-09
2.5685403e-09
2.5524849e-09
2.478139e-09
2.4930687e-09
2.6883836e-09
3.0754881e-09
3.1817804e-09
3.1316667e-09
2.9670298e-09
2.7382969e-09
2.5504497e-09
2.4405983e-09
2.4207762e-09
2.4327486e-09
2.4528425e-09
2.4503719e-09
2.45463e-09
2.4761883e-09
2.4828932e-09
2.4728285e-09
2.4433533e-09
2.4196494e-09
2.4366685e-09
2.4977326e-09
2.5795201e-09
2.5844181e-09
2.5460436e-09
2.4496873e-09
2.3363441e-09
2.2635166e-09
2.2354162e-09
2.2224689e-09
2.2181677e-09
2.2175146e-09
2.2025767e-09
2.1804186e-09
2.1719165e-09
2.146016e-09
2.1337344e-09
2.1559654e-09
2.1511569e-09
2.0882428e-09
2.0192634e-09
2.0147748e-09
2.0518603e-09
2.1019746e-09
2.1650655e-09
2.214633e-09
2.2215666e-09
2.2234718e-09
2.2518035e-09
2.2630026e-09
2.2447225e-09
2.2229915e-09
2.2144387e-09
2.2155748e-09
2.2193092e-09
2.223897e-09
2.2259065e-09
2.2266801e-09
2.2292523e-09
2.2318671e-09
2.231975e-09
2.2309901e-09
2.2301408e-09
2.2298046e-09
2.2299555e-09
2.2303523e-09
2.2306938e-09
2.2309194e-09
2.231473e-09
4.3580394e-29
6.9470426e-20
2.1519301e-11
1.8948221e-10
6.3379351e-10
1.9467364e-09
5.8180865e-09
1.6887755e-08
4.682216e-08
1.2142802e-07
2.8809346e-07
6.2730766e-07
1.2377214e-06
2.2448194e-06
3.7467977e-06
5.8160568e-06
8.4645134e-06
1.1729388e-05
1.5624397e-05
2.0121995e-05
2.5274459e-05
3.0944663e-05
3.7084251e-05
4.3457501e-05
4.9914114e-05
5.6351732e-05
6.2766266e-05
6.918705e-05
7.5622104e-05
8.1968355e-05
8.8071137e-05
9.373433e-05
9.874861e-05
0.00010289407
0.0001059975
0.00010763203
0.00010764087
0.00010645052
0.00010291159
9.7348844e-05
8.9781417e-05
8.0152614e-05
6.8595049e-05
5.5409763e-05
4.1163858e-05
2.6666301e-05
1.3094999e-05
3.583076e-06
4.4529727e-07
6.104074e-08
1.9668348e-08
9.6865592e-09
6.1377645e-09
6.044434e-09
6.284091e-09
5.5347379e-09
3.9737067e-09
3.1400328e-09
2.9616802e-09
2.898016e-09
2.8322034e-09
2.785839e-09
2.7060266e-09
2.557768e-09
2.5376083e-09
2.5730832e-09
2.552951e-09
2.4770467e-09
2.4989522e-09
2.714068e-09
3.0983206e-09
3.185339e-09
3.1290394e-09
2.9583594e-09
2.7299025e-09
2.5469976e-09
2.4416413e-09
2.4241675e-09
2.4372118e-09
2.4572847e-09
2.4541728e-09
2.4584961e-09
2.4804742e-09
2.4881825e-09
2.4772409e-09
2.4453174e-09
2.4204017e-09
2.4369959e-09
2.4983219e-09
2.5796395e-09
2.583781e-09
2.5448639e-09
2.4484009e-09
2.335208e-09
2.2627184e-09
2.2350741e-09
2.2224419e-09
2.2178118e-09
2.2164719e-09
2.201339e-09
2.1795652e-09
2.1708503e-09
2.145065e-09
2.1335105e-09
2.1555814e-09
2.1497798e-09
2.0862576e-09
2.0176029e-09
2.0138317e-09
2.0512118e-09
2.1015607e-09
2.1648434e-09
2.2145819e-09
2.2215737e-09
2.2236972e-09
2.2519968e-09
2.2630538e-09
2.2448011e-09
2.2229053e-09
2.2143286e-09
2.2155082e-09
2.219291e-09
2.2238849e-09
2.2259061e-09
2.2266956e-09
2.2292714e-09
2.2318741e-09
2.2319793e-09
2.2309965e-09
2.2301354e-09
2.2298033e-09
2.2299828e-09
2.2303969e-09
2.230733e-09
2.2309846e-09
2.2311224e-09
2.5792794e-26
3.0263016e-19
1.5905819e-11
2.2954602e-10
8.1524825e-10
2.5572094e-09
7.7704169e-09
2.2889286e-08
6.3896298e-08
1.6565325e-07
3.906057e-07
8.3974774e-07
1.6299505e-06
2.8926359e-06
4.7077339e-06
7.1262861e-06
1.0132017e-05
1.3756644e-05
1.8011572e-05
2.2870198e-05
2.8386931e-05
3.4405781e-05
4.0870452e-05
4.7508907e-05
5.4181279e-05
6.074745e-05
6.7216875e-05
7.3639374e-05
8.0001094e-05
8.6209521e-05
9.2103464e-05
9.7484155e-05
0.00010214351
0.00010586088
0.00010845213
0.00010937333
0.00010904283
0.00010722192
0.00010306715
9.6992406e-05
8.8857822e-05
7.8700302e-05
6.6687526e-05
5.3167384e-05
3.872762e-05
2.4216084e-05
1.1046573e-05
2.5862152e-06
2.8599356e-07
4.3938576e-08
1.5933715e-08
8.0695924e-09
5.6925423e-09
6.1730068e-09
6.4429655e-09
5.3402346e-09
3.7331601e-09
3.0793347e-09
2.9549412e-09
2.8912427e-09
2.8280902e-09
2.784252e-09
2.7000694e-09
2.5508933e-09
2.5385641e-09
2.5783735e-09
2.553299e-09
2.4764729e-09
2.5059769e-09
2.7404604e-09
3.1189191e-09
3.1885571e-09
3.1260765e-09
2.9498033e-09
2.7219036e-09
2.5438232e-09
2.4427055e-09
2.4275145e-09
2.441776e-09
2.4616932e-09
2.4580655e-09
2.462778e-09
2.4858122e-09
2.4942239e-09
2.4812145e-09
2.4463819e-09
2.4206973e-09
2.4370785e-09
2.4987683e-09
2.5797461e-09
2.5831681e-09
2.5437068e-09
2.4471078e-09
2.3339985e-09
2.2619035e-09
2.2347378e-09
2.222376e-09
2.2173449e-09
2.2153582e-09
2.2000996e-09
2.1787294e-09
2.1697504e-09
2.1441276e-09
2.1332944e-09
2.1551714e-09
2.148345e-09
2.0841691e-09
2.0159074e-09
2.0128924e-09
2.0505743e-09
2.1011365e-09
2.1645928e-09
2.2145084e-09
2.2215742e-09
2.2239226e-09
2.2521776e-09
2.2630904e-09
2.2448635e-09
2.2228176e-09
2.2142396e-09
2.2154503e-09
2.2192788e-09
2.2238847e-09
2.2259078e-09
2.226709e-09
2.2292873e-09
2.23188e-09
2.2319834e-09
2.2309962e-09
2.2301253e-09
2.229813e-09
2.2300176e-09
2.2304408e-09
2.2307692e-09
2.2310845e-09
4.959651e-26
5.6633626e-19
2.2847443e-11
3.0894831e-10
1.1139376e-09
3.5871308e-09
1.1210973e-08
3.3728005e-08
9.5037118e-08
2.4577866e-07
5.7204111e-07
1.2031934e-06
2.2704867e-06
3.8972583e-06
6.1334492e-06
8.9934682e-06
1.2420799e-05
1.6441333e-05
2.1053767e-05
2.624007e-05
3.2056859e-05
3.8334118e-05
4.5013543e-05
5.1799877e-05
5.854716e-05
6.5106143e-05
7.149153e-05
7.7759337e-05
8.3897813e-05
8.9813072e-05
9.5342659e-05
0.0001002852
0.00010443663
0.00010759611
0.00010950784
0.00010973154
0.00010896498
0.0001061773
0.00010127132
9.4465217e-05
8.5660741e-05
7.4926325e-05
6.2469432e-05
4.8691597e-05
3.4249681e-05
2.0067002e-05
7.956978e-06
1.4500099e-06
1.5342888e-07
3.2037243e-08
1.3633455e-08
7.1824756e-09
5.753597e-09
6.2947768e-09
5.8234049e-09
4.3435071e-09
3.3328613e-09
3.0103379e-09
2.9455611e-09
2.8849161e-09
2.8231988e-09
2.7804472e-09
2.6912397e-09
2.5449756e-09
2.5414641e-09
2.5849547e-09
2.5530776e-09
2.4761808e-09
2.5137632e-09
2.7666555e-09
3.1367983e-09
3.1913133e-09
3.122794e-09
2.9415294e-09
2.7143887e-09
2.5410643e-09
2.4438863e-09
2.4308557e-09
2.4463809e-09
2.4660364e-09
2.4622482e-09
2.4679013e-09
2.4926337e-09
2.5001928e-09
2.4842362e-09
2.4467043e-09
2.4207251e-09
2.4369232e-09
2.4990911e-09
2.5798457e-09
2.5825938e-09
2.5425937e-09
2.4458247e-09
2.3327284e-09
2.2610653e-09
2.2343933e-09
2.2222535e-09
2.2167784e-09
2.2141734e-09
2.1988728e-09
2.1779201e-09
2.1686197e-09
2.1432099e-09
2.1330803e-09
2.1547435e-09
2.1468521e-09
2.0819691e-09
2.0141864e-09
2.0119524e-09
2.0499522e-09
2.100709e-09
2.1643146e-09
2.2144143e-09
2.2215661e-09
2.2241463e-09
2.2523415e-09
2.263119e-09
2.2449232e-09
2.2227371e-09
2.2141658e-09
2.2153968e-09
2.2192777e-09
2.2238898e-09
2.2259168e-09
2.2267198e-09
2.2293053e-09
2.2318862e-09
2.2319868e-09
2.2310033e-09
2.2301166e-09
2.2298431e-09
2.2300611e-09
2.2304846e-09
2.2308107e-09
2.2312239e-09
3.6656229e-26
2.4999128e-18
2.8023669e-11
3.9874902e-10
1.4710186e-09
4.8310605e-09
1.5409538e-08
4.711524e-08
1.3401561e-07
3.4668733e-07
8.0066574e-07
1.6555133e-06
3.0482847e-06
5.0896817e-06
7.7825796e-06
1.10927e-05
1.4928277e-05
1.9325634e-05
2.4266019e-05
2.9745339e-05
3.5818782e-05
4.2316793e-05
4.9177778e-05
5.6088451e-05
6.2894376e-05
6.9427746e-05
7.5719327e-05
8.1800757e-05
8.7673802e-05
9.3241241e-05
9.8341708e-05
0.00010277581
0.00010633635
0.00010882328
0.00010989527
0.00010967982
0.00010812331
0.00010436574
9.8834469e-05
9.1385826e-05
8.2009931e-05
7.0813712e-05
5.8052334e-05
4.4181023e-05
2.9919665e-05
1.6284802e-05
5.5107285e-06
7.9919291e-07
9.8590621e-08
2.8371296e-08
1.3282348e-08
7.267904e-09
5.9114402e-09
5.5763622e-09
4.3932875e-09
3.3958258e-09
3.0507962e-09
2.9748225e-09
2.9432421e-09
2.876276e-09
2.8160575e-09
2.7760518e-09
2.6807921e-09
2.5391481e-09
2.5449516e-09
2.5920035e-09
2.5522537e-09
2.4767508e-09
2.5221547e-09
2.7924991e-09
3.152563e-09
3.1939461e-09
3.1192661e-09
2.9334302e-09
2.7072756e-09
2.5388921e-09
2.4454296e-09
2.4343482e-09
2.4511275e-09
2.4705752e-09
2.4671564e-09
2.4742511e-09
2.5003532e-09
2.5052647e-09
2.4860419e-09
2.4465978e-09
2.4201227e-09
2.4361678e-09
2.4993582e-09
2.5799471e-09
2.58204e-09
2.5414997e-09
2.4445486e-09
2.3314468e-09
2.2602353e-09
2.2340388e-09
2.2220606e-09
2.2161282e-09
2.2129197e-09
2.1976628e-09
2.1771465e-09
2.1674637e-09
2.1423203e-09
2.1328702e-09
2.1542936e-09
2.1452876e-09
2.0796569e-09
2.0124498e-09
2.0110033e-09
2.0493346e-09
2.1002705e-09
2.1640079e-09
2.2142869e-09
2.2215436e-09
2.22437e-09
2.2524941e-09
2.2631527e-09
2.2449887e-09
2.2226585e-09
2.2140964e-09
2.2153458e-09
2.2192819e-09
2.2238938e-09
2.2259229e-09
2.2267294e-09
2.2293251e-09
2.231893e-09
2.2319879e-09
2.2309945e-09
2.2301144e-09
2.2298792e-09
2.230108e-09
2.2305232e-09
2.2308759e-09
2.2314255e-09
1.3579453e-26
6.0428532e-18
4.02884e-11
4.9731918e-10
1.834864e-09
6.1176269e-09
1.9800914e-08
6.1213519e-08
1.7505738e-07
4.528031e-07
1.0381e-06
2.1209711e-06
3.8424064e-06
6.2889612e-06
9.4207709e-06
1.3168498e-05
1.7390282e-05
2.2127212e-05
2.7349053e-05
3.3063542e-05
3.9322878e-05
4.5971124e-05
5.2926883e-05
5.9872848e-05
6.6648217e-05
7.3075509e-05
7.9184831e-05
8.5005906e-05
9.0545071e-05
9.5710155e-05
0.00010034852
0.00010426941
0.00010727875
0.00010920201
0.00010961468
0.0001090487
0.00010675494
0.00010250239
9.6522375e-05
8.8658454e-05
7.892348e-05
6.7454982e-05
5.4546515e-05
4.069531e-05
2.6668388e-05
1.3615571e-05
4.0634653e-06
5.3669599e-07
8.3099056e-08
3.0210582e-08
1.4869725e-08
7.7097696e-09
5.4366985e-09
4.1019993e-09
3.2995944e-09
3.0205052e-09
2.9686806e-09
2.9583046e-09
2.9299762e-09
2.8627715e-09
2.810449e-09
2.7733473e-09
2.6711066e-09
2.5345172e-09
2.5492272e-09
2.598258e-09
2.5500796e-09
2.4771972e-09
2.5308497e-09
2.8175857e-09
3.1662595e-09
3.1964036e-09
3.1157431e-09
2.9259509e-09
2.7009404e-09
2.5374923e-09
2.4475162e-09
2.4382448e-09
2.4563818e-09
2.4758148e-09
2.4730477e-09
2.4814273e-09
2.5073588e-09
2.5090253e-09
2.4867938e-09
2.4451459e-09
2.4187502e-09
2.4352453e-09
2.499692e-09
2.5800794e-09
2.5815131e-09
2.540357e-09
2.4431966e-09
2.3301536e-09
2.2594422e-09
2.2336998e-09
2.2217927e-09
2.2153949e-09
2.2116047e-09
2.1964776e-09
2.1764142e-09
2.1662822e-09
2.1414564e-09
2.132672e-09
2.1538115e-09
2.1436435e-09
2.0772303e-09
2.0107036e-09
2.0100383e-09
2.0487179e-09
2.0998237e-09
2.1636781e-09
2.2141248e-09
2.2215022e-09
2.2246009e-09
2.2526517e-09
2.2632082e-09
2.2450593e-09
2.2225751e-09
2.2140288e-09
2.2152992e-09
2.2192925e-09
2.2238932e-09
2.2259191e-09
2.2267389e-09
2.2293405e-09
2.2318984e-09
2.2319867e-09
2.2309838e-09
2.2301244e-09
2.2299223e-09
2.2301554e-09
2.2305581e-09
2.230977e-09
2.2310699e-09
2.2333208e-27
2.8796415e-17
4.2178681e-11
5.6613289e-10
2.1152351e-09
7.1084034e-09
2.3134821e-08
7.1762454e-08
2.0534427e-07
5.3034221e-07
1.2112626e-06
2.4618325e-06
4.426254e-06
7.181494e-06
1.0658803e-05
1.4758595e-05
1.9308859e-05
2.4352458e-05
2.9850357e-05
3.5803897e-05
4.2269918e-05
4.9085057e-05
5.6157909e-05
6.3175603e-05
6.9945623e-05
7.6298932e-05
8.2266988e-05
8.7881145e-05
9.3153038e-05
9.7995603e-05
0.0001022648
0.0001057785
0.00010835873
0.0001097928
0.00010983284
0.00010890942
0.00010604809
0.00010146065
9.5156827e-05
8.7044625e-05
7.714699e-05
6.5594367e-05
5.2669803e-05
3.8899227e-05
2.5093881e-05
1.2474861e-05
3.5635114e-06
4.7976014e-07
8.8802943e-08
3.4897044e-08
1.6026107e-08
7.28328e-09
4.1384435e-09
3.2517162e-09
3.012602e-09
2.972543e-09
2.964374e-09
2.9545679e-09
2.9218601e-09
2.8528049e-09
2.8061317e-09
2.7694424e-09
2.6599984e-09
2.5305294e-09
2.5543763e-09
2.6037346e-09
2.5476321e-09
2.478248e-09
2.5400495e-09
2.841932e-09
3.1784871e-09
3.1991753e-09
3.1127452e-09
2.919528e-09
2.6957584e-09
2.5368572e-09
2.450391e-09
2.4429636e-09
2.4627359e-09
2.4821986e-09
2.4795032e-09
2.4881412e-09
2.5123749e-09
2.5114346e-09
2.486909e-09
2.4431795e-09
2.4172998e-09
2.4342937e-09
2.5001157e-09
2.5802392e-09
2.5810476e-09
2.5391645e-09
2.4417023e-09
2.328828e-09
2.2586909e-09
2.233395e-09
2.2214593e-09
2.2145679e-09
2.2102463e-09
2.1953303e-09
2.175731e-09
2.165085e-09
2.1406179e-09
2.1324881e-09
2.1532899e-09
2.1419201e-09
2.0746982e-09
2.008963e-09
2.00905e-09
2.0481061e-09
2.099371e-09
2.1633193e-09
2.2139279e-09
2.2214479e-09
2.2248422e-09
2.2528262e-09
2.2632951e-09
2.2451325e-09
2.2224833e-09
2.2139676e-09
2.2152613e-09
2.2193032e-09
2.2238879e-09
2.2259192e-09
2.2267465e-09
2.2293506e-09
2.2318992e-09
2.2319799e-09
2.230974e-09
2.2301536e-09
2.2299675e-09
2.2302002e-09
2.2306e-09
2.2311183e-09
1.0250628e-28
3.5621582e-17
5.6155014e-11
6.4164304e-10
2.375729e-09
8.0230048e-09
2.6190934e-08
8.1191822e-08
2.3171031e-07
5.9609673e-07
1.3557728e-06
2.7430356e-06
4.909643e-06
7.9289838e-06
1.1712791e-05
1.6140753e-05
2.1010888e-05
2.6360828e-05
3.2134789e-05
3.8336757e-05
4.5015631e-05
5.1998759e-05
5.9185659e-05
6.6250409e-05
7.299496e-05
7.9246746e-05
8.5045988e-05
9.0434678e-05
9.5434106e-05
9.9967529e-05
0.00010390192
0.00010706703
0.00010929848
0.00011033055
0.0001101861
0.00010892142
0.00010576089
0.00010104326
9.4623916e-05
8.6446067e-05
7.6538588e-05
6.5011676e-05
5.2124805e-05
3.8428725e-05
2.4783683e-05
1.241396e-05
3.5986103e-06
4.8988387e-07
9.6862029e-08
3.6894951e-08
1.5195194e-08
6.5978987e-09
3.8451053e-09
3.1204902e-09
2.9800937e-09
2.972931e-09
2.9681646e-09
2.9509091e-09
2.9105245e-09
2.8435705e-09
2.8032002e-09
2.7677723e-09
2.6517394e-09
2.5287001e-09
2.5607452e-09
2.6087861e-09
2.5454964e-09
2.4798067e-09
2.5497225e-09
2.8655659e-09
3.1895497e-09
3.2024154e-09
3.1108203e-09
2.9147653e-09
2.6921832e-09
2.5367987e-09
2.4544543e-09
2.4488962e-09
2.4704283e-09
2.4891728e-09
2.4852827e-09
2.4931918e-09
2.5152428e-09
2.5125888e-09
2.4857668e-09
2.441151e-09
2.4158032e-09
2.4333324e-09
2.5006215e-09
2.5803884e-09
2.5806663e-09
2.5379785e-09
2.4400795e-09
2.3274613e-09
2.2579657e-09
2.2331163e-09
2.2210795e-09
2.2136536e-09
2.2088591e-09
2.1942309e-09
2.1751029e-09
2.1638747e-09
2.1398056e-09
2.1323192e-09
2.1527261e-09
2.1401045e-09
2.0720634e-09
2.0072292e-09
2.008039e-09
2.047502e-09
2.0989175e-09
2.1629357e-09
2.2137016e-09
2.221387e-09
2.2250967e-09
2.2530206e-09
2.263398e-09
2.2452122e-09
2.222388e-09
2.2139145e-09
2.2152345e-09
2.2193105e-09
2.2238841e-09
2.2259166e-09
2.2267528e-09
2.2293633e-09
2.2318986e-09
2.2319693e-09
2.2309713e-09
2.2301878e-09
2.2300121e-09
2.2302388e-09
2.2306668e-09
2.2313178e-09
2.2653195e-30
5.5673326e-17
6.0359279e-11
6.9141812e-10
2.566404e-09
8.6769278e-09
2.8310672e-08
8.7482869e-08
2.4840508e-07
6.3562861e-07
1.4400446e-06
2.9057114e-06
5.1932287e-06
8.3826106e-06
1.2378359e-05
1.7050353e-05
2.2180073e-05
2.7800283e-05
3.3843169e-05
4.0299836e-05
4.7217813e-05
5.4412584e-05
6.1772478e-05
6.8956795e-05
7.5759124e-05
8.2001714e-05
8.7729185e-05
9.2991039e-05
9.7815033e-05
0.00010214469
0.00010584535
0.00010877105
0.00011077001
0.00011154449
0.00011129342
0.0001098289
0.00010653093
0.00010172767
9.5236324e-05
8.6992816e-05
7.7007641e-05
6.5408829e-05
5.2518092e-05
3.8864394e-05
2.5322997e-05
1.295255e-05
3.7307517e-06
4.9118569e-07
9.689452e-08
3.6817976e-08
1.5496215e-08
6.9258652e-09
4.0301024e-09
3.1919641e-09
2.9962766e-09