/*--------------------------------*- C++ -*----------------------------------*\
| =========                 |                                                 |
| \\      /  F ield         | OpenFOAM: The Open Source CFD Toolbox           |
|  \\    /   O peration     | Version:  2506                                  |
|   \\  /    A nd           | Website:  www.openfoam.com                      |
|    \\/     M anipulation  |                                                 |
\*---------------------------------------------------------------------------*/
FoamFile
{
    version     2.0;
    format      ascii;
    arch        "LSB;label=32;scalar=64";
    class       volScalarField;
    location    "6e-05";
    object      nut;
}
// * * * * * * * * * * * * * * * * * * * * * * * * * * * * * * * * * * * * * //

dimensions      [0 2 -1 0 0 0 0];

internalField   nonuniform List<scalar> 
13761
(
2.2303394e-09
2.2303344e-09
2.2303344e-09
2.2303345e-09
2.2303347e-09
2.230336e-09
2.2303364e-09
2.2303526e-09
2.2303418e-09
2.2306479e-09
2.515519e-09
2.2303387e-09
2.2303347e-09
2.2303342e-09
2.2303345e-09
2.230335e-09
2.2303359e-09
2.2303364e-09
2.2303526e-09
2.230343e-09
2.230647e-09
2.198253e-09
2.2303354e-09
2.2303351e-09
2.2303345e-09
2.2303343e-09
2.2303354e-09
2.2303362e-09
2.2303364e-09
2.2303528e-09
2.2303431e-09
2.230647e-09
2.2848696e-09
2.2303554e-09
2.2303345e-09
2.2303341e-09
2.2303344e-09
2.2303342e-09
2.2303348e-09
2.2303357e-09
2.2303367e-09
2.2303528e-09
2.2303437e-09
2.2306518e-09
2.2848834e-09
2.2303373e-09
2.2303347e-09
2.2303346e-09
2.2303345e-09
2.2303343e-09
2.2303353e-09
2.2303355e-09
2.2303366e-09
2.2303529e-09
2.2303432e-09
2.2306798e-09
2.2849042e-09
2.2303356e-09
2.2303343e-09
2.2303344e-09
2.2303338e-09
2.2303343e-09
2.230335e-09
2.2303356e-09
2.2303366e-09
2.2303527e-09
2.2303435e-09
2.2307475e-09
2.2849249e-09
2.2303543e-09
2.2303341e-09
2.2303352e-09
2.2303352e-09
2.2303338e-09
2.230335e-09
2.2303345e-09
2.2303361e-09
2.2303366e-09
2.2303528e-09
2.2303435e-09
2.230828e-09
2.284933e-09
2.2303359e-09
2.2303337e-09
2.2303346e-09
2.2303339e-09
2.2303351e-09
2.2303343e-09
2.2303349e-09
2.2303361e-09
2.2303367e-09
2.2303535e-09
2.2303484e-09
2.230885e-09
2.2849438e-09
2.2303337e-09
2.2303339e-09
2.230334e-09
2.2303337e-09
2.2303345e-09
2.2303343e-09
2.2303353e-09
2.2303361e-09
2.2303367e-09
2.230353e-09
2.230379e-09
2.2309096e-09
2.2849396e-09
2.230328e-09
2.2303317e-09
2.230335e-09
2.2303351e-09
2.2303336e-09
2.2303341e-09
2.2303342e-09
2.2303348e-09
2.230336e-09
2.2303366e-09
2.2303532e-09
2.2304495e-09
2.2309149e-09
2.2849428e-09
2.2303277e-09
2.2303316e-09
2.2303342e-09
2.2303341e-09
2.2303351e-09
2.2303343e-09
2.2303344e-09
2.2303352e-09
2.2303361e-09
2.2303366e-09
2.230353e-09
2.2305301e-09
2.2309104e-09
2.2847771e-09
2.230324e-09
2.2303312e-09
2.2303348e-09
2.2303341e-09
2.2303343e-09
2.2303351e-09
2.2303351e-09
2.2303351e-09
2.230336e-09
2.2303367e-09
2.2303531e-09
2.2305855e-09
2.2308915e-09
2.2840982e-09
2.2303206e-09
2.2303314e-09
2.2303348e-09
2.2303344e-09
2.2303337e-09
2.2303343e-09
2.2303341e-09
2.2303353e-09
2.2303361e-09
2.2303368e-09
2.2303587e-09
2.2306093e-09
2.2308804e-09
2.2844783e-09
2.2302773e-09
2.2303186e-09
2.2303319e-09
2.230335e-09
2.2303341e-09
2.2303337e-09
2.230335e-09
2.230334e-09
2.2303348e-09
2.2303362e-09
2.2303364e-09
2.2303903e-09
2.2306142e-09
2.2308787e-09
2.2846944e-09
2.2302768e-09
2.2303195e-09
2.2303314e-09
2.2303344e-09
2.2303341e-09
2.2303344e-09
2.2303347e-09
2.2303345e-09
2.2303354e-09
2.230336e-09
2.2303368e-09
2.2304615e-09
2.2306085e-09
2.2308882e-09
2.2851903e-09
2.2302718e-09
2.2303185e-09
2.2303314e-09
2.2303339e-09
2.2303349e-09
2.2303348e-09
2.2303342e-09
2.2303345e-09
2.2303349e-09
2.230336e-09
2.2303365e-09
2.2305425e-09
2.2305869e-09
2.2309182e-09
2.2849454e-09
2.2301816e-09
2.2302698e-09
2.2303186e-09
2.2303326e-09
2.230335e-09
2.2303339e-09
2.2303351e-09
2.2303344e-09
2.2303346e-09
2.2303346e-09
2.2303361e-09
2.2303366e-09
2.2305989e-09
2.2305732e-09
2.2309429e-09
2.2857878e-09
2.2301624e-09
2.2302699e-09
2.2303178e-09
2.2303313e-09
2.2303344e-09
2.230334e-09
2.2303344e-09
2.2303345e-09
2.2303345e-09
2.2303352e-09
2.2303366e-09
2.2303418e-09
2.2306236e-09
2.2305703e-09
2.2309534e-09
2.2848537e-09
2.2301582e-09
2.2302701e-09
2.2303193e-09
2.2303312e-09
2.2303339e-09
2.2303345e-09
2.2303352e-09
2.2303344e-09
2.2303343e-09
2.2303344e-09
2.230336e-09
2.2303719e-09
2.2306289e-09
2.2305756e-09
2.2309604e-09
2.2847963e-09
2.2299698e-09
2.2301558e-09
2.2302698e-09
2.2303181e-09
2.230332e-09
2.230335e-09
2.2303344e-09
2.2303345e-09
2.2303344e-09
2.2303342e-09
2.2303344e-09
2.2303365e-09
2.2304418e-09
2.2306242e-09
2.2306025e-09
2.2309903e-09
2.2853919e-09
2.2299504e-09
2.230156e-09
2.2302706e-09
2.2303174e-09
2.2303318e-09
2.2303338e-09
2.2303345e-09
2.2303342e-09
2.2303343e-09
2.2303349e-09
2.2303348e-09
2.2303364e-09
2.2305236e-09
2.2306012e-09
2.2306309e-09
2.2310574e-09
2.2864456e-09
2.2299456e-09
2.2301567e-09
2.2302703e-09
2.2303179e-09
2.2303318e-09
2.2303334e-09
2.2303344e-09
2.2303348e-09
2.2303343e-09
2.2303345e-09
2.2303348e-09
2.2303407e-09
2.2305827e-09
2.2305841e-09
2.2306444e-09
2.2311386e-09
2.2296633e-09
2.2299436e-09
2.2301568e-09
2.2302705e-09
2.2303193e-09
2.2303313e-09
2.2303335e-09
2.2303349e-09
2.2303348e-09
2.2303345e-09
2.2303347e-09
2.2303348e-09
2.2303686e-09
2.2306101e-09
2.2305794e-09
2.2306486e-09
2.2312296e-09
2.2296623e-09
2.2299443e-09
2.2301565e-09
2.2302704e-09
2.2303176e-09
2.2303311e-09
2.2303342e-09
2.2303349e-09
2.2303344e-09
2.2303344e-09
2.2303341e-09
2.2303344e-09
2.2304362e-09
2.2306167e-09
2.2305811e-09
2.2306577e-09
2.231354e-09
2.2295038e-09
2.2296585e-09
2.2299432e-09
2.230156e-09
2.2302703e-09
2.2303176e-09
2.2303326e-09
2.2303342e-09
2.2303346e-09
2.2303345e-09
2.2303345e-09
2.2303343e-09
2.2303344e-09
2.2305185e-09
2.2306138e-09
2.2306023e-09
2.2307014e-09
2.2315565e-09
2.229502e-09
2.2296586e-09
2.2299432e-09
2.2301595e-09
2.2302703e-09
2.2303183e-09
2.2303317e-09
2.2303341e-09
2.2303351e-09
2.2303344e-09
2.2303344e-09
2.2303351e-09
2.2303344e-09
2.2305804e-09
2.2305908e-09
2.2306332e-09
2.2307726e-09
2.2314675e-09
2.2294921e-09
2.2296576e-09
2.2299437e-09
2.230158e-09
2.2302703e-09
2.2303183e-09
2.2303315e-09
2.2303342e-09
2.2303344e-09
2.2303344e-09
2.2303344e-09
2.2303345e-09
2.2303378e-09
2.2306107e-09
2.2305692e-09
2.2306521e-09
2.2308511e-09
2.2297828e-09
2.229489e-09
2.2296573e-09
2.2299449e-09
2.2301579e-09
2.230271e-09
2.2303184e-09
2.2303318e-09
2.230335e-09
2.2303351e-09
2.2303341e-09
2.2303344e-09
2.2303348e-09
2.2303601e-09
2.2306188e-09
2.2305615e-09
2.2306579e-09
2.2309398e-09
2.2297816e-09
2.2294885e-09
2.2296576e-09
2.2299441e-09
2.2301595e-09
2.2302705e-09
2.2303182e-09
2.2303318e-09
2.2303342e-09
2.2303346e-09
2.2303343e-09
2.2303344e-09
2.2303344e-09
2.2304219e-09
2.2306175e-09
2.2305611e-09
2.2306593e-09
2.2310641e-09
2.229766e-09
2.2294879e-09
2.2296594e-09
2.2299441e-09
2.2301598e-09
2.2302703e-09
2.2303182e-09
2.2303319e-09
2.2303349e-09
2.2303343e-09
2.2303347e-09
2.2303344e-09
2.2303343e-09
2.2305047e-09
2.2305963e-09
2.2305742e-09
2.2306768e-09
2.2312682e-09
2.230595e-09
2.2297601e-09
2.2294876e-09
2.2296595e-09
2.2299444e-09
2.2301592e-09
2.2302712e-09
2.2303185e-09
2.2303319e-09
2.2303342e-09
2.2303347e-09
2.2303345e-09
2.2303344e-09
2.2303364e-09
2.2305724e-09
2.2305715e-09
2.2306042e-09
2.2307312e-09
2.2312149e-09
2.2305931e-09
2.2297574e-09
2.2294873e-09
2.2296592e-09
2.229948e-09
2.2301589e-09
2.2302711e-09
2.2303195e-09
2.2303319e-09
2.2303337e-09
2.2303342e-09
2.2303342e-09
2.2303344e-09
2.2303536e-09
2.230609e-09
2.2305608e-09
2.2306285e-09
2.2308032e-09
2.2316534e-09
2.2305817e-09
2.2297539e-09
2.2294868e-09
2.2296596e-09
2.2299452e-09
2.2301592e-09
2.2302716e-09
2.2303185e-09
2.2303318e-09
2.2303339e-09
2.2303341e-09
2.2303345e-09
2.2303343e-09
2.2304083e-09
2.2306211e-09
2.2305592e-09
2.230639e-09
2.2308796e-09
2.2316335e-09
2.230577e-09
2.2297504e-09
2.2294862e-09
2.2296601e-09
2.2299455e-09
2.2301603e-09
2.2302707e-09
2.2303192e-09
2.2303318e-09
2.2303342e-09
2.2303344e-09
2.2303349e-09
2.2303342e-09
2.2304899e-09
2.2306219e-09
2.2305663e-09
2.230641e-09
2.2309664e-09
2.2316264e-09
2.2316239e-09
2.2305714e-09
2.229747e-09
2.2294855e-09
2.2296609e-09
2.2299463e-09
2.230161e-09
2.2302706e-09
2.230319e-09
2.2303322e-09
2.2303341e-09
2.2303342e-09
2.2303344e-09
2.2303345e-09
2.2305624e-09
2.2306059e-09
2.2305928e-09
2.2306429e-09
2.2310909e-09
2.2316069e-09
2.2316202e-09
2.2305652e-09
2.2297434e-09
2.2294847e-09
2.2296606e-09
2.2299483e-09
2.2301615e-09
2.230271e-09
2.2303183e-09
2.2303317e-09
2.2303343e-09
2.230334e-09
2.2303351e-09
2.2303348e-09
2.2306049e-09
2.2305772e-09
2.2306203e-09
2.2306719e-09
2.2312961e-09
2.2315872e-09
2.231616e-09
2.2305591e-09
2.2297398e-09
2.229484e-09
2.2296598e-09
2.2299472e-09
2.230162e-09
2.2302719e-09
2.2303189e-09
2.2303316e-09
2.2303342e-09
2.2303342e-09
2.2303342e-09
2.2303456e-09
2.2306209e-09
2.2305611e-09
2.2306361e-09
2.2307323e-09
2.2312273e-09
2.229336e-09
2.2315967e-09
2.2316117e-09
2.2305531e-09
2.2297359e-09
2.2294835e-09
2.2296598e-09
2.2299483e-09
2.2301625e-09
2.230271e-09
2.2303194e-09
2.2303329e-09
2.2303342e-09
2.2303344e-09
2.2303339e-09
2.2303886e-09
2.2306234e-09
2.2305571e-09
2.2306406e-09
2.2308034e-09
2.2293041e-09
2.2316015e-09
2.2316067e-09
2.2305467e-09
2.229732e-09
2.2294828e-09
2.22966e-09
2.2299498e-09
2.2301629e-09
2.230273e-09
2.2303181e-09
2.2303322e-09
2.2303342e-09
2.2303344e-09
2.230334e-09
2.2304659e-09
2.2306131e-09
2.2305585e-09
2.2306401e-09
2.2308777e-09
2.2266103e-09
2.2293249e-09
2.2316062e-09
2.2316012e-09
2.23054e-09
2.2297281e-09
2.2294819e-09
2.2296605e-09
2.2299513e-09
2.2301634e-09
2.230272e-09
2.2303181e-09
2.2303318e-09
2.2303342e-09
2.2303344e-09
2.2303342e-09
2.2305447e-09
2.2305842e-09
2.2305769e-09
2.2306465e-09
2.2309633e-09
2.2265829e-09
2.229344e-09
2.2316097e-09
2.2315958e-09
2.2305331e-09
2.2297241e-09
2.2294811e-09
2.2296626e-09
2.2299528e-09
2.2301638e-09
2.2302715e-09
2.2303189e-09
2.2303322e-09
2.2303341e-09
2.2303344e-09
2.2303404e-09
2.2305979e-09
2.2305637e-09
2.2306057e-09
2.2306865e-09
2.2310886e-09
2.2253408e-09
2.2265867e-09
2.2293617e-09
2.2316138e-09
2.2315904e-09
2.2305263e-09
2.2297202e-09
2.2294802e-09
2.2296655e-09
2.2299534e-09
2.2301645e-09
2.2302718e-09
2.2303189e-09
2.2303316e-09
2.2303345e-09
2.2303344e-09
2.2303719e-09
2.2306217e-09
2.2305569e-09
2.2306274e-09
2.2307498e-09
2.2312945e-09
2.2230975e-09
2.2253382e-09
2.2265993e-09
2.2293773e-09
2.231618e-09
2.231585e-09
2.2305198e-09
2.2297161e-09
2.2294788e-09
2.2296686e-09
2.2299541e-09
2.2301654e-09
2.2302725e-09
2.230319e-09
2.2303314e-09
2.2303348e-09
2.2303343e-09
2.2304413e-09
2.2306274e-09
2.2305564e-09
2.2306376e-09
2.2308199e-09
2.2312097e-09
2.2230693e-09
2.2253341e-09
2.2266083e-09
2.2293942e-09
2.2316227e-09
2.2315792e-09
2.2305132e-09
2.2297119e-09
2.229477e-09
2.2296705e-09
2.2299546e-09
2.2301659e-09
2.2302715e-09
2.2303183e-09
2.2303316e-09
2.2303341e-09
2.2303343e-09
2.2305229e-09
2.2306243e-09
2.2305676e-09
2.2306391e-09
2.2308921e-09
2.218543e-09
2.223077e-09
2.2253278e-09
2.2266148e-09
2.2294108e-09
2.2316275e-09
2.2315726e-09
2.2305065e-09
2.2297079e-09
2.2294766e-09
2.2296714e-09
2.2299555e-09
2.2301662e-09
2.2302716e-09
2.2303183e-09
2.2303328e-09
2.2303343e-09
2.2303342e-09
2.2305846e-09
2.2305988e-09
2.2305944e-09
2.2306381e-09
2.2309764e-09
2.2185097e-09
2.2230618e-09
2.2253205e-09
2.2266191e-09
2.2294276e-09
2.2316326e-09
2.2315652e-09
2.2304996e-09
2.2297041e-09
2.2294767e-09
2.2296725e-09
2.2299563e-09
2.2301664e-09
2.2302722e-09
2.2303197e-09
2.2303322e-09
2.2303342e-09
2.2303365e-09
2.2306164e-09
2.2305712e-09
2.2306189e-09
2.2306522e-09
2.2311025e-09
2.2144784e-09
2.2185288e-09
2.2230434e-09
2.2253145e-09
2.2266234e-09
2.2294437e-09
2.2316384e-09
2.231557e-09
2.2304924e-09
2.2297001e-09
2.2294781e-09
2.2296747e-09
2.2299567e-09
2.2301667e-09
2.2302718e-09
2.230319e-09
2.2303318e-09
2.2303348e-09
2.2303543e-09
2.2306262e-09
2.2305584e-09
2.230634e-09
2.2306991e-09
2.2313086e-09
2.2128034e-09
2.2144811e-09
2.2185256e-09
2.2230209e-09
2.2253083e-09
2.2266289e-09
2.2294604e-09
2.2316452e-09
2.2315483e-09
2.2304848e-09
2.229696e-09
2.2294781e-09
2.2296766e-09
2.229957e-09
2.2301672e-09
2.2302732e-09
2.2303185e-09
2.2303327e-09
2.2303342e-09
2.2304093e-09
2.2306265e-09
2.2305556e-09
2.2306393e-09
2.2307634e-09
2.2311444e-09
2.2128494e-09
2.2144683e-09
2.2185185e-09
2.2229976e-09
2.2253019e-09
2.2266347e-09
2.2294772e-09
2.2316524e-09
2.2315393e-09
2.2304771e-09
2.2296921e-09
2.2294762e-09
2.2296769e-09
2.2299574e-09
2.2301678e-09
2.2302723e-09
2.2303191e-09
2.2303324e-09
2.2303342e-09
2.2304904e-09
2.2306093e-09
2.2305583e-09
2.2306385e-09
2.2308321e-09
2.2204805e-09
2.2129026e-09
2.2144542e-09
2.218518e-09
2.2229743e-09
2.2252962e-09
2.22664e-09
2.2294944e-09
2.2316601e-09
2.2315297e-09
2.2304691e-09
2.2296882e-09
2.2294758e-09
2.2296757e-09
2.2299578e-09
2.2301684e-09
2.2302725e-09
2.230319e-09
2.230332e-09
2.2303346e-09
2.2305636e-09
2.2305796e-09
2.2305778e-09
2.2306384e-09
2.2309022e-09
2.2425523e-09
2.2204774e-09
2.2129677e-09
2.2144423e-09
2.2185189e-09
2.2229539e-09
2.2252918e-09
2.226645e-09
2.2295122e-09
2.2316682e-09
2.2315197e-09
2.2304613e-09
2.2296844e-09
2.2294759e-09
2.2296758e-09
2.2299582e-09
2.2301688e-09
2.2302739e-09
2.2303193e-09
2.2303323e-09
2.2303434e-09
2.2306089e-09
2.230562e-09
2.2306046e-09
2.2306616e-09
2.2309858e-09
2.2650516e-09
2.2425255e-09
2.2205035e-09
2.2130271e-09
2.2144308e-09
2.2185187e-09
2.2229348e-09
2.2252896e-09
2.22665e-09
2.2295302e-09
2.2316767e-09
2.2315092e-09
2.2304531e-09
2.2296803e-09
2.2294764e-09
2.229676e-09
2.2299591e-09
2.2301691e-09
2.2302735e-09
2.2303194e-09
2.2303327e-09
2.230382e-09
2.2306276e-09
2.2305567e-09
2.2306251e-09
2.2307135e-09
2.2311132e-09
2.2648428e-09
2.2650183e-09
2.2423916e-09
2.2205313e-09
2.2130895e-09
2.2144168e-09
2.2185176e-09
2.2229152e-09
2.2252897e-09
2.2266559e-09
2.2295478e-09
2.2316853e-09
2.2314985e-09
2.2304451e-09
2.2296761e-09
2.2294766e-09
2.2296757e-09
2.22996e-09
2.2301696e-09
2.2302731e-09
2.2303194e-09
2.2303318e-09
2.2304558e-09
2.2306314e-09
2.2305567e-09
2.2306365e-09
2.2307785e-09
2.23132e-09
2.2332992e-09
2.264839e-09
2.2647502e-09
2.2422699e-09
2.2205687e-09
2.2131603e-09
2.2144004e-09
2.2185155e-09
2.2228946e-09
2.2252895e-09
2.2266638e-09
2.2295657e-09
2.2316938e-09
2.2314875e-09
2.2304369e-09
2.229672e-09
2.2294763e-09
2.2296756e-09
2.2299608e-09
2.2301703e-09
2.2302731e-09
2.2303195e-09
2.2303318e-09
2.2305357e-09
2.2306256e-09
2.2305687e-09
2.2306396e-09
2.2308457e-09
2.2311397e-09
2.2137324e-09
2.2337248e-09
2.2646641e-09
2.2645065e-09
2.2421563e-09
2.2206074e-09
2.2132418e-09
2.2143828e-09
2.2185125e-09
2.2228743e-09
2.2252888e-09
2.2266732e-09
2.2295846e-09
2.2317024e-09
2.2314763e-09
2.2304285e-09
2.229668e-09
2.2294759e-09
2.2296772e-09
2.2299617e-09
2.2301712e-09
2.2302741e-09
2.2303194e-09
2.2303352e-09
2.2305937e-09
2.2305973e-09
2.2305939e-09
2.2306386e-09
2.2309139e-09
2.1956639e-09
2.213715e-09
2.2340448e-09
2.2644574e-09
2.2642427e-09
2.2420455e-09
2.2206484e-09
2.213328e-09
2.2143662e-09
2.2185058e-09
2.2228553e-09
2.2252878e-09
2.2266795e-09
2.229606e-09
2.2317111e-09
2.2314645e-09
2.2304204e-09
2.229664e-09
2.2294751e-09
2.2296783e-09
2.2299627e-09
2.2301719e-09
2.2302738e-09
2.2303194e-09
2.2303567e-09
2.230623e-09
2.2305705e-09
2.2306165e-09
2.230641e-09
2.2309968e-09
2.1553073e-09
2.1956447e-09
2.2137023e-09
2.234396e-09
2.2641905e-09
2.2639532e-09
2.2419372e-09
2.2206951e-09
2.2134174e-09
2.2143516e-09
2.2184975e-09
2.2228376e-09
2.2252874e-09
2.2266829e-09
2.2296289e-09
2.23172e-09
2.2314527e-09
2.2304122e-09
2.22966e-09
2.2294749e-09
2.2296791e-09
2.2299638e-09
2.2301725e-09
2.2302733e-09
2.2303196e-09
2.230416e-09
2.230632e-09
2.2305585e-09
2.2306317e-09
2.230671e-09
2.2311254e-09
2.0976017e-09
2.1553072e-09
2.1954135e-09
2.2137268e-09
2.2347459e-09
2.2638832e-09
2.2636309e-09
2.2418335e-09
2.2207479e-09
2.213511e-09
2.2143407e-09
2.2184889e-09
2.2228207e-09
2.2252904e-09
2.2266856e-09
2.2296517e-09
2.2317289e-09
2.2314409e-09
2.2304036e-09
2.2296559e-09
2.2294749e-09
2.22968e-09
2.2299648e-09
2.2301731e-09
2.2302738e-09
2.2303203e-09
2.2304982e-09
2.2306322e-09
2.2305559e-09
2.2306392e-09
2.2307256e-09
2.231333e-09
1.9881235e-09
2.0358871e-09
2.0979292e-09
2.1553065e-09
2.1952557e-09
2.2138522e-09
2.235102e-09
2.2635386e-09
2.263275e-09
2.2417348e-09
2.2208058e-09
2.2136077e-09
2.2143357e-09
2.2184803e-09
2.2228046e-09
2.2252882e-09
2.2266903e-09
2.2296732e-09
2.2317374e-09
2.2314293e-09
2.2303951e-09
2.2296519e-09
2.2294745e-09
2.229681e-09
2.2299659e-09
2.2301736e-09
2.2302738e-09
2.2303309e-09
2.2305705e-09
2.2306144e-09
2.2305581e-09
2.2306401e-09
2.2307904e-09
2.2311374e-09
1.9754074e-09
1.9880991e-09
2.0359822e-09
2.0981186e-09
2.1552831e-09
2.1951209e-09
2.2140217e-09
2.2354512e-09
2.2631555e-09
2.2628899e-09
2.2416376e-09
2.2208674e-09
2.2137038e-09
2.214335e-09
2.2184698e-09
2.2227897e-09
2.2252891e-09
2.226698e-09
2.2296943e-09
2.2317453e-09
2.2314177e-09
2.2303863e-09
2.229648e-09
2.2294753e-09
2.229682e-09
2.2299671e-09
2.230174e-09
2.2302744e-09
2.2303724e-09
2.2306151e-09
2.2305832e-09
2.2305756e-09
2.2306385e-09
2.230856e-09
2.0149532e-09
1.9950762e-09
1.9758098e-09
1.9880856e-09
2.0360419e-09
2.0983077e-09
2.1552107e-09
2.1950041e-09
2.2142677e-09
2.2357907e-09
2.262734e-09
2.2624795e-09
2.2415367e-09
2.2209346e-09
2.2137977e-09
2.2143384e-09
2.2184576e-09
2.2227762e-09
2.2252875e-09
2.2267062e-09
2.2297162e-09
2.2317528e-09
2.2314063e-09
2.2303775e-09
2.2296439e-09
2.2294751e-09
2.2296831e-09
2.2299685e-09
2.2301745e-09
2.2302749e-09
2.2304469e-09
2.2306336e-09
2.2305638e-09
2.2306006e-09
2.2306456e-09
2.2309225e-09
2.0253037e-09
2.0040603e-09
2.0120309e-09
2.0150333e-09
1.9955856e-09
1.9760981e-09
1.9880757e-09
2.0361518e-09
2.0984747e-09
2.155093e-09
2.1948923e-09
2.2145799e-09
2.2361191e-09
2.26228e-09
2.2620458e-09
2.241431e-09
2.2210102e-09
2.213889e-09
2.2143462e-09
2.218445e-09
2.2227647e-09
2.2252857e-09
2.2267126e-09
2.2297393e-09
2.2317602e-09
2.2313948e-09
2.2303686e-09
2.2296398e-09
2.2294752e-09
2.2296844e-09
2.2299698e-09
2.2301751e-09
2.2302756e-09
2.2305249e-09
2.2306374e-09
2.2305572e-09
2.2306209e-09
2.2306822e-09
2.2310056e-09
2.0993737e-09
2.0537221e-09
2.0224986e-09
2.003672e-09
2.01201e-09
2.0151001e-09
1.9958945e-09
1.9764084e-09
1.9880808e-09
2.0363064e-09
2.0986364e-09
2.1549276e-09
2.1947928e-09
2.2149583e-09
2.2364337e-09
2.2618009e-09
2.2615864e-09
2.2413228e-09
2.2210999e-09
2.2139761e-09
2.2143582e-09
2.2184337e-09
2.2227544e-09
2.2252835e-09
2.2267183e-09
2.2297628e-09
2.2317672e-09
2.2313831e-09
2.2303599e-09
2.2296354e-09
2.2294749e-09
2.2296854e-09
2.2299709e-09
2.2301756e-09
2.2302787e-09
2.2305813e-09
2.2306311e-09
2.2305564e-09
2.2306342e-09
2.2307392e-09
2.2311357e-09
2.1524441e-09
2.1418274e-09
2.1628703e-09
2.1485411e-09
2.0861965e-09
2.0462953e-09
2.0188395e-09
2.002591e-09
2.0118784e-09
2.0152408e-09
1.9962504e-09
1.9767116e-09
1.9881059e-09
2.0365101e-09
2.0987954e-09
2.1547103e-09
2.1947239e-09
2.2154073e-09
2.2367263e-09
2.2613034e-09
2.2611077e-09
2.2412153e-09
2.2212061e-09
2.2140578e-09
2.2143751e-09
2.2184243e-09
2.2227442e-09
2.2252815e-09
2.2267247e-09
2.2297868e-09
2.231774e-09
2.2313712e-09
2.2303507e-09
2.2296313e-09
2.2294747e-09
2.2296862e-09
2.2299722e-09
2.2301761e-09
2.2303003e-09
2.2306103e-09
2.2306009e-09
2.2305637e-09
2.2306403e-09
2.2308037e-09
2.2313444e-09
2.4303698e-09
2.3218364e-09
2.2341671e-09
2.1899508e-09
2.1674466e-09
2.1512826e-09
2.1464172e-09
2.1680664e-09
2.1385638e-09
2.0721271e-09
2.0388784e-09
2.0161278e-09
2.001961e-09
2.011849e-09
2.0153818e-09
1.9966174e-09
1.9770369e-09
1.9881574e-09
2.0367683e-09
2.0989565e-09
2.1544464e-09
2.1946936e-09
2.2159339e-09
2.2369909e-09
2.2607864e-09
2.2606122e-09
2.2411068e-09
2.2213301e-09
2.2141362e-09
2.2143951e-09
2.2184169e-09
2.2227347e-09
2.2252797e-09
2.2267323e-09
2.2298107e-09
2.2317807e-09
2.2313591e-09
2.2303415e-09
2.2296273e-09
2.2294744e-09
2.2296869e-09
2.2299736e-09
2.2301764e-09
2.2303588e-09
2.2306197e-09
2.230571e-09
2.2305857e-09
2.2306406e-09
2.2308675e-09
2.2312069e-09
2.4278304e-09
2.386884e-09
2.3606596e-09
2.3469226e-09
2.3883167e-09
2.4819769e-09
2.5248949e-09
2.5000762e-09
2.4291623e-09
2.3209645e-09
2.2340781e-09
2.1890632e-09
2.1633351e-09
2.1507705e-09
2.1558034e-09
2.1688611e-09
2.1230824e-09
2.0592449e-09
2.032998e-09
2.0141757e-09
2.0016268e-09
2.0118753e-09
2.0155144e-09
1.9969963e-09
1.9773741e-09
1.9882219e-09
2.0370733e-09
2.0991128e-09
2.154129e-09
2.1946879e-09
2.2165259e-09
2.2372254e-09
2.2602443e-09
2.2600995e-09
2.240995e-09
2.2214674e-09
2.2142154e-09
2.2144153e-09
2.2184104e-09
2.2227268e-09
2.2252777e-09
2.2267414e-09
2.2298344e-09
2.2317872e-09
2.2313469e-09
2.2303323e-09
2.2296232e-09
2.2294742e-09
2.2296879e-09
2.2299747e-09
2.2301775e-09
2.2304402e-09
2.2306202e-09
2.2305563e-09
2.2306086e-09
2.2306391e-09
2.2309327e-09
3.6040316e-09
2.9595496e-09
2.8673049e-09
2.8642269e-09
2.8698628e-09
2.8680829e-09
2.8483091e-09
2.7928554e-09
2.7277269e-09
2.7212169e-09
2.6548842e-09
2.4381777e-09
2.4490425e-09
2.62668e-09
2.5924388e-09
2.3979893e-09
2.4304019e-09
2.7077444e-09
3.1113484e-09
3.1686631e-09
3.0775615e-09
2.8850009e-09
2.6764343e-09
2.5067683e-09
2.4357856e-09
2.4017278e-09
2.4112958e-09
2.4545515e-09
2.4423014e-09
2.4176645e-09
2.4494898e-09
2.4570924e-09
2.4268831e-09
2.3862811e-09
2.3600877e-09
2.3463891e-09
2.387771e-09
2.481411e-09
2.5241602e-09
2.4990553e-09
2.4258778e-09
2.3186193e-09
2.2321745e-09
2.181758e-09
2.1599657e-09
2.1534735e-09
2.1644883e-09
2.1666471e-09
2.1064906e-09
2.0481227e-09
2.0284774e-09
2.0128964e-09
2.0014864e-09
2.0119171e-09
2.0156634e-09
1.9974063e-09
1.9777208e-09
1.9882912e-09
2.0374267e-09
2.0992619e-09
2.1537617e-09
2.1947121e-09
2.2171728e-09
2.2374345e-09
2.2596664e-09
2.2595728e-09
2.2408785e-09
2.2216106e-09
2.2142957e-09
2.2144342e-09
2.2184051e-09
2.2227205e-09
2.2252748e-09
2.2267525e-09
2.229858e-09
2.2317932e-09
2.2313348e-09
2.2303228e-09
2.2296188e-09
2.229474e-09
2.2296894e-09
2.2299758e-09
2.2301861e-09
2.230513e-09
2.2306046e-09
2.2305525e-09
2.2306258e-09
2.2306509e-09
2.2310156e-09
7.1110166e-09
3.5851227e-09
2.9572456e-09
2.866248e-09
2.8631919e-09
2.8688462e-09
2.867047e-09
2.8472403e-09
2.7916371e-09
2.7266147e-09
2.7204096e-09
2.6538232e-09
2.4367622e-09
2.4482542e-09
2.6264816e-09
2.5918809e-09
2.3968377e-09
2.4296924e-09
2.7072953e-09
3.1108439e-09
3.1675543e-09
3.0759757e-09
2.8832756e-09
2.6749771e-09
2.5057625e-09
2.4350781e-09
2.4011809e-09
2.4107552e-09
2.4540728e-09
2.4417247e-09
2.4168702e-09
2.4489611e-09
2.4564345e-09
2.4239993e-09
2.3835299e-09
2.3572797e-09
2.3438532e-09
2.3851998e-09
2.4787334e-09
2.5213612e-09
2.4956482e-09
2.4227206e-09
2.3158613e-09
2.2275608e-09
2.1760778e-09
2.1593127e-09
2.1652501e-09
2.1687583e-09
2.1518405e-09
2.0887793e-09
2.0392055e-09
2.0252376e-09
2.0121305e-09
2.0014441e-09
2.0119876e-09
2.0158242e-09
1.9978432e-09
1.9780647e-09
1.9883678e-09
2.0378138e-09
2.0993991e-09
2.1533493e-09
2.194771e-09
2.2178756e-09
2.23762e-09
2.2590443e-09
2.2590337e-09
2.240758e-09
2.2217576e-09
2.2143746e-09
2.2144521e-09
2.2184009e-09
2.222715e-09
2.2252715e-09
2.226765e-09
2.2298818e-09
2.2317985e-09
2.2313226e-09
2.2303135e-09
2.2296145e-09
2.2294732e-09
2.2296912e-09
2.229977e-09
2.2302236e-09
2.2305595e-09
2.2305739e-09
2.2305524e-09
2.2306369e-09
2.2306911e-09
2.231147e-09
2.1062258e-07
2.8876992e-08
7.014634e-09
3.5319156e-09
2.9404489e-09
2.8619023e-09
2.8596532e-09
2.8653379e-09
2.8635112e-09
2.8436464e-09
2.7878813e-09
2.7230097e-09
2.7171787e-09
2.650132e-09
2.432909e-09
2.4455865e-09
2.6250522e-09
2.5888774e-09
2.393133e-09
2.4272331e-09
2.7070085e-09
3.108581e-09
3.1634144e-09
3.0709901e-09
2.8781884e-09
2.6704862e-09
2.5021024e-09
2.4320962e-09
2.3984149e-09
2.4081168e-09
2.4514089e-09
2.4388743e-09
2.4136738e-09
2.4461452e-09
2.4534821e-09
2.4210445e-09
2.3808634e-09
2.3545462e-09
2.3414134e-09
2.3828507e-09
2.4762997e-09
2.5186167e-09
2.4920894e-09
2.4189128e-09
2.3115508e-09
2.2216131e-09
2.1738414e-09
2.1634598e-09
2.1779812e-09
2.1693333e-09
2.1280962e-09
2.0728095e-09
2.0325571e-09
2.0230489e-09
2.011773e-09
2.0014879e-09
2.0120808e-09
2.0160117e-09
1.998302e-09
1.9783961e-09
1.9884654e-09
2.0382375e-09
2.099525e-09
2.152895e-09
2.1948771e-09
2.2186422e-09
2.2377855e-09
2.2583698e-09
2.2584806e-09
2.2406361e-09
2.2219113e-09
2.2144512e-09
2.214471e-09
2.2183999e-09
2.2227095e-09
2.2252685e-09
2.2267783e-09
2.229906e-09
2.2318034e-09
2.2313103e-09
2.2303042e-09
2.2296104e-09
2.2294725e-09
2.2296931e-09
2.2299782e-09
2.2302958e-09
2.2305802e-09
2.2305536e-09
2.2305652e-09
2.2306412e-09
2.2307492e-09
2.2313565e-09
1.5665354e-05
1.8890706e-06
2.0981278e-07
2.8034256e-08
6.8646533e-09
3.4968594e-09
2.9245783e-09
2.855699e-09
2.8558655e-09
2.861911e-09
2.8598816e-09
2.8399352e-09
2.7840698e-09
2.7192753e-09
2.7137706e-09
2.6465117e-09
2.4291556e-09
2.4425248e-09
2.6228046e-09
2.585817e-09
2.3896137e-09
2.4242755e-09
2.7046474e-09
3.1051305e-09
3.1589713e-09
3.0661472e-09
2.8733599e-09
2.6661738e-09
2.4984075e-09
2.4290419e-09
2.3955432e-09
2.4053505e-09
2.4486567e-09
2.4360443e-09
2.4105713e-09
2.4433995e-09
2.4507516e-09
2.4180026e-09
2.3781599e-09
2.3517446e-09
2.338836e-09
2.3803508e-09
2.4735618e-09
2.5152478e-09
2.4877374e-09
2.4143162e-09
2.3067658e-09
2.218386e-09
2.1741165e-09
2.1790518e-09
2.1841063e-09
2.159781e-09
2.1044835e-09
2.0606064e-09
2.027962e-09
2.0217167e-09
2.0116593e-09
2.0016269e-09
2.012187e-09
2.0162145e-09
1.9987711e-09
1.9787203e-09
1.9885768e-09
2.0386985e-09
2.099624e-09
2.1523936e-09
2.1950371e-09
2.2194747e-09
2.237935e-09
2.2576409e-09
2.2579122e-09
2.2405128e-09
2.2220765e-09
2.2145253e-09
2.2144909e-09
2.2183997e-09
2.2227043e-09
2.225266e-09
2.2267917e-09
2.2299313e-09
2.2318079e-09
2.2312978e-09
2.2302945e-09
2.2296065e-09
2.2294722e-09
2.229695e-09
2.2299814e-09
2.2303766e-09
2.230585e-09
2.2305459e-09
2.2305895e-09
2.2306406e-09
2.2308129e-09
2.2312079e-09
0.00014498551
9.6752066e-05
5.3227812e-05
1.5727975e-05
1.8743295e-06
2.0463707e-07
2.8045059e-08
6.9843039e-09
3.5335662e-09
2.929689e-09
2.8520704e-09
2.8517466e-09
2.8576287e-09
2.8555611e-09
2.8355115e-09
2.7794466e-09
2.7148552e-09
2.7098043e-09
2.6420696e-09
2.4245721e-09
2.4390549e-09
2.6204813e-09
2.5820503e-09
2.3852653e-09
2.4209671e-09
2.7027128e-09
3.1017093e-09
3.1540142e-09
3.0606048e-09
2.8678314e-09
2.6613699e-09
2.4943336e-09
2.4257496e-09
2.3924932e-09
2.4024813e-09
2.445857e-09
2.4331515e-09
2.4075068e-09
2.4406812e-09
2.4481328e-09
2.4150688e-09
2.375526e-09
2.3489329e-09
2.3360638e-09
2.3775526e-09
2.4702421e-09
2.5111167e-09
2.4830812e-09
2.4102342e-09
2.3040933e-09
2.2179052e-09
2.1845209e-09
2.193117e-09
2.1848028e-09
2.1299965e-09
2.0843171e-09
2.052143e-09
2.0250855e-09
2.0210006e-09
2.0116431e-09
2.0018766e-09
2.0123248e-09
2.0164323e-09
1.9992445e-09
1.9790214e-09
1.9886915e-09
2.0392003e-09
2.0997001e-09
2.1518389e-09
2.1952537e-09
2.2203782e-09
2.238074e-09
2.2568642e-09
2.2573323e-09
2.2403876e-09
2.2222529e-09
2.2145987e-09
2.2145099e-09
2.2184032e-09
2.2226989e-09
2.2252641e-09
2.2268053e-09
2.229958e-09
2.2318117e-09
2.2312852e-09
2.230285e-09
2.2296024e-09
2.2294723e-09
2.2296965e-09
2.2299999e-09
2.2304392e-09
2.2305815e-09
2.2305447e-09
2.2306114e-09
2.2306399e-09
2.2308753e-09
0.0003175682
0.00028289804
0.00024207744
0.00019612302
0.00014696994
9.783583e-05
5.3621636e-05
1.5352507e-05
1.7814292e-06
2.0040597e-07
2.9468967e-08
7.3968082e-09
3.628482e-09
2.9481219e-09
2.8508886e-09
2.847414e-09
2.8528839e-09
2.8509408e-09
2.8309976e-09
2.7749679e-09
2.7104666e-09
2.7056915e-09
2.6379893e-09
2.4205112e-09
2.4353491e-09
2.6173957e-09
2.5785001e-09
2.3814777e-09
2.4175458e-09
2.6998144e-09
3.0977731e-09
3.1492258e-09
3.05562e-09
2.8629061e-09
2.6570501e-09
2.4905961e-09
2.4227223e-09
2.3897034e-09
2.3998149e-09
2.4432893e-09
2.430505e-09
2.4047186e-09
2.4381005e-09
2.445661e-09
2.4121571e-09
2.3727694e-09
2.3458747e-09
2.3328119e-09
2.3742002e-09
2.4663834e-09
2.5071682e-09
2.4797522e-09
2.4084717e-09
2.303746e-09
2.2245243e-09
2.2020979e-09
2.1978714e-09
2.1711881e-09
2.0982851e-09
2.0694398e-09
2.0466742e-09
2.0235484e-09
2.020674e-09
2.011776e-09
2.002142e-09
2.0124778e-09
2.0166594e-09
1.9997355e-09
1.9792859e-09
1.9888025e-09
2.0397422e-09
2.0997514e-09
2.1512275e-09
2.1955126e-09
2.2213477e-09
2.2382018e-09
2.2560478e-09
2.256745e-09
2.2402596e-09
2.2224354e-09
2.2146744e-09
2.2145266e-09
2.2184094e-09
2.2226936e-09
2.2252628e-09
2.2268196e-09
2.2299858e-09
2.2318143e-09
2.2312727e-09
2.2302752e-09
2.2295984e-09
2.2294718e-09
2.2296976e-09
2.2300534e-09
2.2304744e-09
2.2305545e-09
2.2305489e-09
2.2306276e-09
2.2306569e-09
2.2309392e-09
0.00040411492
0.00039229499
0.000375364
0.0003526064
0.0003235391
0.00028795377
0.00024612107
0.00019904938
0.00014878934
9.8606447e-05
5.3656515e-05
1.4929852e-05
1.7156226e-06
2.0320182e-07
3.2405096e-08
8.1222894e-09
3.7760787e-09
2.9663123e-09
2.8487308e-09
2.8430173e-09
2.848506e-09
2.8466573e-09
2.8269202e-09
2.7710716e-09
2.7064547e-09
2.7019601e-09
2.6343165e-09
2.4169297e-09
2.4321482e-09
2.6149046e-09
2.5753062e-09
2.3779434e-09
2.4148021e-09
2.6981503e-09
3.0949727e-09
3.1451342e-09
3.0510236e-09
2.8582458e-09
2.6530286e-09
2.487201e-09
2.4200232e-09
2.3872045e-09
2.3973814e-09
2.440931e-09
2.4279461e-09
2.4019616e-09
2.4354241e-09
2.4429962e-09
2.4088724e-09
2.3695324e-09
2.3423756e-09
2.3292435e-09
2.3709536e-09
2.4633794e-09
2.5050638e-09
2.4786751e-09
2.4086484e-09
2.3098843e-09
2.2425338e-09
2.2110469e-09
2.1954703e-09
2.1341359e-09
2.0746117e-09
2.0598191e-09
2.0434598e-09
2.0229186e-09
2.0205823e-09
2.0120547e-09
2.0024279e-09
2.0126522e-09
2.0169063e-09
2.0002181e-09
1.9795066e-09
1.9889117e-09
2.0403327e-09
2.0997762e-09
2.1505655e-09
2.1958031e-09
2.2223755e-09
2.2383211e-09
2.2551902e-09
2.2561508e-09
2.2401297e-09
2.2226165e-09
2.2147573e-09
2.2145412e-09
2.2184183e-09
2.2226897e-09