/*--------------------------------*- C++ -*----------------------------------*\
| =========                 |                                                 |
| \\      /  F ield         | OpenFOAM: The Open Source CFD Toolbox           |
|  \\    /   O peration     | Version:  2506                                  |
|   \\  /    A nd           | Website:  www.openfoam.com                      |
|    \\/     M anipulation  |                                                 |
\*---------------------------------------------------------------------------*/
FoamFile
{
    version     2.0;
    format      ascii;
    arch        "LSB;label=32;scalar=64";
    class       volScalarField;
    location    "0.65";
    object      omega;
}
// * * * * * * * * * * * * * * * * * * * * * * * * * * * * * * * * * * * * * //

dimensions      [0 0 -1 0 0 0 0];

internalField   nonuniform List<scalar> 
1375
(
74.969332
66.817462
57.762694
49.947214
43.952791
39.520833
76.720226
72.379737
64.409908
55.702021
48.280149
42.625551
38.45234
35.346945
32.989838
31.171974
29.761883
28.67411
27.847717
27.232742
26.786376
26.471271
26.254788
26.110257
26.017523
74.215658
69.944293
62.16444
53.787457
46.725348
41.375839
37.434683
34.501408
32.274265
30.558183
29.230727
28.21158
27.442294
26.874164
26.4653
26.179373
25.985061
25.857175
25.777127
25.732476
25.714112
25.710799
25.716992
25.734716
25.760471
25.792475
25.829948
71.831543
67.61608
60.033426
51.982047
45.257303
40.186533
36.456233
33.680982
31.575696
29.957375
28.71099
27.760151
27.047979
26.526478
26.154439
25.896567
25.723095
25.610651
25.542461
25.5073
25.495574
25.49494
25.505512
25.52671
25.555259
25.589692
25.629309
25.673906
25.723559
25.778596
25.839458
25.906696
25.981102
26.063781
69.554832
65.368262
57.984981
50.258363
43.857445
39.047654
35.513434
32.886373
30.897297
29.373785
28.206892
27.323227
26.666958
26.190674
25.853917
25.62255
25.468532
25.370503
25.313547
25.287164
25.280308
25.28284
25.297677
25.321957
25.35302
25.389658
25.431246
25.47764
25.529023
25.585799
25.648415
25.717409
25.793575
25.878031
25.972223
26.077873
26.196959
26.331781
67.384287
63.195657
56.005426
48.59957
42.51261
37.952423
34.605271
32.12058
30.244296
28.813402
27.724044
26.90527
26.302211
25.868344
25.564315
25.357367
25.221288
25.136718
25.090316
25.07165
25.068314
25.074729
25.093381
25.12039
25.153703
25.192334
25.235746
25.283844
25.336881
25.395303
25.45957
25.530224
25.608067
25.694223
25.790106
25.89743
26.018107
26.15442
26.309309
26.486608
26.691452
65.324816
61.110281
54.099452
47.002303
41.217348
36.897294
33.730977
31.384956
29.619177
28.279002
27.264932
26.508142
25.954903
25.560053
25.285781
25.100975
24.981298
24.909222
24.87256
24.860469
24.859707
24.870503
24.892459
24.921889
24.95723
24.997677
25.042787
25.092505
25.147119
25.207094
25.272909
25.345129
25.424561
25.512324
25.609796
25.718623
25.840735
25.978406
26.134528
26.312988
26.518923
26.759397
27.044418
27.388519
63.380384
59.131724
52.285621
45.47777
39.977571
35.885656
32.892715
30.680756
29.022326
27.770199
26.828635
26.130708
25.623989
25.264995
25.017769
24.853043
24.748384
24.687923
24.660068
24.652731
24.654915
24.669919
24.694728
24.726325
24.763505
24.805617
24.852308
24.903561
24.959671
25.021106
25.088364
25.16204
25.242957
25.332211
25.431131
25.541343
25.664749
25.80361
25.960816
26.140307
26.347194
26.588441
26.873791
27.217617
27.637964
28.1547
61.549024
57.273521
50.582436
44.042602
38.806433
34.927302
32.097197
30.011866
28.455174
27.286537
26.413537
25.770942
25.30761
24.98176
24.759343
24.613011
24.522217
24.472465
24.452188
24.44822
24.454019
24.472719
24.500019
24.533568
24.572417
24.616053
24.664212
24.716905
24.774418
24.837208
24.905791
24.980808
25.063098
25.15373
25.254004
25.365476
25.490014
25.62992
25.788103
25.968496
26.176207
26.418111
26.703717
27.047119
27.466157
27.980308
28.62933
29.614036
59.825702
55.54327
49.004964
42.71442
37.721012
34.037128
31.356359
29.386982
27.923281
26.830887
26.020523
25.428539
25.004955
24.709481
24.509784
24.380334
24.302315
24.26227
24.248404
24.246924
24.256793
24.278666
24.308172
24.343493
24.383863
24.428885
24.478387
24.53241
24.591223
24.65526
24.725065
24.80132
24.884881
24.976788
25.078285
25.190893
25.316467
25.457305
25.616344
25.797534
26.005938
26.248402
26.534213
26.877107
27.294576
27.805794
28.449242
29.43069
33.041118
58.206305
53.943534
47.560675
41.504117
36.733805
33.227619
30.681516
28.815536
27.433842
26.408187
25.652558
25.104945
24.716461
24.448035
24.268731
24.154587
24.088254
24.056912
24.04796
24.048909
24.062929
24.087539
24.119036
24.155979
24.197737
24.244016
24.294732
24.349972
24.409982
24.475172
24.546105
24.623497
24.708214
24.801281
24.903913
25.017572
25.144073
25.285761
25.445576
25.627427
25.836415
26.079326
26.365282
26.707594
27.123279
27.631362
28.269179
29.247489
32.919272
56.68822
52.470228
46.244933
40.408804
35.844346
32.500282
30.075418
28.300822
26.990122
26.021234
25.311711
24.801423
24.442676
24.197451
24.03592
23.935398
23.879602
23.855762
23.850296
23.854368
23.872126
23.899139
23.932455
23.970899
24.013939
24.061368
24.113184
24.169521
24.230626
24.296887
24.368865
24.447298
24.533066
24.627184
24.730836
24.845451
24.972847
25.115337
25.275836
25.458252
25.667693
25.910904
26.196888
26.538523
26.952295
27.457199
28.089462
29.064486
32.802014
55.267081
51.109878
45.039694
39.410661
35.03724
31.842608
29.528355
27.835711
26.587239
25.666948
24.996157
24.516909
24.182909
23.957188
23.810896
23.722355
23.675871
23.658283
23.655415
23.663168
23.684177
23.713329
23.748315
23.788156
23.832396
23.880897
23.933721
23.991052
24.053151
24.120396
24.193338
24.272723
24.359442
24.454502
24.559066
24.674559
24.802787
24.946025
25.107171
25.290082
25.499851
25.743199
26.029019
26.369846
26.781605
27.283314
27.910187
28.881647
32.687646
53.933608
49.840251
43.917643
38.482655
34.287801
31.232823
29.021691
27.4049
26.213274
25.336596
24.699899
24.247545
23.934806
23.725867
23.592855
23.514906
23.476579
23.464246
23.46339
23.475149
23.498967
23.530046
23.566571
23.607711
23.653079
23.702587
23.756345
23.814579
23.877576
23.945719
24.019548
24.099802
24.187369
24.283261
24.388638
24.504921
24.633913
24.777868
24.939622
25.122968
25.332959
25.576268
25.861686
26.201494
26.611145
27.109539
27.731067
28.699121
32.577884
52.672744
48.635303
42.850298
37.597464
33.570678
30.647779
28.534846
26.990767
25.853853
25.019115
24.41498
23.988007
23.695066
23.501608
23.380812
23.312586
23.281544
23.273104
23.274511
23.29016
23.316399
23.349223
23.387173
23.429533
23.475974
23.526439
23.581075
23.64014
23.703951
23.772907
23.847544
23.928585
24.016907
24.113527
24.219618
24.33661
24.466298
24.610908
24.773213
24.956939
25.167063
25.410199
25.694974
26.033505
26.440893
26.935688
27.551838
28.51703
32.46924
51.466195
47.472117
41.815764
36.73521
32.867425
30.070214
28.051969
26.579323
25.497239
24.705227
24.134537
23.733569
23.460682
23.282655
23.173831
23.114892
23.090312
23.084737
23.089075
23.10814
23.136441
23.170815
23.21007
23.253574
23.301038
23.352426
23.407897
23.467736
23.532293
23.601988
23.677361
23.759114
23.848109
23.945369
24.052085
24.169701
24.300007
24.445193
24.60798
24.792028
25.002208
25.245048
25.529005
25.866014
26.270912
26.761753
27.372416
28.335319
32.364805
50.296583
46.335867
40.802748
35.886844
32.169857
29.492256
27.565556
26.163717
25.137523
24.390135
23.854931
23.481658
23.229962
23.067974
22.971288
22.921342
22.902488
22.899209
22.907039
22.929016
22.959097
22.99483
23.035233
23.079769
23.128183
23.180447
23.236717
23.297292
23.36255
23.432929
23.508974
23.591371
23.680975
23.778809
23.886078
24.004244
24.135082
24.280753
24.443947
24.628243
24.838405
25.080816
25.363824
25.699148
26.101365
26.587891
27.192741
28.153851
32.259935
49.15204
45.222851
39.812007
35.054875
31.480823
28.916471
27.077673
25.745468
24.775719
24.074435
23.57642
23.232287
23.002779
22.85737
22.772917
22.731602
22.717903
22.716566
22.728215
22.752638
22.784275
22.821229
22.862659
22.908091
22.95733
23.01038
23.067398
23.128677
23.194601
23.265625
23.3423
23.425301
23.515472
23.613832
23.721603
23.840246
23.971531
24.117602
24.281122
24.465585
24.675627
24.917486
25.199443
25.533027
25.932424
26.414242
27.012815
27.972322
32.15715
48.028423
44.138188
38.852697
34.249805
30.811146
28.353388
26.597966
25.332864
24.418475
23.763056
23.302345
22.987496
22.780214
22.651275
22.578761
22.545567
22.536154
22.536928
22.552427
22.578909
22.61191
22.649947
22.692285
22.738519
22.788486
22.842211
22.899885
22.961801
23.028344
23.099979
23.177252
23.260828
23.351537
23.450397
23.558636
23.677705
23.809357
23.955734
24.119488
24.304039
24.513852
24.755027
25.035848
25.367657
25.764104
26.240867
26.832819
27.790808
32.057176
46.928786
43.09064
37.936022
33.484002
30.173935
27.816195
26.138861
24.936804
24.07465
23.462621
23.037203
22.750029
22.56373
22.450311
22.38895
22.363013
22.356819
22.360509
22.379432
22.407719
22.44197
22.480984
22.524127
22.571052
22.621634
22.675935
22.73416
22.796625
22.863717
22.9359
23.013718
23.097835
23.189067
23.288409
23.397079
23.516526
23.648485
23.79508
23.958966
24.1435
24.352976
24.593366
24.872935
25.202895
25.596325
26.067908
26.6532
27.609912
31.964488
45.861378
42.088396
37.070044
32.766063
29.578622
27.314753
25.709901
24.565789
23.751174
23.178284
22.784467
22.521978
22.354416
22.25491
22.203474
22.183681
22.179967
22.187178
22.209004
22.238896
22.274307
22.314238
22.358124
22.405667
22.456783
22.511571
22.570259
22.633179
22.700729
22.773372
22.851662
22.93626
23.027965
23.127752
23.236813
23.356578
23.488767
23.635516
23.799457
23.983878
24.192926
24.43246
24.710653
25.038598
25.428891
25.895447
26.474204
27.430302
31.878516
44.83642
41.136342
36.256659
32.097397
29.027233
26.851707
25.313974
24.222536
23.450305
22.911684
22.545173
22.303903
22.1525
22.065057
22.022127
22.007412
22.005717
22.016715
22.040984
22.072326
22.108814
22.149597
22.194181
22.242304
22.293914
22.349132
22.408216
22.471514
22.539438
22.612456
22.691119
22.776097
22.868187
22.968346
23.077731
23.197744
23.330107
23.476939
23.640845
23.825045
24.033592
24.272194
24.548917
24.874675
25.261662
25.723236
26.295723
27.251726
31.795576
43.863013
40.236387
35.492773
31.473118
28.514827
26.422654
24.947329
23.903964
23.169603
22.660976
22.31798
22.094865
21.95734
21.880304
21.844659
21.834103
21.834103
21.848989
21.875306
21.907954
21.945431
21.987006
22.032235
22.080901
22.132978
22.188599
22.24804
22.311663
22.379887
22.453191
22.532135
22.617389
22.709737
22.810149
22.919761
23.039951
23.172416
23.319267
23.483048
23.666921
23.874889
24.112527
24.387692
24.711073
25.0945
25.550956
26.1175
27.074269
31.718389
42.94602
39.38724
34.772035
30.88466
28.03249
26.019162
24.602444
23.603698
22.903961
22.422321
22.100215
21.893145
21.767901
21.700082
21.670739
21.663209
21.665551
21.68391
21.711957
21.745766
21.784135
21.826419
21.872238
21.92141
21.973929
22.029938
22.089708
22.153614
22.222083
22.295608
22.374748
22.460154
22.552645
22.653178
22.762893
22.883169
23.015664
23.162441
23.326022
23.509481
23.716768
23.953376
24.226918
24.547755
24.927359
25.378412
25.939222
26.897763
31.645802
42.084883
38.585038
34.087309
30.323268
27.571137
25.632593
24.271588
23.315195
22.648169
22.191857
21.889219
21.697037
21.583164
21.523787
21.499924
21.494698
21.500076
21.521397
21.55096
21.585821
21.624978
21.667872
21.714195
21.763814
21.816734
21.873096
21.933175
21.997334
22.066
22.139682
22.218944
22.304445
22.396981
22.497488
22.607175
22.727437
22.85987
23.006488
23.169748
23.352675
23.559187
23.794656
24.066488
24.384707
24.76027
25.205598
25.760787
26.721344
31.5731
27.123911
25.256631
23.949225
23.033857
22.398634
21.966968
21.683248
21.50548
21.402515
21.35101
21.331956
21.328671
21.337578
21.361377
21.392279
21.428088
21.467953
21.511396
21.558157
21.608131
21.661362
21.718023
21.778372
21.842753
21.911589
21.985378
22.064711
22.150242
22.242744
22.343193
22.452745
22.572827
22.705112
22.851482
23.014306
23.196574
23.402159
23.636336
23.906338
24.221879
24.593328
25.032691
25.581726
26.544123
31.505146
21.746604
21.481636
21.318075
21.225678
21.181516
21.166767
21.165244
21.177872
21.203718
21.235821
21.272507
21.313019
21.35693
21.404038
21.454297
21.507776
21.564653
21.625207
21.689771
21.758749
21.832626
21.911986
21.997505
22.08995
22.190268
22.299641
22.419503
22.551505
22.697518
22.859814
23.041291
23.245751
23.47843
23.746459
24.059285
24.426646
24.859933
25.402383
26.367056
31.443911
21.00441
21.020748
21.048287
21.081451
21.118916
21.160008
21.204348
21.251765
21.302238
21.355873
21.412886
21.473557
21.538237
21.607321
21.681277
21.760669
21.846159
21.938532
22.038736
22.147914
22.267472
22.399099
22.544654
22.706309
22.886873
23.09006
23.321027
23.586916
23.89695
24.260288
24.687616
25.223469
26.190632
31.387275
20.967173
21.008782
21.053493
21.101163
21.151801
21.205553
21.262647
21.323378
21.388096
21.457216
21.531196
21.610597
21.696082
21.788418
21.888517
21.997507
22.11676
22.247929
22.392922
22.553859
22.733429
22.935237
23.164357
23.427941
23.735057
24.094384
24.515967
25.045293
26.014838
31.334496
21.0029
21.056727
21.113855
21.17459
21.239296
21.308392
21.382376
21.461777
21.547232
21.639511
21.739507
21.84832
21.967275
22.097976
22.242315
22.402435
22.580948
22.781328
23.008581
23.269786
23.573871
23.929086
24.344999
24.86795
25.840039
31.288343
21.091843
21.160881
21.234781
21.314121
21.399536
21.491746
21.59162
21.700227
21.818861
21.949068
22.092711
22.251947
22.429372
22.628352
22.853818
23.112705
23.413671
23.764559
24.17467
24.691373
25.666343
31.252567
21.167607
21.252892
21.344969
21.444682
21.553056
21.671332
21.801019
21.94394
22.102265
22.278603
22.476278
22.700108
22.956793
23.254609
23.600931
24.004992
24.515482
25.493724
31.220341
21.298623
21.406677
21.524532
21.65366
21.795845
21.953249
22.128506
22.324961
22.547294
22.801913
23.096599
23.438205
23.835927
24.339967
25.321027
31.189947
21.378443
21.50693
21.648304
21.804711
21.978875
22.174154
22.395114
22.647792
22.939382
23.276228
23.667434
24.164751
25.148961
31.170344
21.656536
21.829538
22.023612
22.243259
22.494104
22.782691
23.114802
23.49948
23.98999
24.977821
31.150612
21.873202
22.091511
22.340606
22.626309
22.953732
23.33195
23.815711
24.808119
31.143868
22.187228
22.470081
22.79286
23.164601
23.641809
24.639581
31.132642
22.31378
22.631881
22.997203
23.468187
24.472956
31.103387
22.82977
23.294861
24.308528
31.17019
23.122108
24.146525
31.212121
23.986956
31.205781
)
;

boundaryField
{
    Side
    {
        type            empty;
    }
    Inlet
    {
        type            fixedValue;
        value           uniform 60.24606;
    }
    Airfoil
    {
        type            omegaWallFunction;
        blending        binomial;
        n               2;
        value           nonuniform List<scalar> 0();
    }
    Outlet
    {
        type            inletOutlet;
        inletValue      nonuniform List<scalar> 0();
        value           nonuniform List<scalar> 0();
    }
    procBoundary4to3
    {
        type            processor;
        value           nonuniform List<scalar> 
57
(
77.771774
69.446686
60.01777
51.763613
45.386764
40.663881
36.225375
36.225375
33.727561
31.801995
30.306444
29.149003
28.265214
27.603106
27.118543
26.77307
26.532929
26.370326
26.263868
25.962758
25.962758
25.93672
25.929767
25.932141
25.945983
25.968668
25.99804
26.033199
25.872641
25.872641
25.920477
25.973677
26.032687
26.098081
26.170649
26.251485
26.1562
26.1562
26.260096
26.377423
26.510581
26.485276
26.485276
26.661266
26.864861
26.931018
26.931018
27.215575
27.559721
27.809871
27.809871
28.328821
28.809149
28.809149
29.797492
33.168805
33.168805
)
;
    }
    procBoundary4to5
    {
        type            processor;
        value           nonuniform List<scalar> 
64
(
37.824288
33.432077
29.781991
29.781991
26.687352
24.888232
23.632784
22.757623
22.153817
22.153817
21.530909
21.284477
21.134832
21.052566
21.015213
21.004275
21.004275
20.8464
20.865947
20.894898
20.929006
20.929006
20.817106
20.85918
20.904224
20.952118
20.952118
20.855422
20.909312
20.966453
21.027173
21.027173
20.945693
21.014631
21.088405
21.088405
21.022257
21.107302
21.199151
21.199151
21.153441
21.26109
21.26109
21.233057
21.360758
21.501194
21.501194
21.508735
21.680422
21.680422
21.72315
21.939978
21.939978
22.033961
22.033961
22.157391
22.470769
22.470769
22.662563
22.662563
22.950492
22.950492
23.829691
31.158764
)
;
    }
    procBoundary4to11
    {
        type            processor;
        value           nonuniform List<scalar> 
26
(
76.770925
74.168676
71.726852
69.444793
67.315763
65.326898
63.460522
61.697919
60.02153
58.418692
56.884746
55.423224
54.040875
52.740053
51.513262
50.343358
49.209003
48.093305
46.990141
45.905712
44.854562
43.852193
42.908868
42.027207
79.370662
79.370662
)
;
    }
    procBoundary4to12
    {
        type            processor;
        value           uniform 41.274582;
    }
}


// ************************************************************************* //
