/*--------------------------------*- C++ -*----------------------------------*\
| =========                 |                                                 |
| \\      /  F ield         | OpenFOAM: The Open Source CFD Toolbox           |
|  \\    /   O peration     | Version:  2506                                  |
|   \\  /    A nd           | Website:  www.openfoam.com                      |
|    \\/     M anipulation  |                                                 |
\*---------------------------------------------------------------------------*/
FoamFile
{
    version     2.0;
    format      ascii;
    arch        "LSB;label=32;scalar=64";
    class       volScalarField;
    location    "0.65";
    object      rho;
}
// * * * * * * * * * * * * * * * * * * * * * * * * * * * * * * * * * * * * * //

dimensions      [1 -3 0 0 0 0 0];

internalField   nonuniform List<scalar> 
1375
(
0.66534832
0.66531654
0.66533212
0.66538341
0.66544033
0.66548824
0.66541587
0.66535994
0.66532693
0.6653412
0.6653902
0.66544419
0.66548928
0.66552198
0.66554356
0.66555678
0.66556449
0.66556902
0.6655721
0.66557449
0.66557677
0.66557928
0.66558218
0.66558527
0.66558831
0.66543784
0.66537926
0.6653444
0.66535636
0.66540228
0.66545274
0.66549447
0.6655242
0.66554335
0.6655547
0.66556099
0.66556461
0.66556694
0.66556881
0.66557077
0.66557309
0.66557578
0.66557866
0.66558138
0.66558377
0.66558589
0.66558782
0.66558961
0.66559121
0.66559267
0.66559412
0.66559537
0.66546492
0.6654039
0.66536729
0.66537676
0.66541944
0.66546627
0.66550449
0.66553109
0.66554754
0.66555665
0.66556122
0.66556365
0.66556499
0.66556615
0.66556769
0.66556979
0.66557239
0.66557515
0.66557769
0.66557979
0.66558151
0.66558292
0.66558415
0.66558535
0.66558664
0.6655881
0.66558967
0.6655911
0.66559235
0.66559329
0.6655939
0.66559426
0.66559588
0.66559968
0.66549669
0.66543382
0.66539596
0.66540322
0.66544287
0.66548626
0.66552115
0.66554474
0.6655585
0.66556522
0.66556803
0.66556886
0.66556885
0.665569
0.66556986
0.66557155
0.66557391
0.66557656
0.66557904
0.66558107
0.66558257
0.66558368
0.66558449
0.66558509
0.66558561
0.66558627
0.66558729
0.66558883
0.66559062
0.66559237
0.66559409
0.66559599
0.66559851
0.6656019
0.66560637
0.66561045
0.66561273
0.66561253
0.66553216
0.66546865
0.66543059
0.66543654
0.66547391
0.66551452
0.66554663
0.66556761
0.66557894
0.66558341
0.66558437
0.66558316
0.66558134
0.66557992
0.66557944
0.66558007
0.66558165
0.6655838
0.66558605
0.66558803
0.66558953
0.66559042
0.66559079
0.66559079
0.66559055
0.66559024
0.66559019
0.66559089
0.66559254
0.66559493
0.6655973
0.66559966
0.66560288
0.66560715
0.66561115
0.66561291
0.66561272
0.66561017
0.66560747
0.66561112
0.66562614
0.66556949
0.66550635
0.66546917
0.66547512
0.66551133
0.66555019
0.66558041
0.66559954
0.66560905
0.66561188
0.66561115
0.66560791
0.66560403
0.66560054
0.66559809
0.66559694
0.66559699
0.66559794
0.66559934
0.66560077
0.66560193
0.66560257
0.66560254
0.66560185
0.66560058
0.66559914
0.66559803
0.66559778
0.66559877
0.66560095
0.66560368
0.66560671
0.66560954
0.6656118
0.6656146
0.66561596
0.66561424
0.66561089
0.66560643
0.66560635
0.66561529
0.66563929
0.66567119
0.66570863
0.66561019
0.66554768
0.66551178
0.66551866
0.66555442
0.66559214
0.66562103
0.66563879
0.66564699
0.66564883
0.6656467
0.66564194
0.66563637
0.66563102
0.6656265
0.66562314
0.66562096
0.66561979
0.66561935
0.66561931
0.6656193
0.66561909
0.66561843
0.66561722
0.66561549
0.66561322
0.66561082
0.66560919
0.66560896
0.66561046
0.66561316
0.6656156
0.66561706
0.66561784
0.66561844
0.66561922
0.66561829
0.66561473
0.66560943
0.66560612
0.66561125
0.66563165
0.66566148
0.6656958
0.665741
0.66580455
0.66565249
0.66559123
0.66555716
0.6655659
0.66560186
0.6656389
0.66566666
0.66568315
0.66569019
0.66569124
0.66568795
0.66568203
0.66567521
0.66566839
0.66566217
0.66565686
0.66565253
0.6656491
0.6656464
0.66564432
0.66564263
0.66564098
0.66563915
0.66563701
0.66563461
0.66563185
0.66562892
0.66562655
0.66562552
0.66562577
0.66562712
0.6656284
0.66562778
0.66562632
0.66562483
0.6656232
0.66562243
0.66562095
0.66561666
0.66561175
0.66561186
0.66562434
0.66564855
0.66568355
0.66573015
0.66580259
0.66588474
0.66595933
0.66568558
0.66562793
0.66559752
0.66560984
0.66564699
0.66568408
0.6657114
0.66572729
0.66573379
0.66573449
0.66573076
0.6657244
0.665717
0.66570938
0.6657021
0.66569548
0.66568959
0.66568442
0.66567987
0.66567587
0.66567234
0.66566898
0.66566568
0.66566233
0.66565878
0.66565528
0.66565198
0.66564868
0.6656461
0.66564437
0.66564354
0.66564342
0.66564185
0.66563791
0.66563292
0.66562902
0.66562727
0.66562723
0.66562546
0.66562039
0.66561477
0.66561877
0.66563661
0.66567201
0.66572372
0.66580149
0.6658897
0.66595697
0.66608219
0.665702
0.66564905
0.6656241
0.6656421
0.66568208
0.66572058
0.66574871
0.66576524
0.66577236
0.66577361
0.6657706
0.66576482
0.6657578
0.66575039
0.66574304
0.66573592
0.66572906
0.66572246
0.66571615
0.66571018
0.66570464
0.66569963
0.66569496
0.66569042
0.66568585
0.66568134
0.66567689
0.66567229
0.66566816
0.66566527
0.66566342
0.66566136
0.66565805
0.66565207
0.66564487
0.66563803
0.66563397
0.66563318
0.6656334
0.66562927
0.66562184
0.66561878
0.66562821
0.66566271
0.66571842
0.66579443
0.66587921
0.66594931
0.66604509
0.66570451
0.66565566
0.66563505
0.66565821
0.66570136
0.66574194
0.6657717
0.66578996
0.66579898
0.66580188
0.665801
0.66579722
0.66579198
0.66578604
0.6657797
0.66577299
0.66576595
0.6657586
0.66575107
0.66574375
0.66573686
0.66573056
0.66572489
0.66571963
0.66571468
0.66570975
0.6657046
0.66569939
0.66569435
0.66569011
0.66568653
0.66568253
0.66567737
0.66567037
0.66566088
0.66565066
0.6656434
0.6656413
0.66564147
0.66563814
0.66563022
0.66562299
0.66562644
0.66565473
0.66570875
0.66578046
0.66585905
0.66594078
0.66604038
0.66569577
0.66565035
0.66563452
0.66566267
0.66570871
0.66575111
0.66578219
0.66580162
0.66581186
0.66581608
0.665817
0.66581539
0.66581259
0.66580905
0.66580497
0.66580031
0.66579494
0.66578884
0.6657822
0.66577532
0.66576837
0.66576168
0.66575542
0.6657497
0.6657444
0.66573926
0.66573416
0.66572888
0.66572288
0.66571642
0.66571013
0.66570461
0.66569817
0.66568901
0.66567784
0.66566622
0.66565608
0.66565088
0.66564747
0.66564345
0.66563709
0.6656304
0.66562834
0.66564702
0.66569707
0.66576507
0.66584353
0.66594655
0.6660606
0.66567935
0.66563665
0.66562416
0.66565532
0.66570298
0.66574642
0.66577842
0.66579901
0.6658108
0.66581678
0.66581942
0.66582003
0.6658194
0.66581814
0.66581637
0.66581394
0.66581073
0.66580671
0.66580188
0.66579635
0.66579046
0.66578446
0.66577854
0.66577297
0.66576775
0.66576258
0.66575741
0.66575223
0.66574627
0.6657394
0.66573202
0.66572478
0.66571684
0.66570707
0.6656949
0.66568202
0.66567001
0.66566109
0.66565524
0.66565104
0.6656446
0.66563706
0.66562842
0.66564094
0.66568273
0.66574899
0.66583325
0.66596324
0.66613695
0.66566065
0.66561896
0.6656073
0.66563992
0.66568898
0.66573324
0.66576598
0.66578757
0.66580059
0.66580775
0.66581165
0.66581388
0.66581504
0.6658155
0.66581536
0.66581468
0.66581339
0.66581132
0.66580832
0.66580454
0.66580027
0.66579579
0.66579126
0.66578691
0.66578298
0.6657794
0.66577554
0.6657711
0.66576579
0.66575948
0.66575287
0.66574552
0.66573777
0.66572892
0.66571658
0.66570179
0.6656866
0.66567448
0.66566535
0.66565686
0.66564828
0.66564011
0.6656322
0.66563801
0.66566977
0.66573432
0.6658332
0.66599973
0.66614388
0.66563693
0.66559793
0.66558902
0.66562371
0.66567329
0.66571783
0.66575065
0.66577214
0.66578529
0.66579334
0.66579845
0.66580193
0.66580473
0.66580724
0.66580924
0.66581049
0.66581077
0.66581021
0.66580894
0.66580706
0.66580448
0.66580147
0.66579851
0.66579593
0.66579375
0.66579202
0.66579046
0.66578856
0.66578578
0.66578146
0.66577588
0.6657697
0.66576306
0.66575355
0.66574011
0.66572374
0.66570537
0.66568933
0.66567674
0.66566542
0.66565454
0.66564498
0.665638
0.66563984
0.66566104
0.66572425
0.66584349
0.66603638
0.66615663
0.66560744
0.66557188
0.66556663
0.66560476
0.66565617
0.66570173
0.66573536
0.66575779
0.6657719
0.66578063
0.66578628
0.66579044
0.66579398
0.66579733
0.66580063
0.66580366
0.66580614
0.66580782
0.66580857
0.66580827
0.66580721
0.66580579
0.6658039
0.66580211
0.6658009
0.66580073
0.66580146
0.66580252
0.66580304
0.66580179
0.66579812
0.66579281
0.6657855
0.66577506
0.66576184
0.66574547
0.66572653
0.66570817
0.66569226
0.66567799
0.66566349
0.6656515
0.6656423
0.66564444
0.66566059
0.66572489
0.66585816
0.66604625
0.66613086
0.66557542
0.66554217
0.66553954
0.66558025
0.66563326
0.66568
0.66571478
0.66573848
0.66575406
0.66576448
0.66577199
0.66577799
0.66578333
0.66578836
0.66579311
0.66579732
0.66580066
0.66580306
0.66580461
0.66580559
0.66580609
0.66580617
0.66580613
0.66580581
0.66580566
0.66580608
0.66580685
0.66580885
0.66581154
0.66581353
0.66581273
0.66580928
0.66580371
0.66579592
0.66578501
0.66576884
0.66574937
0.66572802
0.66570871
0.66569177
0.66567461
0.66565828
0.66564719
0.66565114
0.6656696
0.66573233
0.66585674
0.66600147
0.6660785
0.66554426
0.66551186
0.66551015
0.6655514
0.66560443
0.66565126
0.66568642
0.66571089
0.66572762
0.66573962
0.66574909
0.66575732
0.66576503
0.66577244
0.66577939
0.66578562
0.66579094
0.66579528
0.66579866
0.66580123
0.66580325
0.66580474
0.66580606
0.66580774
0.66580891
0.66580911
0.66581074
0.6658132
0.66581545
0.66581777
0.66581951
0.66581997
0.66581849
0.66581364
0.6658053
0.66579168
0.66577314
0.66575026
0.66572742
0.66570662
0.66568683
0.66566685
0.66565379
0.66566049
0.66568285
0.66573788
0.66583317
0.66596945
0.66611133
0.66551855
0.66548559
0.6654834
0.66552371
0.66557531
0.66562074
0.66565492
0.66567888
0.66569566
0.66570822
0.66571872
0.66572847
0.66573812
0.66574786
0.66575746
0.66576659
0.66577496
0.66578225
0.66578825
0.66579306
0.66579695
0.66580028
0.66580341
0.66580658
0.66580999
0.66581364
0.66581614
0.66581779
0.66581968
0.66582238
0.66582552
0.66582706
0.66582717
0.66582632
0.66582208
0.66581244
0.66579693
0.66577554
0.66574971
0.66572418
0.66569939
0.66567763
0.66566407
0.66567151
0.66569642
0.66573571
0.66580605
0.66595661
0.66612131
0.6654979
0.66546337
0.66546019
0.66549911
0.66554899
0.66559262
0.66562518
0.66564776
0.66566344
0.66567525
0.66568548
0.66569557
0.66570613
0.6657172
0.66572849
0.66573969
0.66575046
0.66576061
0.66576983
0.66577788
0.66578457
0.66579005
0.66579487
0.6657996
0.66580482
0.66581031
0.66581505
0.6658188
0.66582211
0.66582435
0.66582602
0.66582912
0.66583333
0.6658361
0.66583573
0.66583079
0.66581927
0.66579929
0.66577294
0.66574482
0.66571603
0.66569077
0.6656746
0.66568337
0.66570673
0.66572308
0.66576952
0.66592183
0.66610486
0.66548234
0.6654462
0.665442
0.66547939
0.66552757
0.66556944
0.66560016
0.665621
0.66563513
0.66564549
0.66565428
0.66566338
0.66567366
0.66568464
0.66569621
0.66570817
0.66571982
0.66573106
0.66574193
0.66575204
0.66576142
0.66577009
0.66577762
0.66578432
0.66579114
0.66579842
0.66580587
0.66581265
0.66581758
0.66582067
0.66582293
0.66582607
0.66583122
0.66583723
0.66584107
0.66584049
0.66583349
0.66581686
0.66579347
0.66576386
0.66573245
0.66570231
0.66568424
0.66569257
0.66570907
0.66570624
0.66573461
0.66588451
0.66602111
0.66547246
0.66543518
0.66543027
0.66546622
0.66551264
0.66555262
0.66558141
0.66560022
0.6656123
0.66562079
0.66562807
0.6656354
0.66564335
0.66565262
0.66566314
0.6656744
0.66568607
0.66569778
0.66570896
0.66572006
0.66573095
0.66574107
0.66575047
0.66575924
0.6657678
0.6657768
0.66578665
0.66579632
0.66580497
0.66581176
0.6658165
0.66581955
0.66582338
0.66583015
0.66583705
0.66584122
0.66583884
0.66582898
0.66580961
0.66577992
0.6657463
0.66571235
0.66569262
0.66569513
0.66570472
0.66568985
0.66570964
0.66587158
0.66605511
0.66546725
0.66542878
0.66542317
0.6654578
0.66550248
0.66554058
0.66556765
0.66558494
0.66559545
0.66560216
0.6656073
0.66561229
0.66561806
0.66562513
0.66563348
0.66564298
0.66565359
0.66566465
0.66567592
0.66568674
0.66569682
0.66570691
0.66571703
0.66572669
0.6657364
0.66574658
0.66575824
0.66577114
0.66578424
0.66579556
0.66580417
0.6658098
0.66581416
0.66582133
0.66583097
0.66583941
0.66584199
0.66583784
0.66582261
0.66579717
0.66576149
0.66572401
0.66569993
0.66569378
0.66569469
0.66567603
0.66570129
0.66587394
0.66606455
0.66546418
0.66542486
0.66541904
0.66545315
0.66549686
0.6655335
0.66555901
0.66557491
0.66558421
0.66558969
0.6655934
0.66559659
0.66560018
0.66560458
0.66560998
0.66561673
0.66562465
0.66563372
0.6656433
0.66565322
0.66566297
0.66567211
0.66568136
0.66569092
0.6657006
0.66571145
0.66572408
0.66573903
0.66575537
0.66577142
0.66578494
0.66579565
0.66580327
0.66581137
0.66582311
0.66583426
0.66584247
0.66584346
0.66583473
0.66581436
0.66577928
0.66573947
0.66570792
0.66569332
0.66568499
0.66567073
0.66570688
0.66587766
0.66605263
0.66549309
0.66552879
0.6655532
0.66556814
0.66557673
0.66558168
0.66558481
0.66558731
0.66558969
0.66559214
0.66559489
0.66559809
0.66560233
0.66560775
0.6656147
0.66562287
0.66563156
0.66564018
0.66564873
0.66565739
0.66566638
0.66567673
0.66568901
0.66570417
0.6657224
0.66574163
0.66575954
0.66577427
0.66578579
0.66579707
0.66581108
0.66582644
0.66583883
0.66584529
0.66584236
0.66582764
0.66579676
0.66575658
0.66571809
0.66569649
0.6656829
0.66567573
0.6657206
0.66589349
0.66615186
0.6655771
0.66557994
0.66558196
0.66558367
0.66558532
0.66558686
0.66558846
0.66559028
0.66559278
0.66559641
0.66560137
0.66560765
0.6656147
0.66562218
0.66562999
0.665638
0.66564674
0.66565739
0.66567164
0.66568967
0.66571085
0.66573203
0.66575102
0.66576765
0.66578149
0.6657966
0.66581495
0.66583337
0.66584566
0.66584875
0.66583836
0.66581514
0.66577736
0.66573436
0.66570535
0.66569089
0.66568667
0.66573042
0.66591041
0.66623946
0.66558599
0.66558651
0.66558709
0.66558821
0.6655904
0.66559402
0.66559898
0.6656048
0.66561137
0.66561838
0.66562606
0.66563522
0.66564627
0.6656613
0.66568127
0.66570464
0.66572875
0.66574999
0.66576835
0.66578657
0.66580703
0.66582871
0.66584711
0.66585906
0.6658583
0.66584031
0.66580338
0.66575707
0.66572105
0.66570332
0.66569792
0.6657336
0.66587979
0.66604719
0.66559008
0.66559107
0.66559364
0.66559766
0.66560295
0.66560884
0.66561427
0.66561994
0.6656283
0.66564026
0.66565793
0.66568172
0.66570748
0.66573197
0.66575449
0.66577559
0.66579874
0.66582363
0.66584752
0.66586521
0.66587148
0.66586094
0.66582797
0.66578345
0.66574412
0.6657212
0.66571263
0.66572595
0.66582556
0.66594594
0.66560104
0.66560532
0.6656103
0.66561517
0.66561964
0.66562659
0.66564004
0.66565927
0.66568356
0.66571024
0.66573438
0.66575618
0.66577901
0.66580477
0.66583224
0.66585712
0.66586955
0.665868
0.66584876
0.66580972
0.66576854
0.66574
0.66572657
0.6657297
0.66583021
0.66600819
0.66561568
0.66561852
0.66562284
0.66563359
0.66565263
0.66567516
0.66569939
0.66572426
0.66574828
0.66577636
0.66580776
0.66583756
0.66586186
0.66587314
0.6658666
0.66583673
0.6657945
0.66576161
0.66574933
0.66574737
0.66585253
0.66605641
0.66561065
0.6656225
0.66564329
0.66566763
0.66569278
0.66572
0.66575131
0.66578624
0.66582219
0.6658548
0.66587787
0.66588547
0.6658688
0.66582759
0.66578842
0.66577538
0.66577739
0.66588311
0.66599915
0.66564685
0.66567375
0.66570252
0.66573498
0.66577094
0.6658097
0.6658487
0.66588158
0.66589798
0.66589441
0.66585925
0.66581192
0.66579472
0.6657982
0.66588773
0.66603921
0.66568929
0.66572132
0.66575749
0.66579633
0.66583739
0.6658708
0.66589428
0.66590076
0.66587838
0.66583091
0.66580433
0.66581617
0.66593314
0.66611927
0.66577124
0.6658087
0.66584593
0.66587895
0.66589573
0.66588977
0.66585065
0.6658149
0.66581923
0.66593547
0.66612773
0.66581909
0.66585737
0.66588519
0.66589569
0.66587093
0.6658315
0.66582008
0.66593307
0.66611316
0.66586209
0.66588165
0.66587446
0.6658422
0.66581904
0.6659238
0.66605626
0.66584844
0.66585395
0.66583145
0.66580771
0.66590321
0.66602017
0.66581853
0.66580179
0.66587223
0.66591065
0.66583101
0.66588144
0.66590264
0.66592562
0.66600628
)
;

boundaryField
{
    Side
    {
        type            empty;
    }
    Inlet
    {
        type            calculated;
        value           nonuniform List<scalar> 
32
(
0.6657236
0.66571405
0.66570931
0.66571254
0.66571224
0.66570775
0.66570343
0.66569872
0.66569445
0.66568519
0.6656929
0.66568454
0.66567734
0.66567118
0.66567
0.66567295
0.66567428
0.6656711
0.66566766
0.66567103
0.66568036
0.66568765
0.66568625
0.665691
0.66569157
0.66569487
0.66571112
0.66572308
0.66572133
0.66571974
0.66573395
0.66574923
)
;
    }
    Airfoil
    {
        type            calculated;
        value           nonuniform List<scalar> 0();
    }
    Outlet
    {
        type            calculated;
        value           nonuniform List<scalar> 0();
    }
    procBoundary4to3
    {
        type            processor;
        value           nonuniform List<scalar> 
57
(
0.66534951
0.66531811
0.66533354
0.66538568
0.66544421
0.66549366
0.66552331
0.66552331
0.66554662
0.66556117
0.66556984
0.66557507
0.66557858
0.66558133
0.66558381
0.66558648
0.66558953
0.66559284
0.6655962
0.66559113
0.66559113
0.66559372
0.6655961
0.66559822
0.66560003
0.66560147
0.66560233
0.66560289
0.66559625
0.66559625
0.66559674
0.6655964
0.66559545
0.66559509
0.6655961
0.66559915
0.66560412
0.66560412
0.66560932
0.66561461
0.66561949
0.66561159
0.66561159
0.66561776
0.66563632
0.66565184
0.66565184
0.66568157
0.66572215
0.66575465
0.66575465
0.66580968
0.66587472
0.66587472
0.66594825
0.6660754
0.6660754
)
;
    }
    procBoundary4to5
    {
        type            processor;
        value           nonuniform List<scalar> 
64
(
0.6654224
0.66541649
0.66545016
0.66545016
0.66549128
0.66552594
0.66554981
0.6655644
0.66557257
0.66557257
0.66557521
0.66557811
0.66558034
0.66558231
0.66558398
0.66558524
0.66558524
0.66559095
0.6655911
0.66559079
0.66559031
0.66559031
0.66559665
0.66559611
0.66559636
0.66559807
0.66559807
0.66560513
0.66560685
0.66561012
0.66561361
0.66561361
0.66560641
0.66560662
0.66560698
0.66560698
0.66559734
0.66560463
0.66562182
0.66562182
0.66563489
0.66566062
0.66566062
0.66567311
0.66570051
0.66573383
0.66573383
0.66573486
0.66577632
0.66577632
0.66579178
0.66583019
0.66583019
0.66582287
0.66582287
0.66581677
0.66583155
0.66583155
0.66583408
0.66583408
0.66587398
0.66587398
0.66595777
0.66599174
)
;
    }
    procBoundary4to11
    {
        type            processor;
        value           nonuniform List<scalar> 
26
(
0.66541725
0.66543986
0.66546749
0.66549937
0.66553435
0.66557077
0.66561051
0.66565216
0.66568522
0.66570182
0.66570457
0.66569581
0.66567997
0.66566143
0.66563705
0.66560663
0.66557424
0.66554314
0.6655174
0.6654968
0.66548106
0.66547074
0.66546557
0.66546276
0.66540179
0.66540179
)
;
    }
    procBoundary4to12
    {
        type            processor;
        value           uniform 0.66546241;
    }
}


// ************************************************************************* //
