/*--------------------------------*- C++ -*----------------------------------*\
| =========                 |                                                 |
| \\      /  F ield         | OpenFOAM: The Open Source CFD Toolbox           |
|  \\    /   O peration     | Version:  2506                                  |
|   \\  /    A nd           | Website:  www.openfoam.com                      |
|    \\/     M anipulation  |                                                 |
\*---------------------------------------------------------------------------*/
FoamFile
{
    version     2.0;
    format      ascii;
    arch        "LSB;label=32;scalar=64";
    class       volScalarField;
    location    "2.3";
    object      T;
}
// * * * * * * * * * * * * * * * * * * * * * * * * * * * * * * * * * * * * * //

dimensions      [0 0 0 1 0 0 0];

internalField   nonuniform List<scalar> 
1375
(
245.64168
245.64446
245.63249
245.62493
245.64071
245.64329
245.63117
245.61615
245.60406
245.59613
245.59163
245.58937
245.62387
245.63966
245.64214
245.62997
245.61506
245.60315
245.59539
245.59101
245.58881
245.58779
245.5873
245.58698
245.5867
245.58644
245.58622
245.62267
245.63846
245.64084
245.62873
245.614
245.6023
245.59472
245.59046
245.58831
245.58728
245.58674
245.58638
245.58607
245.58581
245.58563
245.58553
245.5855
245.58551
245.58554
245.62146
245.63709
245.63933
245.62725
245.61272
245.60127
245.59392
245.58983
245.58778
245.58678
245.58623
245.58583
245.58548
245.58519
245.585
245.58491
245.58489
245.58493
245.58501
245.58509
245.58515
245.58521
245.58528
245.62051
245.63582
245.63783
245.62573
245.61134
245.60008
245.59291
245.58898
245.58706
245.58616
245.58566
245.58528
245.58495
245.58466
245.58447
245.58436
245.58431
245.58432
245.58437
245.58445
245.58456
245.58471
245.58488
245.58503
245.58514
245.5852
245.58529
245.61982
245.63476
245.6365
245.62435
245.61011
245.59902
245.592
245.58816
245.58629
245.58542
245.58496
245.58462
245.58434
245.58411
245.58396
245.58388
245.58384
245.58383
245.58384
245.58388
245.58396
245.5841
245.58432
245.58454
245.58472
245.58488
245.585
245.58512
245.5852
245.58526
245.61927
245.63387
245.6353
245.62306
245.60898
245.59811
245.59128
245.58756
245.58574
245.58487
245.58439
245.58404
245.58374
245.58352
245.5834
245.58335
245.58334
245.58338
245.58342
245.58347
245.58353
245.58363
245.58379
245.584
245.58419
245.58437
245.58455
245.58471
245.58481
245.58484
245.58482
245.58481
245.58486
245.61871
245.63304
245.63418
245.6218
245.60785
245.59721
245.59058
245.58701
245.58529
245.58448
245.58404
245.5837
245.5834
245.58316
245.58301
245.58292
245.58288
245.58289
245.58293
245.58301
245.58311
245.58323
245.58339
245.58359
245.58377
245.58392
245.58404
245.58414
245.58423
245.58429
245.58436
245.58444
245.58447
245.58461
245.58469
245.61816
245.63227
245.63313
245.62058
245.60673
245.5963
245.58987
245.58644
245.5848
245.58405
245.58365
245.58336
245.58311
245.58292
245.58281
245.58273
245.58266
245.5826
245.58256
245.58254
245.58257
245.58266
245.5828
245.58302
245.58326
245.58347
245.58362
245.58371
245.58373
245.58376
245.58388
245.58403
245.58413
245.58416
245.58433
245.58455
245.58476
245.58474
245.61765
245.6316
245.63223
245.61949
245.60569
245.59544
245.58918
245.58587
245.5843
245.58356
245.58317
245.5829
245.58268
245.58253
245.58245
245.58242
245.5824
245.58238
245.58237
245.58234
245.58229
245.58226
245.58225
245.5823
245.58246
245.58271
245.583
245.58321
245.58331
245.58334
245.58341
245.58354
245.5837
245.58383
245.58396
245.58411
245.58437
245.58455
245.58444
245.5841
245.61711
245.63098
245.63143
245.61853
245.60478
245.59468
245.58858
245.58537
245.58384
245.5831
245.58269
245.5824
245.58217
245.58202
245.58195
245.58194
245.58195
245.58198
245.58201
245.58202
245.58201
245.58199
245.58199
245.58204
245.58211
245.58215
245.58218
245.58233
245.5826
245.58282
245.58293
245.58304
245.58324
245.58351
245.5837
245.58383
245.58398
245.58416
245.58412
245.58384
245.58351
245.58329
245.6165
245.63035
245.63065
245.61762
245.60393
245.59398
245.58802
245.58491
245.5834
245.58266
245.58223
245.58192
245.58168
245.58153
245.58146
245.58145
245.58147
245.5815
245.58152
245.58153
245.58153
245.58153
245.58154
245.5816
245.58174
245.58189
245.58191
245.58191
245.5819
245.58196
245.58212
245.58233
245.58266
245.58304
245.58335
245.5836
245.58374
245.5838
245.58372
245.5835
245.58333
245.58317
245.58321
245.6159
245.6297
245.62988
245.61678
245.60316
245.59333
245.58749
245.58445
245.58297
245.58222
245.58176
245.58142
245.58117
245.58102
245.58097
245.58098
245.58104
245.5811
245.58113
245.58113
245.58111
245.58108
245.58105
245.58105
245.5811
245.58125
245.58149
245.58166
245.58172
245.58178
245.58179
245.58174
245.58187
245.58225
245.58283
245.58319
245.58335
245.58345
245.58346
245.58335
245.5831
245.58304
245.58309
245.58345
245.58399
245.61526
245.62894
245.62903
245.61596
245.60248
245.59281
245.5871
245.58411
245.58263
245.58183
245.58131
245.58092
245.58063
245.58046
245.58041
245.58044
245.58052
245.58063
245.58071
245.58076
245.58078
245.58079
245.58078
245.58077
245.58075
245.58073
245.58081
245.58099
245.58119
245.58134
245.5814
245.5815
245.58165
245.5818
245.58216
245.58257
245.58287
245.58303
245.58312
245.58318
245.58306
245.58295
245.58297
245.58332
245.58385
245.58393
245.61461
245.62805
245.62802
245.61502
245.60175
245.59232
245.58679
245.58392
245.58247
245.58165
245.58108
245.58061
245.58025
245.58
245.57988
245.57986
245.57991
245.58001
245.58014
245.58025
245.58032
245.58037
245.5804
245.58044
245.5805
245.58057
245.58063
245.58064
245.5806
245.58058
245.58072
245.58104
245.58129
245.58155
245.58189
245.58221
245.58244
245.58252
245.58257
245.58269
245.58289
245.58303
245.5831
245.58316
245.58358
245.58372
245.58318
245.61391
245.62708
245.62689
245.61394
245.60087
245.59167
245.58634
245.58361
245.58225
245.58148
245.58093
245.58046
245.5801
245.57984
245.57968
245.57959
245.57957
245.57959
245.57965
245.57972
245.57979
245.57986
245.57994
245.58004
245.58014
245.58027
245.58039
245.58047
245.58052
245.58056
245.58052
245.58048
245.58064
245.58102
245.58144
245.58177
245.58206
245.58224
245.58221
245.58204
245.58248
245.58293
245.58311
245.5832
245.58336
245.58334
245.58289
245.57963
245.57819
245.61311
245.62604
245.62565
245.61275
245.59988
245.59088
245.58571
245.5831
245.58183
245.58112
245.58061
245.58018
245.57985
245.57962
245.57947
245.57939
245.57935
245.57936
245.57941
245.57949
245.57955
245.57958
245.57956
245.57953
245.57955
245.57965
245.57988
245.5801
245.58022
245.58033
245.58041
245.5805
245.58058
245.58066
245.58075
245.58108
245.58148
245.58177
245.5819
245.58195
245.58207
245.58229
245.58292
245.58321
245.58328
245.58325
245.58251
245.57918
245.57822
245.61227
245.62497
245.62439
245.61151
245.5988
245.58999
245.58498
245.58248
245.58128
245.58062
245.58016
245.57976
245.57946
245.57924
245.5791
245.579
245.57893
245.57891
245.57894
245.57902
245.57913
245.57926
245.57937
245.57943
245.57943
245.57938
245.57931
245.57935
245.57953
245.5797
245.57996
245.58019
245.58034
245.58046
245.58065
245.58081
245.58082
245.58086
245.58115
245.58157
245.58176
245.58211
245.58259
245.58291
245.58322
245.58317
245.58206
245.5789
245.57797
245.61139
245.62388
245.62308
245.61018
245.59762
245.58899
245.58413
245.58173
245.58061
245.58002
245.57962
245.57931
245.57908
245.57893
245.57882
245.57871
245.5786
245.57849
245.5784
245.57836
245.57841
245.57857
245.57879
245.57902
245.57917
245.57926
245.57933
245.57935
245.57934
245.57929
245.57928
245.5794
245.57966
245.57996
245.58024
245.58046
245.58064
245.58089
245.58085
245.58075
245.58121
245.58175
245.58228
245.58276
245.58315
245.58312
245.58208
245.57869
245.57758
245.61061
245.62292
245.62184
245.60884
245.59637
245.58789
245.58316
245.58085
245.57978
245.57924
245.57889
245.57865
245.57851
245.57844
245.57842
245.57841
245.57838
245.57834
245.57827
245.57819
245.57812
245.57799
245.57784
245.57787
245.57822
245.57859
245.57887
245.57903
245.5791
245.57918
245.5792
245.57914
245.57906
245.57916
245.5794
245.57981
245.58029
245.58059
245.58069
245.58086
245.58072
245.58088
245.58174
245.58247
245.58303
245.5832
245.58214
245.57877
245.57719
245.61003
245.62224
245.62089
245.60776
245.59529
245.58688
245.58222
245.57995
245.5789
245.57838
245.57806
245.57786
245.57776
245.57776
245.5778
245.57785
245.57789
245.5779
245.57787
245.57782
245.57778
245.57784
245.57792
245.57782
245.57745
245.57716
245.57739
245.57788
245.57824
245.57849
245.57866
245.57875
245.57882
245.5789
245.5789
245.57901
245.57923
245.57967
245.58031
245.58066
245.58071
245.58076
245.58109
245.58171
245.58284
245.58322
245.58203
245.57883
245.57721
245.6093
245.6215
245.61996
245.60678
245.5944
245.58613
245.58157
245.57935
245.57829
245.57773
245.57738
245.57716
245.57706
245.57706
245.57711
245.5772
245.57729
245.57737
245.57742
245.57744
245.5774
245.57732
245.57732
245.57746
245.57742
245.57725
245.57721
245.57713
245.5771
245.57717
245.57741
245.57764
245.57795
245.57825
245.57843
245.57863
245.57874
245.57889
245.5793
245.57993
245.58044
245.58071
245.58092
245.58162
245.58239
245.58277
245.58214
245.57909
245.57747
245.6084
245.62057
245.61881
245.6056
245.59337
245.58531
245.58093
245.57883
245.57783
245.57728
245.57693
245.57672
245.57661
245.57658
245.5766
245.57667
245.57676
245.57685
245.57692
245.57697
245.57699
245.57695
245.57684
245.57674
245.57685
245.57696
245.5769
245.57695
245.57712
245.57721
245.57705
245.57673
245.57658
245.57666
245.57735
245.57784
245.57821
245.57852
245.579
245.57948
245.57968
245.58002
245.58082
245.58156
245.58197
245.58223
245.58205
245.57929
245.57786
245.60733
245.61945
245.61748
245.60426
245.59219
245.58435
245.58016
245.57817
245.57724
245.57674
245.57641
245.5762
245.5761
245.57608
245.57612
245.5762
245.5763
245.5764
245.57648
245.57653
245.57654
245.57652
245.57647
245.57634
245.57627
245.57632
245.57631
245.57633
245.57646
245.57668
245.57679
245.57682
245.5767
245.57647
245.5761
245.57619
245.57701
245.57786
245.57854
245.57908
245.57947
245.57966
245.58005
245.58097
245.58168
245.58203
245.58162
245.57926
245.57845
245.60605
245.61807
245.61593
245.60279
245.59097
245.58338
245.5794
245.57754
245.57667
245.57618
245.57585
245.57562
245.57549
245.57546
245.57549
245.57558
245.57569
245.5758
245.57591
245.576
245.57606
245.57612
245.57617
245.57617
245.57612
245.57601
245.5758
245.57558
245.57544
245.57553
245.57586
245.57614
245.57631
245.57643
245.57643
245.57634
245.57637
245.57672
245.57729
245.5783
245.57912
245.57955
245.58
245.58047
245.58123
245.58181
245.5813
245.57915
245.57836
245.60461
245.6165
245.61419
245.60113
245.58955
245.58224
245.57846
245.57674
245.57598
245.57557
245.57531
245.57513
245.57503
245.57499
245.57501
245.57506
245.57512
245.57518
245.57526
245.57534
245.57542
245.57551
245.57561
245.5757
245.57576
245.57576
245.57568
245.57555
245.57538
245.57518
245.57515
245.57552
245.57593
245.57607
245.57618
245.57647
245.57667
245.57682
245.57687
245.57736
245.5781
245.57923
245.58009
245.58071
245.58093
245.58095
245.58107
245.5791
245.57794
245.60294
245.61466
245.61222
245.59921
245.58782
245.58072
245.57711
245.57552
245.57485
245.57454
245.5744
245.57435
245.57436
245.57442
245.57451
245.57459
245.57465
245.57468
245.57468
245.57469
245.57472
245.57477
245.57485
245.57497
245.57509
245.5752
245.57527
245.57531
245.57537
245.57547
245.5756
245.5756
245.5757
245.57593
245.57608
245.57615
245.5763
245.57668
245.57713
245.57744
245.57739
245.57836
245.57971
245.58073
245.58106
245.58103
245.58049
245.57868
245.5779
245.60115
245.61271
245.61019
245.59723
245.58599
245.57906
245.57558
245.57407
245.57345
245.5732
245.57311
245.57312
245.57322
245.57337
245.57357
245.57377
245.57395
245.57407
245.57414
245.57415
245.57411
245.57406
245.57404
245.57411
245.57424
245.57442
245.57464
245.57484
245.57502
245.57521
245.57538
245.57568
245.5759
245.5759
245.57615
245.57631
245.57618
245.5762
245.57678
245.57738
245.57783
245.57805
245.57873
245.58021
245.58117
245.58142
245.58014
245.57832
245.57789
245.57745
245.5741
245.57268
245.57212
245.57189
245.57182
245.57185
245.57198
245.57218
245.57242
245.57268
245.57292
245.57313
245.57331
245.57343
245.57348
245.57346
245.5734
245.57337
245.57341
245.57355
245.57384
245.57427
245.57464
245.57488
245.57505
245.57522
245.57545
245.57581
245.57606
245.57612
245.57632
245.57622
245.57615
245.57666
245.57752
245.57794
245.57892
245.5798
245.58063
245.58102
245.58019
245.57857
245.57771
245.57056
245.57062
245.57078
245.57102
245.5713
245.57158
245.57184
245.57207
245.57226
245.57243
245.57258
245.57269
245.57275
245.57277
245.57281
245.57292
245.57311
245.5734
245.57374
245.57412
245.5745
245.57482
245.57494
245.57517
245.57542
245.57563
245.57596
245.57627
245.57652
245.57631
245.5764
245.57741
245.57848
245.57958
245.58047
245.58053
245.58008
245.57837
245.57745
245.57035
245.57064
245.57087
245.57105
245.57117
245.57128
245.57139
245.5715
245.57161
245.57177
245.57202
245.57235
245.5727
245.57303
245.5733
245.57351
245.57377
245.57406
245.57444
245.57485
245.57518
245.5755
245.57597
245.57603
245.57601
245.57633
245.57678
245.5772
245.5788
245.57986
245.58023
245.57967
245.57812
245.57736
245.57
245.5701
245.57019
245.57028
245.57039
245.5706
245.57092
245.57133
245.57176
245.57224
245.57283
245.57342
245.5737
245.57362
245.57328
245.57358
245.57427
245.5747
245.57504
245.57553
245.57619
245.57677
245.57728
245.57765
245.57861
245.57955
245.57935
245.57825
245.5774
245.56962
245.56971
245.56993
245.57047
245.57115
245.57168
245.57214
245.57285
245.57335
245.57356
245.57355
245.57326
245.57343
245.57416
245.57454
245.57551
245.57633
245.57698
245.57789
245.57849
245.57835
245.57849
245.578
245.5772
245.56956
245.5705
245.57132
245.57181
245.57259
245.57313
245.57325
245.57346
245.57365
245.57366
245.57358
245.57414
245.57467
245.57643
245.57771
245.57844
245.5787
245.57798
245.57725
245.57689
245.57073
245.57183
245.57272
245.57309
245.57326
245.57364
245.57419
245.57446
245.57467
245.5752
245.57613
245.57784
245.5785
245.57807
245.57731
245.57673
245.57139
245.57211
245.57304
245.57373
245.57423
245.57485
245.57529
245.57595
245.57665
245.57691
245.57746
245.57723
245.57659
245.57182
245.57277
245.57402
245.57529
245.57604
245.57669
245.57684
245.5765
245.57607
245.57604
245.57425
245.57551
245.57645
245.57662
245.57626
245.57645
245.57552
245.57546
245.57541
245.57557
245.57646
245.57525
245.57568
245.57458
)
;

boundaryField
{
    Side
    {
        type            empty;
    }
    Inlet
    {
        type            totalTemperature;
        gamma           1.4;
        T0              uniform 250;
        value           nonuniform List<scalar> 
25
(
245.58562
245.58555
245.5855
245.58548
245.58549
245.58548
245.58544
245.58536
245.58528
245.5852
245.58515
245.5851
245.58501
245.5849
245.5848
245.58465
245.58447
245.58432
245.5842
245.58403
245.58386
245.58371
245.58351
245.58327
245.58307
)
;
    }
    Airfoil
    {
        type            zeroGradient;
    }
    Outlet
    {
        type            inletOutlet;
        inletValue      nonuniform List<scalar> 0();
        value           nonuniform List<scalar> 0();
    }
    procBoundary5to4
    {
        type            processor;
        value           nonuniform List<scalar> 
64
(
245.64263
245.64568
245.63395
245.61742
245.61742
245.60515
245.59703
245.59237
245.59002
245.58834
245.58834
245.58786
245.58756
245.58728
245.587
245.58676
245.58608
245.58608
245.58599
245.58597
245.58597
245.58557
245.58557
245.58562
245.58567
245.58573
245.58539
245.58539
245.5855
245.58566
245.58578
245.58544
245.58544
245.58557
245.58564
245.58532
245.58532
245.58533
245.58528
245.58492
245.58492
245.58489
245.5848
245.5848
245.58488
245.58494
245.58462
245.58462
245.58448
245.58374
245.58374
245.58362
245.5834
245.5834
245.58352
245.58352
245.58389
245.58399
245.58399
245.58326
245.58326
245.57984
245.57984
245.57808
)
;
    }
    procBoundary5to6
    {
        type            processor;
        value           nonuniform List<scalar> 
61
(
245.59935
245.61084
245.60829
245.59536
245.58425
245.58425
245.57578
245.57257
245.57125
245.57077
245.5706
245.5706
245.56907
245.5692
245.56942
245.5697
245.57003
245.57003
245.56887
245.56923
245.56953
245.56974
245.56989
245.56989
245.56885
245.56908
245.56927
245.56942
245.56953
245.56953
245.56927
245.56945
245.56943
245.56926
245.56926
245.5693
245.56902
245.56941
245.5701
245.5701
245.57012
245.57026
245.57059
245.57059
245.57134
245.57099
245.5713
245.5713
245.57218
245.57252
245.57315
245.57315
245.57459
245.57504
245.57504
245.57611
245.576
245.57571
245.57571
245.57641
245.57405
)
;
    }
    procBoundary5to12
    {
        type            processor;
        value           nonuniform List<scalar> 
30
(
245.62491
245.62374
245.62238
245.62101
245.61994
245.61921
245.61867
245.61814
245.61764
245.61721
245.61673
245.61617
245.61557
245.61495
245.61432
245.61359
245.61276
245.61193
245.61103
245.61017
245.60949
245.60866
245.60763
245.60645
245.60514
245.60376
245.60227
245.60074
245.62588
245.62588
)
;
    }
}


// ************************************************************************* //
