/*--------------------------------*- C++ -*----------------------------------*\
| =========                 |                                                 |
| \\      /  F ield         | OpenFOAM: The Open Source CFD Toolbox           |
|  \\    /   O peration     | Version:  2506                                  |
|   \\  /    A nd           | Website:  www.openfoam.com                      |
|    \\/     M anipulation  |                                                 |
\*---------------------------------------------------------------------------*/
FoamFile
{
    version     2.0;
    format      ascii;
    arch        "LSB;label=32;scalar=64";
    class       volScalarField;
    location    "0.00017";
    object      Ma;
}
// * * * * * * * * * * * * * * * * * * * * * * * * * * * * * * * * * * * * * //

dimensions      [0 0 0 0 0 0 0];

internalField   nonuniform List<scalar> 
192657
(
0.29959279
0.29959228
0.29959231
0.29959231
0.29959231
0.29959231
0.29959231
0.29959231
0.29959231
0.29959231
0.29959231
0.29959231
0.29959231
0.29959231
0.29959231
0.29959231
0.29959231
0.29959231
0.29959231
0.29959231
0.29959231
0.29959231
0.29959231
0.29959231
0.29959231
0.29959231
0.29959231
0.29959231
0.29959231
0.29959231
0.29959231
0.29959231
0.29959231
0.29959231
0.29959231
0.29959231
0.29959231
0.29959231
0.29959231
0.29959232
0.29959231
0.29959231
0.29959231
0.29959231
0.29959231
0.29959231
0.29959231
0.29959231
0.29959231
0.29959231
0.29959231
0.29959229
0.29959228
0.29959228
0.29959228
0.29959228
0.29959229
0.29959229
0.2995923
0.29959231
0.29959231
0.29959231
0.29959231
0.29959231
0.2995923
0.2995923
0.2995923
0.2995923
0.2995923
0.2995923
0.2995923
0.2995923
0.29959229
0.29959229
0.29959229
0.29959229
0.29959229
0.29959229
0.29959228
0.2995921
0.29958884
0.29956044
0.29942744
0.30163743
0.32048913
0.32654727
0.32506727
0.31424574
0.31053777
0.32759825
0.33331267
0.32304925
0.33431254
0.33433024
0.33293144
0.32905389
0.32586373
0.3257011
0.32669234
0.3276774
0.33067482
0.28988008
0.29409994
0.29073684
0.28940723
0.28979369
0.28968441
0.29065559
0.29143378
0.29290897
0.29331557
0.29193388
0.28969818
0.28687371
0.28578628
0.28605858
0.28846385
0.28895957
0.28906657
0.28813553
0.28827746
0.28892038
0.2874776
0.28416148
0.28324684
0.28654612
0.28752152
0.28570436
0.27799935
0.27141702
0.26933985
0.28725497
0.30615753
0.31528104
0.31636796
0.29213822
0.28336659
0.27727927
0.27169467
0.26421796
0.27225228
0.28690904
0.2981849
0.30530662
0.31032434
0.31246715
0.31457082
0.31279955
0.26254104
0.29959278
0.29959231
0.29959231
0.29959231
0.29959231
0.29959231
0.29959231
0.29959231
0.29959231
0.29959231
0.29959231
0.29959231
0.29959231
0.29959231
0.29959231
0.29959231
0.29959231
0.29959231
0.29959231
0.29959231
0.29959231
0.29959231
0.29959231
0.29959231
0.29959231
0.29959231
0.29959231
0.29959231
0.29959231
0.29959231
0.29959231
0.29959231
0.29959231
0.29959231
0.29959231
0.29959231
0.29959231
0.29959231
0.29959231
0.29959232
0.29959231
0.29959231
0.29959231
0.29959231
0.29959231
0.29959231
0.29959231
0.29959231
0.29959231
0.29959231
0.29959231
0.29959231
0.29959229
0.29959227
0.29959227
0.29959227
0.29959228
0.29959228
0.29959229
0.29959229
0.29959229
0.29959229
0.29959229
0.29959229
0.2995923
0.2995923
0.2995923
0.2995923
0.29959231
0.29959231
0.29959231
0.29959231
0.29959231
0.29959231
0.29959231
0.29959231
0.2995923
0.29959229
0.29959228
0.29959211
0.2995889
0.29956035
0.29943716
0.30301375
0.32372598
0.32887454
0.32632807
0.31396762
0.31023355
0.32402275
0.33175691
0.32567286
0.33479054
0.33530205
0.33367828
0.32958727
0.32657563
0.32615917
0.32664721
0.32802694
0.32568104
0.28342276
0.28621724
0.27904675
0.27635582
0.27491811
0.27032628
0.26838823
0.26680976
0.26649658
0.26753947
0.26650774
0.26404606
0.2614133
0.26073105
0.26176638
0.26525766
0.26666423
0.26742119
0.26719439
0.26849415
0.26922294
0.26743059
0.26104832
0.25895222
0.25731226
0.25740048
0.25545801
0.25275143
0.24917056
0.24823709
0.25893099
0.26889668
0.27385888
0.27376486
0.25737779
0.25167678
0.24760627
0.24238001
0.23579939
0.24301178
0.25404405
0.26218029
0.26683095
0.27104986
0.27272969
0.27535462
0.27250293
0.21840373
0.29959297
0.29959231
0.29959231
0.29959231
0.29959231
0.29959231
0.29959231
0.29959231
0.29959231
0.29959231
0.29959231
0.29959231
0.29959231
0.29959231
0.29959231
0.29959231
0.29959231
0.29959231
0.29959231
0.29959231
0.29959231
0.29959231
0.29959231
0.29959231
0.29959231
0.29959231
0.29959231
0.29959231
0.29959231
0.29959231
0.29959231
0.29959231
0.29959231
0.29959231
0.29959231
0.29959231
0.29959231
0.29959231
0.29959231
0.29959232
0.29959231
0.29959231
0.29959231
0.29959231
0.29959231
0.29959231
0.29959231
0.29959231
0.29959231
0.29959232
0.29959231
0.29959231
0.2995923
0.29959228
0.29959227
0.29959227
0.29959227
0.29959227
0.29959228
0.29959228
0.29959228
0.29959228
0.29959228
0.29959228
0.29959228
0.29959228
0.29959228
0.29959228
0.29959228
0.29959229
0.29959229
0.2995923
0.29959231
0.29959232
0.29959232
0.29959232
0.29959231
0.2995923
0.29959229
0.29959215
0.2995892
0.29956126
0.29945161
0.30384763
0.3258259
0.33114879
0.32877688
0.31498237
0.30884036
0.32191919
0.32792324
0.32575907
0.33445486
0.33491866
0.3334183
0.32886862
0.32698657
0.32670941
0.32696301
0.32850162
0.32363447
0.28115594
0.2861361
0.27985176
0.27738736
0.27636899
0.27214186
0.27120624
0.26887157
0.26857357
0.26842204
0.26597057
0.26362959
0.26051744
0.25965997
0.26040345
0.26273809
0.2635961
0.26268213
0.26136097
0.26198742
0.26377762
0.26460579
0.26373289
0.2662969
0.27035367
0.27203783
0.26447716
0.25196253
0.24192823
0.23986151
0.26561687
0.28998361
0.30220486
0.30397074
0.27236157
0.2597028
0.24889763
0.23807007
0.22298728
0.23180911
0.25261714
0.26829687
0.27780733
0.28482318
0.28784077
0.29128172
0.29024456
0.2473899
0.29959305
0.29959231
0.29959231
0.29959231
0.29959231
0.29959231
0.29959231
0.29959231
0.29959231
0.29959231
0.29959231
0.29959231
0.29959231
0.29959231
0.29959231
0.29959231
0.29959231
0.29959231
0.29959231
0.29959231
0.29959231
0.29959231
0.29959231
0.29959231
0.29959231
0.29959231
0.29959231
0.29959231
0.29959231
0.29959231
0.29959231
0.29959231
0.29959231
0.29959231
0.29959231
0.29959231
0.29959231
0.29959231
0.29959232
0.29959231
0.29959231
0.29959231
0.29959231
0.29959231
0.29959231
0.29959231
0.29959231
0.29959231
0.29959231
0.29959232
0.29959231
0.29959231
0.29959231
0.2995923
0.29959229
0.29959227
0.29959227
0.29959227
0.29959227
0.29959227
0.29959227
0.29959227
0.29959227
0.29959227
0.29959227
0.29959227
0.29959227
0.29959227
0.29959227
0.29959228
0.29959229
0.29959229
0.2995923
0.2995923
0.29959231
0.29959231
0.29959231
0.29959231
0.2995923
0.2995922
0.29958973
0.29956277
0.29947612
0.30576398
0.32939585
0.33451258
0.33261158
0.31901817
0.31091786
0.32098134
0.32558108
0.32641655
0.3330261
0.33510754
0.33292856
0.32820609
0.32627139
0.32606504
0.32645235
0.32821276
0.32190856
0.26887825
0.27225224
0.26644307
0.26430251
0.26353206
0.25932935
0.25740984
0.254525
0.2527767
0.25105123
0.24682901
0.24202179
0.23657623
0.23398994
0.23430947
0.23538942
0.2340608
0.22870997
0.22531473
0.22355091
0.22630605
0.22609445
0.22526435
0.22977551
0.23591056
0.23755722
0.22627997
0.20625834
0.18702833
0.18186831
0.21842087
0.25537447
0.27284236
0.27532292
0.22862721
0.20902793
0.18814174
0.17130011
0.14008926
0.15943774
0.19614214
0.22067482
0.23454996
0.24494469
0.24974657
0.25476435
0.25408665
0.21869545
0.29959315
0.29959231
0.29959231
0.29959231
0.29959231
0.29959231
0.29959231
0.29959231
0.29959231
0.29959231
0.29959231
0.29959231
0.29959231
0.29959231
0.29959231
0.29959231
0.29959231
0.29959231
0.29959231
0.29959231
0.29959231
0.29959231
0.29959231
0.29959231
0.29959231
0.29959231
0.29959231
0.29959231
0.29959231
0.29959231
0.29959231
0.29959231
0.29959231
0.29959231
0.29959231
0.29959231
0.29959231
0.29959231
0.29959232
0.29959231
0.29959232
0.29959231
0.29959231
0.29959231
0.29959231
0.29959231
0.29959231
0.29959231
0.29959231
0.29959232
0.29959231
0.29959231
0.29959231
0.29959231
0.2995923
0.29959229
0.29959228
0.29959227
0.29959227
0.29959227
0.29959227
0.29959227
0.29959227
0.29959227
0.29959227
0.29959227
0.29959227
0.29959227
0.29959227
0.29959227
0.29959227
0.29959228
0.29959229
0.2995923
0.2995923
0.2995923
0.2995923
0.2995923
0.2995923
0.29959218
0.29958963
0.29956351
0.29951084
0.30772812
0.33277773
0.33783297
0.33589964
0.32166218
0.31429068
0.32271707
0.32530304
0.3261138
0.33151585
0.3327147
0.33095674
0.32594065
0.32433324
0.32475456
0.32489382
0.32646651
0.31869376
0.2633843
0.26552563
0.26050401
0.25860222
0.25801237
0.25528972
0.25340072
0.25122623
0.24968483
0.24825002
0.24451802
0.23964361
0.23443598
0.2320483
0.23278022
0.23389163
0.23261665
0.22709454
0.22282093
0.22058615
0.22306534
0.22252388
0.22329849
0.22955493
0.2372977
0.23913632
0.22529786
0.20063605
0.17679003
0.17037976
0.21407524
0.25689868
0.27684279
0.27958981
0.22661728
0.20405908
0.17786317
0.15879382
0.12033492
0.14659503
0.19040962
0.21847202
0.23368576
0.24557222
0.25119939
0.25689801
0.25655454
0.22247841
0.29959325
0.29959231
0.29959231
0.29959231
0.29959231
0.29959231
0.29959231
0.29959231
0.29959231
0.29959231
0.29959231
0.29959231
0.29959231
0.29959231
0.29959231
0.29959231
0.29959231
0.29959231
0.29959231
0.29959231
0.29959231
0.29959231
0.29959231
0.29959231
0.29959231
0.29959231
0.29959231
0.29959231
0.29959231
0.29959231
0.29959231
0.29959231
0.29959231
0.29959231
0.29959231
0.29959231
0.29959231
0.29959231
0.29959232
0.29959231
0.29959232
0.29959231
0.29959231
0.29959231
0.29959231
0.29959231
0.29959231
0.29959231
0.29959231
0.29959232
0.29959231
0.29959231
0.29959231
0.29959231
0.29959231
0.29959231
0.2995923
0.2995923
0.29959229
0.29959228
0.29959228
0.29959227
0.29959227
0.29959227
0.29959226
0.29959226
0.29959227
0.29959226
0.29959226
0.29959227
0.29959227
0.29959228
0.29959228
0.29959229
0.29959229
0.2995923
0.2995923
0.2995923
0.29959229
0.29959221
0.29958994
0.29956348
0.29957971
0.31083572
0.33707215
0.341991
0.34022111
0.32530357
0.31623451
0.32634376
0.32810119
0.33014732
0.33390572
0.33429832
0.33075059
0.3254307
0.32368971
0.32409258
0.3241288
0.32575656
0.31801357
0.25864213
0.25892359
0.24938905
0.24609313
0.24439075
0.24065278
0.23944157
0.23802915
0.23799682
0.2375493
0.23443559
0.23064726
0.22631561
0.22433793
0.22640566
0.22831038
0.2279115
0.2225492
0.21917896
0.2170199
0.21814617
0.21816267
0.21706002
0.22040291
0.22745101
0.22906481
0.21766691
0.1958228
0.17466766
0.16901946
0.20686271
0.24577965
0.26585433
0.2694707
0.22261609
0.20186939
0.18113416
0.16402274
0.12744358
0.14784277
0.18770936
0.21368177
0.22815278
0.23899516
0.24405007
0.24929161
0.24874015
0.21415652
0.29959336
0.29959231
0.29959231
0.29959231
0.29959231
0.29959231
0.29959231
0.29959231
0.29959231
0.29959231
0.29959231
0.29959231
0.29959231
0.29959231
0.29959231
0.29959231
0.29959231
0.29959231
0.29959231
0.29959231
0.29959231
0.29959231
0.29959231
0.29959231
0.29959231
0.29959231
0.29959231
0.29959231
0.29959231
0.29959231
0.29959231
0.29959231
0.29959231
0.29959231
0.29959231
0.29959231
0.29959231
0.29959231
0.29959232
0.29959231
0.29959232
0.29959231
0.29959231
0.29959231
0.29959231
0.29959231
0.29959231
0.29959231
0.29959231
0.29959232
0.29959231
0.29959231
0.29959231
0.29959231
0.29959231
0.29959231
0.29959231
0.29959231
0.29959231
0.2995923
0.2995923
0.2995923
0.29959229
0.29959229
0.29959228
0.29959228
0.29959227
0.29959227
0.29959227
0.29959227
0.29959227
0.29959227
0.29959228
0.29959229
0.29959229
0.29959229
0.2995923
0.29959229
0.29959229
0.29959217
0.29958977
0.29956311
0.29967471
0.31443286
0.34130031
0.34621022
0.34462478
0.32942118
0.32095673
0.32952617
0.3308725
0.33240822
0.33621174
0.33663009
0.3325337
0.32681123
0.32522417
0.32469832
0.32448349
0.32613893
0.31652541
0.2614743
0.26067067
0.24897695
0.24575397
0.2430948
0.23776513
0.23663511
0.233186
0.23232629
0.23110926
0.22678384
0.22284732
0.21822595
0.21644462
0.21866918
0.22117373
0.22145978
0.21678402
0.21317215
0.2113782
0.21190234
0.21272436
0.21181827
0.21743962
0.22481885
0.22708324
0.21544736
0.19097529
0.16798633
0.16182348
0.20287333
0.24435671
0.26627587
0.27050061
0.22165452
0.19786302
0.17614
0.15835764
0.12086876
0.14314066
0.18573134
0.21296114
0.22799022
0.23927741
0.24468763
0.25001505
0.24948716
0.21532479
0.29959346
0.29959231
0.29959231
0.29959231
0.29959231
0.29959231
0.29959231
0.29959231
0.29959231
0.29959231
0.29959231
0.29959231
0.29959231
0.29959231
0.29959231
0.29959231
0.29959231
0.29959231
0.29959231
0.29959231
0.29959231
0.29959231
0.29959231
0.29959231
0.29959231
0.29959231
0.29959231
0.29959231
0.29959231
0.29959231
0.29959231
0.29959231
0.29959231
0.29959231
0.29959231
0.29959231
0.29959231
0.29959231
0.29959231
0.29959231
0.29959232
0.29959231
0.29959231
0.29959231
0.29959231
0.29959231
0.29959231
0.29959231
0.29959231
0.29959232
0.29959231
0.29959231
0.29959231
0.29959231
0.29959231
0.29959231
0.29959231
0.29959232
0.29959232
0.29959231
0.29959231
0.29959231
0.29959231
0.2995923
0.2995923
0.2995923
0.29959229
0.29959229
0.29959229
0.29959229
0.29959228
0.29959228
0.29959229
0.29959229
0.29959229
0.29959229
0.29959229
0.29959229
0.29959229
0.29959221
0.29958999
0.29956253
0.29984166
0.31929582
0.34588816
0.35086665
0.34835659
0.33185405
0.32328199
0.33378974
0.33480795
0.33604816
0.33980481
0.33987087
0.33472554
0.32895141
0.32761588
0.32795083
0.32753209
0.32908817
0.31510966
0.27651027
0.27242856
0.2555635
0.25132197
0.24613047
0.23943036
0.23795353
0.23315563
0.23221268
0.23007375
0.22541845
0.22109059
0.21577124
0.21355777
0.21586178
0.21810417
0.21830131
0.21330215
0.20908272
0.20665555
0.20708956
0.20772915
0.20674183
0.21234591
0.2203863
0.22287833
0.21163501
0.18480155
0.15926042
0.15220056
0.19472162
0.23917583
0.26405928
0.26943716
0.21920565
0.19022827
0.16808311
0.14882209
0.10832055
0.13323541
0.17988941
0.20886099
0.22461901
0.23647375
0.24219817
0.24775807
0.24726226
0.21374624
0.29959358
0.29959231
0.29959231
0.29959231
0.29959231
0.29959231
0.29959231
0.29959231
0.29959231
0.29959231
0.29959231
0.29959231
0.29959231
0.29959231
0.29959231
0.29959231
0.29959231
0.29959231
0.29959231
0.29959231
0.29959231
0.29959231
0.29959231
0.29959231
0.29959231
0.29959231
0.29959231
0.29959231
0.29959231
0.29959231
0.29959231
0.29959231
0.29959231
0.29959231
0.29959231
0.29959231
0.29959231
0.29959231
0.29959231
0.29959231
0.29959232
0.29959231
0.29959231
0.29959231
0.29959231
0.29959231
0.29959231
0.29959231
0.29959231
0.29959232
0.29959231
0.29959231
0.29959231
0.29959231
0.29959231
0.29959231
0.29959232
0.29959232
0.29959232
0.29959232
0.29959232
0.29959232
0.29959232
0.29959231
0.29959231
0.29959231
0.29959231
0.2995923
0.2995923
0.2995923
0.2995923
0.2995923
0.2995923
0.29959231
0.29959231
0.2995923
0.2995923
0.2995923
0.29959229
0.29959219
0.29958982
0.29956162
0.30008711
0.324885
0.35013771
0.35616237
0.35266903
0.33534106
0.32632273
0.33693035
0.33915116
0.33926676
0.34347767
0.34330532
0.33725041
0.33122914
0.33006483
0.32970705
0.32942607
0.33090043
0.30904305
0.29367822
0.29116384
0.27881794
0.27460728
0.26596754
0.25727649
0.25298184
0.24535856
0.24263228
0.23779547
0.232314
0.22643909
0.21998819
0.21759941
0.2192567
0.22193903
0.22178452
0.21646627
0.21118144
0.20814176
0.20819876
0.20835048
0.20725368
0.2131455
0.22142633
0.22414475
0.21313536
0.18403476
0.15562352
0.14750085
0.19168922
0.2396542
0.26693459
0.27318276
0.22112714
0.18779306
0.16460212
0.14443438
0.10215425
0.13047578
0.18023253
0.21056523
0.22687241
0.23935821
0.24524367
0.25114937
0.25077745
0.21761476
0.2995937
0.29959231
0.29959231
0.29959231
0.29959231
0.29959231
0.29959231
0.29959231
0.29959231
0.29959231
0.29959231
0.29959231
0.29959231
0.29959231
0.29959231
0.29959231
0.29959231
0.29959231
0.29959231
0.29959231
0.29959231
0.29959231
0.29959231
0.29959231
0.29959231
0.29959231
0.29959231
0.29959231
0.29959231
0.29959231
0.29959231
0.29959231
0.29959231
0.29959231
0.29959231
0.29959231
0.29959231
0.29959231
0.29959231
0.29959231
0.29959232
0.29959231
0.29959231
0.29959231
0.29959231
0.29959231
0.29959231
0.29959231
0.29959231
0.29959232
0.29959231
0.29959231
0.29959231
0.29959231
0.29959231
0.29959231
0.29959232
0.29959232
0.29959232
0.29959232
0.29959232
0.29959232
0.29959232
0.29959232
0.29959232
0.29959231
0.29959231
0.29959231
0.29959231
0.29959231
0.29959231
0.29959231
0.29959231
0.29959232
0.29959232
0.29959231
0.29959231
0.29959231
0.2995923
0.29959222
0.29958995
0.29956092
0.30048401
0.33145995
0.35464272
0.36135598
0.3559213
0.33747839
0.32916759
0.34059469
0.34313534
0.3423724
0.34763427
0.34753274
0.34033921
0.33460927
0.33373785
0.33375989
0.33321211
0.33468054
0.30723499
0.29687727
0.29535638
0.28879982
0.28742208
0.28316625
0.28013769
0.2776405
0.27335794
0.27080349
0.26592951
0.26025013
0.25265357
0.24514852
0.24129301
0.24112979
0.24205994
0.24078513
0.23478346
0.2279576
0.2239973
0.22367748
0.22257148
0.2211462
0.22549203
0.23363676
0.23608461
0.22588852
0.1966605
0.16749723
0.15886225
0.19839359
0.24708813
0.27602738
0.28316667
0.23168577
0.19435495
0.17192338
0.15214294
0.11247088
0.14091545
0.1897657
0.22005729
0.23621582
0.24889712
0.25473167
0.26084863
0.26059872
0.22705187
0.29959382
0.29959231
0.29959231
0.29959231
0.29959231
0.29959231
0.29959231
0.29959231
0.29959231
0.29959231
0.29959231
0.29959231
0.29959231
0.29959231
0.29959231
0.29959231
0.29959231
0.29959231
0.29959231
0.29959231
0.29959231
0.29959231
0.29959231
0.29959231
0.29959231
0.29959231
0.29959231
0.29959231
0.29959231
0.29959231
0.29959231
0.29959231
0.29959231
0.29959231
0.29959231
0.29959231
0.29959231
0.29959231
0.29959231
0.29959231
0.29959231
0.29959232
0.29959231
0.29959231
0.29959231
0.29959231
0.29959231
0.29959231
0.29959231
0.29959232
0.29959231
0.29959231
0.29959231
0.29959231
0.29959231
0.29959231
0.29959232
0.29959232
0.29959232
0.29959232
0.29959232
0.29959232
0.29959232
0.29959232
0.29959232
0.29959232
0.29959231
0.29959231
0.29959231
0.29959231
0.29959231
0.29959231
0.29959232
0.29959232
0.29959232
0.29959232
0.29959232
0.29959232
0.2995923
0.29959221
0.29958977
0.29956036
0.30113945
0.33823827
0.35927715
0.36657383
0.359248
0.33979332
0.33088472
0.34357954
0.34737582
0.34443051
0.35110894
0.35008855
0.34221589
0.3367869
0.33635955
0.3360222
0.33562612
0.33713444
0.30797373
0.29738103
0.2962235
0.29045468
0.28922802
0.28577888
0.28385174
0.28279425
0.28071644
0.28035606
0.27802953
0.27500465
0.27009164
0.26567478
0.26303171
0.26501645
0.26719592
0.26737939
0.26313553
0.25857391
0.25532435
0.25466818
0.25467255
0.25293176
0.25543107
0.26269222
0.26486892
0.25766197
0.23280938
0.20883402
0.20185138
0.23127708
0.27339491
0.30100648
0.30832267
0.26307626
0.2275542
0.21015772
0.19528462
0.16759352
0.18887027
0.22744708
0.25330454
0.26739891
0.27871506
0.28372235
0.28928144
0.28896969
0.25244317
0.29959394
0.29959231
0.29959231
0.29959231
0.29959231
0.29959231
0.29959231
0.29959231
0.29959231
0.29959231
0.29959231
0.29959231
0.29959231
0.29959231
0.29959231
0.29959231
0.29959231
0.29959231
0.29959231
0.29959231
0.29959231
0.29959231
0.29959231
0.29959231
0.29959231
0.29959231
0.29959231
0.29959231
0.29959231
0.29959231
0.29959231
0.29959231
0.29959231
0.29959231
0.29959231
0.29959231
0.29959231
0.29959231
0.29959231
0.29959232
0.29959231
0.29959232
0.29959231
0.29959231
0.29959231
0.29959231
0.29959231
0.29959231
0.29959231
0.29959232
0.29959231
0.29959231
0.29959231
0.29959231
0.29959231
0.29959231
0.29959232
0.29959232
0.29959232
0.29959232
0.29959232
0.29959232
0.29959232
0.29959232
0.29959232
0.29959232
0.29959231
0.29959231
0.29959231
0.29959231
0.29959231
0.29959231
0.29959232
0.29959232
0.29959233
0.29959232
0.29959232
0.29959232
0.29959231
0.29959223
0.29958976
0.2995602
0.3021752
0.34520436
0.36410545
0.37158778
0.36201914
0.34167453
0.33313869
0.34655668
0.35124293
0.34603445
0.35505859
0.35388259
0.34493241
0.33976705
0.33928009
0.33902093
0.33834968
0.33991951
0.31025583
0.29549258
0.29575559
0.29110069
0.28993154
0.28655561
0.28460231
0.2835185
0.28150828
0.28108083
0.27866313
0.27588186
0.27089253
0.26697239
0.26505225
0.2657342
0.26918034
0.26941367
0.26625085
0.26223298
0.25995999
0.25927958
0.25963812
0.25772198
0.25730439
0.2640148
0.26609241
0.26164517
0.23988083
0.21931302
0.21338469
0.23761551
0.27501767
0.30245855
0.31023654
0.26939908
0.23389864
0.21924035
0.20798129
0.18560714
0.20392717
0.2382073
0.26156772
0.27469806
0.28487419
0.28941734
0.29424422
0.29346427
0.2551608
0.29959407
0.29959231
0.29959231
0.29959231
0.29959231
0.29959231
0.29959231
0.29959231
0.29959231
0.29959231
0.29959231
0.29959231
0.29959231
0.29959231
0.29959231
0.29959231
0.29959231
0.29959231
0.29959231
0.29959231
0.29959231
0.29959231
0.29959231
0.29959231
0.29959231
0.29959231
0.29959231
0.29959231
0.29959231
0.29959231
0.29959231
0.29959231
0.29959231
0.29959231
0.29959231
0.29959231
0.29959231
0.29959231
0.29959231
0.29959232
0.29959231
0.29959232
0.29959231
0.29959231
0.29959231
0.29959231
0.29959231
0.29959231
0.29959231
0.29959232
0.29959231
0.29959231
0.29959231
0.29959231
0.29959231
0.29959231
0.29959232
0.29959232
0.29959232
0.29959232
0.29959232
0.29959232
0.29959232
0.29959232
0.29959232
0.29959232
0.29959232
0.29959231
0.29959231
0.29959231
0.29959231
0.29959231
0.29959232
0.29959232
0.29959233
0.29959232
0.29959232
0.29959232
0.29959231
0.29959222
0.29958961
0.29956127
0.3036857
0.35205958
0.36898788
0.37636961
0.36448233
0.3432555
0.33429864
0.34913473
0.35516751
0.34681965
0.358022
0.355765
0.34638918
0.3419169
0.34176107
0.34112032
0.34055007
0.34231359
0.31383014
0.28773627
0.2898391
0.2872437
0.28639248
0.28395732
0.28228719
0.28192495
0.28022983
0.2795838
0.27735249
0.27406677
0.26917231
0.26497018
0.26290159
0.26430654
0.26730984
0.26773367
0.26438887
0.26029536
0.25810421
0.25745541
0.25823185
0.25663112
0.25616531
0.26285936
0.26527416
0.26259556
0.24080284
0.22082567
0.21488669
0.23673418
0.27388062
0.30293881
0.31173781
0.27340357
0.23637683
0.22206784
0.21163403
0.18890911
0.20493778
0.23891994
0.26211011
0.27511985
0.28506643
0.28950674
0.29424504
0.29347731
0.25501572
0.29959421
0.29959231
0.29959231
0.29959231
0.29959231
0.29959231
0.29959231
0.29959231
0.29959231
0.29959231
0.29959231
0.29959231
0.29959231
0.29959231
0.29959231
0.29959231
0.29959231
0.29959231
0.29959231
0.29959231
0.29959231
0.29959231
0.29959231
0.29959231
0.29959231
0.29959231
0.29959231
0.29959231
0.29959231
0.29959231
0.29959231
0.29959231
0.29959231
0.29959231
0.29959231
0.29959231
0.29959231
0.29959231
0.29959231
0.29959232
0.29959231
0.29959232
0.29959231
0.29959231
0.29959231
0.29959231
0.29959231
0.29959231
0.29959231
0.29959232
0.29959231
0.29959231
0.29959231
0.29959231
0.29959231
0.29959231
0.29959232
0.29959232
0.29959232
0.29959232
0.29959232
0.29959232
0.29959232
0.29959232
0.29959232
0.29959232
0.29959232
0.29959231
0.29959231
0.29959231
0.29959231
0.29959231
0.29959232
0.29959232
0.29959233
0.29959232
0.29959232
0.29959232
0.29959231
0.29959222
0.2995896
0.29956374
0.3057902
0.35879099
0.37394715
0.38090346
0.36658649
0.34465597
0.33557941
0.35134095
0.35881352
0.34726559
0.36114899
0.35821942
0.34809507
0.34391122
0.34350407
0.34273255
0.34190094
0.34373789
0.31794052
0.27604318
0.2793272
0.27780994
0.27713826
0.27561353
0.27408002
0.27419908
0.27413513
0.27386524
0.27274655
0.26946544
0.2650058
0.26076785
0.25840556
0.26097337
0.26359486
0.26410482
0.2603191
0.25537326
0.25229582
0.25146382
0.25218361
0.25004543
0.25049051
0.25745894
0.26020222
0.25763546
0.23262517
0.20875738
0.2010811
0.22295731
0.26604868
0.29862083
0.30872111
0.26699255
0.22328036
0.20596531
0.1942756
0.16856086
0.18868104
0.22777855
0.25363504
0.26775485
0.27878868
0.28363781
0.28895705
0.28835857
0.25146249
0.29959434
0.29959231
0.29959231
0.29959231
0.29959231
0.29959231
0.29959231
0.29959231
0.29959231
0.29959231
0.29959231
0.29959231
0.29959231
0.29959231
0.29959231
0.29959231
0.29959231
0.29959231
0.29959231
0.29959231
0.29959231
0.29959231
0.29959231
0.29959231
0.29959231
0.29959231
0.29959231
0.29959231
0.29959231
0.29959231
0.29959231
0.29959231
0.29959231
0.29959231
0.29959231
0.29959231
0.29959231
0.29959231
0.29959231
0.29959231
0.29959231
0.29959232
0.29959232
0.29959231
0.29959231
0.29959231
0.29959231
0.29959231
0.29959231
0.29959232
0.29959231
0.29959231
0.29959231
0.29959231
0.29959231
0.29959231
0.29959232
0.29959232
0.29959232
0.29959232
0.29959232
0.29959232
0.29959232
0.29959232
0.29959232
0.29959232
0.29959232
0.29959231
0.29959231
0.29959231
0.29959231
0.29959231
0.29959231
0.29959232
0.29959233
0.29959232
0.29959232
0.29959232
0.29959231
0.29959222
0.29958959
0.29956931
0.30856296
0.36526104
0.37881151
0.3849456
0.36815558
0.34552469
0.33599984
0.3529941
0.36212403
0.34714646
0.36370127
0.35993823
0.34963448
0.34590288
0.34547791
0.34446585
0.34366112
0.34579377
0.32079235
0.26744439
0.2688062
0.26576243
0.2650434
0.26412522
0.26331461
0.2637416
0.26528638
0.26540894
0.26537913
0.26261055
0.25868563
0.25536203
0.25396287
0.25614281
0.26067571
0.26158533
0.25919693
0.25388251
0.25100346
0.2499059
0.25034959
0.24801536
0.24788343
0.25544998
0.25853774
0.25666227
0.22996017
0.2049063
0.19602512
0.2183087
0.26542157
0.300465
0.31144974
0.26832281
0.22132894
0.20256628
0.19121508
0.16399575
0.18634805
0.22759308
0.25457357
0.2690188
0.28068893
0.28568571
0.29138552
0.29103404
0.25472233
0.29959449
0.29959231
0.29959231
0.29959231
0.29959231
0.29959231
0.29959231
0.29959231
0.29959231
0.29959231
0.29959231
0.29959231
0.29959231
0.29959231
0.29959231
0.29959231
0.29959231
0.29959231
0.29959231
0.29959231
0.29959231
0.29959231
0.29959231
0.29959231
0.29959231
0.29959231
0.29959231
0.29959231
0.29959231
0.29959231
0.29959231
0.29959231
0.29959231
0.29959231
0.29959231
0.29959231
0.29959231
0.29959231
0.29959231
0.29959231
0.29959231
0.29959232
0.29959232
0.29959231
0.29959231
0.29959231
0.29959231
0.29959231
0.29959231
0.29959232
0.29959231
0.29959231
0.29959231
0.29959231
0.29959231
0.29959231
0.29959232
0.29959232
0.29959232
0.29959232
0.29959232
0.29959232
0.29959232
0.29959232
0.29959232
0.29959232
0.29959232
0.29959231
0.29959231
0.29959231
0.29959231
0.29959231
0.29959231
0.29959232
0.29959233
0.29959232
0.29959232
0.29959232
0.29959231
0.29959223
0.29958964
0.29957577
0.31203738
0.37139755
0.38350428
0.38846387
0.36927192
0.34603102
0.33614299
0.3541114
0.365064
0.34691561
0.36621214
0.36143715
0.3508901
0.34739783
0.34668905
0.34544782
0.34446618
0.34673792
0.32192257
0.26488995
0.26615607
0.25905069
0.25803731
0.25496542
0.25179063
0.25094297
0.25127753
0.25149426
0.25094085
0.24889049
0.24504635
0.24198627
0.24139524
0.24556651
0.25126755
0.25425894
0.25500956
0.25131672
0.24952855
0.24894926
0.24814305
0.24453422
0.24305573
0.24623083
0.2492176
0.24851534
0.22548986
0.2028514
0.19574414
0.21642835
0.25953187
0.29235416
0.30272586
0.26400477
0.22424832
0.20937197
0.20199503
0.17684407
0.19352814
0.22946175
0.25387608
0.26720083
0.27765448
0.28203541
0.28717507
0.28657129
0.24902339
0.29959464
0.29959231
0.29959231
0.29959231
0.29959231
0.29959231
0.29959231
0.29959231
0.29959231
0.29959231
0.29959231
0.29959231
0.29959231
0.29959231
0.29959231
0.29959231
0.29959231
0.29959231
0.29959231
0.29959231
0.29959231
0.29959231
0.29959231
0.29959231
0.29959231
0.29959231
0.29959231
0.29959231
0.29959231
0.29959231
0.29959231
0.29959231
0.29959231
0.29959231
0.29959231
0.29959231
0.29959231
0.29959231
0.29959231
0.29959231
0.29959231
0.29959232
0.29959232
0.29959231
0.29959231
0.29959231
0.29959231
0.29959231
0.29959231
0.29959232
0.29959231
0.29959231
0.29959231
0.29959231
0.29959231
0.29959231
0.29959232
0.29959232
0.29959232
0.29959232
0.29959232
0.29959232
0.29959232
0.29959232
0.29959232
0.29959232
0.29959232
0.29959231
0.29959231
0.29959231
0.29959231
0.29959231
0.29959231
0.29959232
0.29959233
0.29959232
0.29959232
0.29959232
0.29959232
0.29959223
0.2995895
0.29958048
0.31619068
0.37713842
0.38793154
0.39138625
0.36989595
0.34602634
0.33567212
0.35466913
0.3676038
0.34653061
0.36859299
0.36310431
0.352609
0.34924141
0.34828865
0.34690263
0.3459438
0.3483496
0.32356104
0.26093383
0.26379725
0.25730954
0.25678845
0.25288737
0.24829008
0.24739065
0.24579873
0.24541579
0.24282254
0.2392093
0.23464391
0.23020303
0.22826795
0.2305234
0.23549856
0.23789013
0.23845392
0.23406919
0.230719
0.22794254
0.22710821
0.22644438
0.23036221
0.24040954
0.24474091
0.24319187
0.20945188
0.17833326
0.16863038
0.20201145
0.25703639
0.29223794
0.30316524
0.26431613
0.22739394
0.21318498
0.19915683
0.15899876
0.16807562
0.21141017
0.24018818
0.25471065
0.26690623
0.27238821
0.27938867
0.28001908
0.24604903
0.29959479
0.29959231
0.29959231
0.29959231
0.29959231
0.29959231
0.29959231
0.29959231
0.29959231
0.29959231
0.29959231
0.29959231
0.29959231
0.29959231
0.29959231
0.29959231
0.29959231
0.29959231
0.29959231
0.29959231
0.29959231
0.29959231
0.29959231
0.29959231
0.29959231
0.29959231
0.29959231
0.29959231
0.29959231
0.29959231
0.29959231
0.29959231
0.29959231
0.29959231
0.29959231
0.29959231
0.29959231
0.29959231
0.29959231
0.29959231
0.29959232
0.29959231
0.29959232
0.29959231
0.29959231
0.29959231
0.29959231
0.29959231
0.29959231
0.29959232
0.29959231
0.29959231
0.29959231
0.29959231
0.29959231
0.29959231
0.29959231
0.29959232
0.29959232
0.29959232
0.29959232
0.29959232
0.29959232
0.29959232
0.29959232
0.29959232
0.29959232
0.29959231
0.29959231
0.29959231
0.29959231
0.29959231
0.29959231
0.29959232
0.29959233
0.29959232
0.29959232
0.29959232
0.29959232
0.29959223
0.29958934
0.29958052
0.32094846
0.38234267
0.39221112
0.39379025
0.37018628
0.34572291
0.33500846
0.35480991
0.36980147
0.34628802
0.37096036
0.36446056
0.3540499
0.35068061
0.34944316
0.3477842
0.34674709
0.34917137
0.32311726
0.2507225
0.25398676
0.24963745
0.25044022
0.24747859
0.24359295
0.24364925
0.24324812
0.24331988
0.24138323
0.23742024
0.23190489
0.22691911
0.22458056
0.22809607
0.23283994
0.23558817
0.23490093
0.22812888
0.2232596
0.21863908
0.21664411
0.21556933
0.22269679
0.23583038
0.24134293
0.23943745