/*--------------------------------*- C++ -*----------------------------------*\
| =========                 |                                                 |
| \\      /  F ield         | OpenFOAM: The Open Source CFD Toolbox           |
|  \\    /   O peration     | Version:  2506                                  |
|   \\  /    A nd           | Website:  www.openfoam.com                      |
|    \\/     M anipulation  |                                                 |
\*---------------------------------------------------------------------------*/
FoamFile
{
    version     2.0;
    format      ascii;
    arch        "LSB;label=32;scalar=64";
    class       volScalarField;
    location    "0.00017";
    object      T;
}
// * * * * * * * * * * * * * * * * * * * * * * * * * * * * * * * * * * * * * //

dimensions      [0 0 0 1 0 0 0];

internalField   nonuniform List<scalar> 
192657
(
245.48003
245.48
245.48
245.48
245.48
245.48
245.48
245.48
245.48
245.48
245.48
245.48
245.48
245.48
245.48
245.48
245.48
245.48
245.48
245.48
245.48
245.48
245.48
245.48
245.48
245.48
245.48
245.48
245.48
245.48
245.48
245.48
245.48
245.48
245.48
245.48
245.48
245.48
245.48
245.48
245.48
245.48
245.48
245.48
245.48
245.48
245.48
245.48
245.48
245.48
245.48
245.48
245.48
245.48
245.48
245.48
245.48
245.48
245.48
245.48
245.48
245.48
245.48
245.48
245.48
245.48
245.48
245.48
245.48
245.48
245.48
245.48
245.48
245.48
245.48
245.48
245.48
245.48
245.48001
245.48014
245.48125
245.48798
245.53095
245.69427
245.95553
246.45789
247.4487
249.02162
250.69743
248.79866
244.2969
242.32125
243.40783
245.20672
246.96244
247.74211
247.95942
247.60587
247.13141
246.72917
246.30403
246.01214
245.79662
245.61682
245.44715
245.22632
245.1102
245.07083
245.06632
245.06065
245.03673
244.93984
244.82801
244.77417
245.04548
245.24515
245.21816
245.20874
245.0494
246.06624
245.89694
244.55282
242.93623
242.01011
241.76641
242.18298
242.78738
243.51709
243.94364
243.70022
243.51503
243.72884
243.66277
242.54648
240.73974
238.75956
236.85119
235.03897
233.40943
232.13597
231.04288
229.74721
228.04099
225.10536
218.90225
207.45571
188.18639
168.04377
156.7897
245.48002
245.48
245.48
245.48
245.48
245.48
245.48
245.48
245.48
245.48
245.48
245.48
245.48
245.48
245.48
245.48
245.48
245.48
245.48
245.48
245.48
245.48
245.48
245.48
245.48
245.48
245.48
245.48
245.48
245.48
245.48
245.48
245.48
245.48
245.48
245.48
245.48
245.48
245.48
245.48
245.48
245.48
245.48
245.48
245.48
245.48
245.48
245.48
245.48
245.48
245.48
245.48
245.48
245.48
245.48
245.48
245.48
245.48
245.48
245.48
245.48
245.48
245.48
245.48
245.48
245.48
245.48
245.48
245.48
245.48
245.48
245.48
245.48
245.48
245.48
245.48
245.48
245.48
245.48001
245.48014
245.48132
245.48846
245.5343
245.70268
245.96583
246.48603
247.55829
249.40297
251.21681
249.23032
244.62128
242.46645
243.50022
245.20873
246.65677
247.30432
247.55889
247.31594
246.98378
246.59629
246.29231
246.00822
245.81221
245.70527
245.54248
245.36389
245.28421
245.27486
245.292
245.28549
245.25209
245.128
244.99658
244.9474
245.20662
245.34491
245.2599
245.46749
245.88046
246.84446
246.38601
244.95331
243.26309
241.89321
241.04623
241.13545
241.81144
242.52508
242.92943
242.67991
242.55494
242.84142
241.9383
239.63264
236.79494
234.10025
231.7338
229.67031
227.92532
226.59421
225.44245
224.19967
222.50209
219.76177
214.45966
204.82864
188.94758
171.75375
162.34579
245.48002
245.48
245.48
245.48
245.48
245.48
245.48
245.48
245.48
245.48
245.48
245.48
245.48
245.48
245.48
245.48
245.48
245.48
245.48
245.48
245.48
245.48
245.48
245.48
245.48
245.48
245.48
245.48
245.48
245.48
245.48
245.48
245.48
245.48
245.48
245.48
245.48
245.48
245.48
245.48
245.48
245.48
245.48
245.48
245.48
245.48
245.48
245.48
245.48
245.48
245.48
245.48
245.48
245.48
245.48
245.48
245.48
245.48
245.48
245.48
245.48
245.48
245.48
245.48
245.48
245.48
245.48
245.48
245.48
245.48
245.48
245.48
245.48
245.48
245.48
245.48
245.48
245.48
245.48001
245.48014
245.4813
245.48834
245.5348
245.70583
245.96999
246.4953
247.59773
249.53898
251.41361
249.6191
245.2516
243.05909
243.88912
245.45311
246.64416
247.21875
247.33079
247.11032
246.75412
246.37628
246.10439
245.84451
245.63383
245.4991
245.33722
245.14828
245.07174
245.05413
245.06035
245.04534
245.00339
244.87277
244.74018
244.69836
244.95695
245.11595
245.04521
245.17889
245.3933
246.38569
245.97438
244.50908
242.76254
241.43784
240.75068
241.00623
241.73432
242.49445
243.03974
242.9155
242.76971
242.97509
242.19979
240.22263
237.73545
235.30367
233.12193
231.16132
229.46032
228.12076
226.92036
225.59086
223.87925
221.19823
215.97941
206.65477
191.23681
173.67123
163.64325
245.48002
245.48
245.48
245.48
245.48
245.48
245.48
245.48
245.48
245.48
245.48
245.48
245.48
245.48
245.48
245.48
245.48
245.48
245.48
245.48
245.48
245.48
245.48
245.48
245.48
245.48
245.48
245.48
245.48
245.48
245.48
245.48
245.48
245.48
245.48
245.48
245.48
245.48
245.48
245.48
245.48
245.48
245.48
245.48
245.48
245.48
245.48
245.48
245.48
245.48
245.48
245.48
245.48
245.48
245.48
245.48
245.48
245.48
245.48
245.48
245.48
245.48
245.48
245.48
245.48
245.48
245.48
245.48
245.48
245.48
245.48
245.48
245.48
245.48
245.48
245.48
245.48
245.48
245.48001
245.48014
245.48129
245.48844
245.53764
245.71208
245.96871
246.48913
247.61624
249.71469
251.50951
249.63165
245.58529
243.67773
244.48834
245.93096
247.01482
247.50874
247.53081
247.26605
246.87225
246.51658
246.22588
246.00204
245.82641
245.72132
245.65723
245.50312
245.45553
245.45541
245.47517
245.47282
245.44117
245.32421
245.19484
245.13778
245.39863
245.5402
245.46621
245.57067
245.76176
246.76866
246.41297
245.01355
243.3145
242.04869
241.41684
241.70144
242.43778
243.21485
243.75846
243.61747
243.45828
243.68596
243.10937
241.35622
239.02936
236.69534
234.57742
232.66703
231.00086
229.69847
228.53938
227.23263
225.58037
222.952
217.66151
208.00381
191.55329
173.04446
162.43532
245.48003
245.48
245.48
245.48
245.48
245.48
245.48
245.48
245.48
245.48
245.48
245.48
245.48
245.48
245.48
245.48
245.48
245.48
245.48
245.48
245.48
245.48
245.48
245.48
245.48
245.48
245.48
245.48
245.48
245.48
245.48
245.48
245.48
245.48
245.48
245.48
245.48
245.48
245.48
245.48
245.48
245.48
245.48
245.48
245.48
245.48
245.48
245.48
245.48
245.48
245.48
245.48
245.48
245.48
245.48
245.48
245.48
245.48
245.48
245.48
245.48
245.48
245.48
245.48
245.48
245.48
245.48
245.48
245.48
245.48
245.48
245.48
245.48
245.48
245.48
245.48
245.48
245.48
245.48001
245.48013
245.48129
245.48856
245.54043
245.71876
245.97032
246.48189
247.62207
249.85766
251.63235
249.59111
245.71903
243.98082
244.88569
246.41698
247.48589
247.93158
247.93409
247.64276
247.21521
246.87214
246.59997
246.32991
246.16357
246.07604
246.00161
245.84118
245.80419
245.79212
245.80477
245.80562
245.78519
245.67122
245.53715
245.47332
245.72319
245.85345
245.76942
245.9219
246.22283
247.1925
246.76693
245.33586
243.61754
242.2938
241.5598
241.72189
242.3817
243.12437
243.58003
243.35268
243.20232
243.44236
242.66651
240.59814
237.96686
235.39447
233.08994
231.05265
229.30445
227.95173
226.76012
225.43488
223.66323
220.88231
215.53176
205.91825
190.2097
172.75857
163.0434
245.48003
245.48
245.48
245.48
245.48
245.48
245.48
245.48
245.48
245.48
245.48
245.48
245.48
245.48
245.48
245.48
245.48
245.48
245.48
245.48
245.48
245.48
245.48
245.48
245.48
245.48
245.48
245.48
245.48
245.48
245.48
245.48
245.48
245.48
245.48
245.48
245.48
245.48
245.48
245.48
245.48
245.48
245.48
245.48
245.48
245.48
245.48
245.48
245.48
245.48
245.48
245.48
245.48
245.48
245.48
245.48
245.48
245.48
245.48
245.48
245.48
245.48
245.48
245.48
245.48
245.48
245.48
245.48
245.48
245.48
245.48
245.48
245.48
245.48
245.48
245.48
245.48
245.48
245.48001
245.48013
245.48129
245.4888
245.54493
245.7279
245.97131
246.47408
247.63014
249.92376
251.64853
249.56557
245.78012
244.11341
245.09054
246.67978
247.78671
248.24476
248.24238
247.97421
247.53202
247.18972
246.91915
246.6425
246.47942
246.38692
246.33504
246.17921
246.12769
246.11907
246.13924
246.14434
246.12738
246.01683
245.88963
245.82348
246.08077
246.22203
246.15965
246.25758
246.41723
247.40248
247.07164
245.6873
244.03703
242.90619
242.37372
242.56467
243.1405
243.87977
244.23203
243.93631
243.76951
244.05848
243.6372
241.97455
239.65737
237.29914
235.13882
233.19783
231.52054
230.2397
229.14578
227.90742
226.22232
223.43857
217.79474
207.38986
190.20429
171.7263
161.51957
245.48003
245.48
245.48
245.48
245.48
245.48
245.48
245.48
245.48
245.48
245.48
245.48
245.48
245.48
245.48
245.48
245.48
245.48
245.48
245.48
245.48
245.48
245.48
245.48
245.48
245.48
245.48
245.48
245.48
245.48
245.48
245.48
245.48
245.48
245.48
245.48
245.48
245.48
245.48
245.48
245.48
245.48
245.48
245.48
245.48
245.48
245.48
245.48
245.48
245.48
245.48
245.48
245.48
245.48
245.48
245.48
245.48
245.48
245.48
245.48
245.48
245.48
245.48
245.48
245.48
245.48
245.48
245.48
245.48
245.48
245.48
245.48
245.48
245.48
245.48
245.48
245.48
245.48
245.48001
245.48013
245.4813
245.48911
245.5503
245.73822
245.97395
246.47279
247.67591
250.13431
251.67969
249.39462
245.77584
244.16955
245.19784
246.82067
247.9639
248.44298
248.44553
248.19444
247.74286
247.39675
247.12548
246.84178
246.69719
246.58935
246.54149
246.39866
246.34504
246.34489
246.35822
246.35821
246.33193
246.20757
246.0674
246.00269
246.25253
246.38259
246.30028
246.45568
246.74935
247.71898
247.29335
245.80485
244.09077
242.90207
242.29487
242.40793
242.9482
243.67894
243.97298
243.60803
243.40485
243.68205
243.11139
241.22294
238.67556
236.11807
233.78639
231.71658
229.93609
228.56315
227.3925
226.12162
224.37219
221.53988
216.0282
206.03396
189.75038
172.00409
162.30202
245.48003
245.48
245.48
245.48
245.48
245.48
245.48
245.48
245.48
245.48
245.48
245.48
245.48
245.48
245.48
245.48
245.48
245.48
245.48
245.48
245.48
245.48
245.48
245.48
245.48
245.48
245.48
245.48
245.48
245.48
245.48
245.48
245.48
245.48
245.48
245.48
245.48
245.48
245.48
245.48
245.48
245.48
245.48
245.48
245.48
245.48
245.48
245.48
245.48
245.48
245.48
245.48
245.48
245.48
245.48
245.48
245.48
245.48
245.48
245.48
245.48
245.48
245.48
245.48
245.48
245.48
245.48
245.48
245.48
245.48
245.48
245.48
245.48
245.48
245.48
245.48
245.48
245.48
245.48001
245.48013
245.48131
245.48951
245.55741
245.75062
245.97812
246.47783
247.73172
250.32751
251.78827
249.32973
245.74458
244.15351
245.23872
246.91269
248.09752
248.59635
248.59666
248.33933
247.88393
247.52654
247.25287
246.96153
246.82548
246.71494
246.66683
246.55432
246.48568
246.49152
246.50232
246.49397
246.45989
246.33557
246.2121
246.17235
246.43702
246.62226
246.57999
246.6752
246.6839
247.69774
247.39558
245.86597
244.13609
243.08243
242.63283
242.74687
243.21217
243.86364
244.0787
243.70961
243.52527
243.80883
243.37408
241.67286
239.29691
236.8558
234.59213
232.56887
230.84297
229.55358
228.49459
227.33088
225.60677
222.62896
216.68801
205.84699
188.55489
170.52251
160.82122
245.48003
245.48
245.48
245.48
245.48
245.48
245.48
245.48
245.48
245.48
245.48
245.48
245.48
245.48
245.48
245.48
245.48
245.48
245.48
245.48
245.48
245.48
245.48
245.48
245.48
245.48
245.48
245.48
245.48
245.48
245.48
245.48
245.48
245.48
245.48
245.48
245.48
245.48
245.48
245.48
245.48
245.48
245.48
245.48
245.48
245.48
245.48
245.48
245.48
245.48
245.48
245.48
245.48
245.48
245.48
245.48
245.48
245.48
245.48
245.48
245.48
245.48
245.48
245.48
245.48
245.48
245.48
245.48
245.48
245.48
245.48
245.48
245.48
245.48
245.48
245.48
245.48
245.48
245.48001
245.48013
245.48132
245.49003
245.56595
245.76392
245.98273
246.48745
247.80581
250.52813
251.90229
249.31456
245.71868
244.11184
245.24332
246.96455
248.18914
248.71288
248.72245
248.45708
247.98937
247.61651
247.33391
247.03891
246.89196
246.78126
246.73309
246.63391
246.55513
246.55633
246.5735
246.56918
246.53343
246.39822
246.2729
246.24439
246.51642
246.73679
246.72486
246.7897
246.6715
247.65935
247.39331
245.88429
244.17267
243.17422
242.78993
242.93613
243.36627
244.01248
244.26668
243.95447
243.79978
244.09091
243.82011
242.34769
240.18637
237.90059
235.74442
233.80347
232.16534
230.98399
230.0407
228.94909
227.23321
224.13475
217.79415
206.13542
187.80892
169.33701
159.51707
245.48004
245.48
245.48
245.48
245.48
245.48
245.48
245.48
245.48
245.48
245.48
245.48
245.48
245.48
245.48
245.48
245.48
245.48
245.48
245.48
245.48
245.48
245.48
245.48
245.48
245.48
245.48
245.48
245.48
245.48
245.48
245.48
245.48
245.48
245.48
245.48
245.48
245.48
245.48
245.48
245.48
245.48
245.48
245.48
245.48
245.48
245.48
245.48
245.48
245.48
245.48
245.48
245.48
245.48
245.48
245.48
245.48
245.48
245.48
245.48
245.48
245.48
245.48
245.48
245.48
245.48
245.48
245.48
245.48
245.48
245.48
245.48
245.48
245.48
245.48
245.48
245.48
245.48
245.48001
245.48013
245.48133
245.4907
245.57653
245.77875
245.98791
246.50195
247.89517
250.75378
252.04547
249.33871
245.69767
244.05679
245.23443
247.01605
248.28277
248.82769
248.84577
248.56852
248.07566
247.69027
247.39421
247.08993
246.93358
246.82578
246.76768
246.7044
246.61057
246.61033
246.63433
246.63368
246.59269
246.45074
246.31898
246.28757
246.57305
246.80111
246.79288
246.83716
246.69111
247.65999
247.42273
245.93548
244.25184
243.29016
242.91657
243.03315
243.43911
244.04769
244.26782
243.95835
243.82656
244.1482
243.98579
242.61485
240.51956
238.26005
236.11379
234.18926
232.57748
231.43725
230.55319
229.52267
227.80339
224.58019
217.93319
205.68291
186.66492
168.00032
158.22037
245.48004
245.48
245.48
245.48
245.48
245.48
245.48
245.48
245.48
245.48
245.48
245.48
245.48
245.48
245.48
245.48
245.48
245.48
245.48
245.48
245.48
245.48
245.48
245.48
245.48
245.48
245.48
245.48
245.48
245.48
245.48
245.48
245.48
245.48
245.48
245.48
245.48
245.48
245.48
245.48
245.48
245.48
245.48
245.48
245.48
245.48
245.48
245.48
245.48
245.48
245.48
245.48
245.48
245.48
245.48
245.48
245.48
245.48
245.48
245.48
245.48
245.48
245.48
245.48
245.48
245.48
245.48
245.48
245.48
245.48
245.48
245.48
245.48
245.48
245.48
245.48
245.48
245.48
245.48001
245.48013
245.48135
245.49158
245.58897
245.79411
245.99295
246.52153
247.99181
250.98093
252.23289
249.41787
245.67859
243.98938
245.22288
247.0756
248.39372
248.96277
248.98787
248.70018
248.17368
247.7688
247.4643
247.13857
246.97782
246.86142
246.78754
246.76169
246.65397
246.65478
246.6811
246.67858
246.63307
246.4849
246.35055
246.3261
246.61595
246.84822
246.84147
246.88978
246.73552
247.7097
247.47135
245.9531
244.24918
243.28545
242.91542
242.98885
243.36872
243.95819
244.14312
243.81444
243.67444
243.98968
243.85841
242.50297
240.40496
238.11927
235.93153
233.97361
232.33785
231.18311
230.30741
229.32711
227.61331
224.28793
217.46632
205.00418
185.94143
167.47846
157.87856
245.48004
245.48
245.48
245.48
245.48
245.48
245.48
245.48
245.48
245.48
245.48
245.48
245.48
245.48
245.48
245.48
245.48
245.48
245.48
245.48
245.48
245.48
245.48
245.48
245.48
245.48
245.48
245.48
245.48
245.48
245.48
245.48
245.48
245.48
245.48
245.48
245.48
245.48
245.48
245.48
245.48
245.48
245.48
245.48
245.48
245.48
245.48
245.48
245.48
245.48
245.48
245.48
245.48
245.48
245.48
245.48
245.48
245.48
245.48
245.48
245.48
245.48
245.48
245.48
245.48
245.48
245.48
245.48
245.48
245.48
245.48
245.48
245.48
245.48
245.48
245.48
245.48
245.48
245.48001
245.48013
245.48136
245.49271
245.60343
245.81011
245.99763
246.54599
248.10501
251.23948
252.45349
249.52795
245.65901
243.90755
245.20657
247.14414
248.52193
249.11945
249.14963
248.85316
248.29304
247.85975
247.54544
247.19926
247.03099
246.90258
246.81685
246.82117
246.70318
246.70347
246.73113
246.72873
246.68569
246.53995
246.40588
246.38329
246.67762
246.92042
246.92598
246.95079
246.78301
247.74986
247.54931
246.03944
244.32754
243.34284
242.99559
243.01468
243.35445
243.97596
244.20258
243.90906
243.76766
244.07648
244.00432
242.73805
240.73293
238.50869
236.33614
234.38253
232.75532
231.61548
230.77233
229.83432
228.13125
224.72842
217.68539
204.8134
185.30023
166.64061
156.99099
245.48004
245.48
245.48
245.48
245.48
245.48
245.48
245.48
245.48
245.48
245.48
245.48
245.48
245.48
245.48
245.48
245.48
245.48
245.48
245.48
245.48
245.48
245.48
245.48
245.48
245.48
245.48
245.48
245.48
245.48
245.48
245.48
245.48
245.48
245.48
245.48
245.48
245.48
245.48
245.48
245.48
245.48
245.48
245.48
245.48
245.48
245.48
245.48
245.48
245.48
245.48
245.48
245.48
245.48
245.48
245.48
245.48
245.48
245.48
245.48
245.48
245.48
245.48
245.48
245.48
245.48
245.48
245.48
245.48
245.48
245.48
245.48
245.48
245.48
245.48
245.48
245.48
245.48
245.48001
245.48013
245.48137
245.49414
245.61969
245.82617
246.00203
246.57498
248.22383
251.50518
252.72083
249.6846
245.63947
243.81093
245.18378
247.21777
248.66491
249.29443
249.32723
249.02125
248.43152
247.96349
247.63235
247.26866
247.09212
246.94949
246.85307
246.87208
246.75327
246.74477
246.77997
246.78423
246.74865
246.60041
246.45523
246.42871
246.72723
246.97017
246.97976
247.02414
246.86702
247.85845
247.64196
246.12107
244.39277
243.38746
243.01404
243.00685
243.3286
243.9908
244.27125
244.00469
243.86
244.15593
244.09778
242.84842
240.85678
238.62869
236.43336
234.45849
232.80644
231.64428
230.79906
229.87405
228.17536
224.75064
217.66771
204.77198
185.30561
166.67034
157.02906
245.48005
245.48
245.48
245.48
245.48
245.48
245.48
245.48
245.48
245.48
245.48
245.48
245.48
245.48
245.48
245.48
245.48
245.48
245.48
245.48
245.48
245.48
245.48
245.48
245.48
245.48
245.48
245.48
245.48
245.48
245.48
245.48
245.48
245.48
245.48
245.48
245.48
245.48
245.48
245.48
245.48
245.48
245.48
245.48
245.48
245.48
245.48
245.48
245.48
245.48
245.48
245.48
245.48
245.48
245.48
245.48
245.48
245.48
245.48
245.48
245.48
245.48
245.48
245.48
245.48
245.48
245.48
245.48
245.48
245.48
245.48
245.48
245.48
245.48
245.48
245.48
245.48
245.48
245.48001
245.48013
245.48137
245.49591
245.63763
245.84225
246.00638
246.609
248.35172
251.80525
253.05596
249.88233
245.61421
243.69538
245.15289
247.29379
248.82
249.48613
249.51837
249.19638
248.57985
248.07442
247.71707
247.33866
247.15214
246.99295
246.89331
246.90906
246.80593
246.7722
246.81957
246.83787
246.81276
246.65795
246.49997
246.46971
246.77427
247.02854
247.0472
247.08999
246.92545
247.91123
247.70379
246.18086
244.45463
243.4425
243.07061
243.00514
243.29162
243.95296
244.23584
243.98139
243.843
244.14912
244.13881
242.94072
240.99425
238.78714
236.5833
234.60492
232.9566
231.81043
231.01873
230.1681
228.48158
224.93073
217.54753
204.1698
184.24787
165.51406
155.93445
245.48005
245.48
245.48
245.48
245.48
245.48
245.48
245.48
245.48
245.48
245.48
245.48
245.48
245.48
245.48
245.48
245.48
245.48
245.48
245.48
245.48
245.48
245.48
245.48
245.48
245.48
245.48
245.48
245.48
245.48
245.48
245.48
245.48
245.48
245.48
245.48
245.48
245.48
245.48
245.48
245.48
245.48
245.48
245.48
245.48
245.48
245.48
245.48
245.48
245.48
245.48
245.48
245.48
245.48
245.48
245.48
245.48
245.48
245.48
245.48
245.48
245.48
245.48
245.48
245.48
245.48
245.48
245.48
245.48
245.48
245.48
245.48
245.48
245.48
245.48
245.48
245.48
245.48
245.48001
245.48012
245.48138
245.49803
245.65697
245.85809
246.01083
246.64759
248.48254
252.10533
253.43383
250.12383
245.58302
243.55411
245.10937
247.36454
248.97866
249.68619
249.71694
249.37407
248.72907
248.18664
247.79766
247.39802
247.21061
247.01722
246.93028
246.92995
246.84565
246.7831
246.84099
246.87617
246.86128
246.70124
246.52451
246.49021
246.80303
247.03854
247.04589
247.13121
247.00026
248.03276
247.7653
246.21029
244.46202
243.4312
243.03834
242.93892
243.184
243.89107
244.24532
244.02162
243.88161
244.1775
244.17067
242.96986
241.01363
238.78668
236.55058
234.54477
232.87414
231.71755
230.94257
230.11634
228.4377
224.86999
217.44896
204.02291
184.05774
165.29445
155.70953
245.48005
245.48
245.48
245.48
245.48
245.48
245.48
245.48
245.48
245.48
245.48
245.48
245.48
245.48
245.48
245.48
245.48
245.48
245.48
245.48
245.48
245.48
245.48
245.48
245.48
245.48
245.48
245.48
245.48
245.48
245.48
245.48
245.48
245.48
245.48
245.48
245.48
245.48
245.48
245.48
245.48
245.48
245.48
245.48
245.48
245.48
245.48
245.48
245.48
245.48
245.48
245.48
245.48
245.48
245.48
245.48
245.48
245.48
245.48
245.48
245.48
245.48
245.48
245.48
245.48
245.48
245.48
245.48
245.48
245.48
245.48
245.48
245.48
245.48
245.48
245.48
245.48
245.48
245.48001
245.48012
245.48138
245.50049
245.6774
245.87362
246.01525
246.6917
248.62832
252.42723
253.83587
250.38562
245.53845
243.37766
245.04088
247.41946
249.133
249.88649
249.91524
249.55092
248.87283
248.29528
247.87402
247.44408
247.25639
247.03211
246.94366
246.93659
246.87128
246.7929
246.84994
246.8896
246.8793
246.7164
246.50878
246.48705
246.80837
247.01679
247.01057
247.15842
247.15686
248.21686
247.83037
246.1936
244.36316
243.25629
242.74043
242.63596
242.91303
243.6295
244.14174
243.9696
243.81223
244.0495
243.94091
242.61148
240.52698
238.18669
235.85781
233.78001
232.0491
230.85113
230.06611
229.25272
227.59385
224.07232
216.81446
203.79086
184.3952
165.90733
156.41005
245.48006
245.48
245.48
245.48
245.48
245.48
245.48
245.48
245.48
245.48
245.48
245.48
245.48
245.48
245.48
245.48
245.48
245.48
245.48
245.48
245.48
245.48
245.48
245.48
245.48
245.48
245.48
245.48
245.48
245.48
245.48
245.48
245.48
245.48
245.48
245.48
245.48
245.48
245.48
245.48
245.48
245.48
245.48
245.48
245.48
245.48
245.48
245.48
245.48
245.48
245.48
245.48
245.48
245.48
245.48
245.48
245.48
245.48
245.48
245.48
245.48
245.48
245.48
245.48
245.48
245.48
245.48
245.48
245.48
245.48
245.48
245.48
245.48
245.48
245.48
245.48
245.48
245.48
245.48001
245.48012
245.48138
245.50331
245.69858
245.88867
246.02001
246.74075
248.79482
252.78748
254.26118
250.65123
245.46591
243.15305
244.93426
247.45095
249.27639
250.08534
250.11663
249.73171
249.00912
248.40413
247.95133
247.48375
247.27824
247.05698
246.94067
246.9194
246.89222
246.78418
246.84548
246.89568
246.88912
246.72009
246.48328
246.47841
246.78935
246.96606
246.94198
247.14782
247.32035
248.36865
247.86966
246.17422
244.27809
243.0803
242.47408
242.38183
242.69025
243.38777
243.97046
243.81947
243.64404
243.84744
243.68171
242.25942
240.06828
237.62921
235.21995
233.07957
231.29497
230.05821
229.25349
228.43656
226.78405
223.29924
216.15896
203.3818
184.26794
165.88517
156.45273
245.48006
245.48
245.48
245.48
245.48
245.48
245.48
245.48
245.48
245.48
245.48
245.48
245.48
245.48
245.48
245.48
245.48
245.48
245.48
245.48
245.48
245.48
245.48
245.48
245.48
245.48
245.48
245.48
245.48
245.48
245.48
245.48
245.48
245.48
245.48
245.48
245.48
245.48
245.48
245.48
245.48
245.48
245.48
245.48
245.48
245.48
245.48
245.48
245.48
245.48
245.48
245.48
245.48
245.48
245.48
245.48
245.48
245.48
245.48
245.48
245.48
245.48
245.48
245.48
245.48
245.48
245.48
245.48
245.48
245.48
245.48
245.48
245.48
245.48
245.48
245.48
245.48
245.48
245.48001
245.48011
245.48137
245.50653
245.72028
245.9033
246.02538
246.79431
248.9859
253.19751
254.70362
250.90538
245.3547
242.87806
244.78652
247.4656
249.41918
250.29738
250.33964
249.93365
249.15222
248.52207
248.03515
247.52916
247.29416
247.07856
246.93361
246.8944
246.90727
246.78317
246.84047
246.89171
246.8809
246.70123
246.40621
246.46687
246.75866
246.90407
246.86965
247.16393
247.52383
248.56792
247.94638
246.16641
244.16507
242.75432
241.99696
241.92134
242.25136
242.89354
243.58035
243.55182
243.37887
243.53512
243.24092
241.66177
239.31023
236.73119
234.21264
231.99578
230.15259
228.88362
228.06638
227.2642
225.62996
222.159
215.06428
202.44388
183.63204
165.46879
156.17757
245.48006
245.48
245.48
245.48
245.48
245.48
245.48
245.48
245.48
245.48
245.48
245.48
245.48
245.48
245.48
245.48
245.48
245.48
245.48
245.48
245.48
245.48
245.48
245.48
245.48
245.48
245.48
245.48
245.48
245.48
245.48
245.48
245.48
245.48
245.48
245.48
245.48
245.48
245.48
245.48
245.48
245.48
245.48
245.48
245.48
245.48
245.48
245.48
245.48
245.48
245.48
245.48
245.48
245.48
245.48
245.48
245.48
245.48
245.48
245.48
245.48
245.48
245.48
245.48
245.48
245.48
245.48
245.48
245.48
245.48
245.48
245.48
245.48
245.48
245.48
245.48
245.48
245.48
245.48
245.48011
245.48135
245.5101
245.74239
245.91765
246.03044
246.85118
249.19415
253.61801
255.13424
251.15152
245.20922
242.56018
244.60869
247.47146
249.57334
250.53304
250.59227
250.16714
249.32447
248.65678
248.1347
247.59038
247.31839
247.10367
246.92963
246.86865
246.91066
246.78377
246.8332
246.89049
246.87948
246.69082
246.35647
246.48036
246.73079
246.84981
246.81739
247.1882
247.68144
248.72584
248.00897
246.14971
244.07927
242.54453
241.71023
241.62531
241.9254
242.50507
243.28271
243.39735
243.24875
243.35652
242.95987
241.26832
238.80505
236.12902
233.52092
231.22986
229.32007
228.00239
227.15429
226.32702
224.68763
221.27256
214.32433
201.97048
183.43789
165.29343
155.9901
245.48006
245.48
245.48
245.48
245.48
245.48
245.48
245.48
245.48
245.48
245.48
245.48
245.48
245.48
245.48
245.48
245.48
245.48
245.48
245.48
245.48
245.48
245.48
245.48
245.48
245.48
245.48
245.48
245.48
245.48
245.48
245.48
245.48
245.48
245.48
245.48
245.48
245.48
245.48
245.48
245.48
245.48
245.48
245.48
245.48
245.48
245.48
245.48
245.48
245.48
245.48
245.48
245.48
245.48
245.48
245.48
245.48
245.48
245.48
245.48
245.48
245.48
245.48
245.48
245.48
245.48
245.48
245.48
245.48
245.48
245.48
245.48
245.48
245.48
245.48
245.48
245.48
245.48
245.48
245.4801
245.48132
245.51404
245.76435
245.93144
246.03407
246.91152
249.44452
254.11955
255.56859
251.37834
245.04142
242.21538
244.41975
247.4728
249.74979
250.80063
250.88085
250.43352
249.5306
248.80986
248.24833
247.66185
247.35951
247.12778
246.93609
246.84935
246.90523
246.80136
246.83299
246.89438
246.88344
246.68039
246.31645
246.50265
246.71882
246.8404
246.83232
247.27234
247.86002
248.86215
248.04931
246.1208
243.98264
242.33425
241.38745
241.24509
241.49629
242.0405
242.83262
243.02736
242.93081
243.021
242.52207
240.70723
238.13071
235.35422
232.6605
230.32097
228.38804
227.07062
226.23979
225.45729
223.8224
220.2877
213.04518
200.25514
181.46619
163.5004
154.41351
245.48007
245.48
245.48
245.48
245.48
245.48
245.48
245.48
245.48
245.48
245.48
245.48
245.48
245.48
245.48
245.48
245.48
245.48
245.48
245.48
245.48
245.48
245.48
245.48
245.48
245.48
245.48
245.48
245.48
245.48
245.48
245.48
245.48
245.48
245.48
245.48
245.48
245.48
245.48
245.48
245.48
245.48
245.48
245.48
245.48
245.48
245.48
245.48
245.48
245.48
245.48
245.48
245.48
245.48
245.48
245.48
245.48
245.48
245.48
245.48
245.48
245.48
245.48
245.48
245.48
245.48
245.48
245.48
245.48
245.48
245.48
245.48
245.48
245.48
245.48
245.48
245.48
245.48
245.48
245.48009
245.4813
245.5185
245.78542
245.94418
246.03776
246.96721
249.66181
254.57899
256.06016
251.66618
244.88096
241.86077
244.22333
247.46512
249.93825
251.09146
251.19984
250.73047
249.77097
248.98026
248.37559
247.7383
247.40763
247.14919
246.94598
246.83461
246.88565
246.82312
246.82541
246.89945
246.89885
246.70437
246.32846
246.54478
246.74189
246.86547
246.87328
247.33462
247.94539
248.92825
248.07677
246.11818
243.95749
242.28984
241.31705
241.13976
241.36056
241.89643
242.69323
242.89381
242.80231
242.8917
242.39556
240.57773
237.98833
235.19253
232.46953
230.11881
228.19224
226.88529
226.07213
225.32568
223.71405
220.13857
212.74229
199.66111
180.58865
162.58912
153.53932
245.48007
245.48
245.48
245.48
245.48
245.48
245.48
245.48
245.48
245.48
245.48
245.48
245.48
245.48
245.48
245.48
245.48
245.48
245.48
245.48
245.48
245.48
245.48
245.48
245.48
245.48
245.48
245.48
245.48
245.48
245.48
245.48
245.48
245.48
245.48
245.48
245.48
245.48
245.48
245.48
245.48
245.48
245.48
245.48
245.48
245.48
245.48
245.48
245.48
245.48
245.48
245.48
245.48
245.48
245.48
245.48
245.48
245.48
245.48
245.48
245.48
245.48
245.48
245.48
245.48
245.48
245.48
245.48
245.48
245.48
245.48
245.48
245.48
245.48
245.48
245.48
245.48
245.48
245.48
245.48009
245.48126
245.52355
245.80566
245.95531
246.03979
247.02334
249.9129
255.07244
256.52617
251.97253
244.7371
241.50688
244.01057
247.44463
250.12682
251.38863
251.53338
251.04241
250.03427
249.16835
248.51377
247.8274
247.45523
247.15968
246.95859
246.82201
246.8573
246.83309
246.80409
246.89433
246.90483
246.7116
246.32629
246.56193
246.75913
246.8978
246.92558
247.3965
247.99939
248.97653
248.10761
246.12109
243.9293
242.21578
241.18505
240.95056
241.11961
241.64591
242.46224
242.71988
242.66212
242.74082
242.21367
240.36471
237.73876
234.90456
232.14005
229.77024
227.85532
226.55978
225.76043
225.04618
223.44303
219.77673
212.12451
198.60682
179.1634
161.1203
152.11958
245.48007
245.48
245.48
245.48
245.48
245.48
245.48
245.48
245.48
245.48
245.48
245.48
245.48
245.48
245.48
245.48
245.48
245.48
245.48
245.48
245.48
245.48
245.48
245.48
245.48
245.48
245.48
245.48
245.48
245.48
245.48
245.48
245.48
245.48
245.48
245.48
245.48
245.48
245.48
245.48
245.48
245.48
245.48
245.48
245.48
245.48
245.48
245.48
245.48
245.48
245.48
245.48
245.48
245.48
245.48
245.48
245.48
245.48
245.48
245.48
245.48
245.48
245.48
245.48
245.48
245.48
245.48
245.48
245.48
245.48
245.48
245.48
245.48
245.48
245.48
245.48
245.48
245.48
245.48
245.48008
245.48122
245.52927
245.82535
245.96427
246.04043
247.07285
250.12422
255.52198
257.05456
252.35451
244.62011
241.15977
243.77167
247.39201
250.29836
251.68105
251.8704
251.36276
250.31613
249.37512
248.66559
247.94576
247.51712
247.16742
246.99741
246.79971
246.83825
246.83474
246.78524
246.88861
246.905
246.71903
246.33567
246.58287
246.79072
246.93717
246.97027
247.41766
247.97246
248.9692
248.13264
246.14773
243.95513
242.247
241.22248
240.96676
241.11349
241.64261
242.47146
242.74509
242.70589
242.79726
242.30747
240.50303
237.90263
235.08157
232.31728
229.95492
228.05734
226.77237
225.98461
225.28663
223.69599
220.01502
212.29486
198.64386
179.06009
160.97646
151.95951
245.48008
245.48
245.48
245.48
245.48
245.48
245.48
245.48
245.48
245.48
245.48
245.48
245.48
245.48
245.48
245.48
245.48
245.48
245.48
245.48
245.48
245.48
245.48
245.48
245.48
245.48
245.48
245.48
245.48
245.48
245.48
245.48
245.48
245.48
245.48
245.48
245.48
245.48
245.48
245.48
245.48
245.48
245.48
245.48