/*--------------------------------*- C++ -*----------------------------------*\
| =========                 |                                                 |
| \\      /  F ield         | OpenFOAM: The Open Source CFD Toolbox           |
|  \\    /   O peration     | Version:  2506                                  |
|   \\  /    A nd           | Website:  www.openfoam.com                      |
|    \\/     M anipulation  |                                                 |
\*---------------------------------------------------------------------------*/
FoamFile
{
    version     2.0;
    format      ascii;
    arch        "LSB;label=32;scalar=64";
    class       volVectorField;
    location    "0.00017";
    object      wallShearStress;
}
// * * * * * * * * * * * * * * * * * * * * * * * * * * * * * * * * * * * * * //

dimensions      [1 -1 -2 0 0 0 0];

internalField   uniform (0 0 0);

boundaryField
{
    Side
    {
        type            empty;
    }
    Inlet
    {
        type            calculated;
        value           uniform (0 0 0);
    }
    Airfoil
    {
        type            calculated;
        value           nonuniform List<vector> 
1047
(
(-521.8174 202.69168 -7.1410854e-23)
(-439.57337 143.49117 2.2420582e-18)
(-475.32375 273.5371 1.5972159e-18)
(-371.34907 366.07568 -4.8648093e-18)
(-356.26458 405.2744 -9.4039548e-38)
(-354.41433 373.50799 3.2038879e-18)
(-346.56832 390.71519 4.6706661e-23)
(-329.39026 408.14895 3.356132e-18)
(-326.50262 426.05705 3.5076751e-35)
(-351.14166 431.02775 -5.3562772e-18)
(-439.96922 400.14924 5.0913013e-23)
(-460.29005 374.5805 1.8202786e-18)
(-461.80997 371.11546 -5.0489228e-23)
(-439.71685 400.03037 -5.441216e-18)
(-440.50325 413.69995 3.6568437e-18)
(-446.02178 374.92548 -5.1680641e-23)
(-411.41312 415.71275 -9.4039548e-38)
(-347.99043 498.79985 -1.996941e-18)
(-363.3003 466.6833 0)
(-314.82819 492.29666 1.976084e-18)
(-254.63933 540.90681 1.1585146e-22)
(-269.85401 513.55948 2.0000705e-18)
(-257.56652 512.11515 1.9626447e-18)
(-227.81315 548.99985 -4.1146099e-18)
(-1668.0935 39.92199 0)
(-9130.6958 -2731.1332 6.051731e-18)
(-12201.548 -3915.6701 2.0457009e-18)
(-12099.123 -3955.661 1.3353616e-35)
(-11916.824 -4012.2411 -3.3197481e-18)
(-12153.432 -4115.076 9.4039548e-38)
(-12790.221 -4241.477 6.251512e-36)
(-12978.217 -4350.7496 -4.7019774e-38)
(-12728.283 -4471.479 -3.634055e-18)
(-13074.276 -4641.5695 -3.8116578e-18)
(-13027.252 -4765.1519 5.1561674e-18)
(-13362.958 -4939.3548 -3.4656993e-18)
(-13518.18 -5034.5566 1.0728445e-22)
(-13688.789 -5112.6267 -5.935241e-18)
(-13649.499 -5151.5455 9.4039548e-38)
(-13659.007 -5208.3208 -2.0864194e-18)
(-13637.86 -5241.686 4.1619633e-18)
(-13557.328 -5232.2503 1.2286976e-22)
(-13369.141 -5175.3435 4.5957293e-18)
(-13197.656 -5079.9078 5.0738659e-18)
(-12969.207 -4993.1837 -1.5557197e-22)
(-12808.505 -4910.1726 2.6730432e-18)
(-12508.451 -4864.3667 9.4039548e-38)
(-12270.412 -4779.3549 1.6867914e-22)
(-11946.815 -4669.7697 -3.3310293e-18)
(-11516.511 -4555.0037 6.0021628e-18)
(-11106.935 -4449.8482 1.8127243e-22)
(-10866.815 -4377.5493 6.0239362e-18)
(-10597.707 -4270.0728 -6.2798929e-18)
(-10166.773 -4151.1758 0)
(-9856.0782 -4052.323 -1.834649e-22)
(-9582.3989 -3861.6036 -3.026815e-18)
(-9155.4691 -3760.4732 1.4722519e-23)
(-8916.482 -3658.8418 3.7595717e-18)
(-8594.6639 -3427.7628 9.4039548e-38)
(-8290.6137 -3297.1585 -3.2737084e-18)
(-8015.5372 -3100.5096 3.4813007e-18)
(-7642.2824 -2973.4141 -8.0694622e-18)
(-7341.1505 -2810.4489 4.8347316e-18)
(-6953.7757 -2599.1656 8.6237717e-18)
(-6760.137 -2494.6186 -2.6558993e-22)
(-6468.4539 -2285.0975 -1.849986e-24)
(-6193.6355 -2094.3437 2.924627e-22)
(-6006.504 -1871.5616 4.3006068e-18)
(-5898.2025 -1690.6856 -9.4039548e-38)
(-5562.843 -1439.6243 1.250726e-35)
(-5185.3963 -1185.0277 4.8301902e-18)
(-4828.1318 -947.91852 4.9340668e-18)
(-4416.7051 -721.97936 -9.4039548e-38)
(-4002.109 -604.82139 -3.4101253e-22)
(-3653.6861 -587.88841 5.6722631e-23)
(-3333.0886 -846.71387 5.9199043e-22)
(-3572.8349 -793.87788 -2.9148201e-22)
(-3165.2395 -524.54309 -2.2663531e-35)
(-3313.7618 -289.04992 -4.9045059e-18)
(-3174.2671 18.874069 0)
(-2725.6258 306.8794 1.8947959e-17)
(-2304.2104 799.30308 -8.5930122e-22)
(-2111.2656 979.62678 2.9854651e-23)
(-1427.3231 1123.8318 4.1047762e-22)
(-231.38116 1292.25 -3.2704702e-22)
(-118.49257 2400.05 3.3149102e-22)
(-12.560202 2469.7931 1.3219087e-17)
(45.077102 2529.3044 -5.0043778e-18)
(173.27989 2916.8393 5.1383603e-18)
(235.42824 3174.3904 3.7615819e-37)
(425.42508 3378.4097 -2.1059594e-17)
(689.09029 3886.2864 4.1402202e-23)
(1035.961 4545.8283 1.7151183e-17)
(1377.6053 4595.5946 3.943639e-22)
(1903.2596 4201.5744 -6.867886e-22)
(1972.5316 4203.2718 -4.1351883e-18)
(2092.7744 4495.585 6.3946893e-36)
(1957.8028 4864.3562 3.0632648e-36)
(2032.5313 5447.2212 -1.7328991e-35)
(2258.188 5648.3456 -7.1844415e-18)
(2664.5328 5303.0199 1.096225e-17)
(3139.2102 5131.0026 1.413409e-22)
(3051.4158 5268.1476 -2.0211391e-22)
(2895.8923 6529.5663 1.5759086e-22)
(3276.4427 6452.6708 9.4039548e-38)
(3395.8081 6428.0092 -7.4245861e-19)
(3330.0584 6713.3053 -6.0799982e-23)
(3195.8035 7632.3899 -4.0589564e-18)
(2798.9934 8209.3926 -4.8368723e-22)
(2543.6689 8836.7703 5.230573e-18)
(2266.7258 9180.8513 -3.6525066e-22)
(2236.0396 9475.5727 2.0433929e-18)
(2271.7214 9558.7819 6.0657426e-18)
(2496.3046 9526.8072 1.1600239e-18)
(2485.7538 9761.5464 9.5611151e-19)
(2666.316 10227.36 1.2284545e-23)
(1115.6029 4957.4433 1.0690749e-20)
(538.6097 3291.0096 -1.3865857e-19)
(-47.694044 282.92892 -4.799521e-23)
(-713.79703 950.4482 -9.8778485e-19)
(-1848.218 -2141.6293 2.9387359e-39)
(-1673.2064 -1795.865 -1.9258422e-18)
(-1604.7755 -2122.6047 -4.3382251e-19)
(-1530.7549 -2524.4065 2.2989981e-18)
(-1288.6686 -3244.9678 -3.1560534e-40)
(-1263.0275 -3379.2151 -4.0279274e-19)
(-1442.6669 -3256.6069 0)
(-1396.0563 -2689.5766 5.6252238e-19)
(-1269.7588 -1622.5016 -9.0052625e-23)
(-1123.4088 -1573.6924 -2.5440929e-18)
(-871.12573 -1765.5406 -2.9717323e-23)
(-344.75128 -1518.8438 -1.3128363e-18)
(32.786151 -1608.103 -3.5639657e-19)
(208.93731 -1078.9569 -1.1937846e-23)
(-242.97121 -1526.8797 1.383319e-22)
(-333.24049 -1665.3308 -3.2393134e-18)
(-405.87201 -1838.5127 -1.5621936e-18)
(384.5221 -3659.7399 -5.3290534e-18)
(1244.8556 -2684.2367 -1.2223212e-22)
(2819.8604 -6709.831 -6.2888369e-19)
(2817.2426 -6432.0068 5.9720831e-19)
(2934.3478 -6566.2443 8.884286e-19)
(3056.6787 -6433.8112 -7.6424236e-19)
(3031.4362 -6264.7385 1.3887542e-22)
(3135.328 -6552.6716 1.0715917e-35)
(3079.7336 -6479.4222 1.8847258e-22)
(3140.5199 -6431.3071 -2.2886736e-22)
(3208.2648 -6484.0782 0)
(3195.2268 -6622.681 -3.6877494e-18)
(3233.2706 -6679.9478 -1.0221489e-17)
(-5951.9821 4935.0096 -7.8305672e-18)
(-5879.202 4943.6842 4.3526439e-18)
(-5881.9105 4935.2403 0)
(-5629.4585 4792.3764 3.820175e-39)
(-5516.0884 4759.6311 -8.1804441e-40)
(-5448.4457 4666.1551 -1.5140367e-35)
(-5444.7717 4774.3765 5.1564599e-18)
(-5425.852 4586.552 0)
(-5546.3151 4448.1258 3.391573e-18)
(-5477.7086 4390.9134 1.880791e-37)
(-5429.8562 4352.248 4.7582182e-18)
(-5355.5882 4251.6202 1.37479e-22)
(-5260.281 4065.191 -1.1428001e-22)
(-4771.136 3318.1636 3.8529031e-35)
(-3366.53 1579.6798 2.8211864e-37)
(-2006.1947 602.64411 -2.8869692e-18)
(-1498.4421 496.98373 -2.2995038e-18)
(-1662.8326 252.6431 3.8108359e-23)
(-1773.6279 221.86738 -2.9058926e-18)
(-1726.2623 351.57883 -6.1523624e-18)
(-1737.9137 400.65772 1.7188103e-22)
(-1860.207 458.75589 -1.6683099e-22)
(-1755.5033 653.20547 3.354466e-35)
(-1919.1182 510.78962 -7.3468397e-40)
(-2113.2726 379.95153 3.7767299e-18)
(-2149.5465 362.07223 -1.9599768e-22)
(-2219.2736 490.99068 -2.7397498e-18)
(-2012.3161 859.74541 -4.9566884e-18)
(-2207.0206 736.5781 0)
(-2433.6637 554.80662 -2.7369674e-18)
(-2511.3863 466.18226 6.9721762e-18)
(-2501.4985 569.81717 3.405849e-18)
(-2531.0383 682.88706 1.6415523e-22)
(-2531.6283 713.23739 -1.5955494e-22)
(-2575.3378 720.73875 2.7824581e-18)
(-2480.9488 873.17095 3.922515e-23)
(-2264.9007 1046.2106 1.4124032e-18)
(-1950.5088 986.91789 -1.2252982e-18)
(-2533.1413 1082.2646 -4.4263414e-18)
(-2534.1882 1129.3794 6.1300392e-23)
(-2389.6833 1126.1407 -5.8096799e-23)
(-2651.1518 1177.3709 -1.470509e-18)
(-2950.0817 1179.0323 3.0132357e-18)
(-3082.7033 1196.1259 3.1561494e-18)
(-3100.2912 1211.4102 -1.2833062e-18)
(-3129.3525 1224.0556 2.9068536e-18)
(-3136.523 1224.3008 -2.8300271e-18)
(-3238.8704 1218.6901 -3.0040196e-18)
(-3234.0824 1239.357 -2.7832433e-18)
(-3165.5333 1248.3681 -4.0236405e-18)
(-3341.6843 1266.2247 1.0670294e-22)
(-3829.1737 1114.6253 3.0333457e-23)
(-3876.2112 1143.9921 -2.1012092e-18)
(-3996.6247 1169.0807 1.5382888e-22)
(-4318.633 957.98894 -1.481558e-22)
(-4513.5828 765.22333 7.1950736e-18)
(-4724.3991 736.29126 -4.5639064e-22)
(-4828.5503 671.66147 2.3290043e-22)
(-4673.8848 921.74113 4.3047889e-40)
(-4570.2637 1156.394 -1.3330935e-22)
(-4544.8094 1278.7774 -1.8506266e-18)
(-4390.492 1467.2545 3.7552378e-18)
(-3032.2077 1182.9877 3.9727686e-23)
(-4137.423 1464.918 1.7967125e-23)
(-3589.9282 1187.5952 7.8843236e-19)
(396.05812 -1000.5737 2.1707497e-18)
(678.56155 -1744.0829 7.8765505e-18)
(-602.11553 -1058.1472 -2.0218503e-35)
(-545.92286 -814.0645 -2.1703167e-18)
(89.563964 -989.73098 9.4039548e-38)
(278.80177 -1352.2727 9.1712303e-18)
(390.45933 -1175.2252 2.1479526e-18)
(257.64192 -1308.3022 -2.4180134e-18)
(-617.86307 -886.41292 3.660409e-18)
(-654.73836 -812.03357 -2.3509887e-38)
(-700.91816 -822.81375 -2.1785185e-18)
(-257.38636 -658.18003 -4.2589729e-18)
(-867.94523 -385.41669 -5.2623274e-18)
(-856.65863 -595.47103 2.063926e-22)
(-0.84654988 9.878283 -1.0295099e-22)
(19.905824 7.287969 1.8138132e-23)
(-263.36325 -833.08805 2.2958874e-41)
(527.95096 -642.83445 -1.5175711e-18)
(376.38961 -1310.5996 -2.9738707e-23)
(9.6830776 -1303.5929 9.6458791e-23)
(42.799877 -1119.034 7.8881228e-18)
(68.854866 -1146.3493 8.6617498e-23)
(322.08665 -1221.222 -7.9219515e-18)
(-1382.5554 -780.05429 9.0455989e-23)
(48.330201 -1180.5327 2.2626436e-18)
(-19.268032 -1194.8139 8.9435369e-23)
(-1282.0848 -2611.8667 -1.5902516e-22)
(-233.54007 -1255.8075 1.5873307e-22)
(-255.05704 -1059.737 2.1475936e-18)
(-500.70497 -731.88619 -6.6930443e-23)
(-1205.6532 -504.7982 -1.7541237e-18)
(-74.569538 26.941298 2.3509887e-38)
(-12.579108 4.2660049 -6.0471331e-19)
(0.11601779 86.864871 2.4944969e-23)
(7336.6402 -324.01453 3.648118e-18)
(6963.7628 -328.03163 2.3549743e-23)
(7233.7398 -291.24463 1.4667587e-18)
(7166.1023 -294.74647 -1.3499249e-18)
(6771.8223 -324.58828 -1.2494264e-18)
(6683.8068 -353.46951 3.4186768e-25)
(6706.7653 -379.18033 -4.0487671e-18)
(6695.363 -411.32103 -3.7135994e-18)
(6628.8561 -428.50059 5.2154233e-18)
(6496.4779 -410.08675 -3.3302899e-18)
(6437.3037 -356.2301 1.7152746e-18)
(6396.0565 -365.87475 1.6051113e-18)
(6309.7205 -385.75176 -1.4663521e-18)
(6038.9192 -390.05833 -1.4374749e-18)
(5277.7179 -359.98089 -4.4903253e-24)
(2958.0964 -66.62964 -4.4841551e-44)
(-101.77426 346.78634 3.5838515e-24)
(-382.7996 389.69509 1.9969961e-18)
(-382.58483 381.60734 1.9268985e-18)
(-382.90219 379.16521 1.6127782e-35)
(-383.29669 376.03889 -5.795484e-18)
(-384.13139 377.60475 3.6243498e-18)
(-384.84043 372.85741 -1.4890309e-18)
(-384.48572 375.74502 -5.5145353e-18)
(-382.7432 373.00437 -3.0304722e-24)
(-383.01871 365.49805 3.3321609e-18)
(-383.7693 368.32243 3.6734198e-40)
(-384.28176 371.16857 3.279341e-18)
(-384.98517 369.08664 2.3509887e-38)
(-386.19233 368.1742 1.7632415e-38)
(-387.07952 369.22525 1.8208209e-18)
(-387.74202 366.50667 3.08534e-18)
(-388.57574 367.17827 4.7607521e-35)
(-387.85039 369.76228 -3.040627e-18)
(-386.35595 368.6379 -1.744957e-18)
(-386.57754 368.4391 1.7259672e-18)
(-386.20389 365.45743 5.1646459e-24)
(-386.11553 361.44241 4.5572363e-18)
(-387.14504 359.29252 1.6609594e-18)
(-388.18993 361.72428 -4.9535672e-24)
(-387.81343 359.998 2.7915745e-18)
(-387.95592 356.09265 2.7446264e-18)
(-388.38494 355.31522 1.1212071e-18)
(-388.26745 356.4575 4.2883543e-18)
(-388.02618 355.07056 -4.6629011e-24)
(-387.05852 349.1258 4.6293096e-24)
(-386.9449 342.17058 0)
(-386.93698 338.39703 1.7632415e-38)
(-387.77083 334.5679 1.4936278e-18)
(-388.21727 331.0115 -4.2982957e-24)
(-389.91715 330.78591 4.2764789e-24)
(-392.8537 339.92421 -3.9314214e-18)
(-394.37381 341.91648 2.4525212e-18)
(-394.23425 341.03663 2.4314381e-18)
(-392.24604 341.23691 4.2373647e-24)
(-390.25261 340.25482 8.9683102e-44)
(-387.32154 338.01851 1.9238259e-18)
(-387.79271 329.65605 2.7859695e-18)
(-388.07414 331.64315 -4.6503216e-18)
(-388.9462 329.24036 8.06552e-24)
(-390.08291 331.54567 4.5884048e-18)
(-390.81951 330.67282 3.9926613e-24)
(-391.73092 329.43837 3.9537344e-24)
(-391.34728 329.13748 -3.9352023e-24)
(-389.27513 324.92125 4.4363662e-18)
(-389.50666 323.98636 7.0529661e-38)
(-389.79543 321.85208 -4.3654886e-18)
(-391.96832 325.54871 -4.3665912e-18)
(-393.52999 320.30287 -2.5894877e-18)
(-395.37962 329.87171 3.7847573e-24)
(-395.49223 323.78241 -6.8474185e-18)
(-396.45929 326.30774 2.5642962e-18)
(-395.22387 320.89818 -3.7257069e-24)
(-394.40311 319.33172 3.6850497e-24)
(-395.32727 320.53771 6.7267267e-18)
(-398.51662 334.20326 -2.5485683e-18)
(-399.01727 339.29621 -3.7629098e-24)
(-398.39535 335.58259 3.7678455e-24)
(-400.54815 337.15487 4.2690128e-18)
(-401.75882 339.30421 -2.516733e-18)
(-402.13457 340.4693 2.3509887e-38)
(-401.84773 339.91347 4.2386385e-18)
(-400.36558 334.09773 -6.6651275e-18)
(-400.78086 338.62976 -6.3817588e-35)
(-399.93739 334.52841 0)
(-400.32963 332.02413 -2.4584832e-18)
(-400.64582 325.92504 6.5144145e-18)
(-402.78764 335.16322 -3.6296463e-24)
(-402.63223 336.62486 3.6222374e-24)
(-402.01785 333.97564 3.5338911e-24)
(-400.86079 317.96352 -3.9699641e-18)
(-401.41741 316.59329 -6.3442805e-18)
(-401.52627 323.24584 -2.7948363e-26)
(-402.46252 323.77044 3.4864659e-24)
(-402.52886 317.11058 -2.3708068e-18)
(-406.11321 328.19507 2.3923264e-18)
(-405.97622 332.18692 6.4195747e-18)
(-403.66026 319.75373 3.481983e-24)
(-403.38987 313.50586 3.3765957e-24)
(-403.06201 311.5235 -3.3716426e-24)
(-406.40474 330.95869 -1.5293771e-40)
(-405.55502 327.28348 -1.7891024e-35)
(-406.19655 312.27947 -6.1492179e-18)
(-410.71783 322.22771 3.4539737e-24)
(-411.15409 332.32707 -3.4411086e-24)
(-407.84581 318.66638 -3.401361e-24)
(-407.34902 324.07018 -3.8986932e-18)
(-403.95173 319.86597 -1.5375274e-18)
(-401.86738 317.30469 2.3244768e-18)
(-401.22408 309.85578 -2.3034417e-18)
(-401.12541 304.06602 3.2881168e-24)
(-402.65981 302.4442 3.8395923e-35)
(-406.36685 309.08199 -3.3198719e-24)
(-407.90799 316.65828 6.6900047e-24)
(-409.57532 324.9548 -3.363296e-24)
(-407.20355 318.37951 -6.1311124e-18)
(-404.62193 307.93559 3.745453e-18)
(-404.29919 307.20697 -3.7400952e-18)
(-405.47041 312.20536 2.292643e-18)
(-405.23312 305.54545 2.2784497e-18)
(-408.7117 315.12449 -2.2976902e-18)
(-408.50655 313.75005 3.3129994e-24)
(-408.29963 308.18718 -1.1210388e-44)
(-409.08842 312.28713 -3.2719209e-24)
(-408.38787 306.80689 -1.3863868e-26)
(-410.99716 316.28532 2.2953946e-18)
(-412.98061 326.40697 3.8624046e-18)
(-414.63129 334.44235 -3.8243515e-35)
(-414.40569 335.34203 3.9243744e-18)
(-413.67497 321.24987 -6.7103511e-24)
(-412.98853 314.19322 2.280926e-18)
(-412.07038 304.91579 2.26519e-18)
(-415.58135 324.10374 3.3915127e-24)
(-415.08712 330.87061 -3.3878925e-24)
(-414.69802 332.30572 -2.3172404e-18)
(-413.52886 315.02131 2.3509887e-38)
(-416.70869 319.97839 3.8052112e-18)
(-417.37276 316.48149 3.3716316e-24)
(-420.08875 333.36873 -3.3648996e-24)
(-417.17957 316.05992 3.3334353e-24)
(-419.30467 323.26204 1.8900403e-26)
(-418.14457 321.32887 -1.5647816e-26)
(-417.86216 319.26062 2.289636e-18)
(-417.88107 315.46438 -1.7632415e-38)
(-418.5117 321.29738 -1.5301892e-18)
(-416.66834 319.48335 5.0017285e-36)
(-413.46113 315.7572 -2.2926172e-18)
(-410.91216 300.13836 3.2753227e-24)
(-409.73261 287.96213 3.5934585e-18)
(-411.20333 288.17571 -3.6002728e-18)
(-414.7115 297.90706 -3.6767605e-18)
(-415.71875 302.12987 0)
(-417.78744 307.15246 1.7632415e-38)
(-415.71486 292.32549 3.6419021e-18)
(-415.51759 288.7555 -2.2498829e-18)
(-415.33682 289.88108 6.5218229e-27)
(-414.77094 287.20779 -2.2519006e-18)
(-416.18293 292.08016 2.9387359e-39)
(-416.6848 292.54232 -1.1327547e-18)
(-417.32196 293.1196 1.8362691e-18)
(-416.88489 289.89207 1.8263375e-18)
(-417.90509 294.40645 -1.1384174e-18)
(-418.52626 299.25734 1.8671526e-18)
(-419.37045 304.14699 -7.3580736e-19)
(-416.51678 289.43437 -1.619901e-41)
(-415.88823 280.0008 3.1706886e-24)
(-420.14069 288.84817 -3.1939329e-24)
(-420.1105 285.23602 -1.2359227e-27)
(-422.7364 289.58004 6.4078762e-24)
(-422.50776 281.10992 -2.964504e-18)
(-431.13735 311.29111 8.8162076e-39)
(-433.54321 361.04367 1.99452e-35)
(-421.45377 292.18974 1.867159e-18)
(-426.32667 298.58987 1.1639643e-18)
(-425.5447 303.07549 -1.9184337e-18)
(-427.23312 306.809 3.1116268e-18)
(-426.43394 304.62297 1.92942e-18)
(-425.56657 297.85293 -3.3592668e-24)
(-425.70333 296.15391 -1.1717982e-18)
(-426.79122 298.95915 1.9233095e-18)
(-428.29857 308.08405 1.1945573e-18)
(-428.14467 306.81943 3.16195e-18)
(-428.26938 303.97817 8.8162076e-39)
(-430.84881 305.29954 -2.4917075e-35)
(-432.16258 309.2408 6.9652686e-24)
(-433.49285 314.45891 -1.9985421e-18)
(-434.69494 310.1329 -3.1883939e-18)
(-438.10888 308.77981 3.1960251e-18)
(-439.47285 310.08683 2.2128681e-36)
(-440.08796 309.50117 1.2211855e-18)
(-441.8214 306.4281 1.6643531e-35)
(-439.67425 301.13901 -9.5310716e-41)
(-436.31542 298.86162 -6.8163902e-24)
(-430.16986 285.20879 1.1941111e-18)
(-427.16086 278.01711 6.7031907e-24)
(-427.06635 282.7571 7.3256679e-19)
(-432.31179 297.56288 -6.8662176e-24)
(-433.8759 305.95137 -1.235986e-18)
(-435.91915 303.52934 -2.0329549e-18)
(-439.71238 299.44659 -2.01752e-18)
(-444.40379 295.03603 -1.9963204e-18)
(-446.94731 291.83884 4.3566387e-26)
(-447.76013 290.06709 6.9502055e-24)
(-448.55678 290.77666 -1.6823989e-40)
(-447.92406 292.14296 7.7946646e-19)
(-444.78455 289.83715 -2.0125515e-18)
(-438.07586 283.01314 -7.7569144e-26)
(-431.85699 280.04101 -9.9461516e-19)
(-433.71543 286.0927 -6.2063376e-19)
(-433.91021 284.53951 -1.0410599e-25)
(-433.43173 273.71448 -6.1555629e-19)
(-439.12208 277.55738 1.4007208e-23)
(-442.19042 287.11847 7.9101117e-26)
(-442.99836 287.49511 -7.1942384e-24)
(-442.82044 284.18924 -1.8611486e-40)
(-440.38546 283.50853 7.0972269e-24)
(-437.01385 274.09479 -3.8246733e-19)
(-436.81933 272.77387 -1.0115698e-18)
(-439.87212 275.95694 7.1175265e-24)
(-441.18622 277.95904 1.0327626e-18)
(-444.21217 274.6105 -8.8162076e-39)
(-451.60496 283.5454 -1.0524274e-18)
(-451.8827 286.62576 -1.0617559e-18)
(-448.99249 280.36796 -4.7754458e-39)
(-442.96938 277.48216 -7.3304324e-24)
(-441.55667 275.48102 -1.7041061e-18)
(-439.42893 265.94382 1.0355956e-18)
(-441.72939 266.28698 -5.207141e-19)
(-444.51919 265.27038 -1.4641989e-23)
(-448.30362 275.04062 -3.3065561e-19)
(-448.65922 279.11655 -8.7496784e-19)
(-444.79953 271.57642 3.6734198e-39)
(-441.45972 264.05417 1.9837089e-19)
(-440.00488 258.79577 1.4693679e-39)
(-439.48293 253.91851 -3.3111282e-19)
(-442.95531 257.0028 7.3527992e-24)
(-445.23033 261.02515 -3.3585748e-19)
(-445.93302 260.14219 5.3748639e-19)
(-445.6624 256.00813 -1.6850311e-19)
(-446.82627 256.64105 4.3855854e-19)
(-444.77975 252.63064 7.4673947e-24)
(-444.72385 251.69593 2.6915905e-19)
(-444.01126 249.71977 -3.6127166e-36)
(-446.22827 251.03793 -1.712227e-19)
(-447.38934 250.91406 4.5917748e-41)
(-449.15499 251.96343 -7.6151905e-24)
(-448.00042 247.51357 7.6619805e-24)
(-448.60981 247.83214 2.5305862e-20)
(-449.41075 247.72508 7.7058326e-24)
(-449.63154 247.49255 -1.7370884e-20)
(-451.46099 251.38112 2.8139293e-26)
(-452.01538 250.74475 -7.8966753e-24)
(-451.79514 246.11371 -2.5931853e-20)
(-454.29816 245.97111 1.4148017e-19)
(-453.35067 243.77713 7.917368e-24)
(-453.32714 243.65168 -5.2370275e-20)
(-452.08748 242.03242 -7.9735569e-24)
(-452.10949 240.60465 1.8135926e-19)
(-451.23642 236.42657 -2.7550649e-40)
(-452.85535 233.94084 -2.8537213e-19)
(-455.20182 235.90966 -8.018943e-24)
(-457.20541 237.00052 -8.1196381e-24)
(-458.42551 238.30676 1.6343812e-23)
(-458.57382 237.07943 -1.8685318e-19)
(-458.5328 236.61984 2.1695867e-19)
(-458.83121 236.83154 3.7827635e-19)
(-459.18378 239.2261 1.102026e-39)
(-460.48264 237.92194 -3.8330445e-19)
(-461.78809 237.72396 -8.5179022e-24)
(-462.03358 237.83002 -6.1509603e-19)
(-462.28181 235.38395 -3.8964772e-19)
(-462.09284 232.78492 -8.5552637e-24)
(-462.39983 230.43529 8.6127539e-24)
(-463.80997 231.14954 -3.9361451e-19)
(-464.51258 230.895 3.6734198e-40)
(-464.2686 228.22893 -8.6843915e-24)
(-464.77442 226.2955 8.7429961e-24)
(-465.64022 225.67381 6.2917979e-19)
(-465.91258 223.86545 -3.3581909e-26)
(-466.48005 222.83081 -2.1811063e-26)
(-467.35498 222.10604 -8.8763555e-24)
(-468.37062 220.97442 8.1170588e-19)
(-469.00645 220.15649 -1.2855583e-18)
(-469.9653 220.58384 4.741909e-19)
(-470.87017 220.22339 -9.0985686e-24)
(-471.47574 218.9865 0)
(-472.68696 219.07415 -1.3209435e-18)
(-473.86261 219.49981 -4.5917748e-41)
(-475.40172 219.14249 -8.480809e-19)
(-477.8114 221.81106 -9.1835496e-41)
(-479.45965 222.36295 -1.3728902e-18)
(-479.86457 220.57671 -9.6200379e-24)
(-480.82225 220.63525 1.3890337e-18)
(-482.14965 221.69744 -9.7890666e-24)
(-482.26528 220.69892 1.4120082e-18)
(-481.83602 215.82496 2.2908814e-18)
(-481.03746 210.06516 -1.4693679e-39)
(-480.83777 207.11222 8.8685613e-19)
(-479.40303 202.12903 9.6655682e-24)
(-478.0754 198.19593 -9.7517009e-24)
(-476.88613 190.32886 -5.8774718e-39)
(-479.9194 184.84214 1.3628044e-18)
(-482.85428 190.36844 2.2857499e-18)
(-473.24133 170.5279 1.3369248e-18)
(-473.6945 168.98804 8.7839705e-19)
(-469.65375 157.84732 -4.4346755e-19)
(-469.88444 155.61054 -1.9057659e-41)
(-471.23591 155.85345 -3.4739369e-35)
(-468.70864 149.91598 9.0972305e-24)
(-465.57128 144.09424 -1.8335132e-23)
(-468.33054 149.43724 -1.3454161e-18)
(-466.39186 153.79483 0)
(-479.76122 176.47483 -1.9930507e-35)
(-485.74295 175.86143 -2.5065901e-18)
(-472.3053 160.34252 -9.8677576e-19)
(-464.71155 142.35326 1.0139962e-23)
(-481.10445 160.93792 1.4995955e-18)
(-481.30392 163.26743 -1.0616895e-23)
(-480.15567 157.23105 1.0654421e-23)
(-484.39742 161.95502 1.485843e-25)
(-487.55561 167.26412 1.6051094e-18)
(-488.65518 165.62322 -1.1215605e-23)
(-488.6632 163.47533 2.2639156e-23)
(-487.88264 162.21176 1.6415357e-18)
(-487.86377 161.02064 1.0831467e-18)
(-487.82984 158.5591 -1.1606793e-23)
(-487.90023 156.76995 1.1001586e-18)
(-486.67719 152.46147 -1.1589716e-23)
(-485.59056 149.20337 -1.1116926e-18)
(-482.56277 143.18237 1.1716002e-23)
(-481.1246 139.51164 1.1608947e-23)
(-481.90313 138.42892 -1.6926443e-18)
(-481.96163 135.8574 -1.1369889e-18)
(-481.59857 129.29916 5.526423e-19)
(-478.43168 120.88988 -1.6665965e-18)
(-476.55099 115.10885 1.6580651e-18)
(-472.09083 103.9303 -1.121489e-18)
(-477.59411 108.67693 -1.1437292e-18)
(-478.51938 107.82903 1.1694216e-23)
(-481.87999 109.61879 -1.186165e-23)
(-482.73453 106.89845 -2.3509887e-38)
(-484.20554 102.33991 -1.1885754e-18)
(-485.58284 95.813817 0)
(-489.9755 96.858611 1.2240528e-23)
(-495.78069 103.46108 -1.2415184e-23)
(-497.46894 104.3876 1.2747653e-23)
(-497.53089 104.87566 6.6092405e-26)
(-498.66698 108.19281 -1.3160053e-23)
(-495.2278 104.08615 1.2870503e-18)
(-496.17797 102.70727 1.33664e-23)
(-496.88401 103.84363 -1.9593185e-18)
(-489.89472 94.372009 2.6602289e-23)
(-475.44113 77.456151 -2.5674038e-23)
(-459.84536 58.017091 1.2797856e-18)
(-467.87533 59.099687 -1.3055497e-18)
(-480.04252 65.348128 3.2218934e-18)
(-469.69911 54.666107 -1.2553646e-23)
(-466.99188 49.622233 3.1739009e-18)
(-451.57687 33.618902 1.3131869e-18)
(-456.12854 24.43899 -7.3468397e-40)
(-457.73344 26.557024 1.7708918e-18)
(-468.48542 34.50971 -1.3796875e-18)
(-473.91949 40.226693 1.4157469e-18)
(-480.45528 45.265967 -2.3509887e-38)
(-487.18365 50.24107 -4.7019774e-38)
(-487.53609 50.156793 -1.5104016e-18)
(-482.84185 40.55617 -2.0803034e-18)
(-476.3835 32.405907 -1.4367915e-23)
(-475.16722 22.79609 0)
(-462.71201 11.336815 0)
(-486.98945 23.106338 -5.952746e-36)
(-453.77312 -0.92249358 -1.2823203e-23)
(-427.11232 -11.082125 4.400629e-25)
(-426.54439 -12.327912 1.2870106e-23)
(-522.71791 46.806233 1.6679628e-23)
(-501.37752 31.108359 8.59428e-19)
(-539.30194 56.098584 -9.152077e-19)
(-542.41431 62.98703 -9.3813017e-19)
(-565.33002 80.466218 9.8493432e-19)
(-572.06229 76.623682 1.52535e-18)
(-581.20717 74.702333 -2.9387359e-36)
(-588.05043 80.601432 8.5466699e-40)
(-596.93631 86.692793 9.7437213e-43)
(-588.71426 86.256654 -3.6346285e-35)
(-578.57564 78.432789 -1.6840236e-18)
(-568.49002 76.035187 -2.3830808e-23)
(-572.93533 86.781408 2.917073e-18)
(-566.75974 93.505482 0)
(-576.14397 108.59202 2.8043423e-23)
(-574.64223 137.90246 -2.8486517e-23)
(-571.87309 151.91526 2.1887498e-36)
(-579.76831 160.6227 3.0204901e-23)
(-555.53184 111.28057 -3.0565282e-23)
(-548.02368 122.7498 -1.3228968e-18)
(-564.35727 177.19117 -2.2099294e-35)
(-541.97187 172.90776 9.6668914e-19)
(-512.20901 125.1772 3.3168922e-23)
(-524.94468 190.9106 -3.3627353e-23)
(-522.99226 194.27489 -2.0778256e-18)
(-154.78059 -670.07871 7.8989197e-19)
(478.03891 -1108.8515 5.4914465e-18)
(463.27235 -1175.2512 7.4417528e-18)
(-834.669 -834.84452 2.0599524e-18)
(-636.30246 -255.31419 -4.7019774e-38)
(-511.22495 -330.79617 -4.5755655e-23)
(-1.2258241 -616.45374 4.467154e-23)
(96.030001 -951.39628 -2.6854971e-18)
(-140.42824 -985.83356 4.8615344e-18)
(-654.60955 -612.92347 -2.2090579e-18)
(-642.21859 -469.22545 1.4743023e-18)
(-608.08281 -347.65194 4.1450014e-23)
(-614.4209 -420.98626 2.9176488e-18)
(-554.89031 -533.6061 -4.6934615e-18)
(-548.66604 -555.30554 1.4320931e-18)
(-545.71369 -511.04682 9.0373292e-23)
(-492.79993 -496.36474 -4.3418761e-23)
(-411.27743 -502.92376 4.0355877e-18)
(-327.27798 -478.68235 -2.5555247e-35)
(-326.78947 -437.09448 3.3057494e-23)
(-356.71222 -363.04666 2.1160644e-18)
(-447.02454 -246.1797 2.491005e-23)
(-435.61274 -204.46486 1.5968548e-18)
(-338.07457 -54.596286 -1.0348426e-23)
(4.8804855 22.526169 -3.2123101e-19)
(5.4928841 24.035349 2.3509887e-38)
(6.5634604 26.106771 3.6063263e-19)
(6.4814019 26.803796 -2.6864542e-19)
(5.9905051 27.327496 -6.1728361e-20)
(5.6896468 27.41532 -5.0361352e-24)
(6.5969026 30.633468 -5.7625492e-19)
(7.2888658 32.08801 4.7352184e-24)
(7.2058072 33.472308 -3.530715e-19)
(6.4856993 33.789831 -2.3509887e-38)
(6.1716087 32.33534 -2.3509887e-38)
(6.784362 33.245046 -3.3632005e-19)
(6.6512645 34.462281 4.561974e-19)
(4.5540457 34.877436 4.8041917e-19)
(0.19791091 19.056307 5.0715857e-19)
(-7.0555475 -1.9972185 1.1223299e-23)
(-0.075959465 4.1596204 7.2611551e-19)
(2.578934 13.462279 6.6386519e-19)
(2.7756115 12.325868 1.4433125e-18)
(3.0071861 16.171789 6.6642034e-19)
(2.4439594 14.791143 5.704207e-24)
(2.7012053 16.483078 -1.4139121e-18)
(2.2519716 14.64333 1.1440397e-23)
(1.6957898 13.287674 -5.7467645e-24)
(1.9276033 13.32464 1.9362484e-35)
(2.508496 13.825349 1.1754944e-38)
(2.9132813 17.564976 -6.7977393e-19)
(2.8222111 16.847036 7.253912e-19)
(3.3744556 17.891777 -1.1754944e-38)
(1.9062093 9.9602954 5.2342711e-35)
(0.79256863 7.0484796 4.8766369e-41)
(2.0472882 14.685952 0)
(1.6926538 12.893212 -6.9746282e-19)
(2.7898406 18.515308 5.699547e-24)
(0.81440409 4.0550882 6.7484375e-19)
(-5.3693344 -4.3562113 0)
(-0.57748921 9.1650081 5.8734814e-19)
(0.85710944 10.157625 7.3468397e-40)
(1.281043 8.6613695 5.581505e-19)
(2.0183065 13.567927 4.928189e-19)
(-84.621644 -34.058771 -7.4576166e-19)
(-47.109382 -5.8041298 -6.555976e-19)
(-82.650934 -12.352434 -5.7207457e-24)
(-170.04949 -28.986391 -8.7329103e-19)
(-172.08664 -16.787181 -7.0556036e-19)
(-211.42141 -67.535278 1.0581551e-18)
(-111.83497 -17.381529 0)
(-132.47223 -31.774036 -7.6264712e-19)
(-0.065074622 5.7009939 1.223385e-18)
(1.7239066 14.534548 4.6140165e-24)
(1.6746645 14.74712 -4.5762035e-24)
(1.5604753 14.828179 3.9240869e-20)
(1.2559134 13.396209 2.3465737e-26)
(1.0909443 12.790064 -5.3392302e-19)
(1.1407743 13.01202 5.5926465e-19)
(0.79271236 9.1374491 5.644209e-19)
(0.98590368 10.484685 2.6531409e-20)
(1.0535599 11.807562 -5.1900514e-19)
(0.60300509 8.8109475 1.0839337e-18)
(0.73721103 7.7320194 -4.2286087e-24)
(0.99416192 12.984462 -1.0428847e-18)
(-0.17522642 4.5921007 5.3371248e-19)
(-0.34888296 4.1951366 5.8774718e-39)
(-0.066651679 5.8515983 1.0307296e-18)
(1.3006635 10.269588 -5.1963783e-19)
(1.2307058 9.8986813 3.598776e-35)
(1.3862232 15.515607 -4.176896e-24)
(1.6891762 15.803435 5.0727506e-19)
(1.6660687 18.71327 -5.0041734e-19)
(1.2397775 17.46988 -9.5585851e-19)
(1.3095254 17.624383 5.8774718e-39)
(1.4895051 17.366398 -2.9387359e-39)
(1.4524683 19.376891 -4.8352748e-19)
(0.8120461 17.277829 -7.7199452e-24)
(1.2584192 17.224448 3.9475563e-24)
(1.3826112 17.505925 3.8742071e-24)
(0.75466379 17.150786 -3.7883986e-24)
(0.62371574 13.570164 -4.7595581e-19)
(1.1165289 16.559907 4.3040899e-19)
(1.2571582 16.334943 2.9387359e-39)
(1.3836272 15.830789 9.0352954e-19)
(0.66013006 18.059721 -4.2368653e-19)
(-0.010234255 14.568144 -4.3914178e-19)
(0.43260333 11.175884 -3.7711588e-24)
(1.1384514 14.191352 -6.3124047e-36)
(0.95005612 15.626825 -4.6183151e-19)
(0.39936742 13.633198 4.4435166e-19)
(0.49156854 14.029937 -3.72031e-24)
(0.52116151 14.058823 4.4129741e-19)
(0.50037888 11.995671 -3.6948088e-24)
(0.65223137 14.624983 3.5629311e-24)
(0.47426377 14.472053 -3.5636076e-24)
(0.64239608 13.946354 -4.5104832e-19)
(0.63318273 16.284825 -3.9975519e-19)
(0.38882802 13.895607 -4.2053738e-19)
(0.51168656 14.521998 -2.071199e-19)
(0.5093121 14.437479 3.456539e-24)
(0.28343517 13.021296 -3.3107874e-24)
(-0.058178869 10.728324 2.0076678e-19)
(0.10164091 11.644927 1.9701206e-19)
(0.2631336 11.298775 2.0824478e-19)
(0.3106409 10.762177 2.0650016e-19)
(-0.088398711 8.1676599 1.9812719e-19)
(-0.19125964 6.7784806 -2.0304652e-19)
(-0.053258733 5.9127502 4.0271848e-19)
(-0.36666008 5.5848539 -3.2623099e-24)
(-76.057856 -15.96018 -4.808841e-19)
(1.2639785 10.391873 -3.2933214e-24)
(1.0936397 18.282549 1.8233032e-19)