/*--------------------------------*- C++ -*----------------------------------*\
| =========                 |                                                 |
| \\      /  F ield         | OpenFOAM: The Open Source CFD Toolbox           |
|  \\    /   O peration     | Version:  2506                                  |
|   \\  /    A nd           | Website:  www.openfoam.com                      |
|    \\/     M anipulation  |                                                 |
\*---------------------------------------------------------------------------*/
FoamFile
{
    version     2.0;
    format      ascii;
    arch        "LSB;label=32;scalar=64";
    class       volScalarField;
    location    "0.00014";
    object      Co;
}
// * * * * * * * * * * * * * * * * * * * * * * * * * * * * * * * * * * * * * //

dimensions      [0 0 0 0 0 0 0];

internalField   nonuniform List<scalar> 
13761
(
0.00070115142
0.00077648421
0.00080682499
0.00031825343
0.00042741232
0.00051356379
0.00056231875
0.00068813472
0.00090400904
0.001059072
0.0011453797
0.0012179401
0.00025200896
0.00026158392
0.00027050528
0.00032012988
0.00046660162
0.00063944051
0.00080407666
0.0011248839
0.0015423383
0.0017596124
0.001861294
0.001939734
0.00196199
0.00010365964
0.00018725338
0.00021969866
0.00022877419
0.00023923589
0.00026661966
0.00033380472
0.00046913136
0.00076189468
0.0010941319
0.0013145136
0.0015319027
0.0017871326
0.0019933255
0.0020906839
0.002137368
0.0021731522
7.8460734e-05
8.3146868e-05
6.6859272e-05
0.00010127913
0.00018493825
0.00021379445
0.0002247416
0.00029848995
0.0004749677
0.00071452149
0.00099453148
0.0013655521
0.0015985922
0.0016151218
0.0016721095
0.001904469
0.0021179805
0.0021551677
0.002194309
0.0022382678
0.0022530484
6.4751054e-05
6.8800765e-05
7.3092142e-05
7.764303e-05
8.2395891e-05
6.4734581e-05
9.7419169e-05
0.00018208865
0.00022650099
0.00036235481
0.00065515951
0.0010161287
0.0012135104
0.0013182196
0.0015473117
0.0016764462
0.0016207404
0.0016593765
0.0018589542
0.0020290115
0.0020810019
0.002129168
0.0021740372
0.0022074281
0.0022421557
5.3045386e-05
5.6452486e-05
6.0059356e-05
6.3879876e-05
6.7929138e-05
7.2224895e-05
7.6785458e-05
8.1612016e-05
6.1570001e-05
9.1707146e-05
0.00020270828
0.00041046414
0.00078477364
0.0011355817
0.0013345143
0.0013713971
0.0013835196
0.0015579504
0.001662818
0.0015762552
0.0015827145
0.0017388033
0.0018936119
0.001936578
0.0019834071
0.0020206059
0.002062206
0.0021017091
0.0022004157
4.3094109e-05
4.5950168e-05
4.8974241e-05
5.2176711e-05
5.5569154e-05
5.9164714e-05
6.2977685e-05
6.7023582e-05
7.1320609e-05
7.5887535e-05
8.074374e-05
5.9364538e-05
0.00011114551
0.00039181942
0.00081024259
0.001133785
0.0012880004
0.0013500171
0.0013537958
0.0013478696
0.0015073233
0.0016180123
0.0015251726
0.0015329598
0.0017028901
0.0018642405
0.00187619
0.0019271213
0.0019674223
0.002018239
0.0020553212
0.0021577106
0.0022562105
3.4698161e-05
3.7075909e-05
3.9596482e-05
4.2268097e-05
4.5099888e-05
4.8101737e-05
5.1284385e-05
5.4659784e-05
5.824147e-05
6.2044142e-05
6.6083736e-05
7.0378892e-05
7.4948827e-05
7.9740339e-05
6.7153546e-05
0.00025445894
0.00074109236
0.0010908128
0.0012127035
0.0012605283
0.0013119612
0.0013155983
0.001310975
0.001480761
0.001601515
0.0015158585
0.0015164868
0.0016504994
0.0017882362
0.0018116105
0.0018637199
0.0019147848
0.0019904664
0.002017456
0.0021088787
0.0022135454
2.7684899e-05
2.9646014e-05
3.172917e-05
3.3940955e-05
3.6288807e-05
3.8780422e-05
4.1424317e-05
4.4229941e-05
4.7207511e-05
5.0368118e-05
5.372408e-05
5.728932e-05
6.1078934e-05
6.5109264e-05
6.9399383e-05
7.3968868e-05
7.5836389e-05
0.00013864266
0.00054320702
0.00098587433
0.001148248
0.0011827423
0.0012230038
0.0012837384
0.0012921932
0.0012950557
0.0014698587
0.0015918416
0.0014980169
0.001480186
0.0015663696
0.0016811794
0.0017200648
0.0017660856
0.0018072994
0.0018936854
0.0019201906
0.0020039905
0.0020999159
0.0021806649
2.0391747e-05
2.1893545e-05
2.3493658e-05
2.5197506e-05
2.7010839e-05
2.8939694e-05
3.0990654e-05
3.3170536e-05
3.5487024e-05
3.7948082e-05
4.0562514e-05
4.3340081e-05
4.6291323e-05
4.9427674e-05
5.2761808e-05
5.6308027e-05
6.0081815e-05
6.4099909e-05
6.8381794e-05
7.2943079e-05
5.4586652e-05
0.0002484298
0.0008086321
0.0010694847
0.0011291224
0.0011558841
0.0012106729
0.0012665585
0.0012727368
0.0012611107
0.0014153567
0.0015400022
0.0014473271
0.0014400166
0.001516556
0.0016106314
0.0016606287
0.0016966956
0.0017296286
0.0018287119
0.0018808758
0.0019855316
0.0020855631
0.0021360505
1.4830592e-05
1.5960576e-05
1.7168624e-05
1.8459277e-05
1.9837289e-05
2.1307646e-05
2.2875615e-05
2.4546749e-05
2.6326954e-05
2.8222439e-05
3.0239988e-05
3.2386632e-05
3.4670297e-05
3.7099207e-05
3.9682444e-05
4.2430069e-05
4.535294e-05
4.8462824e-05
5.1772744e-05
5.5297367e-05
5.9052554e-05
6.3055429e-05
6.7325846e-05
7.092132e-05
9.0682021e-05
0.00042832998
0.00091903196
0.0010687959
0.001110709
0.0011401915
0.0011888036
0.0012321027
0.0012463796
0.0012222467
0.0013620123
0.0014837201
0.0014016115
0.0014161736
0.0015086331
0.0015905129
0.0016365375
0.0016578771
0.0016647639
0.0017461219
0.0018097841
0.0019385151
0.0020574176
0.002120423
0.0021589598
9.1623507e-06
9.887548e-06
1.066631e-05
1.1502081e-05
1.2398488e-05
1.3359322e-05
1.4388571e-05
1.5490391e-05
1.6669171e-05
1.7929505e-05
1.9276222e-05
2.0714394e-05
2.2249394e-05
2.3886906e-05
2.563298e-05
2.7493994e-05
2.9476921e-05
3.1589002e-05
3.3838396e-05
3.6233576e-05
3.8783896e-05
4.1499708e-05
4.4392177e-05
4.7473393e-05
5.0756716e-05
5.425717e-05
5.7990982e-05
6.1975649e-05
6.6231355e-05
6.6947314e-05
0.00011664677
0.00054099699
0.00092988533
0.0010467769
0.0010895065
0.0011182716
0.0011508203
0.0011902921
0.0012167293
0.0011990801
0.0013401589
0.0014596293
0.0013763318
0.0013910345
0.0014982812
0.0015810618
0.0016217942
0.0016517743
0.0016393273
0.0016929763
0.0017224808
0.0018293746
0.0019528626
0.002022129
0.0020868955
4.3980217e-06
4.7586812e-06
5.147843e-06
5.567595e-06
6.0201522e-06
6.5078682e-06
7.0332307e-06
7.5988735e-06
8.2075834e-06
8.8622982e-06
9.5661099e-06
1.0322289e-05
1.1134261e-05
1.2005643e-05
1.2940227e-05
1.394201e-05
1.5015171e-05
1.6164132e-05
1.739354e-05
1.8708286e-05
2.0113528e-05
2.1614739e-05
2.3217722e-05
2.4928669e-05
2.6754117e-05
2.8701223e-05
3.0777426e-05
3.2991112e-05
3.5350994e-05
3.7866688e-05
4.0548827e-05
4.3408875e-05
4.6459233e-05
4.9713589e-05
5.318731e-05
5.6896976e-05
6.0860443e-05
6.5098234e-05
6.4336753e-05
0.00012097749
0.00054908002
0.00088773015
0.0010086315
0.0010625062
0.0011012937
0.0011315299
0.0011649717
0.0011953008
0.0011853299
0.0013220532
0.0014348586
0.0013321646
0.001333989
0.0014421081
0.0015250957
0.0015696258
0.0016214419
0.0016153655
0.0016411641
0.0016352089
0.0016981131
0.0017885415
0.0018631263
0.0019823651
1.6751795e-07
1.8168223e-07
1.970973e-07
2.1382226e-07
2.3196392e-07
2.5164177e-07
2.7298535e-07
2.9613505e-07
3.2124296e-07
3.4847386e-07
3.7800622e-07
4.100334e-07
4.4476471e-07
4.8242685e-07
5.232652e-07
5.6754532e-07
6.1555467e-07
6.6760417e-07
7.2403016e-07
7.8519633e-07
8.5149591e-07
9.2335381e-07
1.0012291e-06
1.0856178e-06
1.177055e-06
1.2761186e-06
1.3834319e-06
1.4996668e-06
1.6255475e-06
1.7618543e-06
1.9094267e-06
2.0691687e-06
2.2420513e-06
2.4291188e-06
2.6314916e-06
2.8503723e-06
3.0870494e-06
3.3429039e-06
3.6194126e-06
3.9181543e-06
4.2408159e-06
4.5891973e-06
4.9652146e-06
5.3709097e-06
5.8084514e-06
6.2801481e-06
6.788443e-06
7.3359272e-06
7.9253476e-06
8.5596052e-06
9.2417595e-06
9.9750537e-06
1.0762893e-05
1.1608882e-05
1.2516806e-05
1.3490671e-05
1.4534671e-05
1.565326e-05
1.685113e-05
1.8133231e-05
1.9504798e-05
2.0971399e-05
2.2538952e-05
2.421378e-05
2.6002575e-05
2.7912666e-05
2.9951688e-05
3.2128238e-05
3.4451266e-05
3.6930637e-05
3.9577257e-05
4.2402877e-05
4.5420198e-05
4.8643224e-05
5.2087652e-05
5.5770402e-05
5.9709676e-05
6.3926359e-05
6.3842816e-05
0.00010903938
0.00048612487
0.00081551245
0.00095979848
0.0010287932
0.0010848832
0.001124441
0.0011420687
0.001154152
0.001143773
0.0012746232
0.0013872472
0.001292455
0.0012886403
0.0013814822
0.0014731054
0.0015223377
0.0015690225
0.0015779022
0.0016167877
0.0016015864
0.0016320458
0.0017013443
0.0017502636
0.0018423161
1.6099534e-07
1.7460671e-07
1.8942249e-07
2.0549759e-07
2.2293459e-07
2.4184841e-07
2.6236362e-07
2.8461526e-07
3.0874961e-07
3.3492519e-07
3.633137e-07
3.9410116e-07
4.27489e-07
4.6369536e-07
5.029564e-07
5.4552776e-07
5.9168617e-07
6.41731e-07
6.9598615e-07
7.5480193e-07
8.1855716e-07
8.8766129e-07
9.6255678e-07
1.0437217e-06
1.1316722e-06
1.2269657e-06
1.3302035e-06
1.4420343e-06
1.5631572e-06
1.6943261e-06
1.8363524e-06
1.99011e-06
2.1565382e-06
2.3366481e-06
2.5315246e-06
2.7423334e-06
2.9703241e-06
3.2168372e-06
3.4833077e-06
3.7712704e-06
4.0823676e-06
4.418353e-06
4.7810959e-06
5.172591e-06
5.5949596e-06
6.050463e-06
6.5414983e-06
7.0706123e-06
7.6405093e-06
8.2540516e-06
8.9142633e-06
9.6243577e-06
1.0387716e-05
1.1207926e-05
1.2088767e-05
1.3034244e-05
1.4048566e-05
1.5136212e-05
1.6301912e-05
1.7550673e-05
1.8887799e-05
2.0318949e-05
2.1850144e-05
2.3487836e-05
2.523886e-05
2.7110712e-05
2.911121e-05
3.1249158e-05
3.3533727e-05
3.5975025e-05
3.8584218e-05
4.1373331e-05
4.4355353e-05
4.7544592e-05
5.0957058e-05
5.4609995e-05
5.8521938e-05
6.2714144e-05
6.4673841e-05
8.7606649e-05
0.00038468632
0.00071193315
0.00089343207
0.00098188959
0.0010501153
0.0011004228
0.0011167011
0.0011119057
0.0011014443
0.0012309407
0.0013408024
0.001273941
0.0012824429
0.001361497
0.0014445901
0.0014888741
0.0015164448
0.0015159428
0.0015570828
0.0015602098
0.0016084607
0.0016680576
0.0016870026
0.0017231155
1.5442537e-07
1.674798e-07
1.816919e-07
1.9711237e-07
2.1383954e-07
2.319837e-07
2.5166444e-07
2.7301138e-07
2.9616496e-07
3.212774e-07
3.4851355e-07
3.7805206e-07
4.1008637e-07
4.4482602e-07
4.8249789e-07
5.2334758e-07
5.6764102e-07
6.1566591e-07
6.6773362e-07
7.2418094e-07
7.8537216e-07
8.517011e-07
9.2359344e-07
1.0015093e-06
1.0859454e-06
1.1774386e-06
1.2765682e-06
1.3839589e-06
1.5002851e-06
1.6262735e-06
1.7627071e-06
1.9104294e-06
2.0703477e-06
2.2434392e-06
2.430753e-06
2.6334172e-06
2.8526421e-06
3.0897269e-06
3.3460636e-06
3.6231428e-06
3.9225608e-06
4.2460244e-06
4.5953549e-06
4.9724982e-06
5.3795269e-06
5.8186537e-06
6.2922279e-06
6.8027497e-06
7.3528793e-06
7.9454373e-06
8.5834103e-06
9.2699788e-06
1.0008497e-05
1.0802533e-05
1.1655853e-05
1.2572462e-05
1.3556576e-05
1.4612695e-05
1.5745585e-05
1.6960299e-05
1.8262209e-05
1.9657052e-05
2.1150952e-05
2.2750477e-05
2.4462601e-05
2.6294974e-05
2.8255591e-05
3.0353451e-05
3.2597937e-05
3.4999389e-05
3.7569217e-05
4.031971e-05
4.3264133e-05
4.6417078e-05
4.9794855e-05
5.3415016e-05
5.7296407e-05
6.1460629e-05
6.4572898e-05
7.2043631e-05
0.00029673875
0.00059097292
0.0007918669
0.00090859245
0.0010015418
0.001064531
0.0010994449
0.0010948539
0.0010752058
0.0011994439
0.0013095357
0.0012439026
0.0012546654
0.0013365208
0.0014148864
0.0014481449
0.0014650414
0.0014529985
0.0014872215
0.0014926047
0.0015592965
0.0016374334
0.0016619412
0.0016842464
1.4780286e-07
1.6029591e-07
1.7389946e-07
1.8866003e-07
2.0467164e-07
2.2203992e-07
2.4087943e-07
2.6131434e-07
2.8347921e-07
3.0751985e-07
3.3359426e-07
3.6187361e-07
3.9254332e-07
4.2580424e-07
4.6187387e-07
5.0098769e-07
5.4340072e-07
5.893889e-07
6.3925095e-07
6.9330999e-07
7.5191566e-07
8.1544599e-07
8.8430972e-07
9.5894873e-07
1.0398404e-06
1.1275005e-06
1.222486e-06
1.325398e-06
1.436885e-06
1.5576468e-06
1.6884374e-06
1.8300697e-06
1.9834185e-06
2.1494265e-06
2.3291067e-06
2.5235489e-06
2.7339233e-06
2.9614874e-06
3.2075896e-06
3.4736751e-06
3.7612935e-06
4.0721035e-06
4.4078773e-06
4.7705112e-06
5.1620273e-06
5.5845883e-06
6.040494e-06
6.5321965e-06
7.0623094e-06
7.6336099e-06
8.2490444e-06
8.9117582e-06
9.6250754e-06
1.0392541e-05
1.1217906e-05
1.2105169e-05
1.3058551e-05
1.4082569e-05
1.5182016e-05
1.6361992e-05
1.7627925e-05
1.8985629e-05
2.044132e-05
2.2001678e-05
2.3673805e-05
2.54655e-05
2.7384924e-05
2.9441262e-05
3.1644098e-05
3.4003991e-05
3.6532588e-05
3.9242425e-05
4.2147027e-05
4.526126e-05
4.8601717e-05
5.2186237e-05
5.603396e-05
6.0166782e-05
6.3220984e-05
6.7938937e-05
0.00024806281
0.00048508836
0.00066560231
0.0008036329
0.00094771498
0.0010310838
0.0010893627
0.00108893
0.0010470744
0.0011580429
0.0012660981
0.0011838824
0.001199091
0.0013018875
0.0013830831
0.0014166769
0.0014357889
0.0014257312
0.0014582428
0.0014417491
0.0014873041
0.0015586142
0.0015928652
0.001632071
1.4112282e-07
1.5304961e-07
1.6603931e-07
1.8013421e-07
1.9542399e-07
2.120096e-07
2.3000051e-07
2.4951539e-07
2.7068284e-07
2.9364226e-07
3.1854468e-07
3.4555376e-07
3.748468e-07
4.0661589e-07
4.4106904e-07
4.7843155e-07
5.1894739e-07
5.6288065e-07
6.1051723e-07
6.6216651e-07
7.1816327e-07
7.7886963e-07
8.446772e-07
9.1600946e-07
9.9332411e-07
1.0771158e-06
1.1679188e-06
1.2663101e-06
1.3729125e-06
1.4883983e-06
1.6134922e-06
1.7489761e-06
1.8956918e-06
2.0545471e-06
2.2265182e-06
2.4126564e-06
2.6140911e-06
2.8320373e-06
3.0677989e-06
3.3227752e-06
3.5984681e-06
3.8964873e-06
4.2185549e-06
4.5665159e-06
4.9423413e-06
5.3481421e-06
5.7861671e-06
6.2588184e-06
6.7686615e-06
7.318428e-06
7.9110219e-06
8.5495505e-06
9.2373054e-06
9.9778054e-06
1.0774784e-05
1.1632229e-05
1.2554363e-05
1.3545714e-05
1.4611101e-05
1.5755662e-05
1.6984879e-05
1.8304635e-05
1.9721233e-05
2.1241458e-05
2.2872531e-05
2.4622395e-05
2.6499364e-05
2.8512803e-05
3.0672486e-05
3.298918e-05
3.5474755e-05
3.8141984e-05
4.100464e-05
4.4077843e-05
4.7378454e-05
5.0924585e-05
5.4735646e-05
5.8833776e-05
6.0793906e-05
7.1525889e-05
0.00023221107
0.00041948889
0.000553444
0.00067965679
0.00087022661
0.0009805094
0.0010531389
0.0010671394
0.001017157
0.0011094909
0.0012102032
0.0011298421
0.0011488065
0.0012588188
0.001347052
0.0013857577
0.0014062611
0.0013930966
0.0014293183
0.0014089038
0.0014433699
0.0015051193
0.0015220383
1.3438037e-07
1.4573562e-07
1.581057e-07
1.7152868e-07
1.8608987e-07
2.0188545e-07
2.1901977e-07
2.3760596e-07
2.577666e-07
2.7963459e-07
3.0335395e-07
3.2908075e-07
3.5698408e-07
3.8724718e-07
4.200685e-07
4.5566302e-07
4.9426359e-07
5.3612229e-07
5.8151211e-07
6.3072849e-07
6.8409124e-07
7.4194637e-07
8.0466818e-07
8.7266159e-07
9.4636433e-07
1.0262497e-06
1.1128292e-06
1.2066552e-06
1.3083246e-06
1.4184818e-06
1.5378218e-06
1.6670952e-06
1.8071103e-06
1.9587398e-06
2.1229224e-06
2.3006701e-06
2.4930712e-06
2.7012974e-06
2.9266076e-06
3.1703542e-06
3.4339907e-06
3.7190767e-06
4.0272831e-06
4.360403e-06
4.7203546e-06
5.109196e-06
5.5291237e-06
5.9824881e-06
6.4718049e-06
6.9997581e-06
7.5692073e-06
8.1832198e-06
8.8450521e-06
9.5581941e-06
1.0326358e-05
1.1153519e-05
1.2043897e-05
1.3002028e-05
1.4032752e-05
1.514124e-05
1.6333024e-05
1.7614051e-05
1.8990704e-05
2.0469865e-05
2.2058871e-05
2.3765796e-05
2.5599106e-05
2.7568329e-05
2.9683424e-05
3.1955354e-05
3.4396201e-05
3.7018962e-05
3.9837641e-05
4.2867603e-05
4.6125958e-05
4.9631072e-05
5.3402609e-05
5.7462882e-05
5.6511042e-05
7.6036863e-05
0.00022771439
0.00038294337
0.00046761142
0.00055627964
0.00074443893
0.00089820435
0.0009946334
0.0010306368
0.00099935806
0.0010880979
0.0011896033
0.0011061381
0.0011096282
0.0011971511
0.0012852328
0.0013368116
0.0013666347
0.0013553884
0.0013960675
0.0013784653
0.0014079405
0.0014702621
0.0014775009
1.2757077e-07
1.383488e-07
1.5009309e-07
1.6283743e-07
1.7666273e-07
1.9166038e-07
2.0792955e-07
2.2557774e-07
2.4472147e-07
2.654871e-07
2.8801152e-07
3.1244315e-07
3.389428e-07
3.6768474e-07
3.9885779e-07
4.3266648e-07
4.6933241e-07
5.0909556e-07
5.5221583e-07
5.989746e-07
6.4967654e-07
7.0465136e-07
7.6425588e-07
8.2887622e-07
8.9892995e-07
9.7486877e-07
1.0571811e-06
1.1463945e-06
1.2430795e-06
1.3478523e-06
1.4613782e-06
1.5843755e-06
1.7176191e-06
1.8619456e-06
2.0182561e-06
2.1875229e-06
2.3707922e-06
2.5691919e-06
2.7839353e-06
3.016327e-06
3.2677713e-06
3.5397769e-06
3.8339627e-06
4.1520685e-06
4.4959587e-06
4.8676374e-06
5.2692473e-06
5.7030857e-06
6.171617e-06
6.6774757e-06
7.2234755e-06
7.8126411e-06
8.4481921e-06
9.133587e-06
9.872514e-06
1.0668933e-05
1.1527058e-05
1.2451429e-05
1.3446903e-05
1.4518681e-05
1.5672339e-05
1.6913884e-05
1.8249773e-05
1.9686979e-05
2.123295e-05
2.2895882e-05
2.4684383e-05
2.6608141e-05
2.8677285e-05
3.0902966e-05
3.3297466e-05
3.5873992e-05
3.8646771e-05
4.1631393e-05
4.4845202e-05
4.8306802e-05
5.2036085e-05
5.6055434e-05
4.9289584e-05
7.8208158e-05
0.00022673624
0.00036285495
0.00040867108
0.00046026866
0.00060004375
0.00077748904
0.0009125341
0.00097546551
0.00097583692
0.0010637208
0.0011608672
0.0010749159
0.0010700384
0.0011362386
0.0012035696
0.0012564254
0.0012987932
0.0012974321
0.001344148
0.0013397563
0.0013723926
0.0014342377
1.2068939e-07
1.3088414e-07
1.4199601e-07
1.5405456e-07
1.671362e-07
1.8132748e-07
1.9672235e-07
2.1342261e-07
2.3153868e-07
2.5119026e-07
2.7250708e-07
2.9562981e-07
3.2071088e-07
3.4791552e-07
3.7742277e-07
4.0942663e-07
4.4413734e-07
4.817826e-07
5.2260911e-07
5.6688402e-07
6.1489668e-07
6.6696035e-07
7.2341414e-07
7.8462515e-07
8.5099059e-07
9.2294029e-07
1.0009392e-06
1.0854901e-06
1.1771366e-06
1.2764664e-06
1.3841145e-06
1.500767e-06
1.6271644e-06
1.7641074e-06
1.9124585e-06
2.0731497e-06
2.2471848e-06
2.4356473e-06
2.639704e-06
2.8606112e-06
3.0997231e-06
3.3584967e-06
3.6384979e-06
3.9414123e-06
4.2690494e-06
4.6233584e-06
5.0064266e-06
5.4204972e-06
5.8679815e-06
6.3514635e-06
6.8737086e-06
7.4376978e-06
8.0466113e-06
8.7038743e-06
9.4131486e-06
1.0178376e-05
1.1003761e-05
1.1893846e-05
1.2853502e-05
1.3887955e-05
1.5002821e-05
1.6204161e-05
1.7498503e-05
1.8892907e-05
2.039492e-05
2.2012859e-05
2.3755464e-05
2.5632572e-05
2.7654478e-05
2.9832507e-05
3.2179133e-05
3.470776e-05
3.7432821e-05
4.037012e-05
4.353722e-05
4.6952942e-05
5.0637378e-05
5.4611976e-05
3.8005027e-05
7.5800776e-05
0.00022909499
0.00034477637
0.00036478661
0.00039518382
0.00048308882
0.00062778988
0.0007977624
0.00090712516
0.00093425951
0.0010294348
0.0011172955
0.0010361622
0.0010350484
0.0011034598
0.0011504641
0.0011757071
0.0012105853
0.0012126861
0.0012602646
0.0012810489
0.0013465723
0.0014263326
1.1373168e-07
1.2333671e-07
1.3380915e-07
1.4517428e-07
1.57504e-07
1.7087997e-07
1.8539081e-07
2.0113262e-07
2.182096e-07
2.3673475e-07
2.5683054e-07
2.786298e-07
3.0227651e-07
3.2792673e-07
3.5574962e-07
3.8592854e-07
4.1866222e-07
4.5416595e-07
4.9267309e-07
5.3443638e-07
5.7972969e-07
6.2884963e-07
6.8211739e-07
7.3988085e-07
8.0251659e-07
8.7043233e-07
9.4406939e-07
1.0239051e-06
1.1104562e-06
1.2042815e-06
1.3059852e-06
1.4162208e-06
1.5356943e-06
1.6651694e-06
1.80547e-06
1.9574872e-06
2.1221819e-06
2.3005924e-06
2.4938384e-06
2.7031273e-06
2.9297623e-06
3.1751482e-06
3.4407967e-06
3.7283385e-06
4.0395274e-06
4.3762561e-06
4.7405559e-06
5.1346146e-06
5.5607892e-06
6.0216115e-06
6.5197975e-06
7.0582826e-06
7.6402058e-06
8.2689574e-06
8.9481707e-06
9.6817666e-06
1.0473939e-05
1.1329229e-05
1.2252517e-05
1.3249053e-05
1.4324488e-05
1.5484935e-05
1.6736986e-05
1.8087782e-05
1.9544966e-05
2.1116967e-05
2.2812651e-05
2.4641999e-05
2.6615458e-05
2.8744521e-05
3.1041839e-05
3.3521005e-05
3.6196644e-05
3.9084759e-05
4.2203115e-05
4.5570736e-05
4.9207865e-05
5.2766641e-05
4.1333886e-05
9.2381733e-05
0.00024002544
0.00032571424
0.00032973535
0.00034946652
0.00040658137
0.00050277349
0.00065179257
0.00080561169
0.00088919441
0.0010128582
0.0010818828
0.0010002857
0.00099164131
0.0010669567
0.001135451
0.0011494684
0.0011607155
0.0011495208
0.0011765728
0.0011851586
0.0012557259
1.066932e-07
1.1570168e-07
1.2552727e-07
1.3619093e-07
1.4776e-07
1.6031118e-07
1.7392774e-07
1.8869996e-07
2.0472578e-07
2.2211141e-07
2.4097199e-07
2.6143241e-07
2.8362808e-07
3.0770581e-07
3.3382478e-07
3.6215754e-07
3.9289119e-07
4.262285e-07
4.6238928e-07
5.0161173e-07
5.4415405e-07
5.9029598e-07
6.403406e-07
6.9461634e-07
7.5347891e-07
8.1731366e-07
8.8653795e-07
9.6160351e-07
1.0429996e-06
1.1312561e-06
1.2269458e-06
1.3306895e-06
1.4431578e-06
1.5650774e-06
1.697233e-06
1.8404742e-06
1.9957183e-06
2.1639581e-06
2.3462655e-06
2.5437983e-06
2.7578081e-06
2.9896464e-06
3.2407704e-06
3.512755e-06
3.807297e-06
4.1262322e-06
4.4715347e-06
4.8453356e-06
5.2499367e-06
5.6878163e-06
6.1616399e-06
6.6742958e-06
7.2288806e-06
7.8287476e-06
8.4774998e-06
9.179036e-06
9.9375365e-06
1.0757539e-05
1.164393e-05
1.2601982e-05
1.3637378e-05
1.4756277e-05
1.5965332e-05
1.7271761e-05
1.8683296e-05
2.0208474e-05
2.185628e-05
2.3636828e-05
2.5560713e-05
2.7639584e-05
2.988626e-05
3.2314509e-05
3.4939138e-05
3.7776334e-05
4.0844047e-05
4.4161484e-05
4.7748945e-05
4.7277745e-05
5.5021815e-05
0.00012528589
0.00025577758
0.00030446725
0.00029925714
0.00031551145
0.00035705125
0.00041972574
0.00051808153
0.0006715137
0.00081959182
0.00097284068
0.0010467211
0.00096961753
0.0009490933
0.0010105849
0.001089701
0.0011271435
0.0011300788
0.0011126749
0.001133888
0.0011195602
9.956956e-08
1.079743e-07
1.1714521e-07
1.2709893e-07
1.3789815e-07
1.4961457e-07
1.6232603e-07
1.7611695e-07
1.9107891e-07
2.0731125e-07
2.2492169e-07
2.4402709e-07
2.6475419e-07
2.8724044e-07
3.116349e-07
3.380992e-07
3.6680869e-07
3.9795341e-07
4.3173951e-07
4.6839046e-07
5.0814859e-07
5.5127658e-07
5.9805919e-07
6.4880516e-07
7.0384907e-07
7.6355363e-07
8.2831196e-07
8.9854988e-07
9.7472898e-07
1.0573495e-06
1.1469529e-06
1.2441264e-06
1.3495053e-06
1.4637785e-06
1.587691e-06
1.7220506e-06
1.8677304e-06
2.0256771e-06
2.1969143e-06
2.3825494e-06
2.5837818e-06
2.8019094e-06
3.0383336e-06
3.2945729e-06
3.5722666e-06
3.8731925e-06
4.1992666e-06
4.5525626e-06
4.9353261e-06
5.3499809e-06
5.7991408e-06
6.2856458e-06
6.8125489e-06
7.3831651e-06
8.0010659e-06
8.6701259e-06
9.3945102e-06
1.0178751e-05
1.1027741e-05
1.1946768e-05
1.2941547e-05
1.4018279e-05
1.5183675e-05
1.6445025e-05
1.7810147e-05
1.9287677e-05
2.0886715e-05
2.26175e-05
2.4490766e-05
2.6518312e-05
2.8713112e-05
3.1089099e-05
3.3661247e-05
3.6445914e-05
3.9461222e-05
4.2726527e-05
4.6261723e-05
3.3594511e-05
6.8046479e-05
0.00015516048
0.00026510173
0.00028328411
0.00027758373
0.00029578158
0.00032885964
0.00036834222
0.00042776996
0.00053093602
0.00070960674
0.00091332817
0.00098533767
0.00093512796
0.00091734215
0.00095118301
0.0010251738
0.0010672793
0.0010717443
0.0010550217
0.0010883477
9.3405269e-08
1.0128765e-07
1.0989205e-07
1.1923144e-07
1.293645e-07
1.4035859e-07
1.5228685e-07
1.6522863e-07
1.7927001e-07
1.9450439e-07
2.1103305e-07
2.2896594e-07
2.4842226e-07
2.6953138e-07
2.9243359e-07
3.1728109e-07
3.4423902e-07
3.7348647e-07
4.0521772e-07
4.396435e-07
4.7699242e-07
5.175124e-07
5.6147234e-07
6.0916393e-07
6.6090348e-07
7.1703411e-07
7.7792797e-07
8.4398843e-07
9.1565311e-07
9.9339667e-07
1.0777334e-06
1.1692216e-06
1.2684657e-06
1.3761222e-06
1.4929017e-06
1.6195755e-06
1.7569788e-06
1.9060182e-06
2.0676754e-06
2.2430142e-06
2.4331891e-06
2.6394508e-06
2.8631531e-06
3.1057651e-06
3.3688763e-06
3.6542141e-06
3.9636441e-06
4.29919e-06
4.6630482e-06
5.057595e-06
5.4853989e-06
5.9492576e-06
6.4521853e-06
6.9974629e-06
7.5886334e-06
8.2295492e-06
8.9243602e-06
9.6775916e-06
1.0494139e-05
1.1379303e-05
1.2338818e-05
1.3378922e-05
1.450637e-05
1.5728507e-05
1.7053222e-05
1.848923e-05
2.0045721e-05
2.1733036e-05
2.3562017e-05
2.5544581e-05
2.7693827e-05
3.0023816e-05
3.2549654e-05
3.528783e-05
3.8256597e-05
4.147539e-05
4.4507266e-05
3.7480357e-05
0.0001061382
0.00018063867
0.00026091085
0.00025879859
0.00025704518
0.0002766823
0.0003009454
0.00032555234
0.00036106165
0.00041207323
0.00055874408
0.00080994832
0.00091371022
0.00089499989
0.00089879622
0.0009213227
0.0009672436
0.0010098244
0.0010140052
0.00098496282
0.0010104127
9.4454195e-08
1.0242546e-07
1.111262e-07
1.2057004e-07
1.3081636e-07
1.4193323e-07
1.5399461e-07
1.670807e-07
1.8127849e-07
1.9668241e-07
2.1339482e-07
2.3152681e-07
2.5119889e-07
2.7254175e-07
2.9569718e-07
3.2081896e-07
3.4807394e-07
3.7764304e-07
4.0972252e-07
4.4452526e-07
4.8228213e-07
5.2324351e-07
5.6768094e-07
6.1588893e-07
6.6818682e-07
7.2492093e-07
7.8646687e-07
8.5323168e-07
9.2565689e-07
1.0042213e-06
1.0894436e-06
1.1818868e-06
1.2821601e-06
1.3909252e-06
1.5088983e-06
1.6368562e-06
1.77564e-06
1.9261625e-06
2.0894118e-06
2.2664581e-06
2.4584625e-06
2.6666826e-06
2.8924789e-06
3.1373272e-06
3.4028238e-06
3.6907024e-06
4.0028351e-06
4.3412512e-06
4.7081522e-06
5.1059193e-06
5.5371245e-06
6.0045683e-06
6.5112665e-06
7.0605001e-06
7.6558107e-06
8.3010472e-06
9.0003545e-06
9.7582501e-06
1.057962e-05
1.1469751e-05
1.2434364e-05
1.3479677e-05
1.4612424e-05
1.5839926e-05
1.7170042e-05
1.8611458e-05
2.0173328e-05
2.1865956e-05
2.3700143e-05
2.5687762e-05
2.7841867e-05
3.0176467e-05
3.2706619e-05
3.5448757e-05
3.8421072e-05
4.1642801e-05
3.8780601e-05
6.2367635e-05
0.00016171127
0.00019985661
0.00024516067
0.00023083033
0.00023283745
0.00025326037
0.00027078028
0.0002881595
0.00031385988
0.00032524876
0.00040406488
0.00067085878
0.00082744229
0.00083701675
0.0008643414
0.00090776991
0.00094012819
0.00096756977
0.00098084387
0.0009422803
1.0175594e-07
1.1034587e-07
1.1971747e-07
1.2988878e-07
1.4092391e-07
1.5289606e-07
1.6588474e-07
1.7997614e-07
1.9526377e-07
2.1184904e-07
2.2984192e-07
2.493617e-07
2.7053773e-07
2.9351027e-07
3.1843141e-07
3.4546609e-07
3.7479314e-07
4.0660641e-07
4.4111611e-07
4.7855009e-07
5.1915536e-07
5.6319965e-07
6.1097309e-07
6.6279018e-07
7.1899165e-07
7.7994678e-07
8.4605566e-07
9.1775155e-07
9.9550387e-07
1.0798212e-06
1.171254e-06
1.2703985e-06
1.3778998e-06
1.4944572e-06
1.6208262e-06
1.7578256e-06
1.9063402e-06
2.0673281e-06
2.2418253e-06
2.4309512e-06
2.6359177e-06
2.8580349e-06
3.0987165e-06
3.3594926e-06
3.642014e-06
3.9480689e-06
4.2795831e-06
4.6386387e-06
5.0274877e-06
5.4485591e-06
5.9044691e-06
6.3980578e-06
6.9323748e-06
7.5107283e-06
8.1366791e-06
8.8140865e-06
9.5470954e-06
1.0340212e-05
1.1198298e-05
1.2126603e-05
1.3130798e-05
1.4217032e-05
1.5391958e-05
1.6662799e-05
1.8037301e-05
1.9524018e-05
2.1131961e-05
2.2871275e-05
2.4752589e-05
2.6787593e-05
2.8989145e-05
3.1371055e-05
3.3948169e-05
3.673671e-05
3.9754626e-05
4.3022297e-05
2.5686643e-05
8.727336e-05
0.00020379194
0.00020970682
0.00022425384
0.00020551382
0.00021024023
0.0002275222
0.00024046491
0.00026162577
0.00028600489
0.0002725025
0.00029285121
0.00051640546
0.00073473986
0.00078062553
0.00081827789
0.00087642083
0.00090008185
0.00091160621
0.00093659222
1.0907272e-07
1.1828256e-07
1.2832633e-07
1.3922652e-07
1.5105198e-07
1.6388105e-07
1.7779877e-07
1.9289737e-07
2.0927683e-07
2.2704561e-07
2.4632125e-07
2.6723126e-07
2.8991384e-07
3.1451881e-07
3.412086e-07
3.7015925e-07
4.0156161e-07
4.3562247e-07
4.7256596e-07
5.1263489e-07
5.5609242e-07
6.0322357e-07
6.5433706e-07
7.0976733e-07
7.6987647e-07
8.3505664e-07
9.0573235e-07
9.8236299e-07
1.0654458e-06
1.155519e-06
1.2531644e-06
1.3590118e-06
1.4737415e-06
1.5980902e-06
1.7328527e-06
1.8788889e-06
2.037127e-06
2.2085704e-06
2.3943017e-06
2.5954891e-06
2.8133944e-06
3.0493791e-06
3.3049092e-06
3.5815676e-06
3.8810583e-06
4.2052223e-06
4.5560373e-06
4.9356359e-06
5.3463182e-06
5.7905582e-06
6.2710136e-06
6.7905604e-06
7.3522786e-06
7.9594995e-06
8.6157986e-06
9.3250408e-06
1.0091366e-05
1.0919262e-05
1.1813563e-05
1.2779475e-05
1.3822608e-05
1.494904e-05
1.6165334e-05
1.7478607e-05
1.8896483e-05
2.042738e-05
2.2080155e-05
2.3864786e-05
2.5791723e-05
2.7872463e-05
3.011966e-05
3.2546915e-05
3.5168856e-05
3.8001484e-05
4.106246e-05
4.253329e-05
5.2319085e-05
0.0001556241
0.00023490385
0.00021261566
0.00020994977
0.00020541447
0.00020190115
0.00020711284
0.00022097878
0.00024800513
0.00026988513
0.00023982877
0.0002233822
0.0003851132
0.0006292316
0.00071180291
0.00077834172
0.00086259452
0.00086684272
0.00085289385
1.1641119e-07
1.2624274e-07
1.3696061e-07
1.4859176e-07
1.6120977e-07
1.7489815e-07
1.8974751e-07
2.0585608e-07
2.2333036e-07
2.4228585e-07
2.6284769e-07
2.8515161e-07
3.0934466e-07
3.3558627e-07
3.6404917e-07
3.9492057e-07
4.284033e-07
4.6471711e-07
5.0410005e-07
5.4680992e-07
5.9312598e-07
6.4335056e-07
6.9781094e-07
7.568615e-07
8.2088564e-07
8.9029834e-07
9.6554852e-07
1.0471215e-06
1.1355425e-06
1.2313789e-06
1.3352441e-06
1.4478009e-06
1.5697649e-06
1.7019097e-06
1.8450691e-06
2.0001441e-06
2.1681054e-06
2.3500012e-06
2.5469602e-06
2.7601986e-06
2.9910274e-06
3.2408583e-06
3.5112086e-06
3.8037126e-06
4.1201259e-06
4.4623407e-06
4.8323846e-06
5.2324383e-06
5.6648478e-06
6.1321293e-06
6.6369785e-06
7.1823042e-06
7.7712127e-06
8.4070545e-06
9.0934149e-06
9.8341597e-06
1.0633418e-05
1.1495656e-05
1.242567e-05
1.3428617e-05
1.4510042e-05
1.5675943e-05
1.6932787e-05
1.8287576e-05
1.9747806e-05
2.1321748e-05
2.3018102e-05
2.4846668e-05
2.6817708e-05
2.8942519e-05
3.1233547e-05
3.370417e-05
3.6368794e-05
3.9243173e-05
4.2345831e-05
3.2627038e-05
8.6365142e-05
0.00021976776
0.00025267937
0.00021383118
0.00021528005
0.0002190258
0.00020083207
0.0001979791
0.00021356645
0.00023408278
0.00024625876
0.00021153544
0.00017446836
0.00028835401
0.00051820009
0.00062820765
0.0007236343
0.00084558988
0.00087588503
1.2377828e-07
1.3423393e-07
1.4562844e-07
1.5799329e-07
1.7140684e-07
1.8595774e-07
2.0174218e-07
2.1886444e-07
2.3743754e-07
2.5758404e-07
2.794367e-07
3.0313948e-07
3.2884833e-07
3.5673227e-07
3.8697439e-07
4.1977305e-07
4.5534312e-07
4.9391728e-07
5.3574753e-07
5.8110669e-07
6.3029012e-07
6.8361745e-07
7.4143456e-07
8.041157e-07
8.7206561e-07
9.4572203e-07
1.0255582e-06
1.1120856e-06
1.2058567e-06
1.3074687e-06
1.4175659e-06
1.5368443e-06
1.6660544e-06
1.8060064e-06
1.957573e-06
2.1216956e-06
2.2993873e-06
2.4917403e-06
2.6999291e-06
2.9252169e-06
3.1689631e-06
3.4326287e-06
3.7177809e-06
4.0261044e-06
4.3594047e-06
4.7196234e-06
5.1088361e-06
5.5292694e-06
5.9833125e-06
6.4735211e-06
7.0026258e-06
7.5735645e-06
8.1894664e-06
8.8536962e-06
9.5698455e-06
1.0341775e-05
1.1173599e-05
1.2069754e-05
1.3034996e-05
1.4074425e-05
1.5193516e-05
1.6398177e-05
1.7694773e-05
1.9090187e-05
2.0591778e-05
2.2207665e-05
2.3946379e-05
2.581754e-05
2.7831214e-05
2.9998493e-05
3.2331603e-05