/*--------------------------------*- C++ -*----------------------------------*\
| =========                 |                                                 |
| \\      /  F ield         | OpenFOAM: The Open Source CFD Toolbox           |
|  \\    /   O peration     | Version:  2506                                  |
|   \\  /    A nd           | Website:  www.openfoam.com                      |
|    \\/     M anipulation  |                                                 |
\*---------------------------------------------------------------------------*/
FoamFile
{
    version     2.0;
    format      ascii;
    arch        "LSB;label=32;scalar=64";
    class       volScalarField;
    location    "0.03";
    object      Ma;
}
// * * * * * * * * * * * * * * * * * * * * * * * * * * * * * * * * * * * * * //

dimensions      [0 0 0 0 0 0 0];

internalField   nonuniform List<scalar> 
13761
(
0.29965758
0.29965754
0.29965747
0.2996574
0.29965731
0.30002735
0.2996572
0.30002885
0.29965708
0.30003038
0.29965694
0.30003194
0.29965679
0.30003354
0.29965662
0.30014806
0.30003517
0.29965644
0.30015219
0.30003682
0.29965624
0.30015627
0.30003851
0.29965603
0.30016032
0.30004023
0.2996558
0.30016433
0.30004198
0.29965555
0.3001683
0.30004376
0.29965529
0.30105236
0.30017223
0.30004556
0.29965502
0.30105765
0.30017611
0.30004739
0.29965473
0.30106294
0.30017996
0.30004925
0.29965442
0.30106824
0.30018378
0.30005113
0.29965409
0.30107354
0.30018755
0.30005304
0.29965375
0.30107884
0.30019129
0.30005496
0.29965339
0.30104165
0.30108415
0.300195
0.30005691
0.29965302
0.30105261
0.30108947
0.30019867
0.30005888
0.29965263
0.30106361
0.30109479
0.30020231
0.30006087
0.29965222
0.30107465
0.30110011
0.30020592
0.30006288
0.2996518
0.30108571
0.30110544
0.30020949
0.30006491
0.29965136
0.30072017
0.30109681
0.30111077
0.30021303
0.30006696
0.29965091
0.30072843
0.30110795
0.30111611
0.30021654
0.30006903
0.29965044
0.30073671
0.30111911
0.30112146
0.30022001
0.30007112
0.29964995
0.30074502
0.30113029
0.30112681
0.30022346
0.30007322
0.29964945
0.30075336
0.30114151
0.30113217
0.30022687
0.30007535
0.29964893
0.30076173
0.30115274
0.30113754
0.30023025
0.30007749
0.29964839
0.3000517
0.30077014
0.30116399
0.30114291
0.3002336
0.30007965
0.29964784
0.30005826
0.30077858
0.30117526
0.30114828
0.30023691
0.30008183
0.29964727
0.30006483
0.30078706
0.30118655
0.30115366
0.30024019
0.30008403
0.29964668
0.30007142
0.30079558
0.30119785
0.30115904
0.30024343
0.30008625
0.29964608
0.30007804
0.30080414
0.30120916
0.30116443
0.30024664
0.30008848
0.29964545
0.29962132
0.30008468
0.30081275
0.30122047
0.30116981
0.30024982
0.30009074
0.29964481
0.29962308
0.30009135
0.3008214
0.3012318
0.3011752
0.30025296
0.300093
0.29964416
0.29962485
0.30009803
0.3008301
0.30124312
0.30118058
0.30025607
0.30009529
0.29964348
0.29962661
0.30010474
0.30083886
0.30125444
0.30118596
0.30025915
0.30009758
0.29964279
0.29962836
0.30011147
0.30084767
0.30126576
0.30119135
0.30026219
0.3000999
0.29964208
0.29963011
0.30011822
0.30085654
0.30127708
0.30119673
0.3002652
0.30010222
0.29964136
0.300544
0.29963184
0.300125
0.30086548
0.30128838
0.30120211
0.30026817
0.30010456
0.29964061
0.30054661
0.29963357
0.30013179
0.30087448
0.30129967
0.30120749
0.30027111
0.30010691
0.30054924
0.29963528
0.30013861
0.30088355
0.30131095
0.30121288
0.30027402
0.30010927
0.30055189
0.29963697
0.30014545
0.30089269
0.30132221
0.30121826
0.3002769
0.30011164
0.30055455
0.29963865
0.30015231
0.3009019
0.30133344
0.30122364
0.30027974
0.30011403
0.30151502
0.30055724
0.29964031
0.30015919
0.30091119
0.30134466
0.30122902
0.30028255
0.30011642
0.3015286
0.30055995
0.29964195
0.30016611
0.30092055
0.30135585
0.30123441
0.30028533
0.30011883
0.3015421
0.30056267
0.29964357
0.30017304
0.30092999
0.30136701
0.30123979
0.30028808
0.30012125
0.30155553
0.30056542
0.29964518
0.30018001
0.30093951
0.30137814
0.30124517
0.30029079
0.30012367
0.30156888
0.30056819
0.29964676
0.300187
0.3009491
0.30138925
0.30125055
0.30029347
0.30158214
0.30057099
0.29964833
0.30019403
0.30095877
0.30140032
0.30125594
0.30029612
0.30139939
0.30159533
0.3005738
0.29964988
0.30020109
0.3009685
0.30141136
0.30126132
0.30029874
0.30141845
0.30160844
0.30057665
0.2996514
0.30020819
0.30097831
0.30142237
0.3012667
0.30030132
0.30143761
0.30162146
0.30057952
0.29965291
0.30021533
0.30098819
0.30143335
0.30127208
0.30030387
0.30145686
0.30163439
0.30058241
0.29965439
0.30022251
0.30099814
0.3014443
0.30127745
0.30030638
0.30147621
0.30164724
0.30058534
0.29965585
0.30022973
0.30100815
0.30145522
0.30128283
0.30030886
0.30132063
0.30149564
0.30166
0.30058828
0.29965729
0.30023701
0.30101823
0.3014661
0.3012882
0.3003113
0.30133078
0.30151516
0.30167267
0.30059125
0.29965871
0.30024434
0.30102836
0.30147695
0.30129357
0.30134084
0.30153475
0.30168525
0.30059425
0.2996601
0.30025173
0.30103856
0.30148778
0.30129893
0.30135082
0.30155441
0.30169773
0.30059727
0.29966147
0.30025918
0.30104881
0.30149857
0.3013043
0.30136074
0.30157413
0.30171012
0.30060032
0.29966282
0.3002667
0.30105912
0.30150933
0.30130965
0.30220996
0.3013706
0.30159391
0.30172241
0.3006034
0.29966415
0.30027429
0.30106948
0.30152007
0.30131501
0.30222893
0.30138041
0.30161373
0.3017346
0.3006065
0.29966546
0.30028195
0.30107989
0.30153077
0.30132036
0.3022479
0.30139017
0.3016336
0.30174669
0.30060963
0.29966674
0.30028968
0.30109034
0.30154145
0.30132571
0.30226687
0.3013999
0.30165351
0.30175867
0.30061278
0.29966799
0.3002975
0.30110085
0.3015521
0.30272198
0.30228585
0.3014096
0.30167345
0.30177055
0.30061596
0.29966922
0.30030539
0.30111139
0.30156272
0.30274663
0.30230482
0.30141928
0.30169341
0.30178233
0.30061916
0.29967043
0.30031338
0.30112198
0.30157331
0.30277127
0.30232378
0.30142895
0.30171339
0.301794
0.30062238
0.29967161
0.30032145
0.30113261
0.30158388
0.30279588
0.30234273
0.30143862
0.30173339
0.30180556
0.30062562
0.29967277
0.30032962
0.30114327
0.30159442
0.30282047
0.30236167
0.30144829
0.3017534
0.30181702
0.30062888
0.2996739
0.30033787
0.30115398
0.30160493
0.30298678
0.30284503
0.3023806
0.30145797
0.30177341
0.30182837
0.30063215
0.299675
0.30034622
0.30116472
0.30161541
0.30301165
0.30286957
0.30239951
0.30146767
0.30179342
0.30183961
0.30063543
0.29967608
0.30035467
0.3011755
0.30162587
0.30303649
0.30289409
0.3024184
0.30147739
0.30181343
0.30185075
0.30063872
0.29967712
0.30036321
0.30118631
0.30306132
0.30291857
0.30243727
0.30148714
0.30183344
0.30186178
0.30064202
0.29967814
0.30037185
0.30119715
0.30396967
0.30308612
0.30294303
0.30245612
0.30149692
0.30185344
0.30187272
0.30064531
0.29967913
0.30038059
0.30120802
0.30399887
0.3031109
0.30296745
0.30247495
0.30150674
0.30187342
0.30188357
0.30064859
0.29968009
0.30038942
0.30121893
0.30402799
0.30313565
0.30299183
0.30249375
0.3015166
0.30189339
0.30189432
0.30065187
0.29968102
0.30039836
0.30122986
0.30405702
0.30316038
0.30301618
0.30251251
0.30152652
0.30191334
0.30190499
0.30065512
0.29968192
0.3004074
0.30124083
0.30467016
0.30408598
0.30318507
0.30304048
0.30253123
0.30153648
0.30193326
0.30191558
0.30065835
0.29968278
0.30041654
0.30125183
0.30470517
0.30411486
0.30320973
0.30306475
0.30254992
0.3015465
0.30195317
0.30192609
0.30066155
0.29968362
0.30042579
0.30126286
0.30474013
0.30414365
0.30323436
0.30308896
0.30256857
0.30155657
0.30197305
0.30193654
0.30066471
0.29968442
0.30043514
0.30477503
0.30417236
0.30325895
0.30311313
0.30258716
0.30156671
0.3019929
0.30194692
0.30066783
0.29968519
0.30044459
0.30547213
0.30480987
0.30420099
0.3032835
0.30313724
0.30260571
0.30157691
0.30201271
0.30195725
0.30067092
0.29968592
0.30045415
0.30551109
0.30484464
0.30422954
0.30330801
0.3031613
0.30262421
0.30158718
0.3020325
0.30196754
0.30067395
0.29968662
0.30046381
0.30554998
0.30487935
0.304258
0.30333248
0.30318531
0.30264265
0.30159752
0.30205225
0.30197777
0.30067693
0.29968728
0.30047358
0.30558881
0.304914
0.30428637
0.30335691
0.30320925
0.30266103
0.30160793
0.30207196
0.30198798
0.30067986
0.29968791
0.30048346
0.30661737
0.30562756
0.30494857
0.30431466
0.30338129
0.30323314
0.30267934
0.30161841
0.30209164
0.30199814
0.30068273
0.2996885
0.30049346
0.30666338
0.30566624
0.30498308
0.30434287
0.30340562
0.30325696
0.30269759
0.30162896
0.30211127
0.30200828
0.30068555
0.29968906
0.30670929
0.30570484
0.30501751
0.30437099
0.30342991
0.30328072
0.30271576
0.3016396
0.30213086
0.3020184
0.3006883
0.29968958
0.3067551
0.30574336
0.30505187
0.30439902
0.30345414
0.3033044
0.30273386
0.30165031
0.30215041
0.30202848
0.30069099
0.29969006
0.30769874
0.3068008
0.3057818
0.30508615
0.30442696
0.30347832
0.30332802
0.30275188
0.30166111
0.30216991
0.30203855
0.30069362
0.29969051
0.30775141
0.30684639
0.30582014
0.30512036
0.30445481
0.30350245
0.30335157
0.30276981
0.30167199
0.30218936
0.30204859
0.30069619
0.29969093
0.30780398
0.30689186
0.30585839
0.30515448
0.30448258
0.30352652
0.30337504
0.30278766
0.30168295
0.30220877
0.30205861
0.30069869
0.2996913
0.30891065
0.30785645
0.30693721
0.30589654
0.30518851
0.30451025
0.30355054
0.30339843
0.30280541
0.30169401
0.30222812
0.30206861
0.30070112
0.29969164
0.30896937
0.3079088
0.30698245
0.3059346
0.30522247
0.30453784
0.30357451
0.30342175
0.30282306
0.30170515
0.30224741
0.30207859
0.30070349
0.30902797
0.30796105
0.30702756
0.30597255
0.30525634
0.30456534
0.30359841
0.30344499
0.3028406
0.30171639
0.30226666
0.30208855
0.3007058
0.31029247
0.30908645
0.30801318
0.30707254
0.30601039
0.30529012
0.30459274
0.30362227
0.30346816
0.30285804
0.30172772
0.30228584
0.30209849
0.30070804
0.31035842
0.3091448
0.3080652
0.30711739
0.30604813
0.30532381
0.30462006
0.30364607
0.30349125
0.30287537
0.30173914
0.30230496
0.30210842
0.30071021
0.31042417
0.30920302
0.3081171
0.30716211
0.30608575
0.30535741
0.30464728
0.30366981
0.30351426
0.30289257
0.30175067
0.30232402
0.30211832
0.30071232
0.31177521
0.31048972
0.30926112
0.30816887
0.30720668
0.30612326
0.30539091
0.3046744
0.30369351
0.30353719
0.30290965
0.30176229
0.30234302
0.3021282
0.30071435
0.31184899
0.31055508
0.30931908
0.30822052
0.30725112
0.30616065
0.30542432
0.30470143
0.30371714
0.30356004
0.30292659
0.30177402
0.30236196
0.30213806
0.3007163
0.31192244
0.31062024
0.30937691
0.30827203
0.3072954
0.30619791
0.30545763
0.30472837
0.30374073
0.30358281
0.3029434
0.30178584
0.30238084
0.3021479
0.31344761
0.31199557
0.3106852
0.30943461
0.30832341
0.30733953
0.30623504
0.30549084
0.3047552
0.30376426
0.30360551
0.30296007
0.30179777
0.30239964
0.30215771
0.31353212
0.31206837
0.31074997
0.30949217
0.30837464
0.30738351
0.30627205
0.30552395
0.30478194
0.30378774
0.30362813
0.30297658
0.3018098
0.30241838
0.3021675
0.31361616
0.31214086
0.31081454
0.30954959
0.30842574
0.30742733
0.30630892
0.30555696
0.30480858
0.30381117
0.30365068
0.30299295
0.30182194
0.30243705
0.30217727
0.31519305
0.31369975
0.31221302
0.31087892
0.30960688
0.30847669
0.30747099
0.30634565
0.30558987
0.30483512
0.30383456
0.30367315
0.30300915
0.30183418
0.30245566
0.30218702
0.31529036
0.31378288
0.31228486
0.31094312
0.30966402
0.30852749
0.30751449
0.30638225
0.30562267
0.30486156
0.30385789
0.30369555
0.30302519
0.30184652
0.30247419
0.30219673
0.31692498
0.31538712
0.31386555
0.31235639
0.31100712
0.30972103
0.30857813
0.30755781
0.30641871
0.30565536
0.30488789
0.30388118
0.30371788
0.30304107
0.30185896
0.30249266
0.30220643
0.31703696
0.31548333
0.31394776
0.31242761
0.31107093
0.30977788
0.30862861
0.30760097
0.30645503
0.30568795
0.30491413
0.30390441
0.30374014
0.30305678
0.3018715
0.30251105
0.31872867
0.31714837
0.31557897
0.3140295
0.31249852
0.31113456
0.30983459
0.30867894
0.30764394
0.3064912
0.30572043
0.30494026
0.30392761
0.30376233
0.30307231
0.30188414
0.30252937
0.31885573
0.3172592
0.31567403
0.31411077
0.31256912
0.31119799
0.30989115
0.30872909
0.30768674
0.30652722
0.30575281
0.30496628
0.30395075
0.30378446
0.30308767
0.30189687
0.30254762
0.3189822
0.31736941
0.3157685
0.31419157
0.31263941
0.31126124
0.30994756
0.30877907
0.30772935
0.30656309
0.30578507
0.3049922
0.30397385
0.30380652
0.30310285
0.3019097
0.3025658
0.32075502
0.31910809
0.31747899
0.31586238
0.3142719
0.3127094
0.3113243
0.3100038
0.30882887
0.30777178
0.3065988
0.30581722
0.305018
0.30399691
0.30382852
0.30311785
0.30192261
0.30258391
0.32089684
0.31923335
0.31758794
0.31595566
0.31435177
0.31277909
0.31138717
0.31005988
0.30887849
0.30781401
0.30663436
0.30584926
0.3050437
0.30401992
0.30385046
0.30313267
0.30193562
0.30260195
0.32275206
0.32103806
0.31935799
0.31769625
0.31604833
0.31443116
0.31284848
0.31144986
0.31011579
0.30892792
0.30785605
0.30666977
0.30588118
0.30506929
0.30404288
0.30387234
0.30314731
0.30194871
0.30261992
0.32291028
0.32117865
0.31948198
0.31780388
0.3161404
0.3145101
0.31291758
0.31151235
0.31017153
0.30897715
0.30789789
0.30670501
0.305913
0.30509477
0.3040658
0.30389416
0.30316177
0.30196188
0.32482475
0.32306783
0.3213186
0.31960531
0.31791085
0.31623185
0.31458857
0.3129864
0.31157466
0.3102271
0.30902619
0.30793953
0.30674009
0.30594469
0.30512014
0.30408868
0.30391592
0.30317605
0.30197512
0.32676665
0.32500113
0.32322472
0.32145789
0.31972796
0.31801714
0.3163227
0.31466659
0.31305493
0.31163679
0.31028249
0.30907502
0.30798096
0.30677501
0.30597628
0.3051454
0.30411152
0.30393763
0.30319015
0.30198844
0.32696453
0.32517675
0.32338091
0.3215965
0.31984991
0.31812273
0.31641293
0.31474416
0.31312318
0.31169873
0.3103377
0.30912365
0.30802219
0.30680977
0.30600774
0.30517054
0.30413431
0.30395928
0.30320408
0.30200182
0.3289201
0.32716157
0.3253516
0.32353639
0.32173442
0.31997116
0.31822763
0.31650255
0.31482129
0.31319116
0.31176048
0.31039272
0.30917207
0.30806321
0.30684436
0.30603909
0.30519557
0.30415707
0.30398088
0.30321783
0.30201527
0.32914128
0.32735773
0.32552566
0.32369114
0.32187163
0.32009169
0.31833182
0.31659156
0.31489797
0.31325888
0.31182205
0.31044756
0.30922027
0.30810402
0.30687878
0.30607033
0.30522049
0.30417978
0.30400243
0.30323142
0.30202878
0.33108861
0.32936151
0.32755299
0.32569891
0.32384515
0.32200812
0.32021148
0.31843529
0.31667995
0.31497422
0.31332633
0.31188342
0.31050219
0.30926825
0.30814462
0.30691303
0.30610145
0.3052453
0.30420245
0.30402392
0.30324483
0.3329853
0.33133502
0.32958076
0.32774732
0.32587132
0.32399838
0.32214385
0.32033052
0.31853804
0.31676773
0.31505004
0.31339351
0.31194461
0.31055662
0.309316
0.30818499
0.30694711
0.30613244
0.30526998
0.30422508
0.30404537
0.30325808
0.33482786
0.33325882
0.33158043
0.32979898
0.32794068
0.32604287
0.32415082
0.32227881
0.32044879
0.31864005
0.31685489
0.31512542
0.31346044
0.3120056
0.31061083
0.30936352
0.30822514
0.30698102
0.30616332
0.30529455
0.30424767
0.30406676
0.30327116
0.33512869
0.33353144
0.33182481
0.33001613
0.32813306
0.32621353
0.32430245
0.32241299
0.32056627
0.31874132
0.31694144
0.31520038
0.3135271
0.31206639
0.31066483
0.3094108
0.30826506
0.30701475
0.30619408
0.30531899
0.30427022
0.3040881
0.30328409
0.33694357
0.33542878
0.33380312
0.33206811
0.3302322
0.32832443
0.3263833
0.32445326
0.32254636
0.32068296
0.31884184
0.31702737
0.31527492
0.31359351
0.31212698
0.3107186
0.30945783
0.30830476
0.3070483
0.30622471
0.30534332
0.30429273
0.30410939
0.30329686
0.33869905
0.33727124
0.33572807
0.33407381
0.33231029
0.33044714
0.32851478
0.32655216
0.32460323
0.32267892
0.32079885
0.31894162
0.31711271
0.31534905
0.31365966
0.31218737
0.31077215
0.30950461
0.30834422
0.30708168
0.30625522
0.30536752
0.30431521
0.30413064
0.30330947
0.34038803
0.33905465
0.33759825
0.3360265
0.33434345
0.33255131
0.33066094
0.32870408
0.32672009
0.32475235
0.32281066
0.32091392
0.31904064
0.31719744
0.31542277
0.31372557
0.31224755
0.31082545
0.30955114
0.30838345
0.30711487
0.30628561
0.3053916
0.30433764
0.30415183
0.30332193
0.34200162
0.34077207
0.33940973
0.33792455
0.33632401
0.33461198
0.33279112
0.33087355
0.32889232
0.32688709
0.3249006
0.32294156
0.32102818
0.31913891
0.31728157
0.3154961
0.31379122
0.31230753
0.31087852
0.30959742
0.30842245
0.30714789
0.30631587
0.30541555
0.30436004
0.30417297
0.34353325
0.34241449
0.34115573
0.33976422
0.33825008
0.33662057
0.33487936
0.33302968
0.33108496
0.32907947
0.32705312
0.32504798
0.3230716
0.3211416
0.31923644
0.31736512
0.31556903
0.31385664
0.31236729
0.31093133
0.30964343
0.30846121
0.30718073
0.306346
0.30543937
0.3043824
0.30419406
0.34497846
0.3439751
0.34282717
0.34153895
0.34011809
0.3385748
0.33691609
0.33514554
0.33326697
0.33129514
0.32926553
0.32721819
0.32519446
0.32320078
0.32125419
0.31933321
0.31744809
0.31564158
0.31392181
0.31242684
0.3109839
0.30968917
0.30849973
0.30721338
0.30637602
0.30546306
0.30440472
0.30421511
0.34706977
0.34633382
0.34544922
0.34441706
0.34323963
0.34192169
0.34047128
0.33889864
0.33721054
0.33541047
0.33350293
0.33150407
0.32945048
0.32738228
0.32534003
0.32332909
0.32136594
0.31942923
0.31753048
0.31571376
0.31398673
0.31248617
0.3110362
0.30973464
0.308538
0.30724585
0.3064059
0.30548662
0.304427
0.3042361
0.34820709
0.34759548
0.3468332
0.34592048
0.34485907
0.34365179
0.34230389
0.34082373
0.33922156
0.33750385
0.33567409
0.33373754
0.33171173
0.32963431
0.32754537
0.32548469
0.32345652
0.32147685
0.3195245
0.3176123
0.31578556
0.31405142
0.31254528
0.31108823
0.30977984
0.30857604
0.30727814
0.30643566
0.30551005
0.30444925
0.30425705
0.34957803
0.34924345
0.34875936
0.34812298
0.3473336
0.34639217
0.34530105
0.34406359
0.34268549
0.34117538
0.33954347
0.33779595
0.33593634
0.33397076
0.33191809
0.32981699
0.32770746
0.32562842
0.32358304
0.3215869
0.31961903
0.31769356
0.315857
0.31411587
0.31260415
0.31113998
0.30982476
0.30861383
0.30731025
0.30646529
0.30553334
0.30447147
0.30427795
0.35044061
0.35037942
0.35017494
0.34982122
0.34931431
0.3486522
0.34783495
0.34686422
0.34574294
0.34447496
0.34306642
0.34152617
0.33986432
0.33808678
0.33619717
0.33420253
0.33212312
0.32999851
0.32786852
0.3257712
0.32370866
0.32169608
0.31971281
0.31777426
0.31592808
0.31418007
0.31266279
0.31119146
0.30986939
0.30865136
0.30734217
0.30649479
0.30555649
0.30449364
0.35080056
0.35100145
0.35107022
0.35099772
0.350777
0.35040278
0.34987187
0.34918305
0.34833716
0.34733653
0.34618465
0.34488584
0.34344662
0.34187603
0.34018403
0.33837625
0.33645652
0.33443282
0.33232679
0.33017884
0.32802853
0.32591301
0.32383334
0.3218044
0.31980584
0.31785441
0.31599879
0.31424402
0.31272118
0.31124263
0.30991372
0.30868865
0.3073739
0.30652415
0.30557949
0.30451579
0.35012967
0.35067701
0.35112039
0.35144791
0.3516471
0.35170828
0.35162276
0.3513842
0.35098806
0.35043194
0.34971544
0.34884015
0.34780903
0.34662611
0.34529615
0.34382603
0.34222489
0.34050253
0.33866432
0.33671434
0.3346616
0.3325291
0.33035798
0.3281875
0.32605385
0.3239571
0.32191185
0.31989812
0.31793401
0.31606915
0.31430773
0.31277932
0.31129351
0.30995776
0.30872568
0.30740545
0.30655339
0.30560236
0.30453789
0.34854429
0.34935984
0.35010397
0.35076237
0.351325
0.35177748
0.35210764
0.35230322
0.35235489
0.35225454
0.3519965
0.35157699
0.35099445
0.35024928
0.34934382
0.34828164
0.34706725
0.34570584
0.34420458
0.3425727
0.34081976
0.33895093
0.33697059
0.33488885
0.33273002
0.33053592
0.3283454
0.3261937
0.32407991
0.32201842
0.31998966
0.31801306
0.31613916
0.31437118
0.31283721
0.31134408
0.3100015
0.30876246
0.30743681
0.30658249
0.30562507
0.30455996
0.34393004
0.34506962
0.34616802
0.34721846
0.34820555
0.34912258
0.3499668
0.35073564
0.3514135
0.35198973
0.35244937
0.35278012
0.35297001
0.35301016
0.35289308
0.35261385
0.35216949
0.3515593
0.35078448
0.3498481
0.34875429
0.34750801
0.34611484
0.34458222
0.3429194
0.34113567
0.33923601
0.33722522
0.33511454
0.33292955
0.33071265
0.32850223
0.32633256
0.32420178
0.32212411
0.32008047
0.31809159
0.31620882
0.31443439
0.31289483
0.31139434
0.31004494
0.30879898
0.30746798
0.30661145
0.30564764
0.304582
0.33335405
0.33491656
0.33640464
0.33783857
0.33922736
0.34057218
0.34187562
0.3431361
0.34435687
0.3455322
0.34666699
0.34775295
0.34877478
0.3497236
0.35059578
0.35138818
0.35208394
0.35267189
0.35313656
0.35346565
0.35364764
0.35367414
0.35353836
0.35323616
0.35276545
0.35212637
0.35132095
0.35035289
0.34922689
0.34794831
0.34652309
0.3449589
0.34326491
0.34145018
0.33951952
0.33747821
0.33533865
0.33312767
0.33088817
0.32865798
0.32647042
0.3243227
0.32222894
0.32017056
0.3181696
0.31627815
0.31449734
0.31295218
0.31144428
0.31008807
0.30883525
0.30749896
0.30664028
0.30567005
0.304604
0.04816592
0.050515336
0.05485835
0.062161707
0.072010877
0.083111539
0.094051693
0.10418784
0.11361397
0.12275831
0.13204035
0.14171321
0.15183019
0.16228516
0.17291971
0.1836258
0.19440152
0.20534186
0.21657564
0.22818593
0.24014721
0.25229805
0.26435622
0.27596491
0.28675781
0.29642664
0.30476863
0.31170954
0.31730141
0.3216996
0.32512534
0.32782246
0.33001812
0.33189553
0.33358353
0.33516064
0.33666867
0.33812652
0.3395425
0.3409174
0.34225335
0.34354849
0.34480556
0.34601791
0.34718999
0.34831196
0.34936866
0.35034885
0.35124812
0.3520627
0.3527746
0.35337213
0.3538395
0.35416452
0.35433625
0.35434685
0.35419032
0.35386336
0.35336477
0.35269557
0.35185856
0.3508581
0.34969935
0.34838807
0.34693052
0.34533453
0.34360918
0.34176322
0.33980139
0.3377295
0.33556115
0.33332438
0.33106246
0.32881265
0.32660727
0.32444266
0.32233289
0.32025992
0.3182471
0.31634714
0.31456003
0.31300925
0.31149389
0.31013089
0.30887125
0.30752975
0.30666897
0.30569232
0.045714346
0.046498161
0.047409048
0.048543823
0.050118178
0.052681091
0.057462682
0.065470543
0.075873988
0.086990613
0.097489537
0.10705254
0.11602005
0.12488679
0.13402281
0.14358531
0.15353983
0.1637514
0.17409466
0.18453165
0.19512716
0.20601183
0.21730849
0.22905892
0.24118005
0.25345692
0.26557172
0.27715376
0.28784632
0.29736526
0.30553714
0.31231386
0.31776582
0.32205754
0.32541143
0.32806717
0.33024513
0.3321216
0.33381972
0.33541417
0.33694453
0.33842854
0.33987387
0.34128099
0.34265144
0.34398308
0.34527807
0.34652873
0.34773896
0.34889739
0.34998897
0.35099992
0.35192517
0.35276033
0.35348633
0.35409108
0.35455861
0.35487698
0.35503596
0.3550283
0.35484889
0.35449531
0.3539673
0.35326676
0.35239721
0.35136362
0.35017158
0.34882721
0.34733707
0.34570907
0.34395214
0.34207474
0.34008156
0.33797906
0.33578204
0.33351966
0.33123552
0.32896622
0.3267431
0.32456166
0.32243598
0.32034857
0.31832408
0.31641579
0.31462246
0.31306604
0.31154317
0.31017339
0.308907
0.30756036
0.30669753
0.30571443
0.045209
0.045854366
0.046538747
0.047279674
0.048106606
0.049072955
0.050285466
0.051982632
0.054773258
0.060023514
0.068737997
0.079560315
0.090501643
0.10046417
0.10948737
0.1180859
0.1267549
0.13577694
0.1452099
0.15496155
0.16490702
0.17497711
0.18520657
0.19570794
0.20662365
0.21804943
0.22997531
0.24226094
0.25464667
0.26678863
0.27831393
0.28888335
0.29824066
0.30624159
0.31286163
0.31818583
0.32238448
0.32567878
0.32830298
0.33047051
0.33235119
0.33406322
0.33567802
0.33723336
0.33874602
0.34022308
0.34166476
0.34307186
0.34444198
0.34577652
0.34706683
0.34831601
0.34951126
0.35063754
0.35167843
0.35262833
0.35348217
0.35421999
0.35482934
0.35529425
0.35560323
0.3557468
0.35571844
0.35551396
0.35513189
0.35457293
0.35383981
0.35293678
0.35186934
0.35064349
0.34926567
0.34774266
0.34608244
0.34429371
0.34238467
0.34036
0.33822686
0.33600129
0.33371351
0.33140736
0.3291187
0.32687792
0.3246797
0.3225382
0.32043652
0.31840058
0.31648413
0.31468463
0.31312254
0.31159211
0.31021558
0.3089425
0.30759078
0.30672594
0.30573638
0.044688445
0.045290982
0.045909996
0.046551215
0.047222859
0.047937201
0.048713538
0.049584284
0.050608279
0.051903344
0.053733386
0.056772478
0.062523777
0.071920325
0.082995282
0.093592394
0.102982
0.11153219
0.11985262
0.12837881
0.13728793
0.14655543
0.15607308
0.16575398
0.17559715
0.18569886
0.19619531
0.20721821
0.21882142
0.2309389
0.24337876
0.25584591
0.26798151
0.27942091
0.2898484
0.2990376
0.3068719
0.31334688
0.31855837
0.32267914
0.32592705
0.32853002
0.33069465
0.33258492
0.33431485
0.33595326
0.3375365
0.33908058
0.34059199
0.34207081
0.34351686
0.34492756
0.34630333
0.3476346
0.34892345
0.35015572
0.35131633
0.35238607
0.353359
0.35422934
0.35497638
0.35558746
0.35604676
0.35634343
0.35646881
0.3564172
0.3561854
0.35577295
0.35518148
0.35441457
0.35347714
0.35237516
0.35111499
0.34970336
0.34814723
0.34645457
0.34463384
0.34269294
0.34063664
0.33847287
0.33621889
0.33390593
0.33157795
0.32927008
0.32701171
0.32479678
0.32263955
0.32052378
0.31847658
0.31655213
0.31474654
0.31317874
0.31164071
0.31025745
0.30897773
0.30762102
0.30675422
0.30575818
0.042847428
0.043432515
0.044019594
0.044610893
0.04520889
0.04581651
0.046437382
0.0470762
0.047739335
0.048435859
0.04917928
0.049990827
0.050906185
0.051990254
0.053373247
0.055347369
0.05865714
0.064937129
0.074959908
0.086103247
0.096231356
0.1050627
0.11322708
0.12134592
0.12975391
0.13852669
0.14759457
0.1568668
0.16631307
0.17599875
0.18606111
0.19663547
0.20782547
0.21963463
0.23194223
0.24451359
0.25702757
0.26912242
0.28044996
0.29072218
0.29974268
0.30741977
0.31376514
0.31888144
0.32294091
0.3261563
0.3287487
0.33091815
0.33282362
0.33457572
0.33624129
0.33785564
0.33943421
0.34098285
0.34250156
0.34398904
0.34544249
0.34686118
0.34823467
0.34956378
0.35083312
0.3520274
0.35312461
0.35411862
0.35500293
0.3557563
0.35636594
0.35681641
0.35709768
0.35720195
0.35712445
0.35686304
0.3564183
0.3557928
0.35499091
0.35401816
0.35288096
0.35158599
0.35014019
0.34855071
0.3468254
0.34497245
0.34299948
0.34091144
0.33871705
0.33643482
0.33409691
0.33174731
0.32942035
0.32714447
0.32491289
0.32274005
0.32061035
0.31855211
0.31661982
0.31480817
0.31323464
0.31168896
0.310299
0.3090127
0.30765107
0.30678235
0.30577982
0.03942264
0.040073798
0.040708735
0.041330687
0.041942616
0.042547227
0.043147019
0.043744372
0.044341567
0.044940931
0.045544997
0.046156535
0.046778776
0.047415711
0.048072491
0.048756104
0.049476499
0.0502485
0.051095438
0.052056597
0.053203563
0.05468023
0.056809823
0.060411361
0.067237488
0.077795324
0.088824157
0.098410558
0.10673815
0.11460692
0.12257467
0.13086005
0.13946538
0.14831355
0.15735537
0.16662299
0.17623475
0.18634416
0.19706557
0.20846317
0.22048723
0.23296865
0.24563859
0.25816138
0.27018283
0.28137752
0.29148738
0.30034455
0.30787867
0.31411322
0.31915388
0.32316969
0.32636697
0.32895969
0.33114194
0.33306845
0.33484729
0.33654393
0.33819293
0.33980934
0.34139832
0.34295988
0.34449138
0.34598984
0.3474531
0.34886997
0.35023975
0.35154594
0.35277293
0.35389586
0.35490862
0.355804
0.35656047
0.35716523
0.35760341
0.35786603
0.35794613
0.35784002
0.35754669
0.35706773
0.35640668
0.35556863
0.35455968
0.35338661
0.35205635
0.35057609
0.34895301
0.34719485
0.34530945
0.34330422
0.34118433
0.33895938
0.33664908
0.33428644
0.33191542
0.32956951
0.32727619
0.32502802
0.32283969
0.32069623
0.31862715
0.31668718
0.31486952
0.31329022
0.31173685
0.31034022
0.30904742
0.30768093
0.30681035
0.0023555797
0.0040885096
0.005973862
0.0080231209
0.010248186
0.012653033
0.015222392
0.017905906
0.020605295
0.023191216
0.02554912
0.027620702
0.029408308
0.030949063
0.032289391
0.033471931
0.034531291
0.03549398
0.036380323
0.037206107
0.037983303
0.038721174
0.039427188
0.040107293
0.040766431
0.041408786
0.042037937
0.04265708
0.043269091
0.043876607
0.044482129
0.045088062
0.045696874
0.046311264
0.046934208
0.047569203
0.048220586
0.04889398
0.049597031
0.050340638
0.051141067
0.052023956
0.053032544
0.054245768
0.055822494
0.05811954
0.062032964
0.069410089
0.080378976
0.091128902
0.10014831
0.10805145
0.11569913
0.12353493
0.13167591
0.14009001
0.1487206
0.15757365
0.16673707
0.17636151
0.18659324
0.19751271
0.20913802
0.22136848
0.23399482
0.24672368
0.25921693
0.27113611
0.28218304
0.29212991
0.30083473
0.30824428
0.31438947
0.31937553
0.32336607
0.32655996
0.32916414
0.33136738
0.33332111
0.33513161
0.33686355
0.33855109
0.34020898
0.34184166
0.34344918
0.34502739
0.3465731
0.34808251
0.34954377
0.35095435
0.35229687
0.35355519
0.35470166
0.35573046
0.35663361
0.3573896
0.35798569
0.35840794
0.35864843
0.3587012
0.35856372
0.3582361
0.35772102
0.3570229
0.35614755
0.35510153
0.35389195
0.35252598
0.35101093
0.34935403
0.34756281
0.34564475
0.34360709
0.34145526
0.33919981
0.33686163
0.33447451
0.33208226
0.32971753
0.32740686
0.32514218
0.32293847
0.32078144
0.31870173
0.31675421
0.31493059
0.31334547
0.31178438
0.31038111
0.30908187
0.3077106
0.3068382
0.00077682931
0.0023991336
0.0041633537
0.0060820845
0.0081668555
0.010429578
0.012874032
0.015484327
0.018208833
0.020947375
0.023568668
0.025956828
0.028053057
0.029859975
0.031415492
0.032767021
0.033958156
0.035024305
0.035992585
0.036883766
0.037713947
0.03849531
0.039237261
0.039947365
0.040631638
0.041295077
0.041941913
0.042575772
0.043199906
0.043817255
0.044430531
0.045042333
0.045655181
0.04627169
0.046894742
0.047527547
0.048173902
0.048838539
0.049527612
0.050249499
0.051016161
0.05184546
0.052765586
0.053824149
0.055108185
0.056792959
0.059271479
0.063517561
0.071437302
0.082668115
0.093002444
0.10147415
0.10903717
0.11651123
0.12420913
0.13218455
0.14040091
0.14884179
0.15756955
0.16671218
0.17642907
0.18684165
0.19799035
0.20984424
0.22225794
0.23499047
0.24773589
0.26016366
0.27195736
0.28284843
0.29263813
0.3012068
0.30851379
0.3145933
0.319547
0.3235312
0.32673671
0.3293637
0.33159643
0.33358387
0.33543131
0.33720318
0.33893347
0.34063678
0.34231676
0.34397342
0.34560104
0.34719618
0.34875316
0.35025958
0.3517108
0.3530887
0.35437651
0.35554389
0.35658553
0.35749272
0.35824427
0.35882763
0.35923005
0.3594448
0.35946696
0.35929526
0.358931
0.3583779
0.35764124
0.35672746
0.35564354
0.35439685
0.35299474
0.35144463
0.3497537
0.3479292
0.34597827
0.343908
0.34172418
0.33943832
0.33707246
0.3346611
0.33224784
0.32986441
0.32753646
0.32525535
0.32303638
0.32086597
0.31877582
0.31682091
0.31499136
0.31340039
0.31183153
0.31042166
0.30911606
0.30774008
0.3068659
0.0007882435
0.0024337932
0.0042226101
0.0061673043
0.0082793781
0.010570678
0.013044745
0.015685098