/*--------------------------------*- C++ -*----------------------------------*\
| =========                 |                                                 |
| \\      /  F ield         | OpenFOAM: The Open Source CFD Toolbox           |
|  \\    /   O peration     | Version:  2506                                  |
|   \\  /    A nd           | Website:  www.openfoam.com                      |
|    \\/     M anipulation  |                                                 |
\*---------------------------------------------------------------------------*/
FoamFile
{
    version     2.0;
    format      ascii;
    arch        "LSB;label=32;scalar=64";
    class       volScalarField;
    location    "0.025";
    object      omega;
}
// * * * * * * * * * * * * * * * * * * * * * * * * * * * * * * * * * * * * * //

dimensions      [0 0 -1 0 0 0 0];

internalField   nonuniform List<scalar> 
13761
(
9537.1118
9536.9242
9535.6545
9535.7844
9533.982
9528.9221
9523.4936
9518.1931
9511.3022
9504.4951
9498.8586
9494.773
9491.0059
9487.9535
9488.0716
9492.2205
9506.6487
9539.9799
9621.8396
9724.8557
9719.3175
9611.5916
9407.8344
9340.5757
9361.2809
9417.5107
9462.1239
9476.013
9481.1813
9487.6598
9498.0438
9510.7744
9521.4627
9529.6617
9539.5752
9554.0196
9570.863
9586.3104
9599.7609
9612.8356
9626.9545
9642.0445
9656.8712
9668.5403
9677.61
9687.9536
9702.4788
9722.4733
9747.2934
9774.4555
9801.8168
9828.2518
9852.7362
9875.3024
9897.4461
9920.273
9943.7742
9967.1629
9989.7862
10011.203
10033.301
10055.347
10093.563
10678.942
13777.53
19227.778
25186.739
31037.183
36709.378
42260.926
47763.966
53298.464
58948.09
64802.014
70947.839
77477.628
84494.466
92118.543
100484.68
109751.16
120102.58
131763.91
145004.96
160158.33
177635.25
197953.79
221773.84
249963.61
283656.76
324394.61
374349.21
436690.87
516154.92
619959.41
758953.87
949760.07
1218763.1
1608232.4
2186690.7
3077847.6
4587610.7
7726573.9
16368826
50292491
3.0087229e+08
9537.3174
9537.2804
9535.9714
9536.0159
9534.2778
9529.3179
9523.9126
9518.6441
9511.7937
9505.0121
9499.3679
9495.2317
9491.4527
9488.3404
9488.3416
9492.1547
9505.9126
9537.7167
9616.4546
9722.1896
9720.5919
9624.1836
9423.7667
9342.7016
9359.6744
9412.6467
9460.4513
9476.8064
9482.5276
9488.8707
9499.0745
9512.1491
9523.6057
9532.4055
9542.6277
9557.222
9574.2877
9590.165
9604.298
9618.239
9633.2347
9649.3413
9665.3428
9677.9399
9687.5864
9698.3824
9713.3591
9734.0058
9759.6638
9787.6965
9815.9795
9843.3612
9868.7155
9892.111
9915.1177
9938.8324
9963.1169
9987.4478
10011.121
10033.742
10055.749
10078.463
10158.065
11048.469
14860.721
20788.078
26921.422
32920.125
38777.043
44547.176
50309.189
56142.354
62134.975
68382.3
74984.266
82047.482
89689.112
98040.76
107253.58
117505.67
129008.61
142018.41
156846.97
173877.77
193591.84
216594.15
243662.48
275817.8
314396.91
361179.23
418588.21
489937.29
579779.98
694696.67
844154.12
1042007.5
1309440.2
1680278.2
2213097.1
3030110.2
4458777.2
7562451.4
16256403
50321002
3.0144815e+08
9537.4854
9536.2419
9536.1629
9534.4807
9529.6288
9524.2521
9519.0059
9512.208
9505.4426
9499.7727
9495.5757
9491.8025
9488.6464
9488.5018
9491.9812
9504.9672
9535.1114
9610.3922
9718.3456
9721.8564
9637.3119
9442.2572
9345.599
9358.6366
9407.0757
9457.3483
9477.1423
9483.7324
9489.9318
9499.8462
9513.2087
9525.4541
9534.8765
9545.309
9559.9176
9577.1859
9593.549
9608.3567
9623.0839
9638.8656
9655.8999
9673.1099
9686.855
9697.2236
9708.3432
9723.3749
9744.1429
9770.1928
9798.8654
9827.9827
9856.3409
9882.7022
9907.0298
9930.8702
9955.2363
9980.1017
10005.163
10029.974
10054.063
10078.039
10103.477
10173.162
11034.387
14912.839
20903.473
27067.827
33133.33
39094.966
44971.833
50852.376
56809.618
62937.208
69328.903
76087.638
83323.179
91151.322
99702.225
109126.41
119601.01
131336.91
144588.39
159664.6
176943.16
196893.98
220099.93
247299.41
279450.6
317801.94
364020.84
420419.03
490264.91
578260.37
691006.63
838079.06
1033609
1299584.8
1670845.3
2206318.1
3026366.3
4457687
7562139
16242760
50242539
3.0091738e+08
9537.7932
9536.7389
9536.4492
9534.7928
9530.0549
9524.723
9519.4803
9512.7491
9505.9947
9500.2784
9496.0167
9492.2738
9489.1444
9488.8119
9491.968
9504.248
9532.8733
9604.7541
9714.1264
9723.1236
9649.2648
9461.5451
9349.7737
9358.4371
9401.9409
9454.1766
9477.3038
9485.1811
9491.354
9501.0084
9514.509
9527.4875
9537.5753
9548.259
9562.9142
9580.4208
9597.2911
9612.7473
9628.2212
9644.7984
9662.7345
9681.1195
9696.119
9707.4137
9719.0469
9734.2493
9755.1637
9781.6099
9810.959
9840.9743
9870.3823
9897.8663
9923.3029
9948.1479
9973.4407
9999.1966
10025.325
10051.569
10077.171
10101.496
10125.22
10191.119
10947.446
14619.719
20636.569
26867.925
33029.699
39080.967
45050.841
51037.944
57104.746
63358.121
69895.027
76811.074
84209.327
92205.08
100927.93
110527.89
121181.51
133098.23
146531.15
161789.48
179254.23
199404.03
222838.52
250321.62
282840.9
321663.25
368442.64
425401.69
495581.56
583241.74
694539.37
838618.39
1029500.5
1288816.4
1651304.9
2176570.3
2987082.2
4413338.9
7520514
16207842
50197437
3.0071135e+08
9538.2319
9537.1891
9536.6962
9535.0664
9530.4269
9525.1426
9519.8979
9513.2336
9506.4884
9500.7301
9496.4092
9492.7094
9489.6182
9489.0918
9491.9665
9503.5463
9530.7165
9599.1474
9709.1197
9724.3564
9660.3203
9481.5947
9355.1542
9358.5679
9396.9437
9450.173
9477.3197
9486.5929
9492.7862
9502.1904
9515.7815
9529.4502
9540.2281
9551.1846
9565.8967
9583.6661
9601.0774
9617.1776
9633.3499
9650.717
9669.5329
9689.0477
9705.3935
9717.8067
9730.0884
9745.4864
9766.4668
9793.215
9823.2103
9854.1562
9884.6675
9913.3356
9939.9507
9965.8647
9992.0864
10018.757
10046.057
10074.076
10102.071
10129.385
10155.472
10210.036
10853.355
14318.176
20318.804
26577.585
32810.219
38960.389
45053.207
51115.106
57292.359
63665.959
70330.788
77381.865
84923.574
93070.123
101950.25
111713.74
122535.57
134621.69
148219.64
163630.09
181220.93
201452.55
224900.5
252302.09
284621.45
323118.17
369471.08
425978.12
495814.53
583421.09
695110.28
840018.01
1031852.4
1291949.2
1654498.1
2178349.5
2985493.4
4407254.6
7510594.2
16193475
50163990
3.005307e+08
9538.7094
9537.5572
9536.9591
9535.3541
9530.7805
9525.5412
9520.2991
9513.6973
9506.9582
9501.1663
9496.7981
9493.1557
9490.1095
9489.3928
9491.986
9502.9124
9528.6967
9593.6666
9703.5111
9725.5214
9670.4211
9501.9855
9362.2226
9359.2018
9392.3545
9445.6632
9477.1885
9487.9165
9494.2634
9503.4692
9517.0812
9531.3773
9542.8673
9554.1414
9568.9348
9586.987
9604.9683
9621.7141
9638.5404
9656.6893
9676.3898
9696.9933
9714.743
9728.4528
9741.5423
9757.2239
9778.2542
9805.2264
9835.8147
9867.6902
9899.3418
9929.2514
9957.1112
9984.1452
10011.335
10038.953
10067.394
10096.989
10126.926
10155.72
10182.658
10230.982
10744.152
13860.352
19776.577
26069.481
32370.143
38601.858
44778.969
50971.218
57261.631
63742.643
70523.571
77696.537
85370.643
93658.743
102687.7
112605.13
123585.92
135837.83
149610.05
165206.17
182998.49
203451
227140.62
254800.63
287380.94
326108.02
372599.77
429062.51
498553.1
585388.11
695809.03
839026.39
1028805
1286431.1
1646107.7
2166752.5
2970704.9
4390424.6
7494054.2
16177252
50135432
3.0038542e+08
9538.9125
9537.8279
9537.2532
9535.655
9531.1071
9525.9045
9520.6815
9514.1355
9507.3989
9501.5859
9497.1847
9493.6023
9490.605
9489.6937
9492.0345
9502.3312
9526.7933
9588.2974
9697.3138
9726.4993
9679.5989
9522.4031
9371.2704
9360.0735
9388.3572
9440.7226
9476.5328
9488.9923
9495.7193
9504.7978
9518.3907
9533.2411
9545.4493
9557.0897
9571.9928
9590.3373
9608.9098
9626.3125
9643.7631
9662.6756
9683.2751
9704.9374
9724.1267
9739.2991
9753.354
9769.406
9790.4745
9817.5911
9848.705
9881.4925
9914.3186
9945.5208
9974.6529
10002.828
10030.978
10059.543
10089.209
10120.559
10152.786
10184.297
10213.084
10254.612
10656.562
13417.575
19207.662
25527.107
31892.159
38210.701
44482.179
50766.887
57153.84
63740.572
70613.711
77892.823
85684.15
94095.985
103256.47
113312.42
124434.44
136825.36
150732.16
166457.52
184370.36
204929.72
228709.72
256445.14
289093.68
327897.61
374497.63
431123.3
500846.85
587977.45
698695.34
842044.47
1031596.4
1288506.2
1646910
2165763.5
2967556.9
4385164.5
7487280
16168544
50116669
3.0028557e+08
9538.1133
9537.6244
9535.9729
9531.4144
9526.2386
9521.055
9514.5575
9507.8191
9502.0005
9497.5767
9494.0502
9491.0959
9489.995
9492.1138
9501.7968
9524.9979
9583.0639
9690.603
9727.1392
9687.8611
9542.5206
9382.3822
9361.208
9385.0696
9435.5344
9475.0965
9489.7218
9497.1381
9506.1689
9519.7074
9535.0305
9547.9573
9560.0224
9575.0684
9593.7064
9612.8827
9630.9536
9649.0056
9668.6454
9690.1567
9712.8714
9733.5226
9750.2965
9765.4764
9782.0156
9803.156
9830.3573
9861.9058
9895.5477
9929.5609
9962.1259
9992.591
10021.914
10051.01
10080.441
10111.142
10143.921
10178.081
10211.643
10242.478
10280.545
10583.263
12941.188
18528.183
24875.523
31299.337
37700.368
44063.163
50440.562
56918.605
63595.662
70573.559
77952.242
85853.896
94381.306
103668.14
113861.99
125133.89
137687.42
151768.15
167672.19
185762.59
206496.89
230448.05
258345.75
291136.14
330043.93
376685.09
433255.22
502793.68
589587.25
699808.04
842514.03
1031321
1287403.3
1644787.2
2162306
2962487.3
4378707.5
7480303.4
16161009
50102360
3.0021395e+08
9538.5525
9538.0785
9536.3022
9531.7155
9526.5545
9521.4348
9514.9765
9508.2343
9502.4185
9497.9817
9494.4992
9491.5733
9490.2936
9492.2051
9501.3009
9523.2968
9577.9824
9683.4397
9727.402
9695.2344
9562.0799
9395.5341
9362.7445
9382.6303
9430.2701
9472.8887
9490.1056
9498.5206
9507.5769
9521.0391
9536.7534
9550.3902
9562.934
9578.1563
9597.0819
9616.8619
9635.6085
9654.252
9674.5762
9696.9886
9720.7556
9742.889
9761.3896
9777.8613
9795.0192
9816.2806
9843.5182
9875.4066
9909.8336
9945.0368
9979.0285
10010.893
10041.383
10071.404
10101.671
10133.392
10167.604
10203.653
10239.553
10272.432
10308.168
10533.092
12499.249
17813.409
24176.447
30649.263
37127.016
43577.366
50044.006
56611.375
63380.706
70457.794
77946.351
85936.558
94579.635
103999.85
114336.14
125751.91
138445.21
152657.71
168685.41
186893.4
207740.83
231801.62
259805.85
292700.75
331708.68
378445.05
435113.61
504760.99
591670.92
701999.82
844764.61
1033482.2
1289251.5
1646062.4
2162733.4
2961868.3
4376995.1
7477626.8
16157028
50092913
3.00165e+08
9539.0253
9538.5478
9536.6449
9532.025
9526.8684
9521.8311
9515.4115
9508.659
9502.8531
9498.4006
9494.9533
9492.0419
9490.5858
9492.3049
9500.8384
9521.6816
9573.0812
9675.8946
9727.4376
9701.7329
9580.8539
9410.6414
9364.8147
9381.1555
9425.0829
9469.9308
9490.2356
9499.8783
9509.0299
9522.4033
9538.4278
9552.7583
9565.8313
9581.2657
9600.4756
9620.857
9640.2833
9659.5099
9680.4664
9703.7419
9728.5563
9752.1859
9772.5083
9790.4377
9808.3793
9829.8552
9857.1073
9889.2335
9924.3382
9960.6959
9996.1783
10029.552
10061.272
10092.22
10123.265
10155.824
10191.137
10228.733
10266.556
10301.732
10336.854
10499.484
12082.154
17050.68
23415.664
29931.38
36483.725
43020.817
49573.928
56222.727
63068.945
70221.914
77791.226
85887.033
94621.879
104149.06
114610.4
126169
139022.52
153409.66
169619.96
188013.23
209040.29
233264.09
261405.3
294404.41
333480.4
380245.63
436900.18
506475.81
593239.6
703350.67
845837.84
1034291.4
1289797.3
1646348.7
2162783.7
2961685.4
4376456.2
7476415.3
16154470
50085726
3.0012876e+08
9539.2282
9538.9306
9537.0233
9532.3563
9527.1951
9522.248
9515.8703
9509.1124
9503.3088
9498.8396
9495.4148
9492.5092
9490.8777
9492.4199
9500.4003
9520.1452
9568.3823
9668.0435
9727.2804
9707.346
9598.6878
9427.5753
9367.5702
9380.552
9420.0728
9466.2503
9490.2482
9501.2016
9510.5363
9523.825
9540.0853
9555.0845
9568.7292
9584.4164
9603.9128
9624.8867
9644.9896
9664.7916
9686.3291
9710.4009
9736.2311
9761.3602
9783.5832
9803.139
9822.0476
9843.8453
9871.1004
9903.3655
9939.0322
9976.4863
10013.502
10048.499
10081.567
10113.505
10145.353
10178.725
10215.02
10253.946
10293.62
10330.955
10366.365
10484.64
11723.904
16277.296
22617.376
29165.668
35786.275
42407.561
49046.991
55778.387
62703.865
69937.183
77594.034
85788.64
94632.44
104237.23
114783.3
126454.7
139444.48
153981.53
170350.47
188910.91
210110.87
234511.76
262831.53
296005.73
335244.96
382143.15
438898.65
508558.81
595403.17
705559.91
848025.08
1036331.8
1291575.5
1647783.8
2163854.1
2962421.1
4376799.1
7476153.2
16153330
50082342
3.0011493e+08
9539.224
9537.4701
9532.7193
9527.5455
9522.6849
9516.3587
9509.6071
9503.7935
9499.3015
9495.89
9492.9837
9491.1798
9492.5493
9499.9904
9518.6809
9563.9127
9659.9794
9726.6397
9712.0136
9615.469
9446.1259
9371.1999
9380.4565
9415.3128
9461.9243
9489.9997
9502.4162
9512.1006
9525.3382
9541.7671
9557.4003
9571.648
9587.6306
9607.4214
9628.9825
9649.7668
9670.137
9692.1992
9716.9808
9743.7735
9770.3859
9794.5576
9815.8922
9835.9666
9858.2256
9885.5015
9917.8123
9953.9012
9992.3494
10030.912
10067.666
10102.255
10135.312
10168.007
10202.112
10239.142
10279.053
10320.092
10359.575
10396.241
10481.233
11417.599
15494.839
21774.719
28349.821
35034.883
41738.742
48462.537
55271.42
62265.288
69560.254
77277.556
85540.193
94473.331
104204.68
114861.4
126638.62
139738.33
154403.86
170926.67
189653.12
211024.67
235597.63
264085.76
297422.58
336825.49
383916.58
440880.08
510740.2
597755.05
708052.04
850623.51
1038996.3
1294259
1650446.8
2166491
2965017.6
4379111.1
7477640.3
16153573
50080707
3.0010843e+08
9539.5296
9537.9927
9533.12
9527.9226
9523.131
9516.8749
9510.1505
9504.3142
9499.7855
9496.3882
9493.4748
9491.5045
9492.7017
9499.6091
9517.2892
9559.6854
9651.7813
9725.3944
9715.7026
9631.1263
9466.0246
9375.9752
9380.7653
9410.8944
9457.0921
9488.9873
9503.4011
9513.7244
9526.9745
9543.5099
9559.7277
9574.5975
9590.925
9611.0276
9633.1722
9654.6519
9675.5903
9698.1207
9723.5064
9751.1735
9779.2232
9805.3747
9828.6368
9850.0762
9872.9398
9900.2686
9932.5489
9968.9247
10008.239
10048.308
10086.909
10123.207
10157.593
10191.293
10226.2
10263.913
10304.615
10346.942
10388.286
10426.45
10494.105
11178.304
14735.429
20901.433
27495.097
34237.738
41022.129
47831.879
54721.529
61787.126
69145.966
76923.874
85250.488
94258.669
104084.54
114868.07
126754.69
139971.73
154768.14
171431.4
190314.39
211860.99
236628.19
265329.88
298897.45
338538.78
385854.26
443027.42
513080.34
600267.79
710713.57
853406.63
1041873.2
1297209.1
1653471.9
2169629.7
2968278.8
4382219.6
7479986.5
16154843
50081322
3.0011359e+08
9539.9866
9538.5407
9533.5751
9528.3232
9523.5731
9517.4043
9510.7435
9504.8696
9500.2994
9496.9069
9493.992
9491.8612
9492.8911
9499.2595
9515.9782
9555.709
9643.5461
9723.508
9718.5096
9645.5951
9486.9187
9382.2726
9381.8155
9406.9769
9451.9532
9487.2276
9504.059
9515.4019
9528.7544
9545.3434
9562.0881
9577.589
9594.3111
9614.7434
9637.4717
9659.6785
9681.1978
9704.1403
9730.0182
9758.4563
9787.8651
9815.9957
9841.3152
9864.3214
9887.9647
9915.4173
9947.6093
9984.1235
10024.137
10065.62
10106.115
10144.303
10180.264
10215.174
10250.968
10289.311
10330.589
10373.731
10416.788
10456.967
10511.87
10995.9
14009.509
19995.504
26602.585
33396.219
40257.983
47152.54
54121.506
61254.828
68669.049
76492.904
84861.502
93915.14
103799.99
114671.29
126696.48
140052.45
154991.31
171811.42
190870.17
212610.5
237587.1
266510.82
300310.51
340191.29
387750.28
445168.65
515465.46
602892.77
713571.89
856490.91
1045179.2
1300746.5
1657285.4
2173815.2
2972887.3
4386878.4
7483779.1
16157256
50083338
3.0012563e+08
9540.4871
9539.0251
9534.1101
9528.7441
9524.0025
9517.9363
9511.3659
9505.4595
9500.8383
9497.4466
9494.5373
9492.2577
9493.1262
9498.9614
9514.7499
9551.99
9635.3604
9720.854
9720.7114
9658.7964
9508.3974
9390.5326
9383.178
9403.7498
9446.7265
9484.9013
9504.3896
9517.1227
9530.6758
9547.2821
9564.4879
9580.615
9597.7785
9618.5596
9641.8719
9664.8484
9686.9864
9710.3082
9736.5683
9765.6485
9796.2957
9826.3712
9853.8686
9878.6418
9903.2485
9930.9179
9962.9954
9999.5256
10040.07
10082.815
10125.155
10165.344
10203.123
10239.518
10276.406
10315.476
10357.332
10401.386
10445.883
10487.946
10536.982
10871.618
13345.079
19068.901
25680.72
32516.682
39452.63
46433.494
53485.898
60691.584
68164.58
76035.399
84444.057
93537.847
103470.97
114406.92
126522.28
140010.02
155083.34
172043.49
191269.05
213201.5
238392.54
267550.29
301600.72
341746.82
389582.53
447284.23
517868.17
605583.62
716550.34
859756.59
1048736.9
1304616.2
1661520.2
2178510.1
2978072.6
4392139.6
7488165.2
16160357
50086813
3.0014635e+08
9540.7148
9539.4242
9534.7299
9529.1775
9524.418
9518.4571
9511.9999
9506.068
9501.3964
9497.9993
9495.1044
9492.7015
9493.4069
9498.7289
9513.6172
9548.5242
9627.3089
9717.2545
9722.6687
9670.6411
9530.0149
9401.0126
9384.6563
9401.3451
9441.6318
9482.0813
9504.4942
9518.8615
9532.7091
9549.3221
9566.924
9583.6643
9601.3067
9622.4525
9646.3504
9670.1481
9692.965
9716.6605
9743.2096
9772.801
9804.5356
9836.4685
9866.222
9892.9624
9918.7562
9946.7896
9978.7632
10015.202
10056.104
10099.932
10144.01
10186.243
10226.03
10264.161
10302.337
10342.217
10384.586
10429.189
10475.064
10519.512
10565.649
10792.666
12753.673
18127.101
24732.196
31601.304
38606.333
45672.061
52808.418
60086.901
67616.911
75528.545
83964.614
93077.72
103029.47
113992.82
126156.26
139728.39
154945.83
172078.2
191467.14
213586.47
238990.94
268389.27
302706.21
343142.04
391288.47
449320.34
520251.08
608328.35
719671.23
863270.03
1052666.6
1309005.5
1666453.1
2184123.2
2984424.6
4398732.1
7493787.2
16164401
50091295
3.001705e+08
9539.8417
9535.3734
9529.6219
9524.8229
9518.9594
9512.624
9506.6842
9501.9621
9498.551
9495.684
9493.1845
9493.7362
9498.5751
9512.5894
9545.301
9619.4707
9712.6322
9724.5242
9681.1584
9551.3442
9413.7667
9386.3318
9399.8268
9436.8184
9478.8045
9504.5071
9520.5385
9534.7967
9551.4492
9569.3878
9586.7173
9604.8647
9626.39
9650.8679
9675.5249
9699.1017
9723.2145
9749.9903
9779.9597
9812.6061
9846.2627
9878.3041
9907.1972
9934.4133
9962.9841
9994.9055
10031.197
10072.323
10117.037
10162.672
10206.898
10248.812
10288.913
10328.615
10369.46
10412.446
10457.839
10504.86
10551.334
10597.211
10752.724
12253.258
17187.107
23764.07
30656.859
37726.058
44876.677
52100.624
59457.507
67050.393
75007.498
83473.026
92603.903
102568.1
113546.71
125737.19
139357.98
154657.09
171921.38
191486.86
213777.13
239375.35
269005.25
303591.13
344330.15
392810.57
451204.29
522522.35
611011.48
722790.89
866854.81
1056753.1
1313649.7
1671744.7
2190187
2991281
4405832.2
7499899.7
16168976
50096861
3.0020062e+08
9540.4183
9535.935
9530.0913
9525.23
9519.4432
9513.2213
9507.295
9502.5221
9499.0976
9496.2624
9493.6947
9494.1168
9498.5027
9511.662
9542.3174
9611.915
9707.0391
9726.1724
9690.4301
9572.0086
9428.7202
9388.3803
9399.1342
9432.3642
9475.1273
9504.304
9522.0106
9536.877
9553.6468
9571.8709
9589.7563
9608.4182
9630.3329
9655.3834
9680.924
9705.3515
9729.9657
9756.9465
9787.1868
9820.5749
9855.7739
9890.0517
9921.2471
9950.1511
9979.4884
10011.451
10047.566
10088.8
10134.219
10181.224
10227.351
10271.448
10313.676
10355.083
10396.992
10440.52
10486.305
10534.433
10583.262
10630.19
10739.778
11846.58
16263.687
22778.829
29686.612
36813.465
44046.388
51358.499
58796.052
66454.13
74457.113
82948.467
92086.968
102044.79
113009.5
125187.27
138807.52
154131.74
171463.57
191160.9
213657.19
239479.78
269343.84
304200.98
345253.89
394091.99
452886.91
524647.54
613618.77
725920.7
870550.84
1061068
1318657.8
1677562
2196974.6
2999085.7
4414034.3
7506969.4
16174060
50102223
3.0023157e+08
9541.0195
9536.4004
9530.6155
9525.654
9519.9136
9513.7869
9507.8798
9503.0702
9499.6265
9496.8352
9494.2241
9494.5276
9498.4866
9510.8338
9539.5601
9604.6918
9700.6101
9727.4054
9698.5241
9591.7261
9445.6688
9391.0491
9398.9879
9428.2999
9471.1165
9503.4842
9523.1029
9538.8986
9555.8978
9574.3673
9592.7665
9611.9415
9634.2563
9659.8656
9686.2854
9711.6481
9736.8855
9764.0955
9794.5241
9828.4933
9865.03
9901.4266
9935.0232
9965.8722
9996.223
10028.364
10064.329
10105.599
10151.55
10199.706
10247.59
10293.875
10338.362
10381.674
10424.825
10469.024
10515.408
10564.271
10614.685
10663.446
10746.043
11535.898
15380.319
21782.722
28698.435
35876.859
43190.351
50593.076
58116.8
65847.438
73904.388
82429.21
91581.247
101535.54
112484.75
124642.31
138246.63
153569.47
170925.49
190684.9
213296.75
239308.2
269405.79
304507.49
345850.08
395039.78
454250.23
526489.97
616001.81
728903.32
874196.33
1065448
1323860.3
1683698.2
2204165.6
3007302.7
4422589
7514379.9
16179547
50108427
3.0026502e+08
9541.3174
9536.8584
9531.2196
9526.1103
9520.3826
9514.3237
9508.4381
9503.5963
9500.1408
9497.3989
9494.7748
9494.9555
9498.5055
9510.1134
9537.0162
9597.837
9693.5087
9728.0683
9705.4804
9610.2656
9464.2925
9394.6687
9399.1889
9424.7254
9466.8738
9502.0666
9523.7309
9540.8361
9558.1876
9576.881
9595.7482
9615.4198
9638.1382
9664.2891
9691.5677
9717.9355
9743.928
9771.4358
9802.0209
9836.4516
9874.1118
9912.4331
9948.4549
9981.4975
10013.154
10045.663
10081.53
10122.765
10169.094
10218.21
10267.708
10316.141
10362.952
10408.302
10452.834
10497.677
10544.267
10593.787
10645.871
10696.788
10764.789
11311.278
14557.08
20778.933
27696.555
34919.269
42309.531
49802.874
57415.585
65223.121
73338.529
81899.744
91064.443
101007.61
111923.73
124030.36
137572.91
152833.39
170140.21
189880.76
212524.43
238641.77
268945.3
304347.17
346019.03
395565.09
455201.7
527946.05
618046.67
731622.4
877675.96
1069784.1
1329166.5
1690117.3
2211858.4
3016272.8
4432095.9
7522655.3
16185506
50114479
3.0029812e+08
9537.4703
9531.8704
9526.627
9520.8624
9514.8415
9508.9747
9504.1031
9500.647
9497.9501
9495.3555
9495.3889
9498.5869
9509.4942
9534.6727
9591.368
9685.8951
9728.2537
9711.3293
9627.4821
9484.216
9399.6685
9400.2199
9421.8616
9462.5275
9500.0825
9523.9692
9542.6775
9560.4998
9579.4196
9598.7073
9618.8518
9641.976
9668.647
9696.7485
9724.1694
9751.0468
9778.9568
9809.7043
9844.505
9883.0864
9923.1067
9961.5074
9996.9339
10030.18
10063.296
10099.19
10140.368
10186.918
10236.781
10287.708
10338.215
10387.407
10434.96
10481.118
10526.892
10574.023
10623.809
10676.586
10729.52
10790.434
11162.092
13817.209
19776.373
26689.739
33949.983
41413.875
48999.08
56705.703
64598.005
72782.108
81391.989
90583.325
100530.44
111428.33
123496.46
136984.12
152179.59
169420.17
189104.64
211716.24
237841.98
268214.39
303771.02
345710.7
395606.05
455621.07
528820
619501.9
733794.64
880705.99
1073816.2
1334351.1
1696606.3
2219765.8
3025490.8
4441792.2
7531147.4
16191824
50121418
3.0033213e+08
9538.1634
9532.4572
9527.2329
9521.3701
9515.3492
9509.4954
9504.6034
9501.147
9498.5074
9495.9664
9495.8172
9498.7307
9508.9641
9532.5188
9585.2998
9677.9147
9728.2276
9716.0895
9643.276
9505.008
9406.5679
9401.8667
9419.9508
9458.2365
9497.4947
9524.0236
9544.394
9562.8054
9581.9925
9601.6658
9622.2547
9645.7779
9672.9411
9701.8306
9730.3333
9758.1974
9786.6273
9817.5979
9852.7296
9892.0552
9933.5234
9974.1825
10012.123
10047.254
10081.273
10117.362
10158.474
10205.11
10255.536
10307.721
10360.186
10411.729
10461.561
10509.517
10556.346
10603.817
10653.996
10707.695
10762.449
10820.235
11072.146
13176.361
18784.58
25684.185
32974.849
40508.081
48184.622
55987.793
63969.699
72228.686
80893.5
90116.005
100067.69
110941.47
122955.33
136358.49
151441.44
168547.42
188085.71
210555.42
236564.9
266873.35
302449.57
344527.4
394715.85
455188.36
528937.27
620213.19
735217.87
883007.24
1077175.4
1338960.5
1702679.7
2227509.4
3034899.3
4452033.6
7540230.4
16198290
50127211
3.0036186e+08
9538.5303
9532.9773
9527.9325
9521.9091
9515.863
9510.0061
9505.1032
9501.6551
9499.0753
9496.6073
9496.2448
9498.9285
9508.5161
9530.5378
9579.6304
9669.6834
9727.7576
9719.796
9657.617
9526.2569
9415.7989
9403.8675
9419.0091
9454.1428
9494.3259
9523.9446
9545.8935
9565.0728
9584.616
9604.6534
9625.6544
9649.5634
9677.1842
9706.8267
9736.4262
9765.3571
9794.4318
9825.7136
9861.1647
9901.092
9943.7806
9986.5329
10027.019
10064.273
10099.517
10136.054
10177.179
10223.796
10274.584
10327.819
10382.103
10435.974
10488.19
10538.174
10586.452
10634.787
10685.143
10738.949
10795.041
10852.376
11027.697
12647.186
17821.441
24691.482
32007.097
39606.64
47375.41
55279.69
63358.928
71704.297
80440.907
89718.064
99705.738
110595.92
122604.27
135974.11
150991.2
167997.23
187404.36
209719.31
235562.15
265706.89
301143.1
343133.44
393325.26
453940.91
528028.88
619859.29
735561.78
884201.99
1079476.8
1342656.2
1708040.3
2234715.8
3043831.2
4461771.2
7548860.8
16204295
50131866
3.0038512e+08
9533.5149
9528.6555
9522.4714
9516.3955
9510.5249
9505.6036
9502.1845
9499.6543
9497.27
9496.6763
9499.1627
9508.1465
9528.722
9574.3597
9661.3121
9726.5917
9722.5605
9670.5037
9547.5618
9427.5566
9406.2707
9418.76
9450.341
9490.6872
9523.3056
9547.0397
9567.2782
9587.3023
9607.7008
9629.0855
9653.3598
9681.3997
9711.77
9742.4743
9772.5183
9802.3504
9834.0591
9869.8579
9910.2846
9953.9895
9998.6343
10041.623
10081.198
10118.008
10155.285
10196.543
10243.091
10294.09
10348.189
10404.129
10460.247
10514.871
10567.004
10616.836
10665.961
10716.872
10771.297
10828.421
10886.189
11014.617
12230.924
16905.923
23721.509
31058.298
38721.352
46582.659
54591.603
62773.214
71209.982
80023.482
89358.619
99378.299
110272.88
122265.97
135591.08
150526.81
167408.1
186644.43
208749.24
234361.02
264252.61
299428.3
341177.03
391183.66
451717.79
525886.26
618027.93
734343.47
883889.72
1080263.8
1344796.9
1711890.8
2240639.8
3051871.4
4471098.4
7557432.4
16210257
50135855
3.0039867e+08
9534.2713
9529.265
9523.0565
9516.9504
9511.0644
9506.1163
9502.729
9500.257
9497.9337
9497.1306
9499.424
9507.8415
9527.0672
9569.4772
9652.8974
9724.6127
9724.6779
9681.9592
9568.559
9441.8761
9409.2278
9418.8487
9446.9336
9486.7586
9521.9511
9547.7346
9569.408
9590.0578
9610.8375
9632.5885
9657.207
9685.6215
9716.6868
9748.4945
9779.6906
9810.3907
9842.6465
9878.8315
9919.6914
9964.2644
10010.606
10055.977
10097.978
10136.663
10175.023
10216.633
10263.144
10314.222
10368.994
10426.433
10484.756
10541.879
10596.368
10648.145
10698.641
10749.959
10804.292
10862.007
10920.886
11020.806
11923.058
16062.827
22790.33
30148.269
37874.466
45830.604
53951.022
62246.034
70787.298
79698.323
89137.452
99266.628
110257.5
122301.5
135659.68
150615.36
167500.17
186709.02
208723.23
234131.1
263721.22
298503.42
339777.76
389248.64
449222.02
522864.66
614600.37
730745.08
880502.35
1077632.1
1343492.6
1712408.8
2243366.6
3057044.6
4478202.8
7564674.1
16215429
50138340
3.0040687e+08
9535.0458
9529.7665
9523.6845
9517.5343
9511.6187
9506.6558
9503.2846
9500.8767
9498.5987
9497.609
9499.7162
9507.5997
9525.5668
9564.9768
9644.5369
9721.602
9726.565
9692.003
9588.9031
9458.6272
9412.955
9419.7383
9444.0972
9482.7343
9520.0331
9548.0308
9571.4701
9592.886
9614.0912
9636.2023
9661.1404
9689.8829
9721.6109
9754.5164
9786.8977
9818.5662
9851.4937
9888.127
9929.389
9974.7153
10022.559
10070.154
10114.639
10155.477
10195.254
10237.469
10284.043
10335.158
10390.454
10449.219
10509.637
10569.265
10626.228
10680.078
10731.964
10784.275
10839.262
10897.426
10957.144
11042.209
11709.766
15312.983
21913.978
29298.622
37091.655
45147.537
53388.616
61813.509
70475.872
79478.609
88995.781
99174.324
110209
122305.42
135694.31
150661.89
167542.47
186735.28
208730.3
234129.72
263681.8
298358.95
339418.55
388524.14
447944.84
520824.39
611594.91
726636
875287.63
1071543.9
1337046.5
1706448.8
2238993.1
3055236.8
4479158.1
7567069.1
16216664
50134257
3.0038463e+08
9535.4345
9530.2313
9524.3728
9518.1595
9512.1891
9507.208
9503.8633
9501.4979
9499.2755
9498.103
9500.0534
9507.4198
9524.2125
9560.8411
9636.3034
9717.4445
9728.4113
9700.7518
9608.3256
9477.5183
9417.7661
9421.5577
9442.0541
9478.8138
9517.697
9548.1265
9573.4578
9595.7618
9617.4637
9639.9529
9665.1997
9694.2296
9726.5706
9760.5485
9794.1571
9826.9015
9860.6193
9897.758
9939.4155
9985.4309
10034.613
10084.251
10131.2
10174.401
10215.935
10259.074
10305.902
10357.065
10412.771
10472.712
10535.147
10597.342
10656.989
10713.321
10767.238
10820.593
10875.837
10934.341
10994.946
11072.701
11575.688
14671.826
21102.777
28520.927
36384.594
44543.29
52907.67
61472.547
70298.27
79469.073
89062.266
99289.719
110379.35
122530.03
135977.91
150999.21
167921.3
187138.07
209136.39
234519.41
264051.95
298722.09
339798.45
388946.89
448430.15
521369.97
612156.38
727090.69
875396.08
1070928.2
1335318.1
1703384.9
2234664.1
3050092.1
4473875.5
7561881.3
16210010
50117759
3.0029702e+08
9530.8509
9525.0688
9518.8423
9512.7869
9507.7658
9504.4499
9502.1305
9499.9525
9498.6278
9500.4193
9507.3055
9522.9924
9557.0344
9628.2439
9712.17
9730.1159
9708.3858
9626.6902
9498.1726
9424.1629
9423.9704
9440.9166
9475.1421
9515.04
9548.1404
9575.2865
9598.6239
9620.934
9643.8391
9669.3808
9698.6505
9731.5339
9766.5352
9801.407
9835.3286
9869.9476
9907.651
9949.7042
9996.3397
10046.688
10098.174
10147.544
10193.281
10236.855
10281.194
10328.464
10379.726
10435.729
10496.626
10560.862
10625.523
10687.907
10746.832
10802.855
10857.948
10914.382
10973.449
11034.683
11107.18
11482.532
14081.708
20265.98
27707.448
35631.984
43883.793
52356.983
61023.588
69928.403
79178.767
88926.418
99316.436
110516.5
122761.33
136301.28
151416.33
168434.54
187747.84
209838.63
235303.2
264898.6
299607.09
340700.09
389855.63
449348.97
522305.32
613088.61
727959.92
876128.18
1071449.6
1335495.3
1702957.7
2233302.3
3047535.2
4470046.5
7556926.5
16203266
50102481
3.0021692e+08
9531.584
9525.6539
9519.5854
9513.4198
9508.3385
9505.025
9502.7761
9500.6327
9499.183
9500.8105
9507.2541
9521.8917
9553.5319
9620.4053
9705.8833
9731.4242
9714.9736
9643.8843
9520.1256
9432.8084
9426.6014
9440.5579
9471.8535
9512.1695
9547.908
9576.815
9601.4053
9624.4639
9647.8376
9673.6692
9703.1384
9736.4736
9772.4191
9808.5841
9843.7921
9879.4198
9917.7367
9960.1814
10007.372
10058.722
10111.843
10163.532
10211.909
10257.784
10303.633
10351.587
10403.027
10459.219
10520.827
10586.611
10653.614
10718.802
10780.629
10839.295
10896.158
10953.466
11013.112
11075.051
11144.068
11419.412
13523.537
19353.976
26801.52
34777.218
43117.194
51707.678
60512.823
69569.26
78965.014
88823.44
99300.318
110572.7
122884.59
136494.49
151680.03
168771.71
188165.55
210347.69
235916.29
265626.54
300453.82
341655.51
390889.35
450411.81
523342.83
614072.54
728902.16