/*--------------------------------*- C++ -*----------------------------------*\
| =========                 |                                                 |
| \\      /  F ield         | OpenFOAM: The Open Source CFD Toolbox           |
|  \\    /   O peration     | Version:  2506                                  |
|   \\  /    A nd           | Website:  www.openfoam.com                      |
|    \\/     M anipulation  |                                                 |
\*---------------------------------------------------------------------------*/
FoamFile
{
    version     2.0;
    format      ascii;
    arch        "LSB;label=32;scalar=64";
    class       volVectorField;
    location    "0.0015";
    object      wallShearStress;
}
// * * * * * * * * * * * * * * * * * * * * * * * * * * * * * * * * * * * * * //

dimensions      [1 -1 -2 0 0 0 0];

internalField   uniform (0 0 0);

boundaryField
{
    Side
    {
        type            empty;
    }
    Inlet
    {
        type            calculated;
        value           uniform (0 0 0);
    }
    Airfoil
    {
        type            calculated;
        value           nonuniform List<vector> 
145
(
(-0.59917858 -19.638373 4.8512117e-17)
(-0.0047943777 -18.782463 -2.3971002e-37)
(0.53614825 -17.866534 -2.6750317e-24)
(1.0144777 -16.888666 3.7615819e-37)
(1.4281644 -15.871541 2.4371431e-17)
(1.7753276 -14.823874 -1.4866949e-21)
(2.0566194 -13.7608 -4.881509e-17)
(2.2727477 -12.6904 -1.4952497e-21)
(2.4249831 -11.618682 -4.8851596e-17)
(2.5164565 -10.557223 -4.8863066e-17)
(2.5486224 -9.507536 -4.9038771e-24)
(2.52737 -8.4853098 5.9635698e-21)
(2.4539592 -7.4879195 -9.7691224e-17)
(2.3328586 -6.5205443 -9.7624922e-17)
(2.1702109 -5.5930076 -1.9513659e-16)
(1.9678378 -4.7016911 -5.9474101e-21)
(1.7334177 -3.8588644 -9.739646e-17)
(1.4659346 -3.0590017 -5.9280963e-21)
(1.1765367 -2.3119001 5.9392217e-21)
(0.86688801 -1.6116054 -9.7015004e-17)
(0.54798344 -0.96796883 5.9091292e-21)
(0.22983075 -0.39000069 3.7979517e-33)
(-0.093530062 0.14231061 5.8855842e-21)
(-0.42401188 0.63845942 -5.8714037e-21)
(-0.75136531 1.0878295 0)
(-1.0708694 1.4895321 -1.9139103e-16)
(-1.3829263 1.8495125 -1.9086903e-16)
(-1.6853026 2.1707663 1.1594573e-20)
(-1.9767478 2.456505 1.8972428e-16)
(-2.2573083 2.7090575 2.4074124e-35)
(-2.5273984 2.9332079 8.4772199e-37)
(-2.7864299 3.1308471 -3.695776e-37)
(-3.0326512 3.3029861 9.1481672e-34)
(-3.2688034 3.4543637 1.8660416e-16)
(-3.4924377 3.5843018 0)
(-3.7049407 3.6961938 1.5214848e-23)
(-3.9067564 3.7922074 4.8148249e-35)
(-4.0977791 3.8733627 1.8398443e-16)
(-4.2791505 3.941955 5.5932043e-21)
(-4.4511776 3.9991223 -5.5758614e-21)
(-4.6151831 4.046875 1.1925484e-32)
(-4.7716953 4.0863197 0)
(-4.9221244 4.1191445 -1.8068349e-16)
(-5.069085 4.1479793 -1.8000855e-16)
(-5.2147471 4.1747167 -2.829041e-24)
(-5.3611773 4.2011907 -1.7871577e-16)
(-5.5098148 4.2283974 -1.7804504e-16)
(-5.6637346 4.2586879 5.4124828e-21)
(-5.8224792 4.2914454 -5.395479e-21)
(-5.9871957 4.3274128 -3.0487151e-33)
(-6.156748 4.3654676 -3.5121517e-37)
(-6.3284199 4.4037691 5.6794582e-24)
(-6.4996228 4.4403678 -5.3144128e-21)
(-6.6680577 4.4739582 -1.7354882e-16)
(-6.8303196 4.5024656 -3.458446e-16)
(-6.9876749 4.5270572 0)
(-7.1381754 4.5465662 -1.7166587e-16)
(-7.2837289 4.5624909 1.7103925e-16)
(-7.423593 4.5744867 2.8263547e-24)
(-7.5581802 4.5830858 5.1802089e-21)
(-7.6873795 4.5882267 -5.1637218e-21)
(-7.8118522 4.5905809 -5.1408889e-21)
(-7.9310232 4.5897761 2.5165082e-24)
(-8.0470808 4.5873086 1.6728889e-16)
(-8.1585147 4.5822867 -1.666571e-16)
(-8.2672501 4.575962 -3.3205413e-16)
(-8.3716053 4.5673903 5.046365e-21)
(-8.473176 4.5575645 -5.0294265e-21)
(-8.5708806 4.5459116 -1.6413177e-16)
(-8.6656313 4.5330001 1.6349783e-16)
(-8.75684 4.5185393 1.6285364e-16)
(-8.8453083 4.5029625 -4.9487824e-21)
(-8.9309147 4.4862841 1.6156658e-16)
(-9.0136763 4.4685195 -1.6091461e-16)
(-9.0935294 4.449701 -1.6026362e-16)
(-9.1699007 4.4296354 -1.5960621e-16)
(-9.2451481 4.4098601 -3.1789963e-16)
(-9.3189105 4.3898629 4.8295683e-21)
(-9.3909921 4.3695456 -1.9157869e-24)
(-9.4613189 4.3488265 -1.5696174e-16)
(-9.530143 4.3278722 4.7686507e-21)
(-9.5986045 4.3072338 -4.7499779e-21)
(-9.6644292 4.2856399 1.5494039e-16)
(-9.7307534 4.2647597 -9.4151801e-21)
(-9.7958343 4.2436126 4.6874849e-21)
(-9.8602948 4.2227603 7.1264345e-38)
(-9.9235322 4.2015074 -4.6442028e-21)
(-9.9859317 4.1803379 -1.5151112e-16)
(-10.048808 4.1595928 3.0164817e-16)
(-10.110236 4.1387016 4.5809343e-21)
(-10.172763 4.1183851 -1.2952369e-24)
(-10.234808 4.0982873 -4.5475182e-21)
(-10.298269 4.0788435 1.4802909e-16)
(-10.361217 4.0595368 1.473216e-16)
(-10.426835 4.041375 -8.9315001e-33)
(-10.493349 4.023786 -1.4590386e-16)
(-10.566128 4.0086598 4.8148249e-35)
(-10.640005 3.9940412 2.889599e-16)
(-10.737397 3.9881475 1.4377111e-16)
(-10.870248 3.9951627 -1.4305395e-16)
(-10.929773 3.9561249 -1.0804922e-23)
(-10.862283 3.8577123 2.4074124e-35)
(-10.787687 3.7643482 -1.4092887e-16)
(-10.714984 3.6786179 -1.4022832e-16)
(-10.659177 3.6051862 -2.7906504e-16)
(-10.60063 3.5365718 8.4738613e-21)
(-10.558957 3.4789948 -8.4321695e-21)
(-10.51424 3.4252761 4.195343e-21)
(-10.486471 3.3817086 -7.3468397e-40)
(-10.453739 3.3407449 -2.0674555e-21)
(-10.436933 3.3089584 1.6039381e-25)
(-10.42126 3.2813211 2.0567689e-21)
(-10.416277 3.2606936 2.6825347e-16)
(-10.418991 3.2460254 2.0362817e-21)
(-10.434419 3.2387064 -2.6558743e-16)
(-10.463127 3.2389058 2.0162578e-21)
(-10.508708 3.2476843 1.3150271e-16)
(-10.555171 3.2601401 1.9973302e-21)
(-10.636326 3.2866915 -1.9874718e-21)
(-10.758414 3.3295613 1.9784582e-21)
(-10.911947 3.3858949 1.2902536e-16)
(-11.126717 3.4656147 -1.9589575e-21)
(-11.375547 3.5602596 -1.2780403e-16)
(-11.916795 3.7529314 6.0185311e-36)
(-11.697374 3.7075158 -2.531794e-16)
(-15.586006 4.9824744 -4.2616748e-24)
(-12.728974 3.238807 6.6679569e-17)
(-8.4881837 2.1648309 1.3141356e-16)
(-9.7606227 2.5041467 2.5890708e-16)
(-10.046984 2.5944228 1.275013e-16)
(-10.202573 2.6481813 6.0185311e-36)
(-10.32543 2.6915551 -1.8873945e-21)
(-10.430226 2.7276994 1.8590558e-21)
(-10.528906 2.7600142 1.2149839e-24)
(-10.631111 2.7902559 1.1822616e-16)
(-10.741993 2.8201106 -1.776329e-21)
(-10.836843 2.8424073 1.1474353e-16)
(-10.924015 2.8594826 1.7250615e-21)
(-11.010009 2.8725373 1.1143105e-16)
(-11.093321 2.8812461 -2.1967042e-16)
(-11.17303 2.8850738 1.082748e-16)
(-11.247342 2.8835531 3.2579071e-21)
(-11.314374 2.8761095 -1.6065964e-21)
(-11.373801 2.8626694 2.0766387e-16)
(-11.422656 2.8424912 -6.8490884e-33)
)
;
    }
    Outlet
    {
        type            calculated;
        value           nonuniform List<vector> 0();
    }
    procBoundary1to0
    {
        type            processor;
        value           uniform (0 0 0);
    }
    procBoundary1to2
    {
        type            processor;
        value           uniform (0 0 0);
    }
    procBoundary1to8
    {
        type            processor;
        value           uniform (0 0 0);
    }
}


// ************************************************************************* //
