/*--------------------------------*- C++ -*----------------------------------*\
| =========                 |                                                 |
| \\      /  F ield         | OpenFOAM: The Open Source CFD Toolbox           |
|  \\    /   O peration     | Version:  2506                                  |
|   \\  /    A nd           | Website:  www.openfoam.com                      |
|    \\/     M anipulation  |                                                 |
\*---------------------------------------------------------------------------*/
FoamFile
{
    version     2.0;
    format      ascii;
    arch        "LSB;label=32;scalar=64";
    class       volScalarField;
    location    "0.0135";
    object      rho;
}
// * * * * * * * * * * * * * * * * * * * * * * * * * * * * * * * * * * * * * //

dimensions      [1 -3 0 0 0 0 0];

internalField   nonuniform List<scalar> 
13761
(
0.69429989
0.69431145
0.69432133
0.69432972
0.69433684
0.69434293
0.69434828
0.69435302
0.69435759
0.69436229
0.69436708
0.6943722
0.69437732
0.6943826
0.69438802
0.69439351
0.69439905
0.69440464
0.6944103
0.69441608
0.69442198
0.69442802
0.69443416
0.69444033
0.69444639
0.69445218
0.69445754
0.69446237
0.6944666
0.69447025
0.69447332
0.69447587
0.69447794
0.69447959
0.69448085
0.69448176
0.69448237
0.6944827
0.69420688
0.69425127
0.69429047
0.69432499
0.6943553
0.694382
0.6944057
0.69442699
0.69444637
0.69446425
0.69448092
0.69449662
0.69451128
0.69452483
0.6945373
0.69454875
0.69455923
0.6945688
0.69457753
0.69458551
0.6945929
0.69459993
0.6946066
0.6946132
0.69461992
0.69462688
0.6946342
0.6946419
0.69465003
0.69465859
0.69466761
0.69467701
0.69468661
0.69469596
0.69470464
0.69471223
0.69471862
0.69472375
0.69472777
0.6947308
0.69473302
0.69473463
0.69473571
0.69473638
0.6947367
0.69411339
0.69414491
0.69417048
0.69419167
0.69420956
0.69422483
0.69423801
0.69424942
0.69425941
0.69426816
0.69427594
0.69428285
0.69428904
0.69429458
0.69430041
0.69430627
0.69431226
0.69431831
0.6943244
0.69433062
0.69433691
0.69434322
0.69434946
0.69435559
0.69436161
0.69436757
0.69437349
0.69437943
0.69438542
0.69439148
0.69439754
0.69440341
0.69440893
0.69441396
0.69441839
0.69442224
0.69442549
0.69442823
0.69443047
0.69443229
0.69443375
0.69443482
0.69443563
0.6944362
0.69443655
0.69407739
0.69411591
0.69414916
0.69417702
0.69419982
0.69421809
0.69423229
0.69424311
0.69425091
0.69425637
0.69425965
0.69426223
0.69426431
0.6942658
0.69426659
0.69426724
0.69426796
0.69426899
0.69427064
0.69427268
0.69427522
0.6942782
0.69428152
0.6942851
0.69428891
0.69429295
0.69429724
0.69430177
0.69430651
0.69431141
0.69431639
0.69432127
0.694326
0.69433045
0.69433457
0.69433835
0.69434183
0.69434504
0.69434788
0.69435028
0.69435218
0.69435365
0.69435469
0.69435535
0.69435567
0.69388671
0.69392045
0.69394827
0.69397102
0.69398946
0.69400426
0.69401595
0.69402494
0.69403164
0.69403615
0.69403898
0.69403902
0.6940371
0.69403391
0.69403
0.69402601
0.69402209
0.69401937
0.69401768
0.69401707
0.69401722
0.6940181
0.69401955
0.69402141
0.69402355
0.69402589
0.69402831
0.69403066
0.69403278
0.69403435
0.69403518
0.69403519
0.69403456
0.69403362
0.69403276
0.69403229
0.69403237
0.69403303
0.6940341
0.69403535
0.69403661
0.69403773
0.69403866
0.69403932
0.69403967
0.69361372
0.6936537
0.69368762
0.69371609
0.69373966
0.69375896
0.69377453
0.69378694
0.69379658
0.69380391
0.69380911
0.69381254
0.69381412
0.69381392
0.69381213
0.69380903
0.69380504
0.69380063
0.6937963
0.69379263
0.6937899
0.69378793
0.69378656
0.69378569
0.69378522
0.69378504
0.69378504
0.69378506
0.6937849
0.69378432
0.69378295
0.69378064
0.69377736
0.69377338
0.69376919
0.69376531
0.69376218
0.69376018
0.69375941
0.6937595
0.69376016
0.69376114
0.6937622
0.69376316
0.69376388
0.69376426
0.69329724
0.69333454
0.69336547
0.69339067
0.69341079
0.69342661
0.69343878
0.69344798
0.69345468
0.69345939
0.69346235
0.69346386
0.69346394
0.69346259
0.69345986
0.69345581
0.69345067
0.69344494
0.69343913
0.69343372
0.69342905
0.69342543
0.69342251
0.69342005
0.69341798
0.69341615
0.69341434
0.69341228
0.69340967
0.69340585
0.69340026
0.69339249
0.69338251
0.69337094
0.69335883
0.69334743
0.69333784
0.69333076
0.69332613
0.69332346
0.69332228
0.69332212
0.69332255
0.69332321
0.69332382
0.69332416
0.6928888
0.69292744
0.69295973
0.69298614
0.6930073
0.69302378
0.69303627
0.69304533
0.69305157
0.69305552
0.69305769
0.6930585
0.69305825
0.6930572
0.69305511
0.69305206
0.693048
0.69304294
0.69303709
0.69303082
0.69302454
0.69301853
0.69301303
0.69300797
0.69300315
0.69299845
0.69299373
0.69298879
0.69298333
0.69297677
0.69296846
0.69295763
0.69294366
0.69292662
0.69290743
0.69288768
0.69286911
0.69285323
0.69284147
0.69283312
0.69282772
0.69282469
0.69282337
0.69282315
0.69282349
0.69282396
0.69282426
0.69246547
0.69249709
0.69252318
0.69254412
0.69256029
0.6925723
0.69258069
0.69258591
0.69258843
0.69258869
0.69258711
0.69258393
0.69257975
0.69257487
0.69256928
0.69256309
0.69255626
0.69254896
0.69254134
0.69253369
0.6925264
0.69251962
0.69251344
0.69250767
0.69250202
0.6924962
0.69249001
0.69248309
0.69247497
0.69246479
0.69245164
0.69243436
0.69241216
0.69238527
0.69235523
0.69232451
0.69229589
0.69227191
0.69225351
0.69224002
0.69223088
0.69222528
0.69222233
0.69222116
0.69222102
0.69222128
0.69222149
0.69196288
0.69199036
0.69201295
0.69203123
0.69204509
0.69205534
0.69206145
0.69206455
0.69206512
0.69206341
0.69206001
0.69205522
0.6920492
0.6920423
0.69203482
0.69202691
0.69201857
0.69200971
0.69200033
0.69199057
0.69198072
0.69197109
0.69196188
0.6919531
0.69194458
0.69193603
0.69192729
0.69191799
0.69190769
0.69189563
0.69188077
0.69186169
0.6918369
0.69180563
0.69176854
0.69172785
0.69168676
0.69164874
0.69161764
0.69159296
0.69157459
0.69156189
0.69155386
0.69154936
0.6915473
0.69154669
0.69154676
0.69154688
0.69143272
0.69145402
0.69147067
0.69148316
0.69149141
0.6914972
0.69150055
0.69150055
0.69149783
0.69149265
0.69148534
0.69147649
0.69146662
0.69145593
0.69144456
0.69143273
0.69142071
0.69140873
0.69139683
0.691385
0.6913733
0.69136192
0.69135111
0.69134098
0.69133145
0.6913222
0.69131276
0.69130261
0.69129144
0.69127849
0.69126274
0.69124297
0.69121742
0.6911842
0.69114226
0.69109244
0.69103783
0.69098303
0.69093323
0.69089267
0.69086034
0.6908361
0.69081914
0.69080819
0.69080181
0.69079864
0.69079745
0.69079726
0.69079728
0.69087369
0.69088801
0.69089811
0.69090193
0.69090473
0.69090309
0.69089877
0.69089302
0.69088582
0.69087722
0.69086717
0.6908555
0.69084239
0.69082837
0.69081397
0.69079939
0.69078459
0.69076954
0.69075433
0.69073906
0.69072387
0.69070891
0.69069438
0.69068045
0.69066716
0.69065434
0.69064162
0.69062852
0.69061471
0.69059962
0.6905824
0.69056188
0.69053625
0.69050313
0.69046029
0.69040695
0.69034486
0.69027825
0.69021288
0.69015495
0.69010574
0.69006629
0.69003656
0.6900156
0.69000191
0.68999379
0.68998961
0.6899879
0.68998747
0.68998739
0.69030564
0.690307
0.69030346
0.69029675
0.69028774
0.69027626
0.69026264
0.69024759
0.69023153
0.69021468
0.69019734
0.69017952
0.69016098
0.69014165
0.69012188
0.69010216
0.69008283
0.690064
0.69004564
0.6900277
0.69001016
0.68999313
0.68997681
0.68996141
0.68994695
0.68993317
0.68991956
0.68990545
0.68989004
0.68987287
0.6898525
0.68982741
0.68979533
0.68975336
0.68969892
0.68963136
0.68955324
0.68947012
0.68938941
0.68931995
0.68926121
0.68921423
0.68917884
0.68915384
0.68913744
0.68912765
0.68912251
0.68912033
0.68911969
0.68911949
0.68970039
0.68969623
0.6896839
0.68966765
0.6896488
0.68962759
0.68960527
0.68958207
0.68955847
0.68953489
0.68951127
0.68948751
0.68946382
0.68944037
0.68941711
0.68939387
0.68937062
0.68934746
0.68932459
0.68930216
0.68928029
0.68925906
0.68923853
0.68921883
0.68920001
0.68918198
0.68916438
0.68914664
0.689128
0.68910807
0.68908572
0.68905973
0.68902825
0.68898858
0.68893745
0.6888722
0.68879263
0.68870218
0.68860739
0.68851659
0.68843683
0.68836917
0.68831501
0.68827416
0.68824524
0.68822621
0.68821476
0.68820868
0.68820601
0.68820515
0.68820485
0.68908539
0.68907398
0.68905332
0.68903079
0.68900276
0.68897188
0.68893925
0.68890591
0.68887226
0.68883854
0.68880539
0.68877335
0.68874231
0.68871191
0.68868196
0.68865257
0.68862394
0.68859621
0.68856941
0.68854345
0.68851826
0.68849384
0.68847024
0.68844762
0.68842613
0.68840588
0.68838671
0.68836815
0.68834949
0.68832987
0.68830842
0.68828419
0.68825501
0.68821852
0.68817105
0.68810847
0.68802807
0.68793068
0.68782156
0.68770972
0.68760668
0.68751493
0.68743755
0.68737582
0.6873293
0.68729635
0.68727458
0.68726139
0.68725431
0.68725109
0.68724999
0.68724957
0.68845387
0.68843605
0.6884117
0.6883788
0.6883421
0.68830178
0.6882592
0.68821556
0.68817192
0.6881291
0.68808727
0.68804642
0.68800681
0.68796888
0.6879328
0.6878983
0.68786488
0.68783218
0.68780016
0.68776894
0.68773867
0.6877094
0.68768117
0.68765399
0.68762789
0.68760294
0.68757911
0.68755611
0.68753338
0.6875101
0.68748524
0.68745826
0.68742739
0.68739094
0.68734622
0.68728945
0.68721628
0.68712381
0.68701309
0.68689027
0.68676585
0.6866532
0.68655261
0.68646771
0.68639992
0.68634876
0.68631245
0.6862884
0.68627376
0.68626579
0.68626212
0.68626082
0.68626031
0.68781285
0.68779467
0.68776431
0.6877262
0.68768171
0.68763288
0.68758102
0.68752706
0.68747224
0.68741764
0.68736408
0.6873123
0.68726276
0.68721544
0.68717012
0.68712674
0.68708543
0.68704625
0.68700903
0.68697347
0.68693931
0.68690637
0.6868746
0.686844
0.68681467
0.68678673
0.68676029
0.6867353
0.68671138
0.68668783
0.68666369
0.68663777
0.6866093
0.68657633
0.6865361
0.686485
0.68641784
0.68632949
0.68621775
0.68608603
0.68594353
0.68580364
0.68567728
0.68556614
0.68547328
0.68539959
0.68534419
0.68530496
0.68527901
0.68526321
0.68525461
0.68525061
0.68524916
0.68524857
0.68715889
0.68713823
0.68710715
0.68706509
0.68701431
0.68695741
0.68689633
0.68683305
0.68676864
0.68670398
0.68664027
0.68657837
0.68651858
0.68646121
0.68640679
0.68635565
0.68630758
0.68626208
0.68621868
0.68617711
0.68613724
0.68609905
0.68606246
0.6860274
0.68599376
0.68596153
0.6859307
0.68590129
0.68587312
0.68584568
0.68581814
0.68578937
0.6857583
0.68572386
0.68568366
0.6856352
0.68557442
0.68549604
0.68539522
0.68527071
0.68512723
0.68497504
0.68482737
0.6846903
0.68456994
0.68446977
0.68439059
0.68433124
0.6842893
0.68426161
0.68424478
0.68423561
0.68423137
0.68422982
0.68422916
0.68650738
0.686483
0.68644762
0.68640284
0.68634903
0.68628719
0.68621946
0.68614765
0.68607342
0.68599834
0.68592343
0.68584961
0.68577805
0.6857097
0.68564479
0.68558312
0.68552469
0.68546978
0.68541854
0.68537076
0.68532595
0.68528355
0.68524314
0.68520448
0.68516745
0.68513204
0.68509828
0.68506626
0.68503596
0.68500713
0.68497916
0.68495109
0.68492172
0.68488968
0.68485383
0.68481125
0.68475832
0.68468978
0.68459908
0.68448106
0.68433575
0.68417045
0.6839985
0.68383742
0.6836895
0.68356071
0.68345416
0.68337024
0.68330745
0.68326312
0.68323387
0.68321609
0.68320641
0.68320188
0.68320021
0.68319949
0.68582606
0.68578626
0.685737
0.68567917
0.68561328
0.68554003
0.68546131
0.68537915
0.68529535
0.68521123
0.68512794
0.68504649
0.68496755
0.68489172
0.6848198
0.68475234
0.6846893
0.68463025
0.68457472
0.68452244
0.68447319
0.68442669
0.68438268
0.68434086
0.68430098
0.68426289
0.68422649
0.68419175
0.68415859
0.68412662
0.68409512
0.68406295
0.6840286
0.68399108
0.68394831
0.68389742
0.68383468
0.68375448
0.68365037
0.68351789
0.68335838
0.68318042
0.68299839
0.68283007
0.68267564
0.68254129
0.6824302
0.68234272
0.68227725
0.682231
0.68220045
0.6821819
0.68217176
0.68216704
0.68216529
0.68216453
0.68518339
0.68513581
0.68508
0.68501635
0.68494582
0.68486891
0.68478574
0.68469737
0.68460551
0.68451195
0.68441839
0.68432594
0.68423561
0.68414863
0.68406573
0.683987
0.68391248
0.68384255
0.68377755
0.68371745
0.68366183
0.68361002
0.68356137
0.68351537
0.6834717
0.68343014
0.68339061
0.6833531
0.68331757
0.68328388
0.68325152
0.6832196
0.68318688
0.68315182
0.68311322
0.68306886
0.68301483
0.6829463
0.68285604
0.68273624
0.68258277
0.68239992
0.68220056
0.68200418
0.68182098
0.68165717
0.68151697
0.68140209
0.68131198
0.68124462
0.68119705
0.68116563
0.68114653
0.68113613
0.68113126
0.68112944
0.68112866
0.6845549
0.6844962
0.68443115
0.68436016
0.68428284
0.68419961
0.68411109
0.68401763
0.68392001
0.68381968
0.68371823
0.68361714
0.68351777
0.68342098
0.68332738
0.68323797
0.68315369
0.68307486
0.68300118
0.68293224
0.6828678
0.68280773
0.68275179
0.68269956
0.68265054
0.68260427
0.68256037
0.68251858
0.68247877
0.68244082
0.68240449
0.68236919
0.68233387
0.68229708
0.68225709
0.68221257
0.68216042
0.68209684
0.68201642
0.68191188
0.6817763
0.68160758
0.68141226
0.6812048
0.6810034
0.68081336
0.68064367
0.68049906
0.68038097
0.6802885
0.68021938
0.68017051
0.68013819
0.68011855
0.68010785
0.68010286
0.68010101
0.68010021
0.68395197
0.68388253
0.68380561
0.68372324
0.6836366
0.68354582
0.68345097
0.68335221
0.68324953
0.68314324
0.68303439
0.68292457
0.68281542
0.68270817
0.68260403
0.68250409
0.68240879
0.68231832
0.68223308
0.68215364
0.68208022
0.68201259
0.68195019
0.68189235
0.6818384
0.68178778
0.68174006
0.68169494
0.68165224
0.68161184
0.68157363
0.68153721
0.68150181
0.68146623
0.68142891
0.68138796
0.68134209
0.68128775
0.68122004
0.68113214
0.68101496
0.68086066
0.68066893
0.68044986
0.68022127
0.68000654
0.67980796
0.679633
0.67948533
0.67936546
0.67927181
0.67920177
0.67915212
0.67911924
0.67909923
0.67908834
0.67908325
0.67908137
0.67908057
0.6833646
0.68328694
0.68319892
0.68310488
0.68300682
0.68290564
0.68280151
0.68269464
0.68258533
0.68247367
0.68235973
0.68224415
0.68212808
0.68201299
0.68190027
0.68179071
0.68168514
0.68158477
0.68149045
0.68140222
0.68131969
0.68124261
0.68117094
0.68110459
0.68104328
0.68098645
0.68093345
0.68088369
0.68083669
0.68079213
0.68074977
0.68070941
0.68067058
0.68063241
0.68059356
0.68055217
0.68050645
0.68045419
0.68039117
0.68031228
0.68021001
0.68007561
0.67990307
0.67969486
0.67946411
0.67923129
0.67901234
0.67881099
0.67863448
0.67848601
0.67836557
0.67827133
0.67820058
0.67815017
0.67811661
0.67809609
0.67808491
0.67807966
0.67807772
0.67807692
0.68279676
0.68271563
0.6826207
0.68251566
0.68240485
0.68229121
0.68217611
0.68205984
0.68194235
0.68182362
0.6817035
0.68158188
0.68145909
0.68133618
0.68121452
0.68109543
0.68098024
0.68086979
0.68076441
0.68066455
0.68057092
0.68048408
0.68040405
0.68033041
0.68026258
0.68019991
0.68014178
0.68008759
0.68003681
0.67998906
0.67994406
0.67990162
0.67986143
0.67982288
0.67978485
0.67974576
0.67970362
0.67965664
0.67960228
0.67953579
0.67945093
0.67933832
0.67918752
0.67899309
0.6787612
0.67850931
0.6782616
0.67803026
0.67782323
0.67764492
0.67749659
0.67737696
0.67728341
0.67721295
0.67716248
0.67712871
0.67710798
0.67709665
0.67709134
0.67708938
0.67708862
0.6822328
0.68215473
0.68205727
0.68194606
0.68182549
0.68169966
0.68157177
0.6814434
0.68131499
0.68118676
0.68105885
0.68093115
0.68080334
0.68067535
0.68054772
0.68042166
0.68029845
0.68017889
0.68006404
0.67995518
0.67985296
0.67975723
0.67966771
0.67958435
0.67950718
0.6794361
0.67937073
0.67931043
0.67925446
0.67920214
0.67915293
0.67910642
0.67906231
0.6790202
0.6789794
0.67893871
0.67889644
0.67885021
0.67879847
0.67873727
0.67866119
0.67856306
0.67843286
0.67826102
0.67804543
0.67779659
0.67753551
0.67728896
0.67705729
0.67685118
0.67667489
0.67652878
0.6764109
0.67631841
0.67624831
0.67619773
0.67616361
0.67614259
0.67613106
0.67612568
0.67612371
0.67612296
0.681606
0.68151293
0.68140081
0.68127452
0.68113896
0.68099854
0.68085706
0.68071666
0.68057777
0.68044024
0.68030395
0.68016875
0.68003429
0.67990036
0.67976735
0.67963621
0.67950821
0.67938464
0.6792661
0.67915294
0.67904594
0.67894602
0.67885365
0.67876864
0.67869048
0.67861858
0.67855235
0.67849118
0.67843443
0.67838153
0.67833201
0.67828551
0.67824173
0.67820017
0.67815993
0.67811952
0.67807696
0.67802959
0.6779758
0.67791113
0.6778293
0.67772173
0.67757649
0.67738348
0.67714336
0.6768715
0.67659238
0.67633316
0.67609725
0.67589156
0.67571795
0.67557521
0.67546046
0.67537032
0.67530166
0.67525176
0.67521787
0.6751969
0.67518541
0.67518007
0.67517813
0.6751774
0.68105921
0.68097265
0.68086479
0.68073878
0.680599
0.68045018
0.68029673
0.68014256
0.67999023
0.67984072
0.67969409
0.67955024
0.67940891
0.67926959
0.67913177
0.67899541
0.67886125
0.67873031
0.67860346
0.67848192
0.67836687
0.6782587
0.67815728
0.67806253
0.67797457
0.67789348
0.67781907
0.67775088
0.6776882
0.67763023
0.67757624
0.67752563
0.67747794
0.67743276
0.67738949
0.67734712
0.67730408
0.67725819
0.67720696
0.67714779
0.67707531
0.67698221
0.6768582
0.6766909
0.67647311
0.67621144
0.67592736
0.67565153
0.67539086
0.67515701
0.67495574
0.67478733
0.67464924
0.67453802
0.6744502
0.67438281
0.67433335
0.67429945
0.67427831
0.6742667
0.67426129
0.67425935
0.67425865
0.6805216
0.68044247
0.68034164
0.68022048
0.68008172
0.67992927
0.67976783
0.67960209
0.67943647
0.67927393
0.67911542
0.67896079
0.67880976
0.67866205
0.67851718
0.67837462
0.67823419
0.67809632
0.67796209
0.67783263
0.67770834
0.67758967
0.67747767
0.67737337
0.67727709
0.67718856
0.67710722
0.67703252
0.67696391
0.67690078
0.67684247
0.67678835
0.67673787
0.67669061
0.67664614
0.67660373
0.67656214
0.67651945
0.67647308
0.67642033
0.67635793
0.67627982
0.67617747
0.67603871
0.67585017
0.67560699
0.6753216
0.67501993
0.67473127
0.67446567
0.67423354
0.67403693
0.67387405
0.6737412
0.67363432
0.67354967
0.67348426
0.67343582
0.67340227
0.67338119
0.67336958
0.67336416
0.67336223
0.67336156
0.67999384
0.67991747
0.67982251
0.67970749
0.67957344
0.6794229
0.67925939
0.67908712
0.67891048
0.67873389
0.67856093
0.67839329
0.67823114
0.67807409
0.67792166
0.67777316
0.67762785
0.67748523
0.67734551
0.67720937
0.67707771
0.67695183
0.67683267
0.67672043
0.67661504
0.67651668
0.67642563
0.67634197
0.67626545
0.67619552
0.67613142
0.67607234
0.67601748
0.67596621
0.67591801
0.67587233
0.67582832
0.67578459
0.67573913
0.67568915
0.67563215
0.67556354
0.6754758
0.67535881
0.6751982
0.67498168
0.67471055
0.67440394
0.67409486
0.67381137
0.67355582
0.67333319
0.67314544
0.67299017
0.67286324
0.67276062
0.67267879
0.67261502
0.67256731
0.67253393
0.6725128
0.6725011
0.67249565
0.67249373
0.67249308
0.67941062
0.67931663
0.67920675
0.67907893
0.67893317
0.67877153
0.67859739
0.67841489
0.67822851
0.67804283
0.67786148
0.67768619
0.67751718
0.67735408
0.67719636
0.6770434
0.67689444
0.67674888
0.67660666
0.67646853
0.67633536
0.67620742
0.67608532
0.67597027
0.67586327
0.67576452
0.67567371
0.67559033
0.67551389
0.67544388
0.67537967
0.6753206
0.67526597
0.67521519
0.67516776
0.67512307
0.67508015
0.67503734
0.67499223
0.67494134
0.67488196
0.6748082
0.67471118
0.6745791
0.67439602
0.67415173
0.67385477
0.6735327
0.67321745
0.67292645
0.67267112
0.67245463
0.67227466
0.67212671
0.67200599
0.67190821
0.67182985
0.67176833
0.67172187
0.67168905
0.67166811
0.67165648
0.67165108
0.67164919
0.67164859
0.6789225
0.678826
0.67871521
0.67859049
0.67845
0.6782932
0.67812174
0.67793858
0.6777474
0.67755224
0.67735756
0.67716757
0.67698476
0.67680968
0.67664188
0.67648066
0.67632516
0.67617443
0.67602762
0.67588447
0.67574529
0.67561092
0.67548267
0.67536121
0.67524654
0.67513874
0.67503821
0.67494534
0.67486023
0.67478255
0.67471174
0.674647
0.67458749
0.67453242
0.6744811
0.67443293
0.67438719
0.67434271
0.67429765
0.6742494
0.67419455
0.67412969
0.67404774
0.67393798
0.67378542
0.67357304
0.67329554
0.67296864
0.6726302
0.67232461
0.67204854
0.6718078
0.6716034
0.67143332
0.67129323
0.67117839
0.67108482
0.67100932
0.67094959
0.67090409
0.67087167
0.67085083
0.67083923
0.67083384
0.67083198
0.67083141
0.67845968
0.67836069
0.6782465
0.6781198
0.67798139
0.67782935
0.67766233
0.67748138
0.67728939
0.67709014
0.67688764
0.67668618
0.67648968
0.67630065
0.67611984
0.67594699
0.67578147
0.67562248
0.67546905
0.67532026
0.67517562
0.67503549
0.67490042
0.6747706
0.67464682
0.67453036
0.67442208
0.6743221
0.67423009
0.67414563
0.67406832
0.67399767
0.67393309
0.67387388
0.67381931
0.67376874
0.67372157
0.673677
0.6736337
0.67358954
0.67354139
0.67348522
0.6734163
0.6733257
0.67320059
0.67302344
0.67277918
0.67247214
0.67213199
0.67179392
0.67148231
0.67120722
0.67097213
0.67077673
0.67061538
0.67048263
0.67037368
0.6702846
0.67021234
0.67015478
0.6701106
0.67007885
0.67005832
0.67004685
0.67004155
0.67003973
0.67003921
0.67801053
0.67791464
0.67779891
0.67766827
0.67752613
0.677374
0.67721057
0.67703423
0.67684533
0.67664614
0.67643999
0.67623056
0.67602204
0.67581885
0.67562404
0.67543861
0.67526229
0.6750943
0.67493367
0.67477926
0.67462999
0.67448514
0.67434466
0.67420929
0.67408025
0.67395794
0.67384223
0.67373336
0.67363188
0.67353828
0.67345261
0.67337455
0.6733035
0.6732387
0.6731793
0.67312448
0.67307354
0.67302576
0.6729802
0.67293531
0.67288866
0.6728367
0.6727755
0.67269897
0.67259642
0.67245232
0.67224638
0.67196693
0.6716266
0.67126593
0.67093818
0.67064113
0.67038292
0.67016291
0.66997882
0.66982622
0.66970025
0.66959633
0.66951088
0.66944117
0.66938531
0.66934215
0.66931094
0.66929063
0.66927926
0.66927402
0.66927224
0.66927176
0.67748724
0.67737498
0.67724327
0.67709728
0.67694102
0.67677642
0.67660243
0.67641712
0.67622029
0.67601403
0.67580168
0.6755869
0.67537357
0.67516564
0.67496606
0.67477613
0.67459579
0.67442444
0.67426118
0.6741049
0.67395443
0.67380893
0.67366832
0.67353282
0.67340257
0.67327851
0.67316194
0.67305356
0.67295338
0.6728611
0.67277639
0.67269892
0.67262825
0.67256382
0.67250491
0.6724508
0.67240078
0.67235414
0.67230981
0.67226603
0.67222004
0.67216757
0.67210395
0.67202073
0.67190378
0.67173411
0.67149177
0.67117631
0.67081698
0.67045899
0.67013158
0.66984087
0.66959025
0.66938044
0.66920602
0.66906156
0.66894203
0.66884311
0.66876143
0.66869449
0.66864056
0.66859865
0.66856817
0.66854826
0.66853709
0.66853196
0.66853025
0.6685298
0.67706612
0.67696281
0.67683554
0.67668938
0.67652919
0.67635921
0.67618224
0.6759981
0.67580491
0.67560176
0.67538992
0.6751722
0.67495203
0.67473336
0.67452053
0.67431688
0.6741238
0.67394118
0.67376832
0.6736042
0.67344762
0.67329728
0.67315214
0.67301179
0.67287682
0.67274825
0.67262625
0.67251067
0.67240184
0.67230048
0.67220706
0.67212165
0.67204389
0.6719732
0.67190884
0.67184999
0.67179584
0.67174564
0.67169855
0.67165334
0.67160794
0.67155912
0.67150207
0.6714313
0.67133621
0.67120036
0.67100182
0.6707239
0.67037592
0.67000136
0.66965216
0.66933498
0.66905867
0.66882344
0.66862648
0.66846206
0.668325
0.66821107
0.66811651
0.66803812
0.6679736
0.6679214
0.66788068
0.66785093
0.66783142
0.66782048
0.66781547
0.66781383
0.66781343
0.67665161
0.67656291
0.67644475
0.67630289
0.67614294
0.67596984
0.67578787
0.67559996
0.67540629
0.67520518
0.67499551
0.67477821
0.67455596
0.67433208
0.67411015
0.67389402
0.67368693
0.67349055
0.67330502
0.67312974
0.67296382
0.67280611
0.67265527
0.67251017
0.67237034
0.67223565
0.67210617
0.67198301
0.67186741
0.67175992
0.67166048
0.67156881
0.67148467
0.67140779
0.67133779
0.67127412
0.67121607
0.67116292
0.67111392
0.67106819
0.67102431
0.67097994
0.67093131
0.67087284
0.67079727
0.67069049
0.67053139
0.67029555
0.66997649
0.66960236
0.66922562
0.66888196
0.66857588
0.66831131
0.66808811
0.66790137
0.66774531
0.66761506
0.66750646
0.66741598
0.66734068
0.66727846
0.66722795
0.6671884
0.66715939
0.66714032
0.66712962
0.66712474
0.66712317
0.66712281
0.67616224
0.6760594
0.6759276
0.67577252
0.67559986
0.67541448
0.67522077
0.67502228
0.6748199
0.67461216
0.67439748
0.67417598
0.67394973
0.67372181
0.67349596
0.67327644
0.67306674
0.67286852
0.67268184
0.67250598
0.67233995
0.67218254
0.67203235
0.6718881
0.67174907
0.67161565
0.67148864
0.67136796
0.67125348
0.67114569
0.67104538
0.67095303
0.67086866
0.6707919
0.67072219
0.67065883
0.67060101
0.67054796
0.67049886
0.67045271
0.67040789
0.67036162
0.6703094
0.67024489
0.67015834
0.67003223
0.66984231
0.66956721
0.66921194
0.66882474
0.66845898
0.66812779
0.66783633
0.66758618
0.66737562
0.66719956
0.6670524
0.66692914
0.66682583
0.66673933
0.66666711
0.66660725
0.66655851
0.66652023
0.66649206
0.6664735
0.66646309
0.66645837
0.66645687
0.66645656
0.67576641
0.67567928
0.67556298
0.67541812
0.67525022
0.67506551
0.67486917
0.67466546
0.67445776
0.67424718
0.67403265
0.67381267
0.67358715
0.67335786
0.67312762
0.67289974
0.67267801
0.67246594
0.67226548
0.6720769
0.67189956
0.67173253
0.67157467
0.67142459
0.67128095
0.67114295
0.67101009
0.67088241
0.6707611
0.67064733
0.67054151
0.67044352
0.67035316
0.67027023
0.67019452
0.67012567
0.67006317
0.67000633
0.66995445
0.66990669
0.66986197
0.66981842
0.66977283
0.66971974
0.66965167
0.6695555
0.66940884
0.66918426
0.66886857
0.66848993
0.6681001
0.66773655
0.66741214
0.66713129
0.66689312
0.66669383
0.66652681
0.66638645
0.66626841
0.66616929
0.66608615
0.66601652
0.66595866
0.66591143
0.66587425
0.66584684
0.66582875
0.66581861
0.66581404
0.66581261
0.66581234
0.67537731
0.67529869
0.67519662
0.67506768
0.67491126
0.67473199
0.67453606
0.67432894
0.67411526
0.67389883
0.67368116
0.67346125
0.67323737
0.67300878
0.6727767
0.67254367
0.67231312
0.67208922
0.67187564
0.67167437
0.67148558
0.6713085
0.67114205
0.67098503
0.67083603
0.67069361
0.67055684
0.67042588
0.67030124
0.67018263
0.67006996
0.66996387
0.66986522
0.66977449
0.66969166
0.66961635
0.66954802
0.66948599
0.6694295
0.66937779
0.66932997
0.66928481
0.66924011
0.66919207
0.66913409
0.66905708
0.66894347
0.66876652
0.66849913
0.66813987
0.66773756
0.66735408
0.6670109
0.66670701
0.66644459
0.66622169
0.66603395
0.66587602
0.66574283
0.66563031
0.66553547
0.66545565
0.66538859
0.66533272
0.66528702
0.66525096
0.66522432
0.66520671
0.66519684
0.66519243
0.66519108
0.66519085
0.67493182
0.67483779
0.67472155
0.67458029
0.67441267
0.67422259
0.67401637
0.67379988
0.67357775
0.67335367
0.67312925
0.67290383
0.67267583
0.67244447
0.67221064
0.67197651
0.67174497
0.67151973
0.67130459
0.67110187
0.67091199
0.67073422
0.67056749
0.67041062
0.67026223
0.67012087
0.66998545
0.66985518
0.66973003
0.66961122
0.66949984
0.66939617
0.66930008
0.66921143
0.6691301
0.6690559
0.66898852
0.66892744
0.66887204
0.66882157
0.66877513
0.66873132
0.66868763
0.66863947
0.66857887
0.66849388
0.66836182
0.66815141
0.66784283
0.66746179
0.66706262
0.66668306
0.66634259
0.66604503
0.66579042
0.66557672
0.66539751
0.66524714
0.66512064
0.66501381
0.66492338
0.66484695
0.66478261
0.66472892
0.66468495
0.6646502
0.66462448
0.66460748
0.66459798
0.66459375
0.66459249
0.6645923
0.67457794
0.67448745
0.67437806
0.67424825
0.67409553
0.673918
0.67371846
0.67350275
0.67327697
0.67304635
0.67281509
0.67258505
0.67235551
0.67212463
0.67189117
0.67165558
0.67141979
0.67118674
0.67096037
0.67074457
0.67054175
0.67035233
0.67017545
0.67000985
0.66985427
0.6697073
0.66956744
0.66943359
0.6693057
0.669184
0.66906799
0.66895761
0.66885366
0.66875705
0.66866826
0.66858725
0.66851367
0.66844697
0.66838651
0.66833157
0.66828137
0.66823492
0.66819062
0.66814547
0.66809383
0.6680262
0.66792678
0.66776719
0.66751482
0.66716129
0.66674965
0.66634802
0.66598934
0.66566972
0.66539324
0.66515667
0.66495661
0.6647877
0.66464475
0.66452308
0.6644194
0.66433149
0.66425734
0.66419502
0.66414298
0.6641003
0.66406654
0.66404154
0.664025
0.66401578
0.6640117
0.66401052
0.66401037
0.67424305
0.67415724
0.67405016
0.67392627
0.67378353
0.67361943
0.67343202
0.67322352
0.67299946
0.67276593
0.6725282
0.67229052
0.672055
0.67182117
0.67158733
0.6713522
0.67111598
0.67088013
0.67064702
0.6704201
0.6702034
0.6699997
0.66980973
0.66963272
0.66946742
0.6693125
0.66916654
0.66902807
0.66889577
0.66876863
0.66864653
0.66853071
0.66842212
0.66832093
0.66822704
0.66814037
0.6680609
0.66798848
0.6679228
0.66786338
0.6678096
0.66776069
0.66771561
0.66767251
0.66762783
0.66757456
0.66750106
0.66738602
0.66719515
0.66689965
0.66651668
0.66610632
0.66571338
0.66535795
0.66504567
0.66477595
0.6645484
0.66435657
0.66419485
0.66405838
0.66394308
0.66384527
0.66376199
0.66369123
0.66363149
0.66358152
0.6635405
0.66350803
0.66348396
0.66346804
0.66345918
0.6634553
0.66345421
0.6634541
0.67383954
0.67373792
0.67361501
0.67347681
0.67332189
0.6731474
0.67295116
0.67273473
0.67250297
0.67226185
0.67201707
0.67177349
0.67153354
0.67129667
0.67106087
0.67082447
0.67058735
0.67035083
0.67011725
0.66989017
0.66967355
0.66947028
0.6692812
0.66910548
0.66894169
0.66878839
0.66864413
0.66850736
0.66837692
0.66825255
0.66813421
0.66802121
0.66791351
0.66781203
0.66771773
0.6676311
0.66755211
0.66748042
0.66741553
0.6673568
0.66730354
0.66725494
0.66720982
0.66716604
0.66711926
0.66706072
0.66697596
0.66683732
0.66660662
0.66626566
0.66584861
0.66543268
0.66505668
0.66472019
0.66442715
0.66417597
0.6639625
0.66378163
0.66362832
0.66349804
0.66338684
0.66329161
0.66321029
0.6631415
0.66308362
0.66303519
0.66299541
0.66296389
0.66294053
0.66292507
0.66291649
0.66291276
0.66291174
0.66291167
0.67353631
0.67344193
0.67332457
0.67318748
0.67303602
0.6728694
0.67268462
0.67247953
0.67225552
0.67201712
0.67176993
0.6715194
0.67127048
0.67102604
0.67078589
0.67054814
0.67031105
0.67007421
0.66983851
0.6696057
0.66937882
0.66916192
0.66895824
0.66876897
0.66859351
0.66843041
0.66827816
0.66813525
0.66800013
0.66787135
0.66774771
0.66762906
0.6675166
0.6674111
0.66731265
0.66722114
0.66713663
0.66705917
0.66698866
0.66692482
0.66686719
0.66681516
0.66676791
0.66672412
0.66668126
0.66663398
0.66657135
0.66647455
0.66630848
0.66603429
0.6656561
0.66523661
0.66483038
0.66445852
0.66413011
0.663845
0.66360224
0.66339681
0.66322301
0.66307592
0.66295125
0.66284544
0.66275551
0.66267882
0.66261344
0.66255807
0.66251167
0.66247354
0.66244332
0.66242092
0.66240612
0.66239793
0.6623944
0.66239347
0.66239344
0.67315392
0.67304611
0.67291382
0.67276272
0.67259837
0.67242084
0.6722269
0.67201402
0.6717832
0.67153855
0.67128542
0.67102938
0.6707758
0.6705279
0.67028554
0.67004657
0.66980887
0.66957183
0.66933624
0.66910388
0.66887774
0.66866165
0.66845889
0.66827082
0.66809686
0.6679355
0.6677851
0.66764407
0.66751082