/*--------------------------------*- C++ -*----------------------------------*\
| =========                 |                                                 |
| \\      /  F ield         | OpenFOAM: The Open Source CFD Toolbox           |
|  \\    /   O peration     | Version:  2506                                  |
|   \\  /    A nd           | Website:  www.openfoam.com                      |
|    \\/     M anipulation  |                                                 |
\*---------------------------------------------------------------------------*/
FoamFile
{
    version     2.0;
    format      ascii;
    arch        "LSB;label=32;scalar=64";
    class       volScalarField;
    location    "0.033";
    object      rho;
}
// * * * * * * * * * * * * * * * * * * * * * * * * * * * * * * * * * * * * * //

dimensions      [1 -3 0 0 0 0 0];

internalField   nonuniform List<scalar> 
13761
(
0.57190267
0.57190231
0.57190118
0.5718986
0.57189385
0.57188646
0.57187653
0.57186453
0.57185086
0.57183581
0.57181952
0.57180206
0.57178345
0.57148332
0.57148297
0.57148187
0.57147941
0.57147488
0.57146784
0.57145837
0.57144687
0.57143372
0.57141914
0.57140325
0.57138609
0.57136766
0.57134794
0.57132686
0.57130434
0.5712803
0.57125462
0.5712272
0.57119792
0.57116666
0.57113327
0.57109765
0.57105968
0.57101926
0.57097633
0.57108222
0.57108189
0.57108084
0.57107849
0.57107414
0.57106734
0.57105816
0.57104695
0.57103404
0.57101964
0.57100382
0.57098663
0.57096804
0.57094802
0.5709265
0.57090339
0.5708786
0.57085201
0.57082351
0.57079299
0.57076032
0.57072537
0.57068803
0.57064819
0.57060577
0.57056072
0.57051304
0.5704628
0.57041013
0.57035532
0.57029879
0.57024118
0.57071095
0.57071063
0.57070961
0.57070731
0.57070306
0.57069638
0.57068732
0.57067619
0.57066329
0.5706488
0.5706328
0.57061529
0.57059626
0.57057565
0.57055339
0.57052939
0.57050355
0.57047575
0.57044589
0.57041385
0.5703795
0.57034273
0.57030343
0.57026151
0.57021691
0.57016959
0.57011959
0.57006699
0.57001199
0.56995491
0.56989624
0.56983668
0.56977723
0.56971926
0.56966461
0.56961578
0.69231569
0.6923157
0.69231578
0.69231602
0.69231653
0.69231749
0.69231909
0.69232155
0.692325
0.69232951
0.69233506
0.69234162
0.69234912
0.69235754
0.69236685
0.69237705
0.69238814
0.69240014
0.69241307
0.69242695
0.69244182
0.69245773
0.69247472
0.69249286
0.69251223
0.69253292
0.69255504
0.69257872
0.69260412
0.69263141
0.69266082
0.69269257
0.69272694
0.69276427
0.69280494
0.69284945
0.69289834
0.69295195
0.69300849
0.69305656
0.6930782
0.69308258
0.69308346
0.69308408
0.69308482
0.69308571
0.69308674
0.6930879
0.69308919
0.69309058
0.69309207
0.69309362
0.69215494
0.69215495
0.69215503
0.69215525
0.69215576
0.6921567
0.69215829
0.69216074
0.69216418
0.69216868
0.69217422
0.69218078
0.69218829
0.69219674
0.6922061
0.69221637
0.69222757
0.6922397
0.6922528
0.69226688
0.692282
0.69229818
0.69231549
0.69233398
0.69235372
0.69237481
0.69239735
0.69242147
0.69244731
0.69247505
0.6925049
0.69253709
0.69257191
0.69260969
0.69265083
0.69269584
0.69274533
0.69279979
0.69285812
0.69291063
0.69293717
0.69294323
0.69294463
0.69294565
0.6929468
0.69294812
0.69294961
0.69295126
0.69295307
0.692955
0.69295706
0.69295922
0.69296144
0.69296368
0.6929659
0.69296803
0.69297001
0.69297173
0.6929731
0.69297399
0.69297425
0.69297368
0.69199425
0.69199427
0.69199435
0.69199458
0.69199509
0.69199604
0.69199763
0.69200007
0.6920035
0.69200798
0.6920135
0.69202002
0.69202752
0.69203595
0.69204532
0.69205562
0.69206687
0.6920791
0.69209231
0.69210656
0.69212187
0.69213829
0.69215588
0.69217468
0.69219478
0.69221625
0.69223919
0.69226374
0.69229002
0.69231821
0.69234852
0.69238116
0.69241644
0.69245467
0.69249627
0.69254177
0.6925918
0.69264701
0.69270687
0.69276351
0.69279549
0.69280364
0.6928056
0.69280699
0.69280852
0.69281025
0.69281217
0.69281427
0.69281655
0.692819
0.69282159
0.6928243
0.6928271
0.69282995
0.69283281
0.6928356
0.69283827
0.69284071
0.69284283
0.6928445
0.69284557
0.69284586
0.69284517
0.69284324
0.6928398
0.69283449
0.69282693
0.69183398
0.691834
0.69183409
0.69183433
0.69183484
0.69183579
0.69183738
0.6918398
0.6918432
0.69184763
0.69185309
0.69185955
0.69186698
0.69187536
0.69188468
0.69189496
0.69190622
0.69191848
0.69193176
0.69194612
0.69196158
0.69197819
0.69199601
0.6920151
0.69203552
0.69205735
0.69208069
0.69210566
0.6921324
0.69216106
0.69219184
0.69222497
0.69226073
0.69229945
0.69234155
0.69238755
0.69243813
0.69249405
0.69255526
0.69261568
0.69265365
0.69266444
0.69266706
0.69266883
0.69267071
0.69267281
0.69267512
0.69267763
0.69268033
0.69268322
0.69268627
0.69268946
0.69269277
0.69269614
0.69269954
0.69270291
0.69270617
0.69270923
0.69271201
0.69271437
0.69271616
0.69271722
0.69271735
0.69271629
0.69271378
0.69270947
0.69270299
0.69269387
0.69268161
0.69266557
0.69264506
0.69167908
0.69167911
0.6916792
0.69167943
0.69167994
0.69168087
0.69168242
0.69168479
0.69168812
0.69169245
0.69169779
0.69170412
0.69171142
0.69171967
0.69172888
0.69173906
0.69175023
0.69176244
0.69177571
0.69179008
0.6918056
0.69182231
0.69184027
0.69185955
0.69188019
0.69190229
0.69192593
0.69195123
0.69197831
0.69200734
0.69203849
0.692072
0.69210813
0.6921472
0.69218964
0.69223597
0.6922869
0.69234327
0.69240545
0.69246907
0.69251329
0.69252724
0.69253049
0.69253247
0.69253457
0.6925369
0.69253946
0.69254224
0.69254524
0.69254843
0.69255181
0.69255535
0.69255902
0.69256278
0.69256659
0.69257039
0.69257411
0.69257766
0.69258096
0.69258388
0.69258629
0.692588
0.69258884
0.69258856
0.69258689
0.69258351
0.69257803
0.69257002
0.69255896
0.69254426
0.69252523
0.69250106
0.69247086
0.69243359
0.69152114
0.69152116
0.69152125
0.69152147
0.69152195
0.69152284
0.69152431
0.69152656
0.69152973
0.69153387
0.691539
0.6915451
0.69155217
0.69156021
0.69156922
0.69157923
0.69159027
0.69160238
0.69161559
0.69162996
0.69164554
0.69166237
0.6916805
0.69170001
0.69172096
0.69174342
0.69176749
0.69179326
0.69182087
0.69185047
0.69188223
0.69191636
0.69195314
0.69199287
0.69203597
0.69208297
0.69213457
0.69219167
0.69225499
0.69232175
0.69237296
0.6923913
0.69239561
0.69239799
0.69240038
0.69240296
0.69240575
0.69240874
0.69241192
0.6924153
0.69241885
0.69242257
0.69242642
0.69243038
0.6924344
0.69243844
0.69244244
0.69244631
0.69244996
0.69245329
0.69245616
0.6924584
0.69245982
0.69246021
0.69245928
0.69245672
0.69245217
0.6924452
0.69243529
0.69242187
0.69240426
0.69238167
0.69235323
0.69231792
0.69227458
0.69222193
0.69215852
0.69139035
0.69139037
0.69139045
0.69139066
0.6913911
0.69139193
0.6913933
0.69139541
0.69139837
0.69140226
0.69140709
0.69141285
0.69141955
0.69142718
0.69143577
0.69144536
0.69145597
0.69146766
0.69148047
0.69149446
0.69150967
0.69152616
0.69154399
0.69156322
0.69158392
0.69160616
0.69163002
0.69165561
0.69168305
0.69171247
0.69174405
0.69177798
0.69181453
0.691854
0.6918968
0.69194345
0.69199467
0.69205142
0.69211467
0.69218298
0.69224004
0.69226273
0.6922675
0.69226948
0.69227143
0.6922736
0.69227602
0.69227869
0.69228159
0.69228472
0.69228807
0.69229162
0.69229534
0.69229922
0.69230321
0.69230726
0.69231131
0.6923153
0.69231913
0.69232269
0.69232587
0.69232849
0.69233037
0.6923313
0.69233101
0.69232919
0.69232549
0.69231947
0.69231064
0.69229844
0.6922822
0.69226115
0.69223443
0.69220103
0.69215983
0.69210956
0.69204881
0.691976
0.69188944
0.69125986
0.69125988
0.69125995
0.69126015
0.69126058
0.69126138
0.69126274
0.69126481
0.69126772
0.69127152
0.69127621
0.6912818
0.69128827
0.69129563
0.69130391
0.69131315
0.6913234
0.6913347
0.69134712
0.69136072
0.69137555
0.69139169
0.69140919
0.69142813
0.69144857
0.69147059
0.69149428
0.69151973
0.69154706
0.69157639
0.6916079
0.69164177
0.69167825
0.69171763
0.69176031
0.69180681
0.69185784
0.69191439
0.69197761
0.69204706
0.69210946
0.69213729
0.6921428
0.6921443
0.69214564
0.69214721
0.69214904
0.69215114
0.6921535
0.69215614
0.69215903
0.69216217
0.69216554
0.69216911
0.69217285
0.69217671
0.69218065
0.69218458
0.69218843
0.69219209
0.69219543
0.6921983
0.69220053
0.6922019
0.69220214
0.69220097
0.69219802
0.69219288
0.69218506
0.69217402
0.69215909
0.69213953
0.69211447
0.69208295
0.69204385
0.69199592
0.69193777
0.69186786
0.69178449
0.69168585
0.69156997
0.69111926
0.69111928
0.69111936
0.69111958
0.69112003
0.69112087
0.69112227
0.69112439
0.69112735
0.69113119
0.6911359
0.69114148
0.6911479
0.69115517
0.69116333
0.6911724
0.69118245
0.69119353
0.6912057
0.69121904
0.69123361
0.69124949
0.69126676
0.6912855
0.69130578
0.69132769
0.69135131
0.69137675
0.69140412
0.69143355
0.6914652
0.69149925
0.69153593
0.69157554
0.69161844
0.69166517
0.69171641
0.69177316
0.69183671
0.69190737
0.69197486
0.692009
0.69201609
0.69201756
0.69201865
0.69201994
0.69202146
0.69202323
0.69202526
0.69202754
0.69203008
0.69203288
0.69203593
0.6920392
0.69204267
0.69204631
0.69205007
0.69205388
0.69205767
0.69206134
0.69206476
0.69206781
0.69207029
0.692072
0.6920727
0.69207208
0.69206981
0.69206548
0.69205861
0.69204866
0.69203498
0.69201684
0.6919934
0.6919637
0.69192665
0.69188102
0.69182543
0.69175836
0.69167815
0.69158299
0.69147093
0.69133993
0.69097559
0.69097561
0.69097569
0.6909759
0.69097635
0.69097719
0.6909786
0.69098073
0.69098371
0.69098756
0.69099229
0.69099786
0.69100427
0.69101151
0.6910196
0.69102859
0.69103852
0.69104944
0.69106144
0.69107458
0.69108894
0.6911046
0.69112165
0.69114017
0.69116027
0.69118202
0.69120553
0.69123091
0.69125826
0.69128773
0.69131947
0.69135367
0.69139053
0.69143034
0.69147348
0.69152045
0.69157193
0.69162893
0.6916928
0.69176444
0.69183636
0.69187752
0.69188684
0.69188849
0.6918895
0.69189066
0.69189206
0.69189369
0.69189557
0.69189769
0.69190007
0.69190269
0.69190556
0.69190866
0.69191196
0.69191545
0.69191909
0.6919228
0.69192654
0.69193021
0.6919337
0.69193687
0.69193956
0.69194158
0.69194267
0.69194255
0.6919409
0.69193731
0.69193132
0.69192239
0.69190991
0.69189314
0.69187126
0.69184333
0.69180828
0.69176489
0.69171181
0.69164755
0.69157045
0.69147872
0.69137044
0.69124357
0.69109601
0.69092562
0.69082895
0.69082898
0.69082907
0.69082929
0.69082976
0.69083062
0.69083205
0.69083422
0.69083722
0.69084111
0.69084586
0.69085145
0.69085787
0.6908651
0.69087317
0.69088211
0.69089196
0.6909028
0.69091468
0.69092768
0.69094188
0.69095737
0.69097423
0.69099258
0.69101249
0.69103409
0.69105747
0.69108276
0.69111007
0.69113955
0.69117135
0.69120565
0.69124268
0.69128271
0.6913261
0.69137333
0.6914251
0.6914824
0.69154662
0.6916191
0.69169476
0.69174342
0.69175569
0.69175767
0.69175864
0.69175975
0.69176107
0.69176263
0.69176443
0.69176648
0.69176878
0.69177133
0.69177411
0.69177713
0.69178037
0.69178379
0.69178737
0.69179106
0.6917948
0.6917985
0.69180207
0.69180537
0.69180826
0.69181055
0.691812
0.69181235
0.69181127
0.69180837
0.69180321
0.69179526
0.69178392
0.69176846
0.69174809
0.69172188
0.69168877
0.69164758
0.69159697
0.69153546
0.69146142
0.69137308
0.69126853
0.69114575
0.69100263
0.69083704
0.69064683
0.69068071
0.69068073
0.69068081
0.69068103
0.69068149
0.69068234
0.69068377
0.69068593
0.69068894
0.69069282
0.69069757
0.69070316
0.69070956
0.69071677
0.69072482
0.69073372
0.69074353
0.6907543
0.69076609
0.69077899
0.69079306
0.69080841
0.69082513
0.69084331
0.69086307
0.69088451
0.69090776
0.69093293
0.69096017
0.69098962
0.69102144
0.69105582
0.69109298
0.69113319
0.6911768
0.69122431
0.69127637
0.69133398
0.69139857
0.69147175
0.6915505
0.69160689
0.69162294
0.69162544
0.69162643
0.6916275
0.69162879
0.69163032
0.69163209
0.6916341
0.69163636
0.69163887
0.69164162
0.69164462
0.69164783
0.69165124
0.69165482
0.69165853
0.69166231
0.69166608
0.69166975
0.69167321
0.69167631
0.69167887
0.69168067
0.69168146
0.69168092
0.69167868
0.69167431
0.69166729
0.69165703
0.69164285
0.69162393
0.69159939
0.69156818
0.69152913
0.69148093
0.69142212
0.6913511
0.6912661
0.69116524
0.6910465
0.69090779
0.69074696
0.69056187
0.69035041
0.69053062
0.69053065
0.69053074
0.69053097
0.69053144
0.69053231
0.69053376
0.69053594
0.69053897
0.69054287
0.69054763
0.69055322
0.69055961
0.69056682
0.69057484
0.69058372
0.69059349
0.69060421
0.69061594
0.69062875
0.69064273
0.69065797
0.69067456
0.69069261
0.69071223
0.69073353
0.69075665
0.69078171
0.69080885
0.69083824
0.69087005
0.69090446
0.69094171
0.69098207
0.69102588
0.69107364
0.69112599
0.69118391
0.69124885
0.69132263
0.69140389
0.69146798
0.6914887
0.69149195
0.691493
0.69149407
0.69149535
0.69149687
0.69149863
0.69150063
0.69150289
0.6915054
0.69150815
0.69151115
0.69151437
0.69151781
0.69152142
0.69152518
0.69152903
0.6915329
0.6915367
0.69154033
0.69154365
0.69154648
0.69154864
0.69154985
0.69154984
0.69154824
0.69154462
0.6915385
0.69152929
0.69151632
0.69149882
0.6914759
0.69144653
0.69140958
0.69136374
0.69130759
0.69123953
0.69115783
0.6910606
0.69094586
0.69081151
0.69065541
0.6904754
0.69026936
0.69003532
0.68977148
0.69037952
0.69037955
0.69037963
0.69037985
0.69038031
0.69038117
0.69038261
0.69038478
0.69038779
0.69039168
0.69039642
0.69040199
0.69040836
0.69041554
0.69042354
0.69043237
0.6904421
0.69045277
0.69046444
0.69047719
0.69049109
0.69050623
0.69052272
0.69054065
0.69056015
0.69058132
0.69060432
0.69062926
0.6906563
0.69068562
0.69071739
0.6907518
0.69078911
0.69082957
0.69087355
0.69092152
0.69097413
0.69103236
0.69109764
0.69117193
0.69125519
0.69132668
0.69135305
0.69135732
0.69135847
0.69135955
0.69136084
0.69136237
0.69136414
0.69136616
0.69136843
0.69137096
0.69137374
0.69137676
0.69138003
0.69138351
0.69138719
0.69139102
0.69139496
0.69139895
0.6914029
0.69140671
0.69141026
0.69141339
0.69141589
0.69141753
0.69141803
0.69141704
0.69141416
0.6914089
0.69140071
0.69138892
0.69137279
0.69135144
0.69132387
0.69128896
0.69124544
0.69119189
0.69112674
0.69104828
0.69095464
0.69084385
0.69071382
0.69056241
0.69038744
0.6901868
0.68995845
0.68970059
0.68941165
0.69022696
0.69022699
0.69022708
0.69022731
0.69022779
0.69022866
0.69023012
0.69023231
0.69023533
0.69023922
0.69024396
0.69024952
0.69025589
0.69026304
0.69027101
0.69027982
0.69028951
0.69030013
0.69031175
0.69032443
0.69033826
0.69035332
0.69036972
0.69038755
0.69040694
0.690428
0.69045087
0.6904757
0.69050265
0.69053188
0.69056359
0.69059799
0.69063531
0.69067585
0.69071995
0.6907681
0.69082095
0.69087946
0.69094505
0.69101979
0.69110463
0.691183
0.69121599
0.69122166
0.69122295
0.69122405
0.69122536
0.6912269
0.69122869
0.69123074
0.69123304
0.6912356
0.69123842
0.6912415
0.69124482
0.69124837
0.69125212
0.69125605
0.69126011
0.69126423
0.69126835
0.69127236
0.69127615
0.69127957
0.69128242
0.69128449
0.69128549
0.69128511
0.69128294
0.69127852
0.69127131
0.69126067
0.69124587
0.69122604
0.69120023
0.69116732
0.69112606
0.69107506
0.69101277
0.6909375
0.6908474
0.69074051
0.69061475
0.69046798
0.69029802
0.69010274
0.68988008
0.68962818
0.68934544
0.68903059
0.69007356
0.69007359
0.69007368
0.6900739
0.69007437
0.69007525
0.6900767
0.69007888
0.6900819
0.69008578
0.6900905
0.69009604
0.69010238
0.6901095
0.69011744
0.69012621
0.69013585
0.69014643
0.69015799
0.69017062
0.69018437
0.69019936
0.69021567
0.69023341
0.6902527
0.69027365
0.69029642
0.69032114
0.69034799
0.69037713
0.69040877
0.69044313
0.69048045
0.69052102
0.69056522
0.69061352
0.69066657
0.69072532
0.6907912
0.69086633
0.69095242
0.69103695
0.69107753
0.69108504
0.69108653
0.69108766
0.69108899
0.69109056
0.69109238
0.69109446
0.6910968
0.6910994
0.69110227
0.69110541
0.6911088
0.69111243
0.69111627
0.69112031
0.69112449
0.69112877
0.69113306
0.69113729
0.69114133
0.69114504
0.69114825
0.69115074
0.69115224
0.69115244
0.69115097
0.69114737
0.69114112
0.6911316
0.69111808
0.69109975
0.69107564
0.69104468
0.69100563
0.69095714
0.69089766
0.69082552
0.69073891
0.69063587
0.69051433
0.69037216
0.69020717
0.69001721
0.6898002
0.68955426
0.68927771
0.68896923
0.68862792
0.68991901
0.68991904
0.68991913
0.68991937
0.68991985
0.68992074
0.6899222
0.6899244
0.68992743
0.68993131
0.68993603
0.68994156
0.68994788
0.68995498
0.68996288
0.68997162
0.68998122
0.68999175
0.69000326
0.69001583
0.69002952
0.69004444
0.69006067
0.69007832
0.69009751
0.69011837
0.69014103
0.69016565
0.6901924
0.69022145
0.69025301
0.69028732
0.69032461
0.6903652
0.69040946
0.69045787
0.69051109
0.69057005
0.69063619
0.69071166
0.69079873
0.69088861
0.6909376
0.69094753
0.69094929
0.69095046
0.69095182
0.69095341
0.69095526
0.69095738
0.69095976
0.69096242
0.69096535
0.69096855
0.69097201
0.69097573
0.69097968
0.69098383
0.69098815
0.69099258
0.69099707
0.69100151
0.69100581
0.69100982
0.69101339
0.69101629
0.69101829
0.69101908
0.69101828
0.69101548
0.69101017
0.69100173
0.69098947
0.69097259
0.69095015
0.69092109
0.69088421
0.69083816
0.69078143
0.69071238
0.6906292
0.69052995
0.69041258
0.69027496
0.6901149
0.68993023
0.68971885
0.68947884
0.68920847
0.68890638
0.68857157
0.68976404
0.68976407
0.68976415
0.68976437
0.68976484
0.6897657
0.68976714
0.68976931
0.6897723
0.68977615
0.68978083
0.68978632
0.68979259
0.68979965
0.68980751
0.68981619
0.68982574
0.68983622
0.68984767
0.68986017
0.6898738
0.68988864
0.68990479
0.68992236
0.68994146
0.68996222
0.68998479
0.69000931
0.69003595
0.69006491
0.69009639
0.69013063
0.69016788
0.69020847
0.69025276
0.69030125
0.6903546
0.69041374
0.69048011
0.69055587
0.6906437
0.69073806
0.69079612
0.69080917
0.69081132
0.69081253
0.69081391
0.69081554
0.69081742
0.69081958
0.690822
0.69082471
0.6908277
0.69083097
0.69083452
0.69083832
0.69084238
0.69084666
0.69085112
0.69085572
0.69086039
0.69086506
0.69086962
0.69087394
0.69087786
0.69088118
0.69088366
0.69088502
0.6908849
0.69088288
0.69087847
0.69087109
0.69086006
0.69084459
0.69082378
0.69079657
0.69076181
0.69071815
0.69066413
0.69059811
0.69051831
0.6904228
0.69030955
0.69017643
0.69002124
0.68984182
0.68963604
0.68940194
0.68913775
0.68884203
0.68851374
0.68815231
0.68960808
0.68960811
0.6896082
0.68960842
0.68960889
0.68960976
0.6896112
0.68961336
0.68961635
0.68962018
0.68962483
0.68963029
0.68963652
0.68964354
0.68965135
0.68965998
0.68966948
0.6896799
0.68969129
0.68970372
0.68971728
0.68973204
0.68974812
0.6897656
0.68978461
0.68980528
0.68982775
0.68985217
0.68987871
0.68990757
0.68993897
0.68997313
0.69001033
0.69005089
0.69009519
0.69014373
0.69019718
0.69025647
0.69032302
0.69039903
0.69048744
0.69058545
0.69065298
0.69067
0.69067266
0.69067394
0.69067534
0.690677
0.69067891
0.69068111
0.69068358
0.69068634
0.6906894
0.69069274
0.69069636
0.69070027
0.69070443
0.69070883
0.69071344
0.69071821
0.69072308
0.69072797
0.69073279
0.69073741
0.69074168
0.69074542
0.69074839
0.69075031
0.69075084
0.69074959
0.69074607
0.69073972
0.69072988
0.69071579
0.69069656
0.69067118
0.69063848
0.69059717
0.6905458
0.69048275
0.69040626
0.69031444
0.69020526
0.69007658
0.68992623
0.68975201
0.6895518
0.68932358
0.68906555
0.68877621
0.68845445
0.68809962
0.68771159
0.6894513
0.68945133
0.68945142
0.68945165
0.68945213
0.689453
0.68945445
0.68945662
0.68945961
0.68946344
0.68946808
0.68947351
0.68947971
0.68948669
0.68949446
0.68950305
0.68951249
0.68952285
0.68953418
0.68954655
0.68956003
0.68957472
0.68959071
0.68960811
0.68962704
0.68964761
0.68966998
0.6896943
0.68972074
0.68974951
0.68978081
0.68981489
0.68985202
0.68989253
0.68993682
0.68998539
0.6900389
0.69009831
0.69016501
0.69024121
0.69033006
0.69043095
0.69050807
0.69053002
0.69053338
0.69053473
0.69053616
0.69053785
0.6905398
0.69054204
0.69054456
0.69054737
0.69055049
0.6905539
0.69055761
0.69056161
0.69056588
0.69057041
0.69057516
0.6905801
0.69058516
0.69059028
0.69059536
0.69060028
0.69060491
0.69060905
0.69061249
0.69061496
0.69061614
0.69061563
0.69061298
0.69060764
0.69059897
0.69058623
0.69056854
0.69054493
0.69051425
0.69047524
0.69042646
0.69036633
0.69029311
0.69020492
0.69009974
0.68997546
0.68982989
0.68966083
0.68946614
0.68924377
0.68899189
0.68870892
0.6883937
0.68804549
0.68766409
0.68724988
0.68929405
0.68929409
0.68929417
0.6892944
0.68929488
0.68929575
0.68929719
0.68929935
0.68930232
0.68930612
0.68931073
0.68931613
0.68932229
0.68932923
0.68933695
0.68934548
0.68935486
0.68936516
0.68937642
0.68938872
0.68940213
0.68941674
0.68943265
0.68944997
0.6894688
0.68948928
0.68951155
0.68953577
0.68956211
0.68959077
0.68962197
0.68965596
0.68969302
0.68973347
0.68977773
0.68982629
0.68987985
0.68993933
0.69000615
0.69008249
0.69017165
0.69027475
0.69036126
0.69038923
0.69039353
0.69039498
0.69039644
0.69039816
0.69040014
0.69040242
0.69040498
0.69040785
0.69041103
0.69041451
0.69041831
0.6904224
0.69042678
0.69043143
0.69043633
0.69044143
0.69044669
0.69045203
0.69045736
0.69046258
0.69046755
0.6904721
0.690476
0.69047902
0.69048082
0.69048105
0.69047924
0.69047489
0.69046735
0.69045592
0.69043974
0.69041786
0.69038916
0.69035239
0.69030616
0.69024889
0.69017888
0.69009426
0.68999303
0.68987308
0.68973224
0.6895683
0.68937909
0.68916255
0.68891678
0.68864018
0.68833151
0.68798994
0.6876152
0.68720756
0.68676792
0.68913611
0.68913614
0.68913623
0.68913646
0.68913694
0.68913782
0.68913927
0.68914143
0.6891444
0.68914819
0.68915278
0.68915815
0.68916428
0.68917117
0.68917884
0.68918732
0.68919665
0.68920688
0.68921808
0.6892303
0.68924364
0.68925817
0.689274
0.68929122
0.68930996
0.68933035
0.68935252
0.68937663
0.68940287
0.68943142
0.68946252
0.68949641
0.68953338
0.68957376
0.68961797
0.68966651
0.68972007
0.6897796
0.6898465
0.68992294
0.6900123
0.69011705
0.69021245
0.69024762
0.69025317
0.69025474
0.69025624
0.69025798
0.69026
0.69026231
0.69026492
0.69026784
0.69027108
0.69027463
0.69027851
0.69028269
0.69028718
0.69029196
0.69029699
0.69030226
0.6903077
0.69031326
0.69031884
0.69032436
0.69032967
0.6903346
0.69033897
0.69034251
0.69034493
0.69034586
0.69034489
0.69034149
0.69033506
0.69032491
0.69031021
0.69029001
0.69026324
0.69022867
0.69018493
0.69013047
0.69006361
0.6899825
0.68988516
0.68976949
0.68963332
0.68947445
0.68929068
0.68907992
0.68884025
0.68857001
0.68826787
0.68793296
0.68756491
0.6871639
0.68673074
0.68897786
0.68897789
0.68897798
0.68897821
0.68897868
0.68897955
0.68898098
0.68898313
0.68898608
0.68898984
0.68899439
0.68899972
0.6890058
0.68901264
0.68902026
0.68902867
0.68903794
0.6890481
0.68905923
0.68907138
0.68908463
0.68909908
0.68911482
0.68913196
0.6891506
0.68917088
0.68919295
0.68921696
0.68924309
0.68927153
0.68930252
0.68933631
0.68937318
0.68941348
0.68945761
0.68950611
0.68955966
0.6896192
0.68968614
0.68976263
0.6898521
0.68995806
0.69006159
0.69010514
0.69011234
0.69011409
0.69011561
0.69011738
0.69011943
0.69012178
0.69012443
0.6901274
0.6901307
0.69013432
0.69013826
0.69014254
0.69014713
0.69015202
0.6901572
0.69016262
0.69016825
0.69017402
0.69017985
0.69018565
0.69019128
0.6901966
0.69020141
0.69020547
0.69020848
0.69021012
0.69020995
0.69020748
0.69020214
0.69019323
0.69017996
0.69016141
0.69013653
0.69010411
0.69006281
0.69001111
0.68994734
0.68986968
0.68977617
0.68966472
0.68953317
0.6893793
0.68920093
0.68899592
0.68876231
0.6884984
0.68820281
0.68787457
0.68751323
0.68711889
0.68669227
0.68623465
0.68881903
0.68881906
0.68881916
0.68881939
0.68881987
0.68882074
0.68882218
0.68882432
0.68882726
0.688831
0.68883553
0.68884083
0.68884687
0.68885366
0.68886122
0.68886958
0.68887878
0.68888888
0.68889993
0.688912
0.68892517
0.68893954
0.68895518
0.68897222
0.68899077
0.68901095
0.68903291
0.68905681
0.68908282
0.68911116
0.68914203
0.68917571
0.68921247
0.68925267
0.68929673
0.68934516
0.68939867
0.68945819
0.68952513
0.68960164
0.68969115
0.68979794
0.68990865
0.68996172
0.68997109
0.68997307
0.68997462
0.68997642
0.6899785
0.68998088
0.68998357
0.68998659
0.68998994
0.68999362
0.68999764
0.690002
0.69000669
0.69001169
0.690017
0.69002257
0.69002837
0.69003435
0.69004042
0.69004649
0.69005244
0.69005813
0.69006337
0.69006793
0.69007153
0.69007384
0.69007445
0.6900729
0.69006861
0.69006091
0.69004905
0.69003211
0.69000907
0.68997875
0.68993983
0.68989083
0.68983009
0.68975582
0.68966608
0.6895588
0.6894318
0.6892829
0.68910986
0.68891056
0.68868299
0.6884254
0.68813633
0.68781477
0.68746016
0.68707253
0.6866525
0.68620126
0.68572067
0.68866009
0.68866012
0.68866021
0.68866044
0.68866091
0.68866177
0.6886632
0.68866532
0.68866823
0.68867194
0.68867643
0.68868168
0.68868767
0.6886944
0.6887019
0.68871019
0.68871932
0.68872934
0.68874031
0.6887523
0.68876538
0.68877965
0.68879521
0.68881214
0.68883059
0.68885066
0.68887251
0.68889629
0.68892219
0.6889504
0.68898116
0.68901471
0.68905136
0.68909145
0.68913541
0.68918376
0.6892372
0.68929667
0.68936358
0.68944005
0.68952954
0.68963687
0.68975369
0.68981731
0.68982949
0.68983176
0.68983335
0.68983516
0.68983727
0.68983968
0.68984241
0.68984547
0.68984886
0.6898526
0.68985669
0.68986112
0.6898659
0.68987101
0.68987644
0.68988216
0.68988813
0.68989429
0.68990059
0.68990692
0.68991319
0.68991923
0.68992489
0.68992993
0.6899341
0.68993706
0.68993844
0.68993777
0.6899345
0.689928
0.68991749
0.68990213
0.68988088
0.68985262
0.68981604
0.68976968
0.68971192
0.68964098
0.68955494
0.68945176
0.68932926
0.68918526
0.68901752
0.68882387
0.6886023
0.688351
0.68806845
0.68775357
0.68740572
0.68702483
0.68661143
0.68616663
0.6856922
0.68850068
0.68850071
0.68850081
0.68850104
0.68850151
0.68850238
0.6885038
0.68850592
0.68850882
0.68851251
0.68851696
0.68852217
0.68852811
0.68853479
0.68854223
0.68855045
0.68855951
0.68856945
0.68858034
0.68859224
0.68860524
0.68861941
0.68863487
0.6886517
0.68867004
0.68869
0.68871174
0.6887354
0.68876118
0.68878927
0.6888199
0.68885333
0.68888985
0.68892982
0.68897367
0.68902192
0.68907527
0.68913468
0.68920152
0.68927793
0.68936734
0.68947497
0.68959679
0.68967177
0.68968755
0.68969022
0.68969186
0.68969369
0.68969581
0.68969825
0.689701
0.6897041
0.68970753
0.68971132
0.68971547
0.68971997
0.68972483
0.68973004
0.68973558
0.68974143
0.68974755
0.6897539
0.68976041
0.68976699
0.68977355
0.68977994
0.689786
0.68979151
0.68979623
0.68979983
0.68980195
0.68980214
0.68979987
0.68979451
0.68978534
0.6897715
0.68975202
0.68972576
0.68969146
0.68964769
0.68959284
0.68952518
0.68944279
0.68934363
0.68922558
0.68908641
0.68892391
0.68873588
0.68852028
0.68827523
0.68799919
0.68769098
0.6873499
0.68697579
0.68656907
0.68613077
0.68566256
0.68516679
0.68834148
0.68834152
0.68834161
0.68834184
0.6883423
0.68834316
0.68834456
0.68834666
0.68834952
0.68835317
0.68835758
0.68836273
0.6883686
0.68837522
0.68838258
0.68839072
0.6883997
0.68840956
0.68842035
0.68843216
0.68844506
0.68845913
0.68847447
0.6884912
0.68850941
0.68852926
0.68855087
0.68857441
0.68860005
0.68862801
0.6886585
0.68869179
0.68872817
0.68876801
0.68881172
0.68885985
0.68891309
0.68897239
0.68903914
0.68911544
0.68920472
0.68931243
0.68943816
0.68952504
0.68954536
0.68954856
0.68955024
0.68955208
0.68955421
0.68955666
0.68955943
0.68956255
0.68956601
0.68956984
0.68957403
0.68957859
0.68958351
0.6895888
0.68959444
0.68960041
0.68960668
0.6896132
0.68961991
0.68962674
0.68963357
0.6896403
0.68964674
0.68965271
0.68965795
0.68966217
0.68966501
0.68966603
0.68966473
0.6896605
0.68965262
0.68964028
0.6896225
0.68959821
0.68956614
0.6895249
0.68947291
0.68940845
0.68932964
0.68923447
0.68912079
0.6889864
0.68882908
0.68864662
0.68843693
0.68819812
0.68792856
0.68762702
0.68729272
0.68692541
0.68652541
0.68609366
0.68563175
0.68514195
0.684627
0.68818277
0.68818281
0.6881829
0.68818313
0.6881836
0.68818446
0.68818586
0.68818795
0.68819081
0.68819443
0.6881988
0.68820391
0.68820973
0.68821628
0.68822357
0.68823164
0.68824053
0.68825029
0.68826099
0.6882727
0.68828548
0.68829944
0.68831466
0.68833126
0.68834934
0.68836904
0.68839051
0.6884139
0.68843939
0.68846718
0.68849751
0.68853063
0.68856685
0.68860651
0.68865005
0.68869801
0.68875109
0.68881023
0.68887682
0.68895295
0.68904202
0.68914962
0.68927821
0.68937713
0.68940305
0.68940693
0.68940863
0.68941044
0.68941256
0.68941499
0.68941776
0.68942087
0.68942435
0.68942819
0.68943241
0.68943701
0.68944199
0.68944735
0.68945308
0.68945915
0.68946555
0.68947223
0.68947913
0.68948618
0.68949329
0.68950032
0.68950714
0.68951354
0.68951929
0.68952411
0.68952765
0.68952948
0.68952913
0.68952598
0.68951937
0.68950848
0.68949238
0.68946999
0.68944011
0.68940134
0.68935216
0.68929085
0.68921555
0.68912428
0.68901491
0.68888525
0.68873305
0.6885561
0.68835228
0.68811967
0.68785658
0.6875617
0.68723418
0.68687369
0.68648046
0.68605531
0.68559977
0.685116
0.6846067
0.68802323
0.68802327
0.68802336
0.68802359
0.68802405
0.6880249
0.6880263
0.68802837
0.6880312
0.68803479
0.68803912
0.68804418
0.68804995
0.68805644
0.68806366
0.68807166
0.68808047
0.68809014
0.68810075
0.68811235
0.68812503
0.68813888
0.68815398
0.68817046
0.68818841
0.68820798
0.68822931
0.68825256
0.68827791
0.68830555
0.68833572
0.68836869
0.68840475
0.68844425
0.68848764
0.68853545
0.68858838
0.68864738
0.68871382
0.68878978
0.68887863
0.68898601
0.68911663
0.68922743
0.68926021
0.68926502
0.68926678
0.68926859
0.6892707
0.68927312
0.68927589
0.68927901
0.68928249
0.68928635
0.68929059
0.68929523
0.68930026
0.68930568
0.68931149
0.68931766
0.68932418
0.68933101
0.68933809
0.68934535
0.68935271
0.68936005
0.68936723
0.68937405
0.6893803
0.6893857
0.68938991
0.68939253
0.68939309
0.68939101
0.68938562
0.68937615
0.68936167
0.68934116
0.6893134
0.68927706
0.68923061
0.68917239
0.68910055
0.68901312
0.688908
0.68878299
0.68863585
0.68846436
0.68826637
0.68803991
0.68778326
0.68749503
0.6871743
0.68682065
0.6864342
0.68601571
0.68556659
0.68508895
0.68458538
0.68405894
0.68786314
0.68786318
0.68786327
0.6878635
0.68786397
0.68786483
0.68786622
0.68786829
0.68787111
0.68787468
0.68787899
0.68788401
0.68788974
0.68789617
0.68790334
0.68791126
0.68792
0.68792959
0.68794011
0.68795161
0.68796419
0.68797792
0.68799291
0.68800926
0.68802709
0.68804652
0.68806771
0.68809081
0.688116
0.68814349
0.6881735
0.6882063
0.68824219
0.68828153
0.68832475
0.68837239
0.68842515
0.68848399
0.68855026
0.68862602
0.68871461
0.68882168
0.6889536
0.68907574
0.68911671
0.68912277
0.68912464
0.68912645
0.68912856
0.68913099
0.68913377
0.6891369
0.6891404
0.68914428
0.68914855
0.68915323
0.68915831
0.68916379
0.68916968
0.68917595
0.68918259
0.68918956
0.68919681