/*--------------------------------*- C++ -*----------------------------------*\
| =========                 |                                                 |
| \\      /  F ield         | OpenFOAM: The Open Source CFD Toolbox           |
|  \\    /   O peration     | Version:  2506                                  |
|   \\  /    A nd           | Website:  www.openfoam.com                      |
|    \\/     M anipulation  |                                                 |
\*---------------------------------------------------------------------------*/
FoamFile
{
    version     2.0;
    format      ascii;
    arch        "LSB;label=32;scalar=64";
    class       volScalarField;
    location    "0.0295";
    object      Ma;
}
// * * * * * * * * * * * * * * * * * * * * * * * * * * * * * * * * * * * * * //

dimensions      [0 0 0 0 0 0 0];

internalField   nonuniform List<scalar> 
13761
(
0.29964118
0.29890226
0.30085301
0.29899873
0.30034265
0.29898285
0.30009889
0.30081253
0.30172331
0.30125062
0.30007116
0.30020022
0.301296
0.30126895
0.30070835
0.30132308
0.30153088
0.3014124
0.30162326
0.30179365
0.30185523
0.30196854
0.30214147
0.30218604
0.30223551
0.30244977
0.30275763
0.30289824
0.30293046
0.30306218
0.30324234
0.3033506
0.30335818
0.30338286
0.30348257
0.3035371
0.30363523
0.30371607
0.30371714
0.30377476
0.30384052
0.30388148
0.30398623
0.30410025
0.2996394
0.29890066
0.3008518
0.29900144
0.30034339
0.29898146
0.30009074
0.30080139
0.30172085
0.30125999
0.30007803
0.30018902
0.30128929
0.30127182
0.3007052
0.3013169
0.3015299
0.30141126
0.30161965
0.30179049
0.30185418
0.30196702
0.30213098
0.30217784
0.30222281
0.30242932
0.30274063
0.30287862
0.302909
0.30303536
0.303212
0.303321
0.30332367
0.30334141
0.30343207
0.30349418
0.3035866
0.30366439
0.30365787
0.3037057
0.30376025
0.30379116
0.30388619
0.3039898
0.29963273
0.29889603
0.30085227
0.29900436
0.30034521
0.29897848
0.30008368
0.30079225
0.30171896
0.30126856
0.30008391
0.30017827
0.30128325
0.30127391
0.30070217
0.3013109
0.30152846
0.3014097
0.30161623
0.30178671
0.30185174
0.30196413
0.30211957
0.30217005
0.30220879
0.30241193
0.30271998
0.30285957
0.30288663
0.30300494
0.30318106
0.30328878
0.30328894
0.30330167
0.30338828
0.3034466
0.30354241
0.30361212
0.30360071
0.3036412
0.30368506
0.30370716
0.30378721
0.30388188
0.30403123
0.29962015
0.298889
0.30085344
0.29900622
0.300348
0.2989727
0.30007619
0.30078304
0.30171741
0.30127847
0.30009043
0.30016621
0.30127728
0.3012763
0.30069883
0.30130474
0.30152684
0.30140761
0.30161247
0.30178288
0.30184921
0.30196037
0.30210999
0.30216058
0.30219557
0.30239053
0.30270132
0.30284068
0.30286453
0.30297833
0.30315056
0.30325926
0.30325468
0.30326084
0.30333789
0.3034017
0.30349017
0.30355747
0.30353831
0.30357007
0.30360193
0.30361363
0.30368422
0.30376927
0.30390086
0.29959995
0.29887884
0.30085555
0.2990068
0.3003521
0.29896642
0.30006959
0.30077534
0.30171623
0.30128781
0.30009631
0.30015459
0.30127185
0.30127817
0.30069571
0.30129897
0.301525
0.30140537
0.30160871
0.30177852
0.30184551
0.3019559
0.30209838
0.30215193
0.30218012
0.30237306
0.30267988
0.30282021
0.30284098
0.30294714
0.30311866
0.303227
0.30322082
0.30322125
0.30329479
0.3033516
0.30344378
0.30350261
0.30347838
0.30350321
0.30352439
0.30352703
0.30358355
0.30365917
0.30377521
0.29957622
0.2988652
0.30085756
0.29900735
0.30035521
0.29896317
0.3000622
0.30076699
0.30171547
0.30129868
0.30010331
0.30014181
0.30126611
0.30128058
0.30069265
0.30129301
0.30152318
0.30140278
0.30160444
0.30177412
0.30184209
0.30195086
0.30208876
0.30214141
0.3021658
0.30235069
0.30266121
0.30280207
0.30281947
0.30292061
0.3030886
0.3031984
0.30318656
0.30318176
0.30324496
0.30330531
0.30338881
0.30344543
0.30341384
0.30343067
0.303439
0.30343105
0.30347841
0.30354444
0.30364193
0.2995554
0.29884898
0.3008577
0.29900707
0.3003551
0.29896402
0.30005475
0.30075967
0.30171527
0.30130885
0.30010981
0.30012932
0.30126074
0.30128254
0.3006896
0.3012874
0.30152109
0.3014001
0.30160018
0.3017694
0.30183772
0.30194517
0.30207692
0.30213038
0.30214909
0.30233149
0.30263897
0.30278156
0.30279549
0.30288908
0.3030571
0.30316706
0.30315362
0.30314281
0.30320228
0.30325335
0.30334083
0.30338843
0.30335161
0.3033619
0.30335952
0.30334213
0.3033766
0.30343211
0.30351349
0.29954043
0.29883743
0.30085962
0.29900792
0.30035373
0.29896956
0.30004625
0.30075095
0.30171507
0.30132045
0.3001177
0.30011572
0.30125473
0.30128582
0.30068646
0.30128131
0.30151917
0.30139738
0.30159544
0.30176481
0.3018336
0.30193924
0.3020674
0.30211891
0.30213392
0.30230955
0.3026202
0.30276556
0.30277453
0.30286318
0.303027
0.3031393
0.30311994
0.30310457
0.30315307
0.30320545
0.30328379
0.30332901
0.30328538
0.30328808
0.30327208
0.30324424
0.30326939
0.30331504
0.30337801
0.30339755
0.29953125
0.2988333
0.30086321
0.29900874
0.30035317
0.29897438
0.30003778
0.30074277
0.30171531
0.30133137
0.30012492
0.30010259
0.3012491
0.30128859
0.30068319
0.30127542
0.30151708
0.30139468
0.30159074
0.30175988
0.30182864
0.3019327
0.30205645
0.30210797
0.30211683
0.30228992
0.30259796
0.30274558
0.30275159
0.30283215
0.30299546
0.30310817
0.30308851
0.30306566
0.30311026
0.30315203
0.30323424
0.30327036
0.30322093
0.30321734
0.30319103
0.30315307
0.30316638
0.30320041
0.30324732
0.30325329
0.29952744
0.29883573
0.30086816
0.29900829
0.30035213
0.29897535
0.30002798
0.30073283
0.3017153
0.30134379
0.30013372
0.30008845
0.30124269
0.30129252
0.30067986
0.30126903
0.30151501
0.3013916
0.30158572
0.30175512
0.30182394
0.30192631
0.30204767
0.30209624
0.30210187
0.30227002
0.3025795
0.30273074
0.30273174
0.30280668
0.30296592
0.30308068
0.30305451
0.30302793
0.30306164
0.30310239
0.30317517
0.30320877
0.30315334
0.30314194
0.30310184
0.30305353
0.30305711
0.30308091
0.30310981
0.30310012
0.29952793
0.2988379
0.30087228
0.29900818
0.30035003
0.29897092
0.30001833
0.30072352
0.30171574
0.3013555
0.30014179
0.3000746
0.30123662
0.30129616
0.30067665
0.30126267
0.30151277
0.30138868
0.30158104
0.30175
0.30181835
0.30191905
0.30203767
0.30208631
0.30208609
0.30224961
0.30255838
0.30271033
0.30270793
0.30277669
0.30293435
0.30304983
0.3030238
0.30298911
0.30301785
0.30304823
0.30312363
0.30314856
0.3030867
0.30306915
0.30301953
0.3029602
0.30295294
0.30296403
0.30297659
0.30295352
0.29952836
0.29883302
0.30087502
0.2990078
0.3003489
0.29896277
0.30000781
0.30071257
0.30171562
0.3013685
0.30015172
0.30005967
0.30122955
0.30130069
0.30067383
0.30125575
0.30151062
0.30138554
0.30157587
0.30174485
0.30181314
0.30191202
0.3020295
0.30207565
0.30207155
0.30223054
0.30253974
0.30269719
0.30268963
0.30275154
0.30290443
0.30302163
0.30298908
0.30295157
0.30296948
0.30299661
0.30306272
0.30308438
0.30301789
0.30299212
0.30292861
0.30285919
0.30284178
0.30284206
0.3028367
0.302798
0.30288859
0.29952686
0.29881711
0.30087732
0.29900606
0.30034919
0.29895405
0.29999726
0.30070251
0.30171594
0.30138087
0.30016069
0.30004485
0.30122298
0.30130515
0.30067151
0.30124889
0.30150822
0.30138242
0.30157089
0.30173946
0.30180697
0.30190422
0.3020202
0.30206598
0.30205714
0.30221175
0.30251774
0.30267706
0.30266749
0.30272198
0.30287213
0.30299068
0.30295826
0.3029128
0.30292402
0.302942
0.30300904
0.30302254
0.30294882
0.30291748
0.30284493
0.30276381
0.30273638
0.30272278
0.3027007
0.30264921
0.30272517
0.29952624
0.29879793
0.30088173
0.29900152
0.30035041
0.29894734
0.29998559
0.30069084
0.30171537
0.30139456
0.30017164
0.30002936
0.30121519
0.30131037
0.30066958
0.30124109
0.30150572
0.30137933
0.30156529
0.30173405
0.30180138
0.30189672
0.30201253
0.3020563
0.30204373
0.30219162
0.3024992
0.30266442
0.3026477
0.30269656
0.30284104
0.30296125
0.30292236
0.30287458
0.30287605
0.30288787
0.30294661
0.30295561
0.30287854
0.30283892
0.30275201
0.30266128
0.30262332
0.30259795
0.30255844
0.30249161
0.30255285
0.29952762
0.29878671
0.30088617
0.29899573
0.30035266
0.29894103
0.29997377
0.30067994
0.30171532
0.30140778
0.30018155
0.30001357
0.30120782
0.30131524
0.30066818
0.30123347
0.30150313
0.30137608
0.30155974
0.30172843
0.30179464
0.30188853
0.30200341
0.30204727
0.30202916
0.30217317
0.30247696
0.30264315
0.30262532
0.30266662
0.30280776
0.30292908
0.3028913
0.30283582
0.30282878
0.30283303
0.30289028
0.3028924
0.30280681
0.30276232
0.30266682
0.30256388
0.30251648
0.30247582
0.30241962
0.30234084
0.30238719
0.29952959
0.29878556
0.30088778
0.29899094
0.30035757
0.29893376
0.29996113
0.30066697
0.30171414
0.30142203
0.30019373
0.29999711
0.3011991
0.30132006
0.30066657
0.30122471
0.3015004
0.30137279
0.30155367
0.30172246
0.30178863
0.30188064
0.30199567
0.30203809
0.30201703
0.30215342
0.30245571
0.30262938
0.30260644
0.30264108
0.30277539
0.30289765
0.3028546
0.30279629
0.30278097
0.30277603
0.3028264
0.3028226
0.30273502
0.30268183
0.30257186
0.30245948
0.30240143
0.30234766
0.30227503
0.30218135
0.30221188
0.29953459
0.29879147
0.30089104
0.2989879
0.30036738
0.29892404
0.29994842
0.30065426
0.30171364
0.30143597
0.30020475
0.2999803
0.30119102
0.30132454
0.30066366
0.30121646
0.30149733
0.30136962
0.30154769
0.30171634
0.30178143
0.3018721
0.30198662
0.30202927
0.30200303
0.30213377
0.3024336
0.30260791
0.30258357
0.30261031
0.30274166
0.30286496
0.30282237
0.30275762
0.30273155
0.30272133
0.30276684
0.30275784
0.30266089
0.30260272
0.30248496
0.30236011
0.30229282
0.30222233
0.30213344
0.30202831
0.30204411
0.30206128
0.29954372
0.29879476
0.30090031
0.2989842
0.30037776
0.29891503
0.2999354
0.30063931
0.30171171
0.30145088
0.30021815
0.2999634
0.30118157
0.30132943
0.30065942
0.30120729
0.30149396
0.3013661
0.3015412
0.30170985
0.30177503
0.30186354
0.30197857
0.30201995
0.30199057
0.30211377
0.30241094
0.30259282
0.30256272
0.30258407
0.30270716
0.30283147
0.30278438
0.30271665
0.30268338
0.30266128
0.30270184
0.30268469
0.30258734
0.30252007
0.30238777
0.30225358
0.30217557
0.30209054
0.30198666
0.30186659
0.30186597
0.30186431
0.29955043
0.29878843
0.30091149
0.29898555
0.30038313
0.2989091
0.29992278
0.30062489
0.30171061
0.30146573
0.3002303
0.29994595
0.30117244
0.30133487
0.30065658
0.30119818
0.30149041
0.30136272
0.30153511
0.30170337
0.30176724
0.30185463
0.30196931
0.30201162
0.30197688
0.30209287
0.30238761
0.30257187
0.30254211
0.30255272
0.30267192
0.30279766
0.30275066
0.30267843
0.30263227
0.30260681
0.30263881
0.30261805
0.30251096
0.30243821
0.30229866
0.30215255
0.30206475
0.30196179
0.30184244
0.30171078
0.30169602
0.30167332
0.29954742
0.29877284
0.30092123
0.29899103
0.30038353
0.29890574
0.29991023
0.30060899
0.30170778
0.3014811
0.30024519
0.29992889
0.3011618
0.30133952
0.30065868
0.30118793
0.30148655
0.30135938
0.30152852
0.30169635
0.3017603
0.30184558
0.30196075
0.30200174
0.30196499
0.30207289
0.3023618
0.30255325
0.30251857
0.3025259
0.30263588
0.30276235
0.30271169
0.30263572
0.30258348
0.30254314
0.30257311
0.30254159
0.30243491
0.3023534
0.30219927
0.3020436
0.30194501
0.30182625
0.30169332
0.30154655
0.30151503
0.30147312
0.29953116
0.298755
0.30092766
0.29899263
0.30038113
0.29890271
0.2998968
0.30059412
0.30170592
0.3014968
0.30025879
0.29991105
0.30115219
0.30134364
0.3006621
0.30117863
0.30148269
0.30135601
0.30152208
0.30168948
0.30175193
0.30183639
0.30195118
0.30199313
0.30195015
0.30205049
0.30233801
0.30253181
0.30249677
0.30249355
0.30260002
0.30272614
0.30267675
0.30259733
0.30253146
0.30248853
0.30250636
0.30247288
0.30235671
0.30226847
0.30210739
0.30194119
0.30183145
0.30169409
0.30154643
0.30138757
0.30134272
0.30127968
0.30118649
0.29951139
0.29873607
0.30092952
0.29899083
0.30038046
0.29889883
0.29988256
0.30057772
0.30170197
0.30151289
0.30027512
0.29989387
0.30114078
0.30134793
0.30066472
0.30116917
0.3014782
0.30135254
0.30151509
0.30168193
0.30174452
0.30182677
0.30194158
0.30198287
0.30193885
0.30203027
0.30230969
0.30251134
0.30247408
0.3024657
0.30256102
0.30268901
0.30263614
0.30255279
0.30248114
0.30242155
0.30243993
0.30239331
0.30227755
0.30218103
0.30200607
0.30182935
0.30170873
0.30155481
0.3013947
0.30122041
0.30115888
0.30107608
0.30096175
0.29950342
0.29871685
0.30093036
0.29899148
0.30038306
0.29889094
0.29986765
0.30056156
0.30169923
0.30152964
0.30029015
0.29987528
0.30112976
0.30135233
0.30066627
0.3011602
0.3014737
0.30134887
0.30150819
0.30167451
0.30173594
0.30181723
0.30193202
0.30197344
0.30192426
0.30200671
0.30228438
0.30248929
0.30245213
0.30243293
0.30252421
0.30265044
0.30259936
0.30251436
0.3024285
0.30236684
0.30236924
0.30232197
0.30219816
0.30209264
0.30191057
0.30172551
0.30159182
0.30141928
0.30124509
0.30105783
0.30098396
0.30087958
0.30074472
0.29951075
0.29870404
0.30093255
0.29899709
0.30038696
0.29887808
0.29985312
0.30054349
0.30169427
0.30154622
0.3003082
0.29985764
0.30111629
0.30135667
0.30066886
0.30115039
0.3014684
0.30134529
0.30150086
0.30166629
0.30172795
0.30180687
0.30192136
0.30196322
0.30191291
0.30198596
0.30225428
0.30246816
0.30242753
0.30240441
0.3024838
0.30261272
0.30255743
0.30246856
0.30237567
0.30229725
0.30230164
0.30223972
0.30211486
0.30200222
0.30180731
0.30161056
0.30146539
0.30127634
0.30109047
0.30088739
0.30079708
0.30067201
0.30051671
0.30051739
0.29952405
0.29869987
0.30093433
0.29900123
0.30038852
0.29886425
0.29983804
0.30052537
0.3016908
0.30156407
0.30032507
0.29983775
0.30110328
0.30136115
0.30067104
0.30114075
0.30146321
0.30134154
0.30149366
0.30165826
0.30171916
0.30179689
0.30191098
0.30195275
0.30189872
0.30196193
0.3022266
0.30244301
0.30240527
0.30237115
0.30244456
0.30257024
0.30251844
0.30242918
0.30232343
0.30224151
0.30222741
0.30216484
0.30203442
0.30191064
0.30170732
0.30150509
0.30134472
0.30113769
0.30093811
0.30072098
0.30061911
0.30047177
0.30029719
0.30028182
0.2995372
0.29869401
0.30093901
0.29899911
0.30038808
0.29885602
0.29982339
0.30050545
0.30168497
0.30158142
0.30034496
0.29981919
0.30108782
0.30136544
0.30067475
0.30113024
0.30145721
0.30133759
0.3014859
0.3016494
0.30171039
0.30178581
0.30189973
0.30194231
0.30188722
0.30193969
0.30219619
0.30242027
0.30237964
0.30234087
0.30240227
0.3025308
0.30247471
0.30238214
0.3022678
0.30216977
0.3021581
0.30208046
0.30194609
0.30181702
0.30160222
0.30138691
0.30121426
0.30099118
0.30078034
0.300547
0.30042885
0.30025971
0.30006592
0.3000348
0.29954412
0.2986795
0.30094811
0.29899285
0.30038923
0.29885551
0.2998085
0.30048524
0.3016806
0.30160044
0.30036417
0.29979832
0.30107253
0.3013691
0.30067789
0.30111974
0.30145153
0.30133339
0.3014784
0.30164065
0.30170117
0.30177551
0.30188822
0.30193063
0.30187352
0.30191495
0.30216406
0.30239174
0.30235595
0.30230733
0.30236166
0.30248509
0.30243485
0.30234141
0.30221661
0.30211211
0.30208124
0.30200115
0.30186482
0.30172237
0.30149747
0.30127931
0.3010895
0.30084983
0.30062508
0.30037653
0.30024743
0.30005519
0.29984365
0.29979414
0.29953759
0.2986653
0.30095704
0.29898576
0.30039447
0.29885832
0.29979593
0.30046423
0.30167344
0.30161848
0.30038613
0.29977945
0.30105501
0.30137051
0.30068322
0.30110824
0.3014445
0.30132916
0.30147033
0.30163083
0.30169197
0.30176407
0.30187623
0.30191942
0.30186114
0.30189291
0.30213259
0.30236759
0.30233018
0.3022777
0.30231872
0.30244381
0.3023883
0.30229335
0.30215714
0.30203931
0.30200876
0.30191559
0.30177129
0.30162487
0.30139052
0.30115784
0.30095446
0.30070015
0.3004636
0.30019876
0.30005347
0.29983801
0.29960877
0.29954126
0.29944749
0.29952246
0.29865525
0.30096471
0.29898096
0.3004054
0.29885377
0.29978257
0.30044348
0.30166731
0.30163899
0.30040793
0.29975817
0.30103875
0.3013683
0.300688
0.30109692
0.30143782
0.30132489
0.30146243
0.30162117
0.30168262
0.30175289
0.30186342
0.30190672
0.30184807
0.30186676
0.30209814
0.3023374
0.30230379
0.30224263
0.30227276
0.30239632
0.30234633
0.30225069
0.30210681
0.30197937
0.30193045
0.30183143
0.30168853
0.30152731
0.30128068
0.30104712
0.30082532
0.30055637
0.30030522
0.30002401
0.29986798
0.29962862
0.29938338
0.29929426
0.29916667
0.29950569
0.29864141
0.30097289
0.29898082
0.30041654
0.29884484
0.2997684
0.30042219
0.3016583
0.30165768
0.3004319
0.29973941
0.30102195
0.30136707
0.30069415
0.30108474
0.30142953
0.30132054
0.30145371
0.30161056
0.30167262
0.30174075
0.3018505
0.30189436
0.30183522
0.30184471
0.30206339
0.3023076
0.30228027
0.302213
0.30223228
0.30235151
0.30229815
0.30220168
0.30204362
0.30190605
0.30185344
0.30174476
0.30158981
0.30142555
0.30117126
0.30092216
0.30068552
0.30040383
0.30013941
0.2998423
0.29966974
0.29940564
0.29914451
0.29903427
0.29887484
0.29949526
0.29861679
0.30098381
0.29898295
0.30042261
0.29883885
0.29975105
0.30039966
0.30165053
0.30167923
0.30045645
0.29971822
0.30100414
0.30137086
0.30069936
0.3010725
0.30142182
0.3013162
0.3014454
0.3016003
0.30166261
0.30172885
0.301836
0.30188
0.30182321
0.30181754
0.30202704
0.30227537
0.30225035
0.30217656
0.30218303
0.30230223
0.30225503
0.30215583
0.30199447
0.30184216
0.30177534
0.30165517
0.30150396
0.30132551
0.30105644
0.30080711
0.3005522
0.30025781
0.29997724
0.29966346
0.29947921
0.29919098
0.29891547
0.29877993
0.29858704
0.29845312
0.29949864
0.29858822
0.30099613
0.29898295
0.30042394
0.29883836
0.29973325
0.30037606
0.30164011
0.30169858
0.30048254
0.29969969
0.30098419
0.30137552
0.30070644
0.30105948
0.30141208
0.30131149
0.30143634
0.30158888
0.30165192
0.30171634
0.30182285
0.30186801
0.30180845
0.30179617
0.30199072
0.30224376
0.30222639
0.30214623
0.3021404
0.30225338
0.30220379
0.30210577
0.30192821
0.30176861
0.30169256
0.30156693
0.30140094
0.30121917
0.30094391
0.3006792
0.30040776
0.30010275
0.29980658
0.29947768
0.29927587
0.29896186
0.29867196
0.29851175
0.29828873
0.29813867
0.29950895
0.29856899
0.30100364
0.29898222
0.30042459
0.29883732
0.29971102
0.30035013
0.30163048
0.30172118
0.30051011
0.29967835
0.30096296
0.30137763
0.30071499
0.30104617
0.30140273
0.30130696
0.30142765
0.30157762
0.30164176
0.30170387
0.30180574
0.3018506
0.30179741
0.30176944
0.30195374
0.30220843
0.30219736
0.30210828
0.30208944
0.30220278
0.3021574
0.30205707
0.30187884
0.30170122
0.3016149
0.30147305
0.30131046
0.30111657
0.3008252
0.30055931
0.30027024
0.2999546
0.29963997
0.29929461
0.29907961
0.29874168
0.29843846
0.29824947
0.29799475
0.29782697
0.29951977
0.29855985
0.30100575
0.29898304
0.30042755
0.29883395
0.29968801
0.30032301
0.30161796
0.3017408
0.30053863
0.29966023
0.30094071
0.30137904
0.30072557
0.30103189
0.30139128
0.30130216
0.30141809
0.30156502
0.30163031
0.30169115
0.30179225
0.30183819
0.30178174
0.3017468
0.30191323
0.30217223
0.30217106
0.30207854
0.30204789
0.30215059
0.30210478
0.30200587
0.30180958
0.30162742
0.30152545
0.3013826
0.30120446
0.30100555
0.30070876
0.30042865
0.30012089
0.29979713
0.29946388
0.2991048
0.29887038
0.2985061
0.29818951
0.29797242
0.29769105
0.29751124
0.29952878
0.2985434
0.30100938
0.29898444
0.30043014
0.29882824
0.29966672
0.30029216
0.30160533
0.30176413
0.30056998
0.29963912
0.30091544
0.30138086
0.30073783
0.30101717
0.30138027
0.30129773
0.30140854
0.30155327
0.30161926
0.30167711
0.30177453
0.30181914
0.30177064
0.30172097
0.30187559
0.30213221
0.30214089
0.30203914
0.30199217
0.30209541
0.30205527
0.30195328
0.30175836
0.30155686
0.3014483
0.30128593
0.30110753
0.30090004
0.30058699
0.30030287
0.29997917
0.29964672
0.29929223
0.29891746
0.29866764
0.29828021
0.29795066
0.29770205
0.29739204
0.29719852
0.29709754
0.29952959
0.29851767
0.3010155
0.29898526
0.30043283
0.29882256
0.29964959
0.30025996
0.30158981
0.30178385
0.30060095
0.29962184
0.30089087
0.30138163
0.30075178
0.30100182
0.30136622
0.30129306
0.30139801
0.30153986
0.30160741
0.30166439
0.30175901
0.30180533
0.30175481
0.30169809
0.30183582
0.3020923
0.30211118
0.30200854
0.30195145
0.30204183
0.30200154
0.30189969
0.3016879
0.30148058
0.30135276
0.30119073
0.30099914
0.30078447
0.30046528
0.30016887
0.29982501
0.29948614
0.29911032
0.29872356
0.2984518
0.29803811
0.29769549
0.29741606
0.29708428
0.29688094
0.29675006
0.29952977
0.29849937
0.30102481
0.29898346
0.30043836
0.29881735
0.29963004
0.30022401
0.30157325
0.30180722
0.30063606
0.29960211
0.30086268
0.30138388
0.30076762
0.30098534
0.30135252
0.30128836
0.30138748
0.30152731
0.30159543
0.30164988
0.30174067
0.30178495
0.30174306
0.30167573
0.3017928
0.30204845
0.30208212
0.30196997
0.30189405
0.30198211
0.30194591
0.30184515
0.30163311
0.3014085
0.30127434
0.30109254
0.30089527
0.30067492
0.3003407
0.30003686
0.29967963
0.29933285
0.29893338
0.29853188
0.29824184
0.29780655
0.29745052
0.29713783
0.29678181
0.29656592
0.29639952
0.29954076
0.29848231
0.30103998
0.29897986
0.30044325
0.29881288
0.29960977
0.30018984
0.30155438
0.30182686
0.30067006
0.29958594
0.30083588
0.30138373
0.30078351
0.30096701
0.3013377
0.30128419
0.30137592
0.30151273
0.30158319
0.30163616
0.30172347
0.30176768
0.3017256
0.30165337
0.30175464
0.30200541
0.3020512
0.30193694
0.30185022
0.30192612
0.30189226
0.30178849
0.30156219
0.30132905
0.3011738
0.30099021
0.300785
0.30055441
0.30021289
0.29989984
0.29952078
0.29916855
0.29874551
0.29833377
0.29801919
0.29755836
0.29718809
0.29684342
0.29647144
0.29624434
0.29604057
0.29579723
0.2995501
0.29845689
0.30105163
0.29897776
0.30044591
0.29880885
0.29958872
0.30015428
0.30153387
0.30184996
0.30070918
0.29956874
0.30080454
0.3013852
0.30080242
0.30094737
0.30132507
0.30127943
0.30136426
0.30149913
0.30157016
0.30162137
0.3017044
0.30174678
0.30171373
0.30162902
0.30170792
0.30195682
0.30201794
0.30189928
0.30179413
0.30186197
0.30182963
0.30173135
0.30150163
0.30125698
0.3010925
0.30089128
0.30067539
0.30043988
0.30008627
0.29976145
0.29937184
0.29901194
0.29856288
0.29813777
0.2978019
0.29732086
0.29693623
0.29655827
0.29616699
0.29592424
0.29567762
0.29539869
0.29954813
0.2984302
0.30105698
0.29897646
0.30044793
0.29880832
0.29956836
0.30011917
0.3015126
0.30186914
0.30074591
0.29955392
0.3007743
0.30138367
0.30082085
0.30092491
0.30131053
0.30127408
0.30135255
0.30148402
0.30155715
0.30160586
0.30168675
0.30172592
0.30169741
0.30160719
0.30166872
0.30190874
0.30198516
0.30186269
0.30174958
0.30180462
0.30177658
0.30166976
0.30143157
0.30117297
0.30098898
0.30078128
0.30056301
0.30031426
0.29995255
0.29962064
0.29920909
0.29884244
0.29836909
0.29793558
0.29757257
0.29706683
0.29666607
0.29625655
0.29585489
0.2955953
0.29530544
0.29498984
0.29955167
0.29840067
0.30106652
0.29897471
0.30045015
0.29880697
0.29954706
0.30008017
0.30148866
0.30189198
0.30078929
0.29954058
0.3007395
0.30138437
0.30084155
0.30090191
0.30129658
0.30126996
0.30134191
0.30146968
0.3015433
0.30159114
0.30166561
0.3017046
0.30168109
0.30158643
0.30162206
0.30185596
0.30194843
0.30182735
0.30169249
0.3017374
0.30170633
0.30161023
0.30136381
0.30110095
0.30090292
0.30068157
0.30044864
0.30019477
0.29982317
0.29947537
0.29905649
0.29868123
0.29818116
0.29773561
0.29734758
0.29682338
0.29640701
0.29596571
0.29554921
0.29526602
0.2949294
0.29458325
0.29439627
0.29956726
0.29836639
0.30108159
0.29897216
0.30045567
0.29880391
0.29952649
0.30004105
0.30146462
0.30191062
0.30082885
0.29952792
0.30070607
0.30138263
0.30085946
0.30087703
0.30128086
0.30126631
0.30133116
0.30145385
0.30152881
0.30157515
0.30164568
0.30168079
0.30166694
0.30156565
0.30158098
0.30180452
0.30191192
0.30178934
0.30164652
0.3016754
0.30164928
0.30154437
0.30129475
0.30101267
0.30079876
0.30056438
0.30033292
0.30006264
0.29968229
0.29932988
0.29889101
0.2985044
0.29798168
0.29752918
0.29711121
0.29656443
0.29612907
0.29565815
0.2952351
0.29492575
0.29454405
0.29416816
0.29395869
0.29957771
0.29833887
0.30109523
0.29897011
0.30046192
0.29880092
0.29950527
0.29999888
0.3014364
0.30193231
0.30087616
0.29951928
0.30066729
0.30138094
0.30088015
0.30085166
0.30126531
0.30126345
0.30132009
0.30143865
0.30151462
0.30155932
0.30162412
0.30165828
0.3016461
0.30154714
0.3015313
0.30174797
0.30187146
0.30175143
0.30158919
0.30160797
0.30157589
0.30148201
0.30122091
0.30094052
0.30070837
0.3004602
0.30021433
0.29993802
0.29954921
0.29917907
0.29873393
0.29833783
0.29778949
0.2973246
0.29687866
0.29631547
0.29586281
0.29536271
0.29492759
0.29458338
0.29415605
0.29375502
0.29353157
0.29341725
0.29958107
0.29832075
0.30110607
0.29897092
0.30046571
0.298801
0.29948396
0.29995643
0.3014083
0.30195075
0.30091929
0.29950956
0.30063029
0.30137824
0.30089938
0.30082496
0.3012483
0.30125892
0.30130768
0.30142325
0.30149891
0.30154302
0.30160218
0.30163234
0.30163397
0.30152648
0.30148879
0.30168914
0.30183108
0.30171252
0.301544
0.30154003
0.30151368
0.30140882
0.30115196
0.3008489
0.30060448
0.30033789
0.3000934
0.29979901
0.29940264
0.29902752
0.29856739
0.29815301
0.29758417
0.29711288
0.29663607
0.2960524
0.29557709
0.29505074
0.29460926
0.29422918
0.29375868
0.29333559
0.29308698
0.29292931
0.29959288
0.29829702
0.30111805
0.29897425
0.30047058
0.29880238
0.29946223
0.2999115
0.30137587
0.30197007
0.30096994
0.29950682
0.30058705
0.30137312
0.3009205
0.30079801
0.30123141
0.30125635
0.30129575
0.30140768
0.30148337
0.30152602
0.30157993
0.30160663
0.30160974
0.30151073
0.30144071
0.30163154
0.30178442
0.30167801
0.30148772
0.30147306
0.3014372
0.30134249
0.30107206
0.30077503
0.30050818
0.30023024
0.29997219
0.29967056
0.29926565
0.29887138
0.29840586
0.29797895
0.29738843
0.29690314
0.29639648
0.2957983
0.29530354
0.29475192
0.29429669
0.29387171
0.29336111
0.29291761
0.29265114
0.29245028
0.29961354
0.29826042
0.30113085
0.298977
0.30047772
0.29880275
0.2994398
0.29986591
0.301344
0.30198817
0.30101655
0.29950163
0.30054473
0.30136909
0.30094196
0.30077054
0.30121317
0.30125215
0.30128287
0.30138988
0.30146625
0.30150868
0.30155554
0.30157947
0.30159388
0.30148993
0.30139669
0.30156615
0.30173942
0.30163285
0.30143936
0.30139849
0.30136794
0.30126574
0.30099891
0.30067944
0.30040482
0.30010647
0.29984559
0.29952569
0.29911247
0.29871197
0.29823898
0.29778593
0.29717765
0.29668538
0.29614825
0.2955316
0.2950106
0.29443627
0.29396999
0.29350247
0.29295439
0.29249447
0.29219651
0.29194806
0.29169208
0.29962925
0.29821995
0.30113945
0.29897564
0.30048374
0.29880588
0.29941692
0.2998174
0.30130806
0.3020048
0.30107079
0.29950711
0.30049865
0.30136052
0.30096231
0.30074317
0.30119487
0.30125061
0.30126998
0.30137241
0.30144973
0.30149096
0.3015314
0.30155015
0.30156998
0.30147678
0.30134628
0.30150674
0.30168342
0.30159861
0.30138513
0.30133043
0.30129072
0.30119173
0.30091692
0.30060308
0.30030507
0.29999429
0.29972173
0.29939092
0.29896943
0.29855244
0.29807123
0.2976023
0.29697831
0.29646982
0.29590185
0.29527276
0.29473004
0.29413436
0.29364814
0.29312971
0.29255052
0.29207235
0.29174802
0.29145457
0.29115604
0.29963849
0.29818407
0.3011497
0.29897273
0.30048664
0.29881148
0.299395
0.29976699
0.3012716
0.30202228
0.30112073
0.29950843
0.30045108
0.30135372
0.30098328
0.30071605
0.30117583
0.30124581
0.30125584
0.30135439
0.30143141
0.30147211
0.30150706
0.30152119
0.30154886
0.30145357
0.30130806
0.30143595
0.30163628
0.30155692
0.30133676
0.30125486
0.30121066
0.30111017
0.30083813
0.300505
0.3001977
0.2998697
0.29958584
0.29924076
0.29881064
0.29838388
0.29790272
0.29740267
0.29676256
0.29624422
0.29564859
0.2950027
0.29443048
0.29381456
0.29330891
0.29274639
0.29213763
0.29164384
0.29128011
0.29093756
0.29060198
0.29965453
0.29814911
0.30116665
0.29897077
0.30048713
0.2988161
0.29937355
0.29971462
0.30123073
0.30203617
0.30117769
0.29952368
0.30040206
0.30134034
0.30100262
0.30068948
0.30115589
0.30124342
0.30124332
0.30133573
0.30141372
0.30145376
0.30148156
0.30148989
0.30152285
0.3014403
0.30125664
0.30137129
0.30157049
0.30150961
0.30128506
0.30118119
0.30112898
0.30103082
0.3007549
0.30042513
0.30009656
0.29975448
0.29945966
0.29909849
0.29866337
0.29822269
0.29773026
0.29720839
0.29655905
0.29602215
0.29539686
0.29473922
0.29414263
0.29350885
0.29297402
0.29236084
0.2917301
0.29121566
0.29081564
0.29042931
0.29005445
0.28980868
0.29967802
0.29810831
0.30118351
0.29896893
0.30049079
0.2988164
0.29935116
0.29966046
0.3011881
0.30205142
0.30123195
0.29953483
0.30034694
0.30132924
0.30102317
0.30066319
0.30113579
0.30123583
0.30122826
0.30131555
0.30139389
0.30143357
0.30145556
0.30145873
0.30149775
0.30141882
0.301218
0.30129959
0.30151384
0.30147286
0.30123889
0.30110579
0.30104484
0.30094814
0.30066508
0.30032442
0.29998236
0.29962904
0.29931475
0.29894544
0.29850077
0.29804521
0.29755742
0.29700269
0.29633885
0.29578826
0.29513925
0.29446549
0.29383696
0.29318317
0.29261904
0.2919658
0.29131359
0.29077725
0.2903324
0.28989819
0.28948946
0.28921091
0.29970137
0.2980661
0.301195
0.29896777
0.30049928
0.29881836
0.29932928
0.2996051
0.30114182
0.30206136
0.30129051
0.29956059
0.30029157
0.30131029
0.30104287
0.30063881
0.3011131
0.30122807
0.30121413
0.30129624
0.30137498
0.30141425
0.30142925
0.30142508
0.30146799
0.30139934
0.30117423
0.30122908
0.30144668
0.30141924
0.30118259
0.3010206
0.30095417
0.30085774
0.30058299
0.30023822
0.29988294
0.29951302
0.29919115
0.2987991
0.29834592
0.29788313
0.29737864
0.29679756
0.29613088
0.29555935
0.29488336
0.29419645
0.29354146
0.29287125
0.29226875
0.29157159
0.29090297
0.29033846
0.28985079
0.28937586
0.28893185
0.28861473
0.28839361
0.2997253
0.2980272
0.30120812
0.29897199
0.3005059
0.29882358
0.299306
0.29954661
0.30109238
0.30207184
0.30134964
0.29958326
0.30022699
0.30129418
0.30106326
0.3006153
0.30109382
0.30122179
0.30120109
0.30127671
0.30135359
0.30139304
0.3014021
0.30139371
0.30143571
0.30138053
0.30113559
0.30115474
0.30137879
0.30137647
0.30113836
0.30095046
0.30086649
0.30077136
0.30048837
0.30014287
0.29976442
0.29938256
0.29904008
0.29863825
0.29817792
0.29769799
0.29719419
0.29658716
0.29590707
0.29531627
0.29462146
0.29391778
0.2932299
0.29253681
0.29189735
0.29116811
0.29048252
0.28988493
0.28935188
0.28883259
0.28835661
0.2880036
0.28773382
0.29975215
0.29798547
0.30122402
0.29897637
0.30050972
0.29883514
0.29928478
0.29948803
0.30104093
0.30207703
0.30140901
0.29962091
0.300163
0.30127202
0.30108164
0.30059496
0.30107232
0.30121418
0.30118815
0.30125628
0.30133256
0.30137268
0.30137598
0.30135841
0.30140379
0.30134992
0.30109977
0.30107997
0.30130139
0.30131697
0.30108651
0.30086711
0.30077435
0.3006768
0.30040342