/*--------------------------------*- C++ -*----------------------------------*\
| =========                 |                                                 |
| \\      /  F ield         | OpenFOAM: The Open Source CFD Toolbox           |
|  \\    /   O peration     | Version:  2506                                  |
|   \\  /    A nd           | Website:  www.openfoam.com                      |
|    \\/     M anipulation  |                                                 |
\*---------------------------------------------------------------------------*/
FoamFile
{
    version     2.0;
    format      ascii;
    arch        "LSB;label=32;scalar=64";
    class       volScalarField;
    location    "0.0295";
    object      rho;
}
// * * * * * * * * * * * * * * * * * * * * * * * * * * * * * * * * * * * * * //

dimensions      [1 -3 0 0 0 0 0];

internalField   nonuniform List<scalar> 
13761
(
0.66224697
0.66954427
0.66395185
0.66795073
0.66542949
0.66758873
0.66638585
0.66582459
0.66494844
0.66540763
0.66653604
0.66657114
0.6657039
0.66580727
0.66636385
0.66591492
0.66587408
0.66599559
0.66586009
0.66580631
0.66580822
0.66578641
0.66575497
0.66576485
0.66571267
0.66558967
0.66547492
0.66548172
0.66551916
0.66546625
0.66534465
0.66529964
0.66532039
0.66532196
0.66530303
0.66527383
0.6652416
0.66523265
0.66524466
0.66526749
0.66527136
0.66524709
0.66522114
0.66516116
0.66223882
0.66954933
0.66395426
0.66794843
0.66542985
0.66758903
0.66639157
0.6658321
0.66494946
0.66540003
0.66652914
0.66657899
0.66570688
0.66580444
0.66636407
0.66591738
0.66587354
0.66599601
0.66586096
0.66580662
0.66580861
0.66578716
0.66575722
0.66576456
0.66571573
0.66559663
0.66548164
0.6654862
0.66552337
0.66547354
0.66535133
0.66530528
0.66532608
0.6653293
0.66531225
0.66528268
0.66525066
0.66524224
0.66525511
0.6652794
0.66528625
0.66526531
0.66524075
0.66518445
0.66223401
0.66955565
0.66395554
0.66794556
0.66542917
0.66759008
0.66639732
0.6658394
0.66495041
0.66539225
0.6665221
0.6665871
0.66570982
0.66580161
0.66636434
0.66591984
0.66587311
0.66599656
0.66586185
0.66580698
0.66580913
0.6657882
0.66575916
0.66576472
0.66571855
0.66560398
0.66548823
0.66549058
0.66552745
0.66548035
0.6653579
0.66531052
0.66533154
0.66533662
0.6653221
0.66529148
0.66526082
0.66525238
0.6652663
0.66529209
0.66530215
0.66528476
0.66526083
0.66520881
0.66519701
0.662233
0.6695642
0.66395672
0.66794359
0.66542831
0.66759377
0.66640318
0.66584646
0.66495168
0.66538432
0.66651487
0.66659536
0.66571281
0.6657988
0.66636455
0.66592227
0.66587271
0.66599718
0.66586276
0.66580744
0.66580984
0.66578945
0.66576126
0.66576462
0.66572161
0.66561113
0.66549538
0.66549507
0.66553173
0.66548772
0.66536469
0.66531605
0.66533678
0.66534364
0.66533105
0.66530103
0.6652706
0.66526279
0.66527735
0.66530428
0.66531751
0.66530358
0.6652807
0.66523342
0.66522586
0.66223763
0.66957492
0.66395703
0.66794219
0.66542581
0.66759808
0.66640893
0.66585348
0.66495296
0.66537606
0.66650728
0.66660397
0.66571593
0.66579588
0.6663647
0.66592467
0.66587233
0.66599787
0.66586373
0.66580794
0.66581059
0.66579087
0.66576317
0.66576443
0.66572459
0.66561892
0.6655024
0.66549938
0.66553583
0.66549465
0.66537135
0.66532114
0.66534184
0.6653505
0.66534062
0.66531036
0.66528149
0.66527369
0.66528902
0.6653171
0.6653338
0.6653235
0.66530109
0.66525905
0.66525552
0.66224464
0.66958759
0.6639577
0.6679407
0.66542422
0.66759941
0.66641474
0.66586037
0.66495403
0.66536766
0.66649943
0.66661276
0.66571914
0.66579298
0.66636475
0.66592699
0.66587196
0.66599859
0.66586473
0.66580851
0.66581151
0.66579244
0.66576534
0.66576443
0.66572785
0.66562647
0.66550992
0.66550392
0.66554012
0.66550213
0.66537817
0.66532644
0.66534657
0.66535708
0.66534926
0.66532048
0.66529183
0.66528478
0.66530051
0.66532952
0.66534949
0.66534268
0.66532119
0.66528494
0.66528453
0.66224957
0.66960424
0.66396017
0.66793997
0.66542549
0.66759858
0.66642134
0.66586755
0.66495503
0.66535891
0.66649111
0.66662189
0.66572256
0.66578995
0.66636471
0.66592932
0.66587157
0.66599931
0.66586581
0.6658091
0.66581246
0.66579412
0.66576726
0.66576481
0.665731
0.66563453
0.66551719
0.66550797
0.66554408
0.66550903
0.66538486
0.66533124
0.66535115
0.66536337
0.66535853
0.66533034
0.66530331
0.66529633
0.66531252
0.66534255
0.66536608
0.66536286
0.66534196
0.66531184
0.66531417
0.66224863
0.66961641
0.66396146
0.66793795
0.66542777
0.6675928
0.66642814
0.66587502
0.66495598
0.66535004
0.66648249
0.66663117
0.66572609
0.66578687
0.66636463
0.66593165
0.66587118
0.66600001
0.66586691
0.66580973
0.66581356
0.66579594
0.66576936
0.66576492
0.66573439
0.6656424
0.66552497
0.66551233
0.66554823
0.66551644
0.66539179
0.66533631
0.66535527
0.66536949
0.66536694
0.665341
0.66531412
0.66530798
0.66532436
0.66535531
0.665382
0.66538226
0.66536242
0.66533899
0.66534307
0.6653032
0.66224433
0.66962251
0.6639609
0.66793587
0.66542858
0.66758825
0.66643542
0.66588315
0.664957
0.66534082
0.66647332
0.66664075
0.66572987
0.66578352
0.66636458
0.66593408
0.66587076
0.66600074
0.66586806
0.66581036
0.66581469
0.6657978
0.66577119
0.66576482
0.66573756
0.66565042
0.66553245
0.66551607
0.66555196
0.66552317
0.66539857
0.66534093
0.6653594
0.6653753
0.66537594
0.66535143
0.66532611
0.66532009
0.66533662
0.66536873
0.66539883
0.66540258
0.66538375
0.665367
0.66537253
0.66533405
0.66223578
0.66962382
0.66396006
0.6679351
0.66543026
0.66758687
0.66644328
0.66589174
0.664958
0.66533147
0.66646383
0.66665045
0.66573376
0.66578003
0.66636447
0.66593654
0.66587032
0.66600144
0.66586921
0.66581104
0.66581597
0.66579978
0.6657731
0.66576479
0.66574078
0.66565843
0.66554041
0.66552033
0.66555592
0.66553034
0.66540556
0.66534587
0.66536298
0.66538105
0.66538428
0.66536255
0.66533743
0.66533222
0.66534878
0.66538203
0.66541492
0.66542216
0.66540485
0.66539497
0.66540128
0.66536427
0.66222296
0.66962584
0.66395952
0.66793375
0.66543301
0.66758903
0.66645142
0.66590097
0.66495911
0.66532178
0.66645374
0.66666046
0.66573792
0.66577632
0.66636417
0.66593911
0.66586985
0.66600215
0.66587042
0.66581174
0.66581725
0.66580179
0.66577475
0.66576467
0.66574374
0.66566643
0.66554824
0.66552385
0.66555924
0.66553687
0.66541239
0.66535041
0.66536678
0.66538648
0.66539312
0.66537353
0.66534994
0.66534492
0.66536125
0.66539602
0.66543195
0.66544257
0.66542706
0.66542364
0.66543059
0.66539556
0.66221054
0.66963277
0.66396071
0.6679323
0.6654347
0.66759446
0.66645975
0.66591049
0.6649603
0.66531196
0.6664433
0.66667067
0.66574223
0.66577249
0.66636355
0.66594178
0.66586937
0.66600284
0.6658716
0.6658125
0.66581869
0.66580393
0.66577651
0.66576406
0.66574661
0.66567453
0.66555664
0.66552807
0.6655628
0.66554383
0.6654195
0.66535523
0.66536993
0.66539187
0.66540158
0.66538504
0.66536181
0.66535756
0.66537375
0.66540996
0.66544822
0.6654623
0.66544907
0.66545209
0.66545919
0.66542621
0.6654055
0.66219985
0.66964903
0.66396246
0.66793193
0.66543553
0.66759967
0.66646854
0.6659205
0.66496174
0.66530182
0.66643223
0.66668119
0.66574686
0.66576835
0.66636259
0.6659447
0.6658689
0.66600353
0.66587287
0.66581329
0.66582011
0.66580608
0.66577806
0.66576354
0.6657492
0.66568275
0.66556497
0.66553151
0.6655659
0.66555027
0.66542653
0.66535976
0.66537344
0.66539702
0.66541039
0.6653966
0.66537483
0.6653709
0.66538649
0.66542456
0.6654655
0.66548276
0.66547237
0.66548113
0.66548821
0.66545791
0.66544019
0.66218785
0.66966873
0.663962
0.66793367
0.66543565
0.66760324
0.66647775
0.66593069
0.66496333
0.66529155
0.66642082
0.66669196
0.6657517
0.665764
0.66636105
0.6659478
0.66586847
0.66600421
0.66587414
0.66581411
0.6658217
0.66580834
0.66577974
0.665763
0.66575173
0.66569095
0.66557397
0.66553587
0.66556925
0.66555717
0.66543384
0.66536456
0.66537625
0.66540213
0.66541906
0.66540845
0.66538732
0.66538404
0.66539945
0.66543915
0.665482
0.66550257
0.66549555
0.66550981
0.66551652
0.66548894
0.66547417
0.6621735
0.66968102
0.66396182
0.66793639
0.66543537
0.66760623
0.6664874
0.66594148
0.66496524
0.665281
0.66640873
0.66670301
0.665757
0.66575957
0.66635909
0.6659513
0.66586812
0.66600486
0.66587548
0.66581499
0.66582328
0.66581059
0.66578126
0.6657621
0.6657539
0.66569943
0.66558304
0.66553947
0.66557211
0.66556349
0.66544107
0.6653692
0.66537954
0.66540716
0.66542786
0.6654206
0.66540089
0.66539801
0.66541259
0.66545439
0.66549958
0.66552308
0.66552009
0.66553902
0.66554521
0.66552101
0.66550923
0.6621593
0.66968567
0.66396469
0.66793823
0.66543366
0.66761009
0.66649736
0.66595281
0.66496731
0.66527033
0.66639626
0.6667143
0.66576255
0.66575536
0.66635688
0.66595506
0.66586784
0.66600547
0.66587682
0.66581593
0.66582507
0.66581292
0.66578293
0.66576118
0.66575618
0.66570793
0.66559253
0.66554392
0.66557514
0.66557021
0.66544846
0.66537396
0.66538219
0.66541202
0.6654368
0.66543271
0.66541417
0.66541161
0.66542613
0.66546968
0.66551634
0.66554294
0.66554447
0.66556776
0.66557332
0.66555243
0.66554356
0.66214209
0.6696848
0.66396684
0.66793754
0.66542727
0.66761612
0.66650767
0.66596511
0.66496974
0.66525941
0.66638302
0.66672578
0.66576845
0.66575155
0.66635564
0.66595913
0.66586764
0.66600607
0.66587823
0.66581695
0.66582684
0.66581528
0.66578449
0.66576032
0.66575817
0.66571659
0.66560225
0.66554767
0.66557778
0.66557632
0.66545586
0.66537869
0.66538541
0.66541698
0.6654457
0.6654454
0.66542836
0.66542623
0.66543982
0.6654856
0.66553426
0.6655635
0.6655702
0.66559698
0.6656019
0.66558491
0.6655791
0.66556782
0.66212031
0.66968661
0.66396334
0.66793974
0.66542049
0.66762175
0.66651801
0.66597811
0.66497237
0.66524838
0.66636937
0.66673743
0.66577455
0.66574738
0.6663556
0.665963
0.66586752
0.66600661
0.6658796
0.66581804
0.66582881
0.66581773
0.6657862
0.66575906
0.66576023
0.66572535
0.66561232
0.66555213
0.66558044
0.66558285
0.66546338
0.66538345
0.66538811
0.66542158
0.66545493
0.66545764
0.66544252
0.66544034
0.66545401
0.66550161
0.66555139
0.66558336
0.66559566
0.66562557
0.66563011
0.66561686
0.66561389
0.66560721
0.66209983
0.66969609
0.6639591
0.66793602
0.66541816
0.66762427
0.66652807
0.66599185
0.66497545
0.66523713
0.66635487
0.66674913
0.6657813
0.66574268
0.66635425
0.66596734
0.66586747
0.66600709
0.66588103
0.66581921
0.66583075
0.66582019
0.66578783
0.66575797
0.665762
0.66573406
0.66562284
0.66555622
0.66558309
0.66558872
0.66547101
0.66538835
0.66539139
0.66542652
0.66546399
0.66547083
0.66545734
0.66545565
0.6654684
0.66551816
0.66556974
0.665604
0.6656224
0.66565463
0.66565876
0.66564997
0.66565004
0.66564803
0.66208573
0.66971338
0.66395661
0.66792902
0.6654198
0.66762523
0.66653802
0.66600572
0.66497875
0.66522573
0.66633991
0.66676091
0.66578833
0.6657388
0.6663484
0.66597207
0.66586745
0.66600752
0.66588241
0.66582042
0.66583288
0.66582268
0.66578958
0.66575669
0.66576389
0.66574306
0.66563347
0.66556082
0.66558547
0.66559499
0.66547864
0.66539336
0.66539422
0.66543097
0.6654734
0.66548323
0.66547244
0.6654703
0.66548333
0.66553483
0.66558736
0.66562389
0.66564875
0.66568303
0.66568708
0.66568271
0.66568549
0.66568859
0.66208274
0.66973107
0.66395562
0.66792577
0.66542355
0.66762565
0.66654857
0.66601988
0.66498261
0.66521414
0.66632407
0.66677261
0.66579561
0.66573534
0.66634166
0.66597651
0.66586756
0.6660079
0.66588385
0.66582173
0.66583494
0.66582518
0.66579134
0.6657555
0.66576524
0.66575196
0.66564473
0.66556543
0.66558799
0.66560058
0.66548653
0.66539858
0.6653977
0.66543603
0.66548263
0.66549695
0.66548786
0.66548631
0.66549861
0.66555192
0.66560618
0.66564475
0.66567621
0.66571186
0.66571596
0.66571654
0.6657225
0.6657306
0.66572538
0.66208309
0.6697498
0.66395982
0.66792561
0.66542566
0.66762662
0.66655999
0.66603431
0.66498673
0.66520236
0.66630774
0.66678443
0.66580305
0.66573168
0.66633642
0.66598052
0.66586773
0.66600825
0.66588531
0.66582308
0.66583718
0.66582768
0.66579316
0.66575423
0.66576676
0.66576126
0.66565597
0.66557047
0.6655904
0.66560648
0.66549427
0.66540403
0.6654008
0.6654405
0.66549215
0.66550953
0.66550389
0.66550161
0.66551432
0.66556919
0.66562444
0.66566481
0.66570308
0.66573989
0.66574471
0.6657501
0.66575887
0.66577225
0.66577003
0.66207143
0.66977023
0.66396383
0.66792335
0.66542519
0.66763017
0.6665716
0.66604959
0.66499146
0.66519045
0.66629046
0.66679621
0.6658113
0.66572825
0.66633121
0.6659846
0.6658681
0.66600857
0.66588684
0.66582458
0.66583938
0.66583024
0.66579508
0.66575296
0.66576773
0.66577035
0.66566805
0.66557565
0.66559296
0.66561159
0.66550237
0.66540949
0.66540458
0.66544576
0.66550163
0.66552376
0.66551989
0.66551836
0.66553069
0.6655868
0.66564375
0.66568616
0.66573087
0.66576834
0.66577418
0.66578478
0.66579687
0.66581541
0.66581611
0.66204802
0.66978535
0.66396664
0.66791545
0.66542346
0.66763845
0.6665831
0.66606558
0.66499638
0.66517829
0.66627259
0.66680833
0.66582006
0.66572483
0.6663256
0.6659888
0.66586856
0.66600889
0.66588837
0.66582614
0.66584171
0.66583275
0.66579702
0.66575169
0.66576901
0.66577992
0.66568023
0.66558143
0.66559524
0.66561684
0.66551027
0.66541539
0.66540808
0.66545042
0.66551112
0.66553669
0.66553671
0.66553448
0.66554724
0.6656046
0.66566277
0.66570668
0.66575775
0.66579587
0.66580367
0.66581928
0.66583432
0.66585812
0.66586147
0.66585533
0.66202035
0.66979274
0.66397077
0.66790958
0.66542466
0.66764701
0.66659455
0.66608242
0.66500184
0.66516604
0.66625368
0.66682052
0.66582964
0.66572089
0.6663195
0.66599322
0.66586921
0.66600921
0.66588995
0.66582785
0.66584407
0.66583538
0.6657991
0.6657504
0.66576992
0.66578938
0.66569312
0.66558724
0.66559772
0.66562134
0.66551854
0.6654211
0.66541223
0.66545598
0.66552083
0.66555144
0.66555318
0.66555197
0.6655649
0.66562269
0.66568259
0.66572877
0.66578531
0.66582381
0.66583413
0.66585487
0.66587353
0.66590237
0.66590825
0.66591036
0.66199174
0.66980226
0.66397301
0.66790857
0.66542749
0.66765154
0.66660636
0.66610009
0.66500742
0.66515346
0.66623395
0.66683306
0.66583982
0.66571702
0.66631295
0.66599776
0.6658699
0.66600957
0.66589149
0.66582963
0.66584652
0.66583795
0.66580119
0.6657492
0.66577092
0.66579914
0.66570634
0.66559387
0.6655999
0.66562591
0.66552659
0.66542766
0.66541608
0.66546102
0.66553013
0.66556492
0.66557058
0.66556907
0.66558234
0.66564092
0.6657024
0.66575
0.66581173
0.66585063
0.66586481
0.66589034
0.66591225
0.66594605
0.66595422
0.66596517
0.66196662
0.66982099
0.66397094
0.66791093
0.665429
0.66764869
0.66661771
0.66611868
0.66501367
0.66514083
0.66621305
0.66684553
0.66585096
0.6657138
0.66630548
0.66600258
0.66587081
0.66600993
0.66589309
0.6658316
0.665849
0.66584067
0.66580337
0.66574795
0.66577161
0.66580863
0.66571988
0.66560034
0.66560213
0.66562969
0.66553487
0.66543397
0.66542082
0.665467
0.6655401
0.66558019
0.66558758
0.66558723
0.6656014
0.66565947
0.66572263
0.66577298
0.66583884
0.66587785
0.66589664
0.66592688
0.6659528
0.66599126
0.66600177
0.66602139
0.66195236
0.66983792
0.66397075
0.66791284
0.66542804
0.66764332
0.66662782
0.6661376
0.66502035
0.6651278
0.66619144
0.66685813
0.66586297
0.66571245
0.66629738
0.66600756
0.66587179
0.66601024
0.66589466
0.66583367
0.66585153
0.66584335
0.66580561
0.66574688
0.66577249
0.66581861
0.6657339
0.66560772
0.66560412
0.66563366
0.66554338
0.66544121
0.6654254
0.66547256
0.66554921
0.66559423
0.66560542
0.66560535
0.66561984
0.66567808
0.66574314
0.66579506
0.66586478
0.66590393
0.66592872
0.66596332
0.66599293
0.66603575
0.66604858
0.66607677
0.66611658
0.66194347
0.66985101
0.66397122
0.66791398
0.66542168
0.66764456
0.66663764
0.66615661
0.66502802
0.66511478
0.6661686
0.66687019
0.66587475
0.66571335
0.66628825
0.66601278
0.66587313
0.66601046
0.66589631
0.665836
0.66585412
0.66584618
0.66580786
0.66574564
0.66577329
0.66582827
0.66574809
0.66561531
0.6656058
0.66563679
0.66555163
0.66544842
0.66543108
0.66547896
0.66555955
0.66560982
0.6656232
0.66562413
0.66564033
0.66569718
0.66576373
0.66581891
0.66589144
0.66593062
0.66596207
0.66600077
0.66603489
0.66608172
0.6660971
0.66613315
0.66617332
0.66193491
0.6698669
0.66397239
0.66791021
0.66541568
0.66764981
0.666649
0.66617605
0.66503622
0.6651013
0.66614478
0.66688249
0.66588617
0.66571368
0.66627887
0.66601814
0.66587464
0.66601056
0.66589796
0.66583845
0.66585673
0.66584902
0.66581025
0.66574474
0.66577417
0.66583836
0.66576271
0.66562385
0.66560778
0.66564022
0.66556064
0.66545665
0.66543661
0.66548517
0.66556858
0.66562437
0.66564148
0.66564334
0.66565988
0.66571626
0.66578493
0.66584191
0.66591693
0.66595635
0.66599554
0.6660381
0.66607642
0.66612674
0.66614481
0.66618831
0.66622832
0.66192231
0.66989257
0.66397094
0.66790464
0.66541401
0.66765132
0.66666187
0.66619646
0.66504523
0.66508792
0.66611999
0.66689412
0.66589897
0.66570977
0.66626918
0.66602378
0.66587666
0.66601058
0.66589974
0.66584118
0.6658594
0.66585195
0.66581254
0.66574379
0.66577543
0.66584762
0.66577749
0.66563296
0.66560912
0.66564256
0.66556904
0.6654653
0.66544337
0.66549211
0.66557928
0.66564008
0.66566031
0.66566279
0.6656816
0.66573614
0.66580604
0.66586655
0.66594323
0.66598304
0.66603026
0.66607634
0.66611964
0.66617316
0.66619425
0.66624421
0.66628316
0.66625549
0.66189629
0.6699225
0.66396792
0.66790162
0.66541681
0.66764829
0.66667517
0.66621802
0.66505461
0.66507411
0.66609413
0.66690563
0.66591312
0.66570605
0.6662585
0.66602969
0.66587891
0.66601057
0.66590151
0.66584404
0.66586204
0.66585483
0.66581515
0.66574346
0.66577647
0.66585727
0.66579255
0.66564314
0.66561095
0.66564533
0.66557862
0.66547483
0.66545013
0.66549912
0.66558832
0.66565497
0.66567899
0.66568309
0.66570217
0.6657559
0.66582796
0.66589048
0.6659684
0.66600911
0.66606484
0.66611439
0.66616226
0.66621836
0.66624274
0.6662985
0.66633622
0.66630701
0.66186549
0.66994393
0.66396975
0.66789876
0.66541964
0.66764584
0.66669105
0.66624074
0.66506498
0.66506054
0.66606712
0.66691675
0.66592817
0.66570389
0.66624627
0.66603598
0.66588167
0.6660105
0.66590341
0.66584719
0.66586481
0.66585773
0.6658174
0.66574289
0.66577802
0.66586653
0.66580812
0.66565404
0.66561226
0.66564696
0.6655875
0.66548505
0.66545825
0.6655067
0.66559941
0.66567051
0.66569896
0.66570338
0.66572466
0.66577685
0.6658498
0.66591584
0.66599455
0.66603653
0.66610055
0.66615323
0.66620633
0.6662649
0.66629293
0.6663533
0.66638923
0.66636055
0.66183445
0.66995492
0.66397684
0.66789436
0.66542001
0.66764603
0.6667093
0.66626526
0.66507621
0.66504655
0.66603884
0.66692786
0.66594446
0.66570184
0.66623261
0.66604261
0.66588472
0.6660103
0.66590539
0.66585041
0.66586759
0.66586069
0.66582013
0.66574315
0.66577912
0.66587679
0.66582387
0.66566591
0.66561393
0.66564929
0.66559782
0.66549609
0.66546665
0.66551466
0.6656087
0.6656854
0.66571794
0.66572472
0.66574615
0.66579766
0.66587241
0.66594078
0.66601965
0.66606372
0.66613583
0.66619171
0.66624957
0.66630999
0.66634198
0.66640623
0.66644042
0.66641679
0.66180217
0.66997501
0.66398164
0.66788935
0.66542161
0.66764698
0.66672414
0.66629146
0.66508875
0.66503291
0.66600952
0.66693799
0.66596175
0.66570003
0.66621759
0.6660497
0.66588865
0.66600995
0.66590764
0.66585396
0.66587052
0.66586355
0.66582256
0.66574282
0.66578074
0.66588653
0.66584019
0.66567842
0.6656155
0.6656506
0.6656068
0.66550773
0.66547623
0.66552317
0.66562008
0.66570071
0.6657388
0.66574623
0.66576906
0.66582004
0.66589515
0.66596692
0.66604595
0.6660927
0.66617215
0.66623075
0.66629404
0.6663564
0.66639263
0.66645982
0.66649152
0.66647684
0.66653346
0.66177797
0.67000461
0.66398541
0.6678844
0.66542388
0.66764846
0.66673651
0.66632014
0.66510255
0.66501893
0.66597876
0.66694773
0.66598033
0.66569768
0.66620114
0.66605733
0.66589358
0.66600928
0.6659101
0.6658576
0.6658735
0.66586657
0.66582533
0.66574349
0.66578209
0.66589527
0.66585661
0.66569178
0.66561714
0.66565253
0.66561747
0.66552055
0.66548654
0.66553218
0.66562971
0.66571536
0.66575789
0.66576855
0.6657914
0.66584237
0.66591848
0.66599298
0.66607122
0.66612182
0.6662078
0.66626928
0.66633753
0.66640116
0.66644187
0.66651149
0.66654141
0.66653991
0.66661084
0.66175423
0.67002483
0.66398778
0.66788171
0.66542283
0.66764858
0.66675016
0.66635056
0.66511797
0.66500546
0.66594699
0.66695642
0.6659995
0.66569533
0.66618352
0.66606565
0.66589929
0.66600823
0.66591293
0.66586163
0.66587655
0.66586944
0.66582795
0.66574401
0.66578414
0.66590287
0.66587246
0.66570562
0.66561884
0.66565358
0.66562679
0.66553369
0.66549756
0.66554185
0.66564117
0.66573057
0.66577919
0.66579148
0.6658147
0.66586645
0.66594233
0.66601988
0.66609792
0.66615308
0.66624439
0.66630822
0.66638208
0.66644723
0.66649257
0.666564
0.66659213
0.66660677
0.6666899
0.66171724
0.6700436
0.66398413
0.66788058
0.66542342
0.66764875
0.66676518
0.66638098
0.66513486
0.66499177
0.66591361
0.66696437
0.66601993
0.66569308
0.66616462
0.66607498
0.66590434
0.66600698
0.66591604
0.66586574
0.66587967
0.66587246
0.66583077
0.66574538
0.66578543
0.66591103
0.66588889
0.66572082
0.66562082
0.66565479
0.6656376
0.66554827
0.66551
0.66555204
0.66565129
0.66574485
0.66579818
0.66581445
0.66583797
0.6658905
0.66596643
0.66604697
0.66612363
0.66618461
0.66628014
0.66634666
0.66642563
0.66649152
0.6665416
0.66661474
0.66664275
0.66667639
0.66676953
0.66682615
0.66168145
0.67007315
0.66398472
0.66787734
0.66542609
0.6676481
0.66678006
0.6664107
0.665153
0.66497863
0.66587938
0.66697094
0.66604141
0.66569132
0.66614469
0.66608606
0.66590903
0.66600582
0.66591937
0.66587021
0.66588282
0.6658755
0.66583337
0.66574697
0.66578735
0.66592006
0.66590485
0.66573672
0.66562319
0.66565554
0.6656471
0.66556292
0.66552229
0.66556313
0.66566265
0.66576017
0.66581936
0.66583856
0.66586195
0.66591623
0.66599145
0.66607457
0.66615103
0.66621843
0.66631679
0.66638562
0.66647011
0.6665371
0.66659217
0.66666675
0.66669537
0.66674936
0.66684946
0.66690119
0.66165796
0.67010014
0.66399278
0.66787357
0.66542912
0.66764395
0.66679469
0.66644182
0.66517237
0.6649653
0.66584349
0.66697627
0.66606463
0.66568947
0.66612383
0.66609864
0.66591369
0.6660047
0.66592249
0.66587472
0.66588607
0.6658785
0.66583628
0.66574896
0.66578934
0.66592862
0.66592219
0.6657537
0.66562617
0.66565626
0.66565812
0.66557926
0.66553658
0.66557456
0.66567351
0.66577433
0.6658382
0.66586174
0.66588635
0.66594177
0.66601644
0.6661027
0.66617759
0.66625237
0.66635252
0.66642433
0.66651365
0.66658095
0.66664117
0.66671735
0.66674932
0.66682418
0.6669284
0.66697487
0.66162731
0.67013021
0.66399562
0.66786998
0.66543302
0.66764077
0.66680911
0.66647449
0.66519281
0.6649526
0.6658069
0.66698007
0.66608863
0.66568769
0.66610307
0.66611245
0.66591893
0.66600271
0.66592507
0.66587948
0.66588938
0.66588154
0.66583903
0.66575139
0.66579148
0.66593577
0.66593894
0.66577101
0.66562941
0.66565692
0.66566814
0.66559564
0.66554995
0.66558713
0.66568485
0.66579015
0.66585895
0.6658866
0.66591141
0.665969
0.66604291
0.66613108
0.66620602
0.66628865
0.66638926
0.66646384
0.66655802
0.66662614
0.66669203
0.66676984
0.66680705
0.66690088
0.66700662
0.66704828
0.667041
0.66158304
0.67016643
0.66399462
0.6678669
0.66543359
0.66763973
0.66682363
0.66650872
0.66521493
0.66493978
0.66576856
0.66698205
0.66611422
0.6656859
0.66608222
0.66612709
0.66592433
0.66599955
0.66592717
0.66588418
0.66589269
0.66588448
0.66584196
0.66575409
0.6657941
0.66594193
0.66595635
0.6657894
0.66563356
0.66565752
0.66567912
0.66561328
0.66556577
0.66559987
0.66569656
0.66580452
0.66587797
0.66591001
0.66593713
0.66599578
0.66606914
0.66616013
0.66623403
0.66632456
0.66642509
0.66650337
0.66660153
0.66666992
0.66674167
0.66682148
0.66686782
0.66697759
0.6670834
0.66711994
0.66712423
0.66154514
0.67019597
0.66399561
0.66786381
0.66543406
0.66763715
0.66683821
0.66654397
0.6652386
0.66492759
0.66572967
0.66698244
0.66614089
0.66568449
0.66606155
0.66614239
0.66592987
0.66599627
0.66592972
0.66588892
0.6658961
0.66588746
0.66584476
0.66575757
0.66579623
0.66594777
0.66597284
0.66580855
0.6656387
0.6656581
0.66568855
0.66563126
0.66558105
0.66561403
0.66570802
0.66582093
0.66589864
0.66593517
0.6659636
0.66602442
0.66609721
0.66618928
0.66626398
0.66636281
0.66646229
0.66654392
0.66664578
0.66671527
0.66679366
0.66687569
0.66693322
0.66705524
0.66715897
0.66719169
0.66721209
0.66727272
0.66151405
0.67021603
0.6640004
0.66785773
0.66543804
0.66763286
0.66685256
0.66658047
0.66526433
0.66491558
0.66568909
0.66698005
0.66616959
0.66568348
0.66604035
0.66615806
0.66593533
0.6659927
0.66593278
0.66589373
0.66589951
0.66589043
0.66584747
0.6657615
0.66580031
0.66595244
0.66598969
0.66582838
0.66564583
0.66565807
0.66569847
0.66564941
0.66559881
0.66562784
0.6657207
0.66583558
0.66591841
0.66595853
0.66599069
0.66605217
0.66612472
0.666219
0.66629423
0.66640023
0.66649854
0.66658452
0.6666893
0.66675984
0.66684488
0.66692974
0.66700125
0.66713257
0.66723238
0.66726361
0.66730171
0.66737165
0.66147266
0.67024197
0.66400403
0.66784951
0.66544073
0.66762672
0.66686687
0.66661795
0.66529143
0.66490423
0.66564803
0.66697603
0.66619957
0.66568284
0.66601865
0.66617416
0.66594089
0.665989
0.66593613
0.66589904
0.66590321
0.66589343
0.66585016
0.66576628
0.6658042
0.66595681
0.66600554
0.66584936
0.66565419
0.66565875
0.66570675
0.66566803
0.66561664
0.66564321
0.66573293
0.66585235
0.66593923
0.66598338
0.6660187
0.6660819
0.66615424
0.66624898
0.66632631
0.66643991
0.66653649
0.6666262
0.66673351
0.66680637
0.66689893
0.66698709
0.66707318
0.66720986
0.66730511
0.66733758
0.6673955
0.66747289
0.6614224
0.67027986
0.6640065
0.66784133
0.66544181
0.66762214
0.66688219
0.66665663
0.66532027
0.66489337
0.66560541
0.66696842
0.66623146
0.665683
0.66599658
0.66619062
0.66594644
0.66598441
0.66593956
0.66590475
0.66590701
0.66589643
0.66585267
0.66577176
0.66580995
0.66595964
0.66602142
0.66587053
0.66566498
0.66565819
0.66571489
0.66568638
0.66563672
0.66565837
0.66574642
0.66586679
0.66595951
0.66600681
0.66604692
0.66611045
0.66618307
0.66627924
0.66635966
0.66647863
0.66657338
0.6666679
0.66677726
0.66685287
0.66695265
0.66704496
0.66714656
0.66728595
0.66737573
0.66741432
0.6674903
0.66757257
0.66761191
0.66137651
0.67032032
0.66401498
0.6678368
0.66544387
0.66761539
0.66689743
0.66669692
0.66535043
0.66488287
0.6655625
0.66695819
0.66626455
0.66568334
0.6659748
0.6662072
0.66595187
0.66597926
0.66594334
0.66591085
0.66591109
0.6658995
0.66585511
0.66577768
0.66581619
0.66596223
0.66603513
0.6658933
0.66567603
0.66565841
0.66572169
0.66570593
0.66565772
0.66567505
0.66575954
0.66588325
0.66598041
0.6660321
0.66607626
0.66614074
0.66621422
0.66631041
0.66639468
0.66651917
0.66661225
0.6667109
0.66682174
0.66690178
0.66700954
0.66710683
0.66722275
0.66736147
0.66744598
0.66749534
0.66758804
0.66767387
0.66771357
0.66133759
0.67035572
0.66402218
0.66783317
0.66544951
0.66760462
0.66691156
0.66673916
0.66538283
0.66487304
0.66551819
0.66694344
0.66629899
0.66568525
0.66595387
0.66622366
0.66595706
0.66597396
0.66594713
0.66591717
0.6659151
0.66590248
0.66585741
0.66578454
0.66582392
0.66596273
0.6660486
0.66591571
0.66569017
0.66565843
0.66572853
0.66572527
0.66567961
0.66569203
0.66577334
0.66589678
0.66600041
0.6660566
0.6661048
0.66617013
0.6662447
0.66634136
0.66643165
0.6665589
0.66665018
0.66675395
0.6668661
0.6669514
0.66706649
0.66716963
0.66729877
0.66743532
0.66751537
0.66758018
0.66768552
0.66777291
0.66781336
0.66128947
0.67038989
0.66402349
0.6678279
0.6654578
0.66759616
0.66692541
0.66678261
0.66541745
0.66486358
0.66547362
0.66692537
0.66633553
0.66568769
0.66593335
0.66623984
0.66596244
0.66596898
0.66595123
0.66592389
0.6659193
0.66590553
0.66585969
0.66579205
0.66583259
0.66596296
0.66605883
0.66593926
0.66570456
0.66565773
0.66573423
0.66574444
0.66570194
0.66571019
0.66578784
0.66591223
0.66602126
0.66608275
0.66613493
0.66620085
0.66627756
0.66637437
0.6664701
0.66659969
0.66669045
0.6667987
0.66691142
0.66700384
0.66712665
0.66723674
0.66737606
0.66750831
0.66758668
0.66766949
0.66778444
0.66787282
0.66791446
0.66793884
0.6612346
0.67043067
0.66402591
0.6678228
0.66546374
0.66759006
0.66693942
0.66682706
0.66545449
0.66485536
0.66542804
0.66690187
0.66637433
0.66569218
0.66591334
0.66625542
0.66596851
0.66596528
0.66595532
0.6659309
0.66592343
0.66590838
0.66586203
0.66580054
0.66584293
0.66596158
0.66606768
0.66596272
0.66572202
0.66565898
0.66573969
0.66576331
0.66572483
0.66572959
0.66580227
0.66592546
0.66604019
0.66610777
0.66616296
0.66623106
0.66630993
0.66640663
0.66651028
0.66663975
0.66673015
0.66684344
0.66695714
0.6670576
0.66718702
0.66730455
0.66745123
0.66757935
0.66765965
0.66776159
0.6678821
0.66796969
0.66801501
0.66805228
0.66118036
0.67047225
0.66403535
0.66781814
0.66546494
0.66758361
0.66695357
0.66687296
0.66549396
0.66484811
0.66538218
0.66687432
0.66641632
0.66569793
0.66589388
0.66626949
0.66597381
0.66596254
0.6659595
0.66593816
0.66592792
0.66591131
0.6658644
0.66580961
0.66585427
0.66595979
0.66607362
0.66598693
0.66574087
0.66565883
0.66574268
0.66578069
0.6657477
0.66574955
0.66581836
0.66594005
0.66606043
0.66613404
0.66619374
0.66626283
0.66634425
0.66644207
0.66655162
0.66667991
0.66677243
0.66689012
0.66700443
0.66711421
0.66725027
0.66737611
0.66752689
0.66764971
0.66773676
0.66785653
0.66798022
0.66806702
0.66811824
0.66816849
0.66821029
0.66112478
0.67050949
0.66404281
0.66780681
0.66546962
0.66757285
0.66696738
0.66692005
0.66553615
0.66484275
0.66533606
0.66684057
0.66646058
0.66570559
0.66587514
0.66628277
0.66597795
0.66595707
0.66596298
0.66594535
0.66593253
0.66591402
0.66586656
0.66581949
0.66586668
0.66595779
0.66607654
0.66601088
0.66576257
0.66566162
0.66574529
0.66579973
0.66577161
0.66577073
0.66583395
0.66595428
0.66607861
0.66615861
0.66622194
0.66629394
0.66637813
0.66647659
0.66659345
0.6667194
0.66681449
0.66693662
0.66705271
0.66717226
0.66731361
0.66744715
0.66759982
0.66771869
0.66781705
0.66795169
0.66807617
0.66816201
0.66822215
0.6682858
0.66833502
0.66106552
0.67054959
0.6640479
0.66779603
0.66547803
0.66755777
0.66698095
0.66696847
0.66558034
0.66483864
0.66528998
0.66680198
0.66650848
0.66571369
0.66585732
0.666294
0.66598096
0.66595269
0.6659655
0.66595206
0.66593753
0.66591674
0.66586872
0.66582939
0.66588022
0.66595437
0.66607574
0.66603417
0.66578546
0.66566334
0.66574635
0.66581733
0.66579513
0.66579221
0.6658516
0.66596935
0.66609808