/*--------------------------------*- C++ -*----------------------------------*\
| =========                 |                                                 |
| \\      /  F ield         | OpenFOAM: The Open Source CFD Toolbox           |
|  \\    /   O peration     | Version:  2506                                  |
|   \\  /    A nd           | Website:  www.openfoam.com                      |
|    \\/     M anipulation  |                                                 |
\*---------------------------------------------------------------------------*/
FoamFile
{
    version     2.0;
    format      ascii;
    arch        "LSB;label=32;scalar=64";
    class       volScalarField;
    location    "2.3";
    object      yPlus;
}
// * * * * * * * * * * * * * * * * * * * * * * * * * * * * * * * * * * * * * //

dimensions      [0 0 0 0 0 0 0];

internalField   uniform 0;

boundaryField
{
    Side
    {
        type            empty;
    }
    Inlet
    {
        type            calculated;
        value           uniform 0;
    }
    Airfoil
    {
        type            calculated;
        value           nonuniform List<scalar> 
117
(
805.99426
796.1171
783.30552
784.77585
786.4962
788.17088
793.31728
800.15414
807.85078
816.30784
825.66624
834.99517
844.38444
853.28637
861.57448
869.06591
875.39059
880.294
883.44237
884.49791
883.33278
880.19199
875.26038
868.71977
861.22649
852.97958
843.9123
834.80021
825.61809
816.34277
807.78333
800.46748
794.2317
789.92139
785.34416
784.4532
787.43169
796.98916
808.67353
1451.8237
1435.611
1433.1288
1409.7948
1391.7165
1373.3632
1355.5481
1340.5282
1324.4553
1318.9232
1305.5967
1298.767
1274.3843
1264.2202
1230.3298
1209.4459
1178.8991
1147.6388
1115.8938
1095.2799
1065.3976
1046.9149
1020.3603
1003.5295
984.71282
966.84976
946.38349
929.933
912.12838
895.155
880.69792
865.55083
851.7242
840.23369
831.22135
824.58903
818.50623
810.78124
810.13269
810.08045
811.54217
817.36019
823.68271
831.42441
843.48969
855.94179
867.91666
883.32373
899.19589
916.16684
934.70671
953.70494
975.71293
997.45338
1019.9764
1040.7824
1064.5808
1083.6873
1111.1474
1131.8472
1157.8186
1184.6893
1215.1542
1237.6913
1270.4967
1277.0878
1293.0964
1298.1392
1313.6301
1325.7939
1344.4267
1358.2727
1379.415
1400.9447
1420.532
1441.4011
1443.7921
1456.5103
)
;
    }
    Outlet
    {
        type            calculated;
        value           uniform 0;
    }
}


// ************************************************************************* //
