/*--------------------------------*- C++ -*----------------------------------*\
| =========                 |                                                 |
| \\      /  F ield         | OpenFOAM: The Open Source CFD Toolbox           |
|  \\    /   O peration     | Version:  2506                                  |
|   \\  /    A nd           | Website:  www.openfoam.com                      |
|    \\/     M anipulation  |                                                 |
\*---------------------------------------------------------------------------*/
FoamFile
{
    version     2.0;
    format      ascii;
    arch        "LSB;label=32;scalar=64";
    class       volScalarField;
    location    "0.0055";
    object      p;
}
// * * * * * * * * * * * * * * * * * * * * * * * * * * * * * * * * * * * * * //

dimensions      [1 -1 -2 0 0 0 0];

internalField   nonuniform List<scalar> 
192657
(
46974.75
47032.436
46975.162
46976.394
46970.729
46970.28
46970.033
46970.004
46970
46970
46970
46970
46970
46970
46970
46970
46970
46970
46970.028
46970.36
46972.41
46980.931
47006.482
47060.153
47124.436
47087.065
46824.667
46406.116
46093.319
46009.936
45964.395
45782.521
45639.053
45590.281
45474.158
45366.722
45304.796
45209.937
45125.963
45045.665
44949.128
44863.234
44762.586
44661.542
44560.524
44452.14
44329.524
44202.433
44086.656
43964.662
43825.636
43681.762
43538.285
43393.038
43246.489
43098.714
42949.042
42797.964
42646.276
42494.72
42344.267
42195.76
42050.462
41908.838
41771.338
41638.526
41511.05
41389.268
41273.45
41163.698
41060.094
40962.568
40871.076
40785.383
40705.306
40630.505
40560.738
40495.684
40435.114
40378.646
40326.041
40276.991
40231.198
40188.398
40148.314
40110.689
40075.277
40041.847
40010.188
39980.14
39951.545
39924.256
39898.132
39873.048
39848.891
39825.563
39802.963
39780.985
39759.57
39738.775
39718.701
39699.419
39680.844
39663.645
39649.029
39636.548
39626.709
39620.602
39618.03
39617.904
39619.036
39620.868
39623.215
39625.928
39628.852
39631.856
39634.843
39637.743
39640.51
39643.113
39645.538
39647.781
39649.842
39651.728
39653.447
39655.008
39656.424
39657.707
39658.87
39659.923
39660.879
39661.746
39662.532
39663.251
39663.929
39664.565
39664.97
39664.861
39664.19
39663.334
39662.615
39662.051
39661.616
39661.297
39661.087
39660.973
39660.939
39660.961
39661.021
46974.655
47032.445
46975.218
46976.391
46970.737
46970.279
46970.033
46970.004
46970
46970
46970
46970
46970
46970
46970
46970
46970
46970
46970.027
46970.354
46972.39
46980.873
47006.399
47060.31
47125.747
47091.715
46831.615
46412.874
46098.821
46014.37
45969.506
45788.663
45644.333
45595.379
45480.156
45372.436
45310.502
45216.18
45132.089
45052.217
44955.876
44870.201
44769.863
44669.105
44568.595
44460.391
44337.882
44211.117
44095.718
43973.868
43834.892
43691.1
43547.754
43402.546
43255.915
43107.955
42957.925
42806.336
42653.995
42501.666
42350.297
42200.739
42054.31
41911.476
41772.744
41638.634
41509.81
41386.63
41269.416
41158.277
41053.311
40954.449
40861.651
40774.679
40693.382
40617.433
40546.614
40480.596
40419.17
40361.944
40308.696
40259.12
40212.907
40169.808
40129.562
40091.915
40056.636
40023.506
39992.331
39962.942
39935.197
39908.969
39884.139
39860.594
39838.235
39816.978
39796.761
39777.543
39759.287
39741.923
39725.317
39709.406
39694.259
39679.702
39665.92
39653.756
39642.486
39631.937
39622.478
39614.127
39606.757
39600.259
39594.575
39589.684
39585.573
39582.22
39579.592
39577.635
39576.234
39575.191
39574.363
39573.708
39573.208
39572.84
39572.584
39572.421
39572.332
39572.305
39572.326
39572.385
39572.473
39572.582
39572.704
39572.835
39572.969
39573.103
39573.233
39573.36
39573.481
39573.597
39573.707
39573.81
39573.906
39573.99
39574.055
39574.101
39574.132
39574.156
39574.173
46974.7
47032.453
46975.278
46976.387
46970.745
46970.277
46970.033
46970.004
46970
46970
46970
46970
46970
46970
46970
46970
46970
46970
46970.026
46970.349
46972.37
46980.816
47006.321
47060.479
47127.079
47096.418
46838.628
46419.731
46104.342
46018.835
45974.644
45794.844
45649.655
45600.496
45486.203
45378.204
45316.242
45222.477
45138.257
45058.832
44962.696
44877.242
44777.218
44676.752
44576.755
44468.75
44346.347
44219.919
44104.9
43983.203
43844.295
43700.596
43557.38
43412.226
43265.52
43117.382
42967.004
42814.91
42661.918
42508.812
42356.523
42205.921
42058.357
41914.306
41774.331
41638.918
41508.718
41384.128
41265.504
41152.961
41046.607
40946.389
40852.256
40763.99
40681.46
40604.361
40532.491
40465.531
40403.267
40345.32
40291.47
40241.425
40194.886
40151.602
40111.336
40073.831
40038.874
40006.248
39975.79
39947.336
39920.741
39895.884
39872.655
39850.954
39830.696
39811.816
39794.25
39777.933
39762.811
39748.847
39736.035
39724.351
39713.736
39704.616
39697.532
39692.441
39689.176
39686.827
39684.985
39683.542
39682.426
39681.568
39680.89
39680.309
39679.751
39679.155
39678.475
39677.689
39676.846
39676.084
39675.488
39675.042
39674.715
39674.486
39674.336
39674.253
39674.223
39674.235
39674.281
39674.352
39674.443
39674.547
39674.66
39674.778
39674.899
39675.019
39675.136
39675.248
39675.353
39675.448
39675.532
39675.602
39675.657
39675.7
39675.731
39675.753
39675.769
39675.783
39675.795
46974.857
47032.461
46975.341
46976.382
46970.754
46970.276
46970.033
46970.004
46970
46970
46970
46970
46970
46970
46970
46970
46970
46970
46970.024
46970.343
46972.35
46980.759
47006.244
47060.652
47128.425
47101.18
46845.746
46426.729
46109.909
46023.346
45979.838
45801.087
45655.044
45605.653
45492.305
45384.044
45322.026
45228.828
45144.481
45065.511
44969.598
44884.361
44784.657
44684.491
44585.002
44477.222
44354.923
44228.842
44114.203
43992.662
43853.851
43710.254
43567.177
43422.078
43275.317
43127.002
42976.285
42823.696
42670.062
42516.171
42362.964
42211.334
42062.615
41917.344
41776.12
41639.395
41507.802
41381.799
41261.749
41147.783
41040.015
40938.413
40842.917
40753.341
40669.56
40591.302
40518.37
40450.464
40387.365
40328.72
40274.305
40223.828
40177.001
40133.592
40093.363
40056.075
40021.527
39989.485
39959.832
39932.388
39907.011
39883.574
39861.967
39842.08
39823.817
39807.099
39791.845
39777.983
39765.445
39754.147
39743.991
39734.9
39726.977
39720.042
39714.022
39708.849
39705.059
39702.185
39699.437
39696.713
39694.119
39691.79
39689.815
39688.229
39687.031
39686.183
39685.632
39685.321
39685.191
39685.178
39685.232
39685.331
39685.463
39685.622
39685.798
39685.987
39686.182
39686.379
39686.575
39686.768
39686.954
39687.133
39687.303
39687.462
39687.61
39687.747
39687.873
39687.987
39688.091
39688.185
39688.269
39688.343
39688.405
39688.451
39688.483
39688.503
39688.515
39688.523
39688.53
46974.963
47032.47
46975.405
46976.376
46970.763
46970.275
46970.033
46970.004
46970
46970
46970
46970
46970
46970
46970
46970
46970
46970
46970.023
46970.337
46972.329
46980.701
47006.165
47060.822
47129.783
47105.999
46852.991
46433.899
46115.55
46027.91
45985.107
45807.404
45660.514
45610.861
45498.474
45389.967
45327.862
45235.23
45150.768
45072.265
44976.582
44891.558
44792.183
44692.319
44593.348
44485.806
44363.606
44237.892
44123.625
44002.249
43863.559
43720.075
43577.149
43432.11
43285.306
43136.822
42985.779
42832.704
42678.435
42523.759
42369.636
42216.987
42067.093
41920.607
41778.129
41640.08
41507.095
41379.671
41258.173
41142.761
41033.549
40930.534
40833.647
40742.741
40657.689
40578.255
40504.247
40435.381
40371.433
40312.076
40257.085
40206.182
40159.089
40115.574
40075.398
40038.333
40004.175
39972.722
39943.82
39917.309
39893.03
39870.845
39850.633
39832.269
39815.647
39800.659
39787.184
39775.153
39764.434
39754.951
39746.622
39739.384
39733.21
39727.992
39723.782
39719.494
39715.806
39712.843
39710.783
39709.559
39708.944
39708.672
39708.557
39708.516
39708.5
39708.473
39708.43
39708.381
39708.342
39708.329
39708.341
39708.372
39708.427
39708.504
39708.597
39708.702
39708.814
39708.93
39709.048
39709.168
39709.287
39709.404
39709.517
39709.626
39709.729
39709.825
39709.913
39709.994
39710.065
39710.127
39710.179
39710.223
39710.258
39710.285
39710.303
39710.314
39710.321
39710.326
39710.33
46974.993
47032.48
46975.468
46976.369
46970.772
46970.273
46970.033
46970.004
46970
46970
46970
46970
46970
46970
46970
46970
46970
46970
46970.022
46970.33
46972.307
46980.641
47006.08
47060.987
47131.148
47110.871
46860.369
46441.264
46121.284
46032.536
45990.457
45813.807
45666.075
45616.127
45504.731
45395.973
45333.743
45241.693
45157.121
45079.098
44983.648
44898.831
44799.795
44700.244
44601.795
44494.502
44372.397
44247.069
44133.168
44011.974
43873.418
43730.059
43587.294
43442.329
43295.49
43146.849
42995.49
42841.94
42687.044
42531.586
42376.552
42222.887
42071.81
41924.107
41780.356
41640.992
41506.617
41377.754
41254.783
41137.904
41027.223
40922.765
40824.46
40732.198
40645.851
40565.213
40490.099
40420.241
40355.419
40295.325
40239.732
40188.363
40140.958
40097.288
40057.112
40020.206
39986.368
39955.389
39927.102
39901.341
39877.938
39856.744
39837.61
39820.393
39804.96
39791.181
39778.929
39768.088
39758.544
39750.185
39742.923
39736.663
39731.32
39726.682
39722.733
39719.323
39716.628
39714.531
39712.754
39711.283
39710.09
39709.145
39708.413
39707.827
39707.339
39706.938
39706.614
39706.354
39706.149
39705.987
39705.845
39705.73
39705.662
39705.632
39705.635
39705.666
39705.719
39705.782
39705.851
39705.924
39705.998
39706.073
39706.147
39706.218
39706.285
39706.349
39706.409
39706.464
39706.515
39706.562
39706.603
39706.638
39706.666
39706.687
39706.7
39706.708
39706.712
39706.714
39706.715
46974.951
47032.489
46975.534
46976.361
46970.782
46970.272
46970.033
46970.004
46970
46970
46970
46970
46970
46970
46970
46970
46970
46970
46970.02
46970.324
46972.284
46980.579
47005.991
47061.146
47132.52
47115.787
46867.881
46448.858
46127.124
46037.233
45995.893
45820.303
45671.737
45621.459
45511.077
45402.061
45339.67
45248.237
45163.551
45086.01
44990.797
44906.187
44807.501
44708.27
44610.348
44503.305
44381.297
44256.373
44142.835
44021.838
43883.436
43740.208
43597.608
43452.736
43305.868
43157.088
43005.421
42851.408
42695.896
42539.663
42383.723
42229.044
42076.794
41927.847
41782.808
41642.139
41506.37
41376.051
41251.587
41133.216
41021.04
40915.113
40815.366
40721.721
40634.05
40552.175
40475.917
40405.02
40339.271
40278.38
40222.123
40170.236
40122.459
40078.555
40038.281
40001.418
39967.75
39937.071
39909.192
39883.935
39861.118
39840.572
39822.139
39805.661
39790.984
39777.955
39766.427
39756.265
39747.343
39739.564
39732.836
39727.025
39721.988
39717.625
39713.887
39710.632
39707.8
39705.531
39703.625
39702.028
39700.694
39699.581
39698.652
39697.879
39697.244
39696.727
39696.31
39695.977
39695.712
39695.512
39695.401
39695.358
39695.333
39695.317
39695.308
39695.315
39695.341
39695.377
39695.421
39695.469
39695.518
39695.564
39695.606
39695.646
39695.685
39695.721
39695.756
39695.787
39695.815
39695.84
39695.861
39695.879
39695.893
39695.903
39695.91
39695.913
39695.914
39695.914
39695.914
46974.846
47032.499
46975.606
46976.354
46970.792
46970.27
46970.033
46970.004
46970
46970
46970
46970
46970
46970
46970
46970
46970
46970
46970.019
46970.317
46972.261
46980.514
47005.894
47061.294
47133.895
47120.739
46875.502
46456.726
46133.068
46042.01
46001.414
45826.902
45677.507
45626.86
45517.502
45408.236
45345.664
45254.864
45170.064
45093.004
44998.035
44913.629
44815.306
44716.391
44619.018
44512.209
44390.31
44265.808
44152.624
44031.839
43893.613
43750.528
43608.095
43463.33
43316.448
43167.541
43015.576
42861.105
42704.991
42547.993
42391.151
42235.46
42082.046
41931.839
41785.499
41643.519
41506.35
41374.566
41248.59
41128.703
41015.008
40907.585
40806.369
40711.311
40622.28
40539.125
40461.673
40389.684
40322.952
40261.198
40204.198
40151.689
40103.422
40059.161
40018.655
39981.676
39948.005
39917.416
39889.706
39864.683
39842.151
39821.93
39803.838
39787.702
39773.353
39760.636
39749.395
39739.483
39730.776
39723.149
39716.464
39710.6
39705.492
39701
39697.053
39693.867
39691.031
39688.745
39686.802
39685.15
39683.751
39682.571
39681.576
39680.739
39680.036
39679.447
39678.955
39678.544
39678.204
39677.924
39677.692
39677.504
39677.353
39677.234
39677.142
39677.058
39676.98
39676.914
39676.862
39676.821
39676.791
39676.772
39676.759
39676.751
39676.749
39676.751
39676.757
39676.766
39676.777
39676.789
39676.801
39676.811
39676.819
39676.824
39676.827
39676.828
39676.828
39676.827
39676.826
46974.676
47032.507
46975.681
46976.346
46970.802
46970.268
46970.032
46970.003
46970
46970
46970
46970
46970
46970
46970
46970
46970
46970
46970.018
46970.309
46972.236
46980.446
47005.791
47061.43
47135.272
47125.72
46883.255
46464.908
46139.115
46046.874
46007.021
45833.616
45683.398
45632.326
45524.009
45414.508
45351.732
45261.574
45176.659
45100.082
45005.368
44921.159
44823.208
44724.612
44627.801
44521.214
44399.443
44275.379
44162.539
44041.977
43903.947
43761.021
43618.758
43474.107
43327.233
43178.21
43025.956
42871.036
42714.331
42556.575
42398.834
42242.137
42087.571
41936.096
41788.431
41645.131
41506.563
41373.308
41245.801
41124.372
41009.132
40900.187
40797.475
40700.971
40610.544
40526.065
40447.363
40374.216
40306.421
40243.712
40185.872
40132.637
40083.755
40038.987
39998.077
39960.793
39926.9
39896.164
39868.368
39843.299
39820.748
39800.517
39782.423
39766.28
39751.913
39739.149
39727.831
39717.817
39708.966
39701.147
39694.233
39688.114
39682.676
39677.835
39673.525
39669.881
39666.573
39663.87
39661.548
39659.544
39657.82
39656.339
39655.066
39653.971
39653.03
39652.22
39651.524
39650.925
39650.41
39649.968
39649.588
39649.263
39648.984
39648.746
39648.542
39648.37
39648.224
39648.102
39648.001
39647.917
39647.848
39647.793
39647.753
39647.726
39647.704
39647.687
39647.674
39647.663
39647.654
39647.646
39647.638
39647.632
39647.627
39647.624
39647.621
39647.618
39647.615
39647.613
39647.611
46974.57
47032.515
46975.758
46976.336
46970.813
46970.266
46970.032
46970.003
46970
46970
46970
46970
46970
46970
46970
46970
46970
46970
46970.016
46970.302
46972.211
46980.375
47005.68
47061.553
47136.65
47130.724
46891.212
46473.354
46145.265
46051.826
46012.719
45840.453
45689.41
45637.856
45530.611
45420.882
45357.865
45268.38
45183.341
45107.252
45012.796
44928.779
44831.205
44732.942
44636.694
44530.331
44408.697
44285.085
44172.588
44052.254
43914.438
43771.681
43629.599
43485.073
43338.223
43189.095
43036.565
42881.209
42723.917
42565.41
42406.781
42249.083
42093.37
41940.628
41791.608
41646.98
41507.014
41372.276
41243.223
41120.224
41003.416
40892.921
40788.685
40690.701
40598.838
40512.984
40432.975
40358.602
40289.666
40225.905
40167.103
40113.002
40063.355
40017.917
39976.425
39938.636
39904.307
39873.188
39845.049
39819.666
39796.813
39776.286
39757.881
39741.409
39726.692
39713.567
39701.872
39691.456
39682.181
39673.906
39666.507
39659.879
39653.974
39648.684
39643.914
39639.981
39636.391
39633.434
39630.885
39628.668
39626.745
39625.077
39623.63
39622.373
39621.282
39620.332
39619.507
39618.789
39618.164
39617.62
39617.147
39616.736
39616.378
39616.068
39615.798
39615.565
39615.363
39615.19
39615.041
39614.913
39614.805
39614.713
39614.635
39614.571
39614.517
39614.473
39614.437
39614.408
39614.384
39614.367
39614.355
39614.346
39614.338
39614.332
39614.327
39614.323
39614.32
39614.317
39614.314
46974.679
47032.524
46975.836
46976.325
46970.824
46970.264
46970.032
46970.003
46970
46970
46970
46970
46970
46970
46970
46970
46970
46970
46970.015
46970.294
46972.184
46980.302
47005.561
47061.663
47138.028
47135.747
46899.409
46482.013
46151.531
46056.867
46018.517
45847.415
45695.541
45643.456
45537.317
45427.36
45364.068
45275.283
45190.121
45114.518
45020.324
44936.492
44839.304
44741.386
44645.696
44539.559
44418.071
44294.923
44182.775
44062.677
43925.089
43782.508
43640.616
43496.234
43349.416
43200.194
43047.407
42891.623
42733.747
42574.506
42414.999
42256.3
42099.444
41945.436
41795.039
41649.063
41507.694
41371.463
41240.848
41116.26
40997.863
40885.795
40780.006
40680.506
40587.167
40499.887
40418.505
40342.827
40272.656
40207.742
40147.871
40092.776
40042.207
39995.916
39953.637
39915.124
39880.123
39848.375
39819.643
39793.683
39770.265
39749.169
39730.195
39713.144
39697.834
39684.093
39671.768
39660.715
39650.791
39641.877
39633.858
39626.629
39620.093
39614.177
39608.812
39604.206
39600.057
39596.587
39593.588
39590.965
39588.677
39586.682
39584.939
39583.416
39582.083
39580.916
39579.894
39578.997
39578.211
39577.52
39576.915
39576.383
39575.916
39575.507
39575.148
39574.834
39574.56
39574.32
39574.112
39573.93
39573.774
39573.638
39573.522
39573.422
39573.338
39573.266
39573.205
39573.155
39573.113
39573.078
39573.05
39573.028
39573.011
39572.998
39572.988
39572.981
39572.976
39572.973
39572.97
46974.844
47032.535
46975.919
46976.314
46970.836
46970.263
46970.032
46970.003
46970
46970
46970
46970
46970
46970
46970
46970
46970
46970
46970.014
46970.286
46972.157
46980.225
47005.434
47061.758
47139.4
47140.788
46907.833
46490.892
46157.914
46061.998
46024.422
45854.504
45701.792
45649.134
45544.124
45433.944
45370.357
45282.291
45197.004
45121.876
45027.952
44944.297
44847.518
44749.94
44654.811
44548.902
44427.564
44304.9
44193.101
44073.246
43935.906
43793.501
43651.81
43507.592
43360.813
43211.512
43058.479
42902.278
42743.827
42583.862
42423.483
42263.789
42105.793
41950.521
41798.737
41651.382
41508.597
41370.866
41238.676
41112.479
40992.471
40878.804
40771.432
40670.382
40575.523
40486.766
40403.952
40326.899
40255.41
40189.236
40128.163
40071.929
40020.284
39972.971
39929.72
39890.278
39854.384
39821.777
39792.208
39765.435
39741.214
39719.321
39699.542
39681.677
39665.551
39650.998
39637.858
39625.985
39615.253
39605.537
39596.728
39588.739
39581.525
39574.995
39569.061
39563.939
39559.348
39555.461
39552.101
39549.149
39546.558
39544.286
39542.292
39540.538
39538.996
39537.638
39536.441
39535.386
39534.454
39533.633
39532.907
39532.266
39531.701
39531.201
39530.761
39530.372
39530.031
39529.73
39529.467
39529.236
39529.035
39528.859
39528.708
39528.576
39528.464
39528.367
39528.285
39528.215
39528.157
39528.108
39528.069
39528.037
39528.012
39527.994
39527.981
39527.972
39527.966
39527.961
39527.958
46974.918
47032.546
46976.005
46976.304
46970.848
46970.26
46970.031
46970.003
46970
46970
46970
46970
46970
46970
46970
46970
46970
46970
46970.012
46970.277
46972.128
46980.145
47005.299
47061.835
47140.765
47145.846
46916.475
46500.03
46164.409
46067.229
46030.434
45861.719
45708.167
45654.897
45551.031
45440.64
45376.736
45289.413
45203.985
45129.334
45035.682
44952.204
44855.843
44758.611
44664.041
44558.36
44437.18
44315.016
44203.567
44083.964
43946.889
43804.664
43663.181
43519.142
43372.42
43223.051
43069.778
42913.174
42754.157
42593.472
42432.232
42271.546
42112.415
41955.88
41802.718
41653.936
41509.724
41370.486
41236.708
41108.885
40987.244
40871.952
40762.965
40660.327
40563.906
40473.623
40389.314
40310.812
40237.919
40170.39
40108.01
40050.505
39997.623
39949.109
39904.69
39864.11
39827.109
39793.418
39762.791
39734.974
39709.729
39686.829
39666.063
39647.223
39630.123
39614.593
39600.488
39587.673
39576.019
39565.418
39555.77
39546.98
39538.961
39531.655
39525.001
39519.101
39513.91
39509.432
39505.567
39502.164
39499.172
39496.542
39494.226
39492.185
39490.385
39488.794
39487.388
39486.144
39485.043
39484.068
39483.204
39482.439
39481.761
39481.16
39480.628
39480.158
39479.741
39479.374
39479.05
39478.765
39478.515
39478.297
39478.106
39477.94
39477.797
39477.673
39477.567
39477.477
39477.401
39477.338
39477.286
39477.245
39477.212
39477.188
39477.171
39477.16
39477.153
39477.148
39477.144
46974.911
47032.557
46976.095
46976.293
46970.861
46970.258
46970.031
46970.003
46970
46970
46970
46970
46970
46970
46970
46970
46970
46970
46970.011
46970.268
46972.098
46980.062
47005.155
47061.897
47142.119
47150.921
46925.335
46509.429
46171.012
46072.563
46036.558
45869.062
45714.659
45660.747
45558.051
45447.458
45383.205
45296.644
45211.073
45136.89
45043.522
44960.219
44864.279
44767.403
44673.383
44567.932
44446.926
44325.272
44214.178
44094.835
43958.033
43816.003
43674.73
43530.886
43384.239
43234.812
43081.303
42924.308
42764.739
42603.338
42441.242
42279.57
42119.307
41961.512
41806.982
41656.729
41511.074
41370.32
41234.939
41105.474
40982.179
40865.232
40754.6
40650.339
40552.316
40460.459
40374.602
40294.584
40220.205
40151.222
40087.416
40028.519
39974.274
39924.412
39878.662
39836.768
39798.462
39763.486
39731.589
39702.529
39676.064
39651.967
39630.025
39610.034
39591.818
39575.209
39560.045
39546.193
39533.536
39521.961
39511.372
39501.695
39492.885
39484.852
39477.508
39470.918
39465.149
39460.105
39455.762
39451.933
39448.554
39445.574
39442.944
39440.619
39438.562
39436.74
39435.126
39433.694
39432.423
39431.294
39430.291
39429.401
39428.61
39427.907
39427.283
39426.729
39426.237
39425.802
39425.417
39425.077
39424.778
39424.515
39424.285
39424.084
39423.909
39423.758
39423.628
39423.517
39423.424
39423.346
39423.281
39423.23
39423.189
39423.159
39423.139
39423.125
39423.117
39423.111
39423.107
46974.877
47032.567
46976.188
46976.28
46970.874
46970.255
46970.031
46970.003
46970
46970
46970
46970
46970
46970
46970
46970
46970
46970
46970.01
46970.259
46972.067
46979.976
47005.002
47061.941
47143.464
47156.012
46934.42
46519.088
46177.743
46078.006
46042.798
45876.528
45721.269
45666.696
45565.194
45454.407
45389.766
45303.988
45218.273
45144.549
45051.482
44968.338
44872.835
44776.32
44682.844
44577.61
44456.81
44335.673
44224.935
44105.858
43969.341
43827.516
43686.457
43542.826
43396.267
43246.794
43093.058
42935.68
42775.572
42613.464
42450.518
42287.862
42126.47
41967.419
41811.524
41659.766
41512.639
41370.353
41233.371
41102.248
40977.278
40858.648
40746.339
40640.418
40540.752
40447.273
40359.814
40278.217
40202.283
40131.77
40066.45
40006.047
39950.301
39898.95
39851.718
39808.347
39768.574
39732.136
39698.793
39668.302
39640.433
39614.971
39591.709
39570.444
39550.989
39533.179
39516.866
39501.915
39488.204
39475.632
39464.103
39453.523
39443.806
39434.886
39426.697
39419.263
39412.801
39407.075
39402.159
39397.824
39393.992
39390.607
39387.615
39384.968
39382.621
39380.54
39378.693
39377.051
39375.592
39374.295
39373.14
39372.112
39371.198
39370.383
39369.658
39369.013
39368.44
39367.931
39367.479
39367.08
39366.728
39366.417
39366.144
39365.906
39365.698
39365.518
39365.362
39365.23
39365.117
39365.023
39364.945
39364.883
39364.834
39364.798
39364.773
39364.757
39364.748
39364.741
39364.737
46974.846
47032.577
46976.285
46976.267
46970.887
46970.252
46970.03
46970.003
46970
46970
46970
46970
46970
46970
46970
46970
46970
46970
46970.009
46970.249
46972.035
46979.886
47004.839
47061.967
47144.798
47161.106
46943.737
46529.011
46184.615
46083.557
46049.153
45884.116
45728.003
45672.762
45572.456
45461.485
45396.421
45311.452
45225.588
45152.321
45059.558
44976.563
44881.511
44785.366
44692.432
44587.39
44466.834
44346.223
44235.841
44117.036
43980.817
43839.203
43698.367
43554.963
43408.501
43259
43105.045
42947.29
42786.651
42623.854
42460.06
42296.422
42133.905
41973.6
41816.334
41663.058
41514.414
41370.591
41232.002
41099.207
40972.539
40852.201
40738.184
40630.569
40529.222
40434.079
40344.968
40261.735
40184.176
40112.053
40045.134
39983.143
39925.812
39872.869
39824.039
39779.067
39737.685
39699.644
39664.705
39632.636
39603.214
39576.229
39551.484
39528.791
39507.982
39488.888
39471.348
39455.226
39440.402
39426.761
39414.206
39402.66
39392.057
39382.307
39373.327
39365.096
39357.922
39351.53
39346.048
39341.211
39336.927
39333.137
39329.782
39326.808
39324.168
39321.824
39319.739
39317.885
39316.234
39314.764
39313.453
39312.285
39311.243
39310.314
39309.486
39308.747
39308.09
39307.505
39306.986
39306.525
39306.118
39305.759
39305.443
39305.166
39304.924
39304.713
39304.532
39304.376
39304.244
39304.133
39304.041
39303.967
39303.91
39303.867
39303.838
39303.82
39303.808
39303.801
39303.796
46974.811
47032.587
46976.385
46976.253
46970.9
46970.25
46970.03
46970.003
46970
46970
46970
46970
46970
46970
46970
46970
46970
46970
46970.008
46970.239
46972.001
46979.792
47004.666
47061.977
47146.115
47166.201
46953.298
46539.207
46191.631
46089.219
46055.617
45891.838
45734.868
45678.955
45579.838
45468.693
45403.178
45319.042
45233.026
45160.203
45067.75
44984.904
44890.315
44794.548
44702.148
44597.278
44476.992
44356.923
44246.901
44128.375
43992.458
43851.07
43710.462
43567.296
43420.941
43271.427
43117.265
42959.137
42797.975
42634.502
42469.868
42305.248
42141.609
41980.048
41821.409
41666.617
41516.407
41371.042
41230.836
41096.355
40967.965
40845.891
40730.135
40620.79
40517.724
40420.876
40330.067
40245.151
40165.92
40092.131
40023.547
39959.883
39900.878
39846.258
39795.746
39749.082
39706.005
39666.262
39629.624
39595.864
39564.772
39536.155
39509.823
39485.594
39463.303
39442.798
39423.933
39406.57
39390.577
39375.839
39362.243
39349.687
39338.082
39327.375
39317.507
39308.46
39300.501
39293.382
39287.272
39281.886
39277.11
39272.878
39269.127
39265.798
39262.841
39260.212
39257.872
39255.788
39253.931
39252.276
39250.799
39249.481
39248.304
39247.253
39246.316
39245.479
39244.733
39244.069
39243.478
39242.954
39242.489
39242.078
39241.716
39241.398
39241.12
39240.878
39240.668
39240.488
39240.335
39240.207
39240.1
39240.014
39239.947
39239.897
39239.863
39239.842
39239.829
39239.821
39239.816
46974.768
47032.598
46976.49
46976.238
46970.914
46970.247
46970.03
46970.003
46970
46970
46970
46970
46970
46970
46970
46970
46970
46970
46970.006
46970.229
46971.966
46979.695
47004.484
47061.965
47147.406
47171.313
46963.105
46549.668
46198.801
46094.999
46062.192
45899.702
45741.874
45685.271
45587.349
45476.048
45410.042
45326.759
45240.59
45168.193
45076.071
44993.363
44899.252
44803.863
44712
44607.275
44487.274
44367.768
44258.123
44139.879
44004.264
43863.107
43722.751
43579.825
43433.588
43284.069
43129.715
42971.225
42809.543
42645.401
42479.939
42314.341
42149.582
41986.763
41826.75
41670.442
41518.635
41371.702
41229.873
41093.694
40963.559
40839.722
40722.2
40611.09
40506.268
40407.677
40315.13
40228.485
40147.529
40072.025
40001.73
39936.358
39875.635
39819.286
39767.035
39718.624
39673.79
39632.291
39593.898
39558.392
39525.567
39495.235
39467.221
39441.361
39417.506
39395.504
39375.212
39356.502
39339.248
39323.326
39308.623
39295.047
39282.517
39270.942
39260.248
39250.37
39241.599
39233.766
39227.019
39221.075
39215.796
39211.113
39206.956
39203.262
39199.978
39197.055
39194.45
39192.129
39190.058
39188.21
39186.561
39185.087
39183.77
39182.593
39181.542
39180.604
39179.766
39179.019
39178.353
39177.762
39177.237
39176.772
39176.362
39176.001
39175.684
39175.408
39175.169
39174.963
39174.787
39174.639
39174.517
39174.418
39174.34
39174.283
39174.244
39174.219
39174.204
39174.195
39174.189
46974.719
47032.608
46976.598
46976.222
46970.928
46970.244
46970.029
46970.003
46970
46970
46970
46970
46970
46970
46970
46970
46970
46970
46970.005
46970.219
46971.93
46979.593
47004.29
47061.93
47148.663
47176.467
46973.149
46560.405
46206.155
46100.906
46068.88
45907.717
45749.035
45691.712
45594.997
45483.563
45417.012
45334.604
45248.28
45176.301
45084.523
45001.944
44908.323
44813.316
44721.992
44617.389
44497.685
44378.76
44269.511
44151.547
44016.244
43875.315
43735.23
43592.555
43446.446
43296.919
43142.393
42983.553
42821.353
42656.55
42490.27
42323.702
42157.827
41993.747
41832.353
41674.53
41521.108
41372.574
41229.121
41091.228
40959.327
40833.697
40714.379
40601.471
40494.856
40394.486
40300.168
40211.763
40129.056
40051.801
39979.755
39912.628
39850.154
39792.054
39738.05
39687.881
39641.288
39598.026
39557.873
39520.613
39486.049
39454.001
39424.294
39396.77
39371.286
39347.711
39325.917
39305.779
39287.179
39270.006
39254.146
39239.489
39225.933
39213.407
39201.828
39191.129
39181.499
39172.922
39165.493
39158.955
39153.144
39147.98
39143.393
39139.314
39135.683
39132.448
39129.563
39126.99
39124.693
39122.642
39120.809
39119.17
39117.706
39116.396
39115.226
39114.18
39113.245
39112.411
39111.667
39111.005
39110.417
39109.895
39109.434
39109.028
39108.671
39108.359
39108.088
39107.855
39107.655
39107.487
39107.347
39107.234
39107.146
39107.08
39107.035
39107.007
39106.99
39106.98
39106.973
46974.675
47032.617
46976.71
46976.205
46970.942
46970.241
46970.029
46970.003
46970
46970
46970
46970
46970
46970
46970
46970
46970
46970
46970.005
46970.208
46971.892
46979.488
47004.085
47061.869
47149.885
47181.674
46983.413
46571.422
46213.7
46106.938
46075.686
45915.885
45756.363
45698.284
45602.778
45491.231
45424.088
45342.579
45256.105
45184.532
45093.11
45010.657
44917.528
44822.914
44732.122
44627.629
44508.224
44389.899
44281.062
44163.384
44028.398
43887.7
43747.892
43605.491
43459.512
43309.98
43155.295
42996.117
42833.407
42667.951
42500.859
42333.329
42166.343
42001.002
41838.221
41678.885
41523.834
41373.664
41228.572
41088.957
40955.275
40827.83
40706.687
40591.948
40483.507
40381.325
40285.205
40195.01
40110.518
40031.49
39957.681
39888.796
39824.564
39764.708
39708.953
39657.04
39608.711
39563.723
39521.856
39482.893
39446.638
39412.913
39381.554
39352.408
39325.336
39300.202
39276.886
39255.278
39235.273
39216.766
39199.658
39183.861
39169.287
39155.827
39143.382
39131.855
39121.384
39112.079
39103.958
39096.82
39090.469
39084.819
39079.792
39075.318
39071.33
39067.774
39064.601
39061.767
39059.235
39056.972
39054.949
39053.14
39051.522
39050.075
39048.78
39047.622
39046.588
39045.663
39044.838
39044.103
39043.449
39042.868
39042.354
39041.9
39041.502
39041.152
39040.848
39040.586
39040.361
39040.171
39040.013
39039.885
39039.784
39039.709
39039.658
39039.626
39039.607
39039.596
39039.588
46974.627
47032.627
46976.826
46976.187
46970.957
46970.239
46970.028
46970.003
46970
46970
46970
46970
46970
46970
46970
46970
46970
46970
46970.004
46970.198
46971.853
46979.379
47003.869
47061.785
47151.076
47186.931
46993.883
46582.73
46221.449
46113.107
46082.614
45924.213
45763.865
45704.979
45610.696
45499.06
45431.279
45350.692
45264.073
45192.888
45101.839
45019.495
44926.871