/*--------------------------------*- C++ -*----------------------------------*\
| =========                 |                                                 |
| \\      /  F ield         | OpenFOAM: The Open Source CFD Toolbox           |
|  \\    /   O peration     | Version:  2506                                  |
|   \\  /    A nd           | Website:  www.openfoam.com                      |
|    \\/     M anipulation  |                                                 |
\*---------------------------------------------------------------------------*/
FoamFile
{
    version     2.0;
    format      ascii;
    arch        "LSB;label=32;scalar=64";
    class       volScalarField;
    location    "0.00023";
    object      epsilon;
}
// * * * * * * * * * * * * * * * * * * * * * * * * * * * * * * * * * * * * * //

dimensions      [0 2 -3 0 0 0 0];

internalField   nonuniform List<scalar> 
3444
(
16802.385
16802.103
16775.319
58549.197
16802.296
16802.315
16802.386
16802.103
16775.339
58551.303
16802.283
16802.286
16802.296
16802.314
16802.386
16802.103
16775.357
58546.836
16802.282
16802.282
16802.286
16802.295
16802.314
16802.384
16802.104
16775.372
58548.854
16802.281
16802.281
16802.282
16802.282
16802.285
16802.296
16802.315
16802.386
16802.104
16775.388
58544.108
16313.066
15737.164
15550.462
16107.277
16798.718
17344.613
17516.136
17489.485
17390.009
17322.287
17500.907
17433.687
17412.796
16802.281
16802.281
16802.282
16802.283
16802.287
16802.295
16802.315
16802.385
16802.104
16775.402
58545.993
16364.952
15738.928
15551.537
16105.346
16789.878
17340.996
17515.033
17489.192
17391.354
17321.807
17499.778
17434.242
17410.822
16802.331
16802.287
16802.281
16802.281
16802.281
16802.281
16802.281
16802.282
16802.283
16802.287
16802.295
16802.315
16802.386
16802.102
16775.42
58541.319
16340.953
15790.134
15594.703
16145.057
16829.311
17333.09
17513.101
17488.943
17393.267
17321.583
17498.667
17434.785
17408.843
17714.017
16806.999
16806.58
16802.539
16802.333
16802.286
16802.281
16802.281
16802.28
16802.279
16802.281
16802.282
16802.282
16802.286
16802.295
16802.315
16802.386
16802.099
16775.439
58542.917
16531.824
16349.844
15775.719
15572.464
16110.432
16787.422
17372.883
17554.251
17533.376
17391.803
17321.561
17497.785
17435.572
17406.835
17711.17
16800.066
16799.02
16809.591
16816.244
16809.973
16806.874
16806.128
16830.06
16802.335
16802.287
16802.282
16802.281
16802.278
16802.281
16802.28
16802.282
16802.283
16802.287
16802.295
16802.315
16802.385
16802.102
16775.457
58540.251
16533.661
16359.307
15788.3
15579.082
16108.365
16781.33
17334.269
17517.088
17495.183
17436.684
17366.551
17496.277
17435.616
17405.078
17708.612
16817.135
16809.257
16799.913
16798.677
16809.308
16815.53
16809.906
16806.872
16805.845
16807.987
16802.335
16802.287
16802.282
16802.281
16802.282
16802.281
16802.282
16802.282
16802.283
16802.287
16802.295
16802.315
16802.384
16802.103
16775.473
58537.23
16535.483
16369.015
15801.373
15586.306
16107.468
16775.726
17329.346
17514.353
17493.721
17402.683
17327.83
17537.071
17480.988
17402.576
17704.011
17690.049
17638.387
16815.552
16817.102
16809.234
16799.8
16798.342
16808.99
16815.121
16809.867
16806.905
16805.547
16806.845
16802.338
16802.287
16802.282
16802.281
16802.281
16802.281
16802.281
16802.282
16802.281
16802.287
16802.295
16802.315
16802.385
16802.105
16775.487
58539.96
16537.43
16378.975
15814.568
15593.785
16107.375
16770.455
17324.869
17512.169
17493.035
17403.16
17326.426
17500.766
17443.573
17442.864
17743.842
17688.825
17637.695
17845.308
16815.652
16817.1
16809.191
16799.728
16798.029
16808.622
16814.777
16839.398
16806.904
16805.259
16806.204
16802.338
16802.288
16802.281
16802.281
16802.28
16802.281
16802.281
16802.282
16802.283
16802.286
16802.295
16802.315
16802.385
16802.106
16775.504
58534.696
16539.702
16389.08
15827.784
15601.369
16107.493
16765.617
17320.575
17510.264
17492.688
17404.186
17325.571
17498.395
17442.933
17406.968
17705.426
17733.591
17636.931
17842.106
17760.943
17514.134
16915.283
16859.543
16825.244
16815.807
16817.139
16809.163
16799.68
16797.743
16808.217
16814.588
16815.472
16806.877
16805.048
16805.791
16802.329
16802.287
16802.282
16802.281
16802.281
16802.281
16802.281
16802.282
16802.283
16802.287
16802.293
16802.314
16802.385
16802.106
16775.519
58536.997
16542.362
16399.087
15840.874
15608.895
16107.765
16761.049
17316.429
17508.686
17492.64
17405.578
17325.224
17496.54
17442.835
17404.694
17701.335
17696.319
17677.519
17882.544
17760.154
17517.942
17700.828
18209.534
16780.548
16906.566
16915.628
16859.923
16825.446
16815.924
16817.216
16809.201
16799.631
16797.492
16807.801
16814.389
16814.33
16806.836
16804.952
16805.33
16828.9
16802.288
16802.281
16802.281
16802.281
16802.281
16802.281
16802.282
16802.282
16802.287
16802.296
16802.315
16802.383
16802.105
16775.538
58531.849
16545.305
16408.732
15853.689
15616.239
16108.174
16756.462
17312.308
17507.32
17492.674
17407.503
17325.279
17494.752
17442.664
17403.079
17697.931
17694.881
17642.441
17845.407
17804.012
17518.273
17702.726
18207.9
18304.918
17736.461
16778.63
16905.613
16916.057
16860.232
16825.514
16815.95
16817.371
16809.269
16799.564
16797.284
16807.395
16814.155
16813.712
16806.71
16804.962
16805.023
16807.663
16802.287
16802.282
16802.281
16802.281
16802.281
16802.281
16802.282
16802.283
16802.287
16802.296
16802.315
16802.383
16802.107
16775.556
58534.276
16548.414
16417.877
15866.149
15623.416
16108.618
16751.679
17308.076
17505.915
17492.641
17410.014
17325.477
17492.924
17442.437
17401.848
17694.988
17693.876
17640.598
17842.389
17767.916
17560.55
17702.338
18206.393
18305.878
17738.979
17234.179
16961.323
16792.753
16793.907
16872.051
16786.922
16701.461
16776.734
16904.655
16916.563
16860.565
16825.499
16815.915
16817.563
16809.38
16799.494
16797.11
16807.006
16813.88
16813.245
16835.361
16804.965
16804.707
16806.528
16802.287
16802.281
16802.281
16802.281
16802.281
16802.281
16802.282
16802.283
16802.287
16802.296
16802.315
16802.385
16802.106
16775.574
58529.037
16323.585
16551.671
16426.551
15878.348
15630.612
16108.924
16746.659
17303.657
17504.244
17492.421
17412.894
17325.901
17491.189
17442.508
17400.932
17692.409
17693.263
17639.268
17839.979
17766.587
17531.284
17744.604
18203.392
18306.895
17741.187
17235.131
16963.167
16793.382
16792.567
16872.31
16788.166
16701.681
16774.861
16903.681
16917.097
16860.993
16825.371
16815.788
16817.693
16809.544
16799.524
16796.942
16806.639
16813.581
16813.074
16812.206
16804.951
16804.42
16805.892
16802.288
16802.282
16802.281
16802.281
16802.281
16802.281
16802.282
16802.283
16802.286
16802.296
16802.314
16802.385
16802.104
16775.591
58531.512
16327.376
16555.091
16434.875
15890.551
15638.083
16109.098
16741.494
17299.092
17502.208
17491.914
17415.629
17326.027
17489.832
17442.725
17400.052
17690.074
17693.297
17638.307
17837.733
17765.532
17534.093
17712.4
18244.136
18306.952
17743.696
17235.903
16964.998
16793.996
16791.253
16872.524
16789.395
16701.933
16773.003
16902.69
16917.617
16861.558
16825.202
16815.586
16817.714
16809.784
16799.576
16796.761
16806.312
16813.282
16812.917
16811.019
16804.905
16804.234
16805.479
16802.278
16802.281
16802.281
16802.281
16802.281
16802.281
16802.281
16802.283
16802.284
16802.295
16802.314
16802.387
16802.101
16775.609
58526.236
16175.205
16331.186
16558.601
16442.96
15903.043
15645.991
16109.332
16736.398
17294.526
17499.911
17491.146
17417.627
17325.938
17488.864
17443.033
17398.888
17687.949
17693.596
17637.783
17835.408
17764.283
17537.583
17713.479
18207.329
18348.399
17743.456
17236.898
16966.726
16794.614
16789.957
16872.694
16790.61
16702.219
16771.159
16901.681
16918.109
16862.238
16825.167
16815.285
16817.669
16810.07
16799.671
16796.574
16806.024
16812.986
16812.71
16810.357
16804.845
16804.177
16805.015
16827.941
16802.282
16802.281
16802.281
16802.281
16802.282
16802.282
16802.282
16802.287
16802.296
16802.315
16802.386
16802.1
16775.622
58528.604
16140.508
16180.751
16334.81
16562.038
16450.886
15915.928
15654.312
16109.733
16731.622
17290.148
17497.651
17490.217
17418.643
17325.547
17487.972
17443.303
17397.255
17686.101
17694.332
17637.497
17832.822
17763.495
17541.449
17714.553
18204.131
18314.199
17785.069
17236.549
16968.796
16795.214
16788.683
16872.827
16791.815
16702.535
16769.335
16900.655
16918.579
16862.974
16825.259
16814.907
16817.542
16810.281
16799.821
16796.459
16805.753
16812.692
16812.428
16809.832
16832.423
16804.182
16804.691
16807.511
16802.282
16802.281
16802.279
16802.281
16802.281
16802.282
16802.283
16802.286
16802.296
16802.315
16802.386
16802.103
16775.633
58524.092
16146.324
16186.052
16338.157
16565.259
16458.718
15929.021
15662.857
16110.478
16727.312
17286.101
17495.695
17489.379
17418.988
17324.988
17486.81
17443.525
17395.479
17684.494
17695.293
17637.234
17830.001
17763.468
17545.466
17715.112
18201.221
18312.995
17753.99
17275.639
16968.633
16795.934
16787.412
16872.925
16793.013
16702.883
16767.536
16899.615
16919.03
16863.723
16825.449
16814.547
16817.321
16810.397
16800.048
16796.411
16805.474
16812.421
16812.095
16809.618
16810.118
16804.175
16804.367
16806.385
16802.28
16802.281
16802.282
16802.281
16802.282
16802.282
16802.283
16802.285
16802.295
16802.314
16802.387
16802.103
16775.645
58522.393
16134.999
16151.995
16191.244
16341.407
16568.234
16466.52
15941.946
15671.372
16111.715
16723.45
17282.361
17494.038
17488.79
17419.232
17324.455
17485.114
17443.762
17394.209
17682.857
17696.001
17636.859
17827.159
17763.611
17549.241
17715.45
18198.424
18312.236
17754.061
17243.636
17007.59
16795.951
16786.28
16872.993
16794.205
16703.256
16765.763
16898.567
16919.455
16864.473
16825.729
16814.336
16816.976
16810.441
16800.325
16796.399
16805.187
16812.193
16811.765
16809.442
16808.922
16804.137
16804.093
16805.756
16802.282
16802.281
16802.282
16802.279
16802.281
16802.282
16802.283
16802.286
16802.294
16802.315
16802.386
16802.101
16775.656
58525.253
16141.323
16157.767
16196.632
16344.819
16571.062
16474.286
15954.386
15679.717
16113.444
16719.907
17278.736
17492.46
17488.369
17419.601
17324.085
17482.795
17444.063
17393.492
17680.847
17696.141
17636.279
17824.457
17763.686
17552.625
17715.879
18195.798
18311.467
17754.314
17242.281
16978.181
16833.973
16784.624
16873.008
16795.392
16703.643
16764.018
16897.514
16919.849
16865.226
16826.041
16814.238
16816.565
16810.424
16800.527
16796.436
16804.959
16811.999
16811.493
16809.258
16808.252
16804.061
16803.949
16805.339
16802.291
16802.281
16802.28
16802.281
16802.28
16802.282
16802.282
16802.286
16802.293
16802.315
16802.385
16802.099
16775.671
58519.301
16147.887
16163.906
16202.496
16348.724
16573.911
16481.784
15966.193
15687.931
16115.621
16716.607
17274.971
17490.719
17487.962
17420.275
17323.869
17479.997
17444.383
17392.945
17678.224
17696.009
17635.543
17821.852
17763.772
17555.909
17716.72
18193.298
18310.609
17754.668
17241.653
16978.825
16803.171
16820.392
16873.022
16796.543
16704.031
16762.305
16896.455
16920.212
16865.988
16826.356
16814.203
16816.177
16810.295
16800.63
16796.537
16804.815
16811.806
16811.296
16809.057
16807.868
16803.966
16803.922
16804.874
16827.012
16802.281
16802.281
16802.281
16802.281
16802.281
16802.283
16802.286
16802.295
16802.313
16802.387
16802.098
16775.686
58521.927
16315.632
16154.908
16170.524
16208.907
16353.378
16576.886
16488.601
15977.365
15696.12
16118.151
16713.65
17270.918
17488.657
17487.352
17420.439
17323.611
17477.048
17444.598
17392.331
17675.008
17695.334
17634.839
17819.233
17763.973
17559.591
17718.349
18190.795
18309.587
17755.211
17241.606
16979.763
16802.574
16789.634
16873.013
16797.894
16704.425
16760.621
16895.389
16920.558
16866.755
16826.665
16814.222
16815.94
16810.043
16800.671
16796.704
16804.704
16811.601
16811.154
16808.841
16807.457
16830.659
16803.917
16804.537
16807.407
16802.281
16802.281
16802.281
16802.281
16802.282
16802.283
16802.286
16802.295
16802.315
16802.387
16802.097
16775.702
58516.516
16321.296
16162.36
16177.386
16215.63
16358.702
16579.902
16494.573
15987.943
15704.328
16120.73
16711.143
17266.64
17486.276
17486.284
17420.297
17323.202
17474.426
17444.768
17391.579
17671.567
17694.342
17634.238
17816.64
17764.485
17564.098
17720.986
18188.151
18308.296
17755.924
17241.734
16980.827
16802.553
16786.621
16908.779
16797.798
16704.818
16758.965
16894.321
16920.906
16867.515
16826.969
16814.241
16815.811
16809.741
16800.653
16796.798
16804.641
16811.44
16811.04
16808.621
16807.246
16809.144
16803.893
16804.213
16806.292
16802.282
16802.28
16802.28
16802.281
16802.282
16802.282
16802.286
16802.295
16802.315
16802.387
16802.099
16775.719
58519.286
16326.597
16169.935
16183.867
16222.253
16364.236
16582.706
16499.996
15997.988
15712.424
16122.96
16708.997
17262.398
17483.945
17484.867
17419.747
17322.661
17472.656
17445.036
17390.794
17668.456
17693.698
17633.746
17814.332
17765.61
17569.625
17724.456
18185.267
18306.681
17756.648
17241.81
16982.004
16802.652
16784.693
16878.489
16834.816
16705.288
16757.34
16893.26
16921.265
16868.247
16827.273
16814.28
16815.728
16809.49
16800.515
16796.791
16804.656
16811.377
16810.929
16808.397
16807.035
16807.977
16803.832
16803.964
16805.67
16802.281
16802.281
16802.281
16802.282
16802.282
16802.283
16802.286
16802.295
16802.313
16802.387
16802.098
16775.737
58513.646
16243.765
16331.663
16177.279
16189.304
16228.451
16369.321
16585.161
16505.496
16007.697
15720.172
16124.599
16707.087
17258.407
17482.322
17483.741
17418.87
17321.995
17471.759
17445.623
17390.235
17665.985
17693.494
17633.395
17812.298
17767.627
17576.078
17728.151
18182.117
18304.811
17757.226
17241.772
16983.179
16802.918
16783.036
16877.086
16807.022
16705.354
16755.74
16892.21
16921.628
16868.944
16827.585
16814.321
16815.667
16809.373
16800.259
16796.733
16804.718
16811.352
16810.798
16808.163
16806.823
16807.34
16803.736
16803.869
16805.248
16802.292
16802.281
16802.281
16802.28
16802.282
16802.283
16802.287
16802.294
16802.314
16802.387
16802.095
16775.755
58516.424
16248.499
16336.702
16184.233
16193.635
16234.165
16373.539
16587.46
16511.648
16017.36
15727.545
16125.754
16705.463
17254.633
17481.5
17483.502
17418.171
17321.149
17471.289
17446.811
17390.128
17664.091
17693.671
17633.449
17811.252
17770.565
17583.111
17731.341
18178.764
18302.806
17757.478
17241.54
16984.256
16803.342
16781.695
16876.294
16806.635
16740.567
16753.923
16891.168
16921.973
16869.619
16827.914
16814.361
16815.616
16809.383
16799.964
16796.596
16804.711
16811.37
16810.637
16807.932
16806.613
16806.826
16829.667
16803.855
16804.781
16826.101
16802.281
16802.281
16802.282
16802.281
16802.283
16802.286
16802.295
16802.314
16802.387
16802.099
16775.773
58510.735
16253.846
16341.933
16190.959
16197.454
16239.623
16376.995
16589.993
16518.62
16027.236
15734.873
16126.724
16704.463
17250.906
17481.014
17483.72
17418.197
17320.327
17470.89
17448.78
17390.267
17662.584
17694.18
17633.71
17810.97
17774.143
17590.255
17733.705
18175.332
18300.712
17757.463
17241.074
16985.229
16803.797
16780.549
16875.733
16807.166
16712.347
16751.596
16890.221
16922.284
16870.301
16828.253
16814.401
16815.568
16809.416
16799.734
16796.343
16804.617
16811.446
16810.494
16807.727
16806.406
16806.581
16808.799
16803.84
16804.435
16807.313
16802.281
16802.281
16802.281
16802.282
16802.283
16802.286
16802.295
16802.314
16802.387
16802.103
16775.789
58513.578
16155.437
16259.667
16347.51
16197.859
16201.571
16245.193
16380.18
16593.112
16526.001
16037.41
15742.651
16127.812
16703.997
17247.17
17480.501
17484.544
17418.777
17320.041
17470.323
17451.451
17390.744
17661.206
17695.166
17634.375
17810.91
17777.887
17597.09
17735.452
18171.93
18298.488
17757.31
17240.502
16986.137
16804.215
16779.452
16875.277
16807.804
16711.4
16785.314
16888.668
16922.551
16871.005
16828.594
16814.443
16815.518
16809.468
16799.641
16795.981
16804.459
16811.581
16810.472
16807.541
16806.18
16806.347
16807.626
16803.794
16804.116
16806.209
16802.281
16802.28
16802.281
16802.282
16802.282
16802.286
16802.295
16802.313
16802.385
16802.109
16775.807
58507.85
16162.461
16265.673
16353.47
16205.322
16206.602
16251.257
16383.653
16596.912
16533.09
16047.791
15751.192
16129.275
16703.862
17243.67
17479.668
17485.723
17420.459
17320.186
17469.385
17454.482
17391.77
17660.003
17696.556
17635.421
17810.886
17781.373
17603.38
17736.957
18168.59
18296.085
17756.926
17239.879
16987.01
16804.608
16778.332
16874.848
16808.574
16711.199
16755.698
16922.294
16922.866
16871.73
16828.932
16814.491
16815.465
16809.523
16799.676
16795.584
16804.227
16811.648
16810.503
16807.357
16805.921
16806.084
16806.989
16803.694
16803.905
16805.591
16802.28
16802.281
16802.28
16802.282
16802.282
16802.286
16802.295
16802.313
16802.384
16802.111
16775.821
58510.758
16169.231
16271.592
16359.754
16213.434
16212.73
16258.042
16387.806
16601.17
16539.5
16058.2
15760.41
16131.222
16703.883
17240.851
17478.686
17486.362
17423.01
17320.981
17467.95
17457.488
17393.329
17659.412
17698.264
17636.765
17810.768
17784.455
17609.096
17738.467
18165.253
18293.505
17756.398
17239.226
16987.869
16805.014
16777.184
16874.386
16809.418
16711.24
16753.201
16893.361
16922.881
16872.46
16829.266
16814.546
16815.407
16809.577
16799.731
16795.262
16803.878
16811.627
16810.563
16807.192
16805.655
16805.795
16806.624
16803.586
16803.853
16805.176
16802.281
16802.281
16802.281
16802.282
16802.283
16802.287
16802.295
16802.314
16802.384
16802.111
16775.836
58504.985
16175.886
16277.285
16366.201
16221.932
16219.593
16265.491
16392.749
16605.586
16545.418
16068.522
15769.911
16133.542
16704.006
17238.848
17478.267
17486.602
17425.317
17322.938
17466.78
17460.284
17395.308
17659.387
17700.205
17638.281
17810.408
17787.249
17614.362
17740.032
18161.809
18290.766
17755.842
17238.567
16988.738
16805.459
16776.03
16873.866
16810.259
16711.384
16750.994
16890.489
16956.825
16873.06
16829.599
16814.609
16815.344
16809.627
16799.808
16795.079
16803.421
16811.554
16810.698
16807.139
16805.408
16805.497
16806.213
16828.641
16803.845
16804.805
16802.29
16802.281
16802.28
16802.282
16802.283
16802.287
16802.294
16802.314
16802.386
16802.109
16775.853
58507.954
16182.651
16282.74
16372.596
16230.331
16226.486
16273.256
16398.254
16610.064
16551.331
16078.79
15779.302
16136.022
16704.195
17237.341
17478.341
17486.877
17426.778
17325.93
17466.678
17462.937
17397.582
17659.465
17702.275
17639.667
17809.877
17789.967
17619.353
17741.551
18158.161
18287.859
17755.262
17237.924
16989.649
16805.96
16774.895
16873.296
16811.06
16711.633
16749.101
16888.437
16929.108
16873.13
16829.929
16814.678
16815.281
16809.674
16799.889
16795.005
16802.935
16811.41
16810.901
16807.167
16805.174
16805.21
16805.962
16808.608
16803.815
16804.351
16825.274
16802.281
16802.281
16802.282
16802.283
16802.286
16802.293
16802.314
16802.386
16802.106
16775.872
58502.122
16189.652
16288.023
16378.791
16238.234
16232.893
16280.896
16403.922
16614.699
16557.648
16089.127
15788.43
16138.584
16704.397
17235.945
17478.682
17487.552
17427.779
17329.256
17466.906
17465.625
17400.014
17659.7
17704.255
17640.728
17809.338
17792.799
17624.201
17742.867
18154.266
18284.751
17754.598
17237.282
16990.606
16806.536
16773.811
16872.705
16811.826
16711.893
16747.523
16886.682
16927.899
16907.408
16830.222
16814.748
16815.219
16809.72
16799.97
16794.968
16802.531
16811.158
16811.059
16807.217
16804.96
16804.94
16805.697
16807.475
16803.737
16804.044
16807.219
16802.281
16802.281
16802.282
16802.283
16802.287
16802.295
16802.314
16802.387
16802.106
16775.888
58505.133
16196.861
16293.225
16384.786
16245.563
16238.751
16288.136
16409.448
16619.589
16564.482
16099.627
15797.376
16141.356
16704.626
17234.39
17479.467
17489.022
17428.878
17332.332
17467.65
17468.444
17402.41
17660.062
17705.975
17641.44
17809.072
17795.857
17628.956
17743.868
18150.125
18281.417
17753.793
17236.594
16991.579
16807.189
16772.811
16872.133
16812.586
16712.109
16746.114
16885.158
16927.553
16880.873
16830.262
16814.819
16815.157
16809.764
16800.051
16794.941
16802.266
16810.823
16811.11
16807.333
16804.844
16804.69
16805.426
16806.874
16803.621
16803.885
16806.127
16802.281
16802.282
16802.282
16802.282
16802.286
16802.295
16802.314
16802.386
16802.104
16775.906
58499.255
16204.202
16298.458
16390.729
16252.534
16244.312
16294.971
16414.757
16624.678
16571.614
16110.257
15806.322
16144.571
16705.034
17232.615
17480.514
17491.332
17430.547
17335.107
17468.96
17471.342
17404.558
17660.263
17707.424
17641.986
17809.135
17799.119
17633.615
17744.562
18145.748
18277.854
17752.836
17235.811
16992.51
16807.892
16771.91
16871.61
16813.37
16712.29
16744.737
16883.713
16927.427
16880.399
16863.331
16814.906
16815.093
16809.81
16800.131
16794.915
16802.1
16810.476
16811.11
16807.523
16804.852
16804.459
16805.156
16806.39
16827.878
16803.86
16805.513
16802.281
16802.281
16802.282
16802.283
16802.284
16802.295
16802.314
16802.386
16802.102
16775.922
58502.297
16211.627
16303.823
16396.844
16259.485
16249.901
16301.581
16419.932
16629.79
16578.73
16120.929
15815.434
16148.379
16705.958
17230.992
17481.559
17493.932
17433.095
17337.843
17470.39
17474.108
17406.326
17660.269
17708.718
17642.511
17809.45
17802.615
17638.14
17744.918
18141.118
18274.082
17751.753
17234.93
16993.362
16808.594
16771.079
16871.167
16814.211
16712.468
16743.344
16882.246
16927.374
16880.634
16836.995
16814.935
16815.034
16809.856
16800.209
16794.89
16801.972
16810.184
16811.038
16807.691
16804.876
16804.237
16804.891
16806.113
16808.531
16803.846
16805.079
16802.272
16802.28
16802.282
16802.282
16802.287
16802.295
16802.313
16802.383
16802.105
16775.937
58496.366
16219.12
16309.41
16403.288
16266.671
16255.781
16308.213
16425.17
16634.818
16585.658
16131.56
15824.831
16152.81
16707.77
17230.503
17482.667
17496.173
17436.342
17340.799
17471.451
17476.528
17407.749
17660.241
17709.979
17643.153
17810.164
17806.293
17642.465
17744.874
18136.208
18270.106
17750.563
17233.971
16994.136
16809.271
16770.269
16870.798
16815.135
16712.677
16741.945
16880.742
16927.318
16881.025
16835.838
16846.837
16814.87
16809.903
16800.287
16794.866
16801.853
16809.971
16810.831
16807.751
16804.958
16804.017
16804.615
16805.821
16807.398
16803.789
16804.608
16824.594
16802.282
16802.282
16802.282
16802.287
16802.295
16802.313
16802.383
16802.105
16775.95
58499.454
16485.253
16226.679
16315.259
16410.097
16274.186
16262.088
16315.078
16430.694
16639.834
16592.488
16142.171
15834.575
16157.755
16710.447
17230.587
17484.067
17497.912
17439.541
17344.073
17472.112
17478.579
17408.976
17660.261
17711.307
17643.967
17811.24
17810.154
17646.652
17744.526
18131.013
18265.913
17749.271
17232.958
16994.864
16809.924
16769.44
16870.452
16816.135
16712.949
16740.57
16879.226
16927.234
16881.51
16835.626
16820.769
16814.697
16809.951
16800.364
16794.841
16801.735
16809.832
16810.513
16807.756
16805.114
16803.863
16804.335
16805.487
16806.791
16803.666
16804.251
16807.13
16802.281
16802.282
16802.282
16802.287
16802.295
16802.312
16802.385
16802.105
16775.964
58493.462
16491.875
16234.352
16321.404
16417.245
16282.014
16268.836
16322.308
16436.679
16645.032
16599.455
16152.882
15844.661
16163.033
16713.597
17230.781
17485.9
17499.416
17441.972
17347.535
17472.624
17480.427
17410.198
17660.395
17712.768
17644.929
17812.645
17814.173
17650.718
17743.851
18125.51
18261.48
17747.867
17231.9
16995.573
16810.567
16768.583
16870.081
16817.172
16713.306
16739.263
16877.724
16927.124
16882.019
16835.565
16819.556
16846.254
16809.883
16800.439
16794.818
16801.618
16809.748
16810.171
16807.699
16805.259
16803.836
16804.062
16805.137
16806.432
16803.552
16803.975
16806.046
16802.281
16802.282
16802.283
16802.287
16802.295
16802.314
16802.385
16802.103
16775.978
58496.574
16242.248
16327.9
16424.734
16290.153
16276.007
16329.967
16443.233
16650.608
16606.745
16163.781
15855.009
16168.47
16716.851
17231.052
17487.998
17500.99
17443.608
17350.931
17473.2
17482.305
17411.592
17660.795
17714.378
17646.032
17814.335
17818.292
17654.674
17742.881
18119.704
18256.789
17746.335
17230.791
16996.263
16811.203
16767.707
16869.67
16818.196
16713.739
16738.07
16876.267
16927.006
16882.506
16835.608
16819.016
16820.477
16809.878
16800.514
16794.794
16801.501
16809.694
16809.92
16807.505
16805.299
16803.854
16803.797
16804.805
16806.017
16827.061
16803.865
16805.434
16802.281
16802.281
16802.282
16802.287
16802.295
16802.314
16802.386
16802.1
16775.998
58490.54
16250.486
16334.815
16432.592
16298.64
16283.598
16338.043
16450.341
16656.624
16614.366
16174.847
15865.453
16173.946
16719.987
17231.327
17489.933
17502.808
17444.878
17354.086
17473.992
17484.398
17413.298
17661.574
17716.131
17647.302
17816.285
17822.5
17658.546
17741.648
18113.685
18251.859
17744.66
17229.624
16996.911
16811.825
16766.823
16869.23
16819.184
16714.194
16736.997
16874.898
16926.919
16882.956
16835.67
16818.7
16819.278
16809.902
16800.588
16794.771
16801.383
16809.648
16809.811
16807.199
16805.296
16803.907
16803.585
16804.513
16805.72
16808.436
16803.845
16804.993
16802.292
16802.282
16802.283
16802.287
16802.295
16802.313
16802.386
16802.102
16776.018
58491.686
16259.141
16342.175
16440.833
16307.504
16291.608
16346.436
16457.814
16662.925
16622.117
16185.909
15875.792
16179.383
16722.914
17231.577
17491.391
17504.831
17446.161
17357.005
17475.065
17486.801
17415.39
17662.74
17718.036
17648.773
17818.481
17826.812
17662.267
17740.225
18107.461
18246.72
17742.844
17228.396
16997.494
16812.426
16765.933
16868.774
16820.136
16714.614
16736.008
16873.632
16926.894
16883.381
16835.743
16818.495
16818.44
16840.877
16800.603
16794.747
16801.267
16809.602
16809.802
16806.864
16805.219
16804.039
16803.513
16804.254
16805.404
16807.342
16803.808
16804.519
16823.728
16802.282
16802.283
16802.286
16802.296
16802.314
16802.385
16802.104
16776.036
58491.288
16268.141
16349.866
16449.352
16316.666
16299.935
16354.96
16465.34
16669.185
16629.679
16196.713
15885.83
16184.702
16725.603
17231.705
17492.436
17506.865
17447.67
17359.819
17476.363
17489.492
17417.871
17664.224
17720.076
17650.488
17820.95
17831.175
17665.786
17738.701
18101.066
18241.37
17740.908
17227.123
16998.011
16813.013
16765.034
16868.305
16821.06
16714.993
16735.047
16872.436
16926.932
16883.822
16835.798
16818.325
16817.984
16815.839
16800.577
16794.725
16801.151
16809.556
16809.822
16806.618
16805.024
16804.19
16803.52
16804.011
16805.092
16806.769
16803.715
16804.162
16807.039
16802.282
16802.283
16802.287
16802.296
16802.314
16802.384
16802.108
16776.051
58485.997
16277.24
16357.583
16457.841
16325.84
16308.274
16363.329
16472.598
16675.099
16636.819
16207.074
15895.455
16189.836
16728.038
17231.646
17493.301
17508.734
17449.44
17362.681
17477.764
17492.35
17420.691
17665.942
17722.258
17652.464
17823.683
17835.493
17669.108
17737.177
18094.579
18235.882
17738.893
17225.831
16998.485
16813.603
16764.13
16867.809
16821.963
16715.342
16734.076
16871.261
16927.021
16884.318
16835.853
16818.151
16817.643
16814.572
16831.088
16794.702
16801.035
16809.509
16809.84
16806.516
16804.735
16804.236
16803.554
16803.767
16804.804
16806.412
16803.528
16803.927
16805.967
16802.282
16802.283
16802.286
16802.295
16802.314
16802.385
16802.111
16776.062
58489.639
16286.089
16364.979
16465.915
16334.623
16316.212
16371.204
16479.351
16680.496
16643.48
16216.95
15904.689
16194.777
16730.255
17231.482
17494.149
17510.366
17451.323
17365.682
17479.166
17495.227
17423.756
17667.785
17724.533
17654.681
17826.631
17839.669
17672.171
17735.625
18088.094
18230.291
17736.796
17224.551
16998.949
16814.215
16763.243
16867.276
16822.836
16715.667
16733.087
16870.08
16927.165
16884.899
16835.943
16817.967
16817.333
16813.951
16806.595
16794.68
16800.919
16809.461
16809.863
16806.514
16804.437
16804.231
16803.657
16803.542
16804.52
16805.974
16826.383
16803.86
16805.355
16802.282
16802.283
16802.286
16802.294
16802.314
16802.385
16802.112
16776.073
58483.414
16294.467
16371.872
16473.357
16342.739
16323.491
16378.419
16485.565
16685.415
16649.755
16226.395
15913.631
16199.591
16732.373
17231.366
17495.076
17511.803
17453.131
17368.807
17480.537
17498.063
17426.956
17669.622
17726.812
17657.085
17829.709
17843.571
17674.877
17733.958
18081.643
18224.63
17734.627
17223.315
16999.44
16814.867
16762.4
16866.719
16823.674
16715.963
16732.088
16868.898
16927.305
16885.55
16836.106
16817.781
16817.016
16813.57
16805.516
16794.694
16800.804
16809.412
16809.886
16806.542
16804.21
16804.154
16803.795
16803.428
16804.231
16805.611
16808.361
16803.833
16804.906
16802.292
16802.283
16802.286
16802.296
16802.314
16802.386
16802.111
16776.089
58486.708
16302.272
16378.249
16480.193
16350.175
16330.152
16385.07
16491.411
16690.059
16655.798
16235.492
15922.333
16204.304
16734.48
17231.35
17496.132
17513.197
17454.822
17371.947
17481.823
17500.877
17430.277
17671.305
17728.995
17659.598
17832.803
17847.075
17677.094
17732.121
18075.21
18218.89
17732.45
17222.149
16999.993
16815.57
16761.612
16866.174
16824.491
16716.214
16731.082
16867.728
16927.42
16886.214
16836.372
16817.633
16816.691
16813.313
16804.658
16824.278
16800.688
16809.363
16809.908
16806.568
16804.074
16803.952
16803.841
16803.421
16803.934
16805.211
16807.264
16803.77
16804.429
16822.987
16802.283
16802.287
16802.295
16802.314
16802.386
16802.104
16776.107
58480.429
16309.627
16384.283
16486.605
16357.119
16336.451
16391.436
16497.162
16694.713
16661.828
16244.425
15930.934
16209.023
16736.613
17231.413
17497.228
17514.692
17456.59
17375.084
17483.079
17503.679
17433.662
17672.811
17730.993
17662.148
17835.813
17850.095
17678.946
17730.025
18068.757
18213.111
17730.234
17221.052
17000.643
16816.328
16760.882
16865.669
16825.319
16716.425
16730.06
16866.569
16927.516
16886.836
16836.733
16817.598
16816.381
16813.096
16804.304
16800.147
16800.526
16809.313
16809.93
16806.6
16804.009
16803.63
16803.833
16803.446
16803.647
16804.834
16806.68
16803.651
16804.085
16806.95
16802.283
16802.286
16802.296
16802.312
16802.386
16802.102
16776.121
58483.792
16316.744
16390.23
16492.875
16363.866
16342.678
16397.774
16502.97
16699.511
16667.951
16253.361
15939.604
16213.951