/*--------------------------------*- C++ -*----------------------------------*\
| =========                 |                                                 |
| \\      /  F ield         | OpenFOAM: The Open Source CFD Toolbox           |
|  \\    /   O peration     | Version:  2506                                  |
|   \\  /    A nd           | Website:  www.openfoam.com                      |
|    \\/     M anipulation  |                                                 |
\*---------------------------------------------------------------------------*/
FoamFile
{
    version     2.0;
    format      ascii;
    arch        "LSB;label=32;scalar=64";
    class       volScalarField;
    location    "0.029";
    object      rho;
}
// * * * * * * * * * * * * * * * * * * * * * * * * * * * * * * * * * * * * * //

dimensions      [1 -3 0 0 0 0 0];

internalField   nonuniform List<scalar> 
13761
(
0.66475201
0.66715677
0.66451065
0.66555174
0.66265871
0.66178038
0.66013441
0.66337348
0.66684666
0.66924747
0.66461687
0.6618007
0.66392583
0.66485823
0.66202696
0.66275129
0.66325249
0.66174942
0.66215732
0.66154605
0.66105136
0.66115222
0.6604514
0.66025151
0.65943347
0.65909338
0.65846187
0.6573905
0.65693219
0.65650389
0.65621554
0.65527794
0.65405698
0.65292069
0.65205016
0.65132764
0.65071126
0.6501357
0.6493354
0.64787455
0.64671234
0.64559374
0.64435924
0.64294766
0.66475632
0.66716809
0.6645117
0.66555686
0.66267251
0.66179328
0.66012894
0.66334096
0.6668184
0.66925828
0.66465914
0.66179895
0.66390574
0.66487231
0.66203798
0.66274065
0.663261
0.66175351
0.66215648
0.66155415
0.66105065
0.66115506
0.66045734
0.66026038
0.65944479
0.659108
0.658477
0.65740512
0.65694252
0.65651173
0.65622819
0.65530004
0.65408084
0.65294011
0.65206281
0.65133947
0.65072427
0.65014897
0.64935155
0.64789737
0.64672978
0.6456133
0.64438794
0.64298352
0.66475749
0.66717416
0.66451385
0.66556137
0.66268651
0.66180652
0.66012341
0.66330775
0.66678965
0.66926878
0.66470322
0.66179804
0.66388495
0.66488648
0.66204938
0.66272956
0.66326978
0.6617577
0.6621558
0.66156223
0.66104967
0.66115847
0.66046308
0.66026883
0.65945629
0.65912153
0.65849484
0.65742102
0.65695337
0.6565205
0.65624091
0.65532199
0.65410654
0.65296232
0.65207898
0.65135419
0.65073928
0.65016361
0.64936885
0.64792206
0.64674739
0.64563119
0.64441605
0.64302111
0.64139629
0.66475469
0.66717713
0.66451734
0.6655674
0.66270075
0.6618201
0.66011808
0.66327384
0.66676037
0.66927948
0.66474823
0.66179803
0.66386348
0.66490034
0.66206134
0.66271822
0.66327844
0.66176171
0.66215454
0.66157059
0.66104859
0.66116062
0.66046843
0.66027751
0.65946713
0.65913645
0.65851009
0.6574359
0.65696401
0.65652771
0.65625307
0.6553435
0.65413073
0.65298224
0.65209226
0.65136672
0.65075293
0.65017723
0.64938498
0.64794447
0.6467633
0.64564828
0.64444344
0.64305703
0.64143656
0.66474721
0.66717997
0.66452126
0.66557761
0.6627156
0.66183437
0.66011271
0.66323855
0.66672979
0.66929057
0.66479478
0.66179887
0.66384089
0.66491435
0.66207389
0.66270636
0.66328743
0.66176625
0.66215357
0.66157934
0.66104732
0.66116362
0.66047398
0.66028581
0.65947884
0.65915016
0.65852838
0.65745235
0.65697559
0.65653607
0.65626532
0.65536547
0.65415721
0.65300573
0.65210982
0.65138258
0.65076887
0.65019246
0.6494028
0.64796931
0.64678057
0.64566458
0.64447091
0.64309512
0.64148124
0.66473638
0.66718498
0.66452278
0.66559312
0.66273086
0.661849
0.66010762
0.66320251
0.66669866
0.66930017
0.6648419
0.66180027
0.66381775
0.66492797
0.66208682
0.6626943
0.66329626
0.66177073
0.66215205
0.66158844
0.66104611
0.66116541
0.66047898
0.66029454
0.6594896
0.65916558
0.65854427
0.6574682
0.65698706
0.6565431
0.65627744
0.65538714
0.65418225
0.65302682
0.65212453
0.65139624
0.65078351
0.65020697
0.64941963
0.6479922
0.64679607
0.64568047
0.64449805
0.6431316
0.64152402
0.66472295
0.667195
0.6645215
0.66561351
0.66274691
0.66186437
0.6601026
0.66316491
0.66666594
0.66930928
0.66489079
0.66180197
0.66379347
0.66494171
0.66210039
0.66268166
0.66330534
0.66177584
0.66215079
0.66159809
0.66104471
0.66116822
0.66048437
0.66030288
0.65950174
0.65917972
0.65856318
0.65748552
0.6569998
0.65655148
0.65628945
0.65540932
0.65420965
0.65305179
0.65214404
0.65141361
0.65080084
0.65022311
0.64943821
0.64801766
0.64681352
0.64569609
0.64452519
0.64316974
0.64157112
0.66470889
0.66720895
0.66451883
0.66563603
0.66276343
0.66188013
0.66009787
0.66312648
0.66663258
0.66931896
0.6649405
0.66180347
0.66376866
0.66495515
0.6621144
0.66266875
0.66331419
0.66178093
0.66214894
0.66160803
0.66104354
0.66116975
0.66048911
0.66031184
0.65951258
0.65919577
0.65857985
0.65750272
0.65701255
0.65655883
0.65630175
0.65543126
0.65423554
0.65307417
0.65216068
0.65142855
0.65081671
0.65023875
0.64945611
0.64804126
0.64682922
0.64571167
0.6445521
0.6432061
0.64161624
0.63997568
0.66469753
0.66722344
0.66451568
0.66565803
0.66278071
0.66189677
0.6600933
0.6630864
0.66659745
0.6693275
0.66499251
0.66180525
0.66374249
0.66496883
0.66212925
0.66265518
0.66332328
0.66178671
0.66214732
0.66161851
0.66104211
0.66117235
0.66049434
0.66032026
0.65952521
0.65921032
0.65859957
0.65752143
0.6570268
0.65656778
0.65631371
0.6554536
0.65426372
0.65310062
0.6521825
0.6514476
0.65083546
0.65025627
0.64947584
0.64806758
0.64684723
0.64572736
0.64457861
0.64324337
0.64166522
0.64002404
0.66469136
0.66723633
0.66451292
0.66567879
0.66279829
0.66191394
0.66008909
0.66304546
0.66656158
0.66933528
0.66504574
0.66180699
0.6637155
0.66498238
0.66214466
0.66264127
0.66333214
0.66179248
0.66214504
0.66162913
0.66104105
0.66117353
0.66049891
0.66032958
0.65953621
0.65922694
0.65861718
0.65754043
0.65704095
0.65657591
0.65632627
0.65547576
0.65429038
0.65312437
0.65220135
0.65146384
0.65085246
0.6502734
0.64949521
0.64809158
0.6468635
0.64574316
0.64460475
0.64327867
0.64171201
0.64006946
0.66469038
0.66724644
0.66451083
0.66569934
0.66281645
0.66193219
0.66008515
0.66300288
0.66652372
0.66934434
0.66510161
0.66181031
0.6636866
0.66499632
0.66216116
0.66262666
0.66334123
0.66179897
0.66214296
0.66164026
0.66103968
0.66117586
0.66050408
0.66033805
0.6595493
0.65924185
0.65863778
0.65756097
0.65705689
0.65658586
0.65633827
0.65549817
0.65431922
0.65315235
0.6522256
0.65148462
0.65087253
0.65029285
0.64951655
0.64811897
0.64688229
0.64575938
0.64463006
0.64331426
0.64176213
0.64012037
0.66469328
0.66725383
0.66451093
0.66571964
0.66283476
0.66195101
0.66008159
0.66295943
0.66648502
0.66935682
0.66515859
0.66181451
0.66365629
0.66501016
0.66217841
0.66261168
0.66335011
0.6618055
0.66214017
0.66165136
0.66103894
0.6611768
0.66050855
0.66034774
0.65956052
0.65925908
0.65865651
0.65758193
0.6570727
0.65659517
0.65635106
0.6555205
0.65434667
0.65317763
0.6522467
0.65150218
0.65089072
0.65031196
0.64953792
0.6481447
0.6468993
0.64577576
0.64465498
0.64334791
0.64180987
0.64016821
0.63857019
0.66469528
0.66725574
0.66451403
0.66573461
0.6628536
0.66197093
0.66007839
0.66291438
0.66644418
0.66936747
0.66521813
0.66182121
0.66362342
0.66502418
0.66219696
0.66259594
0.66335923
0.66181284
0.66213756
0.66166306
0.66103777
0.66117897
0.66051363
0.66035624
0.65957417
0.65927444
0.65867852
0.65760421
0.65709039
0.65660639
0.65636305
0.65554293
0.65437612
0.65320726
0.65227339
0.65152479
0.65091276
0.65033348
0.64956149
0.64817356
0.64691899
0.64579293
0.64467906
0.64338142
0.64186022
0.64022135
0.63862497
0.66469449
0.66725223
0.66451739
0.66574222
0.66287248
0.66199137
0.66007563
0.66286849
0.66640251
0.66937121
0.66527855
0.66182891
0.66358882
0.66503788
0.66221639
0.66257977
0.6633682
0.66182026
0.66213418
0.66167467
0.66103747
0.66117967
0.66051798
0.66036644
0.65958578
0.65929231
0.65869872
0.65762688
0.6571079
0.65661706
0.65637599
0.65556545
0.65440447
0.65323421
0.6522968
0.65154385
0.65093273
0.65035461
0.64958536
0.64820101
0.64693696
0.64581043
0.64470309
0.64341319
0.64190782
0.64027113
0.63867687
0.66469267
0.66725312
0.66451851
0.66574711
0.66289181
0.66201304
0.66007341
0.66282105
0.66635852
0.66937246
0.66534143
0.66183846
0.66355169
0.66505149
0.66223731
0.66256285
0.66337739
0.66182857
0.66213099
0.66168715
0.66103681
0.66118154
0.66052302
0.66037493
0.65960006
0.65930809
0.65872178
0.65765074
0.65712821
0.65662961
0.65638806
0.65558799
0.65443471
0.65326563
0.65232607
0.65156862
0.65095707
0.6503786
0.64961146
0.64823121
0.64695794
0.64582921
0.64472653
0.64344458
0.64195708
0.64032559
0.6387353
0.66469023
0.66726302
0.66451843
0.66575545
0.66291135
0.66203538
0.6600717
0.66277277
0.66631355
0.66937652
0.66540542
0.66184845
0.66351313
0.66506483
0.66225918
0.66254553
0.66338641
0.661837
0.66212694
0.66169958
0.66103704
0.6611819
0.6605273
0.66038559
0.65961221
0.65932655
0.65874337
0.65767495
0.65714789
0.65664173
0.65640131
0.65561076
0.6544643
0.65329451
0.65235204
0.65158957
0.6509785
0.65040203
0.64963791
0.64826027
0.64697746
0.64584852
0.64475038
0.64347449
0.64200313
0.64037624
0.63879058
0.6646817
0.66728137
0.66451992
0.6657747
0.66293192
0.662059
0.66007073
0.66272304
0.66626601
0.6693813
0.6654724
0.66186023
0.66347243
0.6650782
0.66228279
0.66252755
0.66339555
0.66184637
0.66212308
0.66171321
0.66103697
0.6611834
0.66053232
0.66039409
0.65962707
0.65934276
0.65876718
0.65770038
0.65717105
0.65665573
0.65641374
0.6556334
0.65449569
0.65332797
0.6523841
0.6516169
0.65100489
0.65042852
0.6496665
0.64829182
0.64700034
0.64586963
0.64477395
0.64350384
0.64204984
0.64043071
0.63885215
0.63715022
0.66466575
0.66730139
0.6645223
0.66580237
0.66295365
0.66208318
0.66007042
0.66267252
0.6662172
0.66938504
0.66554053
0.66187313
0.66343041
0.66509153
0.66230755
0.6625091
0.66340452
0.66185598
0.66211822
0.66172675
0.66103798
0.66118351
0.66053642
0.66040499
0.65963983
0.65936185
0.65879017
0.65772613
0.65719326
0.65666955
0.65642741
0.65565623
0.65452676
0.65335909
0.65241287
0.65163994
0.65102739
0.65045404
0.64969547
0.64832244
0.64702195
0.64589145
0.64479832
0.64353198
0.64209302
0.6404809
0.63891005
0.6372012
0.66464642
0.66731915
0.66452335
0.66582962
0.66297719
0.6621086
0.66007113
0.66262074
0.66616526
0.66938771
0.6656115
0.66188862
0.66338612
0.66510483
0.66233431
0.66248998
0.66341355
0.66186652
0.66211352
0.66174175
0.66103874
0.66118469
0.66054129
0.66041329
0.65965524
0.65937854
0.65881462
0.65775328
0.65721947
0.6566852
0.65644026
0.6556787
0.65455936
0.65339473
0.65244774
0.65166981
0.65105543
0.65048285
0.64972658
0.64835543
0.64704713
0.64591559
0.64482268
0.64355948
0.64213621
0.64053405
0.63897366
0.63725877
0.66463349
0.66733689
0.66452458
0.6658531
0.66300224
0.66213463
0.66007253
0.66256826
0.66611102
0.66938983
0.66568347
0.66190592
0.66334017
0.66511799
0.66236248
0.66247034
0.6634224
0.66187725
0.66210767
0.66175652
0.66104062
0.66118457
0.66054501
0.66042424
0.65966865
0.65939819
0.65883907
0.65778071
0.65724431
0.65670086
0.6564543
0.65570129
0.65459171
0.65342818
0.65247918
0.6516946
0.6510788
0.65051044
0.64975824
0.64838783
0.64707108
0.64594052
0.64484808
0.64358625
0.64217596
0.6405826
0.63903278
0.6373127
0.6646276
0.66735899
0.6645267
0.66587715
0.66302902
0.66216215
0.66007492
0.66251474
0.6660521
0.6693909
0.66575815
0.66192614
0.66329201
0.6651306
0.66239322
0.66245007
0.6634312
0.66188895
0.66210193
0.66177298
0.66104223
0.66118545
0.66054964
0.66043232
0.65968443
0.65941543
0.65886407
0.65781001
0.65727358
0.65671808
0.65646757
0.65572341
0.6546252
0.65346595
0.65251658
0.6517266
0.65110832
0.65054172
0.64979209
0.64842277
0.64709866
0.64596817
0.64487374
0.64361261
0.64221554
0.64063338
0.6390968
0.63737295
0.63561955
0.66463216
0.66737823
0.66452693
0.665905
0.66305637
0.66219049
0.66007777
0.66246056
0.6659903
0.66939156
0.66583417
0.66194794
0.66324241
0.66514288
0.66242588
0.66242906
0.66343975
0.66190089
0.66209491
0.66178907
0.66104491
0.66118528
0.660553
0.66044306
0.65969835
0.65943571
0.65888963
0.65783923
0.65730101
0.65673539
0.65648181
0.65574572
0.65465836
0.6535017
0.6525505
0.6517528
0.65113275
0.65057153
0.64982659
0.6484577
0.64712492
0.6459965
0.64490061
0.64363916
0.64225217
0.64067948
0.63915541
0.63742905
0.63568074
0.66463517
0.6673877
0.66452412
0.66593503
0.6630837
0.66222041
0.66008176
0.66240552
0.66592454
0.66939053
0.66591287
0.66197321
0.66319092
0.66515408
0.66246175
0.66240717
0.66344817
0.66191395
0.66208803
0.66180706
0.66104776
0.66118594
0.66055754
0.66045091
0.65971439
0.65945383
0.65891503
0.6578707
0.65733327
0.65675394
0.65649545
0.65576751
0.65469231
0.65354153
0.65259038
0.65178684
0.65116407
0.65060546
0.64986338
0.64849533
0.64715486
0.64602776
0.64492802
0.64366606
0.64228885
0.64072729
0.63921811
0.63749104
0.63574836
0.66462743
0.66739084
0.66452194
0.66596387
0.66311074
0.66225092
0.66008649
0.66234988
0.66585632
0.66938907
0.66599307
0.66200078
0.66313771
0.66516463
0.66249953
0.66238454
0.66345643
0.66192748
0.66207982
0.66182454
0.66105151
0.66118575
0.66056048
0.66046094
0.65972864
0.65947465
0.65894137
0.65790159
0.65736337
0.65677304
0.65650988
0.65578954
0.65472584
0.65357964
0.65262688
0.6518148
0.65119001
0.65063749
0.64990097
0.64853345
0.64718356
0.64605937
0.64495672
0.64369446
0.64232344
0.64077062
0.63927464
0.63754817
0.63581238
0.63408173
0.66461092
0.66739958
0.66452642
0.66598937
0.66313939
0.66228271
0.66009274
0.66229369
0.66578367
0.66938582
0.66607569
0.66203258
0.6630828
0.66517381
0.66254032
0.6623614
0.66346433
0.66194254
0.66207193
0.66184404
0.66105585
0.661186
0.66056494
0.66046871
0.65974465
0.65949348
0.65896706
0.65793526
0.65739837
0.65679316
0.65652418
0.65581112
0.65475994
0.65362152
0.65266943
0.65185138
0.65122366
0.65067428
0.649941
0.64857429
0.64721607
0.64609402
0.64498622
0.643724
0.6423587
0.6408155
0.63933454
0.6376105
0.63588225
0.63415599
0.66459704
0.66742288
0.66452819
0.66600679
0.66316956
0.66231489
0.6600998
0.66223702
0.66570751
0.66938231
0.6661601
0.66206637
0.66302658
0.66518254
0.66258266
0.6623378
0.66347208
0.66195819
0.66206263
0.66186284
0.66106117
0.66118594
0.66056751
0.66047777
0.6597589
0.65951454
0.65899372
0.65796779
0.65743026
0.65681443
0.65653922
0.65583309
0.65479347
0.65366201
0.65270881
0.65188201
0.65125158
0.65070869
0.6499817
0.64861603
0.64724747
0.64612863
0.64501695
0.64375611
0.64239298
0.64085642
0.63938785
0.63766713
0.63594795
0.63422642
0.66458606
0.66745554
0.6645255
0.66601761
0.6631993
0.66234827
0.66010866
0.66218008
0.665626
0.66937744
0.66624614
0.66210464
0.66296983
0.66519016
0.66262785
0.66231391
0.66347922
0.66197548
0.66205369
0.66188372
0.66106743
0.6611858
0.66057212
0.66048515
0.65977481
0.65953429
0.65901951
0.65800403
0.65746738
0.65683655
0.65655457
0.65585424
0.65482753
0.65370583
0.65275431
0.651922
0.65128793
0.65074862
0.65002503
0.64866041
0.64728272
0.64616648
0.64504868
0.64378994
0.6424286
0.64089918
0.63944408
0.63772821
0.63601909
0.63430219
0.66457201
0.6674826
0.66452164
0.66602464
0.66322762
0.66238239
0.6601184
0.66212267
0.66554014
0.66937318
0.66633422
0.66214487
0.662912
0.66519738
0.66267468
0.66228944
0.66348623
0.66199315
0.66204342
0.66190377
0.66107449
0.66118578
0.66057444
0.6604931
0.65978909
0.65955524
0.65904598
0.65803817
0.6575016
0.65686094
0.65657066
0.65587634
0.65486091
0.65374859
0.65279688
0.65195622
0.65131804
0.65078552
0.6500686
0.64870592
0.64731696
0.6462038
0.64508138
0.64382714
0.64246439
0.640939
0.63949386
0.63778281
0.6360856
0.63437359
0.63253543
0.66455302
0.66749791
0.66452061
0.66604267
0.66325701
0.66241863
0.66013043
0.66206517
0.66544865
0.66936699
0.66642321
0.66219019
0.66285355
0.66520301
0.66272456
0.66226459
0.6634923
0.66201249
0.66203388
0.66192603
0.6610828
0.66118535
0.66057917
0.66049997
0.65980483
0.65957573
0.65907207
0.65807716
0.65754133
0.65688608
0.65658753
0.65589744
0.65489479
0.65379408
0.65284551
0.65200033
0.6513573
0.65082865
0.65011495
0.64875391
0.64735489
0.64624436
0.64511547
0.64386646
0.64250227
0.64098127
0.63954648
0.63784117
0.63615711
0.63444982
0.63260742
0.6645357
0.66750607
0.66452067
0.66607322
0.66329008
0.66245663
0.66014383
0.66200716
0.66535232
0.66936153
0.66651408
0.6622373
0.66279346
0.66520799
0.66277626
0.66223873
0.663498
0.6620321
0.66202293
0.66194739
0.66109179
0.66118548
0.66058149
0.66050667
0.6598193
0.65959666
0.65909842
0.65811258
0.65757937
0.65691438
0.65660538
0.65591986
0.65492753
0.65383887
0.65289131
0.65203877
0.65138963
0.65086796
0.65016092
0.64880299
0.64739193
0.64628382
0.64515037
0.64390961
0.64254198
0.64102186
0.63959335
0.63789256
0.63622341
0.63452119
0.6326764
0.66452517
0.66752408
0.66451955
0.66610107
0.66332572
0.66249686
0.66015965
0.66194925
0.66525026
0.6693537
0.6666056
0.66228894
0.66273287
0.66521162
0.6628308
0.66221234
0.66350231
0.66205341
0.66201263
0.66197121
0.66110267
0.66118482
0.66058666
0.66051289
0.65983444
0.65961824
0.65912437
0.65815409
0.65762251
0.65694316
0.65662445
0.6559412
0.6549608
0.65388574
0.65294293
0.65208752
0.65143174
0.65091428
0.65021008
0.64885437
0.64743247
0.64632637
0.64518726
0.6439554
0.64258479
0.6410657
0.63964334
0.6379474
0.63629425
0.63459696
0.63274955
0.63070349
0.66451919
0.66755679
0.66451663
0.66612514
0.66336049
0.66253819
0.66017713
0.66189095
0.66514301
0.66934621
0.66669853
0.66234236
0.66267009
0.66521493
0.66288684
0.66218479
0.66350564
0.66207506
0.66200055
0.66199426
0.66111416
0.66118515
0.66058952
0.66051829
0.65984939
0.65963902
0.65915053
0.65819056
0.65766431
0.65697564
0.65664497
0.65596407
0.6549928
0.65393229
0.65299189
0.65213081
0.65146618
0.65095618
0.65025835
0.64890635
0.64747235
0.64636731
0.6452247
0.64400544
0.64263113
0.64110938
0.63968869
0.63799542
0.63635934
0.63466736
0.63281947
0.63078075
0.66450139
0.66758252
0.66451548
0.66615151
0.66339644
0.66258106
0.66019702
0.66183312
0.66503013
0.66933558
0.66679201
0.66240118
0.66260635
0.66521676
0.66294519
0.66215718
0.66350731
0.66209872
0.6619887
0.66202022
0.66112799
0.66118435
0.66059496
0.66052389
0.65986338
0.65966196
0.65917569
0.6582337
0.65771072
0.65700841
0.65666699
0.65598616
0.65502525
0.65398022
0.65304662
0.65218457
0.65151102
0.65100602
0.65031048
0.64896052
0.64751579
0.64641129
0.64526452
0.64405866
0.64268134
0.64115712
0.63973768
0.63804725
0.63642877
0.63474182
0.63289324
0.6308614
0.66447431
0.66759321
0.66451727
0.66618049
0.66343482
0.66262441
0.66021866
0.66177509
0.66491195
0.66932449
0.66688681
0.66246354
0.66254001
0.66521779
0.66300512
0.66212918
0.66350717
0.66212331
0.66197493
0.66204563
0.66114193
0.66118483
0.66059879
0.66052845
0.65987879
0.65968282
0.65920155
0.65827049
0.65775581
0.65704468
0.65669083
0.65601
0.65505624
0.65402812
0.65309903
0.65223296
0.65154796
0.65105084
0.65036128
0.64901486
0.64755884
0.64645375
0.64530427
0.64411589
0.64273638
0.64120625
0.63978342
0.63809334
0.63649232
0.63481047
0.63296349
0.63094024
0.66445404
0.66760524
0.6645167
0.66620988
0.66347254
0.66266923
0.66024289
0.66171793
0.66478847
0.66930949
0.6669827
0.66253259
0.66247315
0.66521729
0.66306715
0.66210256
0.66350481
0.66215064
0.66196163
0.66207348
0.66115879
0.66118438
0.66060485
0.66053349
0.65989172
0.6597066
0.65922485
0.65831387
0.65780503
0.65708131
0.6567162
0.65603359
0.6550872
0.65407653
0.6531571
0.65229157
0.65159596
0.65110448
0.65041694
0.64907174
0.6476058
0.64649974
0.64534652
0.64417611
0.64279602
0.64126006
0.63983359
0.63814441
0.63656042
0.634883
0.63303731
0.63102244
0.62895214
0.66444368
0.66763484
0.66451232
0.66623973
0.66350859
0.66271563
0.66026902
0.66166087
0.66465983
0.66929311
0.66707975
0.66260618
0.66240437
0.66521556
0.66313078
0.66207653
0.66350053
0.66217958
0.66194672
0.6620989
0.66117528
0.66118551
0.66060959
0.6605377
0.65990756
0.65972723
0.65925053
0.65835147
0.65785283
0.65712082
0.65674356
0.65605861
0.65511725
0.65412503
0.65321324
0.65234487
0.65163637
0.65115201
0.65047087
0.64912863
0.64765291
0.64654485
0.64538789
0.6442393
0.64286122
0.64131692
0.63988232
0.63819162
0.63662302
0.63494962
0.63310716
0.63110252
0.62904007
0.66443397
0.66767266
0.66450488
0.66627116
0.66354809
0.66276419
0.6602981
0.66160516
0.66452635
0.6692724
0.66717708
0.66268626
0.66233746
0.66521065
0.66319575
0.66205291
0.66349428
0.66221119
0.66193251
0.66212502
0.6611954
0.66118599
0.66061623
0.6605423
0.65992027
0.65975135
0.65927176
0.65839425
0.65790414
0.65716097
0.65677268
0.65608401
0.65514731
0.6541734
0.65327466
0.65240765
0.65168822
0.65120929
0.65053077
0.64918871
0.64770452
0.6465943
0.64543202
0.64430495
0.64293116
0.64137938
0.63993653
0.63824533
0.63669088
0.63502028
0.63318037
0.631186
0.62912905
0.66440881
0.66770625
0.66450188
0.66630446
0.66359111
0.66281434
0.66032942
0.66154985
0.66438808
0.66924873
0.66727532
0.66277244
0.66227077
0.66520197
0.66326235
0.66203121
0.66348619
0.66224422
0.66191692
0.66214768
0.66121472
0.66118807
0.66062199
0.6605461
0.65993682
0.6597717
0.65929745
0.65843266
0.65795454
0.65720365
0.65680414
0.65611016
0.65517821
0.65422195
0.65333446
0.65246506
0.6517331
0.65125974
0.65058821
0.64924882
0.64775693
0.6466436
0.64547488
0.64437214
0.64300638
0.64144675
0.63999133
0.63829725
0.6367542
0.63508544
0.63324924
0.63126716
0.62921829
0.62711269
0.66437901
0.66772888
0.66450179
0.66634014
0.66363445
0.66286637
0.66036394
0.66149622
0.66424565
0.66922015
0.66737491
0.66286537
0.66220709
0.66518909
0.6633297
0.66201306
0.66347592
0.66227946
0.66190227
0.66217071
0.66123829
0.66119022
0.66062939
0.66055084
0.65995022
0.65979543
0.65931713
0.65847469
0.65800702
0.65724602
0.65683801
0.65613754
0.65520917
0.65427047
0.65339892
0.65253133
0.65178979
0.65132082
0.65065234
0.64931287
0.64781435
0.64669806
0.6455213
0.64444105
0.64308567
0.64152032
0.64005256
0.63835713
0.63682416
0.63515544
0.63332164
0.63135193
0.62930865
0.62720363
0.66435658
0.66774744
0.66449666
0.6663714
0.66367647
0.66292039
0.66040089
0.66144314
0.66409919
0.66918686
0.66747784
0.66296479
0.66214231
0.66517313
0.66339838
0.66199768
0.66346303
0.66231573
0.66188667
0.66218991
0.66126067
0.66119409
0.66063678
0.66055446
0.65996766
0.65981507
0.65934292
0.65851377
0.65805914
0.65729199
0.65687454
0.65616501
0.655242
0.65431921
0.65346186
0.65259289
0.65184007
0.65137451
0.6507131
0.64937709
0.64787343
0.64675316
0.64556649
0.64450976
0.6431692
0.6415999
0.64011659
0.63841743
0.6368912
0.63522108
0.63338994
0.63143452
0.62939918
0.62729647
0.66434212
0.66778079
0.6644901
0.66639747
0.66371793
0.6629769
0.66044133
0.66139192
0.66394961
0.66914743
0.66758158
0.66306863
0.66208115
0.66515521
0.66346716
0.66198742
0.66344736
0.66235319
0.66187227
0.66220978
0.66128785
0.66119842
0.66064566
0.66056036
0.65998209
0.65983846
0.65936191
0.65855563
0.65811203
0.65733879
0.65691344
0.65619534
0.65527525
0.654368
0.65352848
0.65266308
0.65190258
0.65143982
0.65078162
0.64944632
0.64793814
0.64681406
0.64561667
0.64457956
0.64325567
0.64168566
0.64018794
0.63848704
0.63696686
0.63529303
0.63346272
0.63152126
0.62949116
0.62739076
0.62511934
0.66431636
0.66781827
0.66448585
0.6664289
0.6637611
0.66303575
0.66048483
0.66134153
0.66379716
0.66910064
0.66768894
0.66317816
0.66202284
0.66513076
0.66353808
0.66197849
0.66342847
0.66239115
0.66185707
0.66222604
0.66131337
0.66120425
0.66065565
0.66056438
0.66000006
0.65985697
0.6593861
0.65859523
0.65816472
0.65738901
0.65695531
0.656227
0.6553108
0.65441636
0.65359352
0.65273002
0.65195896
0.65149727
0.65084608
0.64951585
0.64800524
0.64687628
0.64566613
0.64464764
0.64334483
0.64177783
0.64026416
0.63855932
0.63704167
0.63536232
0.63353269
0.63160649
0.62958357
0.62748717
0.62521561
0.66428025
0.66784258
0.664482
0.66646126
0.6638052
0.6630964
0.66053216
0.6612936
0.66364296
0.66904425
0.66779295
0.66329254
0.66197241
0.66509996
0.66360921
0.66197581
0.66340669
0.66242968
0.66184295
0.66224317
0.66134419
0.66120985
0.66066606
0.66057205
0.66001586
0.6598814
0.65940428
0.65863647
0.65821866
0.65744077
0.6569987
0.65626171
0.65534602
0.65446483
0.65366104
0.65280525
0.65202768
0.65156728
0.65091928
0.6495914
0.64807852
0.64694496
0.64572236
0.64471709
0.6434353
0.64187534
0.6403484
0.638642
0.63712661
0.63543971
0.63360904
0.63169699
0.62967815
0.62758554
0.62531519
0.62294097
0.664252
0.66787148
0.66447771
0.66648933
0.66385152
0.6631571
0.66058227
0.66124743
0.6634874
0.66897516
0.667901
0.66341293
0.66192698
0.66505752
0.66368266
0.66197748
0.66338135
0.66246888
0.66182831
0.66225615
0.66137273
0.66121635
0.66067915
0.66057725
0.66003465
0.65990094
0.65942544
0.65867386
0.65827163
0.65749447
0.65704683
0.65629901
0.6553849
0.65451187
0.65372722
0.65287871
0.65209036
0.65162883
0.65098736
0.6496671
0.64815449
0.6470157
0.64577846
0.64478429
0.64352641
0.64197815
0.6404389
0.63872883
0.63721263
0.63551631
0.63368475
0.6317874
0.62977409
0.62768663
0.62541727
0.62304634
0.66423289
0.66791536
0.66446991
0.66652332
0.66389832
0.66321811
0.66063566
0.66120468
0.66333173
0.66889166
0.66801211
0.66353882
0.66189046
0.66500586
0.66375647
0.66198543
0.66335305
0.66250838
0.66181528
0.66226959
0.66140646
0.66122433
0.66069162
0.66058629
0.66005203
0.65992539
0.65944197
0.65871388
0.65832665
0.65755043
0.65709647
0.65633815
0.6554234
0.65455882
0.65379522
0.65295994
0.65216486
0.65170353
0.65106478
0.64974944
0.64823697
0.64709356
0.64584284
0.64485454
0.64361768
0.64208418
0.64053739
0.63882589
0.63730999
0.63560267
0.63376916
0.63188485
0.62987371
0.62779068
0.62552336
0.62315586
0.66421131
0.6679522
0.66446278
0.66656499
0.66394282
0.66328253
0.66069151
0.6611648
0.66317636
0.66879157
0.66813181
0.66367102
0.66186175
0.66493992
0.66383261
0.66199903
0.66332032
0.66254848
0.66180325
0.66227909
0.66143657
0.66123251
0.66070833
0.66059269
0.66007232
0.65994731
0.65946101
0.65874946
0.65837805
0.65760481
0.65715242
0.65638115
0.65546444
0.65460418
0.65386253
0.65304019
0.6522334
0.6517699
0.6511355
0.64983093
0.64832209
0.64717388
0.64590767
0.64492297
0.64370837
0.64219327
0.64064233
0.63892789
0.63740992
0.63569008
0.63385521
0.63198424
0.6299765
0.6278987
0.62563304
0.62327054
0.62090885
0.6641792
0.66798144
0.66445665
0.66660122
0.66399005
0.66334995
0.66074997
0.66113002
0.66302242
0.66867314
0.66825597
0.66380859
0.66184368
0.66486033
0.66391023
0.66201984
0.66328346
0.66258825
0.66179427
0.66228872
0.66147119
0.66124411
0.66072335
0.66060438
0.66009109
0.6599708
0.65947769
0.6587892
0.6584337
0.65766377
0.65720991
0.6564235
0.65550563
0.65464965
0.65393132
0.65312733
0.65231334
0.65184978
0.65121609
0.64991901
0.64841365
0.64726136
0.6459821
0.6449968
0.64379969
0.64230325
0.64075404
0.63903953
0.63752081
0.63578891
0.63395189
0.63209264
0.63008525
0.62801129
0.62574803
0.62339032
0.62102674
0.66414449
0.66802206
0.66445062
0.66663284
0.6640378
0.66341804
0.6608116
0.66109994
0.66287005
0.66853478
0.66838596
0.66395236
0.66183595
0.66476205
0.6639905
0.66204802
0.66324062
0.66262799
0.66178818
0.66229462
0.66150138
0.66125549
0.6607439
0.66061355
0.66011219
0.65999478
0.65949451
0.6588248
0.65847873
0.65771819
0.65727488
0.65647204
0.65554873
0.65469389
0.65400014
0.65321337
0.65238756
0.65192173
0.6512892
0.65000416
0.64850681
0.64735011
0.64605674
0.64507002
0.64389063
0.64241377
0.64087103
0.63915674
0.63763444
0.63589098
0.63405205
0.63220487
0.63019952
0.62812978
0.62586838
0.62351645
0.62115233
0.66410978
0.66806189
0.66444363
0.66666604
0.66408314
0.66348793
0.66087765
0.66107546
0.66272006
0.66837607
0.66851881
0.66409947
0.66183826
0.66464863
0.66407392
0.66208379
0.66319335
0.6626667
0.66178703
0.66230039
0.66153577
0.66127188
0.66076189
0.66062837
0.66013179
0.66001801
0.65951084
0.65886053
0.65853129
0.65777897
0.65733891
0.65651821
0.65559408
0.65473752
0.65406953
0.65330495
0.65247268
0.65200717
0.65137375
0.65009571
0.64860591
0.64744522
0.6461421
0.64515196
0.64398453
0.64252296
0.6409918
0.63928299
0.63775788
0.63600534
0.63416448
0.63232753
0.63032212
0.62825503
0.6259959
0.623649
0.62128342
0.61875637
0.66407141
0.66809628
0.66443395
0.66669935
0.66412827
0.66355956
0.66094716
0.6610552
0.66257228
0.66819749
0.66865482
0.66425389
0.66185187
0.66451625
0.66416284
0.66212788
0.66313867
0.66270675
0.66178847
0.66230201
0.66156615
0.66128641
0.66078618
0.66064217
0.66015356
0.66004441
0.65952504
0.65889712
0.65857348
0.65783384
0.65740898
0.656574
0.65564169
0.65477937
0.65413854
0.65339582
0.65255329
0.65208461
0.65145141
0.65018198
0.6487056
0.6475402
0.64622771
0.64523473
0.64407977
0.64263074
0.64111504
0.63941561
0.63788436
0.63612377
0.63428263
0.63245512
0.63045211
0.62838862
0.62613117
0.62378954
0.62142368
0.61889422
0.66403094
0.66813909
0.66442371
0.66673266
0.66417211
0.66363398
0.66102063
0.66103959
0.66242729
0.667999
0.66879566
0.66441009
0.66187467
0.66436656
0.66425759
0.66217842
0.66307669
0.66275252
0.66179789
0.66230289
0.66160033
0.66130685
0.66080735
0.66066007
0.66017585
0.6600693
0.65954035
0.65893028
0.65862311
0.65789387
0.65747674
0.65662891
0.65569367
0.65481948
0.65420646
0.6534915
0.65264396
0.65217486
0.651542
0.65027495
0.64881097
0.64764056
0.64632517
0.64532883
0.64418174
0.64273699
0.64123807
0.63955582
0.63801941
0.63625366
0.63441416
0.63259421
0.63059169
0.62853106
0.62627581
0.62393831
0.62157108
0.61903727
0.61641535
0.6639909
0.66819067
0.6644147
0.66676303
0.66421795
0.66371193
0.66109807
0.66102829
0.66228462
0.66778213
0.66893667
0.6645746
0.66190721
0.66419801
0.66435725
0.66223618
0.66300635
0.66280333
0.66181452
0.6623011
0.66163056
0.66132354
0.66083448
0.66067909
0.66019792
0.66009824
0.65955246
0.65896473
0.65866239
0.65794725
0.65755151
0.65669453
0.65574633
0.65485853
0.65427283
0.65358774
0.65273157
0.65225739
0.65162659
0.650361
0.64891579
0.64774003
0.64642299
0.64542386
0.64428731
0.64284274
0.64136086
0.63970154
0.63815749
0.63638717
0.63455222
0.63273972
0.63073899
0.6286835
0.62643058
0.62409706
0.62172929
0.61919294
0.6165657
0.6639476
0.66823892
0.66440764
0.66679241
0.66426467
0.66378986
0.66118024
0.66102255
0.66214501
0.6675467
0.66908002
0.66474116
0.66194845
0.66401714
0.66445944
0.66229843
0.66292883
0.6628587
0.66183965
0.66229957
0.66166327
0.66134699
0.66086074
0.66069913
0.66022276
0.66012392
0.65957022
0.65899371
0.65870757
0.65800385
0.65762486
0.65676113
0.65580483
0.65489791
0.65433782
0.65368786