/*--------------------------------*- C++ -*----------------------------------*\
| =========                 |                                                 |
| \\      /  F ield         | OpenFOAM: The Open Source CFD Toolbox           |
|  \\    /   O peration     | Version:  2506                                  |
|   \\  /    A nd           | Website:  www.openfoam.com                      |
|    \\/     M anipulation  |                                                 |
\*---------------------------------------------------------------------------*/
FoamFile
{
    version     2.0;
    format      ascii;
    arch        "LSB;label=32;scalar=64";
    class       surfaceScalarField;
    location    "1";
    object      phi;
}
// * * * * * * * * * * * * * * * * * * * * * * * * * * * * * * * * * * * * * //

dimensions      [1 0 -1 0 0 0 0];

oriented        oriented;

internalField   nonuniform List<scalar> 
2661
(
0.017447304
1.462179
0.0094746752
1.6177296
0.025556642
1.7043023
1.8062318
0.021818648
1.4409185
0.017393142
1.623257
0.0059585892
1.7144565
0.00027501825
1.8115731
-0.00036602143
1.9706678
-0.013030324
2.0711766
-0.010162435
2.2285447
-0.021229794
2.3735146
-0.087831132
2.5866485
-0.098576337
2.743144
-0.061542504
2.9379456
3.1557957
-0.00065587164
1.4415871
0.00079938501
1.6230857
0.0067658064
1.7072202
-0.0077580116
1.8264887
-0.0046912025
1.9678976
-0.008566536
2.0746562
-0.042308885
2.2631345
-0.051525283
2.3815128
-0.058489761
2.5887848
-0.06024607
2.7432326
-0.047425432
2.9300523
-0.055036549
3.1651887
-0.050232698
3.3910587
-0.054110976
3.6538454
-0.058638635
3.9344067
-0.061358115
4.2316497
-0.066433969
4.5552474
-0.072799032
4.9052933
-0.077577378
5.2827382
-0.083154531
5.6912759
-0.08782391
6.1323843
6.6153265
0.013550066
1.4261693
0.0036781385
1.6344921
0.0042834327
1.7060363
0.0020964913
1.8279945
0.011852292
1.958673
0.0013463486
2.085294
0.00059109062
2.2627763
-0.0065025515
2.3906849
0.0049323268
2.5769908
0.0006072156
2.7466839
-0.01974909
2.9507676
-0.027011989
3.173515
-0.048194872
3.4123541
-0.061355769
3.6660126
-0.064780017
3.9382801
-0.069840883
4.2379567
-0.071938249
4.5571253
-0.074120552
4.9066388
-0.076811214
5.2854302
-0.079244675
5.6938011
-0.080436347
6.1335329
-0.069329156
6.6034356
-0.067912288
7.1229976
-0.082671592
7.6886374
-0.080569843
8.2820199
-0.079311462
8.9314492
-0.082960959
9.6358677
-0.086317484
10.392885
-0.086035346
11.214165
-0.085418196
12.099269
-0.085873224
13.057549
-0.083885298
14.092004
-0.080403865
15.211397
16.420183
0.0034518186
1.4226385
0.0043229862
1.6332984
0.012432495
1.6970579
0.010114444
1.829597
0.0032775174
1.9666061
-0.0032704436
2.0927497
0.014852949
2.245147
0.011784811
2.3938173
-0.0042919114
2.5899761
-0.0066958875
2.7491364
-0.0071524722
2.954624
-0.014196926
3.181183
-0.025347759
3.4225165
-0.028892847
3.6687589
-0.035489149
3.9451114
-0.044779257
4.2482249
-0.055278625
4.5680221
-0.0627147
4.9135949
-0.066143043
5.2887568
-0.067987932
5.6956004
-0.071527091
6.1369249
-0.081427199
6.6136119
-0.08255746
7.1244575
-0.075362141
7.6807094
-0.076855655
8.283558
-0.077994621
8.9328253
-0.076410364
9.6341747
-0.075262158
10.391707
-0.075352919
11.214348
-0.075122515
12.099169
-0.076146251
13.05857
-0.074933523
14.090478
-0.071766199
15.208225
-0.07115292
16.419827
-0.069752507
17.726637
-0.067218799
19.136575
-0.063518908
20.660165
-0.059034664
22.305884
-0.055059825
24.083781
-0.050770974
26.007101
-0.046331205
28.085791
-0.042813012
30.329164
-0.039218868
32.751157
-0.034879305
35.362534
-0.03025652
38.19294
-0.023383747
41.234264
-0.016717063
44.537231
-0.0070259366
48.10031
51.983961
-0.005553003
1.4315864
0.010266176
1.6141884
0.009868769
1.6962678
-0.0010527487
1.8399394
0.0014946246
1.9636588
-0.0047899136
2.1005465
-0.0064262076
2.2493968
-0.011803706
2.3984079
0.0016654315
2.5730676
-0.0086488383
2.7607058
-0.027281331
2.9741873
-0.029860353
3.1824983
-0.02763333
3.420024
-0.035813847
3.6765641
-0.042806625
3.9518848
-0.038094504
4.2439213
-0.037700388
4.5677267
-0.042524903
4.9180784
-0.048084261
5.294361
-0.053938709
5.7016538
-0.057362797
6.1399738
-0.064097149
6.6202695
-0.067943108
7.1291911
-0.067650532
7.6807189
-0.070211642
8.2863135
-0.071695429
8.93434
-0.072469073
9.6349251
-0.07251875
10.391788
-0.071090538
11.212962
-0.069984417
12.098078
-0.066737159
13.055127
-0.066861851
14.090898
-0.066841145
15.208167
-0.064334327
16.417106
-0.061762755
17.724389
-0.058687634
19.133949
-0.054933545
20.656743
-0.051817939
22.302897
-0.049325067
24.081273
-0.046331537
26.004027
-0.042804027
28.082272
-0.038613188
30.324897
-0.034332928
32.746564
-0.029740759
35.357445
-0.025634073
38.188538
-0.020659579
41.229001
-0.014635468
44.531592
-0.0065636307
48.094773
51.981048
0.04302639
1.3901615
0.0098715143
1.648949
0.0086348376
1.6978094
0.0031744651
1.8454472
0.01850845
1.9487187
0.023577334
2.0948859
0.017675703
2.2560011
0.0094546202
2.4077945
0.01258407
2.569896
0.0066798446
2.7651954
-0.013602458
2.9950942
-0.01892306
3.1865029
-0.025939582
3.4277021
-0.026795901
3.6775581
-0.028004138
3.9529698
-0.038867521
4.2555188
-0.043156711
4.5725714
-0.045894706
4.9207575
-0.047148262
5.295911
-0.047568617
5.7024429
-0.050137526
6.1420974
-0.047051841
6.6163642
-0.047840488
7.1298433
-0.054911336
7.6883979
-0.055802774
8.287078
-0.057149384
8.9355034
-0.060121408
9.6376909
-0.060911812
10.392697
-0.059040478
11.211298
-0.058129544
12.097452
-0.056436335
13.053717
-0.055728496
14.09013
-0.055635585
15.208047
-0.054427779
16.41597
-0.051957522
17.722364
-0.049442777
19.131977
-0.046290038
20.653958
-0.043398494
22.300055
-0.041594199
24.079502
-0.039576566
26.001886
-0.036138503
28.078582
-0.03260121
30.321303
-0.02913013
32.742821
-0.02448182
35.352136
-0.020766192
38.184483
-0.017408564
41.225624
-0.012074851
44.527015
-0.0043552397
48.089495
51.979671
-0.06238083
1.450074
-0.0021673178
1.5920711
0.0056970353
1.6899048
0.015164365
1.8367483
0.018156215
1.9469442
0.0046942269
2.109837
0.01603627
2.2431242
0.014389768
2.4101319
-0.0028833073
2.5890056
-0.0076892653
2.7692555
0.0010744482
2.9843068
0.00067313758
3.1862895
-0.0062225788
3.4356185
-0.013846295
3.6850248
-0.018792013
3.9574868
-0.021475252
4.2584777
-0.029662972
4.581193
-0.035498614
4.9264083
-0.038892761
5.2999164
-0.041012993
5.7055089
-0.042567373
6.1438628
-0.042672337
6.6162753
-0.044385867
7.1311359
-0.045644152
7.6897981
-0.046720243
8.2878766
-0.046855838
8.9352933
-0.046731718
9.6372782
-0.046418049
10.392465
-0.045013609
11.210302
-0.044296937
12.097129
-0.045699212
13.05513
-0.045341225
14.08964
-0.044346122
15.207009
-0.043415689
16.41501
-0.041562704
17.720847
-0.039620008
19.13055
-0.037151271
20.651964
-0.033438747
22.296479
-0.031929362
24.077996
-0.032026327
26.001739
-0.029932924
28.076302
-0.027098093
30.318346
-0.023720851
32.73917
-0.020841954
35.348634
-0.018072949
38.181346
-0.014272876
41.221968
-0.010178739
44.523563
-0.0043692421
48.085302
51.978495
0.065711191
1.3833304
0.022156304
1.6361751
0.019159623
1.6921168
0.010926554
1.8452467
0.0098892833
1.9491746
0.01254352
2.1064239
0.011047686
2.244985
0.004155194
2.4166483
0.0054408149
2.5891868
-0.00027803875
2.7762427
0.0082119823
2.9764493
0.00060221547
3.1944748
-0.003560099
3.4385712
-0.0071915297
3.6873969
-0.016101611
3.9661738
-0.0164643
4.2586645
-0.014160741
4.5785632
-0.013758486
4.9255951
-0.018849337
5.3050524
-0.022257622
5.709631
-0.0268343
6.1487674
-0.031322925
6.620519
-0.034455504
7.1342446
-0.0344728
7.6898903
-0.033105948
8.2865058
-0.033109921
8.9350308
-0.031604991
9.6353194
-0.031710322
10.39253
-0.032903433
11.211927
-0.032758245
12.097186
-0.034327545
13.056611
-0.0344572
14.089706
-0.033773326
15.206292
-0.032544613
16.413878
-0.029766074
17.718151
-0.028054041
19.129289
-0.027625354
20.652008
-0.026869294
22.295902
-0.026299961
24.077413
-0.024943762
26.000049
-0.022911799
28.07391
-0.020328342
30.315536
-0.018035836
32.736518
-0.016496407
35.346546
-0.01444912
38.17902
-0.011778297
41.219494
-0.0078458034
44.520096
-0.0049155307
48.083217
51.978587
-0.01040074
1.3963002
0.0078473207
1.6166759
0.011559772
1.6890815
0.009788863
1.8456692
0.014404371
1.9440228
0.01809955
2.1038071
0.018622984
2.2437928
0.0077050252
2.426723
0.0084279387
2.5881901
0.0078848228
2.7776042
0.0020975851
2.9828092
-0.003041643
3.2006614
-0.0015603769
3.4361154
-0.0065363101
3.6915049
-0.0053647922
3.965018
-0.0060392035
4.2600784
-0.008356771
4.5811267
-0.012047606
4.929542
-0.013222766
5.3060498
-0.013278935
5.7095317
-0.015067287
6.1502358
-0.018087228
6.6229597
-0.021108332
7.136821
-0.022121561
7.6911212
-0.02195786
8.2869604
-0.021435648
8.9343493
-0.02089276
9.6342367
-0.021883977
10.393444
-0.023046524
11.213542
-0.023634715
12.097951
-0.022817553
13.055637
-0.021908046
14.08872
-0.022425095
15.207012
-0.02137545
16.412962
-0.020075468
17.716938
-0.01978997
19.129461
-0.017962638
20.650665
-0.017140836
22.295151
-0.017492867
24.077622
-0.016593507
25.998891
-0.015148483
28.072096
-0.013615501
30.313709
-0.012137157
32.734512
-0.011100914
35.344924
-0.0097583278
38.177525
-0.0086016598
41.218685
-0.0056001123
44.517602
-0.0044068185
48.083217
51.980941
-0.016547092
1.411988
-7.1248579e-05
1.603153
0.0084867888
1.6814684
0.021048652
1.8331905
0.019351863
1.9456101
0.0097231736
2.1128066
0.011088152
2.2418066
0.019143126
2.4178977
0.02391629
2.5834762
0.021676691
2.7798796
0.018502351
2.9860838
0.016063248
3.2036302
0.010084224
3.4412859
0.0076159942
3.6927419
0.0072687662
3.9653173
0.005146619
4.2627189
0.0018437551
4.5851335
-0.0018449342
4.9337235
-0.0039015673
5.3080651
-0.0076373918
5.7135809
-0.0085822949
6.1513436
-0.0092868567
6.6236134
-0.0078849334
7.1349557
-0.006404846
7.6895046
-0.0072512749
8.288319
-0.0081798543
8.93549
-0.0098671469
9.6356147
-0.010793753
10.394138
-0.010740676
11.213637
-0.010223086
12.097592
-0.010039365
13.05556
-0.01020652
14.088889
-0.0095683493
15.206268
-0.0090061616
16.412696
-0.0096143285
17.717711
-0.0090133387
19.12915
-0.0085080014
20.650607
-0.0086640132
22.295412
-0.0084045162
24.07717
-0.0078214312
25.998124
-0.0071769454
28.071066
-0.006355724
30.312581
-0.0056632012
32.733207
-0.0055874382
35.344307
-0.004788055
38.176601
-0.0044044002
41.218544
-0.0025712049
44.516103
-0.0031428198
48.084122
51.985341
0.071784778
1.3404314
0.033230275
1.6399474
0.03498676
1.6799857
0.016459686
1.8520908
0.016263948
1.9450765
0.019456411
2.1085007
0.024295406
2.2360973
0.029234861
2.4131784
0.028238183
2.5861533
0.016708765
2.792568
0.015968649
2.9860363
0.015356566
3.2032003
0.020747016
3.4354102
0.023250555
3.6899175
0.017764033
3.970193
0.013700199
4.2673506
0.010021395
4.5888654
0.0091003622
4.9347305
0.0085809359
5.3083209
0.0078079267
5.7140234
0.0075511973
6.1520801
0.0064762767
6.6248884
0.0045396548
7.136728
0.0031735575
7.6912145
0.0039506701
8.2878843
0.0044104182
8.9349631
0.003237053
9.6368176
0.0022678751
10.395074
0.0027588012
11.213201
0.0026237184
12.09797
0.0028075482
13.055258
0.0022655977
14.089464
0.0025096886
15.206026
0.0030763617
16.412233
0.002081218
17.718871
0.0017518934
19.129959
0.0018005766
20.651054
0.0013972976
22.295926
0.0010103094
24.077519
0.00090271249
25.998058
0.0010982082
28.07044
0.0011526774
30.312169
0.0010179733
32.732806
0.0003105853
35.344537
0.00024181514
38.176486
-0.0012970246
41.220305
-0.00097145925
44.516083
-0.0015104081
48.084103
51.990659
-0.084858898
1.4254214
-0.018407598
1.5724706
-0.0142114
1.6747508
0.0088626639
1.8276611
0.021791065
1.9316529
0.028047212
2.102643
0.025778801
2.2386083
0.018010564
2.420624
0.018455079
2.5855683
0.024696751
2.7861295
0.031048025
2.9807179
0.032640207
3.2013812
0.029502791
3.4369336
0.023049962
3.6975921
0.022545365
3.9718694
0.021677196
4.2682564
0.022335611
4.5879657
0.021547028
4.9354851
0.020476422
5.3095218
0.01969254
5.7146301
0.018743421
6.1527029
0.018423691
6.6250951
0.017453473
7.1377089
0.019037171
7.6899017
0.019791894
8.2876361
0.016934188
8.9376541
0.015919557
9.6376282
0.01641364
10.394581
0.016456135
11.213399
0.016134453
12.098516
0.016102508
13.055096
0.015836934
14.089631
0.015602317
15.206378
0.014392592
16.413651
0.013386368
17.719925
0.013384265
19.130222
0.013025654
20.651865
0.012245031
22.296881
0.011051694
24.078719
0.010382945
25.998579
0.0098168153
28.070579
0.0092626445
30.312312
0.0079543498
32.733653
0.0061351068
35.345967
0.004752935
38.177646
0.0019335127
41.223511
0.0010543628
44.517576
-0.00081654998
0.10144988
1.3246735
0.026616185
1.6478077
0.032472384
1.6689554
0.030741331
1.8295047
0.02423797
1.9382684
0.022389455
2.1042282
0.019794562
2.2403451
0.02271892
2.4167675
0.028563476
2.5789373
0.039846322
2.7750608
0.04264896
2.978949
0.032048966
3.2126985
0.029221978
3.4394234
0.032298208
3.6937886
0.036171648
3.9688812
0.036940492
4.2679504
0.035508653
4.5894646
0.034389077
4.9360978
0.033431124
5.310432
0.033380596
5.7147874
0.03337173
6.1523421
0.032711519
6.625222
0.03303726
7.1372576
0.03587765
7.6874724
0.034203312
8.289626
0.03139817
8.9403614
0.031497718
9.6374484
0.031040876
10.395062
0.030708567
11.213991
0.030458901
12.099093
0.030118005
13.055356
0.030162774
14.08947
0.029403859
15.207139
0.027310186
16.415862
0.026153801
17.721243
0.025707398
19.130844
0.024751872
20.653198
0.02304252
22.298706
0.021218723
24.080456
0.020155336
25.999481
0.019033791
28.071343
0.017618095
30.313278
0.015097126
32.735712
0.012320595
35.348507
0.0095967421
38.180182
0.0059638682
41.227654
-0.065134842
1.3899323
0.010074691
1.5735565
0.0091264107
1.6706296
0.011830705
1.8271991
0.016706135
1.9326258
0.019049421
2.1012307
0.026272671
2.2327656
0.032665149
2.4102884
0.033138711
2.5783704
0.03041281
2.7782392
0.03174828
2.9776733
0.036736912
3.2070262
0.04415138
3.4319012
0.047046953
3.6909694
0.046772858
3.9699049
0.045364229
4.2698804
0.046414676
4.5879713
0.04688441
4.935041
0.047637101
5.3097477
0.048803929
5.7139413
0.047945738
6.1531553
0.047007321
6.6256126
0.049090211
7.1350161
0.04802836
7.6888463
0.044929312
8.292765
0.046776879
8.9385228
0.046737791
9.6375127
0.045647743
10.396135
0.045454207
11.214383
0.045018159
12.099897
0.044715607
13.055696
0.043771683
14.090301
0.041714735
15.209224
0.039674376
16.417951
0.038724598
17.722313
0.038211543
19.131515
0.036700573
20.655047
0.034276955
22.301171
0.031990394
24.082525
0.0303042
26.001022
0.028347733
28.07303
0.025797744
30.315382
0.022516803
32.738501
0.018970765
35.351906
0.015096928
38.18394
0.048294361
1.340672
0.020738139
1.6010281
0.022823337
1.6685038
0.032461445
1.8171824
0.031645755
1.9330867
0.039969143
2.0925939
0.04567337
2.2274425
0.042047505
2.4145801
0.038095574
2.5822131
0.035572141
2.7800938
0.04174351
2.9711359
0.052855472
3.1967748
0.05521886
3.4306981
0.050298792
3.6964573
0.050151609
3.9698453
0.055997929
4.2637505
0.059101083
4.5846079
0.060108593
4.9335673
0.061734328
5.3082181
0.060824507
5.7153823
0.060332511
6.1536399
0.062598009
6.6228638
0.062221648
7.1352936
0.059529782
7.6915451
0.060934847
8.2911028
0.06228758
8.9373397
0.060933527
9.6389304
0.060581167
10.396382
0.060139723
11.214991
0.059636911
12.100717
0.058941241
13.056513
0.057051859
14.092057
0.055012345
15.211173
0.052693415
16.42039
0.051703514
17.723461
0.051058192
19.132293
0.048672249
20.657777
0.045698894
22.30419
0.043042815
24.084917
0.040615461
26.003298
0.037787225
28.075646
0.034349154
30.318413
0.029879084
32.742561
0.025120654
35.356478
0.00025411418
1.3401539
0.014643357
1.5866978
0.025716099
1.6566613
0.02627835
1.8165797
0.034830082
1.9247342
0.037221025
2.0909642
0.03426309
2.2308512
0.034917962
2.4135333
0.045055583
2.5718731
0.05839726
2.766798
0.066637034
2.9634726
0.064781114
3.1996341
0.055386952
3.4404449
0.056505911
3.6947774
0.065585792
3.960442
0.070424624
4.2589226
0.070790408
4.5842232
0.07231965
4.9315613
0.071900932
5.3087216
0.07224787
5.7153526
0.076918826
6.1487243
0.077783557
6.6218061
0.074672212
7.138351
0.075448025
7.6906233
0.077920987
8.2887594
0.077249885
8.9379479
0.076061934
9.6400281
0.076065242
10.39641
0.075160879
11.21605
0.07480646
12.101306
0.073361567
13.058082
0.071153342
14.094169
0.069363211
15.212846
0.067779945
16.422052
0.066448419
17.724892
0.064092029
19.134799
0.061067161
20.661054
0.05749093
22.307792
0.054206066
24.087927
0.050970482
26.006361
0.047384328
28.079042
0.043053469
30.322388
0.037648254
32.747623
-0.0059859678
1.3454939
-0.0018704095
1.5828699
0.010787945
1.644493
0.025445214
1.801867
0.040114273
1.9107273
0.040722632
2.0907219
0.046829652
2.2242351
0.057110303
2.4024478
0.066845306
2.5619554
0.068192285
2.7661071
0.061757326
2.9710981
0.062259035
3.1988671
0.070198387
3.431553
0.081071739
3.6835174
0.084213192
3.9574345
0.080707923
4.2625795
0.082985178
4.5814753
0.084502066
4.92958
0.085702349
5.3072631
0.092066761
5.7089654
0.094514822
6.1462586
0.090715283
6.6255887
0.09133669
7.1373903
0.095283651
7.6869258
0.095163485
8.2891431
0.093362349
8.9395196
0.093596336
9.6397196
0.092862101
10.397281
0.092157624
11.216915
0.091565999
12.102088
0.089285066
13.060464
0.087317401
14.096124
0.085390309
15.214703
0.08367506
16.423871
0.081367833
17.727219
0.078047508
19.138188
0.074682967
20.664658
0.070398921
22.312093
0.066365808
24.09165
0.062444812
26.010091
0.057922153
28.083405
0.052294451
30.327725
0.025550585
1.3185301
0.086290708
1.5226779
0.052720263
1.6779337
0.057347719
1.797559
0.039390238
1.928995
0.050389111
2.0791796
0.056989125
2.2177674
0.062241516
2.3982418
0.062406646
2.5628574
0.058298456
2.7699592
0.06244181
2.9655818
0.075832648
3.1842324
0.088742977
3.4185509
0.091507456
3.681446
0.086696034
3.9624547
0.090272233
4.2580566
0.095435249
4.575968
0.098180677
4.9264324
0.10452601
5.3004482
0.10775107
5.7060128
0.10378791
6.1503777
0.10562732
6.6234303
0.11232092
7.1305006
0.11250192
7.6870596
0.10956474
8.2923197
0.1101756
8.9386595
0.11010864
9.639849
0.10884069
10.398684
0.10870404
11.217274
0.10719346
12.10378
0.10469346
13.063024
0.10290779
14.097998
0.10068469
15.216873
0.098710176
16.425883
0.095554498
17.730458
0.091518727
19.14228
0.087578605
20.668854
0.082688429
22.317011
0.07806864
24.095967
0.07344619
26.014501
0.067829935
28.088887
0.065354543
1.2532907
-0.035958579
1.6223459
0.025548992
1.6182812
0.018655658
1.8040372
0.043568471
1.9037544
0.05400629
2.0690271
0.058021335
2.2143754
0.06216668
2.3947253
0.062875969
2.562026
0.069859415
2.7618042
0.081406217
2.9534848
0.089733224
3.1760806
0.092065532
3.4167609
0.092100514
3.6813045
0.09841069
3.9549874
0.10671073
4.2493302
0.11090013
4.571688
0.11556499
4.9213867
0.11931794
5.2966584
0.1174653
5.7080773
0.12110203
6.1464469
0.13096094
6.613706
0.13039762
7.1310521
0.12527963
7.6923869
0.12616765
8.2912447
0.12728814
8.9375553
0.12625607
9.6409063
0.12564994
10.399362
0.12513136
11.218102
0.12279047
12.106332
0.12076384
13.065063
0.11874615
14.100152
0.11612162
15.219433
0.11361166
16.428353
0.10972292
17.73441
0.10514214
19.146877
0.1005498
20.673673
0.095083166
22.322498
0.089876211
24.100909
0.084508876
26.01963
-0.098101005
1.3504877
0.021273578
1.5027896
-0.017781581
1.6571937
0.01270653
1.7732544
0.018562864
1.8984305
0.026688244
2.0611832
0.042511037
2.1983755
0.056570039
2.3801433
0.067642107
2.550735
0.080229171
2.7495904
0.089944264
2.9443445
0.091003257
3.1755278
0.096381444
3.4105038
0.10451784
3.6719941
0.11474101
3.9446237
0.12121915
4.2429321
0.12463693
4.5680993
0.1293581
4.9165509
0.13070119
5.2952933
0.13432273
5.7041008
0.14375735
6.1368753
0.14569474
6.6118687
0.1418005
7.1351816
0.14269494
7.6911078
0.14531858
8.2887792
0.14527749
8.9376273
0.14434508
9.6417396
0.14436275
10.39943
0.14266961
11.220142
0.1405098
12.108714
0.13861662
13.066971
0.13585655
14.103027
0.13284846
15.22235
0.12964844
16.431486
0.12518351
17.738893
0.12010204
19.15195
0.11479085
20.679182
0.10868072
22.328612
0.10266518
24.106696
0.11540669
1.2349646
0.031172345
1.5876005
0.072324464
1.6145591
0.060579691
1.7845602
0.059650898
1.8991814
0.070221922
2.0501805
0.073298406
2.1951817
0.081048817
2.3724486
0.088727336
2.5435169
0.09548799
2.7436894
0.097871349
2.94204
0.10069588
3.1715647
0.10896043
3.4014205
0.12125258
3.6597607
0.13073158
3.9355192
0.13508223
4.2384474
0.1398339
4.563046
0.14422636
4.912288
0.14930469
5.2899851
0.16052557
5.6927744
0.16428168
6.1334888
0.15850498
6.617338
0.15942935
7.1335087
0.16327248
7.6875348
0.16482965
8.2874714
0.16386663
8.9384846
0.16415173
9.6413047
0.16342765
10.400262
0.16111393
11.222817
0.15958398
12.110482
0.15707603
13.06948
0.15385914
14.10629
0.15045084
15.225667
0.14640915
16.435464
0.14141061
17.743855
0.13567033
19.157688
0.12969679
20.685341
0.12305337
22.335258
-0.078287147
1.3135121
0.011280035
1.4979455
-0.0046847087
1.6304034
0.018511894
1.761558
0.037181012
1.8801971
0.045618365
2.0417705
0.05452932
2.1867683
0.065740372
2.3618862
0.079328368
2.5303174
0.093102689
2.7295192
0.10285886
2.9314485
0.11508836
3.1590493
0.12744462
3.3895274
0.13560868
3.6520799
0.14106606
3.9298499
0.14697019
4.2319902
0.15399839
4.5561553
0.16092526
4.905544
0.17013414
5.2806891
0.17562159
5.687719
0.17434155
6.1345924
0.17481273
6.61584
0.17840443
7.1297767
0.18177337
7.684703
0.18224189
8.2870747
0.18223381
8.9383217
0.182438
9.6410244
0.18068577
10.402085
0.17908043
11.224793
0.17744666
12.11241
0.17428748
13.072595
0.17086924
14.109671
0.16677744
15.2297
0.16222781
16.439967
0.1566843
17.749303
0.15024181
19.164122
0.14379343
20.691959
0.093460677
1.2199112
0.04065062
1.5507725
0.060994424
1.6106063
0.061229536
1.7618779
0.063474831
1.8783947
0.071027887
2.0347173
0.080721936
2.177471
0.092948636
2.3498807
0.10281154
2.5202687
0.11056454
2.7213612
0.11785133
2.9242325
0.12479553
3.1527441
0.13053331
3.3841769
0.14137367
3.6408211
0.15123078
3.9194605
0.1609072
4.2224567
0.17050996
4.5469672
0.1795901
4.8965961
0.18759983
5.2730195
0.19015862
5.6849701
0.19128939
6.132387
0.19508211
6.6116862
0.19892866
7.1261271
0.20117639
7.6827123
0.20166839
8.286511
0.20212716
8.9378113
0.20138958
9.6416839
0.19963287
10.403839
0.19835675
11.22652
0.19587559
12.115224
0.19250579
13.075879
0.18866932
14.113429
0.18392257
15.234419
0.17886285
16.445011
0.17258496
17.755442
0.16554259
19.171135
-0.054454768
1.2744161
0.011689158
1.4847506
0.012887566
1.6095613
0.031272592
1.7438255
0.040681549
1.8693752
0.053185537
2.0225453
0.065996625
2.1648377
0.078204649
2.337646
0.090198747
2.5083288
0.10457595
2.7073581
0.12116922
2.9081607
0.14369931
3.1305463
0.15993351
3.3675741
0.16684371
3.6334493
0.17441613
3.9120064
0.18384636
4.2134527
0.19302274
4.5380051
0.20119477
4.8885618
0.20610613
5.2680107
0.20807724
5.6820685
0.21203095
6.1277985
0.21686133
6.6068374
0.22104772
7.1220738
0.22315945
7.6805285
0.22414241
8.2854706
0.22430918
8.9376818
0.22298177
9.642896
0.22144875
10.405318
0.21969595
11.228783
0.21681968
12.118468
0.21320816
13.079419
0.20865036
14.1179
0.20349121
15.23956
0.19787352
16.450659
0.19079527
17.762363
19.17871
0.075362551
1.1992376
0.040514759
1.5199204
0.06167622
1.5885528
0.070035882
1.7356338
0.08523277
1.8544056
0.099600055
2.0083825
0.10886876
2.1557783
0.11887576
2.3277157
0.12680668
2.5005376
0.13785715
2.696507
0.14926836
2.8968095
0.1547633
3.1248548
0.15856885
3.3636482
0.17146278
3.6208677
0.18636362
3.8975276
0.19967835
4.2002506
0.21088113
4.5267726
0.22064516
4.878727
0.22748456
5.260549
0.2330148
5.6758523
0.23783062
6.1228876
0.24253593
6.6020596
0.24559176
7.1190812
0.24688053
7.6791272
0.24786898
8.2844168
0.24757154
8.9379949
0.2465558
9.6438315
0.24489819
10.406932
0.24279503
11.231369
0.23972107
12.121959
0.23525315
13.083883
0.23007776
14.122986
0.22457788
15.245037
0.21807044
16.457238
0.21029177
17.76998
-0.036622899
1.2359029
0.015382098
1.4680599
0.013355931
1.5907199
0.030369262
1.7187298
0.042056341
1.8429216
0.058193333
1.9923366
0.075972005
2.138074
0.093829618
2.3098576
0.11259722
2.4817249
0.13419457
2.6747458
0.15443933
2.8764103
0.17857971
3.1006457
0.2010508
3.3414166
0.21205607
3.6102062
0.22034802
3.8893199
0.22849749
4.1920426
0.23762767
4.5176184
0.24513188
4.8710145
0.24978181
5.2554515
0.25447794
5.6709599
0.26082477
6.1165598
0.2665207
6.5962683
0.27014853
7.1156604
0.27198958
7.6771744
0.27258765
8.2836114
0.2722191
8.9383226
0.27075999
9.6452995
0.26834704
10.409311
0.26600099
11.234113
0.26222372
12.126196
0.25707719
13.089079
0.25179443
14.128183
0.24564344
15.251165
0.2383132
16.464648
0.058170983
1.1776225
0.05158851
1.4745573
0.081458361
1.5607119
0.095826756
1.7044403
0.11376425
1.8249851
0.1300862
1.9760304
0.14245551
2.1256486
0.15830311
2.2940107
0.17158042
2.468434
0.18381243
2.662486
0.19322565
2.8670464
0.1970263
3.0970337
0.20357111
3.3351177
0.22264073
3.5911576
0.23976405
3.8720233
0.25344433
4.1782828
0.26447055
4.5065189
0.27265872
4.8625297
0.27872509
5.2491322
0.28545514
5.664115
0.29087773
6.1111285
0.29428858
6.5930059
0.29683405
7.1134074
0.29811985
7.675733
0.29848675
8.2829097
0.29769311
8.9390285
0.29625033
9.6467889
0.29432522
10.411217
0.29175155
11.237019
0.28735999
12.131017
0.28183953
13.094662
0.27581491
14.134145
0.26880286
15.258133
-0.013305251
1.1907814
0.020974233
1.4401062
0.019902721
1.5615725
0.040579501
1.6838079
0.053883517
1.8115411
0.075698553
1.9542281
0.10000304
2.1012689
0.12434851
2.2696636
0.14903876
2.4437699
0.17252572
2.6391306
0.19588929
2.8437921
0.22527298
3.0677803
0.2509766
3.3095829
0.2601051
3.5820606
0.26604952
3.8661239
0.27668858
4.1678096
0.28826445
4.4949979
0.29766145
4.8529815
0.3074319
5.2392655
0.31532462
5.6561173
0.32066581
6.1059277
0.32524678
6.5886675
0.32787294
7.110922
0.3289265
7.6744636
0.32901497
8.2824925
0.32813832
8.939781
0.32625254
9.6486834
0.32373196
10.413797
0.32004425
11.241009
0.31516895
12.136225
0.3097064
13.10019
0.30309179
0.071342161
1.1194751
0.089286591
1.4220144
0.13320209
1.5177116
0.15378188
1.6631802
0.18240579
1.7828485
0.20296883
1.9335691
0.21883842
2.0853117
0.23507205
2.2533228
0.24884648
2.429942
0.26231093
2.6256986
0.27190408
2.8342778
0.27589939
3.0638567
0.27871017
3.3067096
0.29687746
3.563808
0.31753196
3.845458
0.32938045
4.1561461
0.33638454
4.4882179
0.34295068
4.8465965
0.34706783
5.2352962
0.35132514
5.6520664
0.3587002
6.0989377
0.36326297
6.5843681
0.36546602
7.1086327
0.36607976
7.673489
0.36488563
8.2833088
0.3631472
8.9413446
0.36131512
9.6504529
0.3581729
10.417056
0.35373062
11.245723
0.34868192
12.141479
0.0038076112
1.1158353
0.02438906
1.4014104
0.026051049
1.5161577
0.06318447
1.6259475
0.085494552
1.7605165
0.11911114
1.8998616
0.15467876
2.0496838
0.18781329
2.2201311
0.21762901
2.4001506
0.24512882
2.598346
0.2723657
2.80713
0.30107162
3.0351578
0.32688378
3.2807282
0.33678445
3.5536728
0.34347321
3.838731
0.35853081
4.1411435
0.3727672
4.4742096
0.38302114
4.8366157
0.39337413
5.2250674
0.40093712
5.6447073
0.40248524
6.0977816
0.40361388
6.5835522
0.40565114
7.1064688
0.40644022
7.67229
0.40635611
8.2829271
0.40497351
8.9425243
0.40188544
9.6534533
0.39786058
10.421236
0.39288468
11.250984
0.13456245
0.98131472
0.20765165
1.3284217
0.28196453
1.4418757
0.29027984
1.6175024
0.32085418
1.7299065
0.33453112
1.8860843
0.34242475
2.0417483
0.35077037
2.211827
0.35944332
2.3914973
0.36929572
2.5884395
0.3766256
2.7996457
0.37981031
3.031692
0.38505946
3.2752829
0.40049579
3.5379257
0.41503765
3.8239872
0.41778808
4.1384669
0.42154774
4.4706736
0.43121452
4.8272822
0.44032497
5.2163443
0.44818998
5.6371069
0.45643932
6.0896022
0.46133382
6.5786954
0.46089305
7.1066894
0.45949462
7.6733596
0.45749444
8.2846355
0.45512053
8.9448021
0.45193239
9.6565387
0.44719921
0.045185086
0.089387196
1.2842484
0.11118784
1.4198316
0.1857508
1.5428596
0.22720718
1.6882727
0.27492215
1.8383321
0.31788337
1.9987843
0.355905
2.1737424
0.38750689
2.3594926
0.41359559
2.561567
0.43816718
2.7743996
0.46494956
3.0046399
0.48580723
3.2545083
0.49484937
3.5289985
0.50711169
3.8112843
0.5235317
4.1213783
0.53142014
4.4621136
0.53222664
4.8264244
0.53229907
5.216807
0.5344725
5.6355412
0.53743706
6.0869982
0.53901071
6.5770317
0.54111469
7.1040252
0.54035217
7.673699
0.53754375
8.287329
0.53392808
8.9484302
-1.0917925
-0.011744259
-1.0766379
0.0031779152
-0.059084085
-1.3230145
-0.020114239
-1.3204146
0.00076231132
-1.314171
-0.065042847
-1.3097203
-0.026306774
-1.2969187
-0.025771027
-0.078489748
-1.4677288
-0.02505846
-1.4609532
-0.0060398342
-1.4562547
-0.069636611
-1.4463735
-0.03636891
-1.4300522
-0.042301319
-0.088749408
-1.5953606
-0.029749623
-1.5915343
-0.0098872235
-1.5879452
-0.073260381
-1.577429
-0.047131628
-1.56325
-0.056685562
-0.10915526
-1.7273245
-0.034574897
-1.7226335
-0.014536389
-1.7203749
-0.075512253
-1.7094903
-0.058221892
-1.6974641
-0.068829181
-0.11837734
-1.8725904
-0.039291153
-1.8649505
-0.022153363
-1.8662934
-0.074151574
-1.8541827
-0.070508773
-1.8444606
-0.078687758
-0.12456308
-2.0309604
-0.042901739
-2.0187975
-0.034316497
-2.020651
-0.072294918
-2.0097623
-0.081560614
-2.0013157
-0.087334538
-0.12726546
-2.1953355
-2.1875422
-0.042105317
-2.1882061
-0.071590004
-2.1802576
-0.089613576
-2.1733022
-0.094607399
-0.12717459
-2.3671228
-0.047213622
-2.3666208
-0.071846572
-2.3634054
-0.092850804
-2.3578296
-0.100577
-0.12592851
-2.5609618
-0.051625959
-2.5600399
-0.072251098
-2.5619322
-0.090974725
-2.5591371
-0.10384325
-0.12369376
-2.7699018
-0.054304377
-2.7689504
-0.072646991
-2.7726562
-0.087358163
-2.7734773
-0.10344614
-0.12281844
-2.9976323
-0.059067925
-2.9973602
-0.072729912
-3.0002682
-0.084417831
-3.007061
-0.096761019
-0.12545922
-3.2439418
-0.065273475
-3.2436102
-0.073118168
-3.2444075
-0.083541906
-3.2536101
-0.087426832
-0.12481404
-3.5114389
-0.066307316
-3.5125176
-0.07225625
-3.5118018
-0.084576275
-3.5168176
-0.082456965
-0.11228805
-3.7985484
-3.8008862
-0.069711812
-3.8004681
-0.085054356
-3.8031321
-0.080075874
-0.1037523
-4.1092369
-0.067471202
-4.1137423
-0.080647956
-4.1135931
-0.080076167
-0.0961831
-4.4448095
-0.064668898
-4.4494712
-0.07507249
-4.4501542
-0.079023543
-0.08473589
-4.8068407
-4.812595
-0.06875162
-4.8143332
-0.077608811
-0.073224256
-5.2006672
-0.064152956
-5.2087024
-0.069621455
-0.065260421
-5.6208843