/*--------------------------------*- C++ -*----------------------------------*\
| =========                 |                                                 |
| \\      /  F ield         | OpenFOAM: The Open Source CFD Toolbox           |
|  \\    /   O peration     | Version:  2506                                  |
|   \\  /    A nd           | Website:  www.openfoam.com                      |
|    \\/     M anipulation  |                                                 |
\*---------------------------------------------------------------------------*/
FoamFile
{
    version     2.0;
    format      ascii;
    arch        "LSB;label=32;scalar=64";
    class       volScalarField;
    location    "0.95";
    object      omega;
}
// * * * * * * * * * * * * * * * * * * * * * * * * * * * * * * * * * * * * * //

dimensions      [0 0 -1 0 0 0 0];

internalField   nonuniform List<scalar> 
1376
(
35.510924
35.47648
35.447773
35.425349
35.409499
35.399689
35.397015
35.401972
35.417822
35.44705
35.492956
35.559315
35.651644
35.77716
35.945843
36.171798
36.474196
36.883314
37.445202
38.257148
39.514506
42.060911
35.531919
35.509837
35.494983
35.485366
35.483029
35.4886
35.505149
35.534975
35.581507
35.64878
35.742206
35.868934
36.039119
36.266815
36.571394
36.983476
37.549115
38.366115
39.631293
42.20021
35.591106
35.577192
35.567776
35.565874
35.572149
35.589488
35.620047
35.667341
35.735679
35.83037
35.958517
36.130426
36.360117
36.667133
37.082459
37.652168
38.474455
39.747142
42.307871
35.65723
35.648266
35.647041
35.65423
35.672587
35.70415
35.752517
35.822216
35.9185
36.048446
36.222505
36.454671
36.764637
37.183801
37.758327
38.586854
39.868494
42.434392
35.727033
35.735315
35.754867
35.787649
35.837368
35.908667
36.00681
36.13887
36.315439
36.550482
36.863823
37.287312
37.867248
38.702746
39.994246
42.562853
35.815832
35.836755
35.870975
35.922327
35.995468
36.095743
36.230234
36.409679
36.648019
36.965179
37.393496
37.979465
38.822718
40.12511
42.699296
35.918585
35.95447
36.007719
36.082942
36.185616
36.322851
36.505531
36.74759
37.069013
37.502655
38.095282
38.947083
40.261397
42.842646
36.038407
36.0938
36.171354
36.276696
36.41699
36.603264
36.849469
37.175622
37.615096
38.215014
39.076203
40.403534
42.994133
36.122754
36.180541
36.260696
36.368992
36.512684
36.702925
36.95372
37.285117
37.73097
38.338854
39.210308
40.551854
43.153599
36.268153
36.35119
36.462728
36.610165
36.804741
37.06057
37.397743
37.850529
38.467064
39.349652
40.706511
43.319686
36.443298
36.558369
36.709899
36.909173
37.17048
37.513969
37.974258
38.600153
39.494781
40.868205
43.495382
36.656094
36.812077
37.01642
37.283653
37.634002
38.102399
38.73839
39.645995
41.037246
43.679966
36.916697
37.126511
37.400144
37.757943
38.235108
38.881993
39.803583
41.214102
43.873918
37.239701
37.520192
37.886043
38.372668
39.031275
39.967882
41.39913
44.0774
37.644292
38.018816
38.515603
39.186801
40.139502
41.593017
44.291538
38.156477
38.664171
39.348878
40.318805
41.796182
44.516609
38.81864
39.517836
40.506215
42.009145
44.753621
39.694139
40.702269
42.232516
45.003713
40.907619
42.467052
45.268785
42.7134
45.549971
1098.3855
1011.6126
930.92252
858.18353
795.10712
740.62823
691.05914
644.1101
600.50156
561.69018
527.14337
495.31701
465.3178
437.17742
411.08511
386.99971
364.6075
343.46195
323.39628
304.62333
287.30694
271.22209
255.96407
908.4712
865.4748
827.21471
787.8279
741.91721
691.99529
648.61908
614.83784
585.68517
555.87421
524.23208
493.1926
464.48964
437.81782
412.66307
388.97144
366.65059
345.11144
324.11125
304.45042
286.78055
270.67694
255.33491
455.93288
455.55523
455.22219
452.432
441.50718
422.05783
406.48094
399.93125
395.68613
388.32849
375.78283
361.23521
347.82696
335.3542
323.29085
311.46856
299.77932
287.52367
274.11394
260.64965
248.39111
237.10844
226.03034
230.215
231.09741
232.53213
232.71625
230.95221
226.64657
224.88284
225.31841
225.63912
224.60489
221.10196
216.82143
213.42518
210.39961
207.54643
204.90951
202.31745
199.14623
194.64098
189.15851
183.66107
178.35502
172.98917
150.48975
149.9523
149.28565
149.00223
148.48955
148.15307
148.38748
148.77782
148.58799
147.2134
144.46653
142.22579
140.98155
139.97106
139.16638
138.64872
138.24206
137.6175
136.28788
134.10151
131.44176
128.71571
126.11457
113.58125
112.31246
111.1872
111.08114
111.20203
111.77217
112.51751
112.56993
112.04663
110.31815
107.88255
106.29514
105.50564
104.87268
104.48
104.33025
104.24081
104.04973
103.44584
102.15327
100.26715
98.214965
96.384095
90.269396
89.046514
88.593132
88.70954
89.193035
90.134281
90.741297
90.688727
90.091598
88.606853
86.861141
85.835118
85.292479
84.818456
84.5363
84.472087
84.445114
84.358133
83.988386
83.065126
81.566867
79.839159
78.274987
74.027107
73.36963
73.343082
73.548672
74.115027
74.914725
75.25856
75.185588
74.72486
73.768679
72.819601
72.321333
72.013198
71.666175
71.39382
71.309438
71.284503
71.225734
70.974007
70.315205
69.187128
67.802993
66.44911
63.771301
63.013204
62.680061
62.693778
62.859063
63.224662
63.657638
63.802702
63.751751
63.503565
63.087038
62.776975
62.63754
62.494782
62.230077
61.911766
61.730236
61.66939
61.609526
61.433678
61.000722
60.242443
59.237367
58.127595
56.295629
55.722637
55.304155
55.207634
55.239947
55.329548
55.45388
55.528826
55.530356
55.52345
55.535193
55.571184
55.568539
55.48233
55.197322
54.765256
54.440128
54.31091
54.240258
54.119819
53.868952
53.428336
52.778628
51.935581
51.10893
50.558629
50.146471
49.912654
49.780323
49.713051
49.71683
49.756257
49.863725
50.081991
50.398408
50.579052
50.568981
50.409775
49.966459
49.3449
48.863589
48.650221
48.560742
48.475701
48.346258
48.124931
47.746548
47.148597
47.027428
46.578059
46.258549
46.057392
45.882824
45.748459
45.740575
45.795526
45.994712
46.410399
46.909952
47.076026
47.026377
46.735077
46.081801
45.275201
44.678082
44.390122
44.267315
44.190142
44.115749
44.003791
43.785275
43.846314
43.57765
43.374315
43.209541
43.034671
42.916389
42.916309
42.98362
43.213705
43.679286
44.168735
44.272225
44.188272
43.809519
43.060765
42.209012
41.596786
41.276071
41.112781
41.011566
40.93642
40.84966
40.692797
41.466396
41.336126
41.219859
41.094045
40.939711
40.818973
40.808636
40.848675
41.005605
41.332091
41.636068
41.667452
41.569655
41.20593
40.555835
39.850586
39.335539
39.032475
38.84294
38.702995
38.592352
38.483427
38.330334
39.973081
39.859349
39.760256
39.650763
39.522466
39.388442
39.261842
39.191835
39.190239
39.223744
39.321458
39.381523
39.362932
39.248241
38.958108
38.51113
38.042417
37.671539
37.409767
37.209749
37.038518
36.887794
36.742298
36.571359
38.792691
38.69289
38.584078
38.463103
38.339153
38.217939
38.097553
37.984775
37.892203
37.825817
37.7738
37.712238
37.619336
37.473561
37.258589
36.988744
36.706423
36.447664
36.222122
36.019011
35.828736
35.650022
35.475017
35.286044
37.899443
37.810055
37.706252
37.589829
37.463091
37.331616
37.197509
37.064709
36.940937
36.8243
36.706603
36.582173
36.448148
36.301025
36.13495
35.949564
35.750199
35.544509
35.339595
35.137104
34.937657
34.743307
34.550449
34.349614
37.177048
37.091045
37.001952
36.898937
36.781732
36.650931
36.511876
36.376176
36.246562
36.115537
35.977744
35.83548
35.692862
35.549085
35.397648
35.233604
35.055978
34.867724
34.673396
34.474666
34.273138
34.071646
33.869462
33.661805
36.68425
36.604116
36.523865
36.44104
36.345397
36.232375
36.107494
35.979216
35.853621
35.727444
35.592763
35.450347
35.307305
35.166661
35.024057
34.872241
34.708303
34.533831
34.352141
34.165252
33.972258
33.773275
33.570537
33.364681
33.153499
36.249658
36.173415
36.095279
36.008855
35.909383
35.799602
35.685146
35.57028
35.454288
35.330009
35.195434
35.055782
34.917271
34.778961
34.634487
34.478327
34.311387
34.137896
33.960749
33.779604
33.592151
33.397609
33.197156
32.99139
32.779347
35.942411
35.862583
35.776692
35.682037
35.581574
35.477725
35.372153
35.263949
35.149395
35.026309
34.895984
34.762366
34.627491
34.488716
34.341234
34.183162
34.017305
33.847114
33.67361
33.495565
33.311088
33.119718
32.92195
32.717964
32.50718
35.807946
35.724993
35.640537
35.550478
35.454355
35.356071
35.25559
35.150956
35.041289
34.925176
34.803283
34.676918
34.546847
34.413038
34.272933
34.12434
33.967686
33.805497
33.639018
33.467922
33.291106
33.107758
32.917996
32.722138
32.520197
32.311595
35.646468
35.563345
35.477528
35.387512
35.293225
35.195817
35.095334
34.98918
34.877418
34.761452
34.641629
34.517927
34.389706
34.256195
34.115886
33.968365
33.814496
33.655273
33.490864
33.320897
33.144895
32.962672
32.774532
32.580301
32.379888
32.172775
35.528355
35.446745
35.360228
35.271358
35.178624
35.081284
34.97924
34.870729
34.757368
34.641118
34.521819
34.399266
34.272269
34.139379
34.000363
33.855147
33.703826
33.546416
33.383212
33.214217
33.039387
32.858618
32.672224
32.479632
32.280638
32.074704
35.515951
35.437923
35.355113
35.268712
35.180864
35.089134
34.992484
34.890361
34.782342
34.670055
34.554549
34.435739
34.31269
34.184834
34.051758
33.913911
33.770629
33.621199
33.465434
33.303583
33.135823
32.962397
32.783093
32.597949
32.406673
32.208905
32.004097
35.447304
35.367607
35.284722
35.199246
35.111159
35.018636
34.921587
34.819952
34.713967
34.603833
34.489619
34.37079
34.247314
34.119266
33.986684
33.849221
33.706383
33.557901
33.403516
33.243255
33.077185
32.905144
32.7271
32.542866
32.352688
32.156083
35.470941
35.39379
35.314079
35.231364
35.145583
35.056485
34.963408
34.866205
34.765079
34.659977
34.55048
34.436578
34.318274
34.195451
34.068215
33.936298
33.799228
33.656921
33.509321
33.356358
33.197712
33.033054
32.862093
32.684989
32.501824
32.312651
32.11713
35.429569
35.352618
35.272467
35.188858
35.101969
35.011948
34.918546
34.821559
34.720984
34.616625
34.50773
34.394087
34.275965
34.153474
34.026666
33.895376
33.758984
33.617134
33.470037
33.317865
33.1603
32.996977
32.827558
32.651987
32.470293
32.282284
32.088001
35.394562
35.317182
35.236857
35.153526
35.067149
34.977424
34.884094
34.786846
34.685887
34.581191
34.472515
34.359646
34.242449
34.120815
33.99434
33.862848
33.72645
33.585052
33.438676
33.287208
33.130374
32.9679
32.799684
32.625515
32.445249
32.258707
32.065889
35.365595
35.287994
35.20767
35.12441
35.03794
34.948011
34.854357
34.756889
34.655742
34.550897
34.442146
34.329437
34.212622
34.091444
33.965734
33.835208
33.699622
33.558916
33.413071
33.262227
33.106243
32.944903
32.777952
32.605136
32.426335
32.241353
32.050113
35.343245
35.265474
35.184888
35.101286
35.014427
34.924108
34.83012
34.732453
34.631199
34.526409
34.417978
34.305726
34.189329
34.068601
33.943364
33.813452
33.678624
33.538852
33.394023
33.244031
33.088803
32.928246
32.762256
32.590718
32.413353
32.229844
32.04008
35.32674
35.248294
35.167134
35.083061
34.995794
34.905115
34.810907
34.713169
34.611963
34.507297
34.399007
34.286882
34.170749
34.050268
33.925268
33.795744
33.661575
33.522713
33.379046
33.230334
33.076425
32.917163
32.752408
32.581991
32.405743
32.223602
35.316845
35.237985
35.156301
35.071644
34.9838
34.892632
34.798116
34.700276
34.599167
34.49473
34.38674
34.274912
34.158996
34.038741
33.914064
33.784921
33.651385
33.513229
33.370301
33.222414
33.0694
32.911174
32.747546
32.578285
32.403287
32.222581
35.313908
35.234487
35.152253
35.067078
34.978833
34.88742
34.792799
34.694951
34.593833
34.489337
34.381251
34.269337
34.153418
34.033371
33.909077
33.780468
33.647502
33.509981
33.3678
33.220803
33.068765
32.911552
32.749015
32.581038
32.407497
32.228325
35.318417
35.238308
35.155445
35.069743
34.981132
34.889525
34.794841
34.696964
34.595761
34.491091
34.382798
34.270787
34.154973
34.035243
33.911479
33.783499
33.651108
33.514163
33.372544
33.226201
33.075037
32.918882
32.757584
32.591042
32.419137
35.333829
35.2531
35.16975
35.083688
34.994807
34.902976
34.808065
34.709917
34.608391
34.503379
34.394807
34.282634
34.16681
34.047238
33.923782
33.796236
33.664379
33.528017
33.387025
33.241374
33.091066
32.936031
32.776106
32.611101
32.440784
35.362655
35.281255
35.19729
35.110639
35.021173
34.928765
34.833299
34.734684
34.632836
34.527683
34.419132
34.307082
34.19142
34.071984
33.948631
33.821202
33.689527
33.553492
33.413048
33.268169
33.118838
32.964957
32.806291
32.642673
32.473895
35.408061
35.325801
35.240979
35.153485
35.063217
34.970074
34.873965
34.774804
34.672522
34.56704
34.458269
34.346084
34.230339
34.110882
33.987564
33.86028
33.728967
33.593533
33.453908
33.310007
33.161694
33.00885
32.851327
32.688959
35.47366
35.390303
35.304445
35.215988
35.124848
35.030941
34.934182
34.834471
34.7317
34.625753
34.516512
34.403887
34.287773
34.168102
34.044779
33.917734
33.78687
33.652085
33.513255
33.370237
33.22289
33.071047
32.914594
32.753426
35.565046
35.480392
35.393309
35.303704
35.211495
35.116599
35.018931
34.918396
34.814894
34.708326
34.598586
34.485581
34.369222
34.249418
34.126095
33.999157
33.868498
33.734029
33.595621
33.45313
33.306453
33.155506
33.000217
35.689513
35.603422
35.514976
35.424072
35.330624
35.234544
35.13575
35.034162
34.929697
34.822271
34.711804
34.598206
34.481393
34.361272
34.23775
34.110738
33.980135
33.845834
33.707735
33.565773
33.419864
33.269934
35.85685
35.768968
35.678796
35.586245
35.491238
35.393703
35.293557
35.190715
35.085097
34.976614
34.865184
34.750725
34.633154
34.512396
34.388367
34.260981
34.130156
33.995813
33.857888
33.716341
33.571117
33.422126
36.081223
35.99128
35.899128
35.804665
35.707796
35.60845
35.506559
35.402049
35.29485
35.184886
35.072091
34.956393
34.837714
34.715991
34.591156
34.463153
34.331939
34.197462
34.059685
33.918537
33.773922
36.381559
36.288953
36.194165
36.097118
35.997743
35.895957
35.7917
35.684925
35.575579
35.46361
35.348949
35.231562
35.111383
34.98837
34.86249
34.733712
34.601994
34.467263
34.329434
34.188389
36.787856
36.691799
36.593633
36.493291
36.390717
36.28585
36.178643
36.069054
35.957038
35.842563
35.725586
35.606084
35.484023
35.359378
35.232113
35.102163
34.969453
34.833886
34.69535
37.346165
37.245746
37.143275
37.038712
36.932031
36.823204
36.7122
36.598995
36.483576
36.365922
36.245988
36.123754
35.999171
35.872161
35.742655
35.610556
35.47575
38.153365
38.04729
37.939235
37.82921
37.717199
37.603183
37.487173
37.369142
37.249065
37.126899
37.002593
36.876057
36.747198
36.61592
36.482125
36.345724
39.403824
39.289585
39.173405
39.055349
38.935419
38.813585
38.689824
38.564062
38.436215
38.306231
38.174104
38.039805
37.903288
37.764488
41.956465
41.842053
41.724548
41.604944
41.483443
41.360065
41.2348
41.107658
40.978661
40.847835
40.715251
40.580951
)
;

boundaryField
{
    Side
    {
        type            empty;
    }
    Inlet
    {
        type            fixedValue;
        value           uniform 60.24606;
    }
    Airfoil
    {
        type            omegaWallFunction;
        blending        binomial;
        n               2;
        value           nonuniform List<scalar> 0();
    }
    Outlet
    {
        type            inletOutlet;
        inletValue      nonuniform List<scalar> 0();
        value           nonuniform List<scalar> 0();
    }
    procBoundary9to2
    {
        type            processor;
        value           nonuniform List<scalar> 
23
(
255.57299
270.87224
287.20427
304.79928
323.7607
343.96051
365.2436
387.69614
411.6156
437.36503
465.33584
495.94044
529.20143
564.37249
601.02877
640.68998
686.40207
739.52337
797.71927
858.70104
924.84932
1001.9123
1095.0464
)
;
    }
    procBoundary9to8
    {
        type            processor;
        value           nonuniform List<scalar> 
75
(
35.552878
35.552878
35.593
35.559777
35.559777
35.61277
35.61277
35.670205
35.670205
35.73565
35.727379
35.727379
35.806291
35.806291
35.896113
35.896113
36.000618
36.000618
36.0828
36.207726
36.207726
36.357093
36.357093
36.537176
36.537176
36.75587
36.75587
37.02399
37.02399
37.356476
37.356476
37.772648
37.772648
38.299228
38.299228
38.979442
38.979442
39.878368
39.878368
41.122798
41.122798
42.972277
45.848266
1195.6225
963.10152
462.59607
229.97689
150.62412
114.34324
91.381621
75.091517
75.091517
64.822721
57.026292
51.680677
47.479357
44.126758
41.621349
41.621349
40.094069
38.888484
37.977128
37.256824
37.256824
36.760742
36.328577
36.023379
36.023379
35.887372
35.723801
35.604053
35.604053
35.590402
35.52428
35.52428
)
;
    }
    procBoundary9to10
    {
        type            processor;
        value           nonuniform List<scalar> 
66
(
241.34264
240.42546
214.87165
167.46952
123.71472
94.957727
77.142905
65.444577
57.211077
51.111107
46.441712
43.37031
43.37031
40.388714
38.079263
36.341771
35.064028
34.129398
33.4412
32.932264
32.558493
32.28818
32.09516
31.958008
31.861057
31.791701
31.952615
31.952615
31.915017
31.887269
31.866674
31.852491
31.844035
32.035355
32.035355
32.035983
32.043435
32.241727
32.241727
32.264986
32.299758
32.521594
32.521594
32.587519
32.840509
32.840509
33.11591
33.11591
33.269258
33.625715
33.625715
34.044018
34.044018
34.553738
35.33813
34.553738
35.197564
35.33813
36.206658
37.623356
36.206658
37.479803
40.444932
37.623356
40.307076
40.444932
)
;
    }
}


// ************************************************************************* //
