/*--------------------------------*- C++ -*----------------------------------*\
| =========                 |                                                 |
| \\      /  F ield         | OpenFOAM: The Open Source CFD Toolbox           |
|  \\    /   O peration     | Version:  2506                                  |
|   \\  /    A nd           | Website:  www.openfoam.com                      |
|    \\/     M anipulation  |                                                 |
\*---------------------------------------------------------------------------*/
FoamFile
{
    version     2.0;
    format      ascii;
    arch        "LSB;label=32;scalar=64";
    class       volScalarField;
    location    "4e-05";
    object      Co;
}
// * * * * * * * * * * * * * * * * * * * * * * * * * * * * * * * * * * * * * //

dimensions      [0 0 0 0 0 0 0];

internalField   nonuniform List<scalar> 
13761
(
0.00027043709
0.0002704164
0.0002703961
0.00027037609
0.00027035648
0.00027033731
0.00027031854
0.00027030007
0.00028309591
0.00027028194
0.00028303891
0.00027026416
0.00028298291
0.00027024664
0.00028292794
0.00027022947
0.00028287399
0.0002702126
0.00028282099
0.00027019605
0.00028276905
0.0002701798
0.00028271852
0.00027016399
0.00029528893
0.00028266899
0.00027014853
0.00029520386
0.00028262041
0.0002701333
0.00029512052
0.00028257287
0.00027011843
0.00029503883
0.00028252619
0.00027010379
0.00029495878
0.0002824805
0.00027008951
0.00029488036
0.00028243569
0.00027007546
0.00029480351
0.00028239178
0.00027006171
0.00030714394
0.00029472827
0.00028234879
0.00027004826
0.00030703611
0.00029465456
0.00028230665
0.00027003503
0.0003069314
0.00029458298
0.00028226573
0.00027002221
0.00030682933
0.0002945132
0.00028222584
0.0002700097
0.00030672959
0.00029444498
0.00028218681
0.00026999746
0.00030663213
0.00029437835
0.0002821487
0.00026998553
0.00030653691
0.0002943132
0.00028211141
0.00030644391
0.00029424957
0.000282075
0.00031849715
0.00030635308
0.0002941874
0.00028203943
0.00031837854
0.00030626439
0.00029412672
0.0002820047
0.00031826278
0.00030617783
0.00029406745
0.00028197074
0.00031814984
0.00030609335
0.00029400962
0.00028193764
0.00031803998
0.00030601117
0.00029395335
0.00028190543
0.00031793401
0.00030593189
0.00029389904
0.00028187431
0.00031783092
0.00030585474
0.00029384621
0.00028184404
0.00031773061
0.00030577967
0.00029379477
0.00032948598
0.000317633
0.00030570661
0.00029374472
0.00032936583
0.0003175381
0.00030563556
0.00029369603
0.00032924903
0.00031744584
0.00030556649
0.00029364871
0.00032913556
0.00031735619
0.00030549936
0.00029360269
0.00032902536
0.00031726913
0.00030543416
0.000293558
0.00032891841
0.00031718461
0.00030537087
0.00029351459
0.00032881466
0.00031710262
0.00030530945
0.0002934725
0.00034028749
0.00032871466
0.00031702359
0.00030525025
0.00029343189
0.00034017104
0.0003286192
0.00031694812
0.00030519371
0.00034005858
0.00032852699
0.00031687523
0.00030513909
0.00033995001
0.00032843796
0.00031680484
0.00030508635
0.00033984524
0.00032835206
0.00031673692
0.00030503544
0.00033974425
0.00032826923
0.00031667142
0.00030498635
0.00033964699
0.00032818946
0.00031660834
0.00030493908
0.00035083622
0.00033955343
0.00032811272
0.00031654765
0.00030489358
0.00035072947
0.00033946351
0.00032803896
0.00031648931
0.00030484985
0.00035062702
0.0003393772
0.00032796816
0.00031643331
0.00030480786
0.00035052882
0.00033929446
0.00032790028
0.00031637962
0.0003504354
0.00033921574
0.0003278357
0.00031632853
0.00035034828
0.00033914233
0.00032777547
0.00031628088
0.00035026561
0.00033907266
0.0003277183
0.00031623565
0.00036117509
0.00035018715
0.00033900654
0.00032766405
0.00031619272
0.00036108868
0.00035011282
0.0003389439
0.00032761265
0.00031615205
0.00036100709
0.00035004262
0.00033888474
0.0003275641
0.00031611364
0.0003609302
0.00034997648
0.00033882899
0.00032751835
0.00031607744
0.00036085799
0.00034991436
0.00033877664
0.00032747539
0.00036079046
0.00034985626
0.00033872767
0.00032743521
0.00036072749
0.0003498021
0.00033868203
0.00032739775
0.0003713636
0.00036066911
0.00034975187
0.0003386397
0.00032736302
0.00037130213
0.00036061537
0.00034970565
0.00033860074
0.00032733105
0.00037124859
0.00036056854
0.00034966536
0.00033856679
0.00032730319
0.00037120132
0.00036052721
0.0003496298
0.00033853683
0.0003272786
0.00037115916
0.00036049034
0.00034959809
0.00033851011
0.00032725667
0.00037112199
0.00036045785
0.00034957015
0.00033848656
0.00032723736
0.00037108981
0.00036042971
0.00034954596
0.00033846618
0.00038147078
0.00037106261
0.00036040595
0.00034952553
0.00033844898
0.00038144555
0.00037104028
0.00036038645
0.00034950877
0.00033843487
0.00038142589
0.00037102288
0.00036037126
0.00034949573
0.0003384239
0.00038141163
0.0003710103
0.00036036029
0.00034948633
0.000338416
0.00038140283
0.00037100254
0.00036035355
0.00034948056
0.00033841116
0.00038139944
0.00037099961
0.00036035104
0.00034947844
0.0003384094
0.00039153214
0.0003814024
0.00037100228
0.00036035343
0.00034948053
0.0003384112
0.00039154519
0.00038141418
0.00037101279
0.00036036266
0.00034948852
0.00033841796
0.00039156461
0.00038143167
0.00037102836
0.00036037633
0.00034950032
0.00039159001
0.00038145453
0.00037104869
0.00036039418
0.00034951571
0.00039162134
0.00038148273
0.00037107377
0.00036041616
0.00034953468
0.00039165858
0.00038151621
0.00037110354
0.00036044226
0.00034955719
0.00039170171
0.000381555
0.00037113801
0.00036047249
0.00034958325
0.00040161357
0.00039175071
0.00038159905
0.00037117715
0.00036050679
0.00034961282
0.0004016739
0.00039180549
0.0003816483
0.00037122091
0.00036054515
0.00034964587
0.00040174068
0.00039186612
0.00038170279
0.00037126933
0.00036058756
0.00034968243
0.00040181384
0.00039193253
0.00038176247
0.00037132233
0.00036063401
0.00040189335
0.0003920047
0.00038182733
0.00037137995
0.00036068448
0.00040198129
0.0003920845
0.00038189901
0.0003714436
0.00036074025
0.00041168102
0.00040207931
0.00039217342
0.00038197888
0.00037151452
0.00036080234
0.000411795
0.00040218362
0.00039226803
0.00038206385
0.00037158994
0.00036086839
0.00041191576
0.0004022941
0.00039236825
0.00038215385
0.00037166984
0.00036093835
0.00041204323
0.00040241073
0.00039247403
0.00038224884
0.00037175415
0.00036101217
0.00041217738
0.00040253347
0.00039258535
0.0003823488
0.00037184287
0.00036108985
0.00041231823
0.00040266233
0.00039270222
0.00038245373
0.000371936
0.00042181743
0.00041246577
0.00040279729
0.0003928246
0.00038256362
0.00037203353
0.00042198471
0.00041261998
0.00040293836
0.00039295253
0.00038267846
0.00037213544
0.00042215923
0.00041278085
0.00040308552
0.00039308596
0.00038279825
0.00037224173
0.000422341
0.0004129484
0.00040323876
0.0003932249
0.00038292297
0.00037235241
0.00042253003
0.00041312263
0.0004033981
0.00039336937
0.00038305264
0.00037246746
0.00043182493
0.00042272883
0.00041330583
0.00040356564
0.00039352124
0.00038318895
0.00037258838
0.00043205245
0.0004229399
0.00041350031
0.00040374344
0.00039368239
0.00038333355
0.00037271665
0.00043228782
0.00042315824
0.00041370145
0.00040392733
0.00039384903
0.00038348307
0.00043253089
0.00042338371
0.00041390917
0.00040411722
0.00039402111
0.00038363747
0.00043278155
0.00042361622
0.00041412335
0.00040431299
0.00039419851
0.00038379661
0.00043303996
0.00042385589
0.00041434411
0.00040451477
0.00039438134
0.00038396062
0.00044217443
0.00043330597
0.00042410261
0.00041457135
0.00040472245
0.0003945695
0.00038412941
0.00044246776
0.00043357968
0.00042435644
0.00041480513
0.00040493611
0.00039476307
0.00038430303
0.00044276938
0.00043386113
0.00042461743
0.00041504548
0.00040515576
0.00039496203
0.00038448146
0.00044307925
0.00043415025
0.00042488552
0.00041529235
0.00040538133
0.00039516636
0.00038466472
0.00044339744
0.00043444712
0.00042516077
0.00041554581
0.00040561291
0.00039537611
0.00045235551
0.00044372398
0.00043475175
0.0004254432
0.00041580585
0.00040585049
0.00039559128
0.00045271414
0.00044406041
0.00043506558
0.00042573413
0.00041607368
0.00040609516
0.00039581284
0.00045308904
0.00044441201
0.00043539349
0.00042603804
0.00041635341
0.00040635065
0.00039604416
0.00045347364
0.0004447727
0.00043572984
0.00042634974
0.00041664029
0.00040661264
0.00039628133
0.00045386705
0.00044514161
0.00043607383
0.00042666851
0.00041693363
0.0004068805
0.00039652381
0.00046267522
0.00045426934
0.00044551882
0.00043642553
0.00042699439
0.00041723351
0.00040715433
0.00039677165
0.00046311148
0.00045468049
0.00044590432
0.00043678492
0.00042732736
0.00041753988
0.00040743404
0.00046355722
0.00045510054
0.00044629811
0.00043715204
0.00042766746
0.00041785277
0.00040771968
0.00046401249
0.00045552953
0.00044670027
0.0004375269
0.00042801471
0.00041817223
0.00040801129
0.00047264091
0.00046447737
0.00045596755
0.00044711085
0.00043790959
0.00042836918
0.00041849828
0.00040830889
0.00047314216
0.00046495187
0.0004564146
0.00044752985
0.00043830008
0.00042873084
0.00041883092
0.00040861247
0.00047365366
0.00046543602
0.00045687068
0.00044795729
0.00043869842
0.00042909975
0.00041917019
0.00040892207
0.00047417556
0.00046592997
0.00045733598
0.00044839335
0.00043910474
0.00042947597
0.00041951616
0.00040923775
0.00047470789
0.00046643376
0.0004578105
0.00044883798
0.00043951901
0.00042985956
0.00041986885
0.00040955954
0.00048321433
0.00047525768
0.00046695395
0.00045830037
0.00044929691
0.00043994652
0.00043025531
0.00042023268
0.00048380792
0.00047582169
0.00046748754
0.00045880278
0.00044976752
0.00044038485
0.00043066102
0.00042060559
0.00048441241
0.00047639601
0.00046803082
0.00045931426
0.00045024658
0.000440831
0.00043107393
0.00042098508
0.00048502783
0.00047698065
0.0004685838
0.00045983485
0.00045073413
0.00044128501
0.00043149405
0.00042137116
0.00049338705
0.00048565413
0.00047757561
0.00046914651
0.00046036452
0.00045123012
0.00044174683
0.00043192137
0.0004217638
0.00049405538
0.00048629149
0.00047818099
0.00046971904
0.00046090339
0.00045173468
0.00044221658
0.00043235597
0.00042216309
0.00049473542
0.00048693997
0.00047879689
0.00047030142
0.00046145148
0.00045224782
0.00044269427
0.00043279787
0.00042256904
0.00049542725
0.00048759965
0.00047942336
0.00047089377
0.00046200889
0.00045276964
0.00044317998
0.00043324713
0.00050364856
0.00049613098
0.00048827061
0.00048006049
0.00047149613
0.00046257566
0.00045330015
0.00044367373
0.00043370377
0.00050439652
0.00049684671
0.00048895294
0.00048070836
0.00047210857
0.00046315187
0.00045383944
0.00044417558
0.00043416787
0.00050515715
0.00049757451
0.00048964674
0.00048136706
0.0004727312
0.00046373759
0.00045438757
0.0004446856
0.00043463943
0.00050593065
0.00049831455
0.0004903521
0.00048203666
0.00047336406
0.00046433287
0.00045494458
0.00044520383
0.00043511856
0.00051403024
0.00050671873
0.00049906847
0.00049107063
0.00048271869
0.0004740086
0.00046493906
0.00045551173
0.00044573141
0.00043560624
0.00051487493
0.00050752944
0.00049984384
0.00049180944
0.00048341981
0.00047467102
0.00046556194
0.00045609437
0.0004462733
0.00043610703
0.00051573469
0.0005083545
0.00050063286
0.00049256116
0.00048413309
0.00047534487
0.00046619547
0.00045668688
0.00044682428
0.00051660797
0.00050919244
0.00050143412
0.00049332448
0.00048485729
0.00047602892
0.00046683852
0.00045728824
0.00044738343
0.00052461242
0.00051749464
0.00051004319
0.00050224754
0.00049409929
0.00048559233
0.00047672316
0.00046749107
0.00045789839
0.00044795065
0.00052554795
0.00051839508
0.00051090703
0.00050307341
0.00049488587
0.00048633845
0.00047742777
0.00046815329
0.0004585175
0.00044852615
0.00052649788
0.00051930928
0.00051178403
0.00050391175
0.00049568425
0.00048709568
0.00047814279
0.00046882521
0.00045914561
0.00044910993
0.00052746238
0.00052023744
0.00051267431
0.00050476273
0.00049649458
0.00048786414
0.00047886833
0.00046950692
0.00045978278
0.00044970204
0.00053537585
0.00052844159
0.00052117967
0.000513578
0.00050562642
0.00049731692
0.00048864391
0.00047960445
0.00047019849
0.00046042908
0.00045030256
0.00053640601
0.00052943574
0.00052213618
0.0005144953
0.00050650303
0.00049815148
0.00048943517
0.00048035133
0.00047090007
0.00046108465
0.00053745178
0.00053044489
0.00052310703
0.00051542626
0.00050739259
0.00049899826
0.00049023792
0.00048110896
0.00047161167
0.00046174948
0.00054523853
0.00053851344
0.00053146928
0.00052409244
0.00051637108
0.00050829531
0.00049985747
0.00049105237
0.00048187754
0.00047233344
0.00046242372
0.0005463525
0.00053959125
0.00053250914
0.00052509265
0.00051732999
0.00050921139
0.00050072929
0.00049187866
0.00048265717
0.00047306549
0.00046310747
0.0005474866
0.0005406884
0.00053356754
0.00052611055
0.00051830573
0.00051014339
0.00050161614
0.00049271906
0.00048345001
0.00047380984
0.00046380259
0.00055517555
0.00054864875
0.00054181241
0.00053465158
0.00052715287
0.00051930466
0.00051109736
0.0005025237
0.00049357889
0.000484261
0.00047457105
0.0004645133
0.00055639229
0.00054982853
0.00054295335
0.00053575185
0.00052821066
0.00052031828
0.00051206522
0.00050344434
0.00049445103
0.00048508347
0.00047534293
0.00055762642
0.00055102512
0.00054411045
0.00053686758
0.00052928322
0.00052134594
0.00051304638
0.00050437752
0.0004953349
0.0004859169
0.00047612496
0.00056521864
0.00055887823
0.0005522387
0.00054528389
0.00053799894
0.00053037068
0.00052238776
0.00051404093
0.0005053233
0.00049623059
0.00048676135
0.00047691724
0.00056652517
0.00056014791
0.00055346953
0.00054647384
0.00053914611
0.00053147321
0.00052344389
0.00051504904
0.00050628187
0.00049713826
0.00048761697
0.00047771986
0.00056785038
0.00056143564
0.00055471772
0.00054768051
0.00054030928
0.000532591
0.00052451451
0.00051607082
0.00050725329
0.00049805799
0.00048848383
0.00047853289
0.00057535949
0.00056919455
0.00056274168
0.00055598355
0.00054890407
0.00054148861
0.00053372419
0.00052559976
0.00051710643
0.00050823775
0.00049898992
0.00048936208
0.0004793565
0.00057675957
0.00057055799
0.00056406633
0.00055726729
0.00055014484
0.00054268439
0.00053487306
0.00052669988
0.00051815612
0.00050923544
0.00049993423
0.00049025183
0.00048019075
0.00058414473
0.00057817974
0.00057194087
0.00056540974
0.0005585691
0.00055140293
0.00054389672
0.00053603768
0.00052781497
0.00051921994
0.00051024643
0.00050089101
0.00049115322
0.00058562097
0.00057962026
0.00057334342
0.00056677214
0.00055988916
0.00055267854
0.00054512582
0.00053721829
0.00052894519
0.00052029805
0.00051127086
0.00050186036
0.00049206629
0.00058711854
0.00058108147
0.00057476604
0.00056815391
0.00056122788
0.00055397204
0.000546372
0.00053841514
0.00053009084
0.00052139074
0.00051230899
0.00050284251
0.00049299129
0.0005944504
0.00058863774
0.00058256367
0.00057620893
0.00056955524
0.0005625854
0.00055528357
0.00054763541
0.00053962841
0.00053125205
0.00052249811
0.00051336091
0.00050383758
0.0004939283
0.00059602961
0.0005901815
0.00058406966
0.00057767483
0.00057097873
0.00056396421
0.00055661547
0.00054891829
0.00054086019
0.00053243079
0.00052362202
0.00051442839
0.00050484719
0.00049487883
0.00060328313
0.00059764439
0.00059175964
0.00058560881
0.00057917266
0.0005724329
0.00056537245
0.00055797553
0.00055022795
0.0005421174
0.00053363363
0.00052476868
0.00051551721
0.00050587675
0.00049584794
0.00060495705
0.00059928335
0.00059336125
0.0005871707
0.00058069244
0.00057390822
0.00056680094
0.00055935492
0.0005515561
0.0005433922
0.00053485308
0.00052593095
0.0005166207
0.00050692003
0.00060665459
0.00060094529
0.00059498518
0.0005887542
0.00058223308
0.0005754036
0.00056824874
0.00056075284
0.00055290187
0.00054468372
0.00053608837
0.0005271082
0.0005177382
0.00050797635
0.00061388931
0.00060837618
0.00060263062
0.00059663182
0.00059035969
0.00058379498
0.00057691947
0.00056971617
0.00056216951
0.00055426556
0.00054599227
0.00053733976
0.00052830057
0.00051886992
0.00050904594
0.00061566946
0.00061012189
0.00060433944
0.00059830126
0.00059198724
0.00058537816
0.00057845584
0.0005712033
0.00056360503
0.00055564719
0.00054731785
0.00053860725
0.0005295081
0.00052001582
0.00051012876
0.00062284154
0.00061747486
0.00061189224
0.00060607223
0.00059999395
0.00059363732
0.00058698309
0.00058001313
0.0005727105
0.00056505973
0.0005570471
0.00054866077
0.00053989115
0.0005307311
0.00052117621
0.00051122507
0.00062470576
0.0006193059
0.0006136876
0.00060782934
0.00060171025
0.00059531023
0.00058861008
0.00058159164
0.00057423804
0.00056653392
0.00055846556
0.00055002131
0.00054119169
0.00053196974
0.00052235125
0.00051233505
0.00063183131
0.00062659661
0.00062116297
0.00061550831
0.00060961111
0.00060345049
0.00059700632
0.00059025941
0.00058319165
0.00057578621
0.00056802777
0.00055990279
0.00055139965
0.00054250905
0.00053322419
0.00052354109
0.00063378106
0.00062851452
0.00062304646
0.00061735478
0.00061141793
0.000605215
0.00059872589
0.00059193141
0.00058481348
0.0005773553
0.00056954164
0.00056135903
0.00055279602
0.00054384344
0.00053449467
0.00052474595
0.00064087633
0.00063575888
0.0006304599
0.00062495678
0.0006192274
0.00061325017
0.00060700419
0.00060046934
0.00059362644
0.00058645742
0.00057894559
0.00057107579
0.0005628346
0.0005542107
0.00054519511
0.0005357814
0.00052596598
0.0006478999
0.0006429131
0.00063776522
0.00063243318
0.00062689435
0.00062112657
0.00061510824
0.00060881842
0.000602237
0.00059534481
0.00058812382
0.00058055741
0.00057263046
0.00056432969
0.00055564393
0.0005465643
0.00053708456
0.0005272014
0.00064999462
0.00064497944
0.00063980055
0.00063443485
0.00062885966
0.00062305277
0.00061699256
0.00061065809
0.00060402925
0.00059708689
0.00058981304
0.00058219107
0.00057420598
0.00056584464
0.00055709593
0.0005479512
0.0005384044
0.00052845241
0.00065702186
0.00065212056
0.00064707642
0.00064186591
0.00063646587
0.00063085359
0.00062500684
0.00061890397
0.00061252403
0.00060584688
0.00059885344
0.00059152576
0.00058384727
0.00057580305
0.00056738005
0.00055856734
0.0005493564
0.00053974139
0.00052971944
0.00066402614
0.00065921894
0.0006542902
0.00064921599
0.00064397273
0.0006385372
0.00063288666
0.00062699884
0.00062085207
0.00061442538
0.00060769868
0.00060065285
0.00059326995
0.00058553354
0.00057742876
0.00056894267
0.0005600645
0.00055078589
0.00054110121
0.00066628608
0.00066145327
0.00065649632
0.00065139123
0.00064611435
0.00064064246
0.00063495274
0.00062902288
0.00062283122
0.00061635676
0.00060957938
0.00060248
0.0005950408
0.00058724531
0.00057907877
0.00057052837
0.00056158348
0.00055223595
0.00054248033
0.00067333458
0.00066857806
0.00066371914
0.00065873342
0.00065359685
0.00064828572
0.00064277677
0.00063704713
0.00063107447
0.0006248371
0.000618314
0.00061148508
0.00060433126
0.00059683472
0.00058897912
0.00058074979
0.00057213405
0.00056312137
0.00055370379
0.00054387611
0.00068038331
0.000675683
0.00067090249
0.00066601695
0.00066100191
0.00065583324
0.00065048722
0.00064494051
0.00063917022
0.00063315398
0.00062687006
0.00062029745
0.00061341605
0.00060620682
0.00059865198
0.00059073528
0.00058244212
0.00057375989
0.0005646783
0.00055518957
0.00054528869
0.00068745206
0.00068278748
0.00067806536
0.0006732604
0.00066834771
0.00066330274
0.00065810135
0.00065271976
0.00064713457
0.00064132286
0.00063526224
0.00062893091
0.00062230789
0.00061537308
0.00060810747
0.00060049332
0.0005925144
0.00058415626
0.00057540648
0.00056625488
0.00055669383
0.00054671856
0.00068991016
0.00068522596
0.00068048157
0.00067565164
0.00067071125
0.00066563579
0.00066040107
0.00065498323
0.00064935884
0.00064350494
0.00063739909
0.00063101951
0.00062434515
0.00061735597
0.00061003298
0.00060235848
0.00059431635
0.0005858922
0.00057707372
0.00056785092
0.00055821637
0.00069707132
0.00069240413
0.0006876999
0.0006829328
0.00067807742
0.00067310877
0.00066800222
0.00066273349
0.00065727869
0.00065161436
0.00064571746
0.00063956554
0.0006331368
0.00062641022
0.00061936569
0.00061198428
0.00060424836
0.00059614186
0.00058765055
0.00057876223
0.00056946705
0.00055975783
0.00070429083
0.00069961924
0.00069493428
0.00069020959
0.00068541929
0.00068053794
0.00067554047
0.00067040218
0.00066509879
0.00065960633
0.00065390127
0.00064796058
0.00064176175
0.00063528294
0.00062850314
0.00062140227
0.00061396142
0.00060616303
0.00059799108
0.00058943143
0.00058047208
0.00057110336
0.00056131825
0.0007115894
0.00070689142
0.00070220437
0.00069750127
0.0006927557
0.00068794172
0.00068303384
0.00067800696
0.00067283634
0.0006674976
0.00066196676
0.00065622022
0.00065023489
0.00064398825
0.00063745845
0.00063062446
0.00062346623
0.00061596486
0.00060810286
0.00059986433
0.00059123522
0.00058220364
0.00057276012
0.00056289789
0.00072379961
0.00071898837
0.00071424142
0.00070953036
0.00070482752
0.00070010587
0.00069533897
0.00069050081
0.00068556588
0.00068050901
0.0006753054
0.00066993061
0.00066436061
0.00065857177
0.00065254097
0.00064624562
0.00063966389
0.00063277473
0.00062555809
0.00061799513
0.0006100684
0.00060176209
0.00059306231
0.0005839573
0.00057443775
0.00056449712
0.00073141972
0.00072650965
0.00072169048
0.00071693289
0.00071220843
0.00070748944
0.00070274884
0.00069796013
0.0006930973
0.00068813476
0.00068304727
0.00067780999
0.00067239845
0.00066678855
0.0006609566
0.00065487943
0.00064853446
0.00064189981
0.00063495444
0.00062767833
0.00062005266
0.00061206006
0.00060368481
0.00059491311
0.00058573339
0.00057613653
0.00056611623
0.00073920936
0.0007341755
0.00072926007
0.00072443277
0.00071966426
0.0007149261
0.00071019059
0.00070543061
0.00070061964
0.00069573161
0.00069074088
0.00068562217
0.00068035056
0.00067490154
0.00066925093
0.00066337503
0.00065725062
0.00065085508
0.00064416652
0.0006371639
0.00062982723
0.00062213774
0.00061407808
0.00060563266
0.00059678782
0.00058753213
0.00057785668
0.0007525561
0.00074719285
0.00074200934
0.00073697277
0.0007320518
0.00072721613
0.00072243644
0.00071768426
0.00071293184
0.00070815206
0.00070331836
0.0006984046
0.00069338508
0.0006882345
0.00068292787
0.00067744061
0.00067174851
0.0006658278
0.00065965524
0.00065320817
0.00064646469
0.00063940376
0.0006320054
0.00062425089
0.00061612299
0.00060760618
0.00059868691
0.00058935395
0.00057959857
0.00076097277
0.00075540136
0.0007500408
0.00074485705
0.00073981737
0.00073489042
0.00073004593
0.00072525454
0.00072048778
0.00071571789
0.00071091771
0.0007060606
0.0007011204
0.00069607136
0.00069088809
0.0006855456
0.00068001921
0.00067428466
0.00066831814
0.00066209637
0.00065559667
0.00064879712
0.00064167669
0.00063421541
0.00062639461
0.00061819713
0.00060960754
0.00060061245
0.00059120079
0.00058136407
0.00077578335
0.00076969136
0.00076388051
0.00075831334
0.00075295409
0.00074776878
0.0007427247
0.00073779052
0.00073293598
0.0007281317
0.00072334918
0.00071856062
0.00071373881
0.00070885708
0.00070388924
0.00069880945
0.00069359227
0.00068821261
0.00068264576
0.00067686743
0.00067085375
0.00066458137
0.0006580276
0.00065117049
0.000643989
0.00063646325
0.00062857458
0.00062030589
0.00061164189
0.00060256932
0.00059307725
0.00058315741
0.0007990414
0.00079187911
0.00078512034
0.00077872077
0.00077263881
0.00076683493
0.00076127171
0.0007559135
0.00075072631
0.00074567749
0.00074073571
0.00073587068
0.00073105303
0.00072625422
0.00072144645
0.00071660244
0.00071169548
0.0007066993
0.00070158801
0.00069633612
0.00069091849
0.00068531033
0.00067948728
0.00067342543
0.00066710141
0.00066049247
0.00065357669
0.00064633303
0.00063874156
0.00063078373
0.00062244255
0.00061370278
0.00060455132
0.00059497746
0.00058497313
0.00082628706
0.00081765032
0.00080956386
0.00080197439
0.00079483197
0.00078808968
0.0007817033
0.00077563132
0.0007698343
0.00076427494
0.0007589176
0.00075372836
0.00074867456
0.00074372488
0.00073884902
0.00073401763
0.00072920213
0.00072437465
0.00071950791
0.00071457513
0.00070954997
0.00070440651
0.00069911918
0.00069366278
0.00068801246
0.00068214381
0.00067603284
0.00066965618
0.00066299103
0.00065601543
0.0006487084
0.00064105005
0.00063302183
0.00062460681
0.00061578996
0.00060655829
0.00059690125
0.00085886701
0.00084826439
0.00083839157
0.00082918296
0.00082057758
0.0008125185
0.00080495265
0.00079783025
0.00079110451
0.00078473132
0.00077866931
0.00077287914
0.00076732353
0.00076196691
0.00075677538
0.00075171633
0.00074675846
0.00074187146
0.00073702591
0.00073219326
0.00072734562
0.0007224556
0.00071749639
0.00071244163
0.00070726531
0.0007019418
0.00069644581
0.00069075246
0.00068483729
0.00067867626
0.0006722459
0.00066552346
0.00065848695
0.00065111535
0.00064338883
0.00063528896
0.00062679885
0.00061790356
0.00060859028
0.00059884865
0.00094457769
0.0009279959
0.00091264917
0.00089843561
0.00088526198
0.00087303909
0.000861687
0.00085112952
0.00084129708
0.00083212435
0.00082355062
0.00081551917
0.00080797712
0.00080087484
0.0007941657
0.00078780575
0.00078175371
0.00077597028
0.0007704183
0.00076506223
0.00075986824
0.00075480371
0.00074983733
0.00074493881
0.00074007875
0.0007352285
0.00073036015
0.00072544632
0.00072046011
0.00071537507
0.00071016516
0.00070480469
0.00069926831
0.00069353107
0.00068756842
0.0006813563
0.00067487124
0.0006680904
0.00066099181
0.00065355448
0.00064575858
0.0006375857
0.00062901913
0.00062004401
0.00061064772
0.00060082009
0.0011722811
0.0011385319
0.0011073932
0.0010786633
0.0010521454
0.0010276662
0.0010050628
0.00098418236
0.00096488659
0.00094704834
0.00093054889
0.00091527725
0.00090113203
0.00088802049
0.0008758538
0.00086455246
0.0008540406
0.00084424894
0.00083511246
0.00082657066
0.00081856707
0.00081104899
0.00080396697
0.00079727454
0.00079092784
0.00078488571
0.00077910897
0.0007735605
0.00076820484
0.00076300814
0.00075793785
0.00075296268
0.0007480523
0.00074317728
0.00073830897
0.00073341943
0.00072848119
0.00072346734
0.00071835135
0.00071310714
0.00070770892
0.00070213129
0.00069634923
0.00069033816
0.00068407396
0.00067753309
0.00067069271
0.00066353085
0.00065602651
0.00064815992
0.00063991275
0.00063126835
0.00062221201
0.00061273124
0.00060281611
8.7731889e-05
0.00021381096
0.00033885238
0.00038558084
0.00047240095
0.00074840766
0.00089093099
0.00085744456
0.0012299457
0.0017070715
0.001556643
0.0010329854
0.00074882795
0.00088132929
0.0011277701
0.001242274
0.0012504558
0.0012547308
0.0012834995
0.0013201536
0.0013508407
0.0013715387
0.0013807553
0.0013778421
0.0013630989
0.0013374258
0.0013034067
0.0012644055
0.001223827
0.0011833411
0.00114122
0.0010921348
0.001030188
0.00095346112
0.00086726609
0.00078234474
0.00076900383
0.0008327798
0.00091015397
0.00098547313
0.0010497859
0.0010966465
0.0011241953
0.0011255156
0.0011023237
0.0010633338
0.001018822
0.0009789919
0.00095453233
0.00094882513
0.00094546998
0.00093031983
0.00089986931
0.00081512154
0.00088753169
0.0010827485
0.00097325864
0.00097392549
0.0012363603
0.0012250212
0.00091948397
0.00092994875
0.001243199
0.0013995834
0.0014215902
0.0013861699
0.0013384368
0.0012922305
0.0012494463
0.0012099914
0.0011736029
0.0011400351
0.0011090633
0.0010804867
0.0010541097
0.0010297599
0.0010072751
0.00098650348
0.00096730738
0.00094956029
0.0009331441
0.00091794841
0.00090387234
0.00089082358
0.00087871375
0.00086746368
0.00085699792
0.00084724746
0.00083814757
0.00082963801
0.00082166252
0.0008141686
0.00080710698
0.00080043132
0.00079409793
0.00078806571
0.00078229559
0.00077675052
0.00077139508
0.00076619551
0.0007611192
0.00075613487
0.00075121226
0.00074632189
0.00074143507
0.00073652379
0.00073156058
0.00072651846
0.00072137085
0.00071609156
0.00071065478
0.00070503503
0.00069920725
0.00069314677
0.00068682942
0.00068023165
0.0006733306
0.00066610425
0.00065853164
0.00065059306
0.00064227024
0.00063354662
0.0006244076
0.0006148409
0.0006048368
0.00010847744
0.00020660186
0.00021369252
0.00030189779
0.00049145464
0.00072261756
0.00080540468
0.00086527555
0.001347379
0.0018178352
0.0015988049
0.0010353115
0.00081570236
0.00092199587
0.0011356545
0.0012898981
0.0012860745
0.0012618515
0.0012771497
0.001316011
0.0013521229
0.001374895
0.0013836499
0.0013800823
0.0013653367
0.001339997
0.0013062538
0.0012673631
0.0012268127
0.0011863831
0.0011444849
0.0010958757
0.0010344621
0.00095813932
0.0008724166
0.00078794012
0.00077283776
0.00083477523
0.0009119749
0.00098710652
0.0010511099
0.0010977518
0.0011252449
0.0011267606
0.0011039575
0.0010653579
0.0010212287
0.00098192728
0.00095773553
0.0009516811
0.00094813523
0.00093307112
0.00090256329
0.00081765804
0.00089077776
0.0010852344
0.00097420398
0.00097717937
0.0012405036
0.0012272816
0.00092104338
0.0009328604
0.0012461001
0.0014005838
0.0014218506
0.001386412
0.0013388861
0.0012929274
0.0012503793
0.0012111415
0.0011749526
0.0011415685
0.0011107656
0.0010823442
0.0010561099
0.0010318909
0.0010095263
0.00098886476
0.0009697695
0.00095211464
0.00093578271
0.00092066387
0.00090665773
0.00089367243
0.0008816201
0.00087042192
0.00086000275
0.00085029393
0.00084123098
0.00083275397
0.00082480684
0.00081733728
0.0008102962
0.00080363741
0.00079731735
0.00079129503
0.00078553146
0.00077998968
0.00077463429
0.00076943156
0.00076434897
0.00075935523
0.00075441999
0.00074951381
0.00074460798
0.00073967445
0.00073468567
0.00072961461
0.00072443465
0.00071911955
0.00071364338
0.00070798063
0.00070210616
0.00069599526
0.00068962371
0.00068296792
0.00067600498
0.00066871291
0.00066107077
0.00065305886
0.00064465896
0.00063585463
0.00062663146
0.00061697733
9.5840497e-05
0.00017956998
0.00021013095
0.00032377284
0.00053113021
0.00079119121
0.00087791969
0.00089394967
0.0013653625
0.0018583817
0.0016308785
0.0010470678
0.00081986386
0.00092703141
0.0011385036
0.0012905037
0.0012862817
0.0012645163
0.0012820504
0.0013213087
0.0013569212
0.0013794109
0.0013882339
0.0013847303
0.0013698464
0.0013442598
0.0013103093
0.0012713574
0.0012309248
0.001190688
0.0011489278
0.0011003569
0.0010390459
0.00096301397
0.00087756304
0.00079323517
0.0007765853
0.00083693466
0.00091384651
0.00098869517
0.0010525384
0.0010989867
0.0011263783
0.0011278842
0.0011051121
0.0010666652
0.0010228084
0.00098403764
0.00096062317
0.00095492945
0.00095130658
0.00093631062
0.00090612814
0.00082216941
0.00089398617
0.0010872582
0.00097813613
0.00097990785
0.001240848
0.0012282855
0.0009236695
0.00093575001
0.001247611