/*--------------------------------*- C++ -*----------------------------------*\
| =========                 |                                                 |
| \\      /  F ield         | OpenFOAM: The Open Source CFD Toolbox           |
|  \\    /   O peration     | Version:  2506                                  |
|   \\  /    A nd           | Website:  www.openfoam.com                      |
|    \\/     M anipulation  |                                                 |
\*---------------------------------------------------------------------------*/
FoamFile
{
    version     2.0;
    format      ascii;
    arch        "LSB;label=32;scalar=64";
    class       volScalarField;
    location    "0.3";
    object      Cp;
}
// * * * * * * * * * * * * * * * * * * * * * * * * * * * * * * * * * * * * * //

dimensions      [0 0 0 0 0 0 0];

internalField   nonuniform List<scalar> 
1376
(
0.0078715524
0.0079422347
0.008034153
0.0081377195
0.0073159516
0.00745417
0.0075391078
0.0076337946
0.0077258982
0.0078209127
0.0079223487
0.0080347381
0.008164868
0.0083213367
0.0085135866
0.0066126218
0.0068037926
0.006925901
0.0070514355
0.0071647592
0.0072709534
0.0073744751
0.0074808904
0.0075970553
0.0077319963
0.0078968811
0.0081004405
0.0083474994
0.008636495
0.0089600585
0.0092997401
0.0056568155
0.0059004554
0.0060674189
0.006237756
0.0063943332
0.0065403149
0.0066789226
0.0068134117
0.0069476387
0.0070879383
0.007243032
0.0074216046
0.0076343894
0.0078896431
0.0081895157
0.0085306574
0.0089020187
0.0092895814
0.0096740193
0.010036169
0.0046097699
0.0048706827
0.0050640902
0.0052719114
0.0054748127
0.0056709427
0.0058603433
0.0060441122
0.0062224145
0.0063959685
0.0065669558
0.0067411656
0.0069290927
0.0071443148
0.0074006928
0.0077080467
0.0080691058
0.0084776021
0.0089206771
0.00937758
0.0098238725
0.01023757
0.010593195
0.010872036
0.011075303
0.0037516549
0.0039712885
0.0041516162
0.0043654793
0.0045920272
0.0048247161
0.0050604226
0.0052971446
0.0055317369
0.005760137
0.005977642
0.0061827714
0.0063800172
0.0065821894
0.0068096749
0.0070818705
0.0074114633
0.0078017404
0.0082478607
0.0087329015
0.0092411985
0.0097550712
0.01025382
0.010719905
0.01112892
0.011474587
0.011746422
0.011948295
0.012094895
0.0033693159
0.0034960492
0.0036211159
0.003798673
0.0040087355
0.0042430894
0.004497817
0.004769277
0.0050525743
0.0053406802
0.0056235314
0.0058921434
0.0061448535
0.0063859382
0.0066275498
0.0068885082
0.0071860372
0.007531089
0.0079258669
0.0083694088
0.0088633362
0.0093892005
0.0099510574
0.010529306
0.011102454
0.011645121
0.012122599
0.012515906
0.012807847
0.013004697
0.013139347
0.013266184
0.013474304
0.0034971868
0.0035494971
0.0036207842
0.0037556433
0.0039327142
0.0041425021
0.0043822165
0.0046504196
0.0049452265
0.0052609347
0.0055874469
0.0059107388
0.0062176386
0.0065055103
0.0067818515
0.0070589812
0.0073503491
0.007665983
0.0080146725
0.0083971333
0.0088174673
0.0092892552
0.0098151141
0.010405543
0.011050171
0.011715596
0.012362644
0.012941268
0.013410307
0.013748553
0.013964861
0.014099494
0.014225196
0.014430697
0.014856511
0.015594424
0.003819048
0.0038117938
0.0038378802
0.0039401795
0.004096461
0.0042969699
0.0045334469
0.0047989409
0.0050892016
0.0053989171
0.0057200056
0.0060445116
0.006366553
0.0066781642
0.0069769463
0.0072676472
0.0075596482
0.0078612013
0.0081792936
0.0085214605
0.0088971171
0.0093223121
0.0098139827
0.01037712
0.011008635
0.011692334
0.01240125
0.013094469
0.013723849
0.014244438
0.014635563
0.014899083
0.01507245
0.015228867
0.015470196
0.015935218
0.016714091
0.017892014
0.019394142
0.0042727474
0.0042410017
0.0042460026
0.0043290364
0.004463985
0.0046418155
0.0048532583
0.0050926693
0.0053561357
0.0056408191
0.005942053
0.0062524847
0.0065627862
0.0068671824
0.0071633521
0.0074533353
0.0077431405
0.00804075
0.0083504076
0.0086784773
0.0090283945
0.0094131118
0.0098505164
0.010357949
0.010940055
0.011590953
0.01227821
0.012972656
0.013650879
0.014301268
0.014900367
0.015408856
0.015782273
0.016037869
0.016249073
0.016520393
0.016998654
0.017779138
0.01896443
0.020491113
0.02229132
0.024168342
0.0047628687
0.0047208553
0.0047141023
0.0047819307
0.0048997176
0.00506167
0.0052556754
0.0054720135
0.0057042268
0.0059487899
0.0062033178
0.0064644495
0.0067293222
0.0069960118
0.0072648531
0.0075384773
0.0078199639
0.0081134883
0.00842135
0.0087446173
0.0090873001
0.0094590335
0.0098733597
0.010341637
0.010866666
0.011437812
0.012049782
0.012697163
0.013377115
0.014076255
0.014761413
0.015402065
0.015995635
0.016499762
0.016864279
0.017144553
0.017447075
0.017933424
0.018712785
0.01984648
0.021305474
0.023036035
0.024837689
0.026402852
0.027409019
0.0052653257
0.0052147348
0.0051931559
0.0052372329
0.0053274184
0.0054632135
0.0056330873
0.0058245384
0.0060290588
0.0062421041
0.0064620821
0.0066869095
0.0069142465
0.007142757
0.0073737269
0.0076106754
0.0078591982
0.0081241494
0.0084095714
0.0087148247
0.009040904
0.0093949479
0.0097863508
0.010221614
0.010701071
0.011218284
0.011768172
0.012349686
0.012969463
0.013626718
0.014332705
0.015082719
0.015803401
0.016421747
0.016963897
0.017432484
0.017856842
0.018287858
0.018786441
0.019473342
0.020451286
0.02179151
0.023432973
0.025095748
0.026482515
0.027585434
0.025691876
0.0057967093
0.0057329825
0.0056883984
0.0056983878
0.0057489865
0.0058434032
0.0059745782
0.0061338743
0.0063136252
0.0065059433
0.0067048689
0.0069069624
0.0071107718
0.0073165369
0.0075247355
0.0077346928
0.0079466177
0.0081637106
0.0083902158
0.0086340386
0.0089066805
0.0092129079
0.0095625974
0.0099630056
0.010411545
0.010901075
0.011414437
0.0119409
0.012482494
0.013062232
0.013707622
0.01442096
0.015188332
0.015984956
0.01672108
0.01735037
0.017898726
0.018417351
0.018923093
0.01941414
0.020034423
0.020885052
0.022058504
0.023496559
0.024974366
0.026609092
0.024818937
0.027341113
0.024955618
0.0063786044
0.0062981241
0.0062178124
0.0061746657
0.0061631431
0.0061926413
0.006263671
0.0063727927
0.0065148548
0.0066830057
0.0068689768
0.0070671028
0.0072734146
0.0074825582
0.007689296
0.0078892715
0.0080760884
0.008248728
0.0084147924
0.0085875526
0.0087799397
0.0090086936
0.0092842058
0.0096179726
0.010015813
0.010467034
0.010946571
0.011433479
0.011922312
0.012433627
0.012988079
0.013616874
0.014338803
0.015133506
0.015962647
0.016790017
0.017579303
0.018270477
0.018830814
0.019333479
0.019818046
0.020380945
0.021068068
0.02197913
0.023094008
0.025015639
0.023602453
0.026442769
0.024676818
0.0069716804
0.0068840725
0.0067698009
0.0066665565
0.0065750567
0.0065138808
0.0064913469
0.0065126806
0.0065807087
0.0066948579
0.0068524143
0.0070472108
0.0072703966
0.007510622
0.007752113
0.0079787528
0.0081789293
0.0083485814
0.0084927785
0.0086224986
0.0087502898
0.0088936452
0.0090691788
0.009302272
0.0096104141
0.0099931901
0.010427376
0.010882627
0.011341844
0.011803625
0.012282289
0.012799959
0.013382135
0.014066053
0.014874029
0.015783012
0.016724886
0.017618231
0.0184144
0.019065679
0.019594819
0.020040968
0.020453023
0.020960275
0.021562292
0.023315426
0.022112034
0.025022738
0.024259438
0.0074746506
0.0073910597
0.0072539922
0.0070991935
0.0069306288
0.0067729573
0.0066455551
0.0065650382
0.0065379184
0.0065743687
0.0066784029
0.0068473008
0.0070683394
0.0073216923
0.00758575
0.0078459821
0.0080911504
0.0083131766
0.0085086079
0.0086742503
0.0088090331
0.0089220204
0.0090411341
0.0091906845
0.0093927844
0.0096692778
0.010013221
0.010396762
0.010795489
0.011196778
0.01159984
0.012014177
0.012473908
0.013035189
0.013737213
0.014586465
0.015559748
0.016594324
0.017594862
0.018482408
0.019208508
0.019758686
0.020161685
0.020522954
0.020668465
0.022260569
0.020826735
0.023519986
0.023352854
0.0077890965
0.0077179308
0.007573716
0.0073916262
0.0071759634
0.0069531117
0.0067401259
0.0065562736
0.006427492
0.006369639
0.0063952898
0.0065077148
0.0066947543
0.0069376918
0.0072124619
0.0075005152
0.0077893551
0.0080733135
0.0083502625
0.0086140468
0.0088555287
0.0090501465
0.0091955608
0.0093190495
0.0094639662
0.0096394697
0.0098437384
0.010085479
0.010372389
0.01069073
0.011024469
0.011373766
0.01176844
0.01223928
0.012819179
0.013537261
0.014414628
0.01543566
0.016547192
0.017667119
0.018660254
0.019462143
0.020071821
0.020427001
0.020270088
0.021711799
0.019948791
0.022426352
0.021987885
0.0078527605
0.0078030825
0.0076717783
0.0074871195
0.007248629
0.0069833485
0.0067175008
0.0064677673
0.0062589593
0.0061142056
0.0060541768
0.0060855362
0.0062067449
0.0064067064
0.0066670731
0.0069715767
0.0073101315
0.0076802491
0.008072861
0.0084615622
0.0088191168
0.0091322189
0.0093870069
0.0095789221
0.0097183182
0.0098368983
0.0099689276
0.010131096
0.010314304
0.010525238
0.010769501
0.011055799
0.011404082
0.01182115
0.012300055
0.012856381
0.013554404
0.014464106
0.015572406
0.016771751
0.017932516
0.018987084
0.019900107
0.020467956
0.020470081
0.021557917
0.019723427
0.022082366
0.020562994
0.0076717342
0.0076412946
0.0075272738
0.0073578392
0.0071304594
0.0068636437
0.0065739468
0.0062902334
0.00603043
0.0058196482
0.0056777051
0.0056236191
0.0056635307
0.005797951
0.0060216768
0.0063312485
0.0067219361
0.0071794029
0.0076812048
0.0082005767
0.0086969152
0.0091388915
0.0095104729
0.0098063843
0.010040113
0.010221703
0.010362794
0.010481871
0.01061139
0.010769385
0.010958993
0.011193542
0.01149367
0.01186208
0.012260102
0.012685253
0.013218054
0.013948067
0.014861144
0.015922348
0.017131102
0.01840061
0.019582086
0.020451046
0.020642466
0.021998156
0.019773389
0.022103059
0.019979406
0.0072883943
0.0072865806
0.0072031247
0.007056994
0.0068441512
0.0065885797
0.0063076688
0.006017712
0.0057385205
0.0054885855
0.0052884847
0.0051616463
0.0051287805
0.0051997815
0.0053847082
0.0056875913
0.0061033787
0.0066160917
0.0071967961
0.0078097712
0.0084166031
0.0089831294
0.0094878359
0.0099377816
0.01032271
0.010633836
0.010874872
0.011058698
0.011206837
0.011335013
0.011469066
0.011650054
0.011909747
0.01223998
0.012600015
0.012976417
0.013409803
0.013944515
0.014612997
0.015499035
0.016591126
0.017750677
0.018917888
0.020109981
0.020517669
0.022320027
0.020125812
0.022448783
0.019607334
0.0066682779
0.0067001294
0.0066591279
0.0065607947
0.0063951957
0.0061787496
0.0059290834
0.0056617993
0.0053903253
0.0051295675
0.0049012389
0.0047314116
0.0046470617
0.004672299
0.0048216286
0.0051011869
0.0055079412
0.0060281258
0.0066350108
0.0072943291
0.0079770041
0.0086568182
0.0093105341
0.0099191451
0.01047059
0.010956722
0.011364868
0.011692011
0.011948653
0.012148477
0.012317878
0.012491094
0.012705913
0.012970072
0.013264465
0.013578801
0.013950069
0.014419277
0.014989219
0.015582422
0.016267867
0.017196522
0.018296759
0.019483392
0.019906863
0.02200737
0.020414928
0.023072642
0.019658456
0.0058738331
0.0059292879
0.0059288689
0.0058892061
0.0057910188
0.0056403003
0.0054475201
0.0052267701
0.0049914564
0.0047536323
0.0045340489
0.0043600878
0.0042617769
0.0042646644
0.0043860435
0.004633037
0.005005109
0.0054930244
0.0060808574
0.0067479769
0.0074715004
0.0082287595
0.0090033673
0.0097694072
0.010508048
0.011197881
0.011814366
0.012346576
0.012790607
0.013148707
0.013424174
0.013634565
0.013816844
0.014005161
0.014223302
0.014492643
0.014814739
0.015148436
0.015409482
0.015656454
0.015996966
0.016586137
0.017522576
0.018610947
0.019101876
0.021093018
0.01957562
0.022958443
0.019696888
0.0049239893
0.0050031055
0.0050432841
0.0050646297
0.0050421196
0.0049743026
0.0048641365
0.0047211003
0.004556185
0.0043829534
0.0042171629
0.0040825229
0.0040089003
0.0040180625
0.0041252533
0.0043417747
0.0046724381
0.0051161886
0.0056688551
0.0063185311
0.0070510339
0.0078518952
0.0087049589
0.0095931613
0.010491145
0.011366025
0.012190768
0.012933078
0.013566437
0.014080292
0.014474721
0.014761089
0.014965374
0.015132089
0.015292969
0.01546641
0.015632566
0.0157077
0.015673697
0.015619332
0.015714708
0.015927634
0.016357565
0.017254032
0.017641634
0.019654807
0.017946937
0.021791171
0.019273322
0.0038786622
0.0039741824
0.004048937
0.0041279078
0.0041841479
0.0042083273
0.0041952898
0.0041519589
0.0040879303
0.0040129809
0.0039400504
0.0038859841
0.0038698499
0.0039143632
0.0040359324
0.0042460305
0.0045541662
0.0049688217
0.005490402
0.0061147926
0.0068368554
0.007646308
0.008528619
0.0094626246
0.010419494
0.011366148
0.012265017
0.013081636
0.013797822
0.014401821
0.014895712
0.015279832
0.015565541
0.015774649
0.015924714
0.016008114
0.015999935
0.015884168
0.015674773
0.015478064
0.015325439
0.015143024
0.015073981
0.015423096
0.015410629
0.017334145
0.016028968
0.020072121
0.017641441
0.0028335927
0.002937588
0.0030360918
0.0031584035
0.0032778142
0.0033813855
0.0034608991
0.0035201305
0.0035672512
0.0036079809
0.0036476751
0.0036941095
0.0037616433
0.0038687703
0.0040328003
0.004266284
0.0045815262
0.0049889574
0.0054935322
0.0060977738
0.0067962183
0.0075717354
0.0084023109
0.0092678554
0.010140603
0.010997192
0.011808248
0.012552213
0.013211036
0.013792019
0.01430472
0.014744856
0.015109939
0.015398565
0.015612937
0.015732652
0.015745531
0.015616914
0.015363841
0.015043375
0.014677995
0.014193598
0.013689946
0.013537303
0.013248129
0.015188891
0.013899494
0.017821693
0.015247279
0.0019281414
0.0020327788
0.0021407728
0.0022833912
0.0024354798
0.0025849919
0.0027254443
0.0028592124
0.0029922409
0.0031302612
0.0032749614
0.0034227446
0.0035779806
0.0037586472
0.0039776439
0.0042492573
0.0045873179
0.0050057007
0.005512739
0.006097737
0.0067405438
0.0074186717
0.0081098308
0.0087986345
0.0094760319
0.010135938
0.010771648
0.011376898
0.011953122
0.012509859
0.013041388
0.013536581
0.013980894
0.014374741
0.014692026
0.014906674
0.015002826
0.014983794
0.014795487
0.014437423
0.013986222
0.013469989
0.012892947
0.012625948
0.012186787
0.0139103
0.012506603
0.016990545
0.012249251
0.001318655
0.0014062408
0.0014959201
0.0016213022
0.0017619796
0.0019099972
0.0020615537
0.0022208905
0.002394774
0.0025882762
0.0028011945
0.0030248175
0.0032532489
0.003494765
0.0037684571
0.0040889132
0.0044649302
0.0049072854
0.0054073258
0.0059365542
0.0064658903
0.0069764829
0.0074707005
0.0079591093
0.0084499947
0.0089432579
0.0094363395
0.0099215308
0.010402413
0.010882066
0.011362319
0.011850948
0.012334835
0.012812902
0.013254874
0.013628453
0.013897218
0.014058301
0.014096949
0.013980667
0.013767163
0.013521109
0.01319309
0.012970559
0.01248334
0.014011328
0.011545837
0.018787826
0.0091963507
0.00097665773
0.0010363478
0.0010874055
0.0011670122
0.0012626125
0.0013750433
0.0015048376
0.0016579949
0.0018408836
0.0020545626
0.0022927393
0.0025484632
0.0028201663
0.0031080017
0.0034267942
0.0037880677
0.004191486
0.0046247066
0.0050625564
0.005480221
0.0058598239
0.0062065553
0.0065488991
0.0069152013
0.0073055004
0.0077027587
0.0080890631
0.0084572454
0.0088178725
0.0091791171
0.0095581906
0.009964764
0.010394866
0.010855936
0.011365354
0.011895399
0.012403489
0.012847509
0.013224017
0.013500144
0.013667275
0.013765491
0.013803665
0.013872289
0.013419804
0.01524144
0.011427619
0.020957698
0.007018103
0.00075022741
0.00077364482
0.00078048751
0.0008115134
0.00086048394
0.00093608611
0.0010423747
0.001183194
0.0013596124
0.001569595
0.0018086746
0.002073105
0.0023655974
0.0026883063
0.0030415955
0.0034141307
0.0037875111
0.0041412751
0.0044615756
0.0047461157
0.0050045811
0.0052613318
0.0055342339
0.0058241507
0.0061200783
0.0064044885
0.0066588992
0.0068843515
0.0071002795
0.0073273362
0.0075877386
0.0078930209
0.0082532238
0.0086842388
0.0092287468
0.0098793148
0.010607458
0.011380314
0.012163124
0.012903528
0.013523932
0.01403585
0.014503452
0.015033406
0.014636306
0.016903181
0.011700082
0.023093518
0.0058038542
0.00055276047
0.00054063187
0.00050511718
0.00049253011
0.00050183356
0.00054225026
0.00061780082
0.0007305164
0.00088185849
0.0010742234
0.0013082706
0.0015819014
0.0018923318
0.0022321442
0.0025873966
0.0029289404
0.0032284962
0.0034736467
0.0036688809
0.0038384834
0.0040115021
0.0042043287
0.0044133668
0.0046185416
0.004803387
0.0049619822
0.0050997315
0.0052270306
0.0053621051
0.0055292606
0.0057373027
0.0059934223
0.0063177079
0.0067217189
0.0072510725
0.0079431494
0.0087774492
0.0097299233
0.010767102
0.011847164
0.012889837
0.013798757
0.014591506
0.015679929
0.015279878
0.018302406
0.011571817
0.024898154
0.0056752934
0.0003392803
0.00031770434
0.00026353228
0.00022528755
0.00020687644
0.00021212934
0.00024415899
0.00030796092
0.00041418643
0.00057707146
0.0008003373
0.0010694618
0.0013673568
0.0016772794
0.0019793046
0.0022459713
0.0024570715
0.0026140492
0.002733402
0.0028431005
0.0029673079
0.0031082271
0.0032471512
0.0033690116
0.003464824
0.0035306798
0.0035879776
0.0036555707
0.0037521367
0.0038944182
0.0040777332
0.0043070001
0.0046083802
0.0049795507
0.0054555628
0.0060889719
0.0068697058
0.0077939901
0.0088458001
0.0099956336
0.011184548
0.012305512
0.013369024
0.014749306
0.014340372
0.018038935
0.010470382
0.02451504
0.0053565632
0.00015204667
0.00015217075
0.00011100438
8.182403e-05
5.6117948e-05
4.5670176e-05
4.9418879e-05
7.3072957e-05
0.00013338178
0.00024490975
0.00040954765
0.00060712148
0.00081768478
0.0010257722
0.0012094054
0.0013610005
0.0014896367
0.0016012228
0.0017116394
0.0018289647
0.0019429644
0.0020442785
0.0021102016
0.0021428501
0.002163222
0.0021794628
0.0022051097
0.0022444187
0.0023159628
0.0024330038
0.0025830419
0.0027781693
0.003027764
0.0033511555
0.0037636742
0.0042628476
0.0048712898
0.0055980334
0.0064407362
0.0074032231
0.0084393777
0.0094584654
0.010407224
0.012291971
0.011592933
0.016296841
0.0079503964
0.023518545
0.0031766445
5.7779648e-05
8.6422558e-05
7.2556814e-05
7.907302e-05
6.4657019e-05
6.2078315e-05
6.9651356e-05
8.4645514e-05
0.00011102166
0.00015702155
0.00021184281
0.00026857358
0.00032769043
0.00038218276
0.00041865113
0.00045763378
0.0005232111
0.00059866369
0.00069396076
0.0008022785
0.00087794841
0.00091960926
0.00093143868
0.00091686631
0.00091344447
0.00092573338
0.00093533459
0.00095114365
0.0010046278
0.0010743799
0.0011600161
0.0012706721
0.0013971531
0.0015628143
0.001815783
0.0021404079
0.0024861455
0.0028257445
0.0032852867
0.0038880904
0.0045621322
0.0053079345
0.005911896
0.0075034178
0.006374014
0.012582539
0.0035868661
0.021445167
0.00061486272
)
;

boundaryField
{
    Side
    {
        type            empty;
    }
    Inlet
    {
        type            calculated;
        value           nonuniform List<scalar> 
21
(
0.022637606
0.022471058
0.022246122
0.02201448
0.021803397
0.021567474
0.021181422
0.020733888
0.020404465
0.020111497
0.019753497
0.019406854
0.018984514
0.018543558
0.018300671
0.018115392
0.017917691
0.017476353
0.016647965
0.015396975
0.015660941
)
;
    }
    Airfoil
    {
        type            calculated;
        value           nonuniform List<scalar> 0();
    }
    Outlet
    {
        type            calculated;
        value           uniform 0;
    }
    procBoundary13to6
    {
        type            processor;
        value           nonuniform List<scalar> 
34
(
0.0077640984
0.0077640984
0.0073220299
0.0066132047
0.0056545155
0.0046045831
0.0037463177
0.0033704494
0.0035099905
0.0038415231
0.0042947608
0.0047787317
0.0052748349
0.0058007253
0.0063765334
0.0069592167
0.0074527436
0.0077640957
0.0078307571
0.0076570148
0.0072783778
0.0066681313
0.005883524
0.0049428597
0.0039002557
0.0028495357
0.0019335327
0.001314094
0.00097111917
0.00075738334
0.00057162605
0.00035806117
0.00014923854
4.2283445e-05
)
;
    }
    procBoundary13to12
    {
        type            processor;
        value           nonuniform List<scalar> 
60
(
0.0081883459
0.0082796479
0.0084037309
0.0085497952
0.0082548914
0.0082548914
0.0083872662
0.0085367019
0.0087069909
0.0089010819
0.0091182278
0.008746809
0.008746809
0.0090160434
0.0093070057
0.0096017306
0.0098837362
0.0096379967
0.0096379967
0.0099569121
0.01023834
0.010461832
0.010355724
0.010355724
0.010606789
0.010772532
0.010862009
0.010880397
0.011203242
0.011203242
0.011290083
0.011337713
0.011372253
0.012200554
0.012200554
0.012325268
0.012543277
0.012923019
0.013865319
0.013865319
0.014540081
0.015556445
0.016709248
0.016709248
0.018150868
0.019871734
0.021176324
0.021176324
0.023047732
0.024709901
0.025805526
0.025805526
0.026992675
0.02766447
0.028033264
0.028033264
0.026261922
0.028214802
0.028214802
0.025309225
)
;
    }
}


// ************************************************************************* //
