/*--------------------------------*- C++ -*----------------------------------*\
| =========                 |                                                 |
| \\      /  F ield         | OpenFOAM: The Open Source CFD Toolbox           |
|  \\    /   O peration     | Version:  2506                                  |
|   \\  /    A nd           | Website:  www.openfoam.com                      |
|    \\/     M anipulation  |                                                 |
\*---------------------------------------------------------------------------*/
FoamFile
{
    version     2.0;
    format      ascii;
    arch        "LSB;label=32;scalar=64";
    class       volScalarField;
    location    "0.00024";
    object      Co;
}
// * * * * * * * * * * * * * * * * * * * * * * * * * * * * * * * * * * * * * //

dimensions      [0 0 0 0 0 0 0];

internalField   nonuniform List<scalar> 
13761
(
0.0024040648
0.0047778161
0.0047575519
0.0044167037
0.0040592119
0.0037195713
0.0034042163
0.0031068366
0.0028221457
0.0025459438
0.0022755129
0.0020179647
0.0017828251
0.0015704338
0.0013785697
0.0012085674
0.001056417
0.0009073821
0.00074723603
0.00056842055
0.00037629236
0.00019446937
7.0162948e-05
8.4639474e-05
0.00017977946
0.00024530424
0.00028056809
0.00030470293
0.00032663985
0.00034897179
0.00037440427
0.00039668545
0.00040278002
0.00037671222
0.00032283366
0.00025802898
0.00020669936
0.00018526017
0.00018484293
0.0001924125
0.00010698882
0.0001915065
0.00237259
0.0047222623
0.004709509
0.0043731705
0.004019133
0.0036821506
0.0033693799
0.0030733814
0.0027905052
0.0025181893
0.0022534693
0.002000591
0.0017681461
0.0015560676
0.0013630718
0.0011913405
0.0010367779
0.00088618653
0.00072695776
0.00055147062
0.00036480389
0.00018915162
6.9237696e-05
8.4729982e-05
0.00017870041
0.00024308022
0.00027726494
0.00029953142
0.00031945796
0.00034114838
0.00036703385
0.00039027265
0.00039783401
0.00037312946
0.00032053577
0.00025750016
0.00020783698
0.00018671333
0.00018528591
0.002410561
0.0047939059
0.0047760174
0.0044331017
0.004072987
0.0037303371
0.0034111703
0.003112085
0.0028297985
0.0025615164
0.0023013487
0.0020529849
0.0018254074
0.0016197943
0.0014298373
0.0012528226
0.0010870483
0.00092597822
0.00076219315
0.00058970216
0.00041194341
0.00024442876
0.00010330607
7.3539028e-05
0.00015049224
0.00022279007
0.00026596751
0.00029826988
0.00032724747
0.00035487392
0.00038225724
0.00040352151
0.00040757747
0.00038054825
0.00032731468
0.00026341617
0.0023387165
0.0046640437
0.0046618244
0.0043318623
0.0039831118
0.0036479436
0.0033343605
0.0030426752
0.0027685295
0.0025081484
0.0022559345
0.0020161033
0.0017957156
0.0015939092
0.0014054662
0.0012281674
0.001059582
0.00089485336
0.00073037474
0.00056203261
0.0003918209
0.00023239922
9.8192979e-05
7.1636624e-05
0.00014880746
0.00022287098
0.00026897169
0.00030132532
0.00032743379
0.000352808
0.00037948143
0.0026018843
0.0051339024
0.0050742603
0.0047078427
0.0043308908
0.0039721832
0.0036378291
0.0033204605
0.0030110265
0.0027010904
0.0023919896
0.0021001479
0.0018404727
0.0016100707
0.0014094861
0.0012438539
0.0011061471
0.00096968945
0.00080650855
0.00060608458
0.00037599205
0.00015301768
8.7991357e-05
0.00018341056
0.0030254107
0.00032025431
0.00094659449
0.0015398219
0.0020170404
0.0023810227
0.0026175054
0.0028354287
0.0030472046
0.0032792915
0.0035327826
0.0037461836
0.0038851151
0.0038894982
0.0037425211
0.0034674399
0.0031322917
0.0028040483
0.0025550144
0.0023910145
0.0022723765
0.0021751118
0.002073012
0.0019497212
0.0018016335
0.0016464464
0.0014983603
0.001363774
0.001239683
0.0011224933
0.0010095501
0.00089388828
0.00076947912
0.00063472531
0.00053960428
0.00051526753
0.0005270436
0.00053351664
0.00050962877
0.00045518505
0.00037649882
0.00029981847
0.00025504062
0.00023715351
0.00013306728
0.00011943065
0.0001933106
0.00019350367
0.00017932329
0.00015950395
0.00013252975
9.0593113e-05
4.3817478e-05
3.8485886e-05
7.6000144e-05
0.00011569358
0.00013652537
0.00012932053
7.1848845e-05
6.8679491e-05
0.00010006324
5.9712505e-05
4.8465122e-05
7.9508798e-05
0.00010291821
0.00010925803
0.00010527734
9.8927614e-05
9.3180096e-05
8.8044255e-05
8.1834592e-05
6.3035916e-05
3.2421089e-05
0.00030251315
0.00089134509
0.0014476298
0.0018879482
0.0022403929
0.0024925496
0.0027605144
0.0030550109
0.0033682251
0.0036869142
0.0039475725
0.0041376125
0.0042106989
0.0041274037
0.0038616272
0.0034861539
0.0030933295
0.0027647459
0.0025501359
0.0024109259
0.0023010005
0.0021880267
0.0020527407
0.0018952697
0.0017310878
0.0015747116
0.0014343425
0.0013054449
0.0011838571
0.0010661346
0.00094582359
0.00081790546
0.00068024105
0.00058302501
0.00055705805
0.00056645796
0.00056915432
0.00054366394
0.00049296654
0.00042672668
0.00036424587
0.00032903927
0.00031488591
0.00030249715
0.00028015145
0.00024676924
0.0001755941
9.4207412e-05
0.0001073054
0.00013167085
9.2206372e-05
4.5178325e-05
3.8097341e-05
7.5439812e-05
0.00011501935
0.0001359856
0.00012895685
7.1845149e-05
6.8479865e-05
9.9582115e-05
5.9572874e-05
4.8310814e-05
7.917963e-05
0.00010253521
0.00010889049
0.00010492791
9.8629614e-05
9.2929905e-05
8.781029e-05
8.1545185e-05
6.2581606e-05
3.2231077e-05
2.2268221e-05
2.5351738e-05
2.4604759e-05
2.3914745e-05
2.3277452e-05
2.268859e-05
2.214426e-05
2.1640877e-05
2.1175091e-05
2.0743773e-05
0.00031421506
0.00091170672
0.0014575401
0.0018913078
0.0022232954
0.0024497486
0.0026887022
0.0029546264
0.0032365109
0.0035217188
0.0037605435
0.0039466487
0.0040289984
0.0039523959
0.0036934198
0.0033281106
0.0029465996
0.0026322381
0.0024319187
0.0023074793
0.002212225
0.0021125875
0.0019865133
0.0018336482
0.0016733521
0.0015223956
0.0013875578
0.0012629105
0.0011442264
0.0010297346
0.00091401409
0.00079031257
0.00065595357
0.00056010055
0.00053387294
0.00054353476
0.00054754776
0.00052423614
0.00047561303
0.00041067921
0.00034945731
0.00031535549
0.00030263123
0.00029228054
0.00027530504
0.00025546958
0.00023599715
0.00020933546
0.00010929238
7.3435793e-05
8.7260002e-05
4.4276379e-05
3.819945e-05
7.5125161e-05
0.00011456022
0.00013547699
0.00012855311
7.1727201e-05
6.8282547e-05
9.9206281e-05
5.9445821e-05
4.8156403e-05
7.8878474e-05
0.00010218588
0.00010854315
0.0001045989
9.8351779e-05
9.2694715e-05
8.7586877e-05
8.1264201e-05
6.2140871e-05
3.204412e-05
2.2291239e-05
2.5240494e-05
2.4496822e-05
2.380988e-05
2.3175433e-05
2.2589209e-05
2.2047329e-05
2.1546222e-05
2.1082553e-05
2.0653207e-05
2.0255335e-05
1.9886329e-05
1.9543693e-05
1.9225192e-05
1.8928691e-05
1.8652241e-05
0.0003202055
0.00093311609
0.0015005652
0.0019575818
0.0023131667
0.0025562702
0.002804926
0.0030741923
0.0033671863
0.0036720736
0.0039257367
0.004113003
0.0041799671
0.0040829507
0.003808633
0.0034316187
0.0030386164
0.0027148001
0.0025059345
0.0023717411
0.0022668584
0.0021585157
0.0020264888
0.001870652
0.0017077877
0.0015532219
0.0014148542
0.0012877959
0.0011676984
0.0010518262
0.00093412712
0.00080854901
0.00067262234
0.00057585077
0.00054907569
0.00055773728
0.00056040235
0.00053568015
0.00048605281
0.00042074086
0.00035910778
0.00032415542
0.00031033987
0.00029885435
0.00028114234
0.00026082914
0.0002413546
0.00021995433
0.00017932302
8.3432969e-05
4.881948e-05
4.6925548e-05
3.749931e-05
7.4575959e-05
0.00011387591
0.0001349508
0.00012816692
7.1656162e-05
6.8077407e-05
9.878306e-05
5.9307643e-05
4.7996766e-05
7.8574628e-05
0.00010182679
0.00010818405
0.0001042641
9.8072322e-05
9.2457794e-05
8.7359436e-05
8.0974622e-05
6.1687896e-05
3.1854695e-05
2.2317443e-05
2.5130714e-05
2.4390317e-05
2.3706416e-05
2.3074786e-05
2.2491174e-05
2.1951718e-05
2.1452863e-05
2.0991289e-05
2.0563895e-05
2.0167844e-05
1.9800542e-05
1.9459503e-05
1.9142501e-05
1.8847414e-05
1.8572299e-05
1.8315336e-05
1.8074829e-05
1.7849193e-05
1.7636952e-05
0.00031273852
0.00090966038
0.0014594868
0.001896559
0.0022383257
0.0024785145
0.0027374034
0.0030248339
0.0033326119
0.0036443244
0.0038978443
0.0040868974
0.0041658989
0.0040872727
0.0038227581
0.0034479999
0.0030547861
0.0027253775
0.0025113048
0.0023741803
0.0022667951
0.002157295
0.0020251737
0.0018695707
0.0017072686
0.0015530714
0.001414503
0.001287262
0.0011672084
0.0010515908
0.00093412767
0.00080871095
0.00067292988
0.00057615487
0.00054931815
0.00055796989
0.00056054311
0.00053577011
0.00048628078
0.00042125533
0.00035982665
0.00032481352
0.00031079807
0.00029915025
0.00028146938
0.00026119697
0.00024167845
0.00022067301
0.00019444611
0.00013158972
5.9403192e-05
2.914547e-05
3.9749364e-05
7.4493822e-05
0.00011360561
0.00013445348
0.00012777118
7.1547349e-05
6.787654e-05
9.839512e-05
5.9160257e-05
4.7834221e-05
7.8275466e-05
0.00010147444
0.00010782998
0.00010393307
9.7795604e-05
9.222391e-05
8.7133737e-05
8.0689759e-05
6.1251039e-05
3.1668767e-05
2.2335479e-05
2.5022363e-05
2.4285208e-05
2.3604319e-05
2.2975478e-05
2.2394452e-05
2.1857395e-05
2.136077e-05
2.090127e-05
2.0475808e-05
2.008156e-05
1.9715943e-05
1.9376483e-05
1.9060966e-05
1.8767275e-05
1.8493482e-05
1.8237771e-05
1.7998456e-05
1.777396e-05
1.7562812e-05
1.7363634e-05
1.7175129e-05
1.6996072e-05
0.00031517703
0.00093246484
0.0015084553
0.001972666
0.0023321771
0.0025814251
0.0028355875
0.0031110702
0.0034163038
0.0037148027
0.0038981174
0.0039434975
0.0038522857
0.0036339866
0.0033366675
0.0030272295
0.0027555826
0.0025505388
0.00240416
0.0022970873
0.0022034923
0.0020986991
0.0019694116
0.0018175739
0.0016589777
0.0015077856
0.0013722295
0.0012475891
0.0011295833
0.0010154834
0.00089943727
0.00077412264
0.00063664294
0.0005397325
0.00051693558
0.00053186958
0.00053963201
0.00051768314
0.00046940581
0.00040468863
0.00034331521
0.0003091881
0.00029686617
0.00028696993
0.00027061275
0.00025128041
0.00023250617
0.00021200815
0.00018399286
0.00010826148
5.6348381e-05
3.8552142e-05
3.7943821e-05
7.3804516e-05
0.00011285101
0.0001339671
0.00012741773
7.1509406e-05
6.7677312e-05
9.795506e-05
5.900887e-05
4.7673449e-05
7.7972987e-05
0.00010111254
0.00010746592
0.0001035926
9.751218e-05
9.1984818e-05
8.6901551e-05
8.0395007e-05
6.0802783e-05
3.1480337e-05
2.2355377e-05
2.4915417e-05
2.4181474e-05
2.3503567e-05
2.2877488e-05
2.2299024e-05
2.1764343e-05
2.1269925e-05
2.0812478e-05
2.0388927e-05
1.9996464e-05
1.9632515e-05
1.9294618e-05
1.8980568e-05
1.868826e-05
1.8415773e-05
1.81613e-05
1.7923163e-05
1.7699793e-05
1.7489727e-05
1.7291591e-05
1.7104095e-05
1.6926023e-05
1.6756233e-05
1.6593639e-05
0.00033230473
0.00098071055
0.0015877576
0.0020786606
0.002455551
0.0027025327
0.0029345701
0.0031720604
0.0034475971
0.0037426338
0.0039550545
0.0040472042
0.0039965905
0.00379779
0.0034923364
0.0031503345
0.0028279125
0.0025866182
0.0024259159
0.0023122173
0.0022171226
0.0021113606
0.0019811766
0.0018279295
0.0016684122
0.0015171703
0.0013815505
0.0012564228
0.0011378123
0.001023647
0.00090828717
0.00078418339
0.00064834749
0.00055168386
0.00052675625
0.00053873391
0.00054411951
0.00052113016
0.00047281973
0.00040845255
0.00034745816
0.00031315581
0.00030014752
0.00028958616
0.00027277825
0.00025313504
0.000234149
0.00021334844
0.00017834338
8.6816582e-05
5.2360084e-05
4.6280361e-05
3.7133837e-05
7.341587e-05
0.00011243428
0.00013356529
0.00012708825
7.1438906e-05
6.7490448e-05
9.7567751e-05
5.8857256e-05
4.751516e-05
7.7683052e-05
0.00010076864
0.00010711831
0.00010326798
9.7242981e-05
9.1757063e-05
8.6679009e-05
8.0110087e-05
6.0369473e-05
3.129567e-05
2.2369627e-05
2.4809608e-05
2.4078866e-05
2.3403931e-05
2.2780606e-05
2.2204693e-05
2.167238e-05
2.118016e-05
2.0724758e-05
2.0303113e-05
1.9912426e-05
1.9550138e-05
1.9213797e-05
1.8901207e-05
1.8610274e-05
1.8339085e-05
1.8085843e-05
1.7848877e-05
1.7626625e-05
1.7417631e-05
1.7220529e-05
1.7034035e-05
1.6856939e-05
1.6688103e-05
1.652645e-05
1.6370955e-05
1.6220646e-05
0.00033123125
0.00098332312
0.0016050076
0.002111015
0.0025092471
0.0027756166
0.0030204622
0.0032618714
0.0035373923
0.0038382349
0.0040709156
0.0041948152
0.0041662744
0.0039745187
0.0036614182
0.0032945797
0.0029350885
0.002666676
0.002492085
0.0023652202
0.0022604839
0.0021483745
0.0020142469
0.001858973
0.0016980759
0.0015450275
0.0014071413
0.0012799956
0.0011598717
0.0010443113
0.00092732195
0.0008022182
0.00066619657
0.00056921995
0.00054303314
0.00055287676
0.00055630571
0.00053213241
0.00048323637
0.00041869849
0.0003575701
0.00032261693
0.00030856438
0.00029691041
0.00027929658
0.00025909104
0.00023962442
0.00021858308
0.00018883383
0.00010603783
5.6884779e-05
4.1613284e-05
3.720297e-05
7.3020806e-05
0.00011192856
0.00013308747
0.00012673596
7.1435276e-05
6.7299729e-05
9.7099585e-05
5.870625e-05
4.7359223e-05
7.7381986e-05
0.00010040712
0.00010675794
0.00010293598
9.6971042e-05
9.1528604e-05
8.6456082e-05
7.9823015e-05
5.9935927e-05
3.1110443e-05
2.2380484e-05
2.4702985e-05
2.3975599e-05
2.3303777e-05
2.2683334e-05
2.2110093e-05
2.1580258e-05
2.1090338e-05
2.0637073e-05
2.0217417e-05
1.9828584e-05
1.9468028e-05
1.9133307e-05
1.8822237e-05
1.8532733e-05
1.8262892e-05
1.8010925e-05
1.7775169e-05
1.7554072e-05
1.7346183e-05
1.7150144e-05
1.6964677e-05
1.6788578e-05
1.6620718e-05
1.6460021e-05
1.6305471e-05
1.6156101e-05
1.6010987e-05
1.5869246e-05
0.00031631035
0.0009201334
0.0014751572
0.0019163189
0.0022637366
0.0025062094
0.0027673406
0.0030615561
0.0033813462
0.0037061232
0.003966386
0.0041558358
0.0042325664
0.0041455183
0.0038702376
0.0034836033
0.0030747071
0.0027311288
0.002511377
0.00237393
0.0022662682
0.0021556201
0.002021792
0.0018658189
0.0017041639
0.0015511082
0.00141349
0.0012862868
0.0011658988
0.0010503653
0.00093401322
0.00081001249
0.00067537922
0.00057861028
0.00055078863
0.00055838097
0.00056003884
0.00053520864
0.00048640885
0.0004222443
0.00036150987
0.0003264478
0.00031185842
0.00029968233
0.00028175118
0.00026136572
0.00024179918
0.00022087645
0.00019523317
0.00013408007
5.6653422e-05
2.7459549e-05
3.9495216e-05
7.3020839e-05
0.00011170465
0.00013259952
0.00012635672
7.1379799e-05
6.7113508e-05
9.6676542e-05
5.8554031e-05
4.72029e-05
7.7087762e-05
0.00010005471
0.00010640464
0.00010261149
9.670605e-05
9.1305247e-05
8.6237627e-05
7.9542315e-05
5.9517536e-05
3.092865e-05
2.2384887e-05
2.45974e-05
2.3873369e-05
2.3204659e-05
2.2587099e-05
2.2016527e-05
2.1489168e-05
2.1001546e-05
2.0550417e-05
2.0132748e-05
1.9745768e-05
1.938694e-05
1.9053837e-05
1.8744283e-05
1.8456205e-05
1.8187708e-05
1.7937011e-05
1.7702462e-05
1.7482514e-05
1.7275724e-05
1.7080742e-05
1.6896296e-05
1.6721188e-05
1.6554294e-05
1.6394546e-05
1.6240934e-05
1.6092491e-05
1.5948304e-05
1.5807492e-05
1.5669213e-05
0.00031065022
0.00090731638
0.0014618079
0.0019047318
0.0022586804
0.0025107232
0.002780237
0.0030808427
0.0034078384
0.0037422998
0.0040105085
0.0042013905
0.0042737644
0.0041813416
0.0039019549
0.0035111982
0.0030968214
0.0027472818
0.0025244366
0.0023865965
0.0022790177
0.0021675104
0.0020325265
0.0018760963
0.0017134703
0.0015590082
0.0014205334
0.0012928837
0.0011721356
0.0010559702
0.00093864399
0.00081395688
0.00067910493
0.0005822998
0.00055440999
0.00056182191
0.00056323265
0.00053823842
0.00048937948
0.00042521497
0.00036442436
0.00032912502
0.00031420408
0.00030170391
0.00028356135
0.00026300992
0.00024330024
0.00022219588
0.00019769652
0.00015878408
8.4815407e-05
3.8091067e-05
4.040467e-05
7.3300418e-05
0.00011203222
0.00013236012
0.00012605752
7.1388931e-05
6.6923198e-05
9.6201066e-05
5.8400761e-05
4.7045193e-05
7.6786121e-05
9.9687107e-05
0.00010603634
0.00010227672
9.6435138e-05
9.1076252e-05
8.601278e-05
7.9251432e-05
5.908523e-05
3.0743147e-05
2.2392977e-05
2.4493399e-05
2.3772676e-05
2.3107035e-05
2.2492316e-05
2.1924376e-05
2.1399457e-05
2.09141e-05
2.0465075e-05
2.0049365e-05
1.9664209e-05
1.9307085e-05
1.8975575e-05
1.8667516e-05
1.8380842e-05
1.8113668e-05
1.7864224e-05
1.7630862e-05
1.7412044e-05
1.7206337e-05
1.7012395e-05
1.6828953e-05
1.665482e-05
1.6488878e-05
1.6330063e-05
1.6177371e-05
1.6029842e-05
1.5886566e-05
1.5746667e-05
1.5609308e-05
1.5473684e-05
1.5339016e-05
0.00029633782
0.00086365521
0.0013860079
0.0017985273
0.0021297784
0.0023738746
0.0026547963
0.0029810518
0.0033235908
0.0036585796
0.0039153294
0.0040952956
0.0041753601
0.0041058017
0.0038439814
0.0034618622
0.0030519603
0.0026993816
0.0024747546
0.0023402302
0.0022379663
0.0021327457
0.0020020162
0.0018473138
0.0016857561
0.0015327851
0.0013963783
0.0012711924
0.0011527506
0.0010388578
0.00092374197
0.00080084223
0.0006675026
0.00057135238
0.00054337721
0.00055092447
0.00055289492
0.00052885105
0.00048098512
0.00041757825
0.00035743084
0.0003227006
0.0003083066
0.00029638343
0.00027874251
0.00025861556
0.00023928702
0.00021852191
0.00019420409
0.00015379361
7.7121504e-05
3.5598716e-05
4.1066326e-05
7.3088102e-05
0.00011159174
0.00013187935
0.00012568648
7.1344788e-05
6.6738136e-05
9.5773201e-05
5.8246688e-05
4.6887695e-05
7.6495776e-05
9.9333342e-05
0.00010567746
0.00010195143
9.6173344e-05
9.0852297e-05
8.5790465e-05
7.895936e-05
5.8647276e-05
3.0555694e-05
2.240275e-05
2.4390947e-05
2.3673485e-05
2.3010868e-05
2.2398949e-05
2.1833604e-05
2.131109e-05
2.0827966e-05
2.0381016e-05
1.9967235e-05
1.9583878e-05
1.9228433e-05
1.8898493e-05
1.8591906e-05
1.8306615e-05
1.8040746e-05
1.7792534e-05
1.7560341e-05
1.7342638e-05
1.7137997e-05
1.6945079e-05
1.6762625e-05
1.6589452e-05
1.6424445e-05
1.6266548e-05
1.6114761e-05
1.596813e-05
1.5825749e-05
1.5686748e-05
1.5550294e-05
1.5415586e-05
1.528185e-05
1.5148338e-05
0.00030326165
0.00088513791
0.0014254841
0.0018593927
0.0022072836
0.0024572762
0.0027293411
0.0030348329
0.0033654835
0.0037031056
0.0039727079
0.0041647972
0.0042416451
0.0041568964
0.0038833956
0.0034954803
0.003082806
0.0027334072
0.0025109705
0.002373891
0.0022663205
0.0021546785
0.002020195
0.0018648484
0.0017035822
0.001550148
0.0014121612
0.0012849256
0.0011646765
0.0010491089
0.00093227632
0.00080813084
0.00067404668
0.00057757854
0.0005496542
0.00055723034
0.0005589185
0.00053440674
0.00048614333
0.00042248133
0.00036203114
0.00032685669
0.0003119657
0.00029954493
0.00028151472
0.00026107027
0.0002414839
0.0002205344
0.00019628782
0.00015828538
8.3999742e-05
3.8430439e-05
4.0378614e-05
7.2764366e-05
0.00011123063
0.00013146873
0.00012535126
7.1351558e-05
6.6552001e-05
9.5302063e-05
5.8091096e-05
4.6731158e-05
7.6200034e-05
9.8968146e-05
0.00010531027
0.00010162273
9.5910409e-05
9.0625375e-05
8.556493e-05
7.8661165e-05
5.8199045e-05
3.0364847e-05
2.2414517e-05
2.4290016e-05
2.3575768e-05
2.2916134e-05
2.2306975e-05
2.1744188e-05
2.1224046e-05
2.0743122e-05
2.0298217e-05
1.988634e-05
1.9504756e-05
1.9150965e-05
1.8822573e-05
1.8517436e-05
1.8233509e-05
1.7968924e-05
1.7721926e-05
1.7490886e-05
1.727428e-05
1.7070689e-05
1.6878778e-05
1.6697298e-05
1.6525068e-05
1.6360983e-05
1.6203989e-05
1.6053092e-05
1.5907344e-05
1.5765844e-05
1.5627725e-05
1.549216e-05
1.5358352e-05
1.5225531e-05
1.5092953e-05
1.4959899e-05
0.00029720358
0.00086439003
0.0013850694
0.0017976334
0.0021278599
0.0023699245
0.0026487369
0.0029731462
0.0033120877
0.0036431658
0.0038994656
0.0040824814
0.0041676661
0.0041012106
0.0038394324
0.0034554855
0.0030416337
0.0026839651
0.002457387
0.0023244073
0.0022251929
0.0021230757
0.0019940117
0.0018397723
0.0016780146
0.0015253911
0.0013900498
0.0012657197
0.001147741
0.0010341469
0.00091953234
0.00079743219
0.00066501684
0.00056909405
0.00054068287
0.00054783432
0.00054967276
0.00052604582
0.00047880964
0.00041589573
0.00035607609
0.00032142725
0.00030699291
0.00029508092
0.00027748478
0.0002573964
0.00023814959
0.00021754671
0.00019325935
0.00015102621
7.3004719e-05
3.384728e-05
4.1057548e-05
7.2295179e-05
0.00011058473
0.00013094477
0.00012497302
7.1327301e-05
6.6365574e-05
9.4855632e-05
5.7935738e-05
4.6572384e-05
7.5910988e-05
9.861075e-05
0.00010494784
0.00010129958
9.5652462e-05
9.0399215e-05
8.533824e-05
7.8356939e-05
5.7738593e-05
3.0170407e-05
2.2428723e-05
2.4190566e-05
2.347949e-05
2.2822797e-05
2.2216362e-05
2.1656097e-05
2.1138293e-05
2.0659541e-05
2.0216652e-05
1.980665e-05
1.9426814e-05
1.9074655e-05
1.8747789e-05
1.8444082e-05
1.8161498e-05
1.7898179e-05
1.7652378e-05
1.7422473e-05
1.7206948e-05
1.7004389e-05
1.6813472e-05
1.663295e-05
1.6461649e-05
1.6298469e-05
1.6142364e-05
1.5992344e-05
1.5847464e-05
1.570683e-05
1.5569579e-05
1.5434888e-05
1.5301964e-05
1.5170042e-05
1.5038383e-05
1.490627e-05
1.4773008e-05
0.00030511878
0.00088745061
0.0014241805
0.001854701
0.0021976407
0.002441575
0.0027110527
0.0030161233
0.0033439894
0.0036752112
0.003939442
0.0041330966
0.0042183851
0.0041421468
0.0038719327
0.0034837588
0.0030684757
0.0027142219
0.0024892357
0.0023526518
0.0022470662
0.0021385046
0.0020063041
0.0018516944
0.0016906794
0.0015384236
0.0014020798
0.0012759943
0.0011564848
0.0010416659
0.00092592182
0.00080308525
0.00067024153
0.00057407426
0.0005455635
0.00055250317
0.00055396416
0.0005299689
0.00048248466
0.0004194622
0.00035946993
0.00032448481
0.00030965552
0.00029734373
0.00027944777
0.00025913505
0.00023971652
0.00021899938
0.00019467472
0.00015245995
7.4096586e-05
3.4101078e-05
4.0814878e-05
7.1877482e-05
0.00011006367
0.00013048068
0.00012462516
7.1320159e-05
6.6180065e-05
9.4401887e-05
5.7778826e-05
4.6415247e-05
7.562093e-05
9.8250841e-05
0.00010458483
0.00010097829
9.5396428e-05
9.0173333e-05
8.511148e-05
7.8050623e-05
5.7276304e-05
2.9975397e-05
2.2441323e-05
2.4092567e-05
2.3384618e-05
2.2730827e-05
2.2127077e-05
2.15693e-05
2.1053803e-05
2.0577191e-05
2.0136291e-05
1.972814e-05
1.9350028e-05
1.8999477e-05
1.8674115e-05
1.8371817e-05
1.8090558e-05
1.7828487e-05
1.7583866e-05
1.7355079e-05
1.7140619e-05
1.6939078e-05
1.6749138e-05
1.6569559e-05
1.6399174e-05
1.6236886e-05
1.6081655e-05
1.5932497e-05
1.5788472e-05
1.5648688e-05
1.5512291e-05
1.5378459e-05
1.5246405e-05
1.5115367e-05
1.498461e-05
1.4853422e-05
1.472111e-05
1.4587005e-05
0.00029860204
0.00087030248
0.0013988368
0.0018188275
0.0021585231
0.0024091817
0.0026932487
0.0030197666
0.0033695521
0.0037186468
0.0039875864
0.0041740896
0.0042539467
0.0041787708
0.0039087937
0.0035170606
0.0030941875
0.0027276686
0.002495447
0.0023580379
0.0022536564
0.0021462293
0.0020133125
0.0018576487
0.0016951582
0.0015413176
0.0014044942
0.0012787623
0.0011597332
0.0010452357
0.00092973135
0.00080711113
0.00067437752
0.00057788363
0.00054882458
0.00055527715
0.00055621139
0.00053190977
0.00048442764
0.0004216028
0.00036176064
0.00032663511
0.0003114774
0.00029886243
0.00028082144
0.00026041884
0.00024086
0.00022000605
0.0001960066
0.0001591313
8.5841234e-05
3.9185799e-05
3.9767859e-05
7.1673984e-05
0.00010988904
0.00013014573
0.00012431143
7.1336844e-05
6.5990769e-05
9.3921286e-05
5.7610946e-05
4.6256627e-05
7.5332553e-05
9.7888755e-05
0.00010422011
0.00010065706
9.5139948e-05
8.994644e-05
8.4884119e-05
7.7743784e-05
5.6817985e-05
2.9781064e-05
2.2450432e-05
2.3995984e-05
2.3291121e-05
2.2640192e-05
2.2039092e-05
2.148377e-05
2.0970549e-05
2.0496048e-05
2.005711e-05
1.9650783e-05
1.9274371e-05
1.8925406e-05
1.8601528e-05
1.8300621e-05
1.8020667e-05
1.7759826e-05
1.7516367e-05
1.7288682e-05
1.7075272e-05
1.6874734e-05
1.6685758e-05
1.6507108e-05
1.6337623e-05
1.6176213e-05
1.6021843e-05
1.5873533e-05
1.5730348e-05
1.5591403e-05
1.5455844e-05
1.5322858e-05
1.5191659e-05
1.506149e-05
1.4931619e-05
1.4801339e-05
1.4669962e-05
1.4536819e-05
1.4401263e-05
0.00030515808
0.00088731632
0.0014222154
0.001850992
0.0021890233
0.0024276383
0.0026898999
0.0029872442
0.0033070896
0.0036317941
0.0038910805
0.0040793149
0.0041600009
0.0040809622
0.0038122552
0.0034287654
0.003019711
0.0026732028
0.0024534177
0.0023193695
0.0022156745
0.0021093325
0.001979845
0.0018278031
0.0016696013
0.0015195981
0.0013845347
0.0012596625
0.0011414541
0.0010281485
0.00091401986
0.00079267804
0.00066136491
0.00056598654
0.00053747409
0.00054451462
0.00054635476
0.00052306672
0.00047641839
0.0004141691
0.00035483934
0.00032026578
0.00030568623
0.00029368232
0.00027618649
0.00025621856
0.00023701948
0.00021651372
0.00019260293
0.00015410174
8.0093941e-05
3.700459e-05
4.0475082e-05
7.144142e-05
0.00010947949
0.00012967991
0.00012393687
7.1312035e-05
6.5798409e-05
9.3463944e-05
5.7436824e-05
4.6088485e-05
7.5047977e-05
9.7530651e-05
0.00010385594
0.00010033687
9.4884102e-05
8.9718029e-05
8.4654238e-05
7.7430582e-05
5.6351096e-05
2.9583969e-05
2.2459984e-05
2.3900796e-05
2.3198978e-05
2.2550874e-05
2.1952388e-05
2.1399488e-05
2.0888512e-05
2.0416095e-05
1.9979092e-05
1.9574565e-05
1.919983e-05
1.8852431e-05
1.8530015e-05
1.8230478e-05
1.7951813e-05
1.7692184e-05
1.7449871e-05
1.7223274e-05
1.7010897e-05
1.6811348e-05
1.662332e-05
1.6445585e-05
1.6276988e-05
1.6116443e-05
1.596292e-05
1.5815444e-05
1.5673087e-05
1.5534965e-05
1.5400232e-05
1.5268076e-05
1.5137718e-05
1.5008404e-05
1.4879405e-05
1.4750018e-05
1.4619557e-05
1.448736e-05
1.4352781e-05
1.4215193e-05
0.00030236905
0.00087565568
0.0013994006
0.001825041
0.0021595348
0.0023996635
0.0026656872
0.0029681469
0.0032824931
0.0035929702
0.0038453931
0.0040378388
0.0041299074
0.0040571787
0.0037883263
0.0034005568
0.0029816488
0.0026229008
0.0023999759
0.0022735027
0.0021818183
0.0020866091
0.0019620912
0.0018098243
0.0016489123
0.001498335
0.00136615
0.0012444166
0.0011282179
0.0010161927
0.00090385559
0.00078456227
0.00065515787
0.00056046555
0.00053119777
0.00053736283
0.00053889888
0.00051603043
0.00047012085
0.00040855068
0.00034980905
0.00031565978
0.00030137727
0.00028970845
0.0002725109
0.00025279271
0.00023383275
0.00021364502
0.00018913055
0.00013628605
5.4083873e-05
2.4977702e-05
4.0158232e-05
7.0527637e-05
0.00010845224
0.00012906469
0.00012353627
7.1262469e-05
6.560588e-05
9.3033102e-05
5.7259213e-05
4.5914275e-05
7.4764111e-05
9.7176329e-05
0.0001034947
0.0001000193
9.4629196e-05
8.9488134e-05
8.4423237e-05
7.7115019e-05
5.5883397e-05
2.9386729e-05
2.2467406e-05
2.3806958e-05
2.3108147e-05
2.2462829e-05
2.1866925e-05
2.1316414e-05
2.0807655e-05
2.0337293e-05
1.99022e-05
1.949945e-05
1.9126369e-05
1.8780513e-05
1.8459541e-05
1.8161357e-05
1.7883961e-05
1.7625528e-05
1.7384346e-05
1.7158819e-05
1.6947462e-05
1.6748887e-05
1.6561794e-05
1.6384961e-05
1.6217237e-05
1.6057544e-05
1.5904855e-05
1.5758201e-05
1.5616658e-05
1.5479348e-05
1.5345426e-05
1.5214088e-05
1.5084556e-05
1.4956082e-05
1.482794e-05
1.4699431e-05
1.4569872e-05
1.4438604e-05
1.4304985e-05
1.416839e-05
1.4028216e-05
0.00028069268
0.00081443923
0.0013055783
0.0016987188
0.0020192596
0.0022584114
0.0025494504
0.0029008978
0.003264978
0.0036114508
0.0038749807
0.004068407
0.0041776784
0.0041357829
0.0038800634
0.0034876403
0.0030546923
0.0026695064
0.002428807
0.0022952962
0.0021988052
0.0021010421
0.0019747507
0.0018217538
0.0016602345
0.001508576
0.0013752544
0.0012527556
0.001136108
0.0010236519
0.00091067468
0.00079092068
0.00066148118
0.00056674267
0.00053702701
0.00054247662
0.00054327414
0.00051988638
0.00047373814
0.00041214733
0.00035337417
0.0003189537
0.00030422917
0.00029212424
0.00027465785
0.00025474745
0.00023560142
0.00021530089
0.00019061653
0.00013559063
5.5693289e-05
2.5785607e-05
3.9513603e-05
7.0035662e-05
0.00010786787
0.00012860917
0.00012319618
7.1249844e-05
6.5416152e-05
9.2587104e-05
5.7084704e-05
4.5753574e-05
7.4486359e-05
9.6825941e-05
0.00010313846
9.9706845e-05
9.4377349e-05
8.9258968e-05
8.4192369e-05
7.6796654e-05
5.5413996e-05
2.9189207e-05
2.2472964e-05
2.3714459e-05
2.3018615e-05
2.237605e-05
2.1782693e-05
2.1234541e-05
2.0727968e-05
2.0259636e-05
1.9826428e-05
1.942543e-05
1.9053983e-05
1.870965e-05
1.8390102e-05
1.8093251e-05
1.7817108e-05
1.7559856e-05
1.7319787e-05
1.7095317e-05
1.6884965e-05
1.668735e-05
1.6501178e-05
1.6325234e-05
1.6158371e-05
1.5999516e-05
1.5847649e-05
1.5701804e-05
1.5561062e-05
1.542455e-05
1.5291427e-05
1.5160893e-05
1.5032174e-05
1.4904526e-05
1.4777227e-05
1.464958e-05
1.4520908e-05
1.4390554e-05
1.4257877e-05
1.4122258e-05
1.3983096e-05
1.3839806e-05
0.00030497966
0.00088331519
0.001410554
0.0018361017
0.0021691971
0.0024019931
0.0026596467
0.0029557691
0.0032674928
0.0035780688
0.0038305003
0.0040217086
0.004112554
0.0040398606
0.0037719851
0.0033860063
0.0029698104
0.0026143146
0.002392667
0.0022648557
0.0021708083
0.0020740303
0.001949825
0.001799145
0.001640734
0.0014921573
0.0013604117
0.0012385785
0.001122415
0.0010107836
0.00089910953
0.00078046679
0.00065197534
0.00055785729
0.00052847187
0.00053441837
0.00053586337
0.00051318739
0.00046769091
0.00040658604
0.00034820077
0.00031417079
0.0002998731
0.00028823724
0.00027118555
0.00025159455
0.00023266606
0.00021254112
0.00018751879
0.00012522848
5.4953741e-05
3.0851379e-05
3.8407254e-05
6.9427635e-05
0.00010722515
0.00012817543
0.00012287404
7.1236977e-05
6.5236595e-05
9.2162532e-05
5.6925479e-05
4.5611611e-05
7.4221544e-05
9.648803e-05
0.0001027979
9.9410109e-05
9.4137689e-05
8.9039353e-05
8.3969712e-05
7.6485964e-05
5.4958737e-05
2.8995688e-05
2.2473336e-05
2.3623261e-05
2.2930346e-05
2.2290498e-05
2.1699655e-05
2.1153833e-05
2.0649419e-05
2.0183089e-05
1.9751741e-05
1.9352474e-05
1.8982638e-05
1.8639809e-05
1.8321666e-05
1.8026132e-05
1.7751225e-05
1.7495136e-05
1.7256167e-05
1.7032739e-05
1.6823378e-05
1.662671e-05
1.6441446e-05
1.6266377e-05
1.6100362e-05
1.5942334e-05
1.5791276e-05
1.5646228e-05
1.5506274e-05
1.5370547e-05
1.523821e-05
1.5108467e-05
1.4980548e-05
1.4853712e-05
1.4727242e-05
1.4600444e-05
1.4472644e-05
1.4343187e-05
1.4211438e-05
1.4076778e-05
1.3938609e-05
1.379635e-05
1.3649443e-05
0.00029097217
0.00084526953
0.0013540927
0.001756997
0.002082562
0.0023215567
0.0026048962
0.002942608
0.0032971125
0.0036387921
0.0038994845
0.0040880365
0.0041855266
0.0041300463
0.0038686953
0.0034780882
0.0030520333
0.0026782805
0.0024425379
0.0023057156
0.0022037667
0.0021015578
0.0019738926
0.0018216938
0.0016623885
0.0015122677
0.0013783898
0.0012546653
0.0011372012
0.0010245409
0.00091160659
0.00079192597
0.00066264371
0.00056789216
0.0005380782
0.00054345523
0.00054404197
0.00052046632
0.00047434621
0.00041295377
0.00035430262
0.00031978162
0.00030484109
0.00029255611
0.000275006
0.00025504345
0.00023585193
0.00021553495
0.00019082359
0.00013611207
5.7668515e-05
2.6544735e-05
3.8973007e-05
6.925383e-05