/*--------------------------------*- C++ -*----------------------------------*\
| =========                 |                                                 |
| \\      /  F ield         | OpenFOAM: The Open Source CFD Toolbox           |
|  \\    /   O peration     | Version:  2506                                  |
|   \\  /    A nd           | Website:  www.openfoam.com                      |
|    \\/     M anipulation  |                                                 |
\*---------------------------------------------------------------------------*/
FoamFile
{
    version     2.0;
    format      ascii;
    arch        "LSB;label=32;scalar=64";
    class       volScalarField;
    location    "2.4";
    object      nut;
}
// * * * * * * * * * * * * * * * * * * * * * * * * * * * * * * * * * * * * * //

dimensions      [0 2 -1 0 0 0 0];

internalField   nonuniform List<scalar> 
1376
(
0.094861277
0.12061706
0.14252641
0.15862702
0.073557427
0.095560828
0.12135763
0.14316869
0.15909027
0.16933286
0.17511175
0.17792619
0.1791188
0.17931803
0.17926041
0.07409055
0.096336098
0.12217679
0.14386746
0.1595829
0.16960789
0.1752077
0.17790078
0.17902531
0.17919693
0.17913611
0.17905919
0.17889118
0.17877927
0.17875158
0.17873821
0.074617876
0.09715427
0.1230595
0.14462667
0.16011967
0.16990859
0.1753152
0.17788026
0.17893486
0.17907797
0.17901335
0.17893947
0.17876342
0.17866816
0.17864377
0.17863261
0.17863528
0.17864773
0.17866676
0.1786904
0.075123052
0.097976472
0.12397519
0.14543178
0.16069933
0.17024033
0.17544078
0.17787219
0.17884983
0.1789627
0.17889248
0.17882146
0.17863824
0.17855881
0.17853711
0.178528
0.17853216
0.1785454
0.17856474
0.17858841
0.17861536
0.178645
0.17867697
0.17871108
0.17874731
0.075598332
0.098766693
0.12488851
0.14625737
0.16130769
0.17059702
0.17558336
0.17787796
0.17876991
0.17885097
0.17877552
0.17870297
0.17851603
0.17845094
0.1784315
0.17842427
0.17842973
0.17844363
0.17846318
0.17848682
0.1785136
0.17854301
0.17857473
0.17860861
0.17864466
0.17868285
0.17872324
0.17876605
0.17881147
0.076044141
0.099495602
0.12576243
0.14706945
0.16191878
0.17096162
0.17573393
0.17789262
0.17869253
0.17874215
0.17866211
0.17858333
0.17839671
0.17834418
0.17832668
0.17832118
0.17832776
0.17834221
0.1783619
0.17838542
0.17841201
0.17844117
0.17847264
0.17850628
0.17854204
0.17857988
0.17861989
0.17866233
0.17870733
0.17875516
0.17880617
0.1788606
0.17891877
0.076477461
0.10016578
0.12658379
0.14784648
0.16250998
0.17131581
0.17588053
0.17790782
0.17861404
0.17863476
0.17855096
0.17846226
0.17828017
0.17823844
0.17822263
0.17821873
0.17822627
0.17824113
0.17826086
0.17828422
0.17831055
0.17833943
0.1783706
0.17840394
0.17843936
0.1784768
0.17851641
0.17855841
0.17860298
0.17865038
0.17870083
0.17875467
0.17881235
0.17887423
0.17894067
0.17901235
0.076932208
0.10081959
0.12737468
0.14859099
0.16307199
0.17164715
0.17601275
0.17791524
0.17853089
0.17852689
0.17844042
0.17833966
0.17816618
0.17813347
0.17811921
0.17811682
0.17812518
0.17814033
0.17816009
0.1781833
0.17820941
0.17823802
0.17826888
0.17830188
0.17833692
0.17837398
0.17841319
0.17845471
0.17849875
0.17854559
0.17859545
0.17864873
0.17870575
0.17876679
0.17883246
0.17890334
0.17897988
0.1790625
0.17915299
0.077435688
0.10150732
0.12817196
0.14932074
0.16360784
0.17195149
0.17612481
0.17790944
0.17844075
0.178417
0.17832906
0.17821575
0.17805442
0.17802897
0.17801621
0.17801527
0.17802437
0.17803978
0.17805956
0.17808268
0.17810859
0.17813694
0.17816746
0.17820008
0.17823475
0.17827144
0.17831023
0.1783513
0.1783949
0.17844129
0.17849052
0.17854287
0.17859909
0.17865956
0.17872461
0.17879462
0.17887003
0.17895163
0.17904135
0.17914171
0.17925716
0.17939556
0.077991813
0.10226328
0.12901011
0.15006032
0.16413135
0.17223498
0.17621843
0.17789034
0.17834383
0.17830489
0.17821653
0.17809132
0.17794474
0.17792494
0.17791363
0.17791406
0.17792385
0.1779395
0.17795929
0.1779823
0.17800798
0.17803603
0.17806619
0.17809837
0.17813258
0.17816884
0.1782072
0.17824777
0.17829084
0.17833666
0.17838553
0.17843768
0.17849339
0.17855305
0.17861713
0.17868611
0.17876055
0.1788411
0.17892947
0.1790287
0.17914408
0.17928331
0.17945339
0.17965185
0.17983923
0.078590861
0.10311129
0.12992125
0.15083819
0.16466319
0.17251087
0.17630095
0.17786207
0.17824245
0.17819133
0.1781032
0.17796722
0.17783701
0.17782148
0.1778116
0.17781331
0.17782373
0.17783962
0.17785942
0.17788229
0.17790777
0.17793557
0.17796542
0.17799716
0.17803083
0.17806646
0.17810419
0.17814421
0.17818675
0.17823204
0.17828032
0.17833186
0.178387
0.17844628
0.1785101
0.1785782
0.178651
0.1787303
0.17881807
0.17891692
0.17903221
0.17917152
0.17934158
0.17953738
0.17971462
0.17968455
0.17842849
0.079204136
0.10403609
0.13090381
0.15165983
0.16521128
0.1727866
0.17637789
0.17782851
0.17813912
0.17807732
0.17798956
0.17784413
0.17773085
0.1777185
0.17771005
0.17771298
0.17772403
0.17774016
0.17775995
0.17778264
0.1778078
0.17783523
0.17786473
0.17789612
0.17792942
0.17796465
0.17800189
0.17804133
0.17808328
0.17812793
0.17817558
0.17822649
0.17828086
0.17833932
0.17840229
0.17846969
0.17854185
0.17862005
0.17870634
0.17880432
0.17891983
0.17905988
0.17923037
0.17942348
0.17958929
0.17951952
0.17807664
0.16844265
0.15016469
0.079784488
0.10497409
0.13190851
0.15249506
0.16576169
0.17305838
0.17644983
0.17779164
0.17803607
0.177964
0.17787647
0.17772291
0.17762612
0.17761604
0.17760891
0.17761293
0.17762449
0.17764081
0.17766056
0.17768305
0.17770789
0.17773489
0.17776393
0.17779491
0.17782778
0.17786257
0.1778994
0.17793843
0.17797983
0.17802393
0.17807104
0.17812132
0.17817505
0.17823272
0.17829467
0.17836095
0.17843206
0.17850917
0.17859427
0.1786917
0.17880746
0.17894828
0.17911878
0.17930793
0.17946068
0.17934413
0.17769428
0.16745316
0.15188614
0.08029467
0.10586351
0.13288001
0.15330485
0.16629253
0.17331672
0.17651385
0.1777512
0.1779343
0.17785199
0.17776455
0.17760419
0.17752297
0.17751444
0.17750851
0.17751348
0.17752548
0.17754193
0.17756163
0.17758392
0.17760841
0.17763492
0.17766337
0.1776937
0.17772594
0.17776018
0.17779648
0.177835
0.17787602
0.17791963
0.17796613
0.17801585
0.1780689
0.17812558
0.17818628
0.17825135
0.17832165
0.17839827
0.17848297
0.17858007
0.17869569
0.17883658
0.17900616
0.17919123
0.17932888
0.17915933
0.1772805
0.16635827
0.15054845
0.080714274
0.10665517
0.13376889
0.15405037
0.16677849
0.17354782
0.1765635
0.17770427
0.17783306
0.17774105
0.17765385
0.17748811
0.17742135
0.17741378
0.17740894
0.17741473
0.17742707
0.17744358
0.17746314
0.17748516
0.17750929
0.17753535
0.17756329
0.17759307
0.17762472
0.17765834
0.17769407
0.17773204
0.17777234
0.17781523
0.17786098
0.17790976
0.17796199
0.17801782
0.17807756
0.17814165
0.17821087
0.17828645
0.17837063
0.17846779
0.17858397
0.17872568
0.17889455
0.17907475
0.17919482
0.17896558
0.17682301
0.16509089
0.14840416
0.081038992
0.10731293
0.13453317
0.15469584
0.16719446
0.17373674
0.17659107
0.17764692
0.17773071
0.17763046
0.17754396
0.17737447
0.17732084
0.17731375
0.17730985
0.17731629
0.17732887
0.17734537
0.17736476
0.17738649
0.17741027
0.1774359
0.17746332
0.17749253
0.17752358
0.17755657
0.1775916
0.17762888
0.17766863
0.17771087
0.17775586
0.17780402
0.17785557
0.17791059
0.17796933
0.17803219
0.17809999
0.17817439
0.17825805
0.17835533
0.1784721
0.17861438
0.17878202
0.17895656
0.17905735
0.17875856
0.17629931
0.16369626
0.14877504
0.081292812
0.10784442
0.13517157
0.15523703
0.16753578
0.1738794
0.17659466
0.17757736
0.17762612
0.17751966
0.17743487
0.17726325
0.17722154
0.17721456
0.17721149
0.17721844
0.17723117
0.17724761
0.17726678
0.17728815
0.17731145
0.17733654
0.17736337
0.17739196
0.17742239
0.17745476
0.17748921
0.17752583
0.17756475
0.17760627
0.17765045
0.17769754
0.17774803
0.17780222
0.17786023
0.17792242
0.17798949
0.17806323
0.17814647
0.17824373
0.17836085
0.17850322
0.17866939
0.17883698
0.1789154
0.17853478
0.17570638
0.16226448
0.15054141
0.081523147
0.1082983
0.13572209
0.15570023
0.16781802
0.1739835
0.17657852
0.17749625
0.1775188
0.17740896
0.17732619
0.1771542
0.17712347
0.17711649
0.17711423
0.17712162
0.17713446
0.17715083
0.17716979
0.1771908
0.17721364
0.17723818
0.17726441
0.17729239
0.17732215
0.17735381
0.17738753
0.17742336
0.17746146
0.17750197
0.17754516
0.17759117
0.17764052
0.17769355
0.17775043
0.1778116
0.17787783
0.17795092
0.17803402
0.17813177
0.17824981
0.17839265
0.17855735
0.17871665
0.17876883
0.17829255
0.17506367
0.16088089
0.15016605
0.081785427
0.10873995
0.13623671
0.15612121
0.16806306
0.17406114
0.17654814
0.17740663
0.17740912
0.17729856
0.17721711
0.17704705
0.17702604
0.17701903
0.1770176
0.17702538
0.17703828
0.17705458
0.17707335
0.17709407
0.1771165
0.17714056
0.17716622
0.1771935
0.17722254
0.17725348
0.17728638
0.17732152
0.17735902
0.17739896
0.17744143
0.1774866
0.17753479
0.17758623
0.17764153
0.17770112
0.17776612
0.17783828
0.17792108
0.17801923
0.17813813
0.17828146
0.17844423
0.17859377
0.17861524
0.178029
0.17436056
0.15928846
0.14938147
0.082122916
0.1092278
0.13676457
0.15653515
0.16829342
0.17412549
0.17651027
0.17731232
0.1772984
0.17718887
0.17710729
0.17694167
0.17692879
0.17692177
0.17692116
0.17692925
0.17694218
0.1769584
0.17697698
0.17699743
0.17701953
0.17704317
0.17706837
0.17709518
0.17712357
0.17715375
0.17718601
0.17722018
0.17725649
0.17729539
0.177337
0.1773815
0.17742885
0.17747959
0.17753372
0.17759204
0.17765583
0.17772716
0.17780969
0.17790812
0.17802767
0.17817109
0.17833075
0.17846845
0.17845364
0.17773927
0.17357514
0.15789008
0.1495465
0.082553302
0.10980119
0.13734477
0.15697271
0.16852978
0.17418894
0.17647184
0.17721677
0.1771882
0.17708039
0.17699741
0.17683843
0.17683217
0.17682529
0.17682552
0.17683394
0.17684692
0.17686305
0.17688146
0.17690165
0.17692338
0.17694656
0.17697115
0.17699726
0.177025
0.17705436
0.17708558
0.1771191
0.17715461
0.17719219
0.17723276
0.17727601
0.17732234
0.17737197
0.17742482
0.17748186
0.17754452
0.17761531
0.17769801
0.17779732
0.17791802
0.17806166
0.17821733
0.17834122
0.17828447
0.17741652
0.17267137
0.15608823
0.15039741
0.083059685
0.11045925
0.13798391
0.15744137
0.16877815
0.17425584
0.17643577
0.17712155
0.1770794
0.1769734
0.17688797
0.17673731
0.17673625
0.17672954
0.17673052
0.17673914
0.17675205
0.17676795
0.17678605
0.1768059
0.1768272
0.17684984
0.17687389
0.17689937
0.17692644
0.17695548
0.17698645
0.17701931
0.17705402
0.17709086
0.17713011
0.17717194
0.17721678
0.17726454
0.17731601
0.17737165
0.17743318
0.17750328
0.17758596
0.17768604
0.17780773
0.17795119
0.17810211
0.1782102
0.17810296
0.17704674
0.17155815
0.15428056
0.15152849
0.083595818
0.11115718
0.13865062
0.1579221
0.16902866
0.17432211
0.17640048
0.17702639
0.176972
0.1768675
0.17677892
0.1766376
0.17664028
0.17663365
0.17663518
0.17664385
0.17665658
0.17667217
0.17668996
0.17670961
0.17673088
0.17675345
0.17677717
0.17680225
0.17682869
0.17685668
0.17688665
0.1769184
0.17695238
0.17698879
0.17702748
0.1770688
0.17711242
0.17715894
0.17720908
0.17726345
0.17732402
0.17739347
0.17747602
0.17757657
0.17769867
0.17784092
0.17798556
0.17807474
0.17790787
0.17663249
0.17040802
0.15234678
0.15203579
0.084115104
0.11184359
0.13930536
0.15838949
0.16926745
0.17438122
0.17636251
0.17693048
0.17686561
0.17676242
0.17667056
0.17653911
0.1765444
0.17653779
0.17653975
0.17654841
0.17656088
0.1765761
0.17659351
0.17661284
0.17663389
0.17665646
0.17668014
0.17670509
0.17673159
0.17675878
0.17678727
0.17681831
0.17685134
0.17688642
0.17692438
0.1769647
0.17700713
0.17705264
0.17710143
0.17715494
0.17721506
0.17728463
0.17736786
0.17746929
0.17759182
0.17773208
0.17786891
0.17793551
0.17769618
0.17615534
0.16907243
0.15058477
0.15276822
0.084589573
0.11249183
0.13992985
0.15883272
0.16948883
0.17443041
0.17631996
0.17683334
0.17676016
0.17665839
0.17656347
0.17644263
0.17644962
0.17644307
0.17644542
0.17645396
0.17646605
0.17648073
0.17649745
0.17651595
0.17653617
0.17655825
0.17658199
0.17660735
0.17663424
0.17666178
0.17668998
0.1767205
0.17675241
0.17678577
0.17682246
0.1768612
0.17690242
0.17694686
0.17699418
0.17704673
0.17710617
0.17717582
0.1772599
0.1773623
0.17748516
0.17762266
0.17774976
0.17778841
0.1774615
0.1755927
0.16755141
0.14883229
0.15378737
0.085000788
0.11308745
0.14051776
0.15925026
0.16969288
0.17446977
0.17627242
0.17673515
0.1766555
0.17655531
0.1764578
0.17634818
0.17635602
0.17634957
0.17635223
0.17636059
0.17637229
0.17638648
0.17640266
0.17642047
0.17643972
0.17646057
0.17648319
0.17650779
0.17653454
0.17656278
0.17659193
0.17662264
0.17665428
0.17668724
0.17672267
0.17675973
0.17679973
0.17684277
0.17688883
0.17694044
0.17699914
0.17706879
0.17715369
0.17725699
0.1773797
0.17751338
0.17762865
0.17763527
0.17719499
0.17493053
0.16577678
0.14708943
0.15561226
0.085338949
0.11362232
0.14106645
0.15964301
0.16988156
0.17450079
0.17622047
0.17663608
0.17655136
0.17645284
0.17635319
0.17625503
0.17626307
0.17625674
0.17625967
0.17626786
0.17627918
0.17629294
0.17630866
0.17632596
0.1763446
0.17636452
0.17638607
0.17640961
0.17643523
0.17646271
0.17649182
0.17652204
0.1765537
0.17658716
0.17662205
0.17665831
0.17669749
0.1767392
0.17678461
0.1768356
0.176894
0.17696402
0.17704982
0.17715414
0.17727628
0.17740522
0.17750577
0.17747218
0.17689866
0.17415494
0.16382936
0.14527786
0.15679226
0.085605038
0.11410851
0.14158787
0.16002006
0.17006052
0.17452623
0.17616548
0.1765362
0.17644718
0.17635024
0.17624892
0.17616229
0.17617001
0.17616388
0.17616711
0.17617518
0.17618623
0.1761996
0.17621489
0.17623181
0.17625
0.17626923
0.17628971
0.17631196
0.17633624
0.17636262
0.17639096
0.17642021
0.17645129
0.17648459
0.17651898
0.17655501
0.17659351
0.17663411
0.1766791
0.17672971
0.17678843
0.17685944
0.1769466
0.17705223
0.17717351
0.17729627
0.17737922
0.1772977
0.1765484
0.17325206
0.16169191
0.14376622
0.15896173
0.085822406
0.11456251
0.14209132
0.16038685
0.17023332
0.17454871
0.17610956
0.17643702
0.17634401
0.17624845
0.17614596
0.1760703
0.17607741
0.17607151
0.17607494
0.17608286
0.17609364
0.17610673
0.17612173
0.17613831
0.17615621
0.17617512
0.17619485
0.17621583
0.17623863
0.17626353
0.17629062
0.17631887
0.17634903
0.17638155
0.17641532
0.17645124
0.1764892
0.17652918
0.17657393
0.17662451
0.17668391
0.17675639
0.17684518
0.17695196
0.17707186
0.1771869
0.17724879
0.17710825
0.17614623
0.17207192
0.15930064
0.14244253
0.16049237
0.085993906
0.11503051
0.14262071
0.16077231
0.17041425
0.17457259
0.17605259
0.17633606
0.17623874
0.17614387
0.176041
0.17597557
0.17598177
0.17597606
0.17597953
0.17598709
0.1759974
0.17600998
0.1760245
0.17604079
0.17605853
0.17607734
0.17609682
0.17611695
0.17613838
0.17616164
0.1761869
0.17621397
0.17624297
0.17627408
0.17630685
0.17634217
0.17637948
0.17641908
0.17646363
0.17651446
0.17657517
0.17664946
0.17674012
0.17684775
0.17696516
0.17707018
0.17710393
0.17688595
0.17559592
0.17077688
0.15641892
0.14176839
0.16390088
0.086175268
0.11542805
0.14306285
0.16109184
0.17056047
0.17458737
0.17599986
0.17624726
0.17614643
0.17605252
0.17594967
0.17589204
0.17589744
0.17589194
0.17589545
0.17590265
0.17591242
0.17592428
0.17593805
0.17595371
0.17597112
0.17598995
0.17600973
0.17602996
0.17605089
0.1760732
0.17609717
0.1761232
0.17615127
0.17618097
0.17621257
0.17624706
0.1762836
0.17632313
0.17636806
0.17641973
0.17648209
0.17655866
0.17665199
0.17676113
0.17687687
0.17697095
0.17697889
0.17669605
0.17516093
0.16895132
0.15381132
0.14097269
0.16553228
0.086438859
0.11618208
0.14388237
0.16166565
0.17081675
0.17461112
0.17590972
0.17609705
0.17599025
0.17589569
0.1757959
0.17574872
0.17575262
0.17574735
0.17575078
0.1757574
0.17576623
0.17577684
0.1757891
0.17580309
0.17581897
0.1758368
0.17585613
0.17587639
0.17589713
0.17591861
0.17594138
0.175966
0.17599233
0.17601997
0.17604985
0.17608227
0.17611698
0.17615606
0.17620104
0.17625412
0.1763198
0.17640043
0.17649694
0.17660577
0.17671254
0.17677973
0.17670936
0.17617543
0.17358871
0.16574635
0.14883349
0.142021
0.17118363
)
;

boundaryField
{
    Side
    {
        type            empty;
    }
    Inlet
    {
        type            calculated;
        value           nonuniform List<scalar> 
21
(
0.19958971
0.199603
0.1996221
0.19963783
0.19965554
0.19968046
0.19970267
0.19972544
0.19975102
0.19978537
0.19982714
0.19986948
0.19991665
0.19998874
0.20006595
0.2001737
0.20029889
0.20047478
0.20061497
0.20084951
0.20083771
)
;
    }
    Airfoil
    {
        type            nutkWallFunction;
        blending        stepwise;
        value           nonuniform List<scalar> 0();
    }
    Outlet
    {
        type            calculated;
        value           nonuniform List<scalar> 
49
(
0.086438859
0.11618208
0.14388237
0.16166565
0.17081675
0.17461112
0.17590972
0.17609705
0.17599025
0.17589569
0.1757959
0.17574872
0.17575262
0.17574735
0.17575078
0.1757574
0.17576623
0.17577684
0.1757891
0.17580309
0.17581897
0.1758368
0.17585613
0.17587639
0.17589713
0.17591861
0.17594138
0.175966
0.17599233
0.17601997
0.17604985
0.17608227
0.17611698
0.17615606
0.17620104
0.17625412
0.1763198
0.17640043
0.17649694
0.17660577
0.17671254
0.17677973
0.17670936
0.17617543
0.17358871
0.16574635
0.14883349
0.142021
0.17118363
)
;
    }
    procBoundary13to6
    {
        type            processor;
        value           nonuniform List<scalar> 
34
(
0.073040075
0.073040075
0.074294955
0.074739435
0.075132327
0.075504602
0.075896796
0.076347486
0.076868805
0.077436257
0.078015565
0.07857635
0.079085008
0.079518496
0.079882442
0.080196503
0.080485141
0.080777398
0.081100532
0.081473566
0.081898168
0.082363687
0.082853925
0.083351746
0.083849588
0.084341657
0.084816338
0.085261365
0.085667568
0.086020557
0.086319473
0.086552147
0.086759336
0.087029518
)
;
    }
    procBoundary13to12
    {
        type            processor;
        value           nonuniform List<scalar> 
60
(
0.094237899
0.11993735
0.14191294
0.15816518
0.16906671
0.16906671
0.17501404
0.17794735
0.17921014
0.17943933
0.17938557
0.17918009
0.17918009
0.17902152
0.1788924
0.17886063
0.17884496
0.17873926
0.17873926
0.17875084
0.1787695
0.17879307
0.17871749
0.17871749
0.17874735
0.17877957
0.17881391
0.17885035
0.17878572
0.17878572
0.1788264
0.17886957
0.17891544
0.17885977
0.17885977
0.17891128
0.17896623
0.17902505
0.17898118
0.17898118
0.17904828
0.17912065
0.17908949
0.17908949
0.17917289
0.17926432
0.17925347
0.17925347
0.17936931
0.17950779
0.17956532
0.17956532
0.17976559
0.17996213
0.17984291
0.17984291
0.1787502
0.16943309
0.16943309
0.14958251
)
;
    }
}


// ************************************************************************* //
