/*--------------------------------*- C++ -*----------------------------------*\
| =========                 |                                                 |
| \\      /  F ield         | OpenFOAM: The Open Source CFD Toolbox           |
|  \\    /   O peration     | Version:  2506                                  |
|   \\  /    A nd           | Website:  www.openfoam.com                      |
|    \\/     M anipulation  |                                                 |
\*---------------------------------------------------------------------------*/
FoamFile
{
    version     2.0;
    format      ascii;
    arch        "LSB;label=32;scalar=64";
    class       volScalarField;
    location    "0.1";
    object      alphat;
}
// * * * * * * * * * * * * * * * * * * * * * * * * * * * * * * * * * * * * * //

dimensions      [1 -1 -1 0 0 0 0];

internalField   nonuniform List<scalar> 
1375
(
0.12839259
0.12841477
0.12843301
0.12845332
0.12848189
0.12852571
0.12858195
0.12864686
0.12872205
0.12881415
0.12895494
0.11062703
0.088157674
0.070471833
0.055955909
0.043845341
0.033903709
0.02598913
0.019699115
0.014629592
0.010556249
0.0073515804
0.0048577918
0.0029749838
0.0017519335
0.00065396635
0.13265385
0.13203647
0.13153629
0.13116224
0.1308427
0.13055706
0.13029401
0.13006566
0.12986917
0.12968597
0.12951107
0.12934227
0.12918092
0.1290307
0.12889345
0.12877102
0.12866325
0.128571
0.1285015
0.12845309
0.12841833
0.12840076
0.12839311
0.12838987
0.12841106
0.12843031
0.12844985
0.12847813
0.12852063
0.12857595
0.12863846
0.12870969
0.12880018
0.12894011
0.11357851
0.090510936
0.07226153
0.057358651
0.045006173
0.034841805
0.026715974
0.020271657
0.015043577
0.010928689
0.007541072
0.0051662879
0.0030556652
0.0019229752
0.00070928304
0.13264192
0.13202211
0.13151917
0.13114193
0.13082271
0.13053824
0.1302775
0.13005073
0.12985501
0.12967171
0.12949662
0.12932683
0.12916508
0.12901487
0.12887806
0.12875611
0.12864913
0.12855874
0.12849127
0.12844419
0.12841079
0.12839435
0.1283873
0.12838597
0.12840639
0.12842362
0.12844343
0.12847208
0.12851366
0.12856756
0.12862744
0.1286954
0.12878599
0.12892686
0.11577252
0.09242294
0.073696368
0.058540285
0.045957154
0.035712262
0.027391611
0.020758762
0.015534575
0.011071863
0.00802398
0.0049443664
0.0034989651
0.0018726916
0.00070379659
0.13262162
0.13199612
0.13148838
0.1311095
0.13079098
0.13050982
0.13025182
0.1300277
0.12983335
0.1296495
0.12947339
0.12930296
0.12913963
0.12898878
0.12885253
0.12873164
0.12862651
0.12853915
0.12847468
0.12842996
0.12839907
0.12838403
0.1283782
0.12838072
0.12840024
0.1284146
0.1284358
0.12846575
0.12850801
0.12856135
0.12861977
0.12868697
0.12878019
0.12892512
0.11312626
0.090341677
0.0720589
0.057075866
0.04513086
0.034916337
0.026958773
0.020462548
0.014886695
0.011314379
0.007377142
0.0057069285
0.0029211949
0.0019565566
0.00064616954
0.13259221
0.13195662
0.13144872
0.13106894
0.13075119
0.13047093
0.13021633
0.12999603
0.1298029
0.12961855
0.12944028
0.12927009
0.12910485
0.12895366
0.1288179
0.12869841
0.12859647
0.12851316
0.12845266
0.12841165
0.12838427
0.128371
0.12836688
0.12837309
0.12839004
0.12840324
0.12842511
0.1284564
0.12849847
0.12855101
0.12860968
0.12867911
0.12877715
0.12892746
0.11074675
0.088416287
0.070184992
0.055915629
0.043859845
0.034253199
0.026203646
0.019937174
0.015300828
0.010408135
0.0077080294
0.0049569989
0.003076549
0.0021519903
0.00073593926
0.13255087
0.13190639
0.13140303
0.1310222
0.13070354
0.13042138
0.13017134
0.12995603
0.12976396
0.12957922
0.12939774
0.12922416
0.12905964
0.12890917
0.12877462
0.12865767
0.12856023
0.12848208
0.12842706
0.12839098
0.1283675
0.12835649
0.12835438
0.12836417
0.1283769
0.12838973
0.12841282
0.12844521
0.12848612
0.12853669
0.12859538
0.12866739
0.12877036
0.12892615
0.10971099
0.087347259
0.069397994
0.055223404
0.043189579
0.034143402
0.026161638
0.019465249
0.014618206
0.010791432
0.007989812
0.004459125
0.0039101862
0.0015205926
0.00066831204
0.1324985
0.13185163
0.13135087
0.13097091
0.13064867
0.13036447
0.13011826
0.12990774
0.12971722
0.12953053
0.1293478
0.12917068
0.12900611
0.12885648
0.12872388
0.12861101
0.12851956
0.12844784
0.12839976
0.1283693
0.12834971
0.12834111
0.12834077
0.12835358
0.12836208
0.12837526
0.12839973
0.12843221
0.12847099
0.12851992
0.12858003
0.12865537
0.12876262
0.12892284
0.10838695
0.086258915
0.069088517
0.053758628
0.044394612
0.032723586
0.025798752
0.020717942
0.01438107
0.011142657
0.0071502742
0.0063655238
0.0026718108
0.0022247241
0.00070037215
0.13244187
0.13179339
0.13129593
0.13091408
0.13058826
0.13030284
0.13006151
0.12985263
0.12966327
0.12947377
0.12928949
0.12911042
0.12894483
0.1287965
0.12866706
0.1285602
0.12847655
0.128413
0.1283732
0.12834802
0.12833167
0.1283252
0.12832852
0.12834009
0.12834637
0.12836067
0.12838642
0.12841777
0.12845373
0.12850361
0.12856591
0.12864316
0.12875312
0.12891775
0.10656051
0.085553841
0.066604544
0.055704001
0.040787006
0.034812133
0.026069938
0.018563628
0.014784899
0.010243027
0.0075518035
0.0048475122
0.0036288447
0.0018481829
0.00066904621
0.13238298
0.13173168
0.13124096
0.13085407
0.13052407
0.13023735
0.13000129
0.12979208
0.12960076
0.12940879
0.12922302
0.12904347
0.12887808
0.12873214
0.12860756
0.12850892
0.12843414
0.12837948
0.12834784
0.12832711
0.12831406
0.12831089
0.12831683
0.12832336
0.12832959
0.12834584
0.12837227
0.1284008
0.12843441
0.12848401
0.1285469
0.12862607
0.12874013
0.12891022
0.10530322
0.082811596
0.067689047
0.051852179
0.043860008
0.032322226
0.024438395
0.019821858
0.01485991
0.011252724
0.0082098299
0.0051652408
0.0032071705
0.002081904
0.00071846605
0.13233347
0.13167462
0.13118387
0.13079213
0.13045937
0.13017097
0.12993387
0.12972768
0.1295316
0.12933747
0.1291493
0.12897002
0.12880674
0.12866517
0.12854863
0.12845997
0.12839448
0.12835005
0.12832526
0.12830811
0.12829819
0.12829624
0.12830238
0.12830584
0.12831249
0.12833055
0.12835688
0.1283822
0.12841504
0.12846687
0.12853021
0.12861108
0.12872865
0.12798769
0.10234018
0.082034419
0.065721222
0.052012523
0.041754616
0.031030418
0.026656141
0.019647363
0.014410239
0.010065401
0.007223871
0.0055074668
0.0035692611
0.0018482729
0.00063446858
0.13229161
0.13162269
0.13112336
0.13073054
0.13039139
0.13010388
0.12986515
0.12965718
0.12945591
0.12925851
0.12906895
0.12889105
0.12873273
0.1285976
0.12849031
0.1284132
0.12835735
0.12832336
0.12830518
0.12829089
0.12828356
0.12828361
0.12828772
0.12828924
0.12829602
0.12831638
0.1283409
0.12836218
0.12839546
0.12845037
0.12851451
0.12859726
0.12871781
0.12480672
0.10040071
0.080663737
0.063116625
0.052723929
0.03876653
0.034667547
0.023900464
0.018348921
0.013894002
0.01047566
0.0081108014
0.0056540087
0.002881074
0.0018866755
0.00070647715
0.1322513
0.13156968
0.13105702
0.13066074
0.13031876
0.13003165
0.12979434
0.12958392
0.12937753
0.12917544
0.12898556
0.12881102
0.12865876
0.12853301
0.12843722
0.1283704
0.12832404
0.12829944
0.12828515
0.12827287
0.12826813
0.12827053
0.12827308
0.12827294
0.12828072
0.12830142
0.12832268
0.12834288
0.12837985
0.12843456
0.12849746
0.12858305
0.12871008
0.12195017
0.097746385
0.078667208
0.063780757
0.04974863
0.04301482
0.029511854
0.024523798
0.018920756
0.015506653
0.011427376
0.0077339886
0.0046570648
0.0059472781
0.0012485278
0.00063397311
0.13221487
0.1315103
0.13099035
0.13058358
0.1302423
0.12995788
0.12972033
0.12950659
0.12929232
0.12908842
0.12890033
0.12873081
0.12858689
0.12847208
0.12839018
0.12833393
0.12829806
0.12828063
0.12827031
0.1282577
0.12825293
0.12825625
0.12825897
0.12825935
0.12826632
0.12828558
0.12830428
0.12832368
0.1283618
0.12841743
0.12848059
0.12856974
0.12870041
0.11993963
0.096925392
0.077123971
0.061695777
0.05067909
0.037571784
0.031120034
0.024690891
0.020704634
0.012901392
0.010214553
0.0070725569
0.0067822089
0.0017595094
0.0026272277
0.00062161088
0.13217534
0.13144886
0.13092074
0.13050445
0.1301633
0.12988199
0.12964347
0.12942501
0.12920448
0.12900047
0.12881585
0.12865429
0.12851942
0.12841756
0.12834967
0.12830386
0.12827755
0.12826475
0.12825747
0.12824601
0.12824055
0.12824313
0.12824587
0.12824515
0.12825453
0.12827239
0.12828592
0.12830542
0.12834698
0.12840272
0.12846448
0.12855649
0.12869278
0.11639668
0.093874258
0.075595082
0.062054035
0.049137992
0.03907921
0.032362189
0.025400615
0.016514166
0.015833996
0.010716154
0.0085684888
0.005199806
0.0037595938
0.0012823678
0.0006479119
0.13213316
0.13138589
0.13084517
0.13042312
0.1300831
0.1298056
0.12956617
0.12934102
0.12911732
0.1289153
0.12873352
0.12858199
0.12845887
0.12837359
0.12831628
0.12828069
0.12826118
0.12825199
0.12824499
0.12823437
0.12823103
0.12823144
0.12823124
0.12823163
0.12824207
0.12825773
0.12826931
0.12829155
0.12833316
0.12838706
0.1284492
0.12854581
0.12868708
0.11506709
0.093546005
0.075298059
0.061212996
0.047122146
0.039014068
0.029640051
0.02214174
0.019486912
0.014714615
0.0095338464
0.008747616
0.0050749123
0.0029035199
0.0014610897
0.00056134962
0.13208912
0.13131986
0.13076796
0.13034171
0.13000294
0.12973003
0.12948984
0.12925778
0.12903209
0.12883202
0.12865791
0.12851683
0.12840607
0.12833581
0.12828989
0.12826306
0.12824921
0.12824117
0.1282337
0.12822561
0.12822253
0.12822231
0.12822004
0.12822125
0.12822722
0.12824145
0.12825708
0.12827942
0.12832025
0.12837186
0.12843587
0.12853646
0.1286853
0.11185248
0.089572836
0.073971977
0.058315427
0.048459392
0.038411806
0.030141693
0.024972434
0.019676201
0.012976948
0.010685209
0.0084358183
0.0056301568
0.004569983
0.0016554259
0.00056213219
0.13203708
0.13125271
0.1306891
0.13026077
0.12992565
0.12965554
0.12941333
0.12917548
0.12894894
0.1287512
0.12858776
0.12845882
0.12836168
0.12830384
0.12826862
0.12825062
0.12824034
0.12823162
0.12822339
0.12821788
0.12821541
0.1282123
0.12821095
0.12821271
0.12821515
0.12822617
0.12824366
0.12826684
0.12830538
0.12835728
0.12842506
0.12853003
0.12868419
0.11208944
0.091199757
0.072408194
0.059208377
0.048003704
0.03708233
0.030444838
0.02516474
0.015675809
0.018075297
0.0088252491
0.0065991639
0.0058806794
0.0061462725
0.003072717
0.0005133078
0.1319956
0.13119152
0.13061247
0.1301819
0.12985218
0.12958482
0.12933738
0.12909495
0.12887047
0.12867706
0.12852497
0.12840771
0.12832516
0.1282804
0.12825292
0.1282406
0.12823297
0.1282247
0.12821681
0.12821045
0.12820693
0.12820232
0.12820162
0.12820293
0.12820303
0.12821319
0.12822979
0.12825532
0.12829364
0.12834133
0.12841476
0.12852552
0.12868736
0.10856025
0.087202841
0.071833376
0.059956464
0.044722608
0.03609805
0.030072089
0.019885826
0.020504679
0.010436355
0.0081569349
0.011361573
0.0075756929
0.0056114222
0.003225706
0.00054785818
0.13192791
0.13111053
0.13052835
0.13009987
0.12977583
0.12951139
0.1292602
0.12901329
0.12879376
0.12860918
0.12846856
0.12836445
0.12829466
0.12826329
0.12824258
0.12823066
0.12822485
0.12821889
0.1282094
0.12820468
0.12820121
0.12819509
0.12819282
0.12819073
0.12819277
0.12819964
0.12822028
0.12824507
0.12827812
0.1283243
0.12840512
0.12853095
0.12869715
0.11242204
0.086985427
0.06921623
0.054489531
0.044017492
0.040938146
0.029384022
0.027285997
0.018766767
0.018798289
0.012019555
0.0042247158
0.0046210747
0.0061438558
0.0036635112
0.00054580181
0.13193218
0.13108868
0.13047994
0.13004458
0.12971976
0.12945247
0.12919809
0.12894941
0.12873191
0.12855606
0.12842462
0.12833261
0.12827422
0.12825145
0.12823656
0.12822401
0.12821738
0.12821246
0.12820294
0.12819941
0.12819468
0.12818784
0.12818617
0.12818141
0.12818251
0.12818932
0.12820793
0.12823196
0.1282617
0.12830749
0.12839377
0.12852564
0.12869981
0.10598681
0.0872978
0.075209802
0.053530988
0.050982084
0.036958965
0.026450668
0.024334049
0.016421504
0.0065115922
0.010987521
0.0061007835
0.0080293891
0.005205923
0.0045066536
0.00050836545
0.00051677246
0.006844447
0.008546794
0.0097626368
0.0053832395
0.0052916035
0.016098351
0.015717413
0.019614471
0.029639556
0.030776191
0.044512057
0.057927225
0.06761184
0.083399478
0.10958745
0.12484145
0.12853804
0.12840293
0.12830338
0.12824828
0.12822592
0.12820137
0.12818495
0.12817421
0.12817516
0.12817631
0.12818162
0.1281875
0.12819329
0.12819865
0.12820754
0.12821281
0.12821991
0.1282299
0.128241
0.12825519
0.12829657
0.12837186
0.128485
0.12864538
0.12885424
0.1290979
0.12935641
0.12962475
0.12993908
0.13035605
0.13096468
0.13179754
0.00052380556
0.0055978026
0.0063646877
0.0044122001
0.0089736665
0.010461782
0.019150911
0.015395575
0.023948159
0.026334314
0.036524246
0.043294385
0.051293225
0.067030263
0.082258091
0.094119517
0.12509353
0.12855406
0.12840939
0.12830124
0.12823716
0.12821857
0.12819299
0.12818021
0.1281661
0.12816597
0.12816695
0.12817416
0.12817994
0.12818566
0.12819307
0.1282032
0.12820955
0.12821409
0.12822131
0.12823275
0.12824197
0.12826933
0.12832747
0.12842141
0.12856519
0.12875742
0.12899389
0.12925441
0.12952419
0.12982872
0.1302276
0.13082494
0.13161036
0.00052762553
0.0056174127
0.0074307451
0.0053640877
0.013977868
0.0094985892
0.012397295
0.02082083
0.022210571
0.026877899
0.038231047
0.041886519
0.062761841
0.064730114
0.080775776
0.11468583
0.12710332
0.12857307
0.12841885
0.12830508
0.12823161
0.12820611
0.12818677
0.12817504
0.12815894
0.1281624
0.12816123
0.12816637
0.12817364
0.12817939
0.12818843
0.1281986
0.12820491
0.12820721
0.12821501
0.12822615
0.12823545
0.12825204
0.12829347
0.12836876
0.12849261
0.12866737
0.12889183
0.12915066
0.12942416
0.12972359
0.13010322
0.13067564
0.13144586
0.00052562397
0.011031732
0.012360543
0.009210934
0.012223669
0.0086842084
0.016539294
0.015161058
0.03022581
0.038355834
0.03783541
0.046570078
0.058881462
0.069848693
0.087040404
0.087863849
0.1166034
0.12860364
0.12843505
0.12830728
0.12822734
0.1281954
0.12818433
0.12816813
0.1281599
0.1281568
0.1281548
0.12816059
0.12816745
0.12817285
0.12818333
0.12819505
0.12820151
0.12820454
0.12821191
0.12822164
0.12822934
0.12823991
0.12826816
0.12832534
0.12842951
0.12858516
0.12879551
0.12904904
0.1293248
0.12962193
0.12998324
0.13053504
0.1313118
0.00053278564
0.012263944
0.0060605503
0.0093654127
0.0056257646
0.023765103
0.020287009
0.023326688
0.028690597
0.025126613
0.037846677
0.030863725
0.040359226
0.057277303
0.064726412
0.10239403
0.11785071
0.1286176
0.12845104
0.12831357
0.12822639
0.12818183
0.12817512
0.12815992
0.12814911
0.1281442
0.12814642
0.12815171
0.12816008
0.12816706
0.12817712
0.12819087
0.12820035
0.12820349
0.12820916
0.12821688
0.12822429
0.12823151
0.12825012
0.12829354
0.12837636
0.12851144
0.12870561
0.12894988
0.12922422
0.12952285
0.12987199
0.13040205
0.13117792
0.00054612372
0.011787716
0.011431891
0.0053491778
0.010456346
0.020396707
0.038966706
0.037976696
0.022578206
0.0267952
0.035857906
0.044054085
0.070726227
0.076774361
0.1015911
0.10815564
0.1251511
0.12862925
0.12847911
0.12832891
0.12822701
0.12817197
0.12816448
0.12815309
0.12814618
0.12813756
0.12813926
0.12814554
0.12815703
0.12816724
0.128173
0.12818555
0.12819765
0.1282026
0.12820718
0.12821491
0.1282213
0.12822491
0.12823852
0.1282695
0.12833391
0.12844915
0.12862267
0.12885237
0.12912347
0.12942836
0.12977112
0.13027568
0.13103765
0.024171109
0.013777313
0.025182112
0.016320989
0.02375367
0.015636012
0.028449461
0.023996001
0.033021587
0.054468471
0.061138503
0.082940234
0.1103654
0.12866876
0.12850721
0.12835335
0.1282407
0.12817412
0.12815676
0.12815521
0.12814726
0.12814783
0.12814234
0.12814553
0.12815593
0.12816569
0.12817022
0.12818139
0.1281952
0.12820068
0.12820534
0.12821351
0.12821811
0.12822091
0.1282308
0.12825143
0.12830148
0.12839569
0.12854798
0.12876314
0.12902739
0.12933536
0.12967348
0.13016124
0.13090074
0.03506894
0.060032847
0.072853974
0.093708389
0.11137521
0.12868173
0.12851901
0.12836025
0.12823372
0.12816496
0.12814366
0.12814435
0.12813938
0.12813805
0.1281311
0.12813803
0.12815105
0.12816012
0.1281658
0.12817729
0.12819202
0.1282006
0.12820471
0.12821007
0.1282165
0.12822085
0.12822584
0.12823959
0.12827543
0.12835249
0.12848321
0.1286801
0.12893487
0.12924228
0.1295784
0.13004499
0.13076593
0.1281377
0.12813688
0.12813072
0.12813052
0.12812447
0.12813182
0.12814735
0.1281578
0.12816576
0.12817544
0.12818908
0.12819907
0.1282044
0.12820947
0.12821606
0.12821919
0.12822244
0.12823254
0.12825786
0.1283176
0.12842874
0.12860434
0.12884485
0.12915074
0.12948635
0.12993921
0.13063936
0.12820294
0.12820997
0.12821577
0.12821733
0.12821965
0.12822544
0.12824585
0.12829098
0.12838245
0.1285362
0.12875931
0.12906361
0.12939697
0.12983783
0.13051747
)
;

boundaryField
{
    Side
    {
        type            empty;
    }
    Inlet
    {
        type            calculated;
        value           nonuniform List<scalar> 
29
(
0.1326601
0.13264523
0.13262046
0.13258757
0.13255027
0.13251399
0.1324822
0.1324588
0.13244225
0.13243159
0.13242397
0.13241656
0.1324067
0.13238806
0.1323669
0.13234109
0.13231413
0.13229388
0.13227821
0.13223435
0.13243326
0.13253783
0.13250548
0.13246615
0.13244248
0.13243773
0.13242814
0.13241426
0.1318788
)
;
    }
    Airfoil
    {
        type            compressible::alphatWallFunction;
        value           nonuniform List<scalar> 
26
(
0.00075202165
0.00075105219
0.00074872976
0.00074494945
0.00074004454
0.00073431152
0.00072785693
0.00072092582
0.0007138082
0.00070674079
0.00069981705
0.00069356394
0.00068741483
0.00068329877
0.00068000214
0.00067700136
0.00067692796
0.00067749338
0.00068169916
0.00068961852
0.00069394688
0.00069500168
0.00069963296
0.00070494728
0.00071100701
0.00071991195
)
;
    }
    Outlet
    {
        type            calculated;
        value           nonuniform List<scalar> 0();
    }
    procBoundary0to1
    {
        type            processor;
        value           nonuniform List<scalar> 
53
(
0.00057600903
0.011185204
0.0089553795
0.011887672
0.011887672
0.022578126
0.011228957
0.016252584
0.012203369
0.019234766
0.025448839
0.033936969
0.056030397
0.056030397
0.022177375
0.090346
0.082433233
0.11775486
0.12887943
0.12868403
0.12851463
0.12841447
0.12827489
0.12817985
0.12817985
0.12814721
0.12814192
0.12813455
0.12814682
0.12813056
0.12813537
0.12814874
0.12816165
0.12816625
0.12817708
0.12819031
0.12819837
0.12819837
0.12820422
0.1282097
0.12821626
0.12821756
0.12821929
0.12822423
0.12823407
0.12827246
0.12834482
0.12847716
0.12868092
0.12897861
0.12930961
0.12974372
0.13040148
)
;
    }
    procBoundary0to7
    {
        type            processor;
        value           nonuniform List<scalar> 
50
(
0.12838959
0.1284119
0.12843243
0.12845101
0.12847847
0.12852141
0.12857535
0.12863914
0.12871419
0.1288032
0.1289376
0.11337154
0.090269608
0.0723045
0.057492713
0.045037474
0.034777288
0.026666225
0.02026168
0.015051497
0.010876331
0.0075879081
0.005063928
0.0031336154
0.0018656909
0.00068324101
0.13265781
0.1320396
0.13154063
0.13116877
0.13085025
0.13056331
0.13029955
0.13007093
0.1298743
0.12969132
0.12951674
0.12934757
0.12918546
0.12903505
0.12889792
0.12877572
0.12866802
0.12857538
0.12850512
0.12845616
0.12842122
0.12840295
0.1283933
0.1283933
)
;
    }
}


// ************************************************************************* //
