/*--------------------------------*- C++ -*----------------------------------*\
| =========                 |                                                 |
| \\      /  F ield         | OpenFOAM: The Open Source CFD Toolbox           |
|  \\    /   O peration     | Version:  2506                                  |
|   \\  /    A nd           | Website:  www.openfoam.com                      |
|    \\/     M anipulation  |                                                 |
\*---------------------------------------------------------------------------*/
FoamFile
{
    version     2.0;
    format      ascii;
    arch        "LSB;label=32;scalar=64";
    class       volScalarField;
    location    "0.0135";
    object      nut;
}
// * * * * * * * * * * * * * * * * * * * * * * * * * * * * * * * * * * * * * //

dimensions      [0 2 -1 0 0 0 0];

internalField   nonuniform List<scalar> 
13761
(
3.7906974e-06
3.7906928e-06
3.790765e-06
3.7907113e-06
3.7907085e-06
3.7907799e-06
3.7907224e-06
3.7907812e-06
3.74136e-06
3.7907342e-06
3.7413598e-06
3.7908142e-06
3.7413595e-06
3.7907573e-06
3.7413595e-06
3.7907544e-06
3.7413594e-06
3.7908305e-06
3.7413593e-06
3.7907695e-06
3.7413597e-06
3.7908474e-06
3.7413614e-06
3.7907851e-06
3.741134e-06
3.7413706e-06
3.7908655e-06
3.741134e-06
3.7414169e-06
3.7908102e-06
3.7411339e-06
3.7414935e-06
3.7908082e-06
3.7411339e-06
3.7415626e-06
3.7910362e-06
3.7411338e-06
3.7416006e-06
3.7908709e-06
3.7411337e-06
3.741612e-06
3.791154e-06
3.7411337e-06
3.74161e-06
3.7905816e-06
3.7411367e-06
3.7411341e-06
3.7415953e-06
3.7904478e-06
3.7411366e-06
3.7411414e-06
3.7415833e-06
3.7899227e-06
3.7411364e-06
3.7411776e-06
3.7415794e-06
3.7936203e-06
3.7411363e-06
3.7412496e-06
3.7415838e-06
3.7930401e-06
3.7411361e-06
3.7413229e-06
3.7416293e-06
3.791049e-06
3.7411358e-06
3.7413681e-06
3.7416967e-06
3.7909254e-06
3.7411356e-06
3.7413847e-06
3.7417202e-06
3.7411354e-06
3.7413868e-06
3.7417016e-06
3.7411309e-06
3.7411354e-06
3.741376e-06
3.7416917e-06
3.7411308e-06
3.7411398e-06
3.7413575e-06
3.74171e-06
3.7411305e-06
3.7411668e-06
3.7413504e-06
3.7417363e-06
3.7411305e-06
3.7412324e-06
3.7413513e-06
3.7417443e-06
3.7411302e-06
3.7413093e-06
3.7413811e-06
3.7417303e-06
3.7411299e-06
3.7413631e-06
3.7414557e-06
3.7417383e-06
3.7411296e-06
3.7413864e-06
3.741515e-06
3.7417992e-06
3.7411299e-06
3.7413912e-06
3.7415148e-06
3.7411308e-06
3.7411308e-06
3.7413853e-06
3.7414842e-06
3.7411308e-06
3.7411497e-06
3.7413639e-06
3.7414722e-06
3.7411307e-06
3.7412059e-06
3.7413503e-06
3.7414879e-06
3.7411304e-06
3.7412843e-06
3.7413473e-06
3.7415094e-06
3.74113e-06
3.7413469e-06
3.7413528e-06
3.7415131e-06
3.7411297e-06
3.7413785e-06
3.7413936e-06
3.7415e-06
3.7411294e-06
3.7413869e-06
3.7414583e-06
3.7415148e-06
3.7411309e-06
3.7411291e-06
3.7413857e-06
3.7414937e-06
3.7415816e-06
3.7411309e-06
3.7411299e-06
3.7413661e-06
3.7414821e-06
3.7411308e-06
3.7411412e-06
3.7413461e-06
3.7414641e-06
3.7411304e-06
3.7411863e-06
3.7413389e-06
3.7414724e-06
3.7411298e-06
3.7412624e-06
3.7413385e-06
3.7414994e-06
3.7411295e-06
3.7413328e-06
3.7413538e-06
3.7415215e-06
3.7411291e-06
3.7413736e-06
3.7413991e-06
3.741519e-06
3.7411314e-06
3.7411287e-06
3.7413876e-06
3.7414456e-06
3.7415008e-06
3.7411314e-06
3.7411287e-06
3.741389e-06
3.7414564e-06
3.7415137e-06
3.7411312e-06
3.741129e-06
3.7413748e-06
3.741439e-06
3.7415791e-06
3.7411306e-06
3.7411352e-06
3.7413501e-06
3.7414374e-06
3.74113e-06
3.7411686e-06
3.7413376e-06
3.7414656e-06
3.7411295e-06
3.7412389e-06
3.7413352e-06
3.7415029e-06
3.7411291e-06
3.7413148e-06
3.7413405e-06
3.741525e-06
3.741132e-06
3.7411287e-06
3.7413654e-06
3.7413762e-06
3.7415162e-06
3.741132e-06
3.7411287e-06
3.7413865e-06
3.7414344e-06
3.7414936e-06
3.7411317e-06
3.7411288e-06
3.7413906e-06
3.7414783e-06
3.7415053e-06
3.741131e-06
3.7411318e-06
3.7413833e-06
3.7414792e-06
3.7415692e-06
3.7411302e-06
3.7411547e-06
3.7413582e-06
3.7414583e-06
3.7411297e-06
3.7412159e-06
3.7413405e-06
3.7414557e-06
3.7411292e-06
3.7412946e-06
3.7413354e-06
3.7414782e-06
3.7411326e-06
3.7411286e-06
3.7413549e-06
3.741336e-06
3.7415074e-06
3.7411327e-06
3.7411286e-06
3.7413846e-06
3.7413574e-06
3.7415225e-06
3.7411322e-06
3.7411287e-06
3.7413923e-06
3.7414123e-06
3.7415097e-06
3.7411313e-06
3.74113e-06
3.7413905e-06
3.7414752e-06
3.7414903e-06
3.7411304e-06
3.7411442e-06
3.7413689e-06
3.7415094e-06
3.7415089e-06
3.7411298e-06
3.7411942e-06
3.741346e-06
3.741497e-06
3.7415776e-06
3.7411292e-06
3.7412718e-06
3.7413367e-06
3.7414701e-06
3.7411331e-06
3.7411286e-06
3.7413406e-06
3.7413352e-06
3.7414643e-06
3.7411328e-06
3.7411286e-06
3.7413797e-06
3.7413421e-06
3.7414824e-06
3.7411316e-06
3.7411286e-06
3.7413931e-06
3.7413737e-06
3.7415073e-06
3.7411307e-06
3.7411291e-06
3.7413944e-06
3.7414207e-06
3.7415186e-06
3.74113e-06
3.7411373e-06
3.7413799e-06
3.7414635e-06
3.741504e-06
3.7411293e-06
3.7411757e-06
3.7413534e-06
3.7414764e-06
3.741489e-06
3.7411342e-06
3.7411286e-06
3.7412487e-06
3.7413387e-06
3.7414591e-06
3.7415145e-06
3.7411342e-06
3.7411286e-06
3.7413236e-06
3.7413351e-06
3.7414475e-06
3.7415877e-06
3.7411332e-06
3.7411286e-06
3.7413723e-06
3.7413363e-06
3.7414623e-06
3.741132e-06
3.7411286e-06
3.7413923e-06
3.7413566e-06
3.7414933e-06
3.741131e-06
3.7411288e-06
3.7413962e-06
3.7414014e-06
3.7415211e-06
3.7411302e-06
3.7411331e-06
3.7413887e-06
3.741455e-06
3.7415273e-06
3.7411295e-06
3.7411606e-06
3.7413623e-06
3.741497e-06
3.7415052e-06
3.7411345e-06
3.7411287e-06
3.7412259e-06
3.7413424e-06
3.7415007e-06
3.7414869e-06
3.7411341e-06
3.7411286e-06
3.7413041e-06
3.7413358e-06
3.7414762e-06
3.7415105e-06
3.7411325e-06
3.7411286e-06
3.7413622e-06
3.7413353e-06
3.7414608e-06
3.7415818e-06
3.7411314e-06
3.7411287e-06
3.7413905e-06
3.7413452e-06
3.7414706e-06
3.7411305e-06
3.7411308e-06
3.741398e-06
3.7413747e-06
3.7414955e-06
3.7411296e-06
3.7411492e-06
3.7413967e-06
3.741412e-06
3.7415183e-06
3.7411351e-06
3.7411287e-06
3.7412047e-06
3.7413762e-06
3.7414494e-06
3.7415204e-06
3.7411346e-06
3.7411287e-06
3.7412832e-06
3.7413517e-06
3.7414712e-06
3.7414981e-06
3.7411328e-06
3.7411287e-06
3.7413492e-06
3.7413403e-06
3.7414622e-06
3.741486e-06
3.7411316e-06
3.7411287e-06
3.7413855e-06
3.7413378e-06
3.7414453e-06
3.7415167e-06
3.7411308e-06
3.7411287e-06
3.7413976e-06
3.7413398e-06
3.7414499e-06
3.7415925e-06
3.7411298e-06
3.7411297e-06
3.7413986e-06
3.741359e-06
3.7414771e-06
3.7411321e-06
3.7411287e-06
3.7411416e-06
3.7413834e-06
3.7413945e-06
3.7415104e-06
3.7411316e-06
3.7411287e-06
3.7411871e-06
3.7413559e-06
3.7414368e-06
3.7415328e-06
3.74113e-06
3.7411287e-06
3.741263e-06
3.7413402e-06
3.7414794e-06
3.741528e-06
3.7411291e-06
3.7411287e-06
3.7413351e-06
3.7413362e-06
3.7414986e-06
3.741499e-06
3.7411281e-06
3.7411287e-06
3.7413801e-06
3.7413368e-06
3.7414836e-06
3.7414848e-06
3.7411257e-06
3.741127e-06
3.7411291e-06
3.7413981e-06
3.7413509e-06
3.7414631e-06
3.7415138e-06
3.7411251e-06
3.741127e-06
3.7411364e-06
3.7414016e-06
3.7413782e-06
3.741463e-06
3.7415879e-06
3.741123e-06
3.741127e-06
3.7411719e-06
3.7413947e-06
3.7414073e-06
3.7414835e-06
3.7411219e-06
3.741127e-06
3.7412427e-06
3.7413688e-06
3.7414377e-06
3.7415104e-06
3.7411209e-06
3.7411271e-06
3.741319e-06
3.7413477e-06
3.7414637e-06
3.7415279e-06
3.7411198e-06
3.7411271e-06
3.741372e-06
3.7413395e-06
3.7414657e-06
3.7415192e-06
3.741107e-06
3.7411186e-06
3.7411273e-06
3.7413965e-06
3.7413382e-06
3.741449e-06
3.7414922e-06
3.7411066e-06
3.7411187e-06
3.7411317e-06
3.7414026e-06
3.7413423e-06
3.7414434e-06
3.7414861e-06
3.741105e-06
3.7411188e-06
3.7411587e-06
3.7414007e-06
3.7413623e-06
3.7414621e-06
3.7415225e-06
3.7411042e-06
3.7411189e-06
3.7412229e-06
3.7413792e-06
3.7413911e-06
3.7414951e-06
3.7416006e-06
3.7411032e-06
3.741119e-06
3.7413011e-06
3.7413541e-06
3.741424e-06
3.7415262e-06
3.7410699e-06
3.741102e-06
3.7411191e-06
3.7413611e-06
3.7413419e-06
3.7414633e-06
3.7415404e-06
3.7410698e-06
3.7411023e-06
3.7411193e-06
3.7413921e-06
3.741339e-06
3.7414941e-06
3.7415242e-06
3.7410684e-06
3.7411026e-06
3.741122e-06
3.7414019e-06
3.7413397e-06
3.7414925e-06
3.741492e-06
3.7410677e-06
3.7411029e-06
3.7411421e-06
3.7414023e-06
3.7413528e-06
3.7414714e-06
3.7414846e-06
3.7410668e-06
3.7411031e-06
3.7411989e-06
3.7413871e-06
3.7413799e-06
3.7414618e-06
3.7415193e-06
3.7410095e-06
3.7410658e-06
3.7411033e-06
3.7412773e-06
3.7413603e-06
3.7414132e-06
3.7414745e-06
3.7415966e-06
3.7410099e-06
3.7410664e-06
3.7411036e-06
3.741344e-06
3.7413445e-06
3.741455e-06
3.7415005e-06
3.7410089e-06
3.741067e-06
3.7411054e-06
3.7413832e-06
3.7413397e-06
3.7415033e-06
3.7415259e-06
3.7410081e-06
3.7410675e-06
3.7411201e-06
3.7413986e-06
3.7413394e-06
3.7415293e-06
3.7415354e-06
3.7409439e-06
3.7410072e-06
3.7410681e-06
3.7411691e-06
3.7414014e-06
3.7413474e-06
3.7415138e-06
3.7415164e-06
3.7409439e-06
3.741008e-06
3.7410686e-06
3.7412454e-06
3.7413948e-06
3.7413675e-06
3.7414825e-06
3.7414887e-06
3.7409426e-06
3.7410089e-06
3.7410691e-06
3.7413161e-06
3.7413683e-06
3.74139e-06
3.7414664e-06
3.7414896e-06
3.7409421e-06
3.7410098e-06
3.7410697e-06
3.7413606e-06
3.7413454e-06
3.7414151e-06
3.7414736e-06
3.7415301e-06
3.740941e-06
3.7410107e-06
3.7410713e-06
3.7413794e-06
3.7413356e-06
3.7414498e-06
3.7414959e-06
3.7416097e-06
3.7408949e-06
3.74094e-06
3.7410115e-06
3.7410828e-06
3.7413832e-06
3.7413333e-06
3.7414881e-06
3.7415199e-06
3.7408948e-06
3.740941e-06
3.7410124e-06
3.741126e-06
3.7413798e-06
3.7413344e-06
3.7415009e-06
3.7415283e-06
3.7408932e-06
3.740942e-06
3.7410132e-06
3.7412002e-06
3.7413567e-06
3.741346e-06
3.7414841e-06
3.7415102e-06
3.7408917e-06
3.7409429e-06
3.741014e-06
3.7412748e-06
3.741334e-06
3.7413685e-06
3.7414666e-06
3.7414897e-06
3.7408872e-06
3.7408902e-06
3.7409439e-06
3.7410156e-06
3.7413259e-06
3.7413239e-06
3.7413967e-06
3.7414683e-06
3.7414997e-06
3.7408862e-06
3.7408909e-06
3.7409448e-06
3.7410244e-06
3.741351e-06
3.7413215e-06
3.741435e-06
3.7414879e-06
3.7415449e-06
3.7408839e-06
3.7408917e-06
3.7409458e-06
3.7410615e-06
3.7413588e-06
3.7413232e-06
3.7414866e-06
3.7415143e-06
3.7416259e-06
3.7408815e-06
3.7408924e-06
3.7409467e-06
3.7411322e-06
3.7413588e-06
3.7413348e-06
3.7415271e-06
3.7415351e-06
3.7409018e-06
3.7408796e-06
3.7408932e-06
3.7409476e-06
3.741209e-06
3.7413424e-06
3.7413529e-06
3.7415251e-06
3.7415348e-06
3.7409002e-06
3.7408798e-06
3.7408939e-06
3.7409491e-06
3.7412657e-06
3.7413147e-06
3.7413703e-06
3.7414941e-06
3.7415082e-06
3.7408975e-06
3.74088e-06
3.7408946e-06
3.7409562e-06
3.7412959e-06
3.7412982e-06
3.7413906e-06
3.7414681e-06
3.7414849e-06
3.7408949e-06
3.7408803e-06
3.7408953e-06
3.7409885e-06
3.741307e-06
3.7412927e-06
3.7414227e-06
3.7414638e-06
3.7414947e-06
3.7408327e-06
3.7408928e-06
3.7408806e-06
3.740896e-06
3.7410556e-06
3.7413084e-06
3.7412917e-06
3.7414666e-06
3.7414788e-06
3.7415391e-06
3.7408301e-06
3.7408931e-06
3.740881e-06
3.7408966e-06
3.7411333e-06
3.7412984e-06
3.7412952e-06
3.741493e-06
3.7415029e-06
3.7416204e-06
3.7408277e-06
3.7408934e-06
3.7408813e-06
3.7408977e-06
3.7411938e-06
3.7412709e-06
3.7413086e-06
3.7414834e-06
3.7415224e-06
3.7408248e-06
3.7408938e-06
3.7408817e-06
3.740903e-06
3.7412283e-06
3.7412512e-06
3.7413288e-06
3.7414606e-06
3.7415214e-06
3.7406661e-06
3.7408225e-06
3.7408942e-06
3.740882e-06
3.7409308e-06
3.7412421e-06
3.7412438e-06
3.7413535e-06
3.7414512e-06
3.7414988e-06
3.7406625e-06
3.7408238e-06
3.7408945e-06
3.7408823e-06
3.7409945e-06
3.7412446e-06
3.7412419e-06
3.7413899e-06
3.7414614e-06
3.7414846e-06
3.7406612e-06
3.7408249e-06
3.7408947e-06
3.7408831e-06
3.741074e-06
3.7412397e-06
3.7412443e-06
3.7414434e-06
3.7414842e-06
3.7415016e-06
3.7406559e-06
3.7408269e-06
3.740895e-06
3.7408871e-06
3.7411407e-06
3.7412139e-06
3.7412541e-06
3.7414942e-06
3.7415094e-06
3.7415478e-06
3.7404734e-06
3.7406512e-06
3.7408292e-06
3.740895e-06
3.7409111e-06
3.7411819e-06
3.7411914e-06
3.7412703e-06
3.7415046e-06
3.7415241e-06
3.741629e-06
3.7404641e-06
3.7406521e-06
3.7408313e-06
3.740895e-06
3.74097e-06
3.7412001e-06
3.7411816e-06
3.7412876e-06
3.7414758e-06
3.7415137e-06
3.7404586e-06
3.7406516e-06
3.7408336e-06
3.7408949e-06
3.7410466e-06
3.7412045e-06
3.7411789e-06
3.7413098e-06
3.7414417e-06
3.7414843e-06
3.7403804e-06
3.7404521e-06
3.7406515e-06
3.7408358e-06
3.7408958e-06
3.7411125e-06
3.7412012e-06
3.74118e-06
3.7413459e-06
3.7414257e-06
3.741469e-06
3.7403763e-06
3.740448e-06
3.740651e-06
3.7408379e-06
3.7408994e-06
3.7411544e-06
3.7411742e-06
3.7411869e-06
3.7413969e-06
3.7414314e-06
3.7414871e-06
3.7403739e-06
3.7404422e-06
3.7406514e-06
3.7408396e-06
3.7409218e-06
3.7411739e-06
3.7411436e-06
3.7412008e-06
3.741435e-06
3.7414518e-06
3.7415339e-06
3.7398891e-06
3.74037e-06
3.7404374e-06
3.740652e-06
3.740841e-06
3.7409798e-06
3.7411797e-06
3.7411266e-06
3.7412153e-06
3.7414328e-06
3.7414765e-06
3.7416166e-06
3.7399366e-06
3.7403644e-06
3.7404331e-06
3.7406529e-06
3.7408431e-06
3.7410585e-06
3.7411785e-06
3.7411207e-06
3.7412305e-06
3.7414062e-06
3.741491e-06
3.7399705e-06
3.7403585e-06
3.7404296e-06
3.7406538e-06
3.740848e-06
3.7411292e-06
3.7411605e-06
3.7411194e-06
3.7412525e-06
3.7413852e-06
3.7414823e-06
3.7384817e-06
3.7400026e-06
3.7403521e-06
3.7404265e-06
3.7406547e-06
3.7408696e-06
3.7411762e-06
3.7411332e-06
3.7411218e-06
3.7412895e-06
3.7413828e-06
3.7414592e-06
3.7385667e-06
3.7400358e-06
3.7403447e-06
3.7404235e-06
3.7406557e-06
3.7409255e-06
3.741199e-06
3.7411169e-06
3.7411325e-06
3.741335e-06
3.7413968e-06
3.7414531e-06
3.7386416e-06
3.7400664e-06
3.7403369e-06
3.740421e-06
3.7406578e-06
3.7410047e-06
3.7412063e-06
3.7411108e-06
3.7411502e-06
3.7413577e-06
3.7414192e-06
3.7414762e-06
3.7372105e-06
3.7387183e-06
3.7400943e-06
3.7403288e-06
3.7404188e-06
3.740664e-06
3.7410786e-06
3.741205e-06
3.7411097e-06
3.7411696e-06
3.7413479e-06
3.7414409e-06
3.7415234e-06
3.7372344e-06
3.7388005e-06
3.7401186e-06
3.7403208e-06
3.7404163e-06
3.7406867e-06
3.7411305e-06
3.7411861e-06
3.7411114e-06
3.7411954e-06
3.7413298e-06
3.7414488e-06
3.741606e-06
3.7373367e-06
3.7372554e-06
3.7388816e-06
3.7401396e-06
3.740313e-06
3.7404136e-06
3.7407414e-06
3.7411581e-06
3.7411519e-06
3.74112e-06
3.7412368e-06
3.7413244e-06
3.7414334e-06
3.7373066e-06
3.7372827e-06
3.7389605e-06
3.7401578e-06
3.7403055e-06
3.7404119e-06
3.7408205e-06
3.7411685e-06
3.7411283e-06
3.7411328e-06
3.7412943e-06
3.741335e-06
3.7414088e-06
3.7372675e-06
3.7373156e-06
3.739038e-06
3.7401731e-06
3.7402978e-06
3.7404163e-06
3.740897e-06
3.7411693e-06
3.7411175e-06
3.7411442e-06
3.7413398e-06
3.7413547e-06
3.741405e-06
3.7382794e-06
3.7372307e-06
3.7373537e-06
3.7391142e-06
3.7401849e-06
3.7402897e-06
3.740436e-06
3.7409532e-06
3.7411563e-06
3.7411138e-06
3.741155e-06
3.7413416e-06
3.741376e-06
3.7414296e-06
3.7382648e-06
3.7371969e-06
3.7373965e-06
3.7391882e-06
3.7401939e-06
3.7402809e-06
3.7404878e-06
3.7409856e-06
3.741123e-06
3.7411137e-06
3.7411698e-06
3.7413104e-06
3.7413911e-06
3.7414774e-06
3.7392376e-06
3.7382268e-06
3.7371615e-06
3.7374449e-06
3.7392597e-06
3.7402004e-06
3.7402728e-06
3.740564e-06
3.7409994e-06
3.7410973e-06
3.7411187e-06
3.7411956e-06
3.7412774e-06
3.7413892e-06
3.7415618e-06
3.7392409e-06
3.7381951e-06
3.7371265e-06
3.7374973e-06
3.7393284e-06
3.7402035e-06
3.7402724e-06
3.7406391e-06
3.7410014e-06
3.7410852e-06
3.741132e-06
3.7412307e-06
3.7412608e-06
3.7413655e-06
3.7392306e-06
3.7381609e-06
3.7370944e-06
3.7375557e-06
3.7393939e-06
3.7402039e-06
3.7402869e-06
3.7406954e-06
3.7409904e-06
3.7410812e-06
3.7411473e-06
3.7412519e-06
3.7412632e-06
3.7413388e-06
3.7389762e-06
3.7392197e-06
3.7381249e-06
3.7370648e-06
3.7376228e-06
3.7394568e-06
3.7402023e-06
3.7403347e-06
3.7407292e-06
3.7409623e-06
3.7410814e-06
3.7411619e-06
3.741248e-06
3.7412797e-06
3.7413371e-06
3.7390263e-06
3.7392118e-06
3.7380845e-06
3.7370361e-06
3.7376921e-06
3.7395157e-06
3.7402047e-06
3.7404078e-06
3.7407448e-06
3.7409352e-06
3.7410863e-06
3.7411805e-06
3.7412381e-06
3.7413038e-06
3.7413628e-06
3.7370799e-06
3.7390678e-06
3.7391999e-06
3.7380423e-06
3.7370094e-06
3.7377661e-06
3.7395692e-06
3.7402242e-06
3.7404807e-06
3.7407461e-06
3.7409223e-06
3.7410994e-06
3.7412109e-06
3.7412407e-06
3.7413253e-06
3.7414113e-06
3.7371451e-06
3.7390912e-06
3.739183e-06
3.7379984e-06
3.7369847e-06
3.7378445e-06
3.7396177e-06
3.7402708e-06
3.7405337e-06
3.7407344e-06
3.7409172e-06
3.7411159e-06
3.7412584e-06
3.7412578e-06
3.7413291e-06
3.7414979e-06
3.7326705e-06
3.7372182e-06
3.73912e-06
3.7391621e-06
3.7379518e-06
3.7369631e-06
3.7379246e-06
3.7396638e-06
3.7403386e-06
3.7405618e-06
3.7407104e-06
3.7409177e-06
3.7411311e-06
3.741302e-06
3.7412816e-06
3.7413104e-06
3.7327843e-06
3.7372957e-06
3.7391448e-06
3.7391416e-06
3.7379035e-06
3.736945e-06
3.7380107e-06
3.7397143e-06
3.7404072e-06
3.7405703e-06
3.7406815e-06
3.7409235e-06
3.7411471e-06
3.7413134e-06
3.7413042e-06
3.7412902e-06
3.7239415e-06
3.7328809e-06
3.7373694e-06
3.7391671e-06
3.7391226e-06
3.737851e-06
3.7369298e-06
3.7380982e-06
3.7397802e-06
3.7404604e-06
3.7405595e-06
3.7406641e-06
3.7409369e-06
3.74117e-06
3.7412965e-06
3.7413209e-06
3.7412946e-06
3.7084484e-06
3.7243486e-06
3.7329914e-06
3.7374433e-06
3.7391876e-06
3.7391034e-06
3.7377946e-06
3.7369179e-06
3.7381872e-06
3.7398715e-06
3.7404927e-06
3.7405334e-06
3.740656e-06
3.7409543e-06
3.741207e-06
3.7412756e-06
3.7413249e-06
3.7413216e-06
3.7092501e-06
3.7246109e-06
3.7330966e-06
3.7375171e-06
3.7392083e-06
3.7390816e-06
3.7377396e-06
3.7369109e-06
3.7382839e-06
3.7399823e-06
3.7405053e-06
3.7404959e-06
3.7406554e-06
3.7409708e-06
3.7412544e-06
3.7412661e-06
3.741308e-06
3.7413689e-06
3.6898093e-06
3.7098118e-06
3.7249017e-06
3.7332024e-06
3.7375946e-06
3.7392302e-06
3.7390572e-06
3.7376823e-06
3.7369094e-06
3.7384017e-06
3.7400902e-06
3.7405018e-06
3.7404558e-06
3.7406613e-06
3.7409865e-06
3.741286e-06
3.7412697e-06
3.7412751e-06
3.7414553e-06
3.6743281e-06
3.6913697e-06
3.7104633e-06
3.7251919e-06
3.7333061e-06
3.7376724e-06
3.7392517e-06
3.7390317e-06
3.7376258e-06
3.7369152e-06
3.7385473e-06
3.7401763e-06
3.7404813e-06
3.7404269e-06
3.7406735e-06
3.7410059e-06
3.7412859e-06
3.7412821e-06
3.7412507e-06
3.6768881e-06
3.6921824e-06
3.7110958e-06
3.7254933e-06
3.7334102e-06
3.737744e-06
3.7392688e-06
3.7390049e-06
3.7375655e-06
3.736936e-06
3.738713e-06
3.7402361e-06
3.7404474e-06
3.7404108e-06
3.7406913e-06
3.7410349e-06
3.74127e-06
3.7412992e-06
3.7412549e-06
3.6704518e-06
3.6781132e-06
3.6931939e-06
3.7117448e-06
3.7257991e-06
3.7335283e-06
3.7378092e-06
3.7392806e-06
3.7389764e-06
3.7375003e-06
3.7369859e-06
3.7388783e-06
3.7402702e-06
3.7404069e-06
3.7404055e-06
3.7407101e-06
3.7410773e-06
3.7412587e-06
3.7413167e-06
3.7412813e-06
3.6723522e-06
3.6741035e-06
3.6793456e-06
3.6942244e-06
3.7123996e-06
3.7261088e-06
3.7336888e-06
3.7378654e-06
3.7392915e-06
3.7389465e-06
3.7374412e-06
3.7370735e-06
3.7390253e-06
3.7402795e-06
3.7403702e-06
3.7404085e-06
3.7407273e-06
3.7411194e-06
3.7412592e-06
3.7413248e-06
3.7413295e-06
3.6725802e-06
3.6743473e-06
3.6760024e-06
3.680365e-06
3.6953024e-06
3.7130528e-06
3.7264202e-06
3.7338931e-06
3.7379109e-06
3.7393053e-06
3.7389131e-06
3.7373927e-06
3.7371899e-06
3.7391462e-06
3.7402736e-06
3.7403446e-06
3.7404193e-06
3.7407461e-06
3.7411375e-06
3.7412697e-06
3.7413118e-06
3.7414186e-06
3.6729149e-06
3.6768001e-06
3.6772679e-06
3.6816514e-06
3.6964089e-06
3.7136971e-06
3.7267289e-06
3.7341002e-06
3.7379484e-06
3.7393192e-06
3.738878e-06
3.7373619e-06
3.737313e-06
3.7392431e-06
3.7402466e-06
3.7403285e-06
3.7404354e-06
3.7407723e-06
3.7411314e-06
3.7412858e-06
3.7412837e-06
3.664957e-06
3.6724586e-06
3.6795417e-06
3.6779082e-06
3.6830196e-06
3.6975236e-06
3.7143415e-06
3.7270334e-06
3.7343344e-06
3.7379849e-06
3.7393282e-06
3.7388466e-06
3.7373631e-06
3.7374252e-06
3.7393158e-06
3.7402132e-06
3.7403176e-06
3.7404514e-06
3.7408083e-06
3.7411213e-06
3.7413042e-06
3.7412663e-06
3.6571436e-06
3.664927e-06
3.6743963e-06
3.6803765e-06
3.6786006e-06
3.6844367e-06
3.6986339e-06
3.7149836e-06
3.7273322e-06
3.734561e-06
3.738018e-06
3.7393314e-06
3.738823e-06
3.7373924e-06
3.7375262e-06
3.7393636e-06
3.7401863e-06
3.7403139e-06
3.740465e-06
3.7408526e-06
3.7411202e-06
3.7413204e-06
3.741277e-06
3.6547603e-06
3.6573664e-06
3.6646256e-06
3.6774701e-06
3.6801599e-06
3.6798228e-06
3.6858696e-06
3.6997445e-06
3.715622e-06
3.7276208e-06
3.7347663e-06
3.7380463e-06
3.739332e-06
3.7388151e-06
3.737415e-06
3.7376172e-06
3.7393928e-06
3.7401712e-06
3.7403169e-06
3.7404786e-06
3.7408843e-06
3.7411295e-06
3.7413237e-06
3.7413059e-06
3.6554306e-06
3.6536639e-06
3.6551171e-06
3.6573665e-06
3.6665458e-06
3.6783345e-06
3.6802582e-06
3.6810328e-06
3.6873036e-06
3.700848e-06
3.716258e-06
3.7279036e-06
3.7349538e-06
3.7380677e-06
3.7393341e-06
3.7388351e-06
3.7374215e-06
3.7376912e-06
3.7394136e-06
3.7401656e-06
3.7403233e-06
3.7404958e-06
3.7408919e-06
3.7411454e-06
3.7413054e-06
3.7413555e-06
3.661604e-06
3.656907e-06
3.6544685e-06
3.6551653e-06
3.6575328e-06
3.6701042e-06
3.6774769e-06
3.6805578e-06
3.6822792e-06
3.6887335e-06
3.7019312e-06
3.7168919e-06
3.7282398e-06
3.735109e-06
3.7380815e-06
3.739341e-06
3.7388766e-06
3.7374107e-06
3.7377571e-06
3.7394358e-06
3.7401657e-06
3.740329e-06
3.7405217e-06
3.7408863e-06
3.7411642e-06
3.7412766e-06
3.7414459e-06
3.6656015e-06
3.6630712e-06
3.6573971e-06
3.6546367e-06
3.6551026e-06
3.6602888e-06
3.6712157e-06
3.6768511e-06
3.6812092e-06
3.6835422e-06
3.6901437e-06
3.7029966e-06
3.7175205e-06
3.7286638e-06
3.7352283e-06
3.7381048e-06
3.7393753e-06
3.7389061e-06
3.7373861e-06
3.7378138e-06
3.7394682e-06
3.7401712e-06
3.7403326e-06
3.740557e-06
3.7408844e-06
3.7411838e-06
3.7412637e-06
3.6632542e-06
3.6651057e-06
3.6665937e-06
3.6635005e-06
3.6576208e-06
3.6546552e-06
3.6557861e-06
3.6640977e-06
3.6702608e-06
3.6767861e-06
3.6819162e-06
3.6848046e-06
3.6915325e-06
3.7040452e-06
3.7181349e-06
3.729187e-06
3.7353397e-06
3.7381416e-06
3.7394425e-06
3.738906e-06
3.7373436e-06
3.7378684e-06
3.7395085e-06
3.7401814e-06
3.7403364e-06
3.7405956e-06
3.740892e-06
3.7411987e-06
3.7412781e-06
3.6625228e-06
3.6642321e-06
3.6659939e-06
3.6668893e-06
3.6636788e-06
3.657547e-06
3.654351e-06
3.6595746e-06
3.665226e-06
3.6695236e-06
3.6768833e-06
3.6826567e-06
3.6860573e-06
3.6929026e-06
3.7050801e-06
3.7187106e-06
3.7298432e-06
3.7354418e-06
3.738199e-06
3.7395227e-06
3.7388772e-06
3.7372838e-06
3.7379432e-06
3.7395506e-06
3.740193e-06
3.7403437e-06
3.7406124e-06
3.7409074e-06
3.7411981e-06
3.7413081e-06
3.6679468e-06
3.6618022e-06
3.6630005e-06
3.6644469e-06
3.6662171e-06
3.6669834e-06
3.6635425e-06
3.6572946e-06
3.6565397e-06
3.6623656e-06
3.6641791e-06
3.6694471e-06
3.6772191e-06
3.6834117e-06
3.6872886e-06
3.6942415e-06
3.7061024e-06
3.7192431e-06
3.7303893e-06
3.7355518e-06
3.7382894e-06
3.739589e-06
3.7388351e-06
3.7372183e-06
3.7380249e-06
3.7395962e-06
3.7402009e-06
3.740354e-06
3.7406091e-06
3.7409267e-06
3.7411766e-06
3.7413592e-06
3.8077308e-06
3.7540732e-06
3.7000904e-06
3.6678255e-06
3.6617553e-06
3.662921e-06
3.664525e-06
3.6662414e-06
3.6667443e-06
3.6633288e-06
3.6581251e-06
3.6611086e-06
3.6630622e-06
3.663813e-06
3.6695729e-06
3.6775891e-06
3.6841653e-06
3.6884981e-06
3.6955586e-06
3.7071084e-06
3.7198696e-06
3.7307009e-06
3.7356765e-06
3.7384103e-06
3.7396233e-06
3.7387707e-06
3.7371641e-06
3.7381123e-06
3.7396445e-06
3.7402043e-06
3.7403667e-06
3.7406003e-06
3.7409476e-06
3.7411501e-06
3.7414513e-06
3.7873419e-06
3.8347304e-06
3.8337437e-06
3.8061498e-06
3.7531246e-06
3.6997058e-06
3.6674786e-06
3.6615811e-06
3.6628341e-06
3.6644036e-06
3.6659277e-06
3.6664615e-06
3.6630343e-06
3.662492e-06
3.6626914e-06
3.661577e-06
3.6639828e-06
3.669968e-06
3.6779846e-06
3.6849002e-06
3.6896939e-06
3.6968496e-06
3.7080798e-06
3.7206651e-06
3.7309616e-06
3.7358295e-06
3.7385402e-06
3.7396281e-06
3.738684e-06
3.7371222e-06
3.738211e-06
3.7396906e-06
3.7402074e-06
3.7403732e-06
3.7406003e-06
3.7409683e-06
3.7411437e-06
3.7430617e-06
3.7300506e-06
3.7427325e-06
3.7856936e-06
3.8326293e-06
3.8317508e-06
3.8040069e-06
3.7515547e-06
3.6988201e-06
3.6671221e-06
3.6613778e-06
3.6625338e-06
3.6639923e-06
3.6655926e-06
3.6657121e-06
3.6669402e-06
3.665164e-06
3.6614371e-06
3.6613823e-06
3.6644277e-06
3.6704005e-06
3.6783881e-06
3.6856241e-06
3.6908689e-06
3.6981059e-06
3.7089617e-06
3.7218973e-06
3.7311954e-06
3.736013e-06
3.7386559e-06
3.7396182e-06
3.7385779e-06
3.7371059e-06
3.7383216e-06
3.7397294e-06
3.7402149e-06
3.7403669e-06
3.7406099e-06
3.7409818e-06
3.7411637e-06
3.7697248e-06
3.7610774e-06
3.7608777e-06
3.772766e-06
3.7739993e-06
3.7622266e-06
3.7419247e-06
3.7290921e-06
3.741607e-06
3.7834629e-06
3.82991e-06
3.8291209e-06
3.8019551e-06
3.7500601e-06
3.6980356e-06
3.6666942e-06
3.6609325e-06
3.6619737e-06
3.6636103e-06
3.6646991e-06
3.6692115e-06
3.6703034e-06
3.665213e-06
3.6605754e-06
3.6615894e-06
3.6651139e-06
3.6708527e-06
3.6787922e-06
3.6863461e-06
3.6920205e-06
3.69932e-06
3.709762e-06
3.723365e-06
3.731449e-06
3.7361979e-06
3.7387428e-06
3.7395955e-06
3.7384606e-06
3.7371159e-06
3.7384352e-06
3.7397587e-06
3.7402275e-06
3.7403623e-06
3.7406262e-06
3.7409775e-06
3.7411963e-06
4.2297848e-06
4.1826935e-06
4.0449744e-06
3.889337e-06
3.7816161e-06
3.7370569e-06
3.7296481e-06
3.7315322e-06
3.7488765e-06
3.7679466e-06
3.7596752e-06
3.7592655e-06
3.7708451e-06
3.772205e-06
3.7607457e-06
3.7401529e-06
3.7275154e-06
3.7399116e-06
3.7813987e-06
3.8273278e-06
3.826562e-06
3.7996332e-06
3.7484556e-06
3.6970264e-06
3.6659739e-06
3.660315e-06
3.6614696e-06
3.6626787e-06
3.6681388e-06
3.6731114e-06
3.6711229e-06
3.6634823e-06
3.6606276e-06
3.6621207e-06
3.6657998e-06
3.6713053e-06
3.6792076e-06
3.687059e-06
3.6931365e-06
3.7004872e-06
3.710739e-06
3.7241492e-06
3.7317317e-06
3.7363636e-06
3.7387962e-06
3.7395576e-06
3.7383569e-06
3.7371439e-06
3.738548e-06
3.7397812e-06
3.7402478e-06
3.7403709e-06
3.7406476e-06
3.740955e-06
3.7412508e-06
1.2905243e-10
4.7567736e-10
9.2584446e-09
8.5211385e-08
4.5514771e-07
1.6803255e-06
4.6628549e-06
1.0277205e-05
1.8965067e-05
3.0762875e-05
4.5554387e-05
6.320199e-05
8.3567146e-05
0.00010652858
0.00013199475
0.00015991548
0.00019029046
0.00022317147
0.00025864578
0.00029684622
0.00033794689
0.0003821315
0.00042957988
0.00048047048
0.00053495275
0.00059314807
0.00065513835
0.00072095043
0.00079055044
0.00086381399
0.00094051599
0.0010202514
0.0011024189
0.0011861493
0.0012702197
0.0013529215
0.0014319379
0.0015042031
0.0015657642
0.0016116734
0.0016359474
0.0016316177
0.0015909195
0.0015055813
0.0013671523
0.0011671455
0.00090227253
0.00057569027
0.00023003893
3.6305749e-05
1.0066057e-05
7.1430995e-06
6.299594e-06
5.4690248e-06
4.8827782e-06
4.4238979e-06
4.1116679e-06
3.9866205e-06
3.9292348e-06
3.8601695e-06
3.8521266e-06
3.8587615e-06
3.7612663e-06
3.6812277e-06
3.7916904e-06
3.8614944e-06
3.7416258e-06
3.6654531e-06
3.7816794e-06
4.0958981e-06
4.222855e-06
4.1766748e-06
4.0400398e-06
3.8852485e-06
3.7795329e-06
3.7354879e-06
3.7281519e-06
3.7300706e-06
3.7471279e-06
3.7655646e-06
3.7576018e-06
3.7570038e-06
3.7682744e-06
3.7697875e-06
3.7585735e-06
3.7385293e-06
3.7261263e-06
3.7383399e-06
3.7792682e-06
3.8245737e-06
3.8236961e-06
3.7971071e-06
3.7464412e-06
3.6956894e-06
3.6652382e-06
3.6595111e-06
3.6606282e-06
3.6664026e-06
3.6721803e-06
3.6742056e-06
3.6687575e-06
3.66321e-06
3.6608465e-06
3.6627405e-06
3.6664904e-06
3.6717805e-06
3.6796328e-06
3.6877673e-06
3.6942056e-06
3.7015499e-06
3.7121775e-06
3.7246572e-06
3.7320345e-06
3.7365061e-06
3.7388187e-06
3.7394946e-06
3.7382655e-06
3.7371944e-06
3.7386531e-06
3.7398006e-06
3.7402681e-06
3.7403917e-06
3.7406713e-06
3.7409332e-06
3.7413456e-06
1.3172012e-10
4.8722548e-10
9.4866052e-09
8.7293155e-08
4.65966e-07
1.7175586e-06
4.7532665e-06
1.0440674e-05
1.9201788e-05
3.1058681e-05
4.5893107e-05
6.3572367e-05
8.3964227e-05
0.00010695175
0.00013244581
0.00016039722
0.00019080638
0.00022372602
0.00025924467
0.00029749716
0.00033865987
0.00038291938
0.00043045824
0.00048145808
0.00053607121
0.000594422
0.00065659484
0.00072261883
0.00079246167
0.00086600154
0.00094300961
0.0010230862
0.0011056295
0.0011897516
0.0012742042
0.0013572587
0.0014365788
0.0015090784
0.0015707844
0.0016167315
0.0016409224
0.0016363775
0.0015953206
0.0015094914
0.0013705311
0.0011700411
0.00090449447
0.00057706499
0.00023088411
3.6360586e-05
9.9835498e-06
7.2142552e-06
6.3317641e-06
5.458358e-06
4.8732514e-06
4.402708e-06
4.0966756e-06
3.978438e-06
3.9229274e-06
3.856306e-06
3.8485976e-06
3.8556393e-06
3.7597251e-06
3.6794187e-06
3.7878123e-06
3.8591684e-06
3.7417182e-06
3.6640118e-06
3.7765274e-06
4.0871195e-06
4.2159096e-06
4.1708514e-06
4.0354828e-06
3.8816739e-06
3.7769118e-06
3.7333254e-06
3.7260473e-06
3.7280024e-06
3.7447688e-06
3.7632549e-06
3.7556939e-06
3.7549927e-06
3.7658695e-06
3.7675333e-06
3.7566247e-06
3.7367946e-06
3.7245887e-06
3.7365988e-06
3.7768991e-06
3.821586e-06
3.820522e-06
3.7941428e-06
3.7443316e-06
3.6946727e-06
3.6637928e-06
3.6593505e-06
3.6648667e-06
3.6701673e-06
3.673293e-06
3.6714853e-06
3.6680318e-06
3.6633425e-06
3.6614444e-06
3.6633792e-06
3.667192e-06
3.6722887e-06
3.6800602e-06
3.6884463e-06
3.6952249e-06
3.7024312e-06
3.7146154e-06
3.7250627e-06
3.732346e-06
3.7366263e-06
3.7388137e-06
3.7394275e-06
3.7381825e-06
3.737262e-06
3.7387495e-06
3.7398194e-06
3.740268e-06
3.7404132e-06
3.740695e-06
3.7409347e-06
1.3166088e-10
4.9434146e-10
9.660034e-09
8.8870255e-08
4.739933e-07
1.7445192e-06
4.8174901e-06
1.0555769e-05
1.9367682e-05
3.126302e-05
4.6117401e-05
6.3798961e-05
8.4180497e-05
0.00010715244
0.00013263165
0.00016057411
0.00019098275
0.00022391301
0.00025945441
0.00029774421
0.00033896008
0.00038329127
0.00043092181
0.0004820349
0.00053678321
0.00059528971
0.00065763624
0.00072384645
0.00079388169
0.00086761199
0.00094479723
0.0010250318
0.0011077081
0.0011919468
0.0012765116
0.0013596826
0.0014391312
0.0015117803
0.0015736669
0.0016198375
0.0016443065
0.0016400999
0.0015994401
0.0015140391
0.001375417
0.0011755225
0.00091085079
0.00058436611
0.00023663899
3.7447924e-05
1.0047937e-05
7.3172484e-06
6.4170898e-06
5.4851531e-06
4.8696095e-06
4.3865127e-06