/*--------------------------------*- C++ -*----------------------------------*\
| =========                 |                                                 |
| \\      /  F ield         | OpenFOAM: The Open Source CFD Toolbox           |
|  \\    /   O peration     | Version:  2506                                  |
|   \\  /    A nd           | Website:  www.openfoam.com                      |
|    \\/     M anipulation  |                                                 |
\*---------------------------------------------------------------------------*/
FoamFile
{
    version     2.0;
    format      ascii;
    arch        "LSB;label=32;scalar=64";
    class       volScalarField;
    location    "0.0135";
    object      rho;
}
// * * * * * * * * * * * * * * * * * * * * * * * * * * * * * * * * * * * * * //

dimensions      [1 -3 0 0 0 0 0];

internalField   nonuniform List<scalar> 
13761
(
0.66502744
0.66502563
0.66502103
0.66501586
0.66501373
0.66501435
0.66501796
0.6650216
0.66667657
0.66502354
0.66667887
0.6650246
0.6666795
0.66502551
0.66667727
0.66502638
0.66667296
0.66502619
0.66666928
0.66502557
0.6666672
0.6650263
0.66666616
0.66502793
0.66518119
0.66666564
0.66502877
0.66518135
0.66666531
0.66502931
0.6651812
0.66666503
0.66502984
0.66518128
0.66666489
0.6650303
0.66518166
0.66666473
0.66503052
0.66518205
0.66666446
0.66503066
0.6651822
0.66666438
0.66503033
0.66610264
0.66518214
0.66666368
0.66502907
0.66610219
0.66518228
0.66666447
0.66502602
0.66610172
0.66518292
0.66666423
0.66501957
0.66610141
0.66518377
0.66666689
0.66501574
0.66610098
0.66518365
0.66667323
0.66501516
0.66610054
0.66518306
0.66667623
0.66501685
0.66610046
0.66518275
0.66667648
0.66610052
0.66518346
0.66667368
0.66523648
0.66610036
0.66518465
0.66666927
0.66523642
0.66610022
0.6651857
0.66666652
0.66523591
0.66610027
0.66518682
0.66666532
0.66523586
0.66609998
0.66518796
0.66666491
0.66523676
0.66609969
0.66518899
0.66666493
0.66523792
0.66609968
0.6651898
0.6666651
0.6652387
0.66609982
0.66518992
0.66666521
0.66523927
0.66609993
0.66518913
0.66541477
0.66523988
0.66609986
0.66518856
0.66541479
0.66524045
0.66610054
0.66518876
0.6654149
0.6652411
0.66610101
0.66518945
0.66541523
0.66524162
0.66610351
0.66519053
0.66541574
0.66524187
0.66610623
0.66519174
0.66541675
0.66524186
0.6661069
0.66519267
0.66541757
0.66524094
0.66610598
0.66519318
0.66515971
0.66541777
0.66524026
0.66610362
0.66519369
0.66515996
0.66541764
0.66524057
0.66610169
0.66516023
0.66541735
0.66524201
0.66610089
0.66516048
0.66541706
0.66524358
0.66610047
0.66516071
0.66541688
0.66524462
0.66610048
0.66516092
0.66541682
0.66524537
0.66610049
0.66516111
0.66541691
0.66524596
0.66610088
0.66512966
0.66516127
0.66541711
0.66524652
0.666102
0.66512992
0.6651614
0.66541757
0.6652467
0.66610299
0.66513019
0.66516149
0.6654181
0.66524656
0.66610678
0.66513046
0.66516154
0.66541902
0.66524628
0.66513073
0.66516159
0.6654201
0.66524501
0.66513099
0.66516172
0.6654206
0.66524414
0.66513126
0.66516195
0.66542064
0.66524428
0.66500872
0.66513153
0.66516221
0.66542045
0.66524565
0.66500965
0.66513179
0.66516245
0.66542034
0.66524736
0.66501059
0.66513206
0.66516267
0.66542028
0.66524851
0.66501153
0.66513232
0.66516284
0.66542047
0.66524933
0.66501246
0.66513259
0.66516297
0.66542078
0.66501339
0.66513286
0.66516306
0.66542144
0.66501432
0.66513312
0.66516314
0.66542241
0.66471442
0.66501526
0.66513339
0.6651633
0.66542293
0.66471731
0.66501619
0.66513366
0.66516354
0.66542296
0.66472021
0.66501711
0.66513392
0.6651638
0.6654228
0.6647231
0.66501804
0.66513418
0.66516403
0.66542273
0.66472599
0.66501896
0.66513444
0.66516422
0.66542283
0.66472888
0.66501988
0.6651347
0.66516438
0.66542311
0.66473178
0.66502079
0.66513496
0.66516453
0.66396802
0.66473468
0.6650217
0.66513522
0.6651647
0.6639756
0.66473759
0.6650226
0.66513548
0.66516491
0.66398323
0.6647405
0.6650235
0.66513574
0.66516516
0.66399085
0.66474341
0.6650244
0.665136
0.66516541
0.66399848
0.66474632
0.6650253
0.66513625
0.66516566
0.6640061
0.66474924
0.66502619
0.66513651
0.6651659
0.6623094
0.66401373
0.66475215
0.66502708
0.66513677
0.66516612
0.66232574
0.66402135
0.66475506
0.66502797
0.66513703
0.66516633
0.6623422
0.66402897
0.66475797
0.66502885
0.66513728
0.66235865
0.6640366
0.66476088
0.66502973
0.66513754
0.66237512
0.66404423
0.66476379
0.66503061
0.66513779
0.66239161
0.66405186
0.66476669
0.66503148
0.66513804
0.66240812
0.6640595
0.66476959
0.66503235
0.66513829
0.65939842
0.66242465
0.66406714
0.66477249
0.66503321
0.66513854
0.6594257
0.66244121
0.66407478
0.66477539
0.66503406
0.6651388
0.65945327
0.66245778
0.66408242
0.66477828
0.66503491
0.66513905
0.65948092
0.66247438
0.66409005
0.66478117
0.66503576
0.65950869
0.66249098
0.66409767
0.66478405
0.66503661
0.65953654
0.6625076
0.66410528
0.66478693
0.66503745
0.65543865
0.65956445
0.66252421
0.66411287
0.6647898
0.66503828
0.65547097
0.65959241
0.66254083
0.66412045
0.66479267
0.66503911
0.65550366
0.65962043
0.66255744
0.66412802
0.66479553
0.66503993
0.65553652
0.6596485
0.66257405
0.66413558
0.66479839
0.66504074
0.65556962
0.65967664
0.66259064
0.66414313
0.66480124
0.66504155
0.65560296
0.65970484
0.66260724
0.66415066
0.66480409
0.65190218
0.65563653
0.65973308
0.66262383
0.66415819
0.66480694
0.65191762
0.65567032
0.65976138
0.66264043
0.6641657
0.66480977
0.65193367
0.65570428
0.65978974
0.66265703
0.66417319
0.66481259
0.65195022
0.6557384
0.65981815
0.66267364
0.66418067
0.6648154
0.6519673
0.65577268
0.65984663
0.66269024
0.66418813
0.66481821
0.6511743
0.65198491
0.65580711
0.65987517
0.66270684
0.66419558
0.664821
0.65114777
0.65200305
0.65584172
0.65990376
0.66272342
0.66420301
0.66482379
0.65112183
0.65202173
0.65587652
0.6599324
0.66273998
0.66421043
0.65109663
0.65204091
0.65591151
0.65996106
0.66275653
0.66421784
0.65107211
0.65206059
0.65594668
0.65998975
0.66277306
0.66422522
0.65104825
0.65208074
0.655982
0.66001846
0.66278958
0.66423259
0.65512474
0.65102503
0.65210133
0.65601746
0.6600472
0.66280608
0.66423994
0.65503183
0.65100241
0.65212234
0.65605304
0.66007596
0.66282258
0.66424727
0.65493919
0.65098035
0.65214377
0.65608875
0.66010476
0.66283905
0.66425458
0.65484722
0.65095877
0.6521656
0.65612462
0.6601336
0.66285552
0.66426187
0.65475558
0.65093759
0.65218785
0.65616067
0.66016249
0.66287196
0.66379851
0.65466411
0.65091673
0.65221051
0.65619697
0.66019141
0.66288838
0.66366585
0.65457258
0.65089617
0.6522336
0.65623352
0.66022036
0.66290479
0.66353201
0.65448092
0.65087592
0.65225714
0.65627033
0.66024935
0.66292117
0.66339776
0.65438919
0.65085605
0.65228116
0.65630737
0.66027836
0.66293753
0.66326292
0.65429768
0.6508367
0.65230566
0.6563446
0.66030739
0.66295387
0.67037201
0.6631276
0.65420681
0.65081804
0.65233068
0.65638201
0.66033645
0.66297018
0.67033066
0.66299182
0.65411706
0.65080023
0.65235622
0.65641957
0.66036551
0.67028653
0.66285568
0.65402884
0.65078338
0.65238228
0.65645729
0.66039458
0.67023987
0.66271925
0.65394232
0.65076749
0.65240883
0.65649516
0.66042365
0.66728648
0.67019056
0.6625826
0.65385736
0.65075251
0.65243585
0.65653318
0.66045271
0.66735575
0.67013865
0.66244579
0.65377358
0.65073831
0.65246328
0.65657134
0.66048177
0.66742496
0.67008408
0.66230882
0.65369048
0.65072474
0.65249113
0.65660962
0.66051082
0.66749369
0.67002683
0.66217167
0.65360772
0.65071168
0.65251938
0.65664801
0.66053985
0.66756203
0.66996686
0.66203432
0.65352519
0.65069912
0.65254803
0.65668653
0.66056889
0.66341562
0.66762992
0.66990417
0.66189675
0.65344308
0.65068706
0.65257707
0.65672517
0.66344076
0.66769739
0.66983875
0.66175898
0.65336174
0.6506756
0.65260651
0.65676394
0.66346724
0.66776444
0.66977062
0.66162104
0.65328151
0.6506648
0.65263632
0.65680284
0.66349507
0.66783113
0.66969977
0.66148298
0.65320252
0.65065472
0.65266652
0.65684186
0.66391916
0.66352428
0.66789752
0.66962625
0.66134484
0.65312465
0.65064537
0.65269708
0.65688102
0.66389661
0.66355485
0.66796367
0.66955006
0.66120663
0.65304774
0.65063677
0.65272804
0.65692029
0.66387481
0.6635867
0.66802967
0.66947125
0.66106837
0.65297162
0.65062889
0.65275938
0.65695969
0.66385379
0.66361977
0.66809554
0.66938983
0.66093008
0.65289633
0.65062172
0.65279111
0.66537057
0.66383339
0.66365403
0.66816131
0.66930584
0.66079181
0.65282193
0.65061524
0.65282324
0.66536788
0.66381361
0.66368947
0.66822692
0.66921928
0.66065361
0.65274856
0.65060944
0.65285575
0.66536346
0.66379444
0.66372604
0.66829227
0.66913019
0.66051552
0.65267624
0.65060429
0.65288863
0.66535706
0.66377596
0.66376373
0.66835717
0.66903858
0.66037757
0.65260496
0.65059981
0.65292189
0.663636
0.66534859
0.66375824
0.66380249
0.66842146
0.66894448
0.66023982
0.6525347
0.65059599
0.65295551
0.66366596
0.66533807
0.66374139
0.66384231
0.66848488
0.66884793
0.6601023
0.65246543
0.65059282
0.65298952
0.66369608
0.66532562
0.66372545
0.6638832
0.66854726
0.668749
0.65996505
0.65239717
0.65059029
0.66372616
0.66531144
0.66371047
0.66392515
0.66860844
0.66864778
0.65982811
0.65232992
0.65058838
0.66241473
0.66375644
0.66529569
0.66369637
0.66396818
0.66866829
0.66854438
0.65969147
0.65226367
0.65058708
0.66243256
0.66378681
0.66527853
0.66368307
0.6640123
0.6687267
0.66843893
0.65955516
0.65219842
0.65058642
0.66245087
0.66381728
0.66526004
0.66367041
0.66405755
0.66878361
0.66833152
0.65941911
0.65213413
0.65058637
0.66246902
0.66384771
0.6652404
0.6636583
0.6641039
0.6688389
0.66822228
0.65928327
0.65207081
0.65058697
0.66173947
0.66248706
0.66387797
0.66521977
0.66364663
0.66415135
0.66889248
0.66811127
0.65914756
0.65200847
0.65058822
0.66176206
0.66250478
0.6639079
0.66519839
0.66363541
0.66419978
0.66894424
0.66799857
0.65901191
0.65194716
0.66178479
0.66252233
0.66393739
0.66517634
0.66362472
0.66424912
0.66899413
0.66788415
0.65887635
0.65188691
0.66059807
0.66180706
0.66253969
0.66396641
0.66515373
0.66361467
0.66429925
0.66904201
0.66776806
0.65874099
0.65182778
0.66061495
0.66182929
0.66255709
0.66399498
0.66513054
0.66360525
0.66435017
0.66908773
0.66765034
0.65860601
0.6517698
0.66063257
0.66185126
0.66257471
0.66402323
0.66510686
0.66359644
0.66440184
0.66913116
0.66753107
0.65847166
0.65171299
0.65967079
0.66065164
0.66187333
0.66259277
0.66405127
0.66508273
0.66358825
0.66445425
0.66917225
0.66741029
0.65833818
0.65165728
0.65965892
0.66067139
0.66189536
0.66261141
0.66407924
0.66505826
0.66358074
0.66450737
0.6692109
0.66728804
0.6582058
0.65964831
0.66069242
0.66191754
0.66263071
0.66410716
0.66503345
0.663574
0.66456126
0.66924706
0.66716439
0.65807458
0.65911936
0.65963739
0.66071423
0.66193958
0.66265068
0.66413509
0.66500836
0.66356809
0.66461592
0.66928066
0.66703941
0.65794446
0.65912152
0.6596278
0.66073727
0.66196142
0.66267118
0.66416292
0.66498289
0.66356299
0.66467141
0.66931163
0.66691311
0.65781528
0.65912049
0.65961846
0.66076121
0.6619827
0.66269202
0.66419059
0.66495702
0.66355861
0.66472772
0.6693399
0.66678554
0.65768689
0.65833355
0.65911869
0.65961073
0.66078647
0.66200332
0.66271288
0.66421796
0.66493071
0.66355487
0.66478488
0.66936542
0.6666567
0.65755914
0.65834878
0.65911416
0.65960419
0.66081276
0.66202309
0.66273354
0.66424502
0.66490402
0.66355174
0.66484287
0.66938814
0.66652662
0.65743188
0.65730834
0.65836696
0.65910906
0.65959963
0.66084029
0.66204215
0.66275377
0.66427177
0.66487701
0.66354925
0.66490178
0.66940803
0.66639531
0.65732249
0.65838277
0.65910177
0.65959613
0.66086868
0.66206045
0.66277374
0.66429822
0.66484986
0.66354742
0.66496161
0.6694251
0.6662628
0.65734523
0.65840029
0.65909373
0.65959444
0.66089791
0.66207808
0.66279314
0.66432443
0.66482268
0.66354625
0.66502244
0.66943933
0.66612912
0.6565525
0.65736601
0.65841548
0.65908405
0.65959408
0.66092761
0.66209509
0.6628127
0.6643506
0.6647955
0.66354569
0.66508423
0.66945076
0.66599434
0.65652912
0.65739226
0.65843163
0.65907405
0.65959675
0.66095798
0.66211137
0.66283207
0.66437681
0.66476818
0.66354566
0.66514703
0.66945939
0.66585853
0.6561301
0.65650476
0.65741589
0.65844579
0.65906002
0.65960175
0.66098932
0.66212666
0.66285143
0.66440313
0.66474059
0.66354607
0.66521082
0.66946522
0.66572164
0.65610068
0.65648754
0.65744235
0.65846075
0.65904267
0.65960951
0.66102172
0.66214085
0.66287056
0.66442958
0.66471248
0.66354693
0.66527557
0.66946822
0.65605593
0.65646994
0.65746555
0.65847413
0.65902431
0.6596193
0.66105487
0.66215399
0.6628895
0.66445625
0.66468372
0.66354822
0.6653412
0.66946839
0.655582
0.65601286
0.65645611
0.6574901
0.65848759
0.65900564
0.65963151
0.66108876
0.662166
0.66290816
0.66448311
0.66465441
0.66354996
0.66540763
0.6694657
0.65556431
0.65595601
0.65644261
0.65751332
0.6584988
0.65898464
0.65964618
0.66112322
0.66217691
0.66292668
0.66451011
0.66462475
0.66355209
0.66547471
0.66946014
0.65487093
0.65555009
0.6559009
0.65644786
0.65754018
0.65850911
0.65896263
0.65966375
0.66115808
0.66218668
0.66294504
0.6645371
0.664595
0.66355462
0.66554235
0.6694517
0.65487806
0.65551163
0.65583763
0.65645548
0.65756758
0.65851707
0.65893956
0.65968388
0.66119325
0.66219537
0.66296338
0.66456389
0.66456531
0.66355755
0.66561042
0.6694403
0.65412643
0.65489492
0.65547557
0.65577998
0.65647364
0.65759771
0.65852366
0.65891657
0.6597067
0.66122891
0.66220295
0.66298171
0.6645902
0.66453574
0.6635609
0.66567888
0.65413833
0.65489659
0.65542155
0.65572063
0.6564915
0.65762689
0.65852757
0.65889359
0.65973194
0.66126525
0.66220953
0.6630002
0.66461591
0.66450626
0.66356473
0.66574771
0.65332202
0.65416414
0.6549047
0.65536593
0.65567062
0.65651549
0.65765664
0.65852924
0.65887165
0.65975964
0.66130225
0.66221515
0.6630189
0.66464097
0.66447686
0.6635691
0.66581689
0.6524634
0.65334478
0.65418235
0.65489368
0.65529082
0.65562529
0.65654082
0.65768484
0.658528
0.65885054
0.65978962
0.66133956
0.66221996
0.66303801
0.66466548
0.66444755
0.66357406
0.66588641
0.6524726
0.65338175
0.65420868
0.65488245
0.65521376
0.65558985
0.65657139
0.6577132
0.65852508
0.65883093
0.65982186
0.66137656
0.66222396
0.66305751
0.6646895
0.66441847
0.66357969
0.66595622
0.65157888
0.65250035
0.65342012
0.65422527
0.65484526
0.65512217
0.65555605
0.65660239
0.6577404
0.65852115
0.65881271
0.65985604
0.66141287
0.66222729
0.66307744
0.66471292
0.66438974
0.66358592
0.66602634
0.65072842
0.65159314
0.65254159
0.65346557
0.65424257
0.65480063
0.65503223
0.65553227
0.65663816
0.65776755
0.65851219
0.65879623
0.65989187
0.66144829
0.66223
0.66309765
0.66473564
0.66436153
0.66359295
0.65076257
0.65163969
0.65259379
0.65349793
0.65423913
0.65472332
0.65493557
0.6555187
0.65667742
0.65779387
0.65849495
0.65878161
0.65992895
0.6614829
0.6622323
0.66311807
0.66475738
0.66433392
0.66360068
0.6499681
0.65079278
0.65169253
0.65264796
0.65352764
0.65423257
0.65463253
0.65484725
0.65553061
0.65672299
0.65782058
0.65847285
0.65876972
0.65996678
0.66151675
0.66223438
0.66313851
0.66477829
0.66430702
0.66360891
0.64916668
0.64997872
0.65082851
0.65174126
0.65268523
0.65353541
0.65419772
0.65450949
0.65476323
0.65555805
0.65677124
0.6578464
0.65844764
0.65876135
0.66000479
0.66154988
0.66223655
0.66315886
0.66479847
0.66428081
0.66361773
0.64835703
0.64913692
0.64997871
0.65085269
0.65178076
0.65271668
0.65353959
0.65414799
0.65437687
0.65469684
0.65560044
0.65682268
0.65786987
0.65841997
0.6587567
0.66004299
0.6615818
0.66223884
0.66317908
0.66481775
0.6642553
0.66362712
0.64833141
0.6491304
0.64999221
0.65088132
0.65181239
0.6527289
0.65351936
0.65405524
0.65422514
0.65464414
0.65564525
0.65687431
0.65788835
0.65838896
0.65875442
0.66008227
0.6616121
0.66224083
0.66319947
0.66483627
0.66423046
0.64756572
0.64830275
0.64911809
0.6499993
0.65090536
0.6518393
0.65273865
0.65349006
0.65394405
0.65407869
0.65460343
0.6556981
0.65692709
0.65790136
0.6583553
0.6587531
0.66012332
0.66164052
0.66224243
0.66322024
0.66485407
0.66420635
0.64681258
0.64753863
0.64829897
0.6491293
0.65002164
0.6509332
0.65185492
0.65272474
0.65341585
0.65378879
0.65393808
0.65457233
0.6557568
0.65697931
0.65790852
0.65831947
0.65875309
0.66016638
0.66166713
0.66224364
0.66324157
0.66487115
0.66418303
0.64590076
0.64672335
0.64749263
0.64827807
0.6491294
0.65003905
0.65095646
0.65186664
0.652705
0.65331292
0.65360776
0.65382466
0.65457324
0.655827
0.65703133
0.6579115
0.65828187
0.65875741
0.66021129
0.66169201
0.66224449
0.66326345
0.66488735
0.66416076
0.64409282
0.64482983
0.64570339
0.64660979
0.64745095
0.64826883
0.64914105
0.65006053
0.65096847
0.65185233
0.65264312
0.65315237
0.65339564
0.65373781
0.65460666
0.65590604
0.6570814
0.65791233
0.65824224
0.65876684
0.66025783
0.66171532
0.6622452
0.66328585
0.66490265
0.66413959
0.64364852
0.64406063
0.64471181
0.64548347
0.64640872
0.64732935
0.64821337
0.64912257
0.6500576
0.65096571
0.65182607
0.65253944
0.65295525
0.65319277
0.65368199
0.65467685
0.65599419
0.6571303
0.65790684
0.65820097
0.65878148
0.66030569
0.66173704
0.6622448
0.6633087
0.6649172
0.6641194
0.64406538
0.64396723
0.64411499
0.64465376
0.6453211
0.6461965
0.64717928
0.64814214
0.64909192
0.65003613
0.65092787
0.65174185
0.65234413
0.65270199
0.65301367
0.65363979
0.65475883
0.65608363
0.6571769
0.65788587
0.65815856
0.65880002
0.66035466
0.66175716
0.66224475
0.66333185
0.66493097
0.64301027
0.64372836
0.64422808
0.64429627
0.64431781
0.64462427
0.64522297
0.64598561
0.64694739
0.6479777
0.64899146
0.6499622
0.65084223
0.65158532
0.6520968
0.65244317
0.65288921
0.6536308
0.65485256
0.65617232
0.65721847
0.65785425
0.65811622
0.65882118
0.66040438
0.66177557
0.66224439
0.66335511
0.66494394
0.64237991
0.64294066
0.64367026
0.64428713
0.64454786
0.64461978
0.6447155
0.6451749
0.64586122
0.64674037
0.6477714
0.64882392
0.64980909
0.65065094
0.65131203
0.65179345
0.65220739
0.65281224
0.65366875
0.65495934
0.65625651
0.65725045
0.65781896
0.65807517
0.65884504
0.66045468
0.66179235
0.66224363
0.66337833
0.66495604
0.64151236
0.64203951
0.6424468
0.64289977
0.64360054
0.64428326
0.64469399
0.64490142
0.64493583
0.64516669
0.64579503
0.64658596
0.64754081
0.64857761
0.64956276
0.65037287
0.65100098
0.65150895
0.65204421
0.65276668
0.6537774
0.65508762
0.65633727
0.65727097
0.65778281
0.65803666
0.65887207
0.66050536
0.66180746
0.66224244
0.66340146
0.66496721
0.6396412
0.64011819
0.64070082
0.64136886
0.6419673
0.64248378
0.64288704
0.64353139
0.64424209
0.64474539
0.64510606
0.64523059
0.64531776
0.64576972
0.64651719
0.64738524
0.64834606
0.64927916
0.65005715
0.65069684
0.65128373
0.65194736
0.65275156
0.65392046
0.65522725
0.65641304
0.65728083
0.65774428
0.65800122
0.65890232
0.66055639
0.66182098
0.66224072
0.66342459
0.66497734
0.63882108
0.63901819
0.63921928
0.63952253
0.63996735
0.64052327
0.64121175
0.6418813
0.64247884
0.64293319
0.64347236
0.64418402
0.64472934
0.64519696
0.6454868
0.64557571
0.64582553
0.64648102
0.64730289
0.64818877
0.6490536
0.64980658
0.65047873
0.65115203
0.65189162
0.65282026
0.65408098
0.65536778
0.65648259
0.65728528
0.65770268
0.65796964
0.6589355
0.6606076
0.66183289
0.66223856
0.66344787
0.63801375
0.63823141
0.63846265
0.63870223
0.63892837
0.63917011
0.63941757
0.63982743
0.64033291
0.64102531
0.6417395
0.64241317
0.64294833
0.64343015
0.64412197
0.64467888
0.64519721
0.64565481
0.64588566
0.64605015
0.6465039
0.64726617
0.64810277
0.64891231
0.64964366
0.65034582
0.65107027
0.65187154
0.65297864
0.65424786
0.65549647
0.65653891
0.65728276
0.65765842
0.65794302
0.65897093
0.66065911
0.66184334
0.66223619
0.66347147
0.63655262
0.63676292
0.63695457
0.6371425
0.63737199
0.63766033
0.63790917
0.63812597
0.63836104
0.63859719
0.63885198
0.63914218
0.63938257
0.63970815
0.64017345
0.64083809
0.64158196
0.64231741
0.64292091
0.64341565
0.64406937
0.64460815
0.64513417
0.64570626
0.64612952
0.64635125
0.64665959
0.64725815
0.64804384
0.64882829
0.64954961
0.65026576
0.65103195
0.65195289
0.65320298
0.65442389
0.65561159
0.65657766
0.65726238
0.65761251
0.65792288
0.65900768
0.66071089
0.66185244
0.66223375
0.6634955
0.63486101
0.63502651
0.63520749
0.63540003
0.63560079
0.63579009
0.63597699
0.63614414
0.63633372
0.63650633
0.63665784
0.63677401
0.63695344
0.63723014
0.63754093
0.63776335
0.63798378
0.63823293
0.63848528
0.63876227
0.63908188
0.63933032
0.6395892
0.64002982
0.6406494
0.64137988
0.64216068
0.64282787
0.64337063
0.64402085
0.64454417
0.64504716
0.64567889
0.64627418
0.64666075
0.64695205
0.64738969
0.6480343
0.64876429
0.64947804
0.65022227
0.65106925
0.65214905
0.65343015
0.65459609
0.65571085
0.65659784
0.65722208
0.65756563
0.65791003
0.65904533
0.66076269
0.66186074
0.66223126
0.66352004
0.62590485
0.62590693
0.62591119
0.62591745
0.62592464
0.62593216
0.62593835
0.62594235
0.62594329
0.62594137
0.62593675
0.62592992
0.62592108
0.62591047
0.62589817
0.62588422
0.62586859
0.6258512
0.62583196
0.62581072
0.62578734
0.62576163
0.6257334
0.62570243
0.62566851
0.62563138
0.6255908
0.62554651
0.62549822
0.62544564
0.6253885
0.62532647
0.6252593
0.62518668
0.62510833
0.62502396
0.62493332
0.62483614
0.62473221
0.62462133
0.62450331
0.62437802
0.62424535
0.62410517
0.62395701
0.62379938
0.62363013
0.62344824
0.6232512
0.62304227
0.62272346
0.62200583
0.62069977
0.6197728
0.61906725
0.61872007
0.6186903
0.61973743
0.62240889
0.62624027
0.63013901
0.63285212
0.63396641
0.6342566
0.63431695
0.63435158
0.63440376
0.63448592
0.63461769
0.63474253
0.63484963
0.63497787
0.63512435
0.6352999
0.63547786
0.63566731
0.63588392
0.63609878
0.63631269
0.63645869
0.63654656
0.63660905
0.63678654
0.63708842
0.63737719
0.63758201
0.63783175
0.63810037
0.63838239
0.63867707
0.63900762
0.63926884
0.6395203
0.63991142
0.64048194
0.64115033
0.64197168
0.64268851
0.64329412
0.64396143
0.6444849
0.64494689
0.64559894
0.64630405
0.6468754
0.64726866
0.64764331
0.64816593
0.64881377
0.64951158
0.65029941
0.65125077
0.6524312
0.65364239
0.65475692
0.65579289
0.65660452
0.65717287
0.65751929
0.65790361
0.65908465
0.66081339
0.66186874
0.66222861
0.66354505
0.62491469
0.62490611
0.62488732
0.62485671
0.62481257
0.62475447
0.62468419
0.62460643
0.62452684
0.62444963
0.62437682
0.62430886
0.62424546
0.62418599
0.62412974
0.62407601
0.62402418
0.62397371
0.62392414
0.6238751
0.62382622
0.6237772
0.62372777
0.62367768
0.6236267
0.62357461
0.62352121
0.62346627
0.62340959
0.62335095
0.62329016
0.62322699
0.62316125
0.62309271
0.62302117
0.62294642
0.62286825
0.62278647
0.62270085
0.62261122
0.62251736
0.62241905
0.62231608
0.62220825
0.6220954
0.62197739
0.62185219
0.6217178
0.62157127
0.62142364
0.62124322
0.62075918
0.61984104
0.61934142
0.61911481
0.61856345
0.61828498
0.61931779
0.62216897
0.62641679
0.63028763
0.63276055
0.63380267
0.63411416
0.63422663
0.63431751
0.63441747
0.63451592
0.63462658
0.63474058
0.63485491
0.6349902
0.63510795
0.63522757
0.63536219
0.63553898
0.63577187
0.63599757
0.63619734
0.63633706
0.63640108
0.63647271
0.63667114
0.63695005
0.63717285
0.63738407
0.63767293
0.63794287
0.63824897
0.63856468
0.6388912
0.63916254
0.63944986
0.63979233
0.64031806
0.6409106
0.64172529
0.64250309
0.64316165
0.6438735
0.64443774
0.64486163
0.64550367
0.64626672
0.6469819
0.6475331
0.64795273
0.6484116
0.64898458
0.64966358
0.6505008
0.65153168
0.65270498
0.65382319
0.65489537
0.6558533
0.65660508
0.65712226
0.65747458
0.65790198
0.65912657
0.6608624
0.66187637
0.6622259
0.62383605
0.62382758
0.62380991
0.62378197
0.62374383
0.62369547
0.62363896
0.62357742
0.62351457
0.62345279
0.62339311
0.62333557
0.62327983
0.62322542
0.62317182
0.62311856
0.62306522
0.62301146
0.622957
0.62290163
0.62284514
0.62278738
0.62272822
0.62266755
0.62260528
0.62254134
0.62247563
0.62240809
0.62233867
0.6222673
0.62219395
0.62211856
0.6220411
0.62196154
0.62187982
0.62179592
0.62170977
0.62162132
0.62153048
0.62143714
0.6213411
0.62124212
0.62113986
0.62103388
0.62092369
0.62080929
0.62069027
0.62056535
0.62043217
0.6203104
0.62023274
0.6199447
0.6195853
0.6195618
0.61940017
0.61855085
0.61795398
0.61922099
0.62236908
0.62671636
0.63069146
0.63305923
0.63397448
0.63422791
0.63431353
0.63434137
0.63437926
0.63444892
0.63455561
0.63467056
0.63479457
0.63492462
0.63504587
0.63518541
0.63531276
0.63545824
0.63566364
0.63585146
0.63602446
0.63614728
0.63624831
0.6363871
0.63658954
0.63677891
0.63695139
0.63720042
0.63750926
0.63777702
0.6380978
0.63843755
0.63876414
0.63904572
0.639368
0.63970651
0.64015138
0.64068691
0.64145019
0.64227581
0.64298176
0.64374236
0.64438217
0.64479141
0.64540242
0.64618906
0.64698992
0.64768187
0.64822401
0.64871928
0.64927366
0.64995079
0.65081338
0.65184399
0.65293387
0.65397785
0.65501137
0.65589235
0.65659664
0.65707093
0.65743221
0.65790334
0.65917156
0.66090927
0.66188315
0.66222331
0.62290978
0.62290368
0.6228913
0.62287205
0.62284618
0.62281324
0.62277429
0.62273056
0.62268418
0.62263645
0.62258822
0.62253969
0.62249085
0.62244158
0.62239169
0.62234101
0.62228937
0.62223665
0.62218274
0.62212762
0.62207122
0.62201354
0.62195458
0.62189436
0.62183292
0.62177031
0.62170658
0.62164183
0.62157618
0.62150982
0.62144292
0.6213755
0.62130759
0.62123924
0.62117049
0.62110137
0.62103194
0.6209622
0.62089217
0.6208218
0.62075102
0.62067973
0.6206078
0.62053502
0.62046099
0.62038378
0.62030204
0.62021472
0.62011697
0.62000456
0.61988137
0.61948243
0.61925983
0.61898573
0.61854006
0.61757897
0.61773737
0.61971971
0.62313671
0.62728181
0.63110182
0.63329394
0.63405386
0.63424042
0.6343044
0.63432022
0.63438053
0.63447623
0.6345718
0.63465295
0.63474159
0.63485196
0.63496776
0.63511243
0.63525441
0.63538383
0.63553683
0.63567437
0.63581456
0.63593591
0.63608848
0.63628571
0.63647685
0.63661546
0.63676898
0.63702598
0.63731515
0.63758195
0.63791145
0.63827024
0.63860805
0.63890374
0.63925563
0.63959465
0.63996924
0.64046516
0.64116704
0.64199456
0.64276669
0.64356967
0.64430717
0.64475288
0.64531863
0.64610007
0.6469423
0.6477248
0.6483889
0.64897108
0.64956283
0.65025539
0.65111282
0.65209029
0.65309957
0.65410513
0.65510328
0.65591195
0.65656611
0.65701642
0.65739207
0.65790627
0.65921984
0.66095397
0.66188863
0.66222113
0.62212805
0.62212425
0.62211595
0.62210216
0.62208152
0.62205297
0.62201646
0.6219736
0.62192706
0.6218792
0.62183154
0.62178477
0.62173916
0.62169469
0.62165124
0.62160864
0.62156672
0.62152532
0.62148434
0.6214437
0.6214033
0.62136305
0.62132285
0.62128266
0.6212424
0.62120202
0.62116146
0.62112061
0.62107929
0.62103722
0.62099432
0.62095071
0.62090647
0.62086169
0.62081641
0.62077066
0.62072449
0.62067791
0.62063096
0.62058364
0.62053598
0.62048795
0.62043946
0.62039005
0.62033947
0.62028804
0.62023509
0.62017827
0.62011051
0.62000842
0.61974888
0.61912284
0.61820176
0.61753193
0.61694008
0.61657398
0.6174643
0.61987754
0.62302692
0.62738369
0.63139327
0.63345529
0.63408698
0.63424589
0.63433014
0.63438842
0.63447573
0.63454225
0.63462517
0.63468407
0.63474266
0.63483433
0.63491818
0.63500508
0.63510628
0.6352028
0.63532523
0.63543186
0.63556475
0.63571979
0.63591958
0.63614462
0.63630848
0.63644317
0.63661544
0.63685457
0.6370987
0.637384
0.63772297
0.63809093
0.6384367
0.6387538
0.63912588
0.63947032
0.63982594
0.64023832
0.64090047
0.64167944
0.64252082
0.64336747
0.64419059
0.64472704
0.64525513
0.64601031
0.64686786
0.64769661
0.64844879
0.64912743
0.64978497
0.65050542
0.65134589
0.65226179
0.65322162
0.65421438
0.65517356
0.65591741
0.65651347
0.65695853
0.65735408
0.65791315
0.65927123
0.6609965
0.66189282
0.66221967
0.62155966
0.62155579
0.62154721
0.62153254
0.62151073
0.62148108
0.62144422
0.62140247
0.62135885
0.62131581
0.62127462
0.62123575
0.62119921
0.62116481
0.62113228
0.6211013
0.6210716
0.62104292
0.62101505
0.62098779
0.62096094
0.62093436
0.62090793
0.62088156
0.62085516
0.62082869
0.62080209
0.62077538
0.62074859
0.6207218
0.62069494
0.62066789
0.62064058
0.62061291
0.62058478
0.62055609
0.62052671
0.62049645
0.62046508
0.6204323
0.6203977
0.62036076
0.62032098
0.62027828
0.62023189
0.62018065
0.62012259
0.62005371
0.61996283
0.61981154
0.61945019
0.61861422
0.6173661
0.6168605
0.61625515
0.6161628
0.61732481
0.61925832
0.62248793
0.62716033
0.63139104
0.63344557
0.63401718
0.63416668
0.63424536
0.63433261
0.63440762
0.63447724
0.63455519
0.6346368
0.63468271
0.63476004
0.63484193
0.63491458
0.63493889
0.63497308
0.63506834
0.63517373
0.63532754
0.63550319
0.63572616
0.63593984
0.63611413
0.63627954
0.63647436
0.6366583
0.63686655
0.63716859
0.63751866
0.63788463
0.6382276
0.63856811
0.63895849
0.63930759
0.63965374
0.6400386
0.64064252
0.64135702
0.64221771
0.64314714
0.64404035
0.64470397
0.64522884
0.64593943
0.6467895
0.64763545
0.64843512
0.64918261
0.64989918
0.65065151
0.65148315
0.65236553
0.65331157
0.65430878
0.65522192
0.65591562
0.65645146
0.65689915
0.65731798
0.657929
0.65932553
0.66103706
0.66189658
0.66221918
0.62114134
0.62113783
0.62112988
0.62111666
0.62109705
0.62107102
0.62103933
0.62100445
0.62096895
0.6209348
0.62090283
0.62087322
0.62084584
0.6208204
0.62079659
0.62077408
0.62075261
0.62073191
0.62071176
0.62069197
0.62067238
0.6206529
0.62063339
0.62061376
0.62059389
0.62057369
0.62055303
0.62053182
0.62050993
0.62048723
0.62046358
0.62043883
0.62041282
0.62038535
0.62035623
0.62032521
0.62029199
0.62025625
0.62021759
0.6201755
0.62012939
0.62007849
0.62002171
0.61995741
0.61988365
0.61979781
0.61969594
0.61957135
0.61940828
0.61916419
0.61878617
0.61789451
0.61703391
0.61693222
0.6166
0.6165574
0.6170823
0.61876775
0.62254121
0.62743781
0.63137307
0.6332873
0.63385454
0.63401438
0.63409503
0.63419461
0.63432381
0.63443748
0.63449386
0.63453207
0.63454742
0.63460531
0.63468949
0.63477531
0.63482894
0.63483923
0.63488622
0.63497236
0.63512658
0.63529249
0.63549002
0.63569505
0.63589107
0.6360845
0.63627781
0.63644023
0.63665267
0.63696026
0.63731592
0.63767302
0.63800472
0.63836853
0.63878005
0.63913573
0.63948624
0.63986045
0.64040433
0.64106235
0.64189753
0.6428799
0.64386996
0.6446505
0.64522131
0.64589142
0.64671764
0.64756519
0.64839118
0.64918247
0.64994585
0.65072749
0.6515622
0.65243512
0.65338907
0.65439472
0.65525149
0.65590394
0.65638807
0.65684145
0.65728397
0.65795322
0.65938224
0.66107561
0.66189975
0.62069783
0.62069743
0.62069655
0.62069522
0.62069314
0.62069041
0.62068671
0.62068214
0.62067651
0.62066994