/*--------------------------------*- C++ -*----------------------------------*\
| =========                 |                                                 |
| \\      /  F ield         | OpenFOAM: The Open Source CFD Toolbox           |
|  \\    /   O peration     | Version:  2506                                  |
|   \\  /    A nd           | Website:  www.openfoam.com                      |
|    \\/     M anipulation  |                                                 |
\*---------------------------------------------------------------------------*/
FoamFile
{
    version     2.0;
    format      ascii;
    arch        "LSB;label=32;scalar=64";
    class       volScalarField;
    location    "0.02";
    object      p;
}
// * * * * * * * * * * * * * * * * * * * * * * * * * * * * * * * * * * * * * //

dimensions      [1 -1 -2 0 0 0 0];

internalField   nonuniform List<scalar> 
13761
(
45801.758
45801.755
45801.753
45801.75
45801.747
45801.744
45801.741
45801.737
45801.733
45801.729
45801.723
45801.718
45801.711
45801.704
45801.695
45801.686
45801.676
45801.665
45801.653
45801.639
45801.625
45801.609
45801.592
45801.573
45801.553
45801.532
45801.509
45801.484
45801.457
45801.429
45801.398
45801.366
45801.331
45801.294
45801.255
45801.214
45801.17
45801.125
45801.078
45801.028
45800.978
45800.925
45792.13
45792.127
45792.125
45792.122
45792.119
45792.115
45792.112
45792.108
45792.103
45792.098
45792.093
45792.086
45792.079
45792.071
45792.062
45792.051
45792.04
45792.028
45792.014
45791.999
45791.983
45791.965
45791.946
45791.925
45791.903
45791.878
45791.853
45791.825
45791.795
45791.763
45791.729
45791.693
45791.654
45791.613
45791.57
45791.525
45791.478
45791.428
45791.377
45781.494
45781.491
45781.488
45781.485
45781.481
45781.478
45781.473
45781.469
45781.464
45781.458
45781.452
45781.445
45781.436
45781.427
45781.416
45781.404
45781.391
45781.377
45781.361
45781.343
45781.324
45781.304
45781.281
45781.257
45781.231
45781.203
45781.172
45781.14
45781.105
45781.068
45781.028
45780.986
45780.941
45780.894
45780.845
45780.793
45769.181
45769.177
45769.174
45769.17
45769.166
45769.162
45769.157
45769.152
45769.146
45769.139
45769.131
45769.123
45769.113
45769.101
45769.089
45769.074
45769.059
45769.041
45769.022
45769.001
45768.978
45768.953
45768.926
45768.897
45768.866
45768.832
45768.795
45768.756
45768.714
45768.669
45768.622
45754.346
45754.342
45754.337
45754.333
45754.328
45754.322
45754.316
45754.309
45754.302
45754.294
45754.284
45754.273
45754.26
45754.246
45754.23
45754.212
45754.192
45754.17
45754.146
45754.12
45754.092
45754.061
45754.027
45753.991
45735.9
47901.801
47901.803
47901.805
47901.807
47901.809
47901.812
47901.815
47901.819
47901.823
47901.828
47901.834
47901.841
47901.85
47901.859
47901.869
47901.881
47901.895
47901.91
47901.928
47901.947
47901.968
47901.993
47902.02
47902.05
47902.083
47902.12
47902.162
47902.208
47902.259
47902.316
47902.379
47902.448
47902.525
47902.61
47902.705
47902.809
47902.924
47903.052
47903.192
47903.348
47903.52
47903.709
47903.919
47904.151
47904.408
47904.693
47905.012
47905.369
47905.784
47906.26
47906.795
47907.369
47907.996
47908.671
47909.404
47910.195
47911.051
47911.978
47912.979
47914.06
47915.229
47916.49
47917.852
47919.321
47920.904
47922.611
47924.448
47926.425
47928.549
47930.832
47933.28
47935.905
47892.539
47892.541
47892.543
47892.544
47892.547
47892.549
47892.552
47892.556
47892.56
47892.565
47892.571
47892.578
47892.587
47892.596
47892.606
47892.618
47892.631
47892.647
47892.663
47892.683
47892.704
47892.728
47892.754
47892.784
47892.817
47892.854
47892.895
47892.94
47892.99
47893.046
47893.108
47893.177
47893.253
47893.337
47893.43
47893.532
47893.646
47893.772
47893.91
47894.063
47894.232
47894.419
47894.626
47894.854
47895.107
47895.388
47895.702
47896.054
47896.462
47896.932
47897.461
47898.03
47898.65
47899.319
47900.044
47900.828
47901.676
47902.593
47903.585
47904.657
47905.815
47907.066
47908.416
47909.873
47911.444
47913.137
47914.96
47916.923
47919.033
47921.301
47923.735
47926.344
47929.139
47932.127
47935.318
47938.72
47942.339
47946.182
47950.252
47954.551
47959.078
47963.829
47883.339
47883.34
47883.342
47883.344
47883.346
47883.349
47883.352
47883.356
47883.36
47883.365
47883.371
47883.378
47883.386
47883.395
47883.405
47883.417
47883.43
47883.445
47883.462
47883.481
47883.502
47883.525
47883.551
47883.581
47883.613
47883.649
47883.69
47883.734
47883.784
47883.839
47883.9
47883.968
47884.043
47884.126
47884.217
47884.319
47884.431
47884.555
47884.691
47884.842
47885.009
47885.193
47885.396
47885.621
47885.871
47886.148
47886.457
47886.804
47887.206
47887.669
47888.193
47888.756
47889.37
47890.032
47890.751
47891.528
47892.368
47893.277
47894.26
47895.323
47896.471
47897.711
47899.05
47900.496
47902.055
47903.735
47905.546
47907.495
47909.591
47911.845
47914.264
47916.859
47919.639
47922.613
47925.79
47929.179
47932.786
47936.618
47940.679
47944.972
47949.497
47954.249
47959.22
47964.398
47969.764
47975.29
47980.94
47986.67
47874.195
47874.197
47874.199
47874.201
47874.203
47874.205
47874.208
47874.212
47874.216
47874.221
47874.227
47874.234
47874.242
47874.251
47874.261
47874.272
47874.286
47874.3
47874.317
47874.335
47874.356
47874.379
47874.405
47874.434
47874.466
47874.502
47874.542
47874.586
47874.635
47874.689
47874.749
47874.816
47874.89
47874.972
47875.062
47875.162
47875.273
47875.395
47875.53
47875.678
47875.843
47876.024
47876.225
47876.447
47876.693
47876.966
47877.27
47877.612
47878.008
47878.466
47878.985
47879.542
47880.151
47880.807
47881.52
47882.29
47883.123
47884.024
47884.999
47886.053
47887.192
47888.423
47889.752
47891.187
47892.734
47894.403
47896.202
47898.138
47900.221
47902.461
47904.867
47907.448
47910.214
47913.174
47916.338
47919.713
47923.309
47927.13
47931.183
47935.469
47939.99
47944.743
47949.72
47954.909
47960.294
47965.847
47971.535
47977.315
47983.13
47988.912
47994.577
48000.023
47865.102
47865.104
47865.106
47865.108
47865.11
47865.113
47865.116
47865.119
47865.123
47865.128
47865.134
47865.141
47865.149
47865.157
47865.168
47865.179
47865.192
47865.206
47865.223
47865.241
47865.262
47865.284
47865.31
47865.339
47865.37
47865.406
47865.445
47865.488
47865.537
47865.59
47865.65
47865.716
47865.789
47865.869
47865.959
47866.057
47866.166
47866.287
47866.42
47866.567
47866.729
47866.908
47867.106
47867.325
47867.567
47867.836
47868.137
47868.474
47868.864
47869.316
47869.83
47870.384
47870.987
47871.638
47872.345
47873.108
47873.935
47874.83
47875.798
47876.844
47877.975
47879.197
47880.517
47881.942
47883.48
47885.138
47886.925
47888.85
47890.922
47893.149
47895.542
47898.11
47900.863
47903.81
47906.96
47910.324
47913.907
47917.718
47921.762
47926.042
47930.559
47935.312
47940.294
47945.495
47950.897
47956.476
47962.201
47968.029
47973.907
47979.769
47985.533
47991.098
47996.357
48001.181
48005.419
47856.044
47856.046
47856.047
47856.049
47856.051
47856.054
47856.057
47856.06
47856.065
47856.07
47856.075
47856.082
47856.09
47856.098
47856.108
47856.12
47856.132
47856.147
47856.163
47856.181
47856.201
47856.224
47856.249
47856.277
47856.308
47856.343
47856.382
47856.425
47856.473
47856.526
47856.585
47856.65
47856.722
47856.802
47856.89
47856.988
47857.095
47857.214
47857.346
47857.491
47857.652
47857.829
47858.024
47858.241
47858.48
47858.747
47859.044
47859.377
47859.763
47860.211
47860.721
47861.271
47861.87
47862.517
47863.219
47863.978
47864.8
47865.689
47866.651
47867.691
47868.815
47870.031
47871.343
47872.76
47874.289
47875.938
47877.716
47879.63
47881.691
47883.907
47886.288
47888.844
47891.585
47894.52
47897.658
47901.009
47904.582
47908.382
47912.418
47916.691
47921.205
47925.957
47930.944
47936.154
47941.573
47947.178
47952.938
47958.814
47964.753
47970.692
47976.553
47982.235
47987.635
47992.625
47997.058
48000.772
48003.595
47847.024
47847.026
47847.027
47847.029
47847.031
47847.034
47847.037
47847.04
47847.044
47847.049
47847.055
47847.062
47847.069
47847.078
47847.088
47847.099
47847.112
47847.126
47847.142
47847.16
47847.18
47847.203
47847.228
47847.256
47847.287
47847.321
47847.36
47847.403
47847.45
47847.503
47847.561
47847.626
47847.697
47847.776
47847.863
47847.96
47848.067
47848.185
47848.315
47848.459
47848.617
47848.793
47848.986
47849.2
47849.437
47849.7
47849.994
47850.323
47850.704
47851.148
47851.655
47852.201
47852.797
47853.441
47854.14
47854.895
47855.713
47856.599
47857.556
47858.592
47859.712
47860.922
47862.229
47863.639
47865.162
47866.804
47868.573
47870.48
47872.531
47874.737
47877.108
47879.653
47882.382
47885.305
47888.432
47891.771
47895.333
47899.123
47903.15
47907.417
47911.926
47916.678
47921.669
47926.888
47932.324
47937.953
47943.747
47949.669
47955.668
47961.683
47967.638
47973.435
47978.973
47984.128
47988.752
47992.687
47995.761
47997.797
47998.617
47837.88
47837.882
47837.884
47837.886
47837.888
47837.89
47837.893
47837.897
47837.901
47837.906
47837.912
47837.919
47837.926
47837.935
47837.945
47837.957
47837.97
47837.984
47838.001
47838.019
47838.04
47838.063
47838.088
47838.117
47838.149
47838.184
47838.224
47838.267
47838.316
47838.37
47838.429
47838.495
47838.568
47838.649
47838.738
47838.837
47838.946
47839.066
47839.199
47839.346
47839.507
47839.686
47839.882
47840.1
47840.34
47840.607
47840.904
47841.237
47841.622
47842.07
47842.582
47843.134
47843.736
47844.384
47845.087
47845.845
47846.666
47847.553
47848.511
47849.547
47850.665
47851.873
47853.177
47854.585
47856.102
47857.739
47859.502
47861.401
47863.444
47865.641
47868.002
47870.537
47873.255
47876.167
47879.283
47882.611
47886.161
47889.942
47893.96
47898.22
47902.725
47907.476
47912.47
47917.698
47923.148
47928.801
47934.629
47940.595
47946.653
47952.741
47958.788
47964.699
47970.373
47975.688
47980.501
47984.653
47987.975
47990.287
47991.412
47991.179
47989.44
47828.971
47828.972
47828.974
47828.976
47828.978
47828.981
47828.983
47828.987
47828.991
47828.996
47829.002
47829.008
47829.016
47829.025
47829.035
47829.046
47829.059
47829.073
47829.09
47829.108
47829.128
47829.151
47829.176
47829.205
47829.236
47829.271
47829.31
47829.354
47829.402
47829.455
47829.514
47829.579
47829.651
47829.731
47829.82
47829.917
47830.025
47830.144
47830.275
47830.42
47830.58
47830.756
47830.951
47831.166
47831.403
47831.667
47831.96
47832.29
47832.671
47833.117
47833.627
47834.178
47834.779
47835.426
47836.128
47836.886
47837.706
47838.592
47839.549
47840.583
47841.7
47842.905
47844.206
47845.609
47847.122
47848.753
47850.51
47852.401
47854.437
47856.625
47858.976
47861.5
47864.208
47867.109
47870.212
47873.529
47877.069
47880.839
47884.848
47889.101
47893.601
47898.351
47903.347
47908.583
47914.048
47919.723
47925.583
47931.593
47937.707
47943.868
47950.005
47956.026
47961.833
47967.308
47972.306
47976.673
47980.237
47982.823
47984.248
47984.338
47982.94
47979.94
47820.252
47820.254
47820.256
47820.257
47820.259
47820.262
47820.265
47820.268
47820.272
47820.277
47820.283
47820.289
47820.297
47820.305
47820.315
47820.326
47820.339
47820.353
47820.369
47820.387
47820.407
47820.429
47820.454
47820.482
47820.513
47820.548
47820.586
47820.629
47820.676
47820.728
47820.786
47820.85
47820.921
47821
47821.087
47821.183
47821.289
47821.406
47821.535
47821.677
47821.834
47822.007
47822.199
47822.41
47822.643
47822.902
47823.191
47823.516
47823.889
47824.329
47824.833
47825.379
47825.974
47826.616
47827.312
47828.064
47828.878
47829.757
47830.708
47831.735
47832.845
47834.044
47835.337
47836.733
47838.238
47839.861
47841.609
47843.491
47845.516
47847.694
47850.034
47852.547
47855.243
47858.132
47861.223
47864.528
47868.056
47871.816
47875.815
47880.06
47884.555
47889.303
47894.301
47899.544
47905.023
47910.719
47916.61
47922.662
47928.831
47935.063
47941.288
47947.417
47953.356
47958.986
47964.167
47968.745
47972.549
47975.403
47977.124
47977.534
47976.472
47973.819
47969.503
47963.522
47811.674
47811.676
47811.678
47811.679
47811.681
47811.684
47811.687
47811.69
47811.694
47811.699
47811.704
47811.711
47811.718
47811.727
47811.736
47811.747
47811.76
47811.774
47811.789
47811.807
47811.826
47811.848
47811.873
47811.9
47811.931
47811.965
47812.002
47812.044
47812.091
47812.142
47812.199
47812.262
47812.332
47812.409
47812.495
47812.589
47812.693
47812.808
47812.935
47813.075
47813.229
47813.399
47813.587
47813.795
47814.024
47814.279
47814.562
47814.881
47815.248
47815.681
47816.179
47816.718
47817.307
47817.941
47818.63
47819.374
47820.179
47821.05
47821.991
47823.009
47824.109
47825.297
47826.58
47827.965
47829.459
47831.07
47832.806
47834.677
47836.689
47838.855
47841.182
47843.682
47846.364
47849.24
47852.318
47855.61
47859.125
47862.873
47866.862
47871.099
47875.588
47880.333
47885.332
47890.582
47896.073
47901.79
47907.71
47913.803
47920.026
47926.326
47932.638
47938.874
47944.941
47950.724
47956.085
47960.87
47964.911
47968.03
47970.042
47970.766
47970.036
47967.724
47963.752
47958.109
47950.847
47803.214
47803.215
47803.217
47803.219
47803.221
47803.223
47803.226
47803.229
47803.233
47803.238
47803.243
47803.249
47803.257
47803.265
47803.275
47803.285
47803.298
47803.311
47803.327
47803.344
47803.363
47803.385
47803.409
47803.436
47803.466
47803.499
47803.536
47803.577
47803.623
47803.673
47803.73
47803.792
47803.86
47803.936
47804.02
47804.113
47804.215
47804.328
47804.453
47804.59
47804.742
47804.909
47805.093
47805.297
47805.522
47805.772
47806.05
47806.364
47806.724
47807.15
47807.641
47808.174
47808.755
47809.382
47810.063
47810.798
47811.595
47812.456
47813.387
47814.395
47815.483
47816.66
47817.931
47819.303
47820.784
47822.381
47824.104
47825.96
47827.958
47830.109
47832.421
47834.906
47837.574
47840.434
47843.498
47846.776
47850.277
47854.013
47857.991
47862.218
47866.701
47871.442
47876.442
47881.697
47887.2
47892.936
47898.885
47905.016
47911.291
47917.659
47924.055
47930.395
47936.588
47942.522
47948.06
47953.049
47957.323
47960.702
47963.001
47964.035
47963.632
47961.656
47958.022
47952.71
47945.76
47937.242
47794.855
47794.857
47794.858
47794.86
47794.862
47794.864
47794.867
47794.87
47794.874
47794.879
47794.884
47794.89
47794.897
47794.906
47794.915
47794.925
47794.937
47794.951
47794.966
47794.983
47795.002
47795.023
47795.047
47795.073
47795.103
47795.136
47795.172
47795.212
47795.257
47795.307
47795.362
47795.423
47795.49
47795.565
47795.648
47795.739
47795.839
47795.95
47796.073
47796.208
47796.356
47796.521
47796.702
47796.902
47797.123
47797.368
47797.641
47797.949
47798.302
47798.721
47799.205
47799.731
47800.305
47800.925
47801.597
47802.324
47803.111
47803.963
47804.884
47805.881
47806.958
47808.122
47809.38
47810.739
47812.206
47813.79
47815.497
47817.338
47819.32
47821.455
47823.751
47826.22
47828.871
47831.715
47834.763
47838.026
47841.513
47845.236
47849.202
47853.419
47857.894
47862.631
47867.63
47872.89
47878.404
47884.158
47890.134
47896.303
47902.629
47909.062
47915.541
47921.982
47928.299
47934.38
47940.091
47945.282
47949.785
47953.421
47956.003
47957.341
47957.26
47955.615
47952.313
47947.323
47940.677
47932.442
47922.56
47786.587
47786.589
47786.59
47786.592
47786.594
47786.596
47786.599
47786.602
47786.606
47786.61
47786.616
47786.622
47786.629
47786.637
47786.646
47786.656
47786.668
47786.681
47786.696
47786.713
47786.732
47786.753
47786.776
47786.802
47786.831
47786.863
47786.899
47786.939
47786.983
47787.032
47787.086
47787.146
47787.212
47787.285
47787.366
47787.456
47787.555
47787.664
47787.784
47787.917
47788.063
47788.224
47788.402
47788.598
47788.815
47789.056
47789.324
47789.626
47789.973
47790.384
47790.861
47791.381
47791.948
47792.56
47793.224
47793.942
47794.721
47795.562
47796.473
47797.459
47798.524
47799.677
47800.922
47802.267
47803.72
47805.289
47806.981
47808.806
47810.772
47812.89
47815.17
47817.622
47820.256
47823.083
47826.114
47829.361
47832.833
47836.541
47840.494
47844.701
47849.168
47853.899
47858.898
47864.161
47869.685
47875.456
47881.458
47887.664
47894.039
47900.535
47907.094
47913.635
47920.073
47926.299
47932.181
47937.569
47942.298
47946.186
47949.046
47950.685
47950.92
47949.6
47946.624
47941.95
47935.6
47927.637
47918.004
47906.892
47778.401
47778.402
47778.404
47778.406
47778.407
47778.41
47778.412
47778.415
47778.419
47778.424
47778.429
47778.435
47778.442
47778.45
47778.459
47778.469
47778.481
47778.494
47778.508
47778.525
47778.543
47778.564
47778.587
47778.612
47778.641
47778.672
47778.708
47778.747
47778.79
47778.838
47778.891
47778.95
47779.016
47779.088
47779.167
47779.255
47779.352
47779.46
47779.578
47779.708
47779.852
47780.01
47780.185
47780.378
47780.591
47780.827
47781.09
47781.387
47781.727
47782.132
47782.602
47783.115
47783.675
47784.28
47784.936
47785.646
47786.415
47787.247
47788.148
47789.122
47790.176
47791.316
47792.549
47793.881
47795.32
47796.874
47798.551
47800.36
47802.31
47804.412
47806.674
47809.109
47811.726
47814.536
47817.55
47820.78
47824.236
47827.93
47831.87
47836.065
47840.523
47845.249
47850.245
47855.511
47861.044
47866.831
47872.857
47879.099
47885.521
47892.079
47898.717
47905.355
47911.911
47918.279
47924.328
47929.911
47934.861
47938.998
47942.131
47944.066
47944.612
47943.613
47940.956
47936.591
47930.529
47922.828
47913.433
47902.547
47889.468
47770.288
47770.289
47770.291
47770.292
47770.294
47770.297
47770.299
47770.302
47770.306
47770.31
47770.316
47770.321
47770.328
47770.336
47770.345
47770.355
47770.367
47770.379
47770.394
47770.41
47770.428
47770.448
47770.471
47770.496
47770.524
47770.555
47770.59
47770.628
47770.671
47770.718
47770.771
47770.829
47770.893
47770.964
47771.042
47771.129
47771.224
47771.329
47771.446
47771.574
47771.715
47771.871
47772.042
47772.232
47772.441
47772.673
47772.931
47773.223
47773.556
47773.955
47774.418
47774.925
47775.478
47776.076
47776.724
47777.426
47778.187
47779.009
47779.9
47780.864
47781.907
47783.036
47784.256
47785.575
47787
47788.54
47790.202
47791.996
47793.93
47796.015
47798.261
47800.679
47803.278
47806.071
47809.069
47812.282
47815.722
47819.401
47823.327
47827.511
47831.959
47836.678
47841.672
47846.941
47852.481
47858.283
47864.333
47870.608
47877.076
47883.694
47890.408
47897.141
47903.813
47910.32
47916.534
47922.307
47927.475
47931.856
47935.259
47937.484
47938.337
47937.652
47935.308
47931.246
47925.463
47918.015
47908.848
47898.176
47885.339
47869.559
47762.239
47762.241
47762.242
47762.244
47762.246
47762.248
47762.25
47762.253
47762.257
47762.261
47762.266
47762.272
47762.279
47762.287
47762.295
47762.305
47762.317
47762.329
47762.343
47762.359
47762.377
47762.397
47762.419
47762.444
47762.472
47762.502
47762.537
47762.574
47762.616
47762.663
47762.714
47762.771
47762.835
47762.904
47762.981
47763.067
47763.161
47763.264
47763.379
47763.505
47763.644
47763.797
47763.965
47764.152
47764.357
47764.585
47764.839
47765.125
47765.453
47765.845
47766.302
47766.803
47767.35
47767.941
47768.582
47769.276
47770.029
47770.843
47771.724
47772.679
47773.711
47774.829
47776.037
47777.344
47778.756
47780.282
47781.931
47783.71
47785.629
47787.698
47789.928
47792.329
47794.912
47797.688
47800.669
47803.866
47807.291
47810.954
47814.867
47819.038
47823.477
47828.19
47833.18
47838.45
47843.997
47849.813
47855.886
47862.193
47868.705
47875.381
47882.169
47888.995
47895.78
47902.423
47908.798
47914.758
47920.14
47924.761
47928.429
47930.94
47932.094
47931.718
47929.681
47925.914
47920.403
47913.199
47904.249
47893.78
47881.173
47865.673
47846.732
47754.246
47754.248
47754.249
47754.251
47754.253
47754.255
47754.257
47754.26
47754.264
47754.268
47754.273
47754.279
47754.286
47754.293
47754.302
47754.312
47754.323
47754.335
47754.349
47754.365
47754.382
47754.402
47754.424
47754.448
47754.475
47754.506
47754.539
47754.576
47754.618
47754.664
47754.714
47754.771
47754.833
47754.901
47754.977
47755.061
47755.154
47755.256
47755.368
47755.492
47755.629
47755.78
47755.946
47756.129
47756.331
47756.555
47756.805
47757.086
47757.408
47757.794
47758.246
47758.741
47759.282
47759.867
47760.502
47761.189
47761.933
47762.74
47763.613
47764.558
47765.581
47766.689
47767.886
47769.182
47770.583
47772.097
47773.732
47775.497
47777.403
47779.457
47781.672
47784.058
47786.625
47789.385
47792.35
47795.531
47798.941
47802.59
47806.489
47810.648
47815.077
47819.782
47824.769
47830.039
47835.593
47841.422
47847.515
47853.853
47860.408
47867.14
47874
47880.916
47887.812
47894.588
47901.12
47907.264
47912.856
47917.713
47921.64
47924.432
47925.882
47925.81
47924.075
47920.596
47915.348
47908.379
47899.636
47889.359
47876.971
47861.743
47843.169
47818.925
47746.295
47746.296
47746.298
47746.299
47746.301
47746.303
47746.306
47746.309
47746.312
47746.317
47746.321
47746.327
47746.334
47746.341
47746.35
47746.359
47746.37
47746.383
47746.396
47746.412
47746.429
47746.448
47746.47
47746.494
47746.521
47746.55
47746.584
47746.62
47746.661
47746.706
47746.756
47746.812
47746.873
47746.94
47747.015
47747.098
47747.189
47747.29
47747.401
47747.523
47747.658
47747.806
47747.97
47748.15
47748.349
47748.57
47748.816
47749.093
47749.411
47749.791
47750.238
47750.729
47751.265
47751.844
47752.473
47753.154
47753.893
47754.693
47755.559
47756.496
47757.511
47758.61
47759.799
47761.085
47762.475
47763.979
47765.603
47767.356
47769.249
47771.291
47773.492
47775.863
47778.416
47781.161
47784.111
47787.277
47790.672
47794.307
47798.192
47802.34
47806.758
47811.456
47816.439
47821.709
47827.268
47833.109
47839.223
47845.59
47852.186
47858.972
47865.902
47872.906
47879.909
47886.815
47893.501
47899.825
47905.623
47910.712
47914.894
47917.962
47919.703
47919.929
47918.488
47915.291
47910.299
47903.556
47895.011
47884.915
47872.735
47857.77
47839.558
47815.844
47784.842
47738.378
47738.38
47738.381
47738.383
47738.385
47738.387
47738.389
47738.392
47738.396
47738.4
47738.405
47738.411
47738.417
47738.425
47738.433
47738.442
47738.453
47738.465
47738.479
47738.494
47738.511
47738.53
47738.552
47738.575
47738.602
47738.631
47738.664
47738.7
47738.74
47738.785
47738.834
47738.889
47738.949
47739.016
47739.09
47739.171
47739.261
47739.36
47739.47
47739.59
47739.723
47739.87
47740.031
47740.209
47740.406
47740.624
47740.867
47741.14
47741.453
47741.829
47742.271
47742.758
47743.29
47743.865
47744.49
47745.166
47745.9
47746.695
47747.555
47748.487
47749.496
47750.588
47751.77
47753.049
47754.431
47755.926
47757.541
47759.284
47761.167
47763.197
47765.386
47767.745
47770.285
47773.017
47775.952
47779.104
47782.485
47786.106
47789.978
47794.114
47798.522
47803.212
47808.19
47813.461
47819.024
47824.876
47831.008
47837.403
47844.038
47850.877
47857.874
47864.963
47872.071
47879.105
47885.942
47892.441
47898.441
47903.757
47908.19
47911.528
47913.555
47914.074
47912.922
47909.999
47905.256
47898.731
47890.374
47880.448
47868.465
47853.756
47835.901
47812.715
47782.327
47747.193
47730.423
47730.425
47730.426
47730.428
47730.43
47730.432
47730.434
47730.437
47730.441
47730.445
47730.45
47730.456
47730.462
47730.47
47730.478
47730.488
47730.499
47730.511
47730.525
47730.54
47730.557
47730.576
47730.598
47730.622
47730.648
47730.678
47730.71
47730.747
47730.787
47730.832
47730.882
47730.936
47730.997
47731.064
47731.138
47731.22
47731.31
47731.41
47731.519
47731.64
47731.773
47731.92
47732.082
47732.259
47732.456
47732.673
47732.915
47733.188
47733.5
47733.875
47734.316
47734.803
47735.335
47735.91
47736.535
47737.21
47737.943
47738.736
47739.595
47740.525
47741.532
47742.621
47743.799
47745.073
47746.451
47747.939
47749.547
47751.283
47753.157
47755.178
47757.357
47759.705
47762.232
47764.952
47767.874
47771.013
47774.38
47777.987
47781.847
47785.971
47790.369
47795.051
47800.024
47805.293
47810.86
47816.722
47822.872
47829.294
47835.966
47842.855
47849.918
47857.089
47864.3
47871.457
47878.441
47885.113
47891.31
47896.849
47901.528
47905.132
47907.439
47908.244
47907.376
47904.721
47900.219
47893.903
47885.724
47875.959
47864.163
47849.702
47832.199
47809.542
47779.787
47744.923
47722.4
47722.401
47722.403
47722.404
47722.406
47722.408
47722.411
47722.414
47722.417
47722.422
47722.427
47722.432
47722.439
47722.447
47722.455
47722.465
47722.476
47722.489
47722.503
47722.519
47722.536
47722.556
47722.578
47722.602
47722.63
47722.66
47722.693
47722.731
47722.772
47722.818
47722.869
47722.925
47722.987
47723.056
47723.132
47723.216
47723.308
47723.41
47723.522
47723.645
47723.781
47723.931
47724.095
47724.277
47724.476
47724.697
47724.943
47725.22
47725.536
47725.916
47726.363
47726.858
47727.396
47727.978
47728.608
47729.29
47730.027
47730.824
47731.686
47732.618
47733.626
47734.716
47735.893
47737.166
47738.54
47740.025
47741.628
47743.358
47745.225
47747.238
47749.407
47751.745
47754.262
47756.969
47759.879
47763.005
47766.359
47769.953
47773.8
47777.912
47782.3
47786.974
47791.941
47797.208
47802.778
47808.649
47814.815
47821.262
47827.97
47834.907
47842.033
47849.285
47856.594
47863.872
47870.999
47877.84
47884.23
47889.987
47894.907
47898.772
47901.354
47902.44
47901.849
47899.455
47895.187
47889.073
47881.064
47871.449
47859.83
47845.609
47828.454
47806.325
47777.223
47742.651
47716.108
47714.687
47714.689
47714.69
47714.692
47714.694
47714.696
47714.698
47714.701
47714.705
47714.709
47714.714
47714.719
47714.726
47714.733
47714.742
47714.751
47714.762
47714.774
47714.788
47714.803
47714.821
47714.84
47714.862
47714.886
47714.912
47714.942
47714.975
47715.012
47715.052
47715.097
47715.147
47715.202
47715.263
47715.33
47715.405
47715.487
47715.577
47715.677
47715.787
47715.908
47716.041
47716.187
47716.349
47716.526
47716.722
47716.939
47717.18
47717.451
47717.762
47718.136
47718.58
47719.071
47719.606
47720.186
47720.814
47721.493
47722.228
47723.024
47723.884
47724.814
47725.82
47726.906
47728.081
47729.35
47730.72
47732.2
47733.797
47735.521
47737.38
47739.384
47741.544
47743.872
47746.377
47749.072
47751.97
47755.082
47758.423
47762.004
47765.838
47769.938
47774.315
47778.98
47783.941
47789.206
47794.778
47800.656
47806.837
47813.307
47820.049
47827.033
47834.22
47841.549
47848.955
47856.349
47863.617
47870.622
47877.201
47883.172
47888.328
47892.448
47895.3
47896.661
47896.341
47894.202
47890.161
47884.24
47876.393
47866.919
47855.467
47841.479
47824.667
47803.066
47774.637
47740.381
47714.139
47687.71
47707.15
47707.151
47707.153
47707.154
47707.156
47707.158
47707.161
47707.163
47707.167
47707.171
47707.176
47707.181
47707.188
47707.195
47707.203
47707.213
47707.223
47707.235
47707.249
47707.264
47707.281
47707.3
47707.321
47707.345
47707.371
47707.4
47707.432
47707.468
47707.508
47707.552
47707.601
47707.655
47707.715
47707.781
47707.854
47707.935
47708.024
47708.122
47708.23
47708.348
47708.479
47708.623
47708.781
47708.956
47709.148
47709.36
47709.597
47709.863
47710.169
47710.537
47710.973
47711.458
47711.988
47712.561
47713.182
47713.854
47714.582
47715.37
47716.223
47717.145
47718.143
47719.222
47720.389
47721.649
47723.011
47724.482
47726.07
47727.784
47729.633
47731.626
47733.775
47736.09
47738.583
47741.266
47744.149
47747.248
47750.574
47754.142
47757.962
47762.05
47766.415
47771.071
47776.025
47781.287
47786.86
47792.745
47798.939
47805.432
47812.206
47819.234
47826.479
47833.883
47841.382
47848.89
47856.294
47863.459
47870.223
47876.403
47881.791
47886.16
47889.276
47890.907
47890.851
47888.961
47885.14
47879.405
47871.712
47862.37
47851.075
47837.314
47820.841
47799.767
47772.027
47738.111
47712.169
47686.259
47699.758
47699.759
47699.761
47699.762
47699.764
47699.766
47699.768
47699.771
47699.775
47699.779
47699.783
47699.789
47699.795
47699.802
47699.81
47699.819
47699.83
47699.842
47699.855
47699.87
47699.886
47699.905
47699.926
47699.949
47699.975
47700.003
47700.035
47700.07
47700.109
47700.153
47700.201
47700.254
47700.313
47700.378
47700.449
47700.528
47700.615
47700.711
47700.817
47700.934
47701.062
47701.203
47701.358
47701.529
47701.718
47701.926
47702.158
47702.419
47702.719
47703.08
47703.51
47703.989
47704.512
47705.078
47705.692
47706.356
47707.075
47707.854
47708.698
47709.61
47710.598
47711.666
47712.821
47714.07
47715.42
47716.878
47718.454
47720.155
47721.99
47723.97
47726.105
47728.406
47730.885
47733.552
47736.421
47739.505
47742.816
47746.368
47750.175
47754.248
47758.602
47763.247
47768.194
47773.451
47779.024
47784.915
47791.121
47797.634
47804.439
47811.509
47818.81
47826.286
47833.875
47841.494
47849.031
47856.351
47863.296
47869.68
47875.294
47879.909
47883.282
47885.177
47885.38
47883.733
47880.125
47874.568
47867.021
47857.803
47846.656
47833.115
47816.977
47796.429
47769.397
47735.845
47710.199
47684.801
47669.595
47692.489
47692.49
47692.492
47692.493
47692.495
47692.497
47692.499
47692.502
47692.505
47692.509
47692.514
47692.519
47692.525
47692.532
47692.54
47692.549
47692.559
47692.571
47692.584
47692.599
47692.615
47692.633
47692.653
47692.676
47692.701
47692.729
47692.761
47692.795
47692.834
47692.876
47692.923
47692.975
47693.033
47693.097
47693.167
47693.244
47693.33
47693.424
47693.528
47693.642
47693.768
47693.906
47694.058
47694.226
47694.41
47694.614
47694.841
47695.098
47695.391
47695.746
47696.169
47696.641
47697.157
47697.715
47698.321
47698.977
47699.688
47700.458
47701.291
47702.193
47703.169
47704.226
47705.369
47706.605
47707.941
47709.386
47710.947
47712.633
47714.453
47716.418
47718.537
47720.822
47723.284
47725.935
47728.787
47731.854
47735.149
47738.685
47742.476
47746.536
47750.876
47755.511
47760.449
47765.701
47771.273
47777.167
47783.385
47789.917
47796.75
47803.86
47811.215
47818.759
47826.436
47834.161
47841.827
47849.299
47856.42
47863.003
47868.838
47873.692
47877.318
47879.471
47879.927
47878.516
47875.114
47869.73
47862.321
47853.219
47842.212
47828.883
47813.077
47793.053
47766.746
47733.584
47708.23
47683.336
47668.623
47685.327
47685.328
47685.329
47685.331
47685.332
47685.334
47685.337
47685.339
47685.342
47685.346
47685.351
47685.356
47685.362
47685.369
47685.377
47685.386
47685.396
47685.407
47685.42
47685.434
47685.45
47685.468
47685.488
47685.51
47685.535
47685.563
47685.593
47685.627
47685.665
47685.707
47685.753
47685.804
47685.861
47685.923
47685.992
47686.068
47686.152
47686.244
47686.346
47686.458
47686.582
47686.717
47686.866
47687.03
47687.211
47687.411
47687.633
47687.884
47688.172
47688.52
47688.936