/*--------------------------------*- C++ -*----------------------------------*\
| =========                 |                                                 |
| \\      /  F ield         | OpenFOAM: The Open Source CFD Toolbox           |
|  \\    /   O peration     | Version:  2506                                  |
|   \\  /    A nd           | Website:  www.openfoam.com                      |
|    \\/     M anipulation  |                                                 |
\*---------------------------------------------------------------------------*/
FoamFile
{
    version     2.0;
    format      ascii;
    arch        "LSB;label=32;scalar=64";
    class       volScalarField;
    location    "2.65";
    object      k;
}
// * * * * * * * * * * * * * * * * * * * * * * * * * * * * * * * * * * * * * //

dimensions      [0 2 -2 0 0 0 0];

internalField   nonuniform List<scalar> 
1375
(
1.9543698
1.9702609
2.3277054
2.6471612
2.8695104
3.0089086
1.9561857
2.3127925
2.6314283
2.8522951
2.9897577
3.0634416
3.0945773
3.1025989
3.1020172
3.0957865
1.9424395
2.2982617
2.6160419
2.835378
2.9708971
3.0427378
3.0725603
3.0800081
3.0791764
3.0731413
3.0693513
3.0677911
3.0676237
3.0700267
3.0742274
1.9299412
2.2849752
2.6016089
2.8191444
2.9525431
3.022449
3.0509287
3.0578135
3.0566923
3.0508414
3.047297
3.0459281
3.0458703
3.0485464
3.0527649
3.057614
3.0630494
3.0689664
3.0753005
3.0820234
1.919579
2.2737301
2.5886961
2.8039645
2.9349089
3.0026796
3.0297283
3.0360357
3.0345604
3.0288821
3.0255589
3.0243653
3.0244184
3.027332
3.0315521
3.0363802
3.0417743
3.0476314
3.0538916
3.060529
3.0675363
3.0749188
3.0826907
3.0908733
3.0994951
1.911708
2.2649693
2.5776836
2.7901127
2.9181561
2.9835051
3.0089888
3.0146819
3.012768
3.0072552
3.0041355
3.0030828
3.0032734
3.006382
3.0105909
3.0153898
3.0207342
3.0265247
3.0327059
3.0392534
3.0461609
3.0534345
3.0610897
3.0691489
3.07764
3.0865973
3.0960607
3.1060754
3.1166943
1.9055767
2.258169
2.5683436
2.7775095
2.9022559
2.9649094
2.9886979
2.9937331
2.9912964
2.9859458
2.9830113
2.9820701
2.9824246
2.9856869
2.9898748
2.9946366
2.9999234
3.0056403
3.0117359
3.0181878
3.0249908
3.0321523
3.0396885
3.0476225
3.0559821
3.0648002
3.0741148
3.0839703
3.0944179
3.1055183
3.1173423
3.1299662
3.1434806
1.9000727
2.2523766
2.5600446
2.7657758
2.8869965
2.9467813
2.9687962
2.9731425
2.9701281
2.9649379
2.9621689
2.9613182
2.9618552
2.9652318
2.9693891
2.9741054
2.9793258
2.9849609
2.9909642
2.9973157
3.0040116
3.0110598
3.0184761
3.0262828
3.0345074
3.0431825
3.052346
3.0620427
3.0723241
3.0832469
3.0948736
3.1072776
3.1205513
3.1347991
3.1501374
3.1666984
1.8944633
2.2468885
2.5521995
2.7544826
2.8721019
2.9289605
2.9491894
2.9528395
2.9492391
2.9442092
2.9415908
2.9408172
2.9415487
2.9450026
2.9491204
2.9537831
2.9589295
2.964476
2.9703814
2.9766278
2.9832127
2.990144
2.9974377
3.0051162
3.0132067
3.0217413
3.0307565
3.0402941
3.0504019
3.0611373
3.072566
3.0847568
3.0977928
3.1117764
3.126822
3.1430635
3.1606704
3.1798362
3.2007982
1.8882525
2.2411458
2.5442981
2.7432242
2.8572909
2.9112739
2.9297689
2.9327442
2.9286008
2.9237342
2.9212579
2.9205552
2.9214895
2.9249877
2.9290584
2.9336616
2.9387289
2.9441823
2.9499851
2.9561221
2.9625918
2.9694029
2.9765718
2.9841207
2.9920765
3.0004706
3.0093375
3.0187174
3.0286558
3.0392048
3.0504256
3.0623919
3.0751862
3.0889077
3.1036702
3.119598
3.1368514
3.1556264
3.1761653
3.1986851
3.2234296
3.2505263
1.8810767
2.2346208
2.5358373
2.7315991
2.8422884
2.8935556
2.9104359
2.9127888
2.9081895
2.9034924
2.9011553
2.9005224
2.9016638
2.9051771
2.9091937
2.9137323
2.9187166
2.9240736
2.9297704
2.9357948
2.9421473
2.9488373
2.9558813
2.9633009
2.9711218
2.979374
2.9880915
2.9973109
3.0070762
3.0174398
3.0284598
3.0402062
3.0527575
3.0662083
3.0806706
3.0962752
3.1131852
3.1315815
3.1516802
3.1736935
3.1978428
3.224224
3.2528613
3.2837327
1.8728469
2.2270373
2.5265049
2.7193459
2.8269133
2.8756957
2.8911244
2.8929327
2.8879905
2.8834741
2.8812796
2.8807198
2.8820736
2.8855775
2.889535
2.8940044
2.8989026
2.9041612
2.9097505
2.9156608
2.9218944
2.9284614
2.9353782
2.9426656
2.9503482
2.9584536
2.9670145
2.9760691
2.9856569
2.9958273
3.0066414
3.0181701
3.030484
3.0436747
3.0578524
3.073136
3.0896842
3.1076883
3.1273345
3.1488488
3.1723896
3.1980626
3.2258232
3.2556935
3.2885359
3.3289325
3.398543
1.8637654
2.218484
2.5162896
2.7064181
2.8111177
2.8576582
2.8718099
2.8731624
2.8679986
2.8636781
2.8616337
2.8611545
2.8627255
2.8662007
2.8700968
2.8744939
2.879304
2.8844635
2.8899455
2.8957421
2.9018563
2.9082985
2.9150843
2.9222341
2.929772
2.9377245
2.946121
2.9549991
2.9644035
2.9743785
2.9849785
2.996276
3.0083483
3.0212771
3.0351664
3.050141
3.0663468
3.0839567
3.1031684
3.1241652
3.1470785
3.1720169
3.1989055
3.2277752
3.259585
3.2992598
3.3694486
3.6162996
5.3739818
1.8539785
2.2090313
2.5052304
2.6928433
2.7949226
2.8394595
2.852507
2.8534907
2.8482169
2.8441049
2.8422179
2.8418265
2.8436116
2.8470428
2.8508751
2.8551965
2.859916
2.8649752
2.8703496
2.8760318
2.8820251
2.8883409
2.8949957
2.902009
2.9094018
2.9171991
2.925432
2.934134
2.9433452
2.9531151
2.9634961
2.974555
2.9863702
2.9990256
3.0126209
3.0272773
3.0431349
3.0603459
3.0791171
3.0995953
3.1219212
3.1461137
3.1721267
3.1999948
3.2308234
3.2698109
3.3407174
3.5981314
5.4962627
1.8435806
2.1986918
2.4933596
2.6786806
2.7783975
2.8211626
2.8332661
2.8339584
2.8286622
2.8247628
2.8230359
2.8227349
2.8247197
2.8280934
2.8318582
2.8360992
2.8407246
2.8456802
2.8509429
2.8565058
2.8623743
2.8685617
2.8750842
2.8819584
2.8892038
2.8968461
2.9049149
2.9134439
2.922469
2.9320346
2.9421945
2.9530199
2.9645762
2.9769509
2.9902443
3.0045825
3.0200872
3.0369071
3.0552218
3.0751617
3.0968707
3.1203333
3.145473
3.172379
3.2022492
3.2405798
3.3125707
3.5822566
5.5725797
1.8329414
2.1878721
2.4810017
2.6641701
2.7617086
2.8028742
2.8141545
2.8146118
2.8093487
2.8056575
2.8040881
2.8038752
2.8060381
2.8093462
2.8130421
2.8171995
2.8217271
2.8265752
2.8317228
2.8371652
2.8429095
2.8489677
2.8553517
2.8620758
2.8691635
2.8766433
2.8845413
2.8928862
2.9017158
2.9110834
2.9210418
2.9316389
2.9429504
2.9550642
2.9680601
2.9820589
2.9972021
3.0136364
3.0314862
3.0509032
3.071977
3.0946789
3.1189214
3.1448446
3.1737606
3.2116481
3.2851579
3.5689515
5.5606761
1.822361
2.1769986
2.4685421
2.6495972
2.7450445
2.7847072
2.7952355
2.7954898
2.7902818
2.7867855
2.7853655
2.7852351
2.7875492
2.7907885
2.7944163
2.7984891
2.802918
2.8076593
2.8126945
2.818019
2.8236384
2.8295619
2.8358001
2.8423712
2.8493013
2.8566136
2.864334
2.8725004
2.881149
2.8903144
2.9000462
2.9103922
2.9214415
2.9332594
2.9459745
2.9596669
2.9744592
2.9904827
3.0078789
3.0267851
3.0472219
3.0691606
3.0925112
3.117467
3.1454989
3.1830291
3.2583671
3.5586177
5.5907674
1.8119146
2.166254
2.4562086
2.6351612
2.7285508
2.7667557
2.7765621
2.7766276
2.7714696
2.7681483
2.7668649
2.7668077
2.7692416
2.7724098
2.7759678
2.7799527
2.7842795
2.78891
2.793828
2.7990307
2.8045237
2.8103161
2.8164199
2.822851
2.8296271
2.8367693
2.8443057
2.8522756
2.8607207
2.869683
2.879189
2.8892892
2.900088
2.9116628
2.9240718
2.9374261
2.9518308
2.9674414
2.9843974
3.0027652
3.0225608
3.0437284
3.0662019
3.0902247
3.1174309
3.1546685
3.2323002
3.5528531
5.7263032
1.8017162
2.1558624
2.4442212
2.6210377
2.7123479
2.7490861
2.7581865
2.7580474
2.7529226
2.749755
2.7485941
2.7485984
2.7511194
2.7542125
2.7576958
2.7615879
2.7658073
2.7703207
2.7751157
2.7801919
2.7855518
2.791202
2.7971601
2.8034443
2.8100659
2.8170477
2.8244173
2.8321982
2.8404441
2.8491908
2.8584816
2.8683686
2.8789124
2.8901924
2.902289
2.9153197
2.9293927
2.9446141
2.9611094
2.9789006
2.9980279
3.0184075
3.0399869
3.063078
3.0894935
3.126618
3.2070128
3.5493876
5.842066
1.7919263
2.1461147
2.4328331
2.6074014
2.6965375
2.7317477
2.7401471
2.7397524
2.7346468
2.7316152
2.7305505
2.7306186
2.7331901
2.7362042
2.7396087
2.7434034
2.7475117
2.751905
2.7565738
2.7615173
2.7667365
2.7722408
2.7780505
2.7841817
2.7906482
2.7974718
2.8046715
2.812274
2.8203129
2.8288433
2.8379205
2.8475723
2.8578473
2.8688538
2.8806648
2.8933841
2.90709
2.9218911
2.9379151
2.9551635
2.9736436
2.9932574
3.0139372
3.0361127
3.0617934
3.0989409
3.1826266
3.5474014
5.8806472
1.7826198
2.1371775
2.4221981
2.5943422
2.6811539
2.7147472
2.7224434
2.7217231
2.7166293
2.7137151
2.7127228
2.7128557
2.7154451
2.7183769
2.7216996
2.7253972
2.7293973
2.733674
2.7382183
2.7430305
2.7481135
2.7534743
2.7591269
2.7650887
2.7713805
2.7780295
2.7850611
2.7925014
2.8003704
2.8087023
2.8175506
2.8269483
2.8369525
2.847658
2.8591523
2.871539
2.8848799
2.8992774
2.9148258
2.9315284
2.9493515
2.9681821
2.9879874
3.0093014
3.0343446
3.0716552
3.1594423
3.5461254
5.9488688
1.7735888
2.1288184
2.4121771
2.5817771
2.6661436
2.6980545
2.7050518
2.7039346
2.6988522
2.6960364
2.6950982
2.695291
2.6978704
2.7007144
2.70395
2.7075467
2.7114366
2.7155961
2.7200154
2.724695
2.729642
2.7348646
2.7403722
2.7461829
2.7523183
2.7587986
2.7656477
2.7728916
2.7805592
2.7886708
2.797277
2.8064397
2.8162242
2.8266705
2.8378681
2.8499151
2.862883
2.8768535
2.8918922
2.9080038
2.9251472
2.9431917
2.9621564
2.9826403
3.0070565
3.0447687
3.1373616
3.5535555
6.0809767
1.7645547
2.1206614
2.4024856
2.569524
2.6514011
2.6816174
2.6879357
2.6863683
2.6813052
2.6785732
2.6776773
2.677924
2.6804713
2.683222
2.6863644
2.689855
2.6936301
2.6976684
2.7019618
2.7065103
2.7113201
2.7164006
2.7217605
2.727415
2.7333861
2.7396956
2.7463679
2.7534286
2.7609011
2.7688082
2.7771807
2.7860926
2.7956171
2.8057879
2.8166879
2.8283938
2.8409946
2.8545634
2.869131
2.8846771
2.9011476
2.9184023
2.9365337
2.956195
2.9800496
3.0183684
3.1162707
3.5628632
6.2138488
1.7554322
2.1125423
2.3929481
2.5574386
2.6368253
2.6653741
2.6710457
2.6690035
2.6639776
2.6613224
2.6604626
2.6607635
2.6632634
2.6659184
2.6689635
2.6723453
2.6760031
2.6799161
2.6840787
2.6884911
2.6931587
2.6980907
2.7032978
2.7087945
2.7146041
2.7207516
2.727258
2.7341365
2.7414045
2.7490963
2.7572369
2.765896
2.7751442
2.7850245
2.7956211
2.8069927
2.8192208
2.8323744
2.8464579
2.8614288
2.8772153
2.8936897
2.9110039
2.9299077
2.9534135
2.9926085
3.0971271
3.5810862
6.3381074
1.7460565
2.1042082
2.3833389
2.5453518
2.6223059
2.6492546
2.6543197
2.6518159
2.6468465
2.6442653
2.6434408
2.6437968
2.6462382
2.6487957
2.6517411
2.6550123
2.6585522
2.6623414
2.6663747
2.6706535
2.6751832
2.6799714
2.685027
2.6903607
2.6959898
2.7019421
2.7082522
2.7149434
2.7220257
2.7295276
2.7374722
2.7459087
2.754892
2.7644815
2.7747623
2.7857881
2.7976317
2.8103487
2.8239149
2.8382831
2.8533605
2.8690527
2.8855517
2.9037799
2.9270263
2.9675667
3.0799422
3.6017434
6.4591048
1.7362626
2.0953546
2.3733935
2.5330819
2.607736
2.6331975
2.637708
2.6347838
2.6298919
2.6273853
2.6265929
2.6270071
2.629378
2.6318354
2.6346778
2.6378344
2.6412533
2.6449165
2.6488186
2.6529614
2.6573502
2.6619927
2.6668972
2.6720742
2.6775396
2.6833183
2.689439
2.6959247
2.7027904
2.710069
2.7177917
2.7259986
2.7347337
2.744061
2.7540516
2.7647551
2.7762392
2.7885344
2.801592
2.8153624
2.8297336
2.8446518
2.8603595
2.8779867
2.9010884
2.9433736
3.0650941
3.6291412
6.5902839
1.7260526
2.0858847
2.362967
2.5205126
2.5930423
2.6171562
2.6211753
2.6178916
2.6130974
2.6106698
2.6099069
2.6103829
2.6126698
2.6150252
2.6177607
2.620798
2.6240909
2.6276234
2.6313904
2.6353934
2.6396373
2.6441303
2.6488817
2.6539022
2.6592059
2.6648109
2.6707416
2.6770245
2.683684
2.6907496
2.6982473
2.7062111
2.7146846
2.7237364
2.7334277
2.743803
2.7549172
2.766779
2.7793307
2.7925018
2.806176
2.8203453
2.8353334
2.8524679
2.875686
2.9203288
3.0539196
3.6760319
6.7791117
1.7156958
2.0759202
2.3520773
2.5076397
2.578224
2.6011304
2.604719
2.6011507
2.5964714
2.5941241
2.5933927
2.5939362
2.5961292
2.5983813
2.6010073
2.6039224
2.607085
2.6104824
2.6141099
2.6179689
2.6220649
2.6264061
2.6310032
2.6358676
2.6410114
2.6464488
2.6521977
2.6582859
2.6647435
2.6715973
2.6788721
2.6865989
2.6948166
2.70359
2.7129748
2.7230151
2.7337452
2.7451545
2.7571878
2.7697478
2.7827177
2.7961423
2.8104457
2.8272206
2.8506817
2.898333
3.0465509
3.7343911
6.9701403
1.7054599
2.0658849
2.3409591
2.4945771
2.5633208
2.5851198
2.5883229
2.5845336
2.579982
2.5777157
2.5770199
2.5776364
2.5797263
2.5818765
2.5843936
2.5871864
2.590219
2.59348
2.5969664
2.600681
2.6046294
2.6088196
2.6132616
2.6179672
2.6229484
2.628217
2.6337894
2.6396891
2.6459459
2.6525887
2.6596428
2.667141
2.6751168
2.6836233
2.6927054
2.7024103
2.7127566
2.7237099
2.7352154
2.7471651
2.7594404
2.7721442
2.7858064
2.8023755
2.8262328
2.8784139
3.0450227
3.81314
7.1988976
1.6965696
2.0563496
2.3299909
2.4815979
2.5485477
2.5693076
2.5721622
2.5681848
2.5637675
2.5615876
2.5609232
2.5616112
2.5635942
2.5656464
2.5680548
2.5707263
2.5736295
2.576756
2.5801042
2.5836773
2.5874816
2.5915238
2.5958129
2.6003608
2.6051803
2.6102833
2.6156827
2.6213974
2.6274548
2.6338842
2.6407143
2.6479795
2.6557163
2.6639647
2.6727526
2.682118
2.6920735
2.7025749
2.7135449
2.7248816
2.7364989
2.7485153
2.7616352
2.77803
2.8028558
2.8593046
3.0483659
3.8944623
7.3864468
1.6882835
2.0475642
2.3192291
2.4685125
2.5335272
2.5532011
2.5557016
2.5515429
2.5472563
2.5451565
2.5445267
2.545276
2.5471436
2.5490927
2.5513855
2.5539298
2.5567003
2.559689
2.5628949
2.5663228
2.5699775
2.5738649
2.5779947
2.5823784
2.5870284
2.5919566
2.5971749
2.6026998
2.6085523
2.6147623
2.6213628
2.628386
2.6358669
2.6438405
2.6523267
2.6613435
2.6708835
2.6809032
2.6913141
2.7020009
2.7129303
2.724287
2.7369697
2.7538683
2.7798868
2.846237
3.0643926
4.0366611
7.7169341
1.6838979
2.0407546
2.3101018
2.4571238
2.52038
2.5391144
2.5413066
2.5369946
2.5328197
2.5307872
2.5301812
2.5309651
2.5327263
2.5345796
2.5367666
2.5391976
2.5418497
2.5447153
2.547796
2.5510953
2.554616
2.5583646
2.5623518
2.5665907
2.5710899
2.5758586
2.5809106
2.5862624
2.5919331
2.5979498
2.6043466
2.6111567
2.6184104
2.6261393
2.634364
2.6430906
2.6522895
2.6619039
2.6718389
2.6819664
2.6923215
2.7031832
2.7154762
2.7329641
2.7593428
2.8279094
3.0795882
4.1447875
7.9004375
1.6770792
2.0319054
2.2965622
2.4387899
2.4984441
2.5152673
2.516852
2.512191
2.5081648
2.5062103
2.5056448
2.5064261
2.5079932
2.5096732
2.5116722
2.5139045
2.5163487
2.5190026
2.5218719
2.5249525
2.5282462
2.531762
2.5355145
2.539509
2.5437463
2.5482434
2.5530132
2.5580688
2.5634304
2.5691222
2.5751743
2.5816191
2.588483
2.59579
2.6035529
2.6117628
2.6203643
2.6292686
2.6383809
2.6476115
2.6570076
2.6671953
2.6792662
2.6988415
2.7290277
2.8294388
3.1563778
4.4814918
8.4207755
)
;

boundaryField
{
    Side
    {
        type            empty;
    }
    Inlet
    {
        type            turbulentIntensityKineticEnergyInlet;
        intensity       0.03;
        value           nonuniform List<scalar> 
21
(
12.023894
12.024541
12.025333
12.026368
12.027349
12.028549
12.030218
12.031668
12.033368
12.035479
12.037824
12.040816
12.04394
12.048021
12.053208
12.059427
12.066177
12.076684
12.085221
12.097483
12.097246
)
;
    }
    Airfoil
    {
        type            kqRWallFunction;
        value           nonuniform List<scalar> 0();
    }
    Outlet
    {
        type            inletOutlet;
        inletValue      uniform 1.48208e-06;
        value           nonuniform List<scalar> 
49
(
1.6770792
2.0319054
2.2965622
2.4387899
2.4984441
2.5152673
2.516852
2.512191
2.5081648
2.5062103
2.5056448
2.5064261
2.5079932
2.5096732
2.5116722
2.5139045
2.5163487
2.5190026
2.5218719
2.5249525
2.5282462
2.531762
2.5355145
2.539509
2.5437463
2.5482434
2.5530132
2.5580688
2.5634304
2.5691222
2.5751743
2.5816191
2.588483
2.59579
2.6035529
2.6117628
2.6203643
2.6292686
2.6383809
2.6476115
2.6570076
2.6671953
2.6792662
2.6988415
2.7290277
2.8294388
3.1563778
4.4814918
8.4207755
)
;
    }
    procBoundary6to5
    {
        type            processor;
        value           nonuniform List<scalar> 
61
(
1.9839516
2.3422158
2.662704
2.8867012
3.0281781
3.0844567
3.0844567
3.1169357
3.1255701
3.1252185
3.1187844
3.0917217
3.0917217
3.0899568
3.0896739
3.0917734
3.0959376
3.0790894
3.0790894
3.0845589
3.090531
3.0969366
3.1037443
3.0891266
3.0891266
3.0966145
3.1045005
3.1128052
3.1215561
3.1085905
3.1085905
3.1182003
3.1283709
3.1391576
3.1279781
3.1279781
3.1399957
3.1528306
3.1665769
3.1579871
3.1579871
3.1736048
3.190475
3.184644
3.184644
3.2041839
3.2255744
3.2238065
3.2238065
3.2491365
3.2769351
3.2800183
3.2800183
3.3118896
3.3176079
3.3176079
3.3588103
3.4279435
3.6370367
3.6370367
5.343934
)
;
    }
    procBoundary6to12
    {
        type            processor;
        value           uniform 1.9647034;
    }
    procBoundary6to13
    {
        type            processor;
        value           nonuniform List<scalar> 
34
(
2.3040933
1.9445276
1.9445276
1.9348255
1.9252695
1.9159295
1.9067729
1.8979028
1.8893679
1.8809668
1.8725471
1.8640668
1.8554327
1.8464656
1.8372091
1.8278381
1.8182746
1.8084762
1.7985412
1.7884453
1.7781329
1.7676742
1.7573801
1.747594
1.7384288
1.7299797
1.7223221
1.7152668
1.7086546
1.7021131
1.6959127
1.6892305
1.6842613
1.6745392
)
;
    }
}


// ************************************************************************* //
