/*--------------------------------*- C++ -*----------------------------------*\
| =========                 |                                                 |
| \\      /  F ield         | OpenFOAM: The Open Source CFD Toolbox           |
|  \\    /   O peration     | Version:  2506                                  |
|   \\  /    A nd           | Website:  www.openfoam.com                      |
|    \\/     M anipulation  |                                                 |
\*---------------------------------------------------------------------------*/
FoamFile
{
    version     2.0;
    format      ascii;
    arch        "LSB;label=32;scalar=64";
    class       volVectorField;
    location    "8e-05";
    object      wallShearStress;
}
// * * * * * * * * * * * * * * * * * * * * * * * * * * * * * * * * * * * * * //

dimensions      [1 -1 -2 0 0 0 0];

internalField   uniform (0 0 0);

boundaryField
{
    Side
    {
        type            empty;
    }
    Inlet
    {
        type            calculated;
        value           uniform (0 0 0);
    }
    Airfoil
    {
        type            calculated;
        value           nonuniform List<vector> 
68
(
(-122.6473 508.29725 3.0861005e-18)
(-202.03247 321.26961 2.1414862e-23)
(-151.78203 333.50099 1.9715465e-18)
(-240.91995 343.32601 -1.832708e-18)
(-305.70524 338.43775 -5.6265634e-19)
(-355.60026 351.93398 4.0172246e-26)
(-368.70493 345.04321 -4.0451786e-18)
(-372.064 340.03447 -3.8490879e-18)
(-372.82671 337.02972 6.4995534e-18)
(-372.63001 329.69019 -3.5540331e-18)
(-375.54047 345.93343 2.6300497e-18)
(-377.21277 361.09014 9.0289242e-19)
(-377.41924 364.37794 -8.8837899e-19)
(-378.93709 371.75972 -2.4329577e-18)
(-379.51674 383.13182 -5.9298856e-24)
(-379.82962 390.71529 -1.793662e-43)
(-379.77398 385.57089 5.7418213e-24)
(-380.13614 389.12474 3.1100192e-18)
(-380.00769 380.33644 3.0148012e-18)
(-380.50108 377.7585 7.288065e-35)
(-380.77925 374.60547 -1.0000254e-17)
(-381.2547 376.1994 5.6886765e-18)
(-381.46438 371.58702 -1.4853276e-18)
(-381.60816 374.64593 -9.5158973e-18)
(-381.02315 371.47887 -4.9157813e-24)
(-381.1162 363.80836 5.2785118e-18)
(-381.68464 366.3219 2.9387359e-39)
(-381.96449 369.11124 5.1701313e-18)
(-382.09355 366.73768 7.0529661e-38)
(-382.67385 365.79669 7.0529661e-38)
(-383.38814 367.05012 3.6435149e-18)
(-383.81576 364.17741 4.8779161e-18)
(-384.55952 364.74764 6.869589e-35)
(-384.81904 367.66489 -4.7977721e-18)
(-384.41178 366.62113 -3.4945993e-18)
(-384.24487 366.27603 3.4566109e-18)
(-384.15272 363.62616 8.4215987e-24)
(-383.98848 359.71216 7.9569292e-18)
(-384.21398 357.52877 3.3489904e-18)
(-384.9643 359.88751 -8.1305687e-24)
(-385.14795 358.25806 4.4454051e-18)
(-385.51751 354.30192 4.3828895e-18)
(-386.14097 353.49506 1.1155936e-18)
(-386.15388 354.68621 7.5184554e-18)
(-385.97337 353.24105 -7.7084742e-24)
(-385.2696 347.43116 7.653904e-24)
(-384.40147 340.30442 4.4841551e-44)
(-384.20202 336.62767 2.3509887e-38)
(-384.14576 332.67144 3.0651841e-18)
(-384.28995 328.89023 -7.2669322e-24)
(-385.03544 328.59412 7.2350257e-24)
(-387.7651 337.70367 -6.9904045e-18)
(-389.291 339.50962 3.9608916e-18)
(-389.72207 338.53348 3.9275642e-18)
(-389.73465 338.95984 7.064731e-24)
(-388.41268 338.69074 1.793662e-43)
(-387.06116 336.65237 1.9149588e-18)
(-386.65128 328.35615 5.7241093e-18)
(-386.54609 330.32943 -7.585065e-18)
(-386.60543 327.0307 1.3597878e-23)
(-387.57884 329.30619 7.4661955e-18)
(-388.35216 328.15093 6.7175319e-24)
(-388.80742 326.82858 6.664578e-24)
(-389.08336 326.81004 -6.6314981e-24)
(-388.3272 323.33296 7.2645756e-18)
(-388.02733 322.44942 1.4105932e-37)
(-388.27522 319.11625 -7.1565188e-18)
(-182.26708 -619.20043 -6.973758e-40)
)
;
    }
    Outlet
    {
        type            calculated;
        value           nonuniform List<vector> 0();
    }
    procBoundary12to4
    {
        type            processor;
        value           uniform (0 0 0);
    }
    procBoundary12to5
    {
        type            processor;
        value           uniform (0 0 0);
    }
    procBoundary12to11
    {
        type            processor;
        value           uniform (0 0 0);
    }
    procBoundary12to13
    {
        type            processor;
        value           uniform (0 0 0);
    }
}


// ************************************************************************* //
