/*--------------------------------*- C++ -*----------------------------------*\
| =========                 |                                                 |
| \\      /  F ield         | OpenFOAM: The Open Source CFD Toolbox           |
|  \\    /   O peration     | Version:  2506                                  |
|   \\  /    A nd           | Website:  www.openfoam.com                      |
|    \\/     M anipulation  |                                                 |
\*---------------------------------------------------------------------------*/
FoamFile
{
    version     2.0;
    format      ascii;
    arch        "LSB;label=32;scalar=64";
    class       volScalarField;
    location    "0.15";
    object      k;
}
// * * * * * * * * * * * * * * * * * * * * * * * * * * * * * * * * * * * * * //

dimensions      [0 2 -2 0 0 0 0];

internalField   nonuniform List<scalar> 
1375
(
6.5492645
6.5488577
6.5486229
6.5496327
6.5491242
6.5487225
6.5484903
6.5483527
6.5482412
6.548223
6.5482326
6.5482605
6.5494705
6.5489348
6.5485359
6.548314
6.5482183
6.5481187
6.5480998
6.548111
6.5481334
6.5481228
6.5480968
6.5481202
6.5481463
6.548174
6.5482041
6.5492353
6.5487128
6.5483182
6.5481122
6.5480286
6.547946
6.5479286
6.5479425
6.5479668
6.5479951
6.5479756
6.5479985
6.5480245
6.5480511
6.5480714
6.548042
6.5480272
6.5480547
6.5480872
6.5489585
6.5484581
6.5480708
6.5478803
6.5478045
6.5477399
6.5477269
6.5477466
6.5477798
6.5478134
6.5478033
6.5478281
6.5478552
6.547881
6.5478987
6.5479144
6.547903
6.5479303
6.5479517
6.5479242
6.5479237
6.5479597
6.5479974
6.548656
6.5481806
6.5478026
6.5476234
6.5475514
6.5475041
6.5474977
6.5475246
6.5475653
6.5475981
6.5475979
6.5476277
6.5476586
6.5476872
6.5477104
6.5477315
6.5477246
6.5477512
6.5477704
6.5477917
6.5477932
6.5478266
6.5478511
6.5478182
6.5478322
6.5478752
6.5479213
6.5483475
6.5478932
6.5475227
6.5473512
6.5472821
6.5472489
6.5472509
6.5472834
6.5473252
6.5473544
6.5473638
6.5473989
6.5474344
6.5474671
6.5474953
6.5475143
6.5475131
6.5475412
6.5475653
6.5475939
6.5475989
6.5476274
6.5476478
6.5476732
6.5476892
6.5477315
6.5477666
6.5477389
6.5477782
6.5478336
6.5480447
6.5476057
6.5472388
6.5470713
6.5470057
6.5469818
6.5469909
6.5470263
6.5470654
6.547091
6.5471079
6.5471464
6.5471855
6.5472204
6.5472489
6.5472654
6.5472709
6.5472988
6.5473264
6.5473554
6.5473675
6.5473928
6.5474144
6.5474481
6.5474649
6.5475036
6.5475388
6.5475833
6.5476267
6.5476737
6.5476501
6.5476936
6.5477407
6.5477423
6.5473179
6.5469532
6.5467863
6.5467229
6.5467044
6.546717
6.5467518
6.5467872
6.54681
6.5468301
6.5468685
6.5469088
6.5469449
6.5469724
6.5469883
6.5470002
6.5470259
6.5470534
6.5470824
6.5471019
6.5471243
6.5471444
6.5471731
6.5471911
6.5472257
6.5472639
6.5473277
6.5473756
6.5474268
6.547482
6.5475341
6.5475789
6.5475462
6.5475785
6.5474193
6.5470149
6.5466549
6.5464901
6.5464287
6.5464147
6.5464293
6.5464609
6.5464906
6.546509
6.5465263
6.5465591
6.5465965
6.5466324
6.5466604
6.5466775
6.5466926
6.5467165
6.5467445
6.5467746
6.5467986
6.5468186
6.5468354
6.5468575
6.5468765
6.5469052
6.5469418
6.547007
6.5470608
6.5471206
6.5472046
6.5472683
6.547326
6.547381
6.5474146
6.5473652
6.5473753
6.5473611
6.5470481
6.5466709
6.5463212
6.5461647
6.5461096
6.5461019
6.5461206
6.5461497
6.5461733
6.5461856
6.546196
6.5462186
6.5462484
6.5462798
6.5463056
6.5463223
6.5463372
6.5463597
6.5463879
6.5464177
6.5464433
6.5464645
6.5464824
6.546502
6.5465208
6.5465446
6.5465791
6.5466412
6.5466998
6.5467643
6.5468552
6.5469309
6.5470042
6.5470964
6.5471483
6.5471874
6.5472113
6.5471967
6.5470942
6.5470429
6.5466096
6.5462668
6.5459323
6.5457917
6.5457488
6.5457509
6.5457771
6.5458074
6.5458278
6.545836
6.5458404
6.5458526
6.545872
6.5458938
6.5459114
6.5459225
6.5459332
6.5459511
6.5459746
6.5459992
6.5460235
6.546049
6.5460725
6.5460935
6.5461125
6.5461372
6.5461764
6.5462378
6.5462998
6.5463681
6.5464582
6.5465425
6.5466239
6.5467259
6.5468021
6.5468861
6.5469359
6.5469408
6.5469148
6.5468589
6.5467411
6.5467192
6.5461008
6.545799
6.5454823
6.5453629
6.5453369
6.5453521
6.5453886
6.5454246
6.5454473
6.5454566
6.5454604
6.5454665
6.5454758
6.5454862
6.5454933
6.5454962
6.5454989
6.5455061
6.5455169
6.5455304
6.5455489
6.5455749
6.5456008
6.5456219
6.545642
6.5456733
6.545722
6.5457848
6.5458498
6.545926
6.546017
6.5461059
6.546194
6.5462982
6.5463929
6.5464995
6.5465813
6.5466205
6.5466353
6.5465953
6.5465338
6.5464793
6.5464083
6.5455292
6.5452706
6.5449735
6.5448786
6.5448726
6.5449049
6.5449551
6.5450007
6.5450318
6.5450494
6.5450597
6.5450668
6.5450712
6.5450731
6.5450721
6.545068
6.5450621
6.5450563
6.5450518
6.5450507
6.5450571
6.5450734
6.5450917
6.5451074
6.5451265
6.5451614
6.5452131
6.545273
6.5453385
6.5454226
6.5455145
6.545605
6.5457053
6.5458199
6.5459317
6.5460553
6.5461663
6.5462403
6.5462906
6.5462857
6.5462374
6.5461728
6.5461641
6.5462744
6.5467317
6.5449073
6.5446903
6.544411
6.5443421
6.5443584
6.5444124
6.5444804
6.5445408
6.5445867
6.5446204
6.5446451
6.5446611
6.5446688
6.5446702
6.5446674
6.5446607
6.5446492
6.5446338
6.5446172
6.5446026
6.5445933
6.5445921
6.5445957
6.544601
6.5446128
6.5446386
6.5446777
6.544724
6.5447816
6.5448617
6.5449466
6.5450339
6.5451453
6.5452741
6.5454057
6.5455512
6.5456842
6.5457914
6.5458777
6.5459134
6.545909
6.5459064
6.545981
6.5462912
6.5467897
6.5472839
6.5442633
6.5440755
6.5438105
6.543766
6.5438058
6.5438849
6.5439745
6.5440551
6.5441219
6.5441785
6.5442259
6.5442601
6.5442805
6.5442908
6.5442945
6.5442915
6.5442799
6.544261
6.5442381
6.5442135
6.54419
6.5441715
6.5441594
6.544152
6.5441497
6.5441556
6.5441701
6.5441926
6.5442299
6.5442877
6.5443531
6.5444278
6.5445335
6.5446623
6.5448049
6.5449661
6.5451122
6.5452509
6.5453768
6.545464
6.5455547
6.5456876
6.5459275
6.5462928
6.5466753
6.5470828
6.5481658
6.5436529
6.5434705
6.5432115
6.5431846
6.5432455
6.5433497
6.5434638
6.5435687
6.5436606
6.5437437
6.5438183
6.5438781
6.5439202
6.5439484
6.5439664
6.5439736
6.5439688
6.5439528
6.5439292
6.5438993
6.5438662
6.5438356
6.543811
6.5437906
6.5437715
6.5437552
6.5437438
6.5437396
6.5437482
6.5437732
6.5438093
6.5438594
6.5439372
6.5440409
6.5441684
6.5443198
6.5444633
6.5446195
6.5447835
6.544944
6.5451677
6.5454586
6.5458398
6.5462252
6.5465433
6.5470028
6.5483183
6.5615305
6.9681414
6.5431839
6.5429626
6.5426876
6.542657
6.5427256
6.5428461
6.5429823
6.5431137
6.5432339
6.543345
6.5434472
6.5435343
6.5436022
6.5436534
6.5436912
6.5437146
6.5437228
6.5437171
6.5436987
6.5436694
6.5436331
6.5435964
6.5435633
6.5435313
6.5434973
6.5434632
6.5434312
6.5434028
6.5433834
6.5433767
6.5433818
6.5433999
6.5434389
6.5435015
6.5435907
6.5437054
6.5438267
6.5439767
6.5441674
6.5444121
6.5447648
6.5451865
6.5456567
6.5460732
6.546391
6.5468585
6.5481529
6.5614058
6.963159
6.5430191
6.5427202
6.5423914
6.5423049
6.5423324
6.542427
6.5425544
6.5426929
6.5428317
6.5429688
6.543101
6.5432199
6.5433184
6.5433966
6.5434572
6.5435013
6.5435287
6.5435403
6.543537
6.5435183
6.5434878
6.5434519
6.5434146
6.5433747
6.5433313
6.5432867
6.5432418
6.5431974
6.543158
6.5431281
6.5431077
6.5430983
6.5431043
6.5431308
6.543183
6.5432626
6.5433648
6.5435111
6.5437347
6.5440578
6.5444906
6.5449744
6.5454503
6.5458691
6.5462002
6.5466884
6.5480178
6.5618547
6.9838452
6.5431165
6.5427429
6.5423633
6.5422214
6.5421839
6.5422011
6.5422571
6.5423426
6.5424494
6.5425758
6.5427182
6.5428641
6.5429995
6.5431172
6.5432155
6.5432933
6.5433502
6.5433885
6.5434104
6.5434164
6.5434072
6.5433855
6.5433552
6.5433187
6.5432783
6.5432368
6.5431937
6.5431494
6.5431079
6.5430719
6.5430416
6.5430206
6.5430179
6.5430396
6.5430946
6.5431898
6.5433318
6.543535
6.5438049
6.5441442
6.5445365
6.5449258
6.5453049
6.5457339
6.5460744
6.5465406
6.5478289
6.5612678
6.976486
6.5432616
6.542859
6.5424527
6.5422699
6.5421649
6.5421253
6.5421162
6.542127
6.5421607
6.5422314
6.542342
6.5424831
6.5426358
6.5427854
6.5429248
6.5430493
6.5431543
6.5432371
6.5432987
6.5433415
6.5433682
6.5433787
6.5433765
6.5433631
6.5433432
6.5433191
6.5432915
6.5432623
6.5432335
6.5432064
6.5431831
6.5431717
6.543185
6.5432352
6.543333
6.5434821
6.5436768
6.5439029
6.5441482
6.5444136
6.5446891
6.5449755
6.5452751
6.5456153
6.5459536
6.5463831
6.5476674
6.562887
6.9958883
6.5434501
6.5430291
6.5426198
6.5424151
6.542292
6.5422168
6.5421563
6.542111
6.5420818
6.5420747
6.5421009
6.5421745
6.5422989
6.5424582
6.5426293
6.5427941
6.5429436
6.5430744
6.543185
6.5432748
6.5433439
6.5433922
6.5434255
6.5434465
6.5434576
6.5434601
6.5434543
6.5434439
6.5434303
6.5434146
6.543404
6.5434125
6.5434564
6.543551
6.5437012
6.5438897
6.5440796
6.544256
6.5444328
6.5446143
6.544806
6.5450191
6.5452756
6.5456316
6.5459111
6.5462397
6.5474078
6.5630389
7.0130659
6.5436689
6.5432439
6.5428489
6.5426391
6.5425025
6.5424111
6.5423392
6.5422761
6.5422192
6.5421716
6.5421463
6.5421412
6.5421572
6.5422158
6.5423401
6.5425119
6.542699
6.5428789
6.5430385
6.5431738
6.5432836
6.5433715
6.5434493
6.5435138
6.5435572
6.5435812
6.5435888
6.5435852
6.5435767
6.5435692
6.5435733
6.5436041
6.543676
6.543794
6.5439469
6.5441092
6.5442677
6.5444323
6.5445959
6.5447552
6.5449449
6.5451607
6.5454048
6.5457116
6.5459433
6.5462411
6.5472891
6.5629008
7.0014691
6.5438898
6.5434751
6.5431067
6.5429041
6.5427719
6.5426791
6.5426
6.542525
6.5424556
6.54239
6.5423248
6.5422592
6.5422127
6.5422014
6.5422158
6.5422954
6.5424405
6.5426227
6.5428219
6.5430094
6.5431694
6.5432924
6.5433812
6.543447
6.5434933
6.5435179
6.543525
6.5435247
6.5435261
6.5435386
6.5435721
6.5436408
6.5437486
6.5438904
6.5440541
6.5442252
6.5443925
6.544557
6.5447281
6.544928
6.5451675
6.5454099
6.5456348
6.5458933
6.546088
6.5463109
6.5472904
6.5649242
7.0310462
6.544049
6.5436546
6.5433299
6.5431546
6.5430362
6.5429517
6.542872
6.5427969
6.5427272
6.542655
6.5425743
6.5424869
6.5424073
6.5423379
6.5422942
6.5422716
6.542301
6.5424152
6.5425806
6.5427657
6.5429438
6.5430967
6.5432062
6.5432753
6.5433216
6.5433552
6.5433796
6.5434024
6.5434305
6.5434739
6.5435394
6.543633
6.5437597
6.5439225
6.5441107
6.5443077
6.5445002
6.5446936
6.5449006
6.5451292
6.545369
6.5456107
6.5458463
6.54611
6.5462548
6.5464184
6.5473953
6.5645583
7.0247191
6.5441529
6.543774
6.5434826
6.543337
6.5432399
6.5431681
6.5430968
6.5430281
6.5429619
6.5429011
6.5428405
6.5427671
6.5426795
6.5425823
6.5424978
6.542423
6.5423676
6.5423383
6.5423809
6.5424869
6.5426319
6.5427907
6.5429307
6.5430348
6.5431044
6.543157
6.5432075
6.5432601
6.5433166
6.5433842
6.5434721
6.5435901
6.5437445
6.5439392
6.544166
6.5444064
6.5446374
6.5448425
6.5450305
6.54523
6.54546
6.5457321
6.5460303
6.5463135
6.5464359
6.5466042
6.5475929
6.5665091
7.0567851
6.544127
6.5437603
6.5434957
6.5433894
6.5433267
6.5433024
6.5432598
6.5432058
6.5431544
6.543111
6.5430699
6.5430302
6.5429761
6.5428966
6.5427792
6.5426572
6.5425251
6.5423975
6.542301
6.5422788
6.5423331
6.5424512
6.5426068
6.5427641
6.5428956
6.5429958
6.5430777
6.5431546
6.5432352
6.5433179
6.5434165
6.5435508
6.5437399
6.543979
6.5442465
6.5445118
6.5447439
6.5449285
6.5450905
6.5452773
6.5455211
6.5458023
6.5461008
6.5464213
6.5466366
6.546841
6.5477626
6.5666451
7.049158
6.5441284
6.5437769
6.5435429
6.5434547
6.543403
6.5433452
6.5433367
6.5433193
6.5433034
6.5432883
6.5432779
6.5432562
6.5432189
6.5431642
6.5430738
6.542924
6.5427449
6.5425612
6.5423741
6.5422286
6.5421633
6.5421955
6.542321
6.5425103
6.5427185
6.5429006
6.5430426
6.5431446
6.5432192
6.5432967
6.5433978
6.5435499
6.5437653
6.5440389
6.5443338
6.5446039
6.5448185
6.5449804
6.5451269
6.5452987
6.5455179
6.5457716
6.5460722
6.5464249
6.5466853
6.5470024
6.5480052
6.567932
7.0732721
6.5440168
6.543671
6.543442
6.5433587
6.5433291
6.5434048
6.5434339
6.5434563
6.5434745
6.5434763
6.5434419
6.5434329
6.5434108
6.5433597
6.543277
6.5431661
6.5430099
6.5428076
6.5425949
6.5423918
6.5422533
6.5421977
6.5422282
6.5423636
6.5425816
6.5428077
6.54299
6.5431092
6.5431902
6.5432729
6.543394
6.5435749
6.5438262
6.5441271
6.5444293
6.544684
6.5448728
6.545012
6.5451435
6.5453072
6.5455157
6.5457575
6.546054
6.546386
6.5465901
6.5469201
6.5481529
6.569706
7.101788
6.5433641
6.5433958
6.5434371
6.5434617
6.5434742
6.5435788
6.5435857
6.5435699
6.5435365
6.5434704
6.5433509
6.5432395
6.5430919
6.5429215
6.5427472
6.5425703
6.5424338
6.542377
6.5423899
6.5424696
6.5426374
6.5428382
6.5430085
6.5431426
6.5432723
6.5434302
6.5436511
6.5439319
6.5442413
6.5445301
6.5447628
6.5449396
6.5450839
6.5452183
6.5453623
6.5455334
6.5457345
6.5459907
6.5463087
6.5464749
6.5467692
6.5481104
6.5692094
7.090356
6.5435105
6.5434962
6.5434811
6.543467
6.5434685
6.5435608
6.543526
6.5434711
6.5433724
6.5432282
6.5430332
6.5428287
6.5426387
6.5425033
6.5424547
6.5424891
6.5426313
6.5428442
6.5430588
6.5432586
6.5434793
6.5437386
6.5440342
6.5443397
6.5446167
6.544841
6.5450143
6.5451566
6.5452877
6.5454071
6.545533
6.5456888
6.5458952
6.5461783
6.546324
6.5465953
6.5479695
6.5721602
7.1337273
6.543621
6.5436434
6.5436538
6.5436093
6.543512
6.5434813
6.5432582
6.5430041
6.5427601
6.5425689
6.5424691
6.5424915
6.54265
6.542893
6.5431585
6.5434213
6.5437085
6.5440293
6.5443489
6.5446287
6.5448511
6.5450248
6.5451718
6.545295
6.5454078
6.5455247
6.5456593
6.5458246
6.5460588
6.5461672
6.5464281
6.5478098
6.5727675
7.1326467
6.5436364
6.5434079
6.5431463
6.5428699
6.5426534
6.5425811
6.542486
6.5425001
6.542658
6.5429203
6.5432398
6.5435778
6.5439203
6.5442448
6.544528
6.5447624
6.5449533
6.5451164
6.5452572
6.5453956
6.5455401
6.5456847
6.5458261
6.546002
6.5460621
6.5463098
6.5476897
6.5739761
7.1781985
6.5425621
6.5423352
6.5422173
6.5422792
6.5426262
6.5429582
6.5433423
6.5437202
6.5440609
6.5443642
6.5446199
6.5448366
6.5450289
6.5452042
6.5453777
6.5455655
6.5457572
6.5459198
6.5460532
6.5460316
6.5462158
6.5475856
6.5766072
7.1715264
6.5421663
6.5424401
6.5428337
6.5432756
6.5437746
6.5441029
6.5443857
6.544636
6.5448905
6.5451429
6.5453786
6.5455777
6.5457485
6.5459065
6.5460523
6.5460507
6.5462178
6.5475767
6.5764925
7.2132121
6.5431392
6.543532
6.543917
6.5443905
6.5447189
6.545016
6.5452627
6.5454671
6.5456465
6.5458269
6.5460075
6.5460614
6.546289
6.5477248
6.580318
7.2165852
6.5438424
6.5442374
6.5446087
6.5450527
6.5453499
6.5456188
6.5458173
6.5459819
6.5460306
6.5462887
6.5477528
6.5801265
7.2242724
6.5446954
6.5451142
6.5454595
6.545778
6.5459462
6.5459885
6.5462689
6.5478596
6.5840414
7.2731412
6.545503
6.5457607
6.5459173
6.5462167
6.5479318
6.5834398
7.2594513
6.5455697
6.5459622
6.54773
6.5879664
7.3031929
6.5874362
7.2969011
)
;

boundaryField
{
    Side
    {
        type            empty;
    }
    Inlet
    {
        type            turbulentIntensityKineticEnergyInlet;
        intensity       0.03;
        value           nonuniform List<scalar> 
25
(
11.983741
11.986823
11.988387
11.990385
11.994246
11.997352
11.996765
11.996847
11.995802
11.997021
12.003561
12.006866
12.009276
12.013018
12.012864
12.013016
12.01455
12.017847
12.020489
12.021918
12.023764
12.025834
12.027188
12.029268
12.033485
)
;
    }
    Airfoil
    {
        type            kqRWallFunction;
        value           nonuniform List<scalar> 0();
    }
    Outlet
    {
        type            inletOutlet;
        inletValue      nonuniform List<scalar> 0();
        value           nonuniform List<scalar> 0();
    }
    procBoundary5to4
    {
        type            processor;
        value           nonuniform List<scalar> 
64
(
6.5488886
6.548496
6.5482602
6.5479882
6.5479882
6.5478616
6.547845
6.5478504
6.5478756
6.5477455
6.5477455
6.5477119
6.547737
6.5477637
6.5477898
6.5478244
6.5476655
6.5476655
6.5476456
6.5476693
6.5477081
6.5475475
6.5475475
6.5475444
6.5475802
6.5476294
6.547454
6.547454
6.5474662
6.5475077
6.5475631
6.5473812
6.5473812
6.5474116
6.5474731
6.5472969
6.5472969
6.5473297
6.5473792
6.5471865
6.5471865
6.547213
6.5470115
6.5470115
6.5470046
6.5469901
6.5467385
6.5467385
6.5466891
6.5464101
6.5464101
6.5464029
6.5461809
6.5461809
6.54589
6.54589
6.5461274
6.5469869
6.5469869
6.5479673
6.5479673
6.5603554
6.5603554
6.9420299
)
;
    }
    procBoundary5to6
    {
        type            processor;
        value           nonuniform List<scalar> 
61
(
6.5442983
6.5439935
6.5437774
6.5437145
6.5437302
6.5437302
6.543747
6.5437908
6.5438313
6.5438656
6.5439124
6.5439124
6.5438715
6.5438742
6.5438854
6.5439099
6.5439773
6.5439773
6.5441195
6.5441974
6.5442622
6.5442964
6.5442557
6.5442557
6.5442694
6.5441139
6.543892
6.5436358
6.5433487
6.5433487
6.5432345
6.54295
6.5427681
6.542697
6.542697
6.542585
6.5426939
6.5429825
6.5433491
6.5433491
6.5431785
6.5436288
6.5440464
6.5440464
6.5439294
6.5444275
6.5448683
6.5448683
6.5450504
6.5454895
6.5458027
6.5458027
6.5457634
6.5460194
6.5460194
6.5458387
6.5462181
6.548224
6.548224
6.5926491
7.3464072
)
;
    }
    procBoundary5to12
    {
        type            processor;
        value           nonuniform List<scalar> 
30
(
6.5494955
6.5493161
6.5490993
6.5488452
6.5485659
6.5482772
6.5479882
6.5476955
6.5473804
6.5470154
6.5465813
6.5460754
6.5455056
6.5448856
6.5442421
6.5436303
6.5431603
6.5430036
6.5431184
6.5432825
6.5434825
6.543692
6.5439025
6.5440521
6.5441544
6.5441349
6.5441401
6.5440168
6.5494671
6.5494671
)
;
    }
}


// ************************************************************************* //
