/*--------------------------------*- C++ -*----------------------------------*\
| =========                 |                                                 |
| \\      /  F ield         | OpenFOAM: The Open Source CFD Toolbox           |
|  \\    /   O peration     | Version:  2506                                  |
|   \\  /    A nd           | Website:  www.openfoam.com                      |
|    \\/     M anipulation  |                                                 |
\*---------------------------------------------------------------------------*/
FoamFile
{
    version     2.0;
    format      ascii;
    arch        "LSB;label=32;scalar=64";
    class       volScalarField;
    location    "3";
    object      nut;
}
// * * * * * * * * * * * * * * * * * * * * * * * * * * * * * * * * * * * * * //

dimensions      [0 2 -1 0 0 0 0];

internalField   nonuniform List<scalar> 
1376
(
0.040229406
0.046615576
0.057265182
0.07080804
0.086543562
0.10331123
0.11980512
0.041137564
0.047866383
0.058995731
0.072996763
0.089050274
0.10593788
0.12236639
0.1374016
0.15051165
0.16145016
0.17017061
0.17683397
0.18162316
0.18457974
0.18625683
0.18700449
0.18715054
0.1869641
0.18663735
0.041975406
0.049127412
0.060756451
0.075199482
0.091534641
0.10850013
0.12482564
0.13962389
0.15240862
0.16297505
0.17131661
0.17763428
0.1820732
0.18477487
0.18626112
0.18688334
0.18695954
0.18674399
0.18641203
0.18606435
0.18575879
0.1855569
0.18544358
0.18532532
0.1852443
0.18520064
0.18518099
0.042727074
0.050346587
0.062472209
0.0773261
0.093897109
0.11089288
0.12707605
0.14161274
0.15406613
0.16427353
0.17226393
0.17826957
0.18240686
0.18489222
0.18622028
0.18674094
0.18676297
0.18652687
0.18619276
0.1858517
0.18556634
0.18540147
0.1852867
0.18516984
0.18509982
0.18506306
0.18504842
0.18505043
0.1850644
0.18508647
0.18511475
0.18514867
0.1851878
0.18523283
0.043406421
0.051473005
0.064061262
0.079280212
0.096036366
0.11301634
0.12902385
0.14328427
0.15541333
0.16528905
0.17297002
0.17870903
0.18260549
0.18491962
0.18612624
0.18657143
0.18655585
0.18630798
0.18597522
0.18564418
0.18538825
0.18525101
0.18512823
0.18501862
0.18495841
0.1849278
0.18491766
0.18492297
0.18493933
0.18496331
0.18499352
0.18502931
0.18507028
0.18511703
0.18517027
0.18523073
0.18529916
0.18537627
0.044046164
0.052482201
0.065479145
0.081015615
0.097915246
0.11484806
0.13066257
0.14464617
0.15646804
0.16604465
0.17345871
0.1789741
0.18268453
0.18486671
0.18598335
0.18637535
0.1863361
0.18608372
0.18575631
0.18544179
0.18522249
0.18510077
0.18496811
0.18487106
0.18481948
0.18479458
0.18478867
0.18479689
0.18481529
0.184841
0.18487293
0.18491046
0.18495321
0.18500169
0.18505645
0.18511832
0.18518809
0.18526666
0.18535556
0.18545789
0.18557692
0.18571586
0.044683107
0.053394479
0.066748279
0.082569068
0.099592694
0.11647185
0.13209758
0.14581722
0.1573515
0.16665316
0.17382639
0.17914215
0.18269558
0.18476646
0.18581006
0.18616135
0.18610634
0.18585378
0.18553581
0.18524452
0.18506532
0.18494442
0.18481027
0.18472646
0.18468261
0.1846631
0.18466119
0.18467214
0.18469239
0.18471962
0.1847531
0.18479228
0.18483671
0.18488673
0.18494288
0.18500612
0.18507719
0.18515703
0.18524741
0.18535125
0.18547173
0.18561239
0.18577809
0.18597566
0.045337636
0.054253689
0.067936378
0.084036297
0.1011955
0.1180442
0.13350812
0.14698732
0.1582497
0.167283
0.17421422
0.17932542
0.18271274
0.18466675
0.18563421
0.18594403
0.18587315
0.18562041
0.1853147
0.1850564
0.18491129
0.18478238
0.18465569
0.18458431
0.18454753
0.18453312
0.1845349
0.18454839
0.18457042
0.18459913
0.18463405
0.18467471
0.18472067
0.18477201
0.18482951
0.18489404
0.18496635
0.1850475
0.18513926
0.18524445
0.1853664
0.18550866
0.18567583
0.18587468
0.18611716
0.18642589
0.046006266
0.055097839
0.069110611
0.085510916
0.10284399
0.11971058
0.13505928
0.14833127
0.15933443
0.16809014
0.17475296
0.17962811
0.18280524
0.18461279
0.18548299
0.18573859
0.18564453
0.18538855
0.18509848
0.18488029
0.18475601
0.18461592
0.18450435
0.18444401
0.18441374
0.18440409
0.18440944
0.18442552
0.18444933
0.18447951
0.18451579
0.18455773
0.18460496
0.18465771
0.18471649
0.18478214
0.18485566
0.18493806
0.18503113
0.18513765
0.18526098
0.18540469
0.18557322
0.18577332
0.18601688
0.18632661
0.18672567
0.18705721
0.046666893
0.055944101
0.070312183
0.087050352
0.10460803
0.12155136
0.13683985
0.1499423
0.16069718
0.16915735
0.1755114
0.1801046
0.18301046
0.18462904
0.18537196
0.18555473
0.18542701
0.18516426
0.18489267
0.18471572
0.18459408
0.18445095
0.18435626
0.18430553
0.1842813
0.18427608
0.18428469
0.18430311
0.18432877
0.18436057
0.18439824
0.18444146
0.18448993
0.18454383
0.18460375
0.18467051
0.1847451
0.18482873
0.18492313
0.1850309
0.18515552
0.18530048
0.18547029
0.1856716
0.18591618
0.18622686
0.18662501
0.18694341
0.1841897
0.0472922
0.05678892
0.071547064
0.088659766
0.10648511
0.12355401
0.13882889
0.15179452
0.16231039
0.17045787
0.17646529
0.18073454
0.1833167
0.1847084
0.1852985
0.18539293
0.18522319
0.18495158
0.18470246
0.18455924
0.18442775
0.18429083
0.18421106
0.18416864
0.18415
0.18414886
0.1841605
0.18418123
0.18420879
0.18424226
0.1842813
0.18432566
0.18437524
0.18443036
0.18449141
0.18455916
0.18463476
0.18471949
0.18481519
0.1849243
0.18505002
0.1851961
0.18536706
0.18556948
0.18581505
0.18612678
0.18652384
0.186828
0.18391685
0.04786807
0.057621304
0.072797862
0.090304993
0.10841521
0.12562881
0.14091019
0.15375463
0.16403653
0.17186209
0.17750224
0.18143053
0.18366628
0.18481495
0.18524319
0.18524431
0.18503052
0.18475216
0.18453035
0.18440567
0.1842609
0.18413633
0.18406874
0.18403354
0.18402001
0.18402262
0.18403702
0.18405987
0.18408922
0.1841243
0.18416479
0.18421036
0.18426099
0.1843171
0.18437923
0.18444812
0.18452478
0.18461056
0.18470742
0.18481768
0.18494446
0.1850916
0.18526357
0.18546695
0.18571352
0.18602648
0.18642232
0.18671074
0.1836261
0.048415009
0.05845109
0.074054295
0.091947123
0.11032285
0.12765974
0.14293024
0.15564262
0.16568593
0.17319137
0.17847986
0.18206674
0.18398002
0.18490003
0.18517876
0.18509508
0.18484377
0.18456557
0.18437317
0.184251
0.18409682
0.1839872
0.1839293
0.18390035
0.18389142
0.18389741
0.18391429
0.18393907
0.18397009
0.18400668
0.18404852
0.1840953
0.18414704
0.1842042
0.18426741
0.18433729
0.18441494
0.18450184
0.18459978
0.18471107
0.18483884
0.18498695
0.1851598
0.18536405
0.18561172
0.18592605
0.18632064
0.18659146
0.18331569
0.048995678
0.059332088
0.075345958
0.09358435
0.11216964
0.12956969
0.14477574
0.15731798
0.16710615
0.17430081
0.17927811
0.18254534
0.18419297
0.18492384
0.18508242
0.18493333
0.18465762
0.18438774
0.18422433
0.18409315
0.18393805
0.18384262
0.1837926
0.1837691
0.1837643
0.18377332
0.1837924
0.18381892
0.18385147
0.18388947
0.18393257
0.18398049
0.18403333
0.18409152
0.18415576
0.1842267
0.18430535
0.18439322
0.18449221
0.18460454
0.1847332
0.18488212
0.18505574
0.18526085
0.18550968
0.18582553
0.18621877
0.18647011
0.1829863
0.049683782
0.060338962
0.076730251
0.095251998
0.11396783
0.13134844
0.14641604
0.15873415
0.16824291
0.17513818
0.17984315
0.18283369
0.18427934
0.18487007
0.18494387
0.1847523
0.18446711
0.18421768
0.18407667
0.1839321
0.1837841
0.18370152
0.18365836
0.18363978
0.18363869
0.18365043
0.18367147
0.18369952
0.18373342
0.18377271
0.18381699
0.183866
0.18391988
0.18397908
0.18404424
0.18411618
0.18419591
0.18428481
0.18438473
0.184498
0.18462749
0.18477712
0.18495145
0.18515736
0.18540741
0.18572481
0.18611658
0.18634692
0.18264126
0.050510091
0.061515149
0.078254438
0.096998006
0.11576514
0.13304321
0.1478974
0.15993575
0.16913856
0.17574072
0.18020112
0.18295745
0.18425373
0.1847469
0.18476635
0.18455238
0.18427212
0.18405279
0.18392593
0.18376788
0.18363432
0.18356319
0.18352635
0.18351226
0.18351449
0.18352863
0.1835514
0.1835808
0.18361591
0.18365633
0.18370171
0.18375177
0.18380663
0.18386677
0.18393283
0.1840057
0.18408644
0.18417643
0.18427735
0.18439145
0.18452171
0.18467198
0.18484691
0.18505356
0.18530482
0.18562371
0.18601388
0.18622217
0.18228486
0.051437668
0.062835699
0.079917491
0.098847743
0.11761254
0.13472678
0.14930882
0.1610211
0.16989251
0.17619908
0.18042787
0.18297562
0.18415512
0.18457774
0.18456243
0.18434038
0.18407659
0.18389222
0.18376785
0.18360247
0.18348774
0.18342705
0.18339633
0.18338642
0.18339162
0.18340783
0.1834321
0.18346271
0.18349888
0.1835403
0.18358668
0.18363774
0.18369355
0.18375456
0.18382149
0.18389526
0.18397698
0.184068
0.18416995
0.18428492
0.18441585
0.18456664
0.18474212
0.18494942
0.18520179
0.18552205
0.1859104
0.18609615
0.18192066
0.052387139
0.064218766
0.08166198
0.10077925
0.11952772
0.13645331
0.15073309
0.16209083
0.17061054
0.17661177
0.18060818
0.18295258
0.18402704
0.18438948
0.18434794
0.18412584
0.18388458
0.18373458
0.18360147
0.18344013
0.18334383
0.18329264
0.18326788
0.18326197
0.18326993
0.18328801
0.18331361
0.18334527
0.18338238
0.18342468
0.18347194
0.18352392
0.18358062
0.18364247
0.18371023
0.18378489
0.18386756
0.18395956
0.18406246
0.18417828
0.18430987
0.18446115
0.18463705
0.18484488
0.1850982
0.18541971
0.18580594
0.18596904
0.18155059
0.053271921
0.06555622
0.083387499
0.10271724
0.12147218
0.13822404
0.15220611
0.16320519
0.1713641
0.17704905
0.18080448
0.18293718
0.18390291
0.18420353
0.18413607
0.18391631
0.18370172
0.18357828
0.18343029
0.18328238
0.18320235
0.18315991
0.18314086
0.18313874
0.18314922
0.183169
0.18319582
0.18322845
0.18326642
0.18330951
0.18335755
0.18341035
0.18346793
0.18353058
0.18359911
0.18367459
0.18375814
0.18385102
0.1839548
0.18407149
0.18420378
0.18435551
0.18453169
0.1847399
0.18499407
0.1853166
0.18570042
0.18584088
0.1811743
0.054027309
0.066753267
0.084992794
0.10456938
0.12337375
0.13999422
0.15371169
0.1643715
0.17217503
0.17753817
0.18104369
0.18295334
0.18379964
0.18403159
0.18393504
0.1837182
0.18353256
0.18342153
0.18325837
0.1831297
0.18306305
0.18302845
0.18301481
0.1830164
0.18302935
0.18305075
0.18307871
0.18311225
0.18315099
0.18319481
0.18324359
0.18329713
0.18335543
0.18341885
0.18348813
0.18356435
0.18364871
0.18374244
0.18384702
0.18396451
0.18409753
0.1842497
0.18442607
0.18463452
0.18488942
0.18521281
0.18559391
0.1857114
0.18078979
0.054631748
0.067762182
0.086415893
0.10626992
0.12516946
0.14170938
0.15520804
0.16556167
0.17302672
0.17807043
0.18132179
0.18300199
0.18371875
0.18387588
0.18374801
0.18353503
0.18337663
0.18326162
0.18309202
0.18298222
0.18292614
0.18289823
0.18288946
0.18289458
0.18290999
0.18293305
0.18296215
0.18299654
0.18303604
0.18308059
0.18313001
0.18318422
0.18324324
0.18330739
0.18337734
0.18345425
0.18353934
0.18363383
0.1837392
0.18385738
0.18399107
0.18414367
0.18432022
0.18452884
0.18478431
0.18510837
0.18548645
0.18558014
0.18039422
0.055110221
0.068587836
0.087638629
0.10778218
0.12680915
0.14331191
0.15663669
0.16672224
0.17387429
0.17861059
0.18161363
0.18306753
0.18365111
0.1837322
0.18357419
0.18336593
0.18322975
0.18310027
0.18293335
0.18283943
0.18279158
0.18276932
0.1827649
0.18277333
0.18279109
0.18281578
0.18284604
0.18288133
0.18292159
0.18296679
0.18301686
0.18307172
0.18313141
0.18319623
0.18326688
0.18334442
0.18343011
0.18352523
0.18363129
0.1837502
0.18388448
0.18403748
0.18421418
0.18442288
0.18467882
0.18500336
0.18537826
0.18544663
0.1799846
0.055528485
0.069296964
0.088702443
0.10911484
0.12827037
0.14475507
0.1579364
0.16778771
0.17465734
0.17911361
0.18187931
0.18312557
0.18358235
0.18359287
0.18340919
0.1832073
0.18308852
0.18293955
0.18278206
0.18270082
0.18265938
0.1826418
0.18264115
0.18265261
0.18267268
0.18269903
0.18273045
0.18276663
0.18280763
0.18285351
0.1829042
0.18295962
0.1830199
0.1830854
0.18315675
0.18323491
0.18332112
0.18341674
0.18352341
0.18364295
0.18377781
0.18393121
0.18410801
0.18431672
0.18457304
0.184898
0.18526945
0.18531022
0.179559
0.0559685
0.070004001
0.089712463
0.11034257
0.12958926
0.1460384
0.15907863
0.16871321
0.17532721
0.17954112
0.1820833
0.18315282
0.18349844
0.18344955
0.18324782
0.18305864
0.18294704
0.1827805
0.18263712
0.18256594
0.18252959
0.18251581
0.18251832
0.18253243
0.18255464
0.18258262
0.18261525
0.18265234
0.18269408
0.18274061
0.18279189
0.1828479
0.18290872
0.18297479
0.18304679
0.18312561
0.18321234
0.1833085
0.1834157
0.18353577
0.18367111
0.18382487
0.18400176
0.18421043
0.18446704
0.18479238
0.18516001
0.18517047
0.17911651
0.056480853
0.070792169
0.090763344
0.11155184
0.13082998
0.14719864
0.16007428
0.16949065
0.17586717
0.17986906
0.18220998
0.18313524
0.18339039
0.18329671
0.18308723
0.18291617
0.18280223
0.18262308
0.18249721
0.18243425
0.18240227
0.18239163
0.18239667
0.18241291
0.18243691
0.1824664
0.18250026
0.18253831
0.18258082
0.18262798
0.18267983
0.18273638
0.18279776
0.1828644
0.18293702
0.18301645
0.18310382
0.18320048
0.18330815
0.1834287
0.18356445
0.18371847
0.18389543
0.18410405
0.18436091
0.18468652
0.18504989
0.18502723
0.17865799
0.1320371
0.14827567
0.16095305
0.17013875
0.17628683
0.18009756
0.18226044
0.18307048
0.18325619
0.18313305
0.18292606
0.18277568
0.18265075
0.18246939
0.18236093
0.18230516
0.18227717
0.18226925
0.18227632
0.18229421
0.18231965
0.1823504
0.18238542
0.18242449
0.18246784
0.18251565
0.18256802
0.18262506
0.18268699
0.18275421
0.1828274
0.18290743
0.18299539
0.18309259
0.1832007
0.18332167
0.18345778
0.183612
0.183789
0.18399757
0.18425464
0.18458037
0.18493886
0.18488064
0.17818402
0.18225023
0.18296713
0.183101
0.18296168
0.18276445
0.18263434
0.18249332
0.18231968
0.18222706
0.18217803
0.18215402
0.18214863
0.18215737
0.1821765
0.18220303
0.18223485
0.18227089
0.18231093
0.18235513
0.18240363
0.18245654
0.18251401
0.1825764
0.18264416
0.18271791
0.18279848
0.18288697
0.18298471
0.18309327
0.1832146
0.18335098
0.18350536
0.1836824
0.18389096
0.18414822
0.1844738
0.18482671
0.18473096
0.17769552
0.18249142
0.1823324
0.18217386
0.18209489
0.18205228
0.18203233
0.18202951
0.18203978
0.18205991
0.18208727
0.18211995
0.18215691
0.18219783
0.18224278
0.1822919
0.18234535
0.18240329
0.18246608
0.18253426
0.18260848
0.18268957
0.18277852
0.1828767
0.18298568
0.18310737
0.18324398
0.18339845
0.18357552
0.18378415
0.18404164
0.18436669
0.1847133
0.18457829
0.17719363
0.18192747
0.18191172
0.18191159
0.18192343
0.18194448
0.1819725
0.18200588
0.18204363
0.18208534
0.18213096
0.18218062
0.18223449
0.18229281
0.18235597
0.18242454
0.18249914
0.18258061
0.18266996
0.1827685
0.18287784
0.18299983
0.18313665
0.18329122
0.18346828
0.18367702
0.18393477
0.18425899
0.18459855
0.1844224
0.17667892
0.1818301
0.18185881
0.18189278
0.18193115
0.18197348
0.18201966
0.18206978
0.18212403
0.18218268
0.18224615
0.18231499
0.18238987
0.18247161
0.18256127
0.18266011
0.18276972
0.18289193
0.18302892
0.1831836
0.18336066
0.18356953
0.18382755
0.18415069
0.18448249
0.18426277
0.1761515
0.18186234
0.18190897
0.18195945
0.18201398
0.18207291
0.18213666
0.18220571
0.18228073
0.18236263
0.18245247
0.18255154
0.18266134
0.18278371
0.18292082
0.18307555
0.18325263
0.1834617
0.18372
0.18404188
0.18436517
0.18409878
0.17561123
0.18190441
0.18196356
0.18202745
0.18209661
0.18217177
0.18225376
0.18234369
0.18244284
0.18255276
0.18267522
0.18281237
0.1829671
0.18314421
0.18335348
0.18361209
0.18393263
0.18424675
0.18393005
0.17505737
0.18198778
0.18206296
0.18214501
0.18223499
0.18233417
0.18244407
0.18256649
0.1827036
0.18285826
0.18303538
0.18324485
0.1835038
0.18382296
0.18412739
0.18375642
0.17448912
0.18203643
0.18212643
0.18222558
0.18233537
0.18245763
0.18259455
0.18274903
0.18292609
0.18313579
0.18339506
0.18371278
0.18400723
0.18357809
0.17390542
0.18222671
0.18234871
0.18248531
0.18263947
0.18281637
0.18302627
0.18328587
0.18360212
0.18388639
0.18339508
0.17330527
0.18237596
0.18252968
0.18270629
0.18291631
0.18317626
0.18349101
0.18376464
0.18320702
0.17268778
0.18259595
0.18280601
0.18306624
0.18337942
0.18364183
0.18301323
0.17205282
0.18269548
0.18295598
0.18326741
0.1835178
0.18281266
0.17150759
0.18315502
0.18339234
0.1826034
0.17068278
0.18326509
0.1823854
0.17002146
0.1695484
0.040437856
)
;

boundaryField
{
    Side
    {
        type            empty;
    }
    Inlet
    {
        type            calculated;
        value           nonuniform List<scalar> 
32
(
0.19945402
0.19945541
0.19945497
0.1994527
0.19944882
0.1994462
0.19944628
0.19944698
0.19944795
0.19944927
0.19945045
0.19945121
0.19945176
0.19945188
0.19945091
0.19944916
0.19944879
0.19944901
0.19944881
0.19944837
0.19944794
0.19944802
0.19944861
0.19944979
0.19945171
0.19945362
0.1994546
0.1994547
0.19945437
0.19945416
0.19945385
0.1994537
)
;
    }
    Airfoil
    {
        type            nutkWallFunction;
        blending        stepwise;
        value           nonuniform List<scalar> 0();
    }
    Outlet
    {
        type            calculated;
        value           nonuniform List<scalar> 0();
    }
    procBoundary11to3
    {
        type            processor;
        value           uniform 0.039395692;
    }
    procBoundary11to4
    {
        type            processor;
        value           nonuniform List<scalar> 
26
(
0.041359463
0.042084973
0.042632844
0.043107711
0.043640484
0.044308202
0.045110453
0.045992747
0.046884808
0.047725306
0.048483365
0.04916788
0.049820298
0.050490913
0.05120657
0.051954803
0.052699867
0.053408145
0.054056506
0.054634928
0.055154468
0.055636466
0.056098172
0.056557922
0.047085886
0.041359463
)
;
    }
    procBoundary11to10
    {
        type            processor;
        value           nonuniform List<scalar> 
58
(
0.039296986
0.045413973
0.05560807
0.06868162
0.084064922
0.10067078
0.11719201
0.13504993
0.13504993
0.14847095
0.15978186
0.1688942
0.17592216
0.18108994
0.18432868
0.1862207
0.18711232
0.18734109
0.18719098
0.18687128
0.18628447
0.18628447
0.1859634
0.18572454
0.18559777
0.1854849
0.18539204
0.18534013
0.18531479
0.18517924
0.18517924
0.18519042
0.18521025
0.1852364
0.18526838
0.18530574
0.18534909
0.1852845
0.1852845
0.18534345
0.18541046
0.1854861
0.18546372
0.18546372
0.18556451
0.18568182
0.18581912
0.18588004
0.18588004
0.18607632
0.18621703
0.18621703
0.18652465
0.18682573
0.18682573
0.18716963
0.18444773
0.18444773
)
;
    }
    procBoundary11to12
    {
        type            processor;
        value           nonuniform List<scalar> 
65
(
0.057064579
0.071666278
0.091879584
0.11278132
0.11278132
0.13323214
0.14930343
0.1617529
0.17069307
0.17661492
0.18024679
0.18024679
0.18220188
0.1828394
0.18293343
0.18278675
0.18260373
0.18260373
0.18234542
0.18217023
0.18203136
0.18196388
0.18196388
0.18180322
0.18179164
0.18179435
0.18180799
0.18180799
0.18171647
0.18174604
0.18178063
0.18181952
0.18181952
0.18175181
0.1817988
0.18184959
0.18184959
0.18179521
0.18185453
0.18191853
0.18191853
0.18187921
0.18195441
0.18195441
0.18192806
0.18201803
0.18211708
0.18211708
0.18211814
0.1822398
0.1822398
0.18226664
0.18241977
0.18241977
0.18248546
0.18248546
0.1825849
0.18284562
0.18284562
0.18304227
0.18304227
0.1831356
0.18215975
0.18215975
0.1690845
)
;
    }
}


// ************************************************************************* //
