/*--------------------------------*- C++ -*----------------------------------*\
| =========                 |                                                 |
| \\      /  F ield         | OpenFOAM: The Open Source CFD Toolbox           |
|  \\    /   O peration     | Version:  2506                                  |
|   \\  /    A nd           | Website:  www.openfoam.com                      |
|    \\/     M anipulation  |                                                 |
\*---------------------------------------------------------------------------*/
FoamFile
{
    version     2.0;
    format      ascii;
    arch        "LSB;label=32;scalar=64";
    class       volVectorField;
    location    "3";
    object      U;
}
// * * * * * * * * * * * * * * * * * * * * * * * * * * * * * * * * * * * * * //

dimensions      [0 1 -1 0 0 0 0];

internalField   nonuniform List<vector> 
1376
(
(92.225258 0.0051613551 0)
(92.623318 -8.636172e-05 -6.3006311e-18)
(93.150779 -0.0014103123 1.260918e-24)
(93.588345 -0.00054458865 5.8606628e-18)
(93.881331 0.0010540603 5.6407035e-18)
(94.05509 0.002514881 0)
(94.149891 0.0034827637 0)
(92.279909 0.004453179 0)
(92.676376 -0.00099050414 0)
(93.193604 -0.0023928273 0)
(93.617547 -0.0014262247 5.6616903e-18)
(93.899254 0.00037007422 -5.457632e-18)
(94.065552 0.002124788 -5.2552372e-18)
(94.155966 0.0034691388 -2.0224946e-17)
(94.201182 0.0042081705 2.4318023e-17)
(94.221023 0.0047824351 1.8566652e-17)
(94.228652 0.0048543095 -2.6687377e-17)
(94.231132 0.0047287997 1.506129e-23)
(94.231937 0.004354706 1.6388545e-17)
(94.232626 0.0035447059 -7.8204399e-18)
(94.23416 0.0022058362 -3.7270351e-17)
(94.236954 0.0012486334 2.8403021e-17)
(94.240687 0.00026814454 3.3799671e-17)
(94.244625 -0.0012880242 -5.7874108e-17)
(94.248111 -0.0023549812 2.4447256e-17)
(94.250828 -0.0034960872 2.3215549e-17)
(92.335997 0.0041481707 0)
(92.729473 -0.0013588012 -5.8527229e-18)
(93.235197 -0.0028638556 5.6646754e-18)
(93.644802 -0.0019892521 -1.0949724e-17)
(93.914912 -0.00018507965 1.0569608e-17)
(94.07353 0.0016122604 1.5288595e-17)
(94.159266 0.0030834712 -2.9471367e-17)
(94.201792 0.004111168 3.2958107e-17)
(94.220835 0.004905632 -1.7994381e-17)
(94.228437 0.0052282801 8.6384077e-18)
(94.231097 0.0053583081 -8.2801926e-18)
(94.232367 0.0055153206 7.9777659e-18)
(94.234186 0.0056527339 1.5246511e-17)
(94.237453 0.0056379959 -2.1828308e-17)
(94.241587 0.0048850789 0)
(94.245752 0.0042336382 0)
(94.249457 0.0036882826 6.3260613e-18)
(94.252385 0.0023601145 -6.0164724e-18)
(94.254498 0.0011754657 -2.2873982e-17)
(94.25601 -0.00012337443 -1.0864628e-17)
(94.257261 -0.0012830015 -1.0315797e-17)
(94.258519 -0.0022103996 3.9160637e-17)
(94.259868 -0.0031297767 -1.857327e-17)
(94.261193 -0.0043824392 8.8035769e-18)
(94.262288 -0.0056863455 2.5020333e-17)
(94.263002 -0.0070948813 -9.2286579e-24)
(94.263346 -0.0087585492 -2.9923323e-17)
(92.391466 0.0040463485 -2.9113925e-18)
(92.781158 -0.0014020518 -2.8255556e-18)
(93.275239 -0.0029326966 0)
(93.67052 -0.0021418557 -5.2992892e-18)
(93.928999 -0.00044494655 5.1215983e-18)
(94.079903 0.0013502908 9.8891803e-18)
(94.161096 0.0028464853 -2.8622358e-17)
(94.201412 0.0039180784 4.5600421e-17)
(94.219752 0.0048071403 -2.6362974e-17)
(94.22712 0.0052893274 -8.4488772e-18)
(94.229923 0.0056981784 0)
(94.231509 0.0060255086 -7.7743761e-18)
(94.233674 0.0064584195 7.4459805e-18)
(94.237398 0.0063848701 -2.1333145e-17)
(94.242429 0.0068670745 2.729418e-17)
(94.247744 0.0070656601 0)
(94.252394 0.0069128095 0)
(94.255855 0.0067520988 1.7801751e-17)
(94.258083 0.0063267963 0)
(94.259428 0.0056742373 2.1466684e-17)
(94.260366 0.004780054 3.0601718e-17)
(94.26126 0.0038079132 -3.875378e-17)
(94.26223 0.0030126812 1.8393391e-17)
(94.263179 0.0021572186 8.7243143e-18)
(94.263931 0.0010232074 -1.6535981e-17)
(94.264322 -0.00013564369 7.8277485e-18)
(94.264382 -0.0013392831 7.4137975e-18)
(94.264203 -0.0033513639 -2.8058432e-17)
(94.264047 -0.0053909137 0)
(94.264371 -0.0078147425 1.2453474e-17)
(94.265269 -0.0098412581 1.1767373e-17)
(94.26566 -0.010580715 0)
(94.264904 -0.014721689 1.0549393e-17)
(94.26434 -0.016044584 -1.4449866e-23)
(92.443431 0.0037255668 -2.8106976e-18)
(92.829374 -0.0016197957 2.7310438e-18)
(93.312973 -0.0029422924 5.2991677e-18)
(93.694962 -0.0021243167 -1.0267437e-17)
(93.942383 -0.00059509776 -9.9339441e-18)
(94.085907 0.00096201793 9.5995897e-18)
(94.162871 0.0022481948 -1.8530081e-17)
(94.201093 0.0033466883 1.7758595e-17)
(94.218197 0.0038918961 -8.6136722e-18)
(94.2251 0.0043320965 1.1337815e-23)
(94.228002 0.0046895152 0)
(94.230027 0.004959248 0)
(94.232854 0.0051469781 1.458198e-17)
(94.23708 0.0056100932 -1.3942868e-17)
(94.242338 0.0059829159 0)
(94.247938 0.0061187536 -2.56438e-17)
(94.253065 0.0062966512 4.8989954e-17)
(94.257102 0.0063233695 -6.5763813e-24)
(94.259836 0.0060494626 -2.22519e-17)
(94.261461 0.0056483226 -3.1765572e-17)
(94.262387 0.0051578509 3.0212102e-17)
(94.263032 0.0045239829 -2.8713468e-17)
(94.263647 0.0039510028 7.0558085e-24)
(94.264263 0.0036408053 8.6240385e-18)
(94.264834 0.003130612 1.6350087e-17)
(94.265272 0.0023573871 7.7394085e-18)
(94.265454 0.0013207451 0)
(94.265354 -0.00072882752 1.3867252e-17)
(94.265116 -0.0030013202 0)
(94.26516 -0.0049594622 -1.2396041e-17)
(94.265927 -0.0073679493 5.6429214e-24)
(94.267085 -0.008740917 -1.1118738e-17)
(94.267229 -0.011313739 1.0518965e-17)
(94.266448 -0.013476972 -5.9718485e-17)
(94.266748 -0.017589782 -9.4298677e-18)
(94.268036 -0.019089927 0)
(94.268638 -0.019966555 -2.5359873e-17)
(94.268724 -0.021496292 8.0011353e-18)
(92.489713 0.0051142126 0)
(92.872653 -7.6099402e-05 5.2839973e-18)
(93.347798 -0.0012624915 -5.1320799e-18)
(93.718354 -0.00074157092 9.9542679e-18)
(93.955848 0.00047594133 1.9281119e-17)
(94.092533 0.0017383058 0)
(94.165438 0.0027264758 1.8009507e-17)
(94.201555 0.0034232234 -8.656722e-18)
(94.218002 0.0038836993 0)
(94.224705 0.004144979 8.0687789e-18)
(94.227662 0.0042773083 -7.7659631e-18)
(94.229894 0.0043949021 0)
(94.232963 0.0045197698 -1.4256887e-17)
(94.237411 0.0047704877 1.3674868e-17)
(94.242887 0.0049522112 0)
(94.248699 0.0051274123 0)
(94.254017 0.0052662385 -2.4018074e-17)
(94.258272 0.0053927894 1.1473433e-17)
(94.261272 0.0054028514 0)
(94.26313 0.0053275395 0)
(94.264148 0.0050672708 1.9858708e-17)
(94.264703 0.0046643495 -3.7779933e-17)
(94.265112 0.0042085045 8.9761784e-18)
(94.265532 0.0039340476 -1.7047063e-17)
(94.266019 0.0039101548 3.2355872e-17)
(94.266625 0.003672409 -1.5347299e-17)
(94.267313 0.0037137554 1.45472e-17)
(94.26789 0.0040739288 -1.3775995e-17)
(94.268064 0.0034346815 1.3038758e-17)
(94.267916 0.0024684085 -2.1787073e-24)
(94.268085 0.00014201217 -1.1695454e-17)
(94.26931 -0.0010955494 0)
(94.270164 -0.0037540848 2.0984655e-17)
(94.26967 -0.0086808631 1.9836611e-17)
(94.269358 -0.011481829 0)
(94.269609 -0.015669666 8.8964587e-18)
(94.269936 -0.018463224 2.5288332e-17)
(94.270067 -0.018807053 1.6005051e-17)
(94.270217 -0.01959685 0)
(94.271039 -0.01914045 0)
(94.273431 -0.022911975 0)
(94.277491 -0.017842989 -3.2473156e-18)
(92.530356 0.0081511933 2.6266884e-18)
(92.911438 0.0031784622 -2.5578163e-18)
(93.380209 0.0022985117 -9.9478446e-18)
(93.741459 0.0027687356 -2.2934631e-24)
(93.970465 0.003526324 1.8724785e-17)
(94.100972 0.0042338585 -1.8127541e-17)
(94.169912 0.0046636756 2.6285335e-17)
(94.203745 0.0048542262 -1.6908124e-17)
(94.219055 0.0048160426 -8.1422013e-18)
(94.225447 0.0047163669 -1.5699557e-17)
(94.228354 0.004586131 3.7810548e-17)
(94.230655 0.0044582101 -1.4551947e-17)
(94.233962 0.0043099324 0)
(94.238762 0.0044046418 0)
(94.244567 0.0044017527 -1.2887875e-17)
(94.250542 0.0044969594 0)
(94.255906 0.0045495046 -3.5434353e-17)
(94.260178 0.0045825262 1.1289512e-17)
(94.263235 0.0045373941 2.1559377e-17)
(94.265182 0.004397258 0)
(94.266256 0.0042730465 1.9592026e-17)
(94.266754 0.0040673248 -9.3260523e-18)
(94.266978 0.0036952755 -8.8729055e-18)
(94.267155 0.0032688773 1.8269014e-24)
(94.267415 0.0029351917 7.2586066e-24)
(94.267857 0.0025570032 1.5206812e-17)
(94.268478 0.0020706324 -1.4432542e-17)
(94.269146 0.0013374534 1.3693885e-17)
(94.269685 0.00090693895 1.298485e-17)
(94.269954 0.00056812851 -1.0965211e-23)
(94.270003 0.00021931705 1.3517431e-24)
(94.270495 -3.7722762e-05 -1.1055695e-17)
(94.271836 -0.00079051471 -2.0944189e-17)
(94.272754 -0.0029293956 9.8911015e-18)
(94.272179 -0.0068981745 -9.3511162e-18)
(94.27138 -0.012515403 0)
(94.271052 -0.014477508 -3.3533434e-17)
(94.270676 -0.018151982 -1.5900325e-17)
(94.270339 -0.018915864 0)
(94.271482 -0.019387833 0)
(94.274446 -0.021573875 -6.7797371e-18)
(94.278261 -0.017521459 -1.9415141e-17)
(94.282099 -0.024046679 0)
(94.283906 -0.014656499 -2.9264631e-18)
(92.567254 0.010098161 2.5423703e-18)
(92.947681 0.004976091 -7.4348033e-18)
(93.41142 0.0040955242 4.8243777e-18)
(93.765042 0.0045516963 -9.3770476e-18)
(93.986971 0.0052315932 -9.1000275e-18)
(94.112125 0.00558139 2.6457529e-17)
(94.1774 0.0056616882 -1.7070951e-17)
(94.208895 0.0054048938 1.6500193e-17)
(94.222822 0.0048962953 -7.9654423e-18)
(94.228564 0.0043885977 -1.5373458e-17)
(94.231245 0.0037334215 1.4825254e-17)
(94.233578 0.0030824969 1.4279282e-17)
(94.237086 0.0026887458 -2.0604426e-17)
(94.242123 0.0020254432 0)
(94.248036 0.0017014614 1.2668241e-17)
(94.253904 0.0013582369 1.2143929e-17)
(94.259017 0.001021988 -1.1628248e-17)
(94.263012 0.00084339457 1.1122781e-17)
(94.26584 0.00074254389 0)
(94.267633 0.00069873383 -1.0146468e-17)
(94.268622 0.00054933899 0)
(94.269078 0.00048279851 0)
(94.26924 0.00058247503 0)
(94.26929 0.00061494096 8.3559404e-18)
(94.269421 0.0006526149 -1.587447e-17)
(94.269766 0.00075018066 5.3873015e-26)
(94.270185 0.00079151351 -2.8572301e-17)
(94.270436 0.00026293853 2.7099362e-17)
(94.270549 -0.00094748778 -2.8810917e-24)
(94.270591 -0.0018640698 -1.2203319e-17)
(94.270596 -0.0025102569 1.1578962e-17)
(94.270811 -0.0032017859 -1.0958904e-17)
(94.271905 -0.0033410266 -1.0379861e-17)
(94.273848 -0.0033448916 0)
(94.274698 -0.0038456792 -2.7960742e-17)
(94.274125 -0.0058713829 -8.8104895e-18)
(94.273043 -0.010289721 8.3323412e-18)
(94.271905 -0.014213727 -3.1548646e-17)
(94.271201 -0.01727893 7.4676902e-18)
(94.272676 -0.018283013 7.1077105e-18)
(94.275564 -0.020689364 -3.3847804e-17)
(94.278711 -0.016193479 8.3919918e-24)
(94.282111 -0.022980138 2.1406643e-17)
(94.283701 -0.014347618 -1.2614251e-24)
(94.283775 -0.025140075 5.5790286e-18)
(94.282177 -0.0087024353 -3.9870349e-18)
(92.602084 0.012424289 -1.2314592e-17)
(92.982659 0.0073750308 2.4031917e-18)
(93.441671 0.0068692435 0)
(93.788528 0.0074370451 0)
(94.004539 0.0081452993 0)
(94.125399 0.0084216998 -6.9956266e-24)
(94.187807 0.0079548993 -8.3232408e-18)
(94.217419 0.0070482958 -1.6111792e-17)
(94.230089 0.0060836876 1.5577676e-17)
(94.235063 0.0051118399 -1.5050093e-17)
(94.237317 0.0040067207 1.8619122e-24)
(94.23945 0.0026750754 1.4006135e-17)
(94.242912 0.0017077142 -6.7423384e-18)
(94.24783 0.0011380116 -1.296794e-17)
(94.253411 0.00042231321 -4.22147e-24)
(94.258745 -7.3989294e-05 1.1951968e-17)
(94.263198 -0.00047832747 2.2909765e-17)
(94.266523 -0.00087456818 -2.193358e-17)
(94.268757 -0.0011632927 -2.0977153e-17)
(94.270078 -0.0014210745 4.0081339e-17)
(94.270727 -0.0015817416 0)
(94.270966 -0.0018497075 -1.8225486e-17)
(94.27101 -0.0021206191 5.2074005e-17)
(94.270978 -0.0021763348 -3.3086223e-17)
(94.271064 -0.0021865403 0)
(94.271474 -0.0021025184 0)
(94.272204 -0.002004794 -1.419075e-17)
(94.272641 -0.0015800899 -1.3466098e-17)
(94.272517 -0.0012645614 -1.276614e-17)
(94.272082 -0.0017617913 1.208524e-17)
(94.271736 -0.0026422715 0)
(94.27167 -0.0032780397 2.1694668e-17)
(94.272195 -0.0038058806 -2.0523998e-17)
(94.273881 -0.0045199286 -9.7635649e-18)
(94.275434 -0.0052066823 4.6336305e-17)
(94.276092 -0.0069723145 1.757321e-17)
(94.27585 -0.0087534323 0)
(94.274447 -0.01077105 3.1449566e-17)
(94.273134 -0.012994508 2.2353349e-17)
(94.273988 -0.015573865 7.0830798e-18)
(94.276275 -0.018166481 2.6940281e-17)
(94.279015 -0.015007017 2.8819662e-17)
(94.282021 -0.020532752 -3.0432301e-17)
(94.283347 -0.013739817 4.9035223e-17)
(94.283465 -0.0238719 2.774275e-18)
(94.282286 -0.0092209181 3.9411188e-17)
(94.27498 -0.031108839 -1.2643783e-18)
(94.297261 -0.0018919728 3.9519685e-17)
(92.635859 0.010868949 7.1640102e-18)
(93.016953 0.0056457185 2.3322662e-18)
(93.470728 0.0052268769 0)
(93.810756 0.0061982788 -8.8607593e-18)
(94.021317 0.007270139 8.6182087e-18)
(94.138578 0.0079554596 -1.6743827e-17)
(94.198732 0.008050229 -1.6245236e-17)
(94.226963 0.0076510356 7.8710653e-18)
(94.23887 0.006703084 -1.5237441e-17)
(94.243405 0.0054948127 1.4735987e-17)
(94.245344 0.0043448945 -1.4238466e-17)
(94.247049 0.0028207068 2.7477345e-17)
(94.249934 0.0013331727 2.0113439e-23)
(94.254132 5.6175183e-05 -5.0969929e-17)
(94.258835 -0.00099169425 2.4503422e-17)
(94.263201 -0.0018872576 1.1766832e-17)
(94.266696 -0.0025981095 1.1288935e-17)
(94.269163 -0.0030591823 -2.1637516e-17)
(94.270709 -0.0034665662 1.0356426e-17)
(94.271562 -0.0038322502 -9.9009276e-18)
(94.271961 -0.0042260266 9.4495137e-18)
(94.272095 -0.0044879472 0)
(94.272085 -0.0046941029 -1.7194926e-17)
(94.272015 -0.0050668214 1.6372218e-17)
(94.272047 -0.0055086241 0)
(94.272318 -0.0056153395 2.6898076e-23)
(94.272947 -0.0058204726 1.8046647e-23)
(94.273612 -0.0057407097 1.3380841e-17)
(94.273935 -0.0055699184 -1.2702445e-17)
(94.273722 -0.0050013616 -3.8544596e-24)
(94.273259 -0.004714056 -7.9714093e-24)
(94.273094 -0.0046182271 -5.8030687e-24)
(94.273405 -0.0037599989 3.0679644e-17)
(94.274633 -0.0040000829 0)
(94.276048 -0.0048403919 -1.837193e-17)
(94.27677 -0.004855797 0)
(94.277009 -0.0072426812 8.2757297e-18)
(94.276662 -0.010483133 7.8427111e-18)
(94.275652 -0.011693831 -3.7155901e-17)
(94.275769 -0.013940896 7.0494256e-18)
(94.277153 -0.017547113 0)
(94.27931 -0.013635316 3.1842638e-18)
(94.282018 -0.019075339 -2.7250244e-17)
(94.283474 -0.013828963 -9.2181136e-23)
(94.283183 -0.023342132 -4.7000622e-17)
(94.28284 -0.010783441 -3.934836e-17)
(94.275031 -0.030466864 4.0036578e-17)
(94.298363 -0.0087419112 -3.92155e-17)
(94.327825 -0.041697458 5.806041e-19)
(92.669034 0.008858495 -2.3172188e-18)
(93.050393 0.0037709403 2.2651139e-18)
(93.497986 0.0036200513 -1.7688232e-17)
(93.83048 0.0049374883 1.7243061e-17)
(94.035237 0.0064384765 -8.3950237e-18)
(94.148846 0.0076303554 8.1662598e-18)
(94.207027 0.0085371959 -1.5871296e-17)
(94.234382 0.0083379658 2.3105899e-17)
(94.24593 0.008192697 -1.4924561e-17)
(94.25041 0.00743918 1.4440339e-17)
(94.252335 0.0062344514 0)
(94.253939 0.0054082001 -1.3476805e-17)
(94.256199 0.0038116056 1.2994716e-17)
(94.259343 0.0024896051 1.2516194e-17)
(94.262874 0.0015021233 -1.2042552e-17)
(94.266115 0.00052949139 -1.1574221e-17)
(94.26865 -0.00029361864 2.2223061e-17)
(94.270394 -0.0010943809 -2.131022e-17)
(94.271488 -0.0018300702 1.0205298e-17)
(94.272128 -0.0024760584 0)
(94.272491 -0.0031507837 -9.3283488e-18)
(94.272698 -0.0038931765 -1.7804484e-17)
(94.272797 -0.0046359331 -4.6043149e-23)
(94.272825 -0.005286262 4.6276699e-23)
(94.272892 -0.005892471 1.1046286e-23)
(94.273097 -0.0064542854 3.2114869e-23)
(94.273524 -0.0069539623 -3.0638044e-23)
(94.274007 -0.0072358482 1.3246601e-17)
(94.274372 -0.0077148903 -2.5158123e-17)
(94.274459 -0.0080619698 3.6437395e-23)
(94.274227 -0.007933208 1.1325754e-17)
(94.274106 -0.008218363 4.2978666e-17)
(94.274626 -0.0081844939 -3.0575386e-17)
(94.276025 -0.0067721438 2.8941301e-17)
(94.277485 -0.0058558604 1.1362227e-23)
(94.27804 -0.0058460267 1.8986651e-23)
(94.278221 -0.0067207393 -3.2847568e-17)
(94.278159 -0.0086591709 -2.3392596e-17)
(94.277686 -0.01165284 0)
(94.277844 -0.011814296 2.8108008e-17)
(94.278339 -0.015719552 -6.6672514e-18)
(94.279587 -0.012985236 6.3302227e-18)
(94.282178 -0.018530055 7.1875491e-17)
(94.28389 -0.013082618 -4.578383e-17)
(94.283138 -0.023762947 0)
(94.283509 -0.012642934 4.198562e-17)
(94.27565 -0.029391488 -7.9797167e-17)
(94.300764 -0.01379735 3.849809e-17)
(94.327094 -0.035432894 0)
(92.701811 0.0065563378 -2.250228e-18)
(93.082731 0.00073370503 -2.2013964e-18)
(93.523273 0.0002318477 1.2903125e-17)
(93.847387 0.0012718148 0)
(94.045518 0.002793197 8.1799805e-18)
(94.15463 0.0040785762 7.9667812e-18)
(94.210058 0.004892473 -7.7567878e-18)
(94.236046 0.0065323567 7.4952449e-18)
(94.247651 0.0068413537 0)
(94.253071 0.0071634281 1.4079195e-17)
(94.256154 0.0071612509 -1.3705887e-17)
(94.25836 0.0060241642 0)
(94.260765 0.0060199699 0)
(94.263409 0.0049602299 1.2292566e-17)
(94.266078 0.0040194674 3.5827657e-23)
(94.268438 0.0031284437 0)
(94.270243 0.0023985423 -1.0923784e-17)
(94.271458 0.0015701825 0)
(94.272226 0.00065280661 0)
(94.272716 -0.00030983059 -1.9219444e-17)
(94.273054 -0.0012269534 -8.2219759e-24)
(94.273313 -0.0021564762 3.5990679e-23)
(94.273514 -0.0030909247 0)
(94.273651 -0.0040670202 3.201448e-17)
(94.273774 -0.0051753695 0)
(94.273988 -0.0064141565 -1.4520328e-17)
(94.274325 -0.0072659934 1.3805862e-17)
(94.274697 -0.0078635032 -2.6231123e-17)
(94.27507 -0.0083311807 2.4909046e-17)
(94.275299 -0.0086923579 4.7364124e-17)
(94.275271 -0.0089410484 1.1239844e-17)
(94.275178 -0.0093812743 -3.1985137e-17)
(94.275613 -0.010191339 -1.0122068e-17)
(94.277065 -0.010303338 -9.600069e-18)
(94.278752 -0.0094322543 1.8213407e-17)
(94.279883 -0.0080567533 0)
(94.280469 -0.0085658049 0)
(94.280268 -0.0080191622 3.8773097e-17)
(94.279386 -0.0094657649 -7.3567268e-18)
(94.279075 -0.011594099 -2.7973006e-17)
(94.279267 -0.013781541 -6.6437944e-18)
(94.280062 -0.013547375 -2.2010203e-17)
(94.282554 -0.017918226 -4.4846141e-17)
(94.284423 -0.012675601 -2.8558487e-18)
(94.283496 -0.024072885 2.7058345e-18)
(94.283636 -0.012917479 -2.7478313e-23)
(94.277363 -0.030088481 3.9734182e-17)
(94.301849 -0.016110615 0)
(94.324445 -0.037392899 0)
(92.733913 0.00779998 0)
(93.113488 0.0020230317 -8.563108e-18)
(93.546636 0.0019921878 -8.3711428e-18)
(93.86211 0.0032178614 5.1039717e-24)
(94.053379 0.0046559082 -8.7286939e-24)
(94.157931 0.0060722097 7.7669733e-18)
(94.210761 0.0069685192 -2.2688639e-17)
(94.235788 0.0070700777 -7.3131453e-18)
(94.247238 0.0075370857 0)
(94.252774 0.0076090159 -1.3749886e-17)
(94.256293 0.007842625 1.3369668e-17)
(94.259674 0.0078357812 -2.5996787e-17)
(94.26301 0.0072933703 0)
(94.266176 0.0069247813 -1.2004261e-23)
(94.268819 0.0061037274 -1.163068e-17)
(94.27083 0.005182697 1.7635704e-23)
(94.272231 0.0041598055 2.1496466e-17)
(94.273109 0.0032112409 -2.063165e-17)
(94.273619 0.0022824879 1.9783731e-17)
(94.273933 0.001269728 0)
(94.274175 0.00017480216 0)
(94.274408 -0.0010249356 3.4705975e-17)
(94.274628 -0.0022463761 0)
(94.274807 -0.0035054757 -6.9615202e-23)
(94.274968 -0.0047289393 1.5096935e-17)
(94.275176 -0.0057230311 -1.4382596e-17)
(94.27544 -0.0067577495 -1.3689503e-17)
(94.27573 -0.0073428039 1.3018247e-17)
(94.276108 -0.0084715987 0)
(94.276533 -0.0094450504 -3.5253485e-17)
(94.276785 -0.010260779 1.116533e-17)
(94.276886 -0.010768552 -1.060174e-17)
(94.277288 -0.011779884 3.0159172e-17)
(94.278408 -0.011619377 9.5362115e-18)
(94.279696 -0.011505562 -9.0506715e-18)
(94.281025 -0.011406324 -1.7183127e-17)
(94.281981 -0.0090856171 0)
(94.282368 -0.010524329 0)
(94.281418 -0.009744533 7.320459e-18)
(94.280213 -0.012637555 -2.7774168e-17)
(94.279962 -0.015388334 1.9799006e-17)
(94.281108 -0.013847347 2.5038878e-17)
(94.283164 -0.018885908 4.7637085e-17)
(94.284781 -0.014964 4.5477053e-17)
(94.284353 -0.024766168 -2.705608e-18)
(94.28381 -0.013184547 2.5789788e-18)
(94.27999 -0.032919915 -3.9559426e-17)
(94.301617 -0.01624098 -7.5793327e-17)
(94.323628 -0.043804496 5.6913256e-19)
(92.765416 0.0058997288 0)
(93.142901 -3.6787993e-05 -2.0829709e-17)
(93.56875 -0.00021317455 1.2226157e-17)
(93.875871 0.0012422956 1.5926116e-17)
(94.0606 0.0029739835 -1.5541311e-17)
(94.161005 0.0044058049 0)
(94.211677 0.0058996479 1.4746828e-17)
(94.235725 0.0068671905 1.6190953e-23)
(94.246768 0.0075100709 -1.3942617e-17)
(94.252268 0.0079255184 1.3535209e-17)
(94.256055 0.0079949101 1.3020303e-17)
(94.259719 0.0085790729 1.3855169e-24)
(94.263666 0.008676886 0)
(94.26752 0.0086567167 1.1866992e-17)
(94.270725 0.008515539 -1.1438404e-17)
(94.273021 0.0081780754 -3.3033339e-17)
(94.274479 0.0075769522 -1.0587944e-17)
(94.275306 0.0066504923 2.0340742e-17)
(94.275713 0.005656206 -2.9282014e-17)
(94.275897 0.0045422639 1.8721151e-17)
(94.276013 0.0033865375 -1.7935377e-17)
(94.276144 0.0020517936 3.4320028e-17)
(94.276316 0.00087539932 -3.2798851e-17)
(94.276483 -0.00067358887 -1.5661331e-17)
(94.276606 -0.0021420662 -1.4947042e-17)
(94.276728 -0.0037877975 1.4250626e-17)
(94.276915 -0.0057928366 0)
(94.277198 -0.0076618112 2.4682232e-23)
(94.27756 -0.008613071 -1.2279461e-17)
(94.278125 -0.010652266 -1.1671536e-17)
(94.278647 -0.010120208 -3.3282674e-17)
(94.27892 -0.012148037 -2.107861e-17)
(94.279386 -0.012745185 -1.0001947e-17)
(94.280214 -0.012441144 -1.897601e-17)
(94.281049 -0.012535466 -2.6985559e-17)
(94.282039 -0.01261365 1.7073133e-17)
(94.282711 -0.012539097 4.0518043e-17)
(94.283392 -0.011094538 -7.6951375e-18)
(94.283557 -0.011490832 -7.2965375e-18)
(94.281972 -0.01154663 3.4548953e-17)
(94.280954 -0.015069127 -5.2969037e-23)
(94.282622 -0.014485439 1.8710588e-17)
(94.284108 -0.020805856 -4.1506467e-17)
(94.285185 -0.016181594 -4.5199771e-17)
(94.285064 -0.025167483 0)
(94.284216 -0.014566356 -4.1084722e-17)
(94.282821 -0.036732655 3.9357076e-17)
(94.301715 -0.014559573 1.4941988e-16)
(94.323772 -0.048028183 0)
(92.796794 0.0034968919 -2.0685695e-18)
(93.171432 -0.0024692903 2.6362501e-17)
(93.589941 -0.002091211 0)
(93.889001 -0.0007367009 0)
(94.067568 0.0011399578 -1.5161694e-17)
(94.164102 0.0029423065 -1.4789467e-17)
(94.212724 0.0041866413 1.4412189e-17)
(94.235857 0.0051620923 9.6830075e-24)
(94.246628 0.0058620102 2.7294892e-17)
(94.252176 0.0065012843 -2.659707e-17)
(94.256069 0.0071370229 1.2768744e-17)
(94.25993 0.0074963186 -1.2400822e-17)
(94.26416 0.0078539941 2.4074109e-17)
(94.268325 0.0081671866 -1.1641075e-17)
(94.271931 0.0082220997 1.123851e-17)
(94.274655 0.0081803791 1.0833315e-17)
(94.276455 0.0079831388 3.1285995e-17)
(94.277505 0.0076609486 -3.0081691e-17)
(94.278047 0.007072586 -9.6310054e-18)
(94.278309 0.0063932974 1.8483398e-17)
(94.278452 0.0057019581 -1.7720857e-17)
(94.278562 0.0046631692 -6.2857804e-24)
(94.278707 0.002917829 -1.5059365e-24)
(94.278879 0.0017863348 1.0524341e-23)
(94.278988 0.0001601937 -1.4800655e-17)
(94.279047 -0.0016660766 -1.4122299e-17)
(94.279195 -0.003923153 2.6906194e-17)
(94.2795 -0.0061885059 2.5614283e-17)
(94.279877 -0.0080788238 1.2184735e-17)
(94.28028 -0.0097278238 -2.3174417e-17)
(94.280694 -0.012356968 1.1018198e-17)
(94.281008 -0.012184198 4.1887044e-17)
(94.281352 -0.014213437 -9.9456213e-18)
(94.281864 -0.014631764 9.4405813e-18)
(94.282544 -0.014558706 3.5820515e-17)
(94.283349 -0.013551223 -3.3977833e-17)
(94.283703 -0.011961014 -4.0263682e-17)
(94.284047 -0.01319501 7.6456988e-18)
(94.284539 -0.011736529 0)
(94.283806 -0.010493055 0)
(94.282671 -0.016131979 -6.52444e-18)
(94.284326 -0.015308251 3.1050725e-17)
(94.285172 -0.021282416 -4.4291912e-17)
(94.285625 -0.016755857 -4.779549e-17)
(94.285599 -0.02533477 0)
(94.284555 -0.011904177 3.8201661e-17)
(94.285452 -0.042394531 3.668666e-18)
(94.301654 -0.012732151 -7.5427676e-17)
(94.323207 -0.051583399 0)
(92.828357 0.0037015851 0)
(93.199305 -0.0025985205 0)
(93.610245 -0.0025638436 1.5478746e-17)
(93.901448 -0.0015225254 0)
(94.074171 -0.00027141499 7.3974401e-18)
(94.167072 0.00099374164 -7.2192996e-18)
(94.213727 0.002116086 0)
(94.235998 0.0028638673 0)
(94.246536 0.0035240796 -1.3296066e-17)
(94.252162 0.0041317184 1.295861e-17)
(94.256292 0.0047321381 -1.2537521e-17)
(94.260479 0.0052876091 2.4359942e-17)
(94.264957 0.0057324557 0)
(94.269359 0.0061542062 -2.2844665e-17)
(94.273236 0.0066076984 1.9891532e-23)
(94.276281 0.0068528703 2.1306869e-17)
(94.278424 0.0069334481 1.0267629e-17)
(94.279785 0.0068081922 -2.5393555e-23)
(94.280573 0.0063038729 1.9000451e-17)
(94.280989 0.0057751788 -5.4743667e-17)
(94.281223 0.005071684 1.7507088e-17)
(94.281424 0.0044077486 0)
(94.281628 0.0041544871 -2.8513207e-23)
(94.281863 0.0026782511 1.5350103e-17)
(94.282094 0.0013248149 -8.5824197e-24)
(94.282265 -0.00015350838 -1.3995682e-17)
(94.282454 -0.0017104644 -1.8015408e-23)
(94.282722 -0.0035559618 8.1984481e-24)
(94.283138 -0.0065093561 -1.2092763e-17)
(94.283435 -0.0087328502 1.1499753e-17)
(94.283327 -0.010373498 1.093173e-17)
(94.283312 -0.015361348 -2.0777867e-24)
(94.283374 -0.015329807 0)
(94.283426 -0.016831628 0)
(94.283728 -0.016887118 -4.4553907e-17)
(94.284297 -0.016982786 5.0740287e-17)
(94.284832 -0.016250305 3.2090513e-17)
(94.284894 -0.014100439 -7.604598e-18)
(94.285079 -0.016069745 -7.2189194e-18)
(94.285198 -0.012981842 6.8536197e-18)
(94.285182 -0.016364883 -3.1439227e-23)
(94.286094 -0.014679294 -7.8334346e-23)
(94.286197 -0.022205117 4.7001407e-17)
(94.286049 -0.016922521 4.1918134e-17)
(94.286023 -0.027035132 5.3329052e-18)
(94.284549 -0.011589028 -4.5363014e-17)
(94.287965 -0.045786903 2.4303719e-18)
(94.300913 -0.010179444 0)
(94.322685 -0.055602269 0)
(92.860669 0.0012175312 0)
(93.227484 -0.0054115026 0)
(93.630761 -0.0050419151 -3.7732727e-17)
(93.914401 -0.0033148791 -1.4772755e-17)
(94.081591 -0.0015774389 1.4441274e-17)
(94.171017 -0.00031876374 7.0496659e-18)
(94.215676 0.000691354 -1.3745793e-17)
(94.236907 0.0014994163 1.3377702e-17)
(94.247016 0.0020012677 1.300005e-17)
(94.252635 0.0023821844 0)
(94.257009 0.0027326113 1.2309747e-17)
(94.261481 0.0032097842 -1.1956161e-17)
(94.266239 0.0036388172 2.3181174e-17)
(94.270901 0.0041225306 -4.4884581e-17)
(94.274992 0.0045159713 -1.0850641e-17)
(94.278228 0.0050569953 2.0960612e-17)
(94.280574 0.0055684429 -5.0553349e-17)
(94.282179 0.0060315378 2.9225117e-17)
(94.283251 0.0064687957 0)
(94.283924 0.006813153 4.4484418e-23)
(94.28428 0.0068247736 1.7296256e-17)
(94.284492 0.0060110576 2.9879176e-23)
(94.284712 0.0047908107 -1.5887211e-17)
(94.284964 0.0038780508 -1.5199512e-17)
(94.285241 0.0026773544 1.4528131e-17)
(94.285506 0.0012945674 -1.3873283e-17)
(94.285746 -0.00074933473 0)
(94.285954 -0.0028570282 0)
(94.286232 -0.0046083464 0)
(94.28664 -0.008294726 0)
(94.286639 -0.0095581793 0)
(94.286131 -0.011375347 -2.0673783e-17)
(94.285521 -0.014881358 0)
(94.285052 -0.016469882 -1.8643499e-17)
(94.284895 -0.017737763 3.5412922e-17)
(94.285017 -0.018455491 0)
(94.285515 -0.019109832 -3.1921784e-17)
(94.285776 -0.01793387 2.2723005e-17)
(94.285899 -0.017638432 -2.1541901e-17)
(94.286464 -0.01609702 0)
(94.287453 -0.017817192 -2.5927787e-17)
(94.287722 -0.014915956 -4.9244823e-17)
(94.287404 -0.022206184 -4.6768745e-17)
(94.286788 -0.016810705 -2.7766271e-18)
(94.28646 -0.028490706 4.5005433e-17)
(94.285064 -0.011879231 0)
(94.290463 -0.045783845 0)
(94.299419 -0.0071898841 0)
(94.322691 -0.056433867 0)
(92.893304 -0.0015881279 0)
(93.256177 -0.0095325208 0)
(93.651912 -0.0093986164 1.4725611e-17)
(93.928298 -0.0079600427 1.4421529e-17)
(94.090256 -0.0061558492 0)
(94.176369 -0.0045273394 -1.3783315e-17)
(94.219074 -0.0033495714 7.7112805e-26)
(94.23924 -0.0023583941 -2.6219583e-17)
(94.248879 -0.0016081535 2.5530313e-17)
(94.254364 -0.00092383129 -2.4847325e-17)
(94.2588 -0.0004292851 -1.2082721e-17)
(94.26347 -7.4995634e-05 1.1735849e-17)
(94.2685 0.00042818627 -1.1383905e-17)
(94.273397 0.00097243567 1.1028495e-17)
(94.277617 0.0014613367 2.1341578e-17)
(94.280864 0.0016170371 -3.0937652e-17)
(94.283139 0.0017946807 3.9820881e-17)
(94.284669 0.0018904748 2.1916642e-23)
(94.285724 0.0021611627 3.7638819e-23)
(94.286489 0.0022110776 -1.7785002e-17)
(94.287046 0.0027593869 -3.1284446e-23)
(94.28743 0.0036427056 1.6393198e-17)
(94.287748 0.0039245062 -1.5710323e-17)
(94.288023 0.0044605627 0)
(94.288228 0.0040802143 2.8778654e-17)
(94.288454 0.0032795819 1.3749292e-17)
(94.288742 0.0019988128 -1.3118338e-17)
(94.289058 0.00038336399 0)
(94.289144 -0.0013860648 0)
(94.289096 -0.0034830768 2.2682622e-17)
(94.289265 -0.0084543566 -2.1614949e-17)
(94.288812 -0.011473299 -1.0280793e-17)
(94.287581 -0.013889463 3.9043748e-17)
(94.286638 -0.016230408 9.2667558e-18)
(94.286231 -0.018266582 -1.7588576e-17)
(94.286139 -0.019090819 0)
(94.286308 -0.020104473 3.965246e-17)
(94.286478 -0.019728217 -3.7675002e-17)
(94.286799 -0.020879035 2.8604084e-17)
(94.287658 -0.018001029 0)
(94.288772 -0.020709278 0)
(94.289077 -0.01784769 4.9005074e-17)
(94.288845 -0.023741361 4.65544e-17)
(94.288189 -0.017539325 0)
(94.287259 -0.030451471 -8.4170494e-17)
(94.286311 -0.012661518 4.0125626e-17)
(94.29207 -0.045644706 1.2059531e-18)
(94.297808 -0.0054554474 -1.7242077e-18)
(94.322825 -0.057219406 5.4504567e-19)
(92.924749 0.0011189633 -1.4913627e-17)
(93.284368 -0.0079638318 0)
(93.673045 -0.0083977056 -1.4373549e-17)
(93.942548 -0.0082941442 0)
(94.099495 -0.0078273786 -1.3785891e-17)
(94.182407 -0.0072794258 0)
(94.223237 -0.0067211798 2.6332933e-17)
(94.242457 -0.0062991441 -1.2847142e-17)
(94.251788 -0.0058357555 -4.7496812e-24)
(94.257309 -0.0052444145 1.2196701e-17)
(94.261943 -0.0047186504 0)
(94.266881 -0.0045506725 1.1528858e-17)
(94.272155 -0.0043236426 -2.2380001e-17)
(94.277219 -0.0041491087 2.1696566e-17)
(94.281512 -0.0039493437 -1.0504128e-17)
(94.284682 -0.003230399 1.0158378e-17)
(94.286738 -0.0027633617 1.9623375e-17)
(94.288007 -0.0024715661 -3.7861975e-17)
(94.288828 -0.0019589381 -1.8243333e-17)
(94.28944 -0.0014658153 1.7559089e-17)
(94.29 -0.0018096214 0)
(94.290447 -0.001821195 0)
(94.290771 -0.0014091359 1.5548443e-17)
(94.29102 -0.0012219579 0)
(94.291231 -0.0008273409 0)
(94.291391 -0.00032563492 -2.7270176e-17)
(94.291545 -0.00025940515 -2.6050696e-17)
(94.291872 -0.0010928615 1.242323e-17)
(94.292191 -0.0017272509 1.1848857e-17)
(94.291987 -0.0015704115 -3.3855931e-17)
(94.291523 -0.0029423607 2.2867415e-23)
(94.290945 -0.0069341482 3.063653e-17)
(94.289768 -0.010637977 -2.9089467e-17)
(94.288716 -0.014880419 0)
(94.288058 -0.018607413 0)
(94.287675 -0.020983919 -3.3226379e-17)