/*--------------------------------*- C++ -*----------------------------------*\
| =========                 |                                                 |
| \\      /  F ield         | OpenFOAM: The Open Source CFD Toolbox           |
|  \\    /   O peration     | Version:  2506                                  |
|   \\  /    A nd           | Website:  www.openfoam.com                      |
|    \\/     M anipulation  |                                                 |
\*---------------------------------------------------------------------------*/
FoamFile
{
    version     2.0;
    format      ascii;
    arch        "LSB;label=32;scalar=64";
    class       volVectorField;
    location    "3";
    object      U;
}
// * * * * * * * * * * * * * * * * * * * * * * * * * * * * * * * * * * * * * //

dimensions      [0 1 -1 0 0 0 0];

internalField   nonuniform List<vector> 
1376
(
(92.063329 0.017325662 0)
(92.379875 0.011540319 -6.1871517e-18)
(92.885757 0.0091872139 2.816046e-25)
(93.371692 0.0091686262 5.751126e-18)
(93.740214 0.0105758 5.533987e-18)
(93.982847 0.012356572 0)
(94.128544 0.013895162 0)
(92.123206 0.017664826 0)
(92.44054 0.011923022 0)
(92.940958 0.009715045 0)
(93.415112 0.0097007535 5.5566896e-18)
(93.770613 0.011100013 -5.3548344e-18)
(94.002636 0.012815827 -5.1539935e-18)
(94.140999 0.014300557 -1.9819835e-17)
(94.217985 0.015348072 2.379164e-17)
(94.257944 0.015960744 1.8258217e-17)
(94.277059 0.016244154 -2.6243935e-17)
(94.285514 0.016264063 1.5035696e-23)
(94.289468 0.016101089 1.6014722e-17)
(94.292398 0.015856628 -7.6489937e-18)
(94.295949 0.015560534 -3.6496284e-17)
(94.3005 0.015253523 2.7834698e-17)
(94.305639 0.014954272 3.3138407e-17)
(94.310604 0.014667778 -5.6760198e-17)
(94.314701 0.014387522 2.3984181e-17)
(94.317579 0.014100826 2.2784114e-17)
(92.179976 0.017325258 0)
(92.498184 0.011655827 -5.7481989e-18)
(92.993217 0.0096215199 5.5616366e-18)
(93.45599 0.0096633097 -1.0747971e-17)
(93.799095 0.011108346 1.0371981e-17)
(94.021105 0.012785816 1.4995283e-17)
(94.15258 0.014246784 -2.8872243e-17)
(94.225264 0.015282555 3.2391795e-17)
(94.262765 0.015899804 -1.7779739e-17)
(94.280667 0.016182757 8.5299908e-18)
(94.288715 0.016233376 -8.1757529e-18)
(94.29273 0.016134809 7.827802e-18)
(94.295925 0.01592924 1.4973281e-17)
(94.29973 0.015683404 -2.1458641e-17)
(94.304383 0.015424804 0)
(94.30941 0.015168814 0)
(94.31408 0.014917477 6.2009953e-18)
(94.31779 0.014662658 -5.9016666e-18)
(94.320298 0.014391615 -2.2447827e-17)
(94.321737 0.014092729 -1.0664249e-17)
(94.322465 0.013759627 -1.0124824e-17)
(94.322852 0.013391101 3.842361e-17)
(94.323159 0.012987878 -1.8215328e-17)
(94.323516 0.012549311 8.6301689e-18)
(94.323964 0.012071805 2.4520228e-17)
(94.324497 0.011549004 -1.21188e-23)
(94.325088 0.010972408 -2.9285716e-17)
(92.233352 0.016820938 -2.8605223e-18)
(92.552576 0.011170613 -2.7748569e-18)
(93.042182 0.0093562758 0)
(93.493999 0.009454938 -5.2019546e-18)
(93.825408 0.010944027 5.0265588e-18)
(94.038062 0.012607497 9.7022357e-18)
(94.163138 0.014043827 -2.8057975e-17)
(94.231851 0.015059577 4.502722e-17)
(94.267111 0.015674666 -2.5984241e-17)
(94.28394 0.015975429 -8.3212396e-18)
(94.291663 0.016056422 0)
(94.295781 0.015981794 -7.6549229e-18)
(94.299246 0.015829727 7.3299706e-18)
(94.303289 0.015638336 -2.103375e-17)
(94.308019 0.01543629 2.6797353e-17)
(94.312921 0.01523563 0)
(94.317308 0.015035028 0)
(94.320671 0.014824218 1.7428524e-17)
(94.322861 0.01458978 0)
(94.324069 0.014320558 2.1035388e-17)
(94.324653 0.014010554 2.998357e-17)
(94.324956 0.013658198 -3.7961103e-17)
(94.325205 0.013263346 1.8010459e-17)
(94.32551 0.012824381 8.5395373e-18)
(94.325902 0.012336981 -1.6186644e-17)
(94.326375 0.011794331 7.6664963e-18)
(94.326898 0.011187619 7.258983e-18)
(94.327429 0.010506739 -2.7482212e-17)
(94.327917 0.0097416758 0)
(94.328327 0.008884756 1.2299698e-17)
(94.32865 0.0079340141 1.1633718e-17)
(94.328918 0.0068976302 0)
(94.3292 0.0057986341 1.040695e-17)
(94.329574 0.0046753612 -3.0862449e-24)
(92.283526 0.016525906 -2.7612211e-18)
(92.603837 0.010819604 2.6817674e-18)
(93.087927 0.0091708483 5.2024891e-18)
(93.529228 0.0093424471 -1.0079367e-17)
(93.84965 0.010843054 -9.7515476e-18)
(94.05361 0.012480167 9.4228536e-18)
(94.172771 0.013870639 -1.8189153e-17)
(94.237833 0.014845345 1.7535421e-17)
(94.271057 0.01543646 -8.4430218e-18)
(94.286935 0.015728077 1.11642e-23)
(94.294398 0.015814392 0)
(94.298638 0.015766749 0)
(94.302357 0.015651681 1.4357318e-17)
(94.306603 0.01550677 -1.374829e-17)
(94.311377 0.015357421 0)
(94.316139 0.015211704 -2.5132282e-17)
(94.320253 0.015065332 4.7980769e-17)
(94.323304 0.014906207 -2.853362e-23)
(94.325227 0.014720156 -2.1796582e-17)
(94.326252 0.014495743 -3.1121761e-17)
(94.326733 0.014226312 2.9599419e-17)
(94.326983 0.013908964 -2.8129334e-17)
(94.327198 0.013541749 1.6008119e-23)
(94.327468 0.013121141 8.4500448e-18)
(94.327817 0.012641159 1.6028183e-17)
(94.328236 0.012093716 7.5964189e-18)
(94.328695 0.011469212 0)
(94.329152 0.010757313 1.3631586e-17)
(94.329561 0.0099489117 0)
(94.32989 0.0090387582 -1.2213878e-17)
(94.330134 0.0080289982 -3.8236507e-24)
(94.330327 0.0069336581 -1.0935291e-17)
(94.330535 0.005782234 1.0346341e-17)
(94.330828 0.0046183328 -5.8738982e-17)
(94.331249 0.0034921542 -9.2648566e-18)
(94.331793 0.0024473403 0)
(94.332439 0.0014787368 -2.4917278e-17)
(94.333246 0.00061015358 7.8697608e-18)
(92.331128 0.016508805 0)
(92.652349 0.010711456 5.1884512e-18)
(93.130905 0.0091434749 -5.0384437e-18)
(93.562098 0.0093815657 9.7727685e-18)
(93.872168 0.010854568 1.8931803e-17)
(94.068029 0.012437778 0)
(94.181712 0.013764435 1.7697731e-17)
(94.243407 0.014679903 -8.5407843e-18)
(94.274767 0.015227887 0)
(94.28979 0.0154947 7.9292524e-18)
(94.297029 0.015564454 -7.626982e-18)
(94.301382 0.015525426 0)
(94.305319 0.015429567 -1.4064866e-17)
(94.30972 0.015316938 1.3482663e-17)
(94.314491 0.015208594 0)
(94.319088 0.015109667 0)
(94.322932 0.01501335 -2.3598764e-17)
(94.325697 0.014906055 1.1263004e-17)
(94.327391 0.014773007 0)
(94.328273 0.014602304 0)
(94.328685 0.01438618 1.9481215e-17)
(94.328907 0.014119584 -3.7057443e-17)
(94.329107 0.013797729 8.8045686e-18)
(94.32936 0.013414252 -1.6723211e-17)
(94.32968 0.012960662 3.174281e-17)
(94.330057 0.012426811 -1.5054033e-17)
(94.330459 0.011801754 1.4271177e-17)
(94.330847 0.011074762 -1.3522812e-17)
(94.331179 0.01023739 1.2808691e-17)
(94.331428 0.0092864974 -1.6580833e-25)
(94.331594 0.0082279174 -1.1481679e-17)
(94.331716 0.0070803864 0)
(94.331854 0.0058782331 2.0571857e-17)
(94.332075 0.0046687268 1.9471125e-17)
(94.332411 0.0035031256 0)
(94.332852 0.0024206064 8.7258385e-18)
(94.333385 0.0014167493 2.4794387e-17)
(94.334083 0.00050258695 1.5663587e-17)
(94.33509 -0.00048394968 0)
(94.336539 -0.0013815421 0)
(94.337961 -0.0028972336 0)
(94.338844 -0.0037050402 -3.1816723e-18)
(92.376689 0.016602483 2.5805679e-18)
(92.698646 0.010710621 -2.5117779e-18)
(93.171687 0.0091976758 -9.7670726e-18)
(93.593119 0.0094672553 -1.2249573e-23)
(93.893367 0.01087754 1.8389872e-17)
(94.081619 0.012395938 -1.7810503e-17)
(94.190183 0.013648362 2.5843926e-17)
(94.248746 0.014498453 -1.664791e-17)
(94.278384 0.014984008 -8.0338561e-18)
(94.292624 0.015220055 -1.5489909e-17)
(94.29966 0.015268538 3.7288989e-17)
(94.304105 0.015223272 -1.4345925e-17)
(94.308214 0.015134169 0)
(94.312711 0.015040844 0)
(94.317428 0.014961133 -1.2676552e-17)
(94.321827 0.014898272 0)
(94.325395 0.014844196 -3.4825125e-17)
(94.327888 0.014784758 1.1091021e-17)
(94.329379 0.014704957 2.1172182e-17)
(94.330143 0.014592461 0)
(94.330506 0.014438254 1.9233751e-17)
(94.330718 0.014234937 -9.1539834e-18)
(94.330919 0.0139745 -8.7062945e-18)
(94.331168 0.01364707 -6.8650262e-24)
(94.331473 0.01324088 -1.3177443e-23)
(94.331819 0.012742971 1.4916467e-17)
(94.332175 0.012140244 -1.4149271e-17)
(94.332502 0.01142083 1.3414789e-17)
(94.332762 0.01057624 1.2712931e-17)
(94.332936 0.0096045399 4.9564637e-24)
(94.333029 0.0085139963 2.3129202e-24)
(94.333084 0.0073264992 -1.0800402e-17)
(94.333161 0.0060797104 -2.0451443e-17)
(94.333319 0.0048239769 9.6814538e-18)
(94.333583 0.0036130101 -9.166919e-18)
(94.333938 0.0024864931 0)
(94.334373 0.0014423542 -3.2895877e-17)
(94.334963 0.0004749611 -1.5587972e-17)
(94.335866 -0.00055447836 0)
(94.337205 -0.0015105891 0)
(94.338509 -0.0029940245 -6.6604319e-18)
(94.339269 -0.0039021331 -1.8996535e-17)
(94.338743 -0.0063448975 0)
(94.337984 -0.0057192974 -2.873017e-18)
(92.420406 0.01655868 2.4981812e-18)
(92.743126 0.01059677 -7.3019759e-18)
(93.210689 0.009152532 4.7370534e-18)
(93.622657 0.0094158769 -9.2076001e-18)
(93.913522 0.010782352 -8.9375571e-18)
(94.094564 0.012233956 2.5995135e-17)
(94.198306 0.01341465 -1.6782237e-17)
(94.253938 0.014206091 1.6233074e-17)
(94.281974 0.014644599 -7.84192e-18)
(94.295497 0.014842021 -1.5135693e-17)
(94.302348 0.014865117 1.4589658e-17)
(94.306868 0.014807345 1.4046862e-17)
(94.311103 0.014717037 -2.0262669e-17)
(94.315639 0.014632014 0)
(94.320251 0.014569086 1.2449461e-17)
(94.324418 0.014530739 1.1931211e-17)
(94.327698 0.014508734 -1.142198e-17)
(94.329927 0.014489418 1.0922846e-17)
(94.331227 0.014458504 0)
(94.331888 0.014403833 -9.9586121e-18)
(94.332212 0.014315461 0)
(94.33242 0.014183826 0)
(94.33263 0.013997762 0)
(94.332885 0.013743706 8.187909e-18)
(94.333185 0.013406115 -1.5562819e-17)
(94.333512 0.012968495 -1.0231689e-23)
(94.333832 0.012414703 -2.8056676e-17)
(94.334108 0.011730691 2.6615009e-17)
(94.334306 0.010906815 -9.7042166e-24)
(94.334411 0.0099410256 -1.1958957e-17)
(94.334438 0.0088425234 1.1330938e-17)
(94.334432 0.0076349689 -1.073333e-17)
(94.334456 0.0063581493 -1.0165709e-17)
(94.334564 0.005064933 0)
(94.334772 0.0038120386 -2.7354499e-17)
(94.33506 0.0026414551 -8.6369804e-18)
(94.335409 0.0015526927 8.1832965e-18)
(94.335885 0.00052132614 -3.1025246e-17)
(94.336639 -0.00058704233 7.3553621e-18)
(94.337798 -0.00166377 6.9796628e-18)
(94.338967 -0.003159211 -3.3142572e-17)
(94.33968 -0.0041101997 1.3787387e-23)
(94.339264 -0.0063511773 2.0990103e-17)
(94.338683 -0.0057019367 4.1274242e-24)
(94.33901 -0.0096605757 5.456553e-18)
(94.341898 -0.0054771149 -3.914433e-18)
(92.462277 0.016222817 -1.2102319e-17)
(92.785808 0.010225032 2.3604684e-18)
(93.24802 0.0088972514 0)
(93.650828 0.0091668776 0)
(93.932706 0.010487523 0)
(94.106893 0.011892924 -7.4252769e-24)
(94.206079 0.013014534 -8.1775498e-18)
(94.258966 0.013754381 -1.5835847e-17)
(94.285527 0.014157248 1.5315462e-17)
(94.298406 0.014318403 -1.4795004e-17)
(94.3051 0.014320878 -2.4637764e-24)
(94.309687 0.014248373 1.3757956e-17)
(94.314012 0.014150367 -6.6217602e-18)
(94.31854 0.014064177 -1.2733401e-17)
(94.323004 0.014006296 5.6869175e-24)
(94.326913 0.013979312 1.1730505e-17)
(94.329896 0.013975983 2.2480097e-17)
(94.331862 0.013984399 -2.1516744e-17)
(94.332978 0.013992143 -2.0572921e-17)
(94.333537 0.013988217 3.930104e-17)
(94.333823 0.013962533 0)
(94.334027 0.013903996 -1.7876334e-17)
(94.334246 0.013798798 5.1082011e-17)
(94.33451 0.013629979 -3.2410489e-17)
(94.334813 0.013378162 0)
(94.335129 0.013022857 0)
(94.335424 0.012544153 -1.3908355e-17)
(94.33566 0.011924808 -1.320095e-17)
(94.335807 0.011152793 -1.2523107e-17)
(94.335854 0.010224609 1.1874835e-17)
(94.335823 0.0091490666 0)
(94.335765 0.0079503257 2.1333054e-17)
(94.335744 0.0066688294 -2.0211798e-17)
(94.335812 0.0053578699 -9.573755e-18)
(94.335977 0.0040742896 4.5347881e-17)
(94.33621 0.0028595139 1.7185563e-17)
(94.33648 0.0017132205 0)
(94.336835 0.00059972916 3.0875228e-17)
(94.337415 -0.00060489675 2.1960877e-17)
(94.338369 -0.0018062921 6.9465184e-18)
(94.339424 -0.0032956643 2.6387235e-17)
(94.340166 -0.0042180939 2.8217323e-17)
(94.3399 -0.0062373537 -2.983518e-17)
(94.339407 -0.005657659 4.8329415e-17)
(94.33956 -0.0097063282 2.7132214e-18)
(94.34201 -0.0058216508 3.8913563e-17)
(94.348218 -0.012518894 -1.2429423e-18)
(94.371781 -0.0044321546 3.8806781e-17)
(92.502196 0.015617927 7.0411336e-18)
(92.82653 0.0096223308 2.2908668e-18)
(93.283555 0.0084172488 0)
(93.677541 0.0087184377 -8.6984562e-18)
(93.950836 0.010036087 8.4595172e-18)
(94.118524 0.011399847 -1.6434973e-17)
(94.213424 0.012477418 -1.5946588e-17)
(94.263758 0.013174973 7.7275596e-18)
(94.288979 0.013545494 -1.4961619e-17)
(94.301298 0.013676775 1.4467059e-17)
(94.307878 0.013659399 -1.3972416e-17)
(94.312536 0.013568259 2.695737e-17)
(94.316932 0.013456242 1.0405507e-23)
(94.32142 0.013358844 -4.9993231e-17)
(94.325708 0.013292595 2.4027827e-17)
(94.329342 0.013260983 1.1534896e-17)
(94.332024 0.013258732 1.1062394e-17)
(94.333733 0.013276747 -2.1194929e-17)
(94.334669 0.013305573 1.014112e-17)
(94.335127 0.013336486 -9.6943215e-18)
(94.335368 0.013360404 9.257906e-18)
(94.335561 0.013365853 0)
(94.335784 0.013337442 -1.6838548e-17)
(94.336055 0.013255636 1.6036659e-17)
(94.33636 0.013097695 0)
(94.336671 0.012839211 -1.2414669e-24)
(94.336949 0.01245611 -5.4817291e-25)
(94.337156 0.011927124 1.3095134e-17)
(94.337263 0.011236808 -1.242902e-17)
(94.337265 0.010379119 1.0534986e-24)
(94.337188 0.0093612456 3.0941528e-24)
(94.337087 0.0082063023 2.9602685e-24)
(94.337028 0.0069531529 3.01389e-17)
(94.337059 0.0056517933 0)
(94.337186 0.0043536714 -1.804228e-17)
(94.337366 0.003094709 0)
(94.337562 0.0018758935 8.1023595e-18)
(94.337806 0.0006679098 7.6814608e-18)
(94.338232 -0.00061729534 -3.6426992e-17)
(94.339005 -0.0018818117 6.9135632e-18)
(94.339963 -0.0033233207 0)
(94.340722 -0.0041809723 3.1200133e-18)
(94.340523 -0.0061010069 -2.6717159e-17)
(94.339972 -0.0057496016 3.9432949e-24)
(94.339854 -0.0099232601 -4.5870887e-17)
(94.342053 -0.0062038294 -3.8685545e-17)
(94.348839 -0.012960213 3.9523347e-17)
(94.373168 -0.0043320335 -3.854082e-17)
(94.413648 -0.018003257 5.7094752e-19)
(92.540077 0.014947562 -2.2775611e-18)
(92.865159 0.0089700157 2.2248816e-18)
(93.317114 0.0078683519 -1.7366926e-17)
(93.702631 0.0082583353 1.6924732e-17)
(93.967785 0.0095567478 -8.2371361e-18)
(94.129357 0.010892769 8.0086792e-18)
(94.220254 0.011928239 -1.5555466e-17)
(94.268237 0.012583173 2.263477e-17)
(94.292255 0.012916512 -1.4621451e-17)
(94.304104 0.013015998 1.4151149e-17)
(94.310618 0.012971598 0)
(94.315363 0.012854881 -1.3208562e-17)
(94.319822 0.012718987 1.2738244e-17)
(94.324256 0.012597065 1.2270016e-17)
(94.328356 0.012505745 -1.1804944e-17)
(94.331714 0.012449552 -1.1344209e-17)
(94.334106 0.012425685 2.1777723e-17)
(94.335568 0.012428548 -2.0879997e-17)
(94.336332 0.012452498 9.9986389e-18)
(94.336689 0.012492174 0)
(94.33688 0.012540832 -9.1421532e-18)
(94.337052 0.012588131 -1.745741e-17)
(94.337268 0.012618652 4.2764311e-24)
(94.337537 0.01261171 -4.6846545e-24)
(94.337841 0.012542324 -1.3371327e-23)
(94.338145 0.012382845 -2.864676e-24)
(94.33841 0.012105131 3.6906657e-25)
(94.338596 0.011683445 1.2990031e-17)
(94.338675 0.011098075 -2.4670971e-17)
(94.338645 0.010339333 1.1338897e-23)
(94.338535 0.0094113542 1.1107253e-17)
(94.3384 0.008334286 4.2134618e-17)
(94.338307 0.0071428585 -2.9960715e-17)
(94.3383 0.0058802841 2.8400238e-17)
(94.33838 0.0045883629 -6.2928689e-24)
(94.338507 0.0032948013 -9.8600139e-24)
(94.33864 0.0020054536 -3.2248466e-17)
(94.33881 0.00071448549 -2.2932783e-17)
(94.33914 -0.00061185378 0)
(94.33978 -0.0018647117 2.7523182e-17)
(94.340608 -0.0032357903 -6.5340213e-18)
(94.341244 -0.0040941239 6.2097837e-18)
(94.340969 -0.0060905327 7.0890461e-17)
(94.340317 -0.0060405648 -4.5014213e-17)
(94.340082 -0.010218999 0)
(94.342287 -0.0064419684 4.1024496e-17)
(94.349665 -0.013175405 -7.8552156e-17)
(94.37445 -0.0040920558 3.7690131e-17)
(94.413247 -0.017512101 0)
(92.57597 0.014467409 -2.2117132e-18)
(92.901609 0.0084737093 -2.1622397e-18)
(93.34858 0.0075359865 1.2668558e-17)
(93.72601 0.0079520825 0)
(93.983493 0.0092558253 8.0248771e-18)
(94.139346 0.010555076 7.8089155e-18)
(94.226532 0.011535359 -7.5903017e-18)
(94.272363 0.012136809 7.3695417e-18)
(94.295312 0.012420749 0)
(94.306774 0.012477283 1.3846615e-17)
(94.313268 0.012393482 -1.339729e-17)
(94.318117 0.0122395 0)
(94.32264 0.012065629 0)
(94.327016 0.011903006 1.2048178e-17)
(94.330931 0.011767487 1.8562098e-23)
(94.334028 0.011664099 0)
(94.33615 0.011592301 -1.0719312e-17)
(94.337387 0.011550191 0)
(94.337994 0.011536463 0)
(94.338254 0.011549936 -1.8878831e-17)
(94.338391 0.011587442 1.2063683e-23)
(94.338533 0.011641425 9.6776286e-24)
(94.338731 0.011698363 0)
(94.338987 0.011738419 3.1410731e-17)
(94.339279 0.011736174 0)
(94.33957 0.011662117 -1.4247304e-17)
(94.339818 0.011484817 1.3554077e-17)
(94.339984 0.011174113 -2.5771282e-17)
(94.340042 0.0107053 2.4485017e-17)
(94.339991 0.010063654 4.6500037e-17)
(94.33986 0.0092483841 1.1033339e-17)
(94.339702 0.008274604 -3.140283e-17)
(94.339578 0.0071712566 -9.9277145e-18)
(94.339528 0.0059740569 -9.4135188e-18)
(94.339553 0.0047156272 1.7849466e-17)
(94.339622 0.0034169772 0)
(94.33971 0.0020903715 0)
(94.339853 0.00075505658 3.8036182e-17)
(94.340157 -0.00057708465 -7.2161532e-18)
(94.340702 -0.0017990854 -2.739294e-17)
(94.341318 -0.0031329195 -6.5029579e-18)
(94.341652 -0.0040996564 -2.1629256e-17)
(94.3412 -0.0062343773 -4.408652e-17)
(94.34061 -0.0064010415 -2.7988615e-18)
(94.340566 -0.010393803 2.6689625e-18)
(94.342935 -0.006415248 -1.2481373e-22)
(94.350688 -0.013242004 3.9032435e-17)
(94.375307 -0.0038919802 0)
(94.412552 -0.015236167 0)
(92.610066 0.014381778 0)
(92.93587 0.0083415437 -8.4106935e-18)
(93.377952 0.0075378029 -8.219246e-18)
(93.74771 0.0079911662 1.8645369e-23)
(93.998 0.0092925994 -9.3722362e-24)
(94.148532 0.010529701 7.61768e-18)
(94.232288 0.011440781 -2.2231594e-17)
(94.276154 0.011972202 -7.2010092e-18)
(94.298152 0.012192094 0)
(94.309296 0.012189834 -1.3552819e-17)
(94.315803 0.012053495 1.3124188e-17)
(94.320767 0.011849132 -2.5387884e-17)
(94.325354 0.01162351 0)
(94.329674 0.011404956 -2.4621007e-23)
(94.333417 0.011207268 -1.1403438e-17)
(94.336276 0.01103545 -7.8408472e-24)
(94.33816 0.010890717 2.1107164e-17)
(94.339203 0.010774167 -2.026991e-17)
(94.339675 0.010688468 1.9443766e-17)
(94.339851 0.01063692 0)
(94.339936 0.010620887 0)
(94.340043 0.010637128 3.4101199e-17)
(94.340214 0.010676047 0)
(94.340445 0.010720999 -2.8812364e-24)
(94.340712 0.010748532 1.4818973e-17)
(94.340977 0.010729436 -1.4117086e-17)
(94.341198 0.010630629 -1.3437841e-17)
(94.341337 0.010418289 1.2781975e-17)
(94.341371 0.010062321 0)
(94.341302 0.0095414463 -3.4627745e-17)
(94.341157 0.0088478583 1.0959761e-17)
(94.340985 0.007989888 -1.040182e-17)
(94.340837 0.0069904849 2.9606213e-17)
(94.340745 0.0058804816 9.3604501e-18)
(94.340712 0.004688365 -8.8767871e-18)
(94.340721 0.0034324281 -1.6834895e-17)
(94.340773 0.0021265693 0)
(94.340919 0.00079575772 0)
(94.341233 -0.00053598392 7.1817881e-18)
(94.341698 -0.0017810288 -2.7263515e-17)
(94.34205 -0.0031537353 1.941638e-17)
(94.342003 -0.004259333 2.4600175e-17)
(94.341381 -0.0063856184 4.6793185e-17)
(94.3411 -0.0065442334 4.4551749e-17)
(94.341529 -0.010172094 -2.6545565e-18)
(94.343965 -0.0061865292 2.5344651e-18)
(94.35177 -0.013475526 -3.8792258e-17)
(94.375484 -0.0040262212 -7.4954966e-17)
(94.412007 -0.013310078 5.5842256e-19)
(92.642592 0.014784974 0)
(92.968072 0.0087328786 -2.0459754e-17)
(93.405347 0.0079489223 1.2005052e-17)
(93.767847 0.0085053931 1.5635547e-17)
(94.011421 0.0097363064 -1.5255771e-17)
(94.157017 0.010901357 0)
(94.237606 0.011724625 1.4475835e-17)
(94.279672 0.01216749 4.574699e-23)
(94.300815 0.012306522 -1.3675341e-17)
(94.311691 0.012232323 1.326917e-17)
(94.318229 0.012031159 1.2860036e-17)
(94.323307 0.011765875 3.370197e-23)
(94.327952 0.011478988 0)
(94.332217 0.011194587 1.1622886e-17)
(94.335802 0.01092349 -1.1210422e-17)
(94.338454 0.01066927 -3.2398969e-17)
(94.340137 0.010433508 -1.0391546e-17)
(94.341024 0.010219479 1.9974306e-17)
(94.34139 0.010033154 -2.8762336e-17)
(94.341502 0.0098818317 1.838677e-17)
(94.341546 0.0097714865 -1.7611756e-17)
(94.34162 0.0097040573 3.3703095e-17)
(94.341758 0.0096754438 -3.2215436e-17)
(94.341955 0.0096744418 -1.5381678e-17)
(94.342183 0.0096823203 -1.4674745e-17)
(94.342406 0.009673026 1.3988034e-17)
(94.342583 0.0096143872 0)
(94.34268 0.0094707365 -2.352424e-24)
(94.342679 0.0092071446 -1.2058196e-17)
(94.342584 0.0087949473 -1.146057e-17)
(94.342425 0.0082176935 -3.26596e-17)
(94.342243 0.0074756574 -2.0672587e-17)
(94.342079 0.0065862668 -9.8099916e-18)
(94.341955 0.0055787427 -1.8615183e-17)
(94.34187 0.0044831554 -2.6486989e-17)
(94.34182 0.0033184202 1.6748041e-17)
(94.34183 0.002090463 3.9711814e-17)
(94.341969 0.0008015761 -7.5337081e-18)
(94.342284 -0.0005483318 -7.14763e-18)
(94.342677 -0.001892063 3.3918628e-17)
(94.342815 -0.0033581663 3.2290919e-23)
(94.342487 -0.0045152291 1.8361687e-17)
(94.341822 -0.0063710888 -4.074271e-17)
(94.341928 -0.0062757597 -4.4324484e-17)
(94.34287 -0.0096860933 0)
(94.345156 -0.00595352 -4.0323272e-17)
(94.352793 -0.013913927 3.8555884e-17)
(94.375455 -0.0044450878 1.4776642e-16)
(94.412317 -0.015491421 0)
(92.673755 0.015754092 -2.0332869e-18)
(92.998449 0.0096149218 2.5895353e-17)
(93.430996 0.008976508 0)
(93.786635 0.0094679132 0)
(94.023948 0.010628586 -1.4883969e-17)
(94.164962 0.011698837 -1.4517165e-17)
(94.242616 0.012407617 1.4144115e-17)
(94.283019 0.012741175 3.1592391e-23)
(94.303378 0.012780089 2.6765086e-17)
(94.314012 0.012622043 -2.5990422e-17)
(94.32058 0.012345058 1.26044e-17)
(94.325756 0.01201126 -1.2210793e-17)
(94.330444 0.011657757 2.3630747e-17)
(94.334649 0.011303775 -1.1418893e-17)
(94.33809 0.010956059 1.102237e-17)
(94.340564 0.010615378 1.062677e-17)
(94.342085 0.01028221 3.0699297e-17)
(94.342854 0.0099603092 -2.9527055e-17)
(94.34315 0.0096573402 -9.4555291e-18)
(94.343223 0.0093833581 1.814706e-17)
(94.343242 0.0091482186 -1.7394593e-17)
(94.343292 0.0089589868 -2.8990531e-24)
(94.3434 0.0088178362 -1.2400199e-24)
(94.343557 0.0087204709 -1.0666612e-23)
(94.343738 0.0086550779 -1.4531991e-17)
(94.343904 0.0086017829 -1.3860124e-17)
(94.344018 0.0085327228 2.6416188e-17)
(94.344053 0.008413442 2.5153509e-17)
(94.343995 0.0082063444 1.1966857e-17)
(94.343857 0.0078763426 -2.2757991e-17)
(94.34367 0.0073979732 1.0813624e-17)
(94.343474 0.0067623265 4.1084179e-17)
(94.343299 0.0059807121 -9.7514514e-18)
(94.343156 0.005081515 9.2549132e-18)
(94.343034 0.0040984938 3.5125564e-17)
(94.342929 0.0030516357 -3.3323003e-17)
(94.342881 0.0019323705 -3.9513946e-17)
(94.342973 0.00070445979 7.49721e-18)
(94.343252 -0.00067104571 0)
(94.343602 -0.0021296102 0)
(94.343684 -0.0036564826 -6.4111371e-18)
(94.343316 -0.0047032937 3.0456688e-17)
(94.342737 -0.0061381803 -4.343922e-17)
(94.343051 -0.0057072889 -4.6855673e-17)
(94.344097 -0.0091150597 0)
(94.346138 -0.0059530024 3.7589961e-17)
(94.35363 -0.014519967 3.5927952e-18)
(94.376171 -0.0047742085 -7.4547707e-17)
(94.413429 -0.021533707 0)
(92.703831 0.01752088 0)
(93.027402 0.010966976 0)
(93.455297 0.010551147 1.520063e-17)
(93.804433 0.010863197 0)
(94.035868 0.011938281 7.2638391e-18)
(94.172594 0.012873177 -7.0897482e-18)
(94.247502 0.01344589 0)
(94.286343 0.013651383 0)
(94.305957 0.013573792 -1.3100009e-17)
(94.31635 0.013314562 1.2730402e-17)
(94.322924 0.012952179 -1.2356886e-17)
(94.328165 0.012542893 2.3960353e-17)
(94.332867 0.012119466 0)
(94.336998 0.011696188 -2.2440714e-17)
(94.3403 0.01127524 -2.3934934e-23)
(94.342618 0.010853661 2.0915782e-17)
(94.34401 0.010429259 1.0078063e-17)
(94.344697 0.010004143 1.9134557e-23)
(94.344956 0.0095854747 1.8652094e-17)
(94.345017 0.0091840232 -5.3734326e-17)
(94.345032 0.0088117397 1.7180781e-17)
(94.345072 0.0084794771 0)
(94.345159 0.0081950869 8.7469277e-24)
(94.34528 0.0079616401 1.5065333e-17)
(94.345408 0.007775659 9.2684136e-25)
(94.345508 0.0076257036 -1.3733355e-17)
(94.345545 0.0074914283 6.8614476e-24)
(94.345497 0.0073435306 -5.1402395e-24)
(94.34536 0.0071457823 -1.1876078e-17)
(94.345154 0.0068599075 1.1297858e-17)
(94.344916 0.0064529701 1.0741056e-17)
(94.344688 0.0059062288 -1.2541104e-23)
(94.344496 0.0052222951 0)
(94.344339 0.0044253781 0)
(94.344192 0.0035499114 -4.3669835e-17)
(94.344044 0.0026157843 4.972602e-17)
(94.343929 0.0016032181 3.1453533e-17)
(94.343943 0.0004477159 -7.4609003e-18)
(94.344159 -0.00091278423 -7.0799089e-18)
(94.344507 -0.0023974555 6.7200808e-18)
(94.344705 -0.0038622175 -1.9275776e-23)
(94.344527 -0.0046889938 -8.6059011e-23)
(94.34406 -0.0057300351 4.6109925e-17)
(94.344215 -0.0051653368 4.1135185e-17)
(94.344846 -0.0088207663 5.2248866e-18)
(94.346556 -0.0062950039 -4.485597e-17)
(94.354103 -0.015077739 2.3808824e-18)
(94.377761 -0.0045539026 0)
(94.414227 -0.025558611 0)
(92.733167 0.019650537 0)
(93.055545 0.012814628 0)
(93.478865 0.01242565 -3.7059707e-17)
(93.821742 0.012553898 -1.4509008e-17)
(94.047555 0.013507502 1.4185725e-17)
(94.180191 0.014279927 6.9275875e-18)
(94.252479 0.014701197 -1.3518098e-17)
(94.289823 0.014773238 1.3175227e-17)
(94.308704 0.014571359 1.2827147e-17)
(94.318832 0.014201374 0)
(94.325365 0.013748008 1.2117068e-17)
(94.330619 0.013258562 -1.1756312e-17)
(94.335287 0.012764799 2.2785418e-17)
(94.339315 0.012275668 -4.4108012e-17)
(94.34247 0.011789025 -1.0660099e-17)
(94.344642 0.011298281 2.0585869e-17)
(94.345927 0.010798089 -4.9631916e-17)
(94.346561 0.010287483 2.8684221e-17)
(94.346807 0.0097707709 0)
(94.34688 0.0092567077 -2.1836244e-23)
(94.346911 0.0087567556 1.6970255e-17)
(94.346959 0.0082831872 -6.7438448e-24)
(94.347037 0.007847525 -1.5583697e-17)
(94.34713 0.0074589288 -1.4909811e-17)
(94.347209 0.0071220453 1.4250726e-17)
(94.347241 0.0068348731 -1.3607707e-17)
(94.347195 0.0065868985 0)
(94.347052 0.0063577955 0)
(94.346817 0.0061177003 0)
(94.346518 0.0058301223 0)
(94.3462 0.0054583546 0)
(94.345911 0.0049747717 -2.0282741e-17)
(94.345679 0.0043702573 0)
(94.345495 0.003658673 -1.8300334e-17)
(94.345328 0.0028685509 3.4746937e-17)
(94.34515 0.0020194793 0)
(94.344986 0.0010939015 -3.1296702e-17)
(94.34493 2.9337424e-05 2.2274344e-17)
(94.34509 -0.0012276255 -2.1139046e-17)
(94.345464 -0.0025833513 0)
(94.345839 -0.0038573761 -2.5404699e-17)
(94.345909 -0.0044938188 -4.8269771e-17)
(94.345476 -0.0053957687 -4.5886892e-17)
(94.345167 -0.005127226 -2.7286298e-18)
(94.345045 -0.0090084878 4.4179291e-17)
(94.346389 -0.0069078262 0)
(94.354138 -0.015448282 0)
(94.379422 -0.0040316619 0)
(94.413951 -0.025095338 0)
(92.762002 0.021510546 0)
(93.083471 0.01473081 0)
(93.502329 0.014163175 1.4463125e-17)
(93.839056 0.014176989 1.4164439e-17)
(94.059365 0.014989953 0)
(94.188005 0.015620735 -1.3543119e-17)
(94.257732 0.015911508 1.5425796e-23)
(94.293606 0.015857948 -2.5791415e-17)
(94.311752 0.015548476 2.5127095e-17)
(94.321576 0.015086968 -2.4452706e-17)
(94.328009 0.014550811 -1.1884678e-17)
(94.333209 0.013990346 1.1539054e-17)
(94.337785 0.013435164 -1.1190093e-17)
(94.341666 0.012890532 1.0838711e-17)
(94.34465 0.012352142 2.0971224e-17)
(94.346672 0.011810462 -3.0395155e-17)
(94.347858 0.01125701 3.9111617e-17)
(94.348451 0.010687486 -1.0662855e-23)
(94.348701 0.010102588 -2.9709915e-23)
(94.348801 0.0095073272 -1.7451935e-17)
(94.348862 0.008909873 7.2347062e-24)
(94.348932 0.0083207461 1.6082824e-17)
(94.349015 0.0077519433 -1.5413349e-17)
(94.349092 0.0072157562 0)
(94.349134 0.0067229121 2.8224339e-17)
(94.349106 0.0062800436 1.3483143e-17)
(94.348979 0.005887122 -1.2870128e-17)
(94.34874 0.0055352223 0)
(94.348399 0.005205093 0)
(94.34799 0.0048676892 2.227368e-17)
(94.347566 0.0044881247 -2.1193886e-17)
(94.347182 0.0040332434 -1.0076947e-17)
(94.346871 0.0034818088 3.8308996e-17)
(94.346631 0.0028323398 9.0981188e-18)
(94.346431 0.0021012265 -1.72794e-17)
(94.346237 0.0013080595 0)
(94.346062 0.00045286654 3.8925764e-17)
(94.345988 -0.00049428613 -3.6944364e-17)
(94.34613 -0.0015560609 2.8052079e-17)
(94.346517 -0.002655291 0)
(94.346973 -0.0036919425 0)
(94.347129 -0.0043058367 4.8042535e-17)
(94.346583 -0.0054356485 4.5666498e-17)
(94.345744 -0.0056942463 0)
(94.34491 -0.0096660184 -8.2729884e-17)
(94.346073 -0.007576777 3.9434343e-17)
(94.354014 -0.015485975 1.1764829e-18)
(94.380588 -0.0033546238 -1.6876064e-18)
(94.412748 -0.021530956 5.3904815e-19)
(92.790354 0.02252407 -1.4656609e-17)
(93.111445 0.016092933 0)
(93.525982 0.015351034 -1.4117262e-17)
(93.856586 0.015292789 0)
(94.071423 0.016006966 -1.354181e-17)
(94.196102 0.016549349 0)
(94.263294 0.0167719 2.5874651e-17)
(94.29771 0.016636338 -1.2625832e-17)
(94.315111 0.01626447 -2.0508461e-23)
(94.324601 0.015743616 1.1986389e-17)
(94.330888 0.015150003 0)
(94.335977 0.014541768 1.1327938e-17)
(94.340405 0.013943779 -2.1986017e-17)
(94.344095 0.013362144 2.131039e-17)
(94.346878 0.012791641 -1.0315323e-17)
(94.348734 0.012221606 9.9741497e-18)
(94.349816 0.011641862 1.9265095e-17)
(94.350368 0.011045534 -3.7165576e-17)
(94.350625 0.010429702 -1.7903145e-17)
(94.350757 0.0097947756 1.7227864e-17)
(94.350857 0.009144097 0)
(94.350958 0.0084838558 0)
(94.351058 0.007823122 1.524513e-17)
(94.351133 0.0071735877 0)
(94.351151 0.0065483073 0)
(94.351077 0.0059594588 -2.6719335e-17)
(94.350884 0.0054158396 -2.5518378e-17)
(94.350561 0.0049200697 1.2174635e-17)
(94.35012 0.0044657764 1.160694e-17)
(94.349598 0.0040360058 -3.3170903e-17)
(94.349053 0.003603874 -6.3885793e-24)
(94.348544 0.0031369916 3.0038439e-17)
(94.348115 0.0026060926 -2.8558991e-17)
(94.347777 0.0019943657 0)
(94.347515 0.0013040058 0)
(94.347306 0.00055339974 -3.2638168e-17)
(94.347159 -0.00023400354 -3.0985348e-17)
(94.347132 -0.0010446822 -2.9412662e-17)
(94.347298 -0.0018721281 -2.7919583e-17)
(94.34765 -0.0026937165 0)
(94.347994 -0.0035682594 0)
(94.347956 -0.0043733871 -1.0161282e-16)
(94.347153 -0.0059830464 8.5216331e-18)
(94.345996 -0.0067507144 -4.5929649e-17)
(94.344919 -0.01056506 -2.2111247e-22)
(94.346298 -0.0079742026 -3.6769264e-17)
(94.354312 -0.015117613 -2.3393668e-18)
(94.381099 -0.0027280901 0)
(94.411211 -0.016194389 0)
(92.818078 0.022827665 3.0382249e-17)
(93.139371 0.016564227 1.7557724e-18)
(93.54972 0.015844669 3.4464513e-18)
(93.87421 0.015730481 6.7579445e-18)