/*--------------------------------*- C++ -*----------------------------------*\
| =========                 |                                                 |
| \\      /  F ield         | OpenFOAM: The Open Source CFD Toolbox           |
|  \\    /   O peration     | Version:  2506                                  |
|   \\  /    A nd           | Website:  www.openfoam.com                      |
|    \\/     M anipulation  |                                                 |
\*---------------------------------------------------------------------------*/
FoamFile
{
    version     2.0;
    format      ascii;
    arch        "LSB;label=32;scalar=64";
    class       surfaceScalarField;
    location    "2";
    object      phi;
}
// * * * * * * * * * * * * * * * * * * * * * * * * * * * * * * * * * * * * * //

dimensions      [1 0 -1 0 0 0 0];

oriented        oriented;

internalField   nonuniform List<scalar> 
2654
(
0.53866107
10.439541
0.53077117
11.272567
0.5215965
-12.163101
12.172186
0.51153331
-13.131292
13.141233
0.49982587
-14.175489
14.187142
0.48659863
-15.306139
15.319621
0.47215924
-16.527046
16.54169
0.45591724
-17.843535
17.859748
0.43775958
-19.266301
19.284349
0.41766575
-20.804885
20.824956
0.39589371
-22.46757
22.489186
0.37246645
-24.260326
24.283549
0.34720928
-26.197316
26.222522
0.31940872
-28.291183
28.319028
0.28963603
-30.549714
30.579439
0.25671844
-32.994772
33.027627
0.22187688
-35.62806
35.662961
0.18356863
-38.482791
38.521194
0.14316241
-41.553084
41.593433
0.098049828
-44.878887
44.923907
0.049838453
-48.466587
48.514511
-52.373974
52.42502
0.44384824
0.43560007
-13.123058
0.42607519
-14.166012
0.41471787
-15.294575
0.40249663
-16.514641
0.38900547
-17.830069
0.37360343
-19.250984
0.35654105
-20.787838
0.33783192
-22.449008
0.31790367
-24.24057
0.29630327
-26.175751
0.27271315
-28.267549
0.24719885
-30.524237
0.21914665
-32.966752
0.18953342
-35.59838
0.15657014
-38.449737
0.12194179
-41.518524
0.083501342
-44.840526
0.042211767
-48.42555
-52.330263
0.38641861
0.37825529
-14.157923
0.36850631
-15.284709
0.3577227
-16.503705
0.34594431
-17.818318
0.33240216
-19.237495
0.31716283
-20.772608
0.30043075
-22.432422
0.2827645
-24.223049
0.26358237
-26.156593
0.24269613
-28.246609
0.22007076
-30.501638
0.19490921
-32.941613
0.16851354
-35.571895
0.13927314
-38.420413
0.10821873
-41.487533
0.074085723
-44.806469
0.037264233
-48.388961
-52.291255
0.33965592
0.33070395
0.3208966
-16.493766
0.31049111
-17.807945
0.29855881
-19.225583
0.28491246
-20.758964
0.26980732
-22.417467
0.25391373
-24.207277
0.23653461
-26.139224
0.2177509
-28.22776
0.19775197
-30.481668
0.17507019
-32.918928
0.15126495
-35.547972
0.12508241
-38.394167
0.096948828
-41.459462
0.066317482
-44.775936
0.033193858
-48.356074
-52.256038
0.28992774
0.28055968
-17.798612
0.27010143
-19.215121
0.25782753
-20.746681
0.24406262
-22.403855
0.2296603
-24.192981
0.2139543
-26.123526
0.19700813
-28.21076
0.17881104
-30.463496
0.15833123
-32.89842
0.13686388
-35.526397
0.1131751
-38.370428
0.087530077
-41.433882
0.059744136
-44.748287
0.029788264
-48.326337
-52.223933
0.25478147
0.24555192
-19.205874
0.23457399
-20.735683
0.22195291
-22.391381
0.20870989
-24.179847
0.19447767
-26.109303
0.17908015
-28.195321
0.16257981
-30.447009
0.14407366
-32.879904
0.12444018
-35.506711
0.10280877
-38.348729
0.079369036
-41.410515
0.054056762
-44.723146
0.026823693
-48.299343
-52.194599
0.22361272
0.21394269
-20.725988
0.20240732
-22.379985
0.19024016
-24.167808
0.17721304
-26.096279
0.16310516
-28.181187
0.14818556
-30.432103
0.13140404
-32.863176
0.11341627
-35.488698
0.093667452
-38.328894
0.072153063
-41.389132
0.049082043
-44.700256
0.024213667
-48.27474
-52.167728
0.19506366
-20.717482
0.18464224
-22.369698
0.17324473
-24.156556
0.16147306
-26.08451
0.1486536
-28.168348
0.13490656
-30.418379
0.11972956
-32.848088
0.10330931
-35.472226
0.085319729
-38.310855
0.06554137
-41.369531
0.044451008
-44.679332
0.021828999
-48.252398
-52.143205
0.17498612
0.16593163
-22.360777
0.15555947
-24.146346
0.14492835
-26.073886
0.13343616
-28.156821
0.12104418
-30.406
0.10754799
-32.834694
0.092769154
-35.457351
0.076504206
-38.294584
0.058729256
-41.351884
0.039624988
-44.660379
0.019336313
-48.232391
-52.121188
0.15075721
0.14124736
-24.137013
0.13146644
-26.064112
0.1210503
-28.146366
0.10971784
-30.394655
0.097592888
-32.822684
0.084218699
-35.443867
0.069336117
-38.279715
0.053098823
-41.3357
0.03576811
-44.64318
0.017258164
-48.214147
-52.101221
0.12771355
0.11875617
-26.055167
0.10936462
-28.136959
0.099039154
-30.384304
0.088024582
-32.811648
0.075975338
-35.431745
0.062573195
-38.266299
0.047559372
-41.320744
0.032006569
-44.627705
0.015235048
-48.197542
-52.083295
0.10642741
0.09793117
-28.128491
0.088674307
-30.375051
0.078558118
-32.801496
0.06790049
-35.421039
0.055962372
-38.254302
0.042325107
-41.307182
0.028321177
-44.613713
0.013185684
-48.182471
-52.067299
0.085537753
0.077224759
-30.366773
0.068448592
-32.792801
0.059243115
-35.411783
0.04877541
-38.243766
0.036803292
-41.295304
0.024345111
-44.601197
0.010705579
-48.168706
-52.053288
0.067850642
0.060076576
-32.785092
0.051580945
-35.403238
0.042697447
-38.234849
0.032453575
-41.285107
0.021012306
-44.589624
0.0084445537
-48.155732
-52.041089
0.051396639
0.044157101
-35.395966
0.036361139
-38.227033
0.027281383
-41.275967
0.017671265
-44.57981
0.006269218
-48.143723
-52.030729
0.03672788
0.030278815
-38.220549
0.022578927
-41.268115
0.01429742
-44.571369
0.0041674999
-48.13296
-52.021953
0.023945239
0.017775294
-41.26179
0.011000683
-44.564413
0.0020042478
-48.123126
-52.014496
0.013323721
0.0079573802
-44.558809
4.7786372e-05
-48.114569
-52.008258
0.004952
-0.0016326881
-48.107517
-52.003071
-0.0028958742
1.118331
-0.0041705472
1.1283866
0.0022366891
1.1406947
-0.00031492893
1.150611
-0.016272258
1.1571623
-0.015120632
1.1626244
-0.0042837367
1.1689057
-0.0044741725
1.175693
-0.0033389669
1.1816543
-0.00024380562
1.1869305
-0.0025690585
1.1918801
-0.0037286514
1.1971665
-0.0046027769
1.2026526
-0.007142759
1.2074536
-0.0075973143
1.2113352
-0.0057135473
1.2146685
-0.0049511921
1.2178159
-0.0046599903
1.2209788
-0.00262303
1.2241221
-0.00028566858
1.2272759
-0.00051494375
1.2303644
-0.0012401352
1.2334249
-0.0027223681
-0.0036708856
1.332779
-0.0047148375
1.3338373
0.0012165852
1.3377304
-0.004096092
1.3397354
-0.01840821
1.3383245
-0.013801404
1.3370684
-0.0030394525
1.3368005
-0.0041202302
1.337528
-0.0040638569
1.3382828
-0.0010744046
1.338707
-0.003037763
1.3389198
-0.0039613444
1.339493
-0.0051615015
1.3406591
-0.0082854472
1.3415959
-0.0085135571
1.3420708
-0.0061974162
1.3423614
-0.0052769489
1.3427201
-0.0050380994
1.3433323
-0.0032469773
1.34426
-0.0012309851
1.345575
-0.0018525494
1.3470935
-0.0027813184
1.348736
-0.0043915434
-0.0053288245
1.4801031
-0.012424361
1.4849249
-0.0035039846
1.4897573
-0.0088686809
1.4916202
-0.020430345
1.491113
-0.013430968
1.4898021
-0.0017394357
1.4899527
-0.004211839
1.4905572
-0.0046723084
1.4914513
-0.0020240471
1.4916381
-0.0032424538
1.4909309
-0.0032674609
1.4898288
-0.0040193386
1.4888749
-0.0073043845
1.4878303
-0.0074642196
1.4867117
-0.0051141911
1.4854309
-0.004056142
1.4841487
-0.003788248
1.4831095
-0.0022270105
1.4823901
-0.00053486348
1.482015
-0.0014986466
1.4817727
-0.0025553063
1.4816101
-0.004250084
-0.0052100242
1.6043383
-0.019715766
1.6140507
-0.013122329
1.6192045
-0.01392124
1.6207293
-0.022147812
1.6220891
-0.014939428
1.6215606
-0.0012582741
1.6235997
-0.0062249119
1.624672
-0.0057365474
1.6268147
-0.0041943392
1.6284182
-0.0048441102
1.6286038
-0.0034711045
1.6281297
-0.0035210254
1.6275602
-0.0067140122
1.6268539
-0.0067567522
1.6261643
-0.00447225
1.6253802
-0.0033395781
1.6244985
-0.0029414312
1.6236923
-0.0014355423
1.6229869
0.00015357573
1.62238
-0.00090717734
1.6216964
-0.0018854887
1.6208995
-0.0034733661
-0.0043596227
1.7385823
-0.029100685
1.7465578
-0.021122164
1.749949
-0.017175337
1.7515885
-0.023955773
1.7531976
-0.016659132
1.7553843
-0.0034664037
1.7576172
-0.0084916833
1.7591087
-0.007254496
1.7613344
-0.0064286244
1.7632544
-0.0067809181
1.7642798
-0.0045200318
1.7644026
-0.0036114158
1.7642502
-0.0065252561
1.7640324
-0.0065335327
1.7639089
-0.0044023714
1.7637487
-0.0032491512
1.763553
-0.002779786
1.7634101
-0.0013028273
1.7632259
0.00032236132
1.7630193
-0.00071445817
1.7626484
-0.0015281418
1.7621026
-0.0029484279
-0.0036967745
1.8817953
-0.0363046
1.8881707
-0.027642496
1.8908896
-0.019795985
1.892703
-0.025880069
1.8944306
-0.018462469
1.8974507
-0.0065369173
1.9003758
-0.011484369
1.901751
-0.0086780854
1.9034096
-0.0080769693
1.905258
-0.0086512364
1.9067223
-0.0060113863
1.907293
-0.0041500414
1.9075118
-0.0066761643
1.9074886
-0.0065105489
1.9075669
-0.004543956
1.9078327
-0.0035871604
1.9080737
-0.0030569706
1.9083695
-0.001608679
1.9085574
0.00011556017
1.9086546
-0.00082468109
1.908542
-0.0014284576
1.9083292
-0.0027582221
-0.0033723731
2.0354969
-0.040925403
2.0407073
-0.033182511
2.0432063
-0.022288786
2.0450051
-0.027668779
2.0467517
-0.020233396
2.0503891
-0.010204406
2.0536566
-0.014839104
2.054948
-0.010039097
2.0561696
-0.0092843607
2.0577559
-0.01025791
2.0591764
-0.0074527308
2.0602212
-0.00515753
2.0609216
-0.0072864908
2.0610021
-0.0065979011
2.0612151
-0.004829425
2.0616276
-0.0040747818
2.062064
-0.0035323791
2.0625495
-0.0021060817
2.0629267
-0.00028342309
2.0632539
-0.0011694815
2.0632733
-0.0014606253
2.0632526
-0.0027579745
-0.0032675851
2.2008526
-0.045234973
2.2057267
-0.038460385
2.2080879
-0.024643922
2.2100179
-0.029490166
2.2116776
-0.021877515
2.2154529
-0.014016952
2.2187659
-0.018242953
2.2198071
-0.011159494
2.2207855
-0.010259271
2.2221935
-0.011682351
2.2236611
-0.0089297861
2.2249802
-0.0064414759
2.2260097
-0.0081992038
2.2262545
-0.0068536413
2.226558
-0.0052141721
2.2270162
-0.0046080757
2.22752
-0.0040761013
2.2280811
-0.0026793707
2.2285862
-0.0008176608
2.2290035
-0.0016078714
2.2290965
-0.0015666044
2.2291808
-0.002858656
-0.0032904167
2.3758032
-0.038249958
2.3799907
-0.049767158
2.3837247
-0.042604676
2.3859124
-0.02676384
2.3879038
-0.03129127
2.3895227
-0.023425787
2.393423
-0.01796135
2.396595
-0.021531733
2.3975089
-0.012158138
2.3984114
-0.011177956
2.3997677
-0.013051285
2.4011649
-0.010321291
2.4026949
-0.0079109474
2.4040478
-0.0094366619
2.4044625
-0.007289938
2.4048555
-0.0056941756
2.4053176
-0.0051428604
2.4058294
-0.004620661
2.4064287
-0.0032990124
2.4069918
-0.0014166148
2.407453
-0.0020901736
2.4075945
-0.0017217021
2.4077088
-0.0029867323
-0.0033618828
2.5691977
-0.043023286
2.5739476
-0.05484758
2.5754557
-0.044463872
2.5781457
-0.029319745
2.5804297
-0.033317974
2.5818583
-0.024756715
2.585572
-0.021740331
2.5883471
-0.024450357
2.5892526
-0.013141741
2.5902706
-0.012234327
2.5916396
-0.014433894
2.5928868
-0.01154058
2.5945525
-0.0094830184
2.5961481
-0.010934649
2.5967331
-0.0079110983
2.5972319
-0.0062809536
2.597704
-0.005685324
2.5982274
-0.0051751793
2.5988165
-0.003920217
2.5993998
-0.0020358009
2.5998824
-0.0025942529
2.6000419
-0.001893669
2.6001817
-0.0031386747
-0.003472911
2.776986
-0.04684494
2.7814664
-0.059469427
2.7818729
-0.045156575
2.7857658
-0.033097434
2.788531
-0.035857494
2.7897469
-0.025909598
2.7930578
-0.025132098
2.7951899
-0.026717195
2.796261
-0.014292695
2.7976668
-0.013707161
2.7990791
-0.015863196
2.800099
-0.012501828
2.8017833
-0.011040537
2.8034913
-0.012561661
2.8042225
-0.0086958482
2.8048504
-0.0069968519
2.8053734
-0.006277714
2.8059291
-0.0057682604
2.8064903
-0.004517264
2.8070598
-0.0026371006
2.8075296
-0.0030850021
2.8077053
-0.0020813272
2.8078794
-0.0033239974
3.0054831
-0.053385164
3.0034422
-0.057527681
3.0056612
-0.047500325
3.0103569
-0.037836357
3.0133744
-0.038854457
3.0147056
-0.027302859
3.0174704
-0.027973583
3.0188243
-0.028166554
3.019972
-0.015538996
3.021911
-0.015740241
3.0233348
-0.017303293
3.024121
-0.013191884
3.0257464
-0.012501449
3.0274173
-0.014161916
3.0282121
-0.009572887
3.0289712
-0.0078468678
3.0295839
-0.0069595021
3.0302049
-0.0064343415
3.0307389
-0.0050866418
3.0312663
-0.0031917091
3.0316965
-0.0035352233
3.0318901
-0.0022869064
-0.0035590935
3.2514931
-0.059850051
3.2494555
-0.055678031
3.2497958
-0.047762292
3.2524738
-0.04070193
3.2549619
-0.041544767
3.2571371
-0.029687139
3.2597245
-0.030637591
3.2607315
-0.029221624
3.2618187
-0.016744838
3.2642317
-0.018251669
3.2655798
-0.018661813
3.2662609
-0.013747051
3.2678928
-0.013949802
3.2694183
-0.015626592
3.2701358
-0.010400713
3.270966
-0.0087689003
3.2716768
-0.0077402087
3.272396
-0.0072060967
3.2729226
-0.0056465011
3.2734024
-0.0036922781
3.2737798
-0.0039303294
3.2739918
-0.0025108282
-0.003859446
3.5159122
-0.062936715
3.5159004
-0.055838409
3.5144326
-0.046343468
3.5161057
-0.042494123
3.5170273
-0.042774919
3.5189585
-0.031821786
3.5207752
-0.032445038
3.5217989
-0.030293418
3.5232598
-0.018339853
3.5261469
-0.021209337
3.5273236
-0.019836009
3.5279967
-0.014288037
3.5297351
-0.01550611
3.5309863
-0.01684348
3.53152
-0.011060067
3.532354
-0.009692638
3.5331511
-0.008608007
3.533972
-0.0080854117
3.5345064
-0.0062059171
3.5349466
-0.0041415454
3.5352826
-0.0042817126
3.5355193
-0.0027605958
-0.0042386685
3.7992439
-0.067091205
3.8004108
-0.064327714
3.7988722
-0.054245182
3.7980453
-0.045583249
3.8013758
-0.045885157
3.8013994
-0.043046302
3.8021035
-0.032493726
3.8036151
-0.033910545
3.8042388
-0.031088794
3.8062257
-0.020384021
3.8090711
-0.024012771
3.8100797
-0.020828336
3.8108245
-0.014947669
3.812709
-0.01722247
3.8134461
-0.01760083
3.8139401
-0.01166819
3.8148431
-0.010683341
3.815733
-0.0095695589
3.8165754
-0.0089877404
3.8170794
-0.0067092543
3.8174923
-0.0045471762
3.8178304
-0.0046341687
3.8181151
-0.0030618676
-0.0047031701
4.1097301
-0.065681546
4.1070954
-0.062451429
4.1049092
-0.051727847
4.1062061
-0.046652881
4.1091571
-0.04877676
4.1070097
-0.041104313
4.1081191
-0.033467263
4.1101671
-0.03605558
4.1100477
-0.031220284
4.1120164
-0.022204475
4.1149373
-0.026738153
4.1158369
-0.021741872
4.1167393
-0.015835811
4.11855
-0.018891519
4.1186976
-0.017832825
4.1192245
-0.012276764
4.1202791
-0.011822862
4.121256
-0.010621279
4.1219675
-0.0097515532
4.1224069
-0.0070985836
4.1228093
-0.0049248014
4.1232083
-0.0050515357
4.123565
-0.0034425927
-0.0052397072
4.4449777
-0.065846714
4.4403836
-0.058117784
4.4399023
-0.051235052
4.4403713
-0.04686075
4.4390097
-0.047223796
4.436871
-0.038999884
4.4397083
-0.036276496
4.4420615
-0.038555989
4.4409237
-0.030272951
4.4432811
-0.024193582
4.4454179
-0.028647303
4.4459135
-0.022260323
4.4475475
-0.017467834
4.4493264
-0.020602576
4.4486877
-0.017390834
4.4494534
-0.013028264
4.450512
-0.012963077
4.4514433
-0.011634103
4.4519517
-0.010297329
4.4523995
-0.0074402361
4.4528147
-0.0053031527
4.4533209
-0.005583237
4.4537579
-0.0039106495
-0.0058177173
4.8045721
-0.063760837
4.8018016
-0.054383089
4.800841
-0.050588434
4.7995255
-0.045650915
4.79609
-0.043680122
4.7972365
-0.040062018
4.8001793
-0.039340059
4.799752
-0.038026483
4.7984408
-0.028974873
4.8015204
-0.026985372
4.8029104
-0.029963475
4.8029063
-0.022177663
4.8048921
-0.019343789
4.8064089
-0.022152035
4.8061444
-0.01734027
4.8067137
-0.01359638
4.8075509
-0.013874615
4.8081774
-0.012344955
4.8085238
-0.010648895
4.8090285
-0.0078157635
4.8095457
-0.0057826658
4.81018
-0.0062454275
4.810687
-0.0044479748
-0.0063886508
5.197149
-0.059081492
5.1924665
-0.058883898
5.1914378
-0.052721789
5.188249
-0.047384376
5.1872589
-0.044880422
5.1855829
-0.042048194
5.1870722
-0.041445077
5.1878487
-0.040149206
5.185708
-0.035672773
5.186373
-0.029354268
5.1893842
-0.029885835
5.1888166
-0.029495741
5.1892865
-0.02253092
5.1916313
-0.021530815
5.1925727
-0.023177567
5.1920372
-0.01686347
5.1928958
-0.014568863
5.1935179
-0.014594311
5.1936186
-0.012528438
5.1938517
-0.010809679
5.1942914
-0.0081536315
5.1950991
-0.0065555991
5.1958152
-0.0069919495
5.1963783
-0.005030133
-0.0069208259
5.6180826
-0.054251658
5.6115449
-0.051845504
5.6105824
-0.051554124
5.6074401
-0.044046603
5.6066652
-0.044237805
5.6059872
-0.041419339
5.6063468
-0.041567097
5.606429
-0.040266184
5.6057242
-0.035074127
5.6058305
-0.02904354
5.6085921
-0.032515107
5.6073642
-0.028386958
5.60714
-0.022161814
5.6086013
-0.02291165
5.6086654
-0.023425903
5.608462
-0.016677629
5.6099433
-0.016184979
5.6103351
-0.015064114
5.6101194
-0.012344023
5.610376
-0.010941544
5.6106061
-0.008320788
5.6116668
-0.0075969887
5.6122983
-0.007658668
5.6129396
-0.0056618701
-0.007452799
6.0715258
-0.051173626
6.0649257
-0.045201895
6.0619844
-0.048681334
6.0616777
-0.043567887
6.0599508
-0.042644502
6.0596466
-0.041116778
6.0603426
-0.041803885
6.0593606
-0.039356267
6.0575393
-0.033218448
6.0592335
-0.030605976
6.0582705
-0.031524152
6.0573279
-0.027494056
6.0585039
-0.023332768
6.0588868
-0.023499862
6.0577387
-0.022269844
6.0580377
-0.017111543
6.0591315
-0.017437803
6.0598419
-0.015865104
6.0597158
-0.01215513
6.0600912
-0.011149583
6.0604757
-0.0086618687
6.0617717
-0.008912559
6.0622184
-0.0081379805
6.0628161
-0.0062022871
-0.0079549107
6.5636659
-0.04642343
6.5594482
-0.046904728
6.5568618
-0.042685744
6.552419
-0.044364338
6.552209
-0.043269153
6.5500109
-0.040871252
6.5496608
-0.041025925
6.5493957
-0.041219655
6.5460456
-0.035537624
6.5453052
-0.032325137
6.546948
-0.032264782
6.5446266
-0.029344451
6.5442433
-0.027113982
6.5459417
-0.025160581
6.545161
-0.022936776
6.5440234
-0.02116825
6.5447512
-0.017971428
6.5451827
-0.01803293
6.5453994
-0.01616101
6.5455622
-0.012182335
6.5460621
-0.011456901
6.5465604
-0.0091262581
6.5477427
-0.010162321
6.5480428
-0.0084526518
6.5486522
-0.0067213917
-0.0085129442
7.0925435
-0.040557468
7.0880874
-0.042600812
7.086788
-0.041539504
7.0834048
-0.041302705
7.0804261
-0.039996791
7.0803516
-0.040741383
7.0775337
-0.038421466
7.0741765
-0.038003142
7.0721909
-0.033151689
7.0719167
-0.031779938
7.0711235
-0.031473354
7.0703701
-0.028632945
7.0709196
-0.027485884
7.0701575
-0.024669042
7.0700118
-0.022757678
7.0695081
-0.020943758
7.0695458
-0.018073431
7.0701795
-0.018704088
7.0697667
-0.015736827
7.0702286
-0.012360462
7.0709288
-0.011970195
7.0715014
-0.009715902
7.0723233
-0.011077863
7.0726181
-0.0087261724
7.073328
-0.0073338538
-0.0092106103
7.6643638
-0.036332682
7.6608329
-0.038947574
7.6587909
-0.039393589
7.6545728
-0.037235592
7.6507679
-0.036249497
7.6506873
-0.040445516
7.6471207
-0.035158391
7.6420803
-0.033332362
7.6406722
-0.031617891
7.6406035
-0.031734475
7.6391368
-0.029759991
7.6387876
-0.028046176
7.6382751
-0.026680051
7.6370236
-0.023443892
7.6371544
-0.02311696
7.6363686
-0.020409535
7.636444
-0.018326238
7.637158
-0.019276295
7.6362578
-0.014609186
7.6372042
-0.012978693
7.6378244
-0.012533134
7.6384928
-0.01050235
7.6388108
-0.011436669
7.6391272
-0.0089400063
7.6397655
-0.0078794347
-0.0099783022
8.2838925
-0.033658883
8.2795189
-0.032055669
8.275262
-0.034695258
8.2723371
-0.036181406
8.2692133
-0.033928569
8.2668315
-0.033791495
8.2630596
-0.036248025
8.2608733
-0.032984278
8.2571734
-0.030390733
8.2551911
-0.029444065
8.2543077
-0.030689767
8.2534818
-0.028297747
8.252268
-0.026750153
8.2504625
-0.024966372
8.2501548
-0.023380459
8.2494064
-0.022745459
8.2479034
-0.019367909
8.2497416
-0.020084207
8.248781
-0.018198514
8.2485942
-0.013922654
8.2495964
-0.013716321
8.2500129
-0.013025667
8.2506207
-0.011182557
8.2508631
-0.011576355
8.2512334
-0.0091620649
8.2521656
-0.0087799996
8.9462682
-0.030761839
8.9436936
-0.029327843
8.939576
-0.030567048
8.9356999
-0.031991278
8.9323407
-0.030304115
8.929278
-0.030841688
8.9260523
-0.032720089
8.9238506
-0.030348242
8.921133
-0.028231609
8.9192067
-0.027566735
8.9169592
-0.028312977
8.9167823
-0.027977937
8.9142381
-0.024003164
8.912503
-0.023676729
8.9120521
-0.023505043
8.9108259
-0.021750216
8.9110658
-0.019676467
8.9113871
-0.020152102
8.90958
-0.016118595
8.9106528
-0.014588946
8.9117541
-0.01470441
8.9111621
-0.012467106
8.9119184
-0.011853333
8.9117109
-0.011235336
8.9120509
-0.0093653005
-0.010080013
9.663928
-0.027888796
9.6610038
-0.027406912
9.6583981
-0.026520355
9.6557349
-0.0279696
9.6526381
-0.02887086
9.649123
-0.026663179
9.6462891
-0.028083753
9.6411524
-0.027496467
9.6391332
-0.027823459
9.6373186
-0.026794751
9.6356431
-0.02621903
9.6332144
-0.026115825
9.6308118
-0.026013673
9.6289911
-0.022306255
9.627609
-0.022520577
9.6274189
-0.023153167
9.6262602
-0.020823399
9.6262021
-0.01917125
9.6244336
-0.018081097
9.624513
-0.015930211
9.6256368
-0.015488602
9.6256511
-0.014722428
9.625288
-0.012107922
9.6263193
-0.012772906
9.6257516
-0.010600595
9.6263969
-0.0098820667
-0.010814046
10.435872
-0.024332209
10.432964
-0.024503178
10.429769
-0.023457577
10.426723
-0.025143179
10.422796
-0.025069716
10.419925
-0.023795446
10.417893
-0.02603536
10.41439
-0.023916309
10.410944
-0.023945069
10.409847
-0.025425733
10.407547
-0.024326043
10.404738
-0.023789642
10.402692
-0.024048988
10.402552
-0.022234311
10.40112
-0.021089761
10.400557
-0.022204197
10.3989
-0.018981276
10.397762
-0.017804996
10.396941
-0.017048911
10.39713
-0.015877309
10.397086
-0.015352197
10.396768
-0.014307227
10.39726
-0.01266581
10.397245
-0.012700797
10.397458
-0.010768307
10.397919
-0.01024396
-0.01038886
11.269138
-0.020980533
11.265766
-0.021031741
11.262925
-0.02055621
11.259569
-0.02184975
11.256564
-0.022066647
11.253885
-0.021155502
11.250687
-0.022959371
11.249045
-0.022289504
11.245912
-0.020639921
11.244643
-0.023987568
11.242253
-0.021937361
11.2394
-0.021065535
11.237345
-0.022190693
11.237028
-0.021836366
11.234945
-0.019282665
11.233272
-0.020279696
11.23275
-0.017840643
11.232247
-0.0171069
11.231046
-0.015791706
11.232138
-0.016657085
11.231044
-0.01427783
11.230611
-0.013836281
11.230268
-0.012308729
11.229882
-0.012260787
11.229707
-0.010583381
11.229774
-0.010194885
-0.010152721
12.169159
-0.017904168
12.165741
-0.0174486
12.163115
-0.017799666
12.159687
-0.018444944
12.156117
-0.018577734
12.153983
-0.019159378
12.149688
-0.018911135
12.148207
-0.020986596
12.145889
-0.018495316
12.143065
-0.021265584
12.141481
-0.020272565
12.140127
-0.019679879
12.137783
-0.019871879
12.136809
-0.020490762
12.135594
-0.017977413
12.133659
-0.018018664
12.134319
-0.018011421
12.133486
-0.016215156
12.132717
-0.015057843
12.132391
-0.016258981
12.131431
-0.013264616
12.130682
-0.013135729
12.130343
-0.011896163
12.129702
-0.011568899
12.12959
-0.010353655
12.129403
-0.009848104
-0.0095566144
13.138355
-0.015127008
13.135602
-0.014741876
13.133378
-0.015625264
13.130714
-0.015929361
13.12811
-0.016228733
13.125616
-0.017074179
13.122221
-0.01599465
13.120073
-0.019059295
13.117896
-0.016321927
13.115481
-0.018698372
13.115024
-0.019362961
13.113216
-0.017551426
13.111526
-0.018070404
13.109331
-0.017930214
13.108724
-0.016984991
13.106935
-0.016107934
13.106902
-0.017881904
13.105787
-0.014963632
13.105194
-0.014597005
13.103358
-0.014578777
13.103123
-0.013052744
13.102874
-0.012757827
13.102323
-0.011171111
13.101386
-0.01042677
13.101095
-0.0098428196
13.100444
-0.0091649324
14.184859
-0.012875819
14.183039
-0.012893851
14.18115
-0.013678019
14.179232
-0.013957483
14.17718
-0.01417155
14.174866
-0.014831955
14.173502
-0.014755879
14.169991
-0.015551564
14.169487
-0.015512568
14.166588
-0.015351666
14.164937
-0.017224374
14.163727
-0.015867107
14.162407
-0.01654346
14.160743
-0.016186576
14.160278
-0.016438777
14.15936
-0.0152731
14.157239
-0.015975965
14.156158
-0.013805312
14.155209
-0.013573518
14.154114
-0.013402213
14.153668
-0.012497072
14.152555
-0.011458059
14.151641
-0.0099564868
14.150429
-0.0090414195
14.149944
-0.0093109646
-0.0090169529
15.317867
-0.010887378
15.3162
-0.010975839
15.314181
-0.011425761
15.312256
-0.011816281
15.310111
-0.011816631
15.308198
-0.012728122
15.3063
-0.012709804
15.304224
-0.013341939
15.303164
-0.014306849
15.300932
-0.01302295
15.299745
-0.015917434
15.29796
-0.013982268
15.296731
-0.01530795
15.294634
-0.014142063
15.293663
-0.015466016
15.292231
-0.013849431
15.289888
-0.013476039
15.290057
-0.013734819
15.289139
-0.012417074
15.287935
-0.011950998
15.286873
-0.011300634
15.285801
-0.010356797
15.285057
-0.0091751681
15.284152
-0.0082123132
15.283107
-0.0084245185
-0.008663193
16.540041
-0.0090652651
16.538323
-0.0091028905
16.536669
-0.0096560406
16.534913
-0.0099887691
16.533444
-0.010326952
16.531801
-0.011103805
16.530378
-0.01130149
16.529015
-0.011976887
16.527474
-0.012736872
16.526543
-0.012084719
16.524442
-0.013824208
16.522765
-0.012274072
16.521359
-0.013862355
16.519362
-0.012015607
16.518183
-0.014026434
16.516892
-0.012388052
16.515092
-0.011658435
16.514491
-0.013022104
16.513227
-0.011021245
16.511409
-0.010208118
16.510133
-0.0099829217
16.509718
-0.010010197
16.508469
-0.0081454814
16.507708
-0.0075220037
16.506938
-0.0076277999
17.858298
-0.0076507743
17.857087
-0.0079292899
17.855876
-0.0084784301
17.854721
-0.0088495111
17.853777
-0.0093793319
17.852526
-0.0098496703
17.851448
-0.010226983
17.850357
-0.010895229
17.8486
-0.010958817
17.847779
-0.011202891
17.845411
-0.011392539
17.844892
-0.01165355
17.842814
-0.011711462
17.842079
-0.011250216
17.839873
-0.011707372
17.83889
-0.01126352
17.837704
-0.01052784
17.835123
-0.010589633
17.834772
-0.010738104
17.833507
-0.0088945063
17.832037
-0.008515123
17.830662
-0.0086104323
17.829773
-0.0072630606
17.829173
-0.0069100199
-0.0072414975
19.283375
-0.0067734711
19.282468
-0.0071007212
19.28159
-0.0076390004
19.280763
-0.0080048785
19.279852
-0.008401109
19.278772
-0.0086824419
19.277636
-0.009015275
19.276174
-0.0093718703
19.274765
-0.0094880789
19.273654
-0.010023295
19.272558
-0.010221561
19.271187
-0.010217654
19.269997
-0.010473382
19.269286
-0.010545005
19.268175
-0.010656994
19.266906
-0.010062733
19.265858
-0.0095889371
19.26428
-0.0090927838
19.262608
-0.0091482394
19.261068
-0.0072493017
19.259178
-0.0067159224
19.257397
-0.0068468086
19.256804
-0.0066837181
19.256268
-0.0065572607
-0.0068910232
20.824246
-0.0060955264
20.823518
-0.0064129967
20.82258
-0.0067510411
20.821449
-0.0069249212
20.820347
-0.0073370045
20.819003
-0.0073508218
20.817948
-0.0079332198
20.816547
-0.0079240094
20.815537
-0.0084148277
20.814466
-0.0088899355
20.813157
-0.0088947737
20.812525
-0.0096223202
20.811277
-0.009279379
20.810529
-0.0098289448
20.809291
-0.009491691
20.807421
-0.0083256148
20.806093
-0.0083334834
20.804558
-0.0076306405
20.802139
-0.0068179354
20.801326
-0.0064998154
20.800874
-0.0066092287
20.799918
-0.0061539572
20.799044
-0.0060058645
20.798139
-0.0058685148
22.488402
-0.0054598231
22.487402
-0.0055736911
22.486246
-0.005766627
22.485015
-0.0058694658
22.483749
-0.006239992
22.482499
-0.0062531425
22.481379
-0.0069408173
22.480108
-0.0067522694
22.479226
-0.007616317
22.477859
-0.0076267792
22.476481
-0.007635963
22.475503
-0.0087573898
22.474399
-0.008323679
22.472667
-0.0083048444
22.47112
-0.0080945769
22.469744
-0.0071814496
22.468381
-0.0072940533
22.467453
-0.0070915349
22.466693
-0.0064192384
22.466419
-0.0064105879
22.46603
-0.0063643972
22.465051
-0.0054217882
22.464159
-0.005202025
-0.0055232584
24.282639
-0.0047568062
24.281667
-0.004828944
24.280773
-0.0051148291
24.279892
-0.0052367483
24.278907
-0.0055084401
24.278085
-0.0056854127
24.277295
-0.0064243157
24.276191
-0.0059502649
24.27552
-0.007214453
24.274747
-0.007087776
24.273893
-0.0069979105
24.272641
-0.0076386915
24.271756
-0.007661884
24.270679
-0.0074787617
24.269523
-0.0072110088
24.26888
-0.0067043539
24.268375
-0.0069775373
24.26745
-0.0063679272
24.266379
-0.0055201775
24.265946
-0.0060230844
24.264472
-0.0048858843
24.263068
-0.0040122341
24.262707
-0.0048117614
26.221694
-0.003987303
26.221014
-0.0042008171
26.220263
-0.0043906382
26.219521
-0.0044955291
26.218795
-0.0047698957
26.218086
-0.0049505417
26.217213
-0.0054974221
26.216612
-0.0053004517
26.216099
-0.0066557233
26.215465
-0.0064197432
26.215065
-0.0066011366
26.214424
-0.0070183306
26.213901
-0.0070452057
26.213284
-0.0067609129
26.212255
-0.0061395708
26.211711
-0.0061268627
26.211198
-0.0064651893
26.209708
-0.0049492268
26.208497
-0.0044447671
26.207506
-0.0051789901
26.205761
-0.0033757895
26.205315
-0.0038570571
28.318472
-0.003408949
28.317944
-0.0036801813
28.317346
-0.00378756
28.316848
-0.0039683496
28.316351
-0.0042301382
28.315788
-0.0043696553
28.315068
-0.0048005654
28.314719
-0.0049882743
28.313888
-0.0057960225
28.313256
-0.0057835618
28.312979
-0.0064312758
28.312154
-0.0063207209
28.311342
-0.0063874648
28.310419
-0.0060044426
28.309441
-0.0054255616
28.308627
-0.0054832853
28.307158
-0.005291315
28.305952
-0.0041630526
28.305273
-0.0042468766
28.303954
-0.0043302428
28.303967
-0.0038900835
-0.005287875
30.579335
-0.0033503066
30.579168
-0.0035558529
30.578978
-0.0036553221
30.57889
-0.0039476851
30.578896
-0.0042820104
30.578938
-0.0044522256
30.578883
-0.0047899072
30.578858
-0.0050618411
30.578121
-0.0052208585
30.577561
-0.0052681151
30.576731
-0.0055916667
30.57525
-0.0051183224
30.573586
-0.0049983398
30.572556
-0.0050933606
30.571529
-0.0046235919
30.570072
-0.0044146306
30.568956
-0.0045269568
30.568621
-0.0043062557
30.568349
-0.0045337096
30.568117
-0.0045911838
30.568542
-0.0047206009
33.02737
-0.0031532137
33.027127
-0.0033153911
33.027009
-0.0034814855
33.026805
-0.0037123131
33.026571
-0.0040392406
33.026181
-0.0040861199
33.025527
-0.0042363266
33.024844
-0.0044463424
33.0242
-0.0045356503
33.02329
-0.0042652147
33.022147
-0.0043385503
33.021548
-0.0044728503
33.020676
-0.0041746357
33.019586
-0.0041887984
33.019031
-0.0042339751
33.018684
-0.0042372893
33.018419
-0.0043982051
33.018342
-0.0044121405
33.018103
-0.0046432654
33.01775
-0.0046843668
35.662814
-0.0029590199
35.662665
-0.0031029315
35.662545
-0.0032460298
35.66231
-0.0033213372
35.661792
-0.0033537646
35.661268
-0.003363227
35.660745
-0.0035094694
35.66001
-0.0035205534
35.659189
-0.0035364206
35.658709
-0.0035644707
35.658148
-0.0036225837
35.657529
-0.0037461251
35.657286
-0.0038599994
35.657204
-0.0040894687
35.657335
-0.0043703089
35.657413
-0.0043882429
35.657408
-0.0045436792
35.657526