/*--------------------------------*- C++ -*----------------------------------*\
| =========                 |                                                 |
| \\      /  F ield         | OpenFOAM: The Open Source CFD Toolbox           |
|  \\    /   O peration     | Version:  2506                                  |
|   \\  /    A nd           | Website:  www.openfoam.com                      |
|    \\/     M anipulation  |                                                 |
\*---------------------------------------------------------------------------*/
FoamFile
{
    version     2.0;
    format      ascii;
    arch        "LSB;label=32;scalar=64";
    class       volScalarField;
    location    "2.8";
    object      p;
}
// * * * * * * * * * * * * * * * * * * * * * * * * * * * * * * * * * * * * * //

dimensions      [1 -1 -2 0 0 0 0];

internalField   nonuniform List<scalar> 
1376
(
47043.823
47043.831
47043.236
47042.617
47042.113
47041.562
47040.858
47040.327
47040.1
47039.912
47039.373
47043.815
47043.227
47042.61
47042.103
47041.551
47040.85
47040.324
47040.094
47039.898
47039.36
47043.824
47043.234
47042.604
47042.103
47041.543
47040.844
47040.324
47040.091
47039.887
47039.343
47043.824
47043.237
47042.599
47042.098
47041.534
47040.839
47040.324
47040.086
47039.876
47039.325
47043.828
47043.244
47042.597
47042.084
47041.524
47040.835
47040.326
47040.077
47039.864
47039.315
47043.811
47043.242
47042.589
47042.067
47041.514
47040.829
47040.326
47040.066
47039.849
47039.308
47043.79
47043.25
47042.57
47042.045
47041.503
47040.82
47040.327
47040.043
47039.832
47039.305
47043.79
47043.236
47042.553
47042.026
47041.488
47040.821
47040.317
47040.046
47039.799
47039.296
47043.808
47043.208
47042.541
47042.008
47041.469
47040.832
47040.299
47040.039
47039.768
47039.294
47043.815
47043.204
47042.507
47041.979
47041.453
47040.831
47040.295
47039.994
47039.747
47039.312
47043.818
47043.188
47042.473
47041.945
47041.438
47040.831
47040.286
47039.978
47039.728
47039.314
47044.4
47043.818
47043.165
47042.433
47041.907
47041.427
47040.83
47040.275
47039.953
47039.712
47039.306
47044.381
47043.81
47043.137
47042.387
47041.865
47041.421
47040.828
47040.264
47039.925
47039.686
47039.288
47044.361
47043.791
47043.102
47042.334
47041.82
47041.418
47040.822
47040.249
47039.898
47039.661
47039.249
47044.329
47043.764
47043.058
47042.279
47041.777
47041.416
47040.81
47040.232
47039.869
47039.632
47039.213
47044.289
47043.731
47043.006
47042.226
47041.74
47041.412
47040.791
47040.211
47039.84
47039.598
47039.181
47044.248
47043.687
47042.945
47042.175
47041.709
47041.399
47040.762
47040.186
47039.813
47039.56
47039.146
47044.204
47043.627
47042.876
47042.126
47041.688
47041.372
47040.725
47040.155
47039.791
47039.516
47039.104
47044.13
47043.541
47042.799
47042.076
47041.674
47041.327
47040.676
47040.115
47039.771
47039.467
47039.054
47044.002
47043.428
47042.715
47042.023
47041.658
47041.263
47040.617
47040.068
47039.749
47039.414
47038.996
47043.814
47043.294
47042.614
47041.969
47041.63
47041.183
47040.546
47040.017
47039.718
47039.36
47038.933
47043.573
47043.14
47042.501
47041.908
47041.57
47041.091
47040.468
47039.97
47039.676
47039.298
47038.871
47043.335
47042.961
47042.376
47041.828
47041.481
47040.985
47040.383
47039.932
47039.621
47039.227
47038.816
47043.122
47042.771
47042.232
47041.712
47041.369
47040.875
47040.295
47039.892
47039.561
47039.146
47038.765
47042.939
47042.585
47042.045
47041.555
47041.234
47040.758
47040.205
47039.844
47039.483
47039.047
47038.734
47042.864
47042.779
47042.377
47041.801
47041.375
47041.084
47040.613
47040.134
47039.804
47039.375
47038.965
47038.738
47042.6
47042.564
47042.139
47041.541
47041.183
47040.936
47040.493
47040.023
47039.654
47039.258
47038.951
47038.711
47042.387
47042.271
47041.766
47041.293
47041.005
47040.758
47040.357
47039.938
47039.456
47039.19
47038.968
47038.63
47042.064
47041.781
47041.37
47041.074
47040.818
47040.555
47040.215
47039.784
47039.275
47039.125
47038.94
47038.535
47041.554
47041.33
47041.051
47040.741
47040.584
47040.356
47039.952
47039.546
47039.294
47039.042
47038.838
47038.41
47041.122
47040.903
47040.564
47040.393
47040.298
47040.117
47039.678
47039.288
47039.211
47038.912
47038.695
47038.344
47040.693
47040.544
47040.285
47040.086
47040.08
47039.999
47039.794
47039.503
47039.152
47038.923
47038.773
47038.635
47038.283
47040.042
47039.88
47039.713
47039.654
47039.721
47039.742
47039.447
47039.11
47039.042
47038.746
47038.684
47038.464
47038.252
47039.359
47039.275
47039.186
47039.272
47039.366
47039.31
47039.002
47038.822
47038.845
47038.718
47038.509
47038.269
47038.419
47038.596
47038.648
47038.68
47038.79
47038.906
47038.832
47038.699
47038.647
47038.709
47038.627
47038.59
47038.337
47038.254
47038.363
47037.854
47038.092
47038.295
47038.373
47038.345
47038.323
47038.304
47038.399
47038.475
47038.449
47038.394
47038.254
47038.291
47038.338
47037.493
47037.619
47037.702
47037.743
47037.798
47037.977
47038.166
47038.239
47038.254
47038.269
47038.197
47038.24
47038.367
47038.432
47036.847
47036.946
47037.061
47037.134
47037.354
47037.58
47037.778
47038.026
47038.025
47038.072
47038.185
47038.203
47038.291
47038.309
47038.091
47036.374
47036.517
47036.725
47036.936
47037.036
47037.27
47037.544
47037.78
47037.92
47038.062
47038.186
47038.274
47038.213
47038.048
47037.709
47036.026
47036.244
47036.465
47036.508
47036.726
47037.017
47037.273
47037.601
47037.898
47038.115
47038.164
47038.181
47038.147
47038.077
47037.963
47038.037
47036.004
47036.124
47036.275
47036.494
47036.66
47036.807
47037.098
47037.359
47037.58
47037.742
47037.838
47037.842
47037.867
47037.88
47037.848
47037.853
47037.906
47036.476
47036.551
47036.629
47036.715
47036.842
47036.912
47037.041
47037.223
47037.357
47037.423
47037.489
47037.579
47037.694
47037.796
47037.777
47037.762
47037.712
47036.428
47036.519
47036.521
47036.53
47036.588
47036.651
47036.672
47036.696
47036.841
47036.885
47036.928
47037.03
47037.194
47037.37
47037.502
47037.628
47037.682
47037.675
47036.551
47036.612
47036.712
47036.785
47036.759
47036.729
47036.737
47036.726
47036.676
47036.676
47036.734
47036.818
47036.937
47037.101
47037.307
47037.477
47037.572
47037.655
47037.692
47036.471
47036.557
47036.662
47036.758
47036.823
47036.822
47036.772
47036.671
47036.559
47036.524
47036.526
47036.572
47036.598
47036.732
47036.907
47037.089
47037.283
47037.4
47037.47
47037.521
47036.724
47036.752
47036.79
47036.845
47036.913
47037.012
47037.072
47037.042
47036.98
47036.912
47036.807
47036.707
47036.667
47036.73
47036.791
47036.862
47036.961
47037.069
47037.16
47037.232
47037.28
47037.316
47036.757
47036.634
47036.536
47036.53
47036.567
47036.645
47036.828
47036.984
47037.001
47036.971
47036.925
47036.841
47036.744
47036.676
47036.647
47036.682
47036.736
47036.79
47036.856
47036.93
47037.014
47037.102
47037.168
47037.109
47037.028
47036.966
47037.161
47037.899
47038.578
47038.608
47038.651
47039.037
47039.135
47038.5
47037.713
47037.154
47036.892
47036.788
47036.748
47036.767
47036.826
47036.901
47036.995
47037.096
47037.197
47037.268
47037.331
47037.255
47036.923
47036.896
47036.891
47036.768
47036.197
47035.037
47034.727
47035.631
47036.603
47036.472
47036.485
47038.203
47039.514
47039.011
47037.919
47037.132
47036.84
47036.773
47036.768
47036.791
47036.843
47036.92
47036.997
47037.078
47037.137
47037.221
47037.425
47039.362
47039.349
47039.335
47039.32
47039.3
47039.274
47039.244
47039.211
47039.171
47039.118
47039.06
47038.999
47038.953
47038.918
47038.879
47038.834
47038.79
47038.743
47038.69
47038.632
47038.568
47038.495
47038.421
47038.357
47038.305
47038.237
47038.158
47038.085
47038.052
47038.085
47038.171
47038.242
47038.307
47038.354
47038.313
47038.202
47038.052
47037.855
47037.884
47037.853
47037.817
47037.758
47037.688
47037.695
47037.555
47037.376
47037.212
47037.43
47037.941
47038.963
47038.948
47038.932
47038.918
47038.903
47038.887
47038.868
47038.846
47038.819
47038.78
47038.737
47038.695
47038.646
47038.586
47038.521
47038.461
47038.391
47038.324
47038.263
47038.208
47038.143
47038.072
47038.012
47037.955
47037.901
47037.863
47037.846
47037.858
47037.878
47037.944
47038.016
47038.051
47038.035
47038
47038.013
47037.966
47037.889
47037.917
47037.977
47037.859
47037.727
47037.7
47037.662
47037.65
47037.572
47037.439
47037.289
47038.08
47038.147
47038.57
47038.555
47038.54
47038.525
47038.509
47038.49
47038.469
47038.445
47038.421
47038.395
47038.363
47038.329
47038.295
47038.259
47038.206
47038.143
47038.093
47038.05
47037.997
47037.938
47037.883
47037.838
47037.795
47037.76
47037.717
47037.674
47037.646
47037.655
47037.695
47037.697
47037.675
47037.654
47037.689
47037.76
47037.832
47037.883
47037.896
47037.936
47037.924
47037.823
47037.734
47037.739
47037.674
47037.595
47037.566
47037.465
47037.392
47038.315
47037.641
47038.293
47038.272
47038.253
47038.234
47038.214
47038.193
47038.171
47038.147
47038.122
47038.097
47038.068
47038.034
47037.997
47037.962
47037.926
47037.895
47037.856
47037.807
47037.763
47037.725
47037.694
47037.666
47037.641
47037.621
47037.609
47037.596
47037.571
47037.529
47037.502
47037.504
47037.511
47037.544
47037.611
47037.724
47037.773
47037.819
47037.853
47037.879
47037.879
47037.836
47037.819
47037.806
47037.681
47037.55
47037.529
47037.444
47037.445
47038.369
47037.71
47038.133
47038.105
47038.079
47038.055
47038.031
47038.006
47037.979
47037.949
47037.916
47037.892
47037.878
47037.857
47037.837
47037.806
47037.761
47037.709
47037.654
47037.606
47037.567
47037.534
47037.502
47037.473
47037.452
47037.442
47037.446
47037.454
47037.461
47037.462
47037.451
47037.472
47037.543
47037.614
47037.662
47037.684
47037.731
47037.789
47037.82
47037.872
47037.889
47037.916
47037.879
47037.829
47037.657
47037.527
47037.48
47037.419
47037.507
47038.488
47037.39
47038.053
47038.029
47038.003
47037.976
47037.948
47037.92
47037.893
47037.867
47037.844
47037.81
47037.768
47037.729
47037.685
47037.647
47037.622
47037.597
47037.57
47037.535
47037.495
47037.455
47037.418
47037.38
47037.339
47037.301
47037.285
47037.311
47037.344
47037.385
47037.411
47037.415
47037.475
47037.571
47037.647
47037.698
47037.736
47037.787
47037.858
47037.963
47037.978
47037.955
47037.901
47037.83
47037.64
47037.511
47037.447
47037.419
47037.509
47038.54
47037.427
47037.859
47037.84
47037.818
47037.795
47037.77
47037.745
47037.719
47037.692
47037.665
47037.638
47037.615
47037.592
47037.57
47037.55
47037.531
47037.51
47037.485
47037.456
47037.423
47037.387
47037.356
47037.345
47037.351
47037.344
47037.322
47037.3
47037.307
47037.318
47037.344
47037.36
47037.394
47037.493
47037.601
47037.672
47037.74
47037.815
47037.938
47038.014
47037.997
47037.984
47037.913
47037.805
47037.654
47037.524
47037.426
47037.397
47037.46
47038.442
47037.896
47037.594
47037.584
47037.572
47037.559
47037.544
47037.527
47037.508
47037.488
47037.465
47037.442
47037.419
47037.397
47037.377
47037.358
47037.339
47037.318
47037.296
47037.278
47037.265
47037.26
47037.258
47037.25
47037.247
47037.267
47037.308
47037.333
47037.344
47037.369
47037.408
47037.466
47037.493
47037.545
47037.609
47037.653
47037.737
47037.86
47037.971
47038.045
47038.028
47037.982
47037.9
47037.762
47037.661
47037.525
47037.439
47037.371
47037.407
47038.031
47038.022
47037.379
47037.366
47037.353
47037.34
47037.327
47037.314
47037.299
47037.284
47037.266
47037.246
47037.227
47037.206
47037.187
47037.173
47037.163
47037.149
47037.138
47037.127
47037.115
47037.115
47037.136
47037.179
47037.234
47037.289
47037.336
47037.381
47037.424
47037.47
47037.528
47037.587
47037.618
47037.64
47037.697
47037.755
47037.816
47037.896
47037.961
47038.03
47038.031
47037.957
47037.852
47037.709
47037.632
47037.512
47037.457
47037.411
47037.421
47037.826
47037.857
47037.349
47037.324
47037.301
47037.278
47037.257
47037.236
47037.217
47037.196
47037.18
47037.172
47037.169
47037.158
47037.137
47037.12
47037.108
47037.107
47037.11
47037.119
47037.13
47037.149
47037.18
47037.219
47037.252
47037.282
47037.331
47037.397
47037.465
47037.526
47037.586
47037.642
47037.696
47037.748
47037.804
47037.851
47037.845
47037.882
47037.948
47038.001
47037.986
47037.913
47037.802
47037.657
47037.592
47037.476
47037.453
47037.482
47037.487
47037.626
47037.556
47037.418
47037.392
47037.368
47037.345
47037.322
47037.298
47037.274
47037.25
47037.226
47037.199
47037.171
47037.154
47037.149
47037.146
47037.144
47037.143
47037.15
47037.167
47037.19
47037.209
47037.218
47037.227
47037.259
47037.302
47037.339
47037.377
47037.444
47037.536
47037.636
47037.718
47037.758
47037.788
47037.833
47037.877
47037.893
47037.928
47037.974
47037.957
47037.928
47037.866
47037.732
47037.618
47037.542
47037.41
47037.425
47037.545
47037.579
47037.479
47037.432
47037.435
47037.417
47037.4
47037.384
47037.369
47037.353
47037.337
47037.319
47037.297
47037.272
47037.246
47037.223
47037.201
47037.183
47037.166
47037.152
47037.144
47037.144
47037.151
47037.166
47037.191
47037.226
47037.273
47037.333
47037.379
47037.42
47037.475
47037.539
47037.613
47037.687
47037.786
47037.868
47037.908
47037.967
47038.006
47038.005
47037.975
47037.911
47037.863
47037.796
47037.646
47037.558
47037.449
47037.33
47037.414
47037.6
47037.627
47037.477
47037.399
47037.196
47037.178
47037.167
47037.163
47037.155
47037.141
47037.128
47037.121
47037.119
47037.123
47037.137
47037.162
47037.194
47037.23
47037.268
47037.304
47037.335
47037.38
47037.452
47037.543
47037.615
47037.672
47037.745
47037.82
47037.919
47037.976
47038.023
47038.04
47038.012
47037.95
47037.875
47037.787
47037.679
47037.535
47037.432
47037.309
47037.302
47037.468
47037.645
47037.648
47037.56
47037.368
47037.187
47037.218
47037.253
47037.3
47037.355
47037.419
47037.48
47037.546
47037.596
47037.645
47037.714
47037.837
47037.891
47037.926
47037.96
47037.973
47037.957
47037.914
47037.843
47037.718
47037.55
47037.386
47037.245
47037.159
47037.35
47037.542
47037.677
47037.658
47037.574
47037.326
47037.612
47037.667
47037.682
47037.688
47037.766
47037.852
47037.829
47037.847
47037.87
47037.856
47037.79
47037.617
47037.394
47037.205
47037.087
47037.12
47037.411
47037.61
47037.707
47037.609
47037.529
47037.283
47037.676
47037.661
47037.679
47037.651
47037.485
47037.252
47037.11
47037.092
47037.151
47037.424
47037.652
47037.712
47037.553
47037.464
47037.226
47037.305
47037.232
47037.138
47037.132
47037.163
47037.403
47037.642
47037.72
47037.531
47037.393
47037.171
47037.194
47037.415
47037.611
47037.682
47037.489
47037.361
47037.148
47037.535
47037.627
47037.457
47037.322
47037.119
47037.375
47037.287
47037.063
47037.008
)
;

boundaryField
{
    Side
    {
        type            empty;
    }
    Inlet
    {
        type            totalPressure;
        rho             rho;
        psi             none;
        gamma           1;
        p0              uniform 50000;
        value           nonuniform List<scalar> 
48
(
47036.728
47036.73
47036.725
47036.693
47036.589
47036.428
47036.305
47036.433
47036.702
47037.248
47037.329
47036.856
47036.433
47036.505
47036.754
47036.946
47037.053
47037.117
47037.165
47037.2
47037.208
47037.203
47037.185
47037.156
47037.115
47037.074
47037.064
47037.104
47037.123
47037.117
47037.101
47037.056
47037.033
47037.052
47037.098
47037.113
47037.143
47037.189
47037.235
47037.273
47037.309
47037.346
47037.377
47037.385
47037.377
47037.351
47037.31
47037.268
)
;
    }
    Airfoil
    {
        type            zeroGradient;
    }
    Outlet
    {
        type            fixedValue;
        value           nonuniform List<scalar> 0();
    }
    procBoundary10to2
    {
        type            processor;
        value           uniform 47044.521;
    }
    procBoundary10to3
    {
        type            processor;
        value           nonuniform List<scalar> 
23
(
47039.383
47039.92
47040.105
47040.326
47040.858
47041.563
47042.11
47042.615
47043.231
47043.231
47043.802
47039.375
47038.98
47038.589
47038.316
47038.163
47038.08
47037.884
47037.614
47037.4
47037.373
47037.441
47037.458
)
;
    }
    procBoundary10to9
    {
        type            processor;
        value           nonuniform List<scalar> 
66
(
47044.547
47044.537
47044.535
47044.525
47044.515
47044.509
47044.521
47044.51
47044.468
47044.443
47044.423
47044.423
47045.463
47045.382
47045.287
47045.184
47045.074
47044.953
47044.829
47044.71
47044.576
47044.404
47044.146
47043.858
47043.549
47043.19
47043.19
47043.352
47042.848
47042.433
47042.12
47041.69
47041.247
47041.247
47040.849
47040.261
47039.381
47039.381
47038.557
47037.718
47037.337
47037.337
47036.691
47036.247
47036.247
47035.885
47035.885
47035.913
47036.363
47036.363
47036.335
47036.335
47036.575
47036.575
47036.325
47036.394
47036.394
47036.734
47036.734
47036.898
47036.832
47036.832
47037.218
47037.172
47037.172
47036.957
)
;
    }
    procBoundary10to11
    {
        type            processor;
        value           nonuniform List<scalar> 
58
(
47037.333
47037.317
47037.298
47037.279
47037.259
47037.238
47037.217
47037.217
47037.076
47037.057
47037.028
47036.994
47036.977
47036.982
47037
47037.027
47037.062
47037.098
47037.13
47037.158
47037.158
47037.011
47037.052
47037.106
47037.162
47037.228
47037.321
47037.435
47037.522
47037.522
47037.503
47037.629
47037.7
47037.642
47037.559
47037.597
47037.639
47037.639
47037.382
47037.407
47037.435
47037.373
47037.373
47037.209
47037.237
47037.215
47037.189
47037.189
47037.31
47037.426
47037.426
47037.49
47037.588
47037.588
47037.327
47037.258
47037.258
47036.954
)
;
    }
}


// ************************************************************************* //
