/*--------------------------------*- C++ -*----------------------------------*\
| =========                 |                                                 |
| \\      /  F ield         | OpenFOAM: The Open Source CFD Toolbox           |
|  \\    /   O peration     | Version:  2506                                  |
|   \\  /    A nd           | Website:  www.openfoam.com                      |
|    \\/     M anipulation  |                                                 |
\*---------------------------------------------------------------------------*/
FoamFile
{
    version     2.0;
    format      ascii;
    arch        "LSB;label=32;scalar=64";
    class       volScalarField;
    location    "0.011";
    object      alphat;
}
// * * * * * * * * * * * * * * * * * * * * * * * * * * * * * * * * * * * * * //

dimensions      [1 -1 -1 0 0 0 0];

internalField   nonuniform List<scalar> 
13761
(
2.7567335e-06
2.4938049e-06
2.4889086e-06
2.4906495e-06
2.4887344e-06
2.4887168e-06
2.4883028e-06
2.4882116e-06
2.4881467e-06
2.4881258e-06
2.4881188e-06
2.4881244e-06
2.4881499e-06
2.4881446e-06
2.4877306e-06
2.4856816e-06
2.4800071e-06
2.469009e-06
2.4540262e-06
2.440751e-06
2.4340232e-06
2.4313678e-06
2.4280913e-06
2.4276305e-06
2.4384524e-06
2.4616677e-06
2.4851912e-06
2.4840681e-06
2.467786e-06
2.4716768e-06
2.4763319e-06
2.4651113e-06
2.4613407e-06
2.4609505e-06
2.4587298e-06
2.4558298e-06
2.4565316e-06
2.4593525e-06
2.4635217e-06
2.471466e-06
2.4793941e-06
2.4722426e-06
2.4485924e-06
2.4288333e-06
2.7411979e-06
2.4938053e-06
2.4889162e-06
2.490651e-06
2.4887367e-06
2.4887176e-06
2.4883037e-06
2.4882118e-06
2.4881468e-06
2.4881258e-06
2.4881188e-06
2.4881244e-06
2.4881505e-06
2.4881497e-06
2.4877519e-06
2.4857426e-06
2.4801275e-06
2.469195e-06
2.4542416e-06
2.440938e-06
2.43416e-06
2.4314823e-06
2.4281593e-06
2.4275314e-06
2.4380311e-06
2.4610271e-06
2.4847884e-06
2.4844448e-06
2.4678932e-06
2.4714712e-06
2.4764409e-06
2.4652845e-06
2.4613842e-06
2.4610221e-06
2.4587087e-06
2.4557372e-06
2.4558637e-06
2.4583701e-06
2.4633096e-06
2.4714676e-06
2.4796735e-06
2.4728561e-06
2.4492042e-06
2.4292729e-06
2.7914078e-06
2.4938055e-06
2.4889272e-06
2.4906525e-06
2.4887393e-06
2.4887183e-06
2.4883045e-06
2.488212e-06
2.4881469e-06
2.4881258e-06
2.4881188e-06
2.4881244e-06
2.4881512e-06
2.4881548e-06
2.4877734e-06
2.4858041e-06
2.4802491e-06
2.4693828e-06
2.4544595e-06
2.4411269e-06
2.4342976e-06
2.4315979e-06
2.4282286e-06
2.4274336e-06
2.4376057e-06
2.4603751e-06
2.4843607e-06
2.4848209e-06
2.4680211e-06
2.471253e-06
2.4765454e-06
2.4654717e-06
2.4614248e-06
2.4611057e-06
2.4586975e-06
2.4556421e-06
2.4548542e-06
2.4577042e-06
2.4625691e-06
2.4713903e-06
2.4799434e-06
2.4734655e-06
2.449859e-06
2.4297338e-06
2.4277401e-06
2.8153672e-06
2.4938062e-06
2.4889366e-06
2.490654e-06
2.4887421e-06
2.488719e-06
2.4883053e-06
2.4882122e-06
2.488147e-06
2.4881258e-06
2.4881188e-06
2.4881244e-06
2.4881519e-06
2.4881599e-06
2.4877949e-06
2.4858655e-06
2.480371e-06
2.4695709e-06
2.4546781e-06
2.4413171e-06
2.4344365e-06
2.4317153e-06
2.4283004e-06
2.4273416e-06
2.4371844e-06
2.4597206e-06
2.4839207e-06
2.4851879e-06
2.4681742e-06
2.4710288e-06
2.4766439e-06
2.4656729e-06
2.4614681e-06
2.4612051e-06
2.4586938e-06
2.4555457e-06
2.4532234e-06
2.4573646e-06
2.4600385e-06
2.4712857e-06
2.4802076e-06
2.4740527e-06
2.4505291e-06
2.4302153e-06
2.4281058e-06
2.8511038e-06
2.4938087e-06
2.4889423e-06
2.4906552e-06
2.4887462e-06
2.4887196e-06
2.4883062e-06
2.4882123e-06
2.488147e-06
2.4881258e-06
2.4881188e-06
2.4881244e-06
2.4881526e-06
2.4881651e-06
2.487817e-06
2.4859284e-06
2.4804968e-06
2.4697656e-06
2.4549053e-06
2.4415143e-06
2.4345795e-06
2.4318362e-06
2.4283762e-06
2.4272519e-06
2.4367534e-06
2.4590426e-06
2.4834479e-06
2.485553e-06
2.4683519e-06
2.4707895e-06
2.476734e-06
2.465889e-06
2.4615104e-06
2.4613147e-06
2.4586883e-06
2.4554585e-06
2.4517578e-06
2.4572662e-06
2.4551901e-06
2.4711711e-06
2.4804521e-06
2.4746179e-06
2.4512174e-06
2.430717e-06
2.4284222e-06
2.8828076e-06
2.493813e-06
2.4889446e-06
2.4906562e-06
2.4887519e-06
2.4887199e-06
2.4883071e-06
2.4882124e-06
2.4881471e-06
2.4881259e-06
2.4881188e-06
2.4881244e-06
2.4881533e-06
2.4881703e-06
2.4878393e-06
2.4859915e-06
2.4806231e-06
2.4699611e-06
2.4551336e-06
2.4417132e-06
2.4347246e-06
2.43196e-06
2.4284557e-06
2.427169e-06
2.4363278e-06
2.4583619e-06
2.4829589e-06
2.4859065e-06
2.4685492e-06
2.4705459e-06
2.4768152e-06
2.4661179e-06
2.4615502e-06
2.4614434e-06
2.4586797e-06
2.455357e-06
2.4513202e-06
2.4573023e-06
2.4532429e-06
2.4710416e-06
2.4806554e-06
2.4751692e-06
2.4519044e-06
2.4312319e-06
2.4287523e-06
2.917847e-06
2.4938193e-06
2.4889451e-06
2.4906574e-06
2.4887575e-06
2.48872e-06
2.4883081e-06
2.4882126e-06
2.4881472e-06
2.4881259e-06
2.4881187e-06
2.4881244e-06
2.488154e-06
2.4881755e-06
2.4878621e-06
2.4860562e-06
2.4807538e-06
2.4701646e-06
2.455372e-06
2.4419208e-06
2.4348748e-06
2.4320883e-06
2.4285401e-06
2.4270896e-06
2.4358926e-06
2.457655e-06
2.4824326e-06
2.486256e-06
2.4687706e-06
2.4702922e-06
2.4768831e-06
2.4663629e-06
2.4615857e-06
2.4615873e-06
2.4586687e-06
2.455234e-06
2.4518359e-06
2.4573933e-06
2.4622073e-06
2.4708582e-06
2.4807721e-06
2.4757129e-06
2.452576e-06
2.4317643e-06
2.4290849e-06
2.9530272e-06
2.4938217e-06
2.4889457e-06
2.4906586e-06
2.4887616e-06
2.4887199e-06
2.4883091e-06
2.4882127e-06
2.4881473e-06
2.4881259e-06
2.4881187e-06
2.4881244e-06
2.4881547e-06
2.4881806e-06
2.487885e-06
2.4861213e-06
2.4808855e-06
2.4703695e-06
2.4556118e-06
2.4421303e-06
2.4350275e-06
2.4322202e-06
2.4286287e-06
2.4270173e-06
2.4354632e-06
2.4569441e-06
2.4818901e-06
2.4865951e-06
2.4690115e-06
2.4700376e-06
2.4769394e-06
2.4666201e-06
2.4616134e-06
2.4617475e-06
2.4586669e-06
2.4551219e-06
2.4525093e-06
2.4574864e-06
2.466327e-06
2.4705701e-06
2.4807963e-06
2.476251e-06
2.4532349e-06
2.4322959e-06
2.4294101e-06
2.4314522e-06
2.9898489e-06
2.4938211e-06
2.4889466e-06
2.49066e-06
2.4887647e-06
2.4887199e-06
2.4883101e-06
2.4882129e-06
2.4881474e-06
2.4881259e-06
2.4881187e-06
2.4881243e-06
2.4881553e-06
2.4881858e-06
2.4879081e-06
2.4861881e-06
2.481022e-06
2.4705828e-06
2.455863e-06
2.4423497e-06
2.4351861e-06
2.4323572e-06
2.4287233e-06
2.42695e-06
2.4350259e-06
2.456206e-06
2.4813069e-06
2.4869261e-06
2.4692834e-06
2.4697757e-06
2.4769781e-06
2.4668934e-06
2.4616322e-06
2.4619158e-06
2.4586838e-06
2.4549704e-06
2.4529384e-06
2.4575829e-06
2.464778e-06
2.4703638e-06
2.4807198e-06
2.4767669e-06
2.4538978e-06
2.4328337e-06
2.4297359e-06
2.4320686e-06
3.0276722e-06
2.4938157e-06
2.4889477e-06
2.4906614e-06
2.488768e-06
2.4887201e-06
2.4883112e-06
2.4882131e-06
2.4881475e-06
2.4881259e-06
2.4881187e-06
2.4881243e-06
2.4881559e-06
2.4881911e-06
2.4879313e-06
2.4862555e-06
2.4811598e-06
2.4707977e-06
2.4561162e-06
2.4425715e-06
2.4353474e-06
2.4324981e-06
2.4288228e-06
2.4268902e-06
2.4345952e-06
2.4554633e-06
2.4807079e-06
2.4872432e-06
2.4695832e-06
2.4695091e-06
2.4770042e-06
2.46718e-06
2.4616413e-06
2.4620939e-06
2.4587245e-06
2.4548351e-06
2.4530866e-06
2.4577089e-06
2.4624743e-06
2.4701993e-06
2.4805679e-06
2.4772645e-06
2.4545568e-06
2.4333717e-06
2.4300667e-06
2.432516e-06
3.0668707e-06
2.4938081e-06
2.4889484e-06
2.4906631e-06
2.4887719e-06
2.4887206e-06
2.4883123e-06
2.4882132e-06
2.4881477e-06
2.4881259e-06
2.4881186e-06
2.4881243e-06
2.4881565e-06
2.4881963e-06
2.4879547e-06
2.4863246e-06
2.4813021e-06
2.4710214e-06
2.4563815e-06
2.4428043e-06
2.4355156e-06
2.4326448e-06
2.4289291e-06
2.4268372e-06
2.4341596e-06
2.454693e-06
2.4800653e-06
2.4875408e-06
2.469922e-06
2.4692354e-06
2.4770102e-06
2.467483e-06
2.461641e-06
2.4622765e-06
2.4587877e-06
2.4547694e-06
2.4530494e-06
2.4572856e-06
2.4610892e-06
2.4686766e-06
2.4803864e-06
2.4777224e-06
2.4552184e-06
2.4339017e-06
2.430401e-06
2.4329878e-06
3.1073067e-06
2.4938035e-06
2.4889485e-06
2.4906648e-06
2.488776e-06
2.4887211e-06
2.4883135e-06
2.4882134e-06
2.4881478e-06
2.4881259e-06
2.4881186e-06
2.4881242e-06
2.4881571e-06
2.4882015e-06
2.4879781e-06
2.4863942e-06
2.4814457e-06
2.4712472e-06
2.4566489e-06
2.4430394e-06
2.4356864e-06
2.432796e-06
2.4290409e-06
2.4267934e-06
2.433732e-06
2.4539177e-06
2.4794071e-06
2.4878203e-06
2.4702912e-06
2.4689552e-06
2.4770016e-06
2.4678019e-06
2.4616324e-06
2.4624642e-06
2.4588686e-06
2.454766e-06
2.4529135e-06
2.4560501e-06
2.4605504e-06
2.4643688e-06
2.4802537e-06
2.4781238e-06
2.4558775e-06
2.4344229e-06
2.4307351e-06
2.4334392e-06
2.4229457e-06
3.1491087e-06
2.4938005e-06
2.4889477e-06
2.4906666e-06
2.4887801e-06
2.4887215e-06
2.4883147e-06
2.4882135e-06
2.4881479e-06
2.488126e-06
2.4881186e-06
2.4881242e-06
2.4881576e-06
2.4882067e-06
2.4880018e-06
2.4864653e-06
2.4815941e-06
2.471482e-06
2.4569291e-06
2.4432865e-06
2.4358652e-06
2.4329533e-06
2.4291604e-06
2.4267571e-06
2.4333025e-06
2.4531151e-06
2.4787026e-06
2.4880729e-06
2.4707032e-06
2.4686698e-06
2.4769659e-06
2.4681406e-06
2.4616154e-06
2.4626508e-06
2.4589619e-06
2.454783e-06
2.4527602e-06
2.4528261e-06
2.4605172e-06
2.4543498e-06
2.4802011e-06
2.4784605e-06
2.4565125e-06
2.4349383e-06
2.4310747e-06
2.4338835e-06
2.424472e-06
3.1922581e-06
2.4937971e-06
2.4889466e-06
2.4906684e-06
2.4887843e-06
2.4887219e-06
2.4883159e-06
2.4882137e-06
2.488148e-06
2.488126e-06
2.4881185e-06
2.4881241e-06
2.488158e-06
2.4882119e-06
2.4880255e-06
2.4865368e-06
2.4817441e-06
2.471719e-06
2.4572117e-06
2.4435359e-06
2.4360469e-06
2.433115e-06
2.4292858e-06
2.4267301e-06
2.4328822e-06
2.4523075e-06
2.4779807e-06
2.4883098e-06
2.4711441e-06
2.4683753e-06
2.4769117e-06
2.4685012e-06
2.4615892e-06
2.4628341e-06
2.4590818e-06
2.4547843e-06
2.4526553e-06
2.4497624e-06
2.4607911e-06
2.4654833e-06
2.4801214e-06
2.4787301e-06
2.4571025e-06
2.4354364e-06
2.4314219e-06
2.4343228e-06
2.4250125e-06
3.2368527e-06
2.4937929e-06
2.4889463e-06
2.4906699e-06
2.4887887e-06
2.4887222e-06
2.4883172e-06
2.4882139e-06
2.4881482e-06
2.488126e-06
2.4881185e-06
2.488124e-06
2.4881585e-06
2.4882171e-06
2.4880493e-06
2.4866097e-06
2.4818987e-06
2.471965e-06
2.4575076e-06
2.4437985e-06
2.4362375e-06
2.4332834e-06
2.4294199e-06
2.4267134e-06
2.4324631e-06
2.4514733e-06
2.4772081e-06
2.4885149e-06
2.4716284e-06
2.468074e-06
2.4768284e-06
2.4688838e-06
2.4615557e-06
2.463006e-06
2.4592344e-06
2.454757e-06
2.452542e-06
2.4494902e-06
2.4611203e-06
2.47467e-06
2.4798594e-06
2.4788651e-06
2.4576239e-06
2.4359199e-06
2.4317776e-06
2.4347681e-06
2.4256604e-06
3.2828931e-06
2.4937889e-06
2.4889468e-06
2.4906713e-06
2.488793e-06
2.4887225e-06
2.4883184e-06
2.4882141e-06
2.4881483e-06
2.488126e-06
2.4881185e-06
2.4881239e-06
2.4881588e-06
2.4882223e-06
2.4880732e-06
2.4866832e-06
2.482055e-06
2.4722137e-06
2.4578062e-06
2.4440633e-06
2.436431e-06
2.4334565e-06
2.4295606e-06
2.426706e-06
2.4320535e-06
2.4506339e-06
2.4764146e-06
2.488703e-06
2.4721401e-06
2.4677604e-06
2.4767312e-06
2.4692884e-06
2.4615167e-06
2.4631615e-06
2.4594402e-06
2.4547115e-06
2.4524604e-06
2.4511697e-06
2.4613751e-06
2.4743931e-06
2.4796365e-06
2.4789137e-06
2.4580857e-06
2.4363594e-06
2.4321059e-06
2.4352088e-06
2.4262964e-06
3.330449e-06
2.4937847e-06
2.4889554e-06
2.4906728e-06
2.4887972e-06
2.488723e-06
2.4883195e-06
2.4882144e-06
2.4881484e-06
2.488126e-06
2.4881184e-06
2.4881237e-06
2.4881591e-06
2.4882275e-06
2.4880972e-06
2.4867577e-06
2.4822159e-06
2.4724718e-06
2.4581189e-06
2.4443424e-06
2.4366343e-06
2.4336366e-06
2.4297101e-06
2.4267102e-06
2.4316475e-06
2.4497693e-06
2.4755692e-06
2.4888501e-06
2.4726975e-06
2.4674435e-06
2.476607e-06
2.4697117e-06
2.4614753e-06
2.4632909e-06
2.4597208e-06
2.4546721e-06
2.4523119e-06
2.4526331e-06
2.4616409e-06
2.4707281e-06
2.4792943e-06
2.4789274e-06
2.4584868e-06
2.4367539e-06
2.4324115e-06
2.4356352e-06
2.4269348e-06
2.4160885e-06
3.3795449e-06
2.4937799e-06
2.4889685e-06
2.4906745e-06
2.4888014e-06
2.4887237e-06
2.4883207e-06
2.4882147e-06
2.4881486e-06
2.488126e-06
2.4881184e-06
2.4881236e-06
2.4881593e-06
2.4882327e-06
2.4881212e-06
2.4868328e-06
2.4823787e-06
2.4727328e-06
2.4584344e-06
2.4446237e-06
2.4368402e-06
2.4338214e-06
2.4298662e-06
2.4267237e-06
2.4312514e-06
2.4488993e-06
2.4747037e-06
2.4889796e-06
2.4732868e-06
2.4671224e-06
2.476469e-06
2.4701547e-06
2.4614343e-06
2.4633895e-06
2.460046e-06
2.4546663e-06
2.4521451e-06
2.453269e-06
2.4618772e-06
2.4687448e-06
2.4773951e-06
2.4790482e-06
2.4588547e-06
2.437093e-06
2.4326668e-06
2.4360347e-06
2.4275636e-06
2.4176186e-06
3.4302211e-06
2.4937744e-06
2.4889761e-06
2.4906761e-06
2.4888059e-06
2.4887242e-06
2.4883222e-06
2.4882149e-06
2.4881487e-06
2.488126e-06
2.4881183e-06
2.4881235e-06
2.4881595e-06
2.4882378e-06
2.4881451e-06
2.4869087e-06
2.4825459e-06
2.4730031e-06
2.4587645e-06
2.4449203e-06
2.4370568e-06
2.4340136e-06
2.4300312e-06
2.4267487e-06
2.430862e-06
2.448007e-06
2.4737863e-06
2.4890666e-06
2.473924e-06
2.4668086e-06
2.4763008e-06
2.4706124e-06
2.4613993e-06
2.4634572e-06
2.4604243e-06
2.4547029e-06
2.4518522e-06
2.4532914e-06
2.4611541e-06
2.4679855e-06
2.4665574e-06
2.479348e-06
2.4592279e-06
2.4373772e-06
2.4328529e-06
2.4363871e-06
2.4281722e-06
2.4181412e-06
3.4825376e-06
2.4937679e-06
2.4889778e-06
2.4906771e-06
2.4888121e-06
2.4887247e-06
2.4883239e-06
2.488215e-06
2.4881489e-06
2.488126e-06
2.4881183e-06
2.4881234e-06
2.4881597e-06
2.4882428e-06
2.4881691e-06
2.4869852e-06
2.4827152e-06
2.4732767e-06
2.4590979e-06
2.4452187e-06
2.4372756e-06
2.4342101e-06
2.4302023e-06
2.4267829e-06
2.430484e-06
2.4471102e-06
2.472846e-06
2.4891275e-06
2.4745977e-06
2.4664967e-06
2.4761095e-06
2.4710902e-06
2.4613776e-06
2.4634996e-06
2.4608523e-06
2.4547757e-06
2.4515609e-06
2.4530793e-06
2.4578404e-06
2.4680908e-06
2.4654571e-06
2.4796295e-06
2.4596208e-06
2.4376012e-06
2.4329761e-06
2.4366595e-06
2.428742e-06
2.4187322e-06
3.5365167e-06
2.4937604e-06
2.488979e-06
2.4906782e-06
2.4888205e-06
2.488725e-06
2.4883257e-06
2.4882152e-06
2.488149e-06
2.488126e-06
2.4881183e-06
2.4881232e-06
2.4881599e-06
2.4882478e-06
2.488193e-06
2.4870623e-06
2.4828887e-06
2.4735596e-06
2.4594461e-06
2.4455335e-06
2.4375061e-06
2.4344139e-06
2.4303823e-06
2.4268298e-06
2.430116e-06
2.4461956e-06
2.4718511e-06
2.4891349e-06
2.4753117e-06
2.4662007e-06
2.4758808e-06
2.4715788e-06
2.4613705e-06
2.4635085e-06
2.4613077e-06
2.4548858e-06
2.4514985e-06
2.4528505e-06
2.4521903e-06
2.4686522e-06
2.4825498e-06
2.4797013e-06
2.4599509e-06
2.4377708e-06
2.4330491e-06
2.436873e-06
2.4292555e-06
2.4192665e-06
2.413028e-06
3.5922522e-06
2.4937519e-06
2.4889819e-06
2.4906797e-06
2.4888288e-06
2.4887249e-06
2.4883275e-06
2.4882153e-06
2.4881492e-06
2.488126e-06
2.4881182e-06
2.488123e-06
2.48816e-06
2.4882526e-06
2.4882168e-06
2.4871399e-06
2.4830647e-06
2.4738462e-06
2.4597982e-06
2.44585e-06
2.4377381e-06
2.4346215e-06
2.4305687e-06
2.4268865e-06
2.4297609e-06
2.4452786e-06
2.4708296e-06
2.489108e-06
2.4760628e-06
2.4659271e-06
2.4756201e-06
2.4720868e-06
2.4613801e-06
2.4634758e-06
2.4617819e-06
2.4550313e-06
2.4514923e-06
2.4527189e-06
2.4502138e-06
2.4692027e-06
2.4871914e-06
2.4798913e-06
2.4602114e-06
2.437909e-06
2.4330568e-06
2.4370068e-06
2.4297035e-06
2.4197699e-06
2.4144136e-06
3.6497586e-06
2.4937424e-06
2.4889844e-06
2.4906816e-06
2.4888354e-06
2.4887247e-06
2.4883293e-06
2.4882155e-06
2.4881493e-06
2.488126e-06
2.4881182e-06
2.4881229e-06
2.4881601e-06
2.4882572e-06
2.4882405e-06
2.4872179e-06
2.4832446e-06
2.474142e-06
2.4601655e-06
2.4461841e-06
2.4379832e-06
2.4348374e-06
2.4307644e-06
2.4269573e-06
2.4294187e-06
2.4443496e-06
2.4697507e-06
2.4889825e-06
2.4768411e-06
2.4656917e-06
2.4753197e-06
2.4725975e-06
2.4614168e-06
2.4633962e-06
2.4622524e-06
2.4552045e-06
2.4514253e-06
2.4526528e-06
2.4526687e-06
2.4695378e-06
2.4827101e-06
2.4794166e-06
2.4605358e-06
2.4380554e-06
2.4330224e-06
2.4370809e-06
2.4300807e-06
2.4202092e-06
2.4147679e-06
3.7090797e-06
2.493732e-06
2.488986e-06
2.4906834e-06
2.4888416e-06
2.4887244e-06
2.4883311e-06
2.4882156e-06
2.4881495e-06
2.488126e-06
2.4881181e-06
2.4881227e-06
2.4881602e-06
2.4882616e-06
2.4882641e-06
2.4872963e-06
2.4834273e-06
2.4744421e-06
2.4605373e-06
2.4465201e-06
2.4382297e-06
2.4350572e-06
2.4309669e-06
2.4270387e-06
2.4290908e-06
2.4434213e-06
2.4686411e-06
2.4888042e-06
2.4776587e-06
2.4654611e-06
2.4749803e-06
2.473123e-06
2.4614828e-06
2.4632618e-06
2.4627105e-06
2.4554124e-06
2.451321e-06
2.4526113e-06
2.4551623e-06
2.4700174e-06
2.480037e-06
2.4772451e-06
2.4610424e-06
2.4382543e-06
2.4329513e-06
2.4371057e-06
2.4304192e-06
2.4205971e-06
2.415176e-06
2.4001947e-06
3.7702896e-06
2.4937205e-06
2.4889875e-06
2.4906852e-06
2.4888484e-06
2.4887246e-06
2.488333e-06
2.4882158e-06
2.4881496e-06
2.488126e-06
2.4881181e-06
2.4881225e-06
2.4881602e-06
2.4882658e-06
2.4882875e-06
2.4873753e-06
2.4836134e-06
2.4747511e-06
2.4609246e-06
2.4468746e-06
2.438491e-06
2.4352864e-06
2.4311793e-06
2.4271357e-06
2.4287793e-06
2.4424874e-06
2.4674743e-06
2.4885459e-06
2.4784923e-06
2.4652913e-06
2.4746011e-06
2.4736406e-06
2.4615839e-06
2.4630702e-06
2.4631371e-06
2.455723e-06
2.4512371e-06
2.4524115e-06
2.4562793e-06
2.4698876e-06
2.4790481e-06
2.4617033e-06
2.4616635e-06
2.4384715e-06
2.4328555e-06
2.4370863e-06
2.4307233e-06
2.4209522e-06
2.4155236e-06
2.4016171e-06
3.8334176e-06
2.4937076e-06
2.488989e-06
2.4906868e-06
2.4888555e-06
2.4887248e-06
2.488335e-06
2.488216e-06
2.4881498e-06
2.4881259e-06
2.488118e-06
2.4881222e-06
2.4881602e-06
2.4882698e-06
2.4883108e-06
2.4874553e-06
2.4838019e-06
2.475065e-06
2.4613171e-06
2.4472313e-06
2.4387529e-06
2.4355192e-06
2.4313989e-06
2.4272442e-06
2.4284846e-06
2.4415588e-06
2.4662739e-06
2.4882441e-06
2.4793624e-06
2.4651675e-06
2.4741784e-06
2.4741645e-06
2.4617329e-06
2.4628308e-06
2.4635159e-06
2.4561396e-06
2.4512036e-06
2.4521398e-06
2.4563462e-06
2.4679411e-06
2.4793328e-06
2.4738849e-06
2.4621322e-06
2.4387632e-06
2.43275e-06
2.4370234e-06
2.4309929e-06
2.4212786e-06
2.415849e-06
2.4020802e-06
3.8985186e-06
2.4936933e-06
2.4889984e-06
2.4906888e-06
2.488863e-06
2.488725e-06
2.4883371e-06
2.4882161e-06
2.4881499e-06
2.4881259e-06
2.488118e-06
2.488122e-06
2.4881601e-06
2.4882735e-06
2.4883339e-06
2.4875366e-06
2.4839928e-06
2.4753877e-06
2.4617254e-06
2.4476077e-06
2.439031e-06
2.4357623e-06
2.4316289e-06
2.4273697e-06
2.4282106e-06
2.4406323e-06
2.4650157e-06
2.4878473e-06
2.4802358e-06
2.4650937e-06
2.473713e-06
2.4746665e-06
2.4619281e-06
2.4625601e-06
2.4638316e-06
2.4566688e-06
2.4512479e-06
2.4515425e-06
2.4559925e-06
2.4610391e-06
2.4802003e-06
2.4881266e-06
2.4626823e-06
2.439108e-06
2.4326712e-06
2.4369382e-06
2.4312389e-06
2.4215784e-06
2.416153e-06
2.402645e-06
3.9656349e-06
2.4936775e-06
2.4890078e-06
2.4906906e-06
2.4888707e-06
2.488725e-06
2.4883393e-06
2.4882163e-06
2.4881501e-06
2.4881259e-06
2.4881179e-06
2.4881218e-06
2.4881599e-06
2.4882768e-06
2.488357e-06
2.4876197e-06
2.4841852e-06
2.4757158e-06
2.4621398e-06
2.4479871e-06
2.4393095e-06
2.4360083e-06
2.4318666e-06
2.4275076e-06
2.4279564e-06
2.4397159e-06
2.4637183e-06
2.4873856e-06
2.4811353e-06
2.4650865e-06
2.473198e-06
2.4751644e-06
2.4621777e-06
2.4622652e-06
2.4640811e-06
2.4573053e-06
2.4513618e-06
2.4512896e-06
2.4557726e-06
2.4560925e-06
2.4812089e-06
2.4882001e-06
2.4624298e-06
2.4394742e-06
2.4326368e-06
2.4368539e-06
2.4314788e-06
2.421868e-06
2.4164437e-06
2.4031684e-06
2.3858907e-06
4.0348547e-06
2.4936603e-06
2.4890098e-06
2.4906915e-06
2.4888788e-06
2.4887252e-06
2.4883413e-06
2.4882165e-06
2.4881502e-06
2.4881259e-06
2.4881179e-06
2.4881215e-06
2.4881596e-06
2.4882797e-06
2.4883799e-06
2.4877042e-06
2.4843785e-06
2.4760525e-06
2.4625701e-06
2.4483873e-06
2.4396061e-06
2.4362658e-06
2.4321153e-06
2.4276636e-06
2.4277269e-06
2.4388085e-06
2.462363e-06
2.4868098e-06
2.4820295e-06
2.4651594e-06
2.4726379e-06
2.4756281e-06
2.4624848e-06
2.4619504e-06
2.4642766e-06
2.4580058e-06
2.4515102e-06
2.4512749e-06
2.4557845e-06
2.4580685e-06
2.4818806e-06
2.4839587e-06
2.4600761e-06
2.4399646e-06
2.4327036e-06
2.4367745e-06
2.4317268e-06
2.4221715e-06
2.4167357e-06
2.4036933e-06
2.3872458e-06
4.1062153e-06
2.4936417e-06
2.4890121e-06
2.4906918e-06
2.4888871e-06
2.4887253e-06
2.4883433e-06
2.4882167e-06
2.4881503e-06
2.4881259e-06
2.4881179e-06
2.4881213e-06
2.4881592e-06
2.4882821e-06
2.4884027e-06
2.4877897e-06
2.4845723e-06
2.476395e-06
2.4630074e-06
2.4487915e-06
2.4399027e-06
2.436525e-06
2.4323724e-06
2.4278328e-06
2.4275199e-06
2.4379152e-06
2.4609648e-06
2.4861552e-06
2.4829395e-06
2.4653099e-06
2.4720289e-06
2.4760685e-06
2.4628585e-06
2.4616225e-06
2.4644305e-06
2.4587218e-06
2.4516995e-06
2.4512482e-06
2.4558233e-06
2.4616009e-06
2.4825262e-06
2.482506e-06
2.4433478e-06
2.440469e-06
2.432856e-06
2.4367013e-06
2.4319834e-06
2.4224905e-06
2.4170355e-06
2.404231e-06
2.3876771e-06
4.1797476e-06
2.4936215e-06
2.4890208e-06
2.4906927e-06
2.4888955e-06
2.4887256e-06
2.4883454e-06
2.488217e-06
2.4881505e-06
2.4881259e-06
2.4881179e-06
2.488121e-06
2.4881588e-06
2.4882842e-06
2.4884254e-06
2.4878754e-06
2.4847674e-06
2.4767456e-06
2.4634608e-06
2.4492175e-06
2.4402196e-06
2.4367972e-06
2.4326421e-06
2.428021e-06
2.4273419e-06
2.4370371e-06
2.4595114e-06
2.485381e-06
2.4838417e-06
2.4655384e-06
2.4713876e-06
2.47646e-06
2.4632995e-06
2.4613015e-06
2.4645046e-06
2.4594157e-06
2.4519423e-06
2.4511968e-06
2.4557193e-06
2.4633212e-06
2.482344e-06
2.4823596e-06
2.4611783e-06
2.4409533e-06
2.4331211e-06
2.4366657e-06
2.4322479e-06
2.4228288e-06
2.4173539e-06
2.4047883e-06
2.3882611e-06
2.3807431e-06
4.2555217e-06
2.493599e-06
2.4890257e-06
2.4906938e-06
2.4889051e-06
2.4887258e-06
2.4883475e-06
2.4882173e-06
2.4881506e-06
2.4881259e-06
2.4881178e-06
2.4881208e-06
2.4881584e-06
2.4882858e-06
2.4884479e-06
2.4879611e-06
2.4849644e-06
2.4771025e-06
2.4639224e-06
2.4496487e-06
2.4405362e-06
2.43707e-06
2.4329211e-06
2.4282233e-06
2.4271902e-06
2.4361773e-06
2.4580152e-06
2.4845237e-06
2.4847496e-06
2.4658568e-06
2.4707091e-06
2.4767981e-06
2.4638144e-06
2.4610159e-06
2.464523e-06
2.460057e-06
2.4523417e-06
2.4511789e-06
2.4554606e-06
2.4636132e-06
2.4787604e-06
2.4834055e-06
2.4741169e-06
2.4414204e-06
2.433404e-06
2.4366929e-06
2.4325354e-06
2.4231916e-06
2.4176912e-06
2.4053834e-06
2.3888467e-06
2.382004e-06
4.3335903e-06
2.4935744e-06
2.4890339e-06
2.4906943e-06
2.488915e-06
2.4887261e-06
2.4883496e-06
2.4882176e-06
2.4881507e-06
2.4881259e-06
2.4881178e-06
2.4881205e-06
2.4881579e-06
2.4882871e-06
2.4884699e-06
2.4880466e-06
2.4851629e-06
2.477467e-06
2.4643999e-06
2.4501023e-06
2.440875e-06
2.4373579e-06
2.4332139e-06
2.4284451e-06
2.4270728e-06
2.4353386e-06
2.456472e-06
2.4835488e-06
2.4856441e-06
2.4662423e-06
2.4700311e-06
2.4770847e-06
2.464382e-06
2.4608001e-06
2.4644608e-06
2.4606121e-06
2.4528789e-06
2.4512433e-06
2.4547501e-06
2.463361e-06
2.4703646e-06
2.4849361e-06
2.4726807e-06
2.4403193e-06
2.4335261e-06
2.4368168e-06
2.4328458e-06
2.4235816e-06
2.4180565e-06
2.4060182e-06
2.3894756e-06
2.3823029e-06
4.4140275e-06
2.4935476e-06
2.489047e-06
2.4906936e-06
2.4889237e-06
2.4887263e-06
2.4883517e-06
2.4882179e-06
2.4881509e-06
2.4881259e-06
2.4881178e-06
2.4881202e-06
2.4881573e-06
2.4882883e-06
2.4884915e-06
2.4881317e-06
2.4853634e-06
2.4778383e-06
2.4648867e-06
2.4505627e-06
2.4412136e-06
2.4376453e-06
2.4335154e-06
2.4286815e-06
2.4269829e-06
2.4345225e-06
2.4548945e-06
2.4824833e-06
2.4865198e-06
2.4667369e-06
2.4693347e-06
2.4773022e-06
2.465016e-06
2.4606586e-06
2.4642968e-06
2.4610567e-06
2.4535532e-06
2.451378e-06
2.454207e-06
2.4632633e-06
2.4676115e-06
2.4859383e-06
2.4691801e-06
2.4232563e-06
2.4338031e-06
2.4371622e-06
2.4332069e-06
2.4239976e-06
2.4184556e-06
2.4066921e-06
2.3901404e-06
2.3827195e-06
4.4968625e-06
2.4935184e-06
2.4890561e-06
2.4906927e-06
2.4889338e-06
2.4887263e-06
2.4883537e-06
2.4882183e-06
2.488151e-06
2.4881259e-06
2.4881178e-06
2.48812e-06
2.4881566e-06
2.4882892e-06
2.4885124e-06
2.4882159e-06
2.4855654e-06
2.4782171e-06
2.465389e-06
2.4510459e-06
2.4415761e-06
2.4379497e-06
2.4338309e-06
2.4289379e-06
2.4269294e-06
2.4337343e-06
2.453286e-06
2.4812986e-06
2.4873462e-06
2.4673534e-06
2.4686166e-06
2.4774501e-06
2.465691e-06
2.460552e-06
2.4640098e-06
2.4613999e-06
2.4543664e-06
2.4515589e-06
2.4541554e-06
2.4633513e-06
2.4715055e-06
2.4869637e-06
2.4683768e-06
2.4344777e-06
2.4345145e-06
2.4375244e-06
2.4336224e-06
2.4244552e-06
2.418884e-06
2.4074065e-06
2.3908433e-06
2.3831474e-06
2.3771277e-06
4.5821426e-06
2.4934868e-06
2.4890622e-06
2.4906915e-06
2.4889457e-06
2.4887266e-06
2.4883557e-06
2.4882186e-06
2.4881511e-06
2.4881259e-06
2.4881178e-06
2.4881197e-06
2.4881558e-06
2.4882898e-06
2.4885324e-06
2.4882988e-06
2.4857696e-06
2.4786031e-06
2.4659019e-06
2.4515373e-06
2.4419387e-06
2.4382519e-06
2.4341543e-06
2.4292102e-06
2.4269035e-06
2.4329755e-06
2.4516583e-06
2.4800059e-06
2.4881172e-06
2.4681289e-06
2.4678476e-06
2.4775246e-06
2.4664161e-06
2.4605337e-06
2.4636244e-06
2.4616803e-06
2.4552456e-06
2.4518e-06
2.4542043e-06
2.463402e-06
2.474887e-06
2.4874179e-06
2.4689844e-06
2.4516679e-06
2.4335451e-06
2.4376646e-06
2.4340742e-06
2.4249514e-06
2.4193384e-06
2.4081633e-06
2.391581e-06
2.3836085e-06
2.3785797e-06
4.6699547e-06
2.4934527e-06
2.4890696e-06
2.4906901e-06
2.4889567e-06
2.488727e-06
2.4883577e-06
2.4882189e-06
2.4881512e-06
2.4881259e-06
2.4881178e-06
2.4881194e-06
2.488155e-06
2.4882902e-06
2.4885513e-06
2.4883802e-06
2.4859756e-06
2.4789961e-06
2.4664297e-06
2.4520513e-06
2.4423262e-06
2.4385734e-06
2.4344934e-06
2.4295032e-06
2.4269168e-06
2.4322541e-06
2.4500196e-06
2.4785811e-06
2.4888298e-06
2.4690336e-06
2.4670551e-06
2.4775182e-06
2.4671514e-06
2.4605891e-06
2.4631763e-06
2.4618949e-06
2.4561265e-06
2.4521015e-06
2.4542372e-06
2.4632091e-06
2.4761665e-06
2.484156e-06
2.4706723e-06
2.4521973e-06
2.4294113e-06
2.4376945e-06
2.4348157e-06
2.4254472e-06
2.4198453e-06
2.4089351e-06
2.3923502e-06
2.3841043e-06
2.3790864e-06
4.7603413e-06
2.4934158e-06
2.4890799e-06
2.4906884e-06
2.488967e-06
2.4887273e-06
2.4883597e-06
2.4882193e-06
2.4881514e-06
2.488126e-06
2.4881178e-06
2.4881191e-06
2.488154e-06
2.4882903e-06
2.4885689e-06
2.4884601e-06
2.4861837e-06
2.4793963e-06
2.4669691e-06
2.4525753e-06
2.4427143e-06
2.438891e-06
2.4348394e-06
2.429813e-06
2.4269596e-06
2.4315719e-06
2.448381e-06
2.4770309e-06
2.4894935e-06
2.4700763e-06
2.4662617e-06
2.4774041e-06
2.4679113e-06
2.4607344e-06
2.4627068e-06
2.4619981e-06
2.4569415e-06
2.4525857e-06
2.4542871e-06
2.4627425e-06
2.4763644e-06
2.4751234e-06
2.472262e-06
2.4480012e-06
2.4127991e-06
2.4382573e-06
2.4357355e-06
2.4260404e-06
2.4203844e-06
2.4097263e-06
2.3931654e-06
2.3846461e-06
2.3797094e-06
2.3704295e-06
4.8533416e-06
2.4933759e-06
2.489089e-06
2.4906867e-06
2.4889783e-06
2.4887278e-06
2.4883617e-06
2.4882196e-06
2.4881515e-06
2.488126e-06
2.4881178e-06
2.4881189e-06
2.4881531e-06
2.4882902e-06
2.488585e-06
2.4885389e-06
2.4863938e-06
2.479803e-06
2.4675226e-06
2.4531217e-06
2.4431277e-06
2.43923e-06
2.4352032e-06
2.4301437e-06
2.4270396e-06
2.4309367e-06
2.4467523e-06
2.475341e-06
2.4901161e-06
2.4712406e-06
2.4654829e-06
2.4771669e-06
2.4686839e-06
2.4609904e-06
2.4622286e-06
2.4620101e-06
2.4576222e-06
2.4532016e-06
2.4543676e-06
2.4617501e-06
2.476393e-06
2.4727308e-06
2.4735732e-06
2.4469906e-06
2.4346695e-06
2.4378929e-06
2.436254e-06
2.4267548e-06
2.4209342e-06
2.4105618e-06
2.394019e-06
2.3852143e-06
2.3803156e-06
2.3719824e-06
4.9490424e-06
2.4933325e-06
2.4890983e-06
2.4906846e-06
2.4889907e-06
2.4887286e-06
2.4883635e-06
2.4882199e-06
2.4881516e-06
2.488126e-06
2.4881179e-06
2.4881186e-06
2.488152e-06
2.4882897e-06
2.4885993e-06
2.4886168e-06
2.4866071e-06
2.4802162e-06
2.4680888e-06
2.4536802e-06
2.4435435e-06
2.439563e-06
2.4355718e-06
2.4304911e-06
2.4271495e-06
2.4303467e-06
2.4451416e-06
2.4735138e-06
2.4906584e-06
2.4725215e-06
2.4647496e-06
2.4767722e-06
2.4694878e-06
2.4613616e-06
2.4617937e-06
2.4619298e-06
2.458135e-06
2.4539575e-06
2.4545105e-06
2.4614008e-06
2.476572e-06
2.4779863e-06
2.4747255e-06
2.4476137e-06
2.4463253e-06
2.4352029e-06
2.436683e-06
2.4276609e-06
2.4215649e-06
2.411425e-06
2.394916e-06
2.3858106e-06
2.3809376e-06
2.3726049e-06
5.0474545e-06
2.4932861e-06
2.4891135e-06
2.4906817e-06
2.4890029e-06
2.4887295e-06
2.4883653e-06
2.4882202e-06
2.4881518e-06
2.4881261e-06
2.4881179e-06
2.4881184e-06
2.4881509e-06
2.488289e-06
2.4886116e-06
2.4886938e-06
2.4868235e-06
2.480634e-06
2.4686683e-06
2.4542608e-06
2.4439852e-06
2.4399189e-06
2.4359601e-06
2.4308592e-06
2.4272974e-06
2.4298112e-06
2.4435609e-06
2.4715442e-06
2.4909755e-06
2.4738955e-06
2.464068e-06
2.4762328e-06
2.4703126e-06
2.4618167e-06
2.4614764e-06
2.4617333e-06
2.4585186e-06
2.4548403e-06
2.454715e-06
2.4615158e-06
2.4767631e-06
2.4823792e-06
2.4740955e-06
2.4492073e-06
2.4414727e-06
2.4156755e-06
2.4380237e-06
2.4286517e-06
2.4222783e-06
2.4122867e-06
2.3958708e-06
2.3864542e-06
2.3815859e-06
2.3733426e-06
2.3653896e-06
5.1486778e-06
2.493236e-06
2.4891282e-06
2.490678e-06
2.489015e-06
2.4887302e-06
2.4883672e-06
2.4882206e-06
2.4881519e-06
2.4881261e-06
2.4881179e-06
2.4881181e-06
2.4881497e-06
2.4882879e-06
2.488622e-06
2.4887701e-06
2.4870423e-06
2.4810553e-06
2.4692614e-06
2.4548558e-06
2.4444315e-06
2.4402671e-06
2.4363509e-06
2.431243e-06
2.4274745e-06
2.4293299e-06
2.44202e-06
2.4694341e-06
2.4910738e-06
2.4753587e-06
2.4634851e-06
2.4755305e-06
2.4711407e-06
2.4623152e-06
2.4612758e-06
2.4614199e-06
2.4588342e-06
2.4557637e-06
2.4549701e-06
2.4616613e-06
2.4766783e-06
2.4844408e-06
2.4651072e-06
2.4507377e-06
2.4381696e-06
2.4358125e-06
2.4372674e-06
2.4291383e-06
2.4231221e-06
2.4132492e-06
2.396879e-06
2.3871395e-06
2.3822706e-06
2.3740966e-06
2.3669361e-06
5.252738e-06
2.493182e-06
2.4891401e-06
2.4906739e-06
2.4890273e-06
2.488731e-06
2.488369e-06
2.488221e-06
2.4881521e-06
2.4881262e-06
2.4881178e-06
2.4881179e-06
2.4881485e-06
2.4882865e-06
2.4886306e-06
2.4888455e-06
2.4872618e-06
2.4814784e-06
2.4698674e-06
2.4554721e-06
2.4449039e-06
2.4406401e-06
2.4367649e-06
2.4316475e-06
2.4276884e-06
2.4289171e-06
2.4405309e-06
2.4671881e-06
2.4908974e-06
2.4768905e-06
2.4630884e-06
2.4746726e-06