/*--------------------------------*- C++ -*----------------------------------*\
| =========                 |                                                 |
| \\      /  F ield         | OpenFOAM: The Open Source CFD Toolbox           |
|  \\    /   O peration     | Version:  2506                                  |
|   \\  /    A nd           | Website:  www.openfoam.com                      |
|    \\/     M anipulation  |                                                 |
\*---------------------------------------------------------------------------*/
FoamFile
{
    version     2.0;
    format      ascii;
    arch        "LSB;label=32;scalar=64";
    class       volScalarField;
    location    "0.011";
    object      nut;
}
// * * * * * * * * * * * * * * * * * * * * * * * * * * * * * * * * * * * * * //

dimensions      [0 2 -1 0 0 0 0];

internalField   nonuniform List<scalar> 
13761
(
4.0611022e-06
3.6048782e-06
3.604308e-06
3.6043184e-06
3.6043012e-06
3.6043011e-06
3.6042989e-06
3.6042987e-06
3.6042985e-06
3.6042985e-06
3.6042984e-06
3.6042984e-06
3.6042984e-06
3.6042985e-06
3.6042989e-06
3.604301e-06
3.6043076e-06
3.6043216e-06
3.604335e-06
3.6042986e-06
3.6040922e-06
3.6036327e-06
3.6031149e-06
3.6029579e-06
3.6033154e-06
3.6037071e-06
3.6036952e-06
3.603774e-06
3.604252e-06
3.6039553e-06
3.6017604e-06
3.5991309e-06
3.5985464e-06
3.6003417e-06
3.601603e-06
3.6008685e-06
3.602148e-06
3.6081557e-06
3.6190375e-06
3.6358384e-06
3.6502822e-06
3.6419951e-06
3.6141973e-06
3.5989374e-06
4.1135164e-06
3.6049423e-06
3.6043082e-06
3.6043184e-06
3.6043012e-06
3.6043011e-06
3.6042989e-06
3.6042987e-06
3.6042985e-06
3.6042985e-06
3.6042984e-06
3.6042984e-06
3.6042984e-06
3.6042985e-06
3.6042989e-06
3.6043009e-06
3.6043075e-06
3.6043216e-06
3.6043356e-06
3.6043011e-06
3.6040982e-06
3.6036415e-06
3.6031212e-06
3.6029609e-06
3.6033154e-06
3.6037087e-06
3.6037013e-06
3.6037796e-06
3.604261e-06
3.6039811e-06
3.6017983e-06
3.5991464e-06
3.5985336e-06
3.6003224e-06
3.6016054e-06
3.6008771e-06
3.6021221e-06
3.6081045e-06
3.6189846e-06
3.6358576e-06
3.6504925e-06
3.6425639e-06
3.6147616e-06
3.5992624e-06
4.1676847e-06
3.6050151e-06
3.6043084e-06
3.6043184e-06
3.6043012e-06
3.6043011e-06
3.6042989e-06
3.6042987e-06
3.6042985e-06
3.6042985e-06
3.6042984e-06
3.6042984e-06
3.6042984e-06
3.6042985e-06
3.6042989e-06
3.6043009e-06
3.6043075e-06
3.6043217e-06
3.6043363e-06
3.6043034e-06
3.604103e-06
3.6036472e-06
3.6031228e-06
3.602959e-06
3.6033117e-06
3.6037073e-06
3.6037037e-06
3.6037811e-06
3.6042665e-06
3.6040041e-06
3.6018341e-06
3.59916e-06
3.5985184e-06
3.6003e-06
3.6016054e-06
3.6008839e-06
3.6020934e-06
3.6080486e-06
3.6189234e-06
3.6358717e-06
3.6506932e-06
3.6431327e-06
3.6153382e-06
3.5995966e-06
3.6106417e-06
4.2236673e-06
3.6050977e-06
3.6043087e-06
3.6043184e-06
3.6043013e-06
3.6043011e-06
3.6042989e-06
3.6042987e-06
3.6042985e-06
3.6042985e-06
3.6042984e-06
3.6042984e-06
3.6042984e-06
3.6042985e-06
3.6042989e-06
3.6043009e-06
3.6043074e-06
3.6043218e-06
3.604337e-06
3.6043058e-06
3.6041083e-06
3.6036539e-06
3.6031257e-06
3.6029583e-06
3.6033087e-06
3.6037066e-06
3.603707e-06
3.6037837e-06
3.6042729e-06
3.604028e-06
3.6018717e-06
3.5991753e-06
3.5985039e-06
3.6002775e-06
3.6016054e-06
3.6008916e-06
3.6020649e-06
3.6079913e-06
3.6188574e-06
3.6358836e-06
3.6508882e-06
3.6437045e-06
3.6159304e-06
3.5999424e-06
3.6107144e-06
4.2815183e-06
3.6051907e-06
3.604309e-06
3.6043184e-06
3.6043013e-06
3.6043011e-06
3.6042989e-06
3.6042987e-06
3.6042985e-06
3.6042985e-06
3.6042984e-06
3.6042984e-06
3.6042984e-06
3.6042985e-06
3.6042989e-06
3.6043008e-06
3.6043074e-06
3.6043219e-06
3.6043377e-06
3.6043083e-06
3.6041136e-06
3.6036606e-06
3.6031286e-06
3.6029574e-06
3.6033055e-06
3.6037056e-06
3.6037101e-06
3.6037861e-06
3.6042792e-06
3.6040519e-06
3.6019102e-06
3.5991916e-06
3.5984892e-06
3.600254e-06
3.6016047e-06
3.6008996e-06
3.6020361e-06
3.6079318e-06
3.6187862e-06
3.6358924e-06
3.6510769e-06
3.644278e-06
3.6165374e-06
3.6002991e-06
3.6107811e-06
4.3412977e-06
3.6052951e-06
3.6043092e-06
3.6043184e-06
3.6043013e-06
3.6043011e-06
3.604299e-06
3.6042987e-06
3.6042985e-06
3.6042985e-06
3.6042984e-06
3.6042984e-06
3.6042984e-06
3.6042985e-06
3.6042988e-06
3.6043008e-06
3.6043074e-06
3.604322e-06
3.6043384e-06
3.6043107e-06
3.604119e-06
3.6036674e-06
3.6031318e-06
3.6029564e-06
3.6033021e-06
3.6037047e-06
3.6037132e-06
3.6037885e-06
3.6042855e-06
3.6040759e-06
3.6019497e-06
3.5992089e-06
3.5984746e-06
3.6002297e-06
3.6016036e-06
3.600908e-06
3.6020071e-06
3.6078702e-06
3.61871e-06
3.6358975e-06
3.65126e-06
3.644853e-06
3.6171593e-06
3.6006657e-06
3.6108444e-06
4.4030526e-06
3.6054119e-06
3.6043096e-06
3.6043183e-06
3.6043013e-06
3.6043011e-06
3.604299e-06
3.6042987e-06
3.6042985e-06
3.6042985e-06
3.6042984e-06
3.6042984e-06
3.6042984e-06
3.6042985e-06
3.6042988e-06
3.6043008e-06
3.6043073e-06
3.604322e-06
3.6043391e-06
3.6043133e-06
3.6041245e-06
3.6036744e-06
3.6031353e-06
3.6029555e-06
3.6032986e-06
3.6037038e-06
3.6037164e-06
3.603791e-06
3.6042919e-06
3.6041002e-06
3.6019902e-06
3.5992275e-06
3.59846e-06
3.6002046e-06
3.6016019e-06
3.6009168e-06
3.6019778e-06
3.6078066e-06
3.6186293e-06
3.6358981e-06
3.6514382e-06
3.6454291e-06
3.6177959e-06
3.6010418e-06
3.6109056e-06
4.4668504e-06
3.6055421e-06
3.6043099e-06
3.6043183e-06
3.6043013e-06
3.6043011e-06
3.604299e-06
3.6042987e-06
3.6042985e-06
3.6042985e-06
3.6042984e-06
3.6042984e-06
3.6042984e-06
3.6042985e-06
3.6042988e-06
3.6043007e-06
3.6043073e-06
3.6043221e-06
3.6043398e-06
3.6043158e-06
3.6041302e-06
3.6036816e-06
3.6031389e-06
3.6029545e-06
3.6032949e-06
3.6037027e-06
3.6037195e-06
3.6037935e-06
3.6042982e-06
3.6041246e-06
3.6020317e-06
3.5992474e-06
3.5984454e-06
3.6001786e-06
3.6015996e-06
3.6009259e-06
3.6019485e-06
3.607741e-06
3.6185445e-06
3.6358933e-06
3.6516121e-06
3.6460059e-06
3.6184472e-06
3.6014273e-06
3.6109657e-06
3.6238143e-06
4.5327576e-06
3.6056867e-06
3.6043103e-06
3.6043183e-06
3.6043014e-06
3.6043011e-06
3.604299e-06
3.6042987e-06
3.6042985e-06
3.6042985e-06
3.6042984e-06
3.6042984e-06
3.6042984e-06
3.6042985e-06
3.6042988e-06
3.6043007e-06
3.6043072e-06
3.6043222e-06
3.6043405e-06
3.6043184e-06
3.604136e-06
3.6036889e-06
3.6031429e-06
3.6029535e-06
3.6032911e-06
3.6037017e-06
3.6037227e-06
3.6037961e-06
3.6043047e-06
3.6041492e-06
3.6020741e-06
3.5992686e-06
3.5984309e-06
3.6001518e-06
3.6015968e-06
3.6009354e-06
3.601919e-06
3.6076733e-06
3.6184559e-06
3.6358822e-06
3.6517826e-06
3.646583e-06
3.6191131e-06
3.6018225e-06
3.6110257e-06
3.6241106e-06
4.6008289e-06
3.6058471e-06
3.6043108e-06
3.6043183e-06
3.6043014e-06
3.6043011e-06
3.604299e-06
3.6042987e-06
3.6042985e-06
3.6042985e-06
3.6042984e-06
3.6042984e-06
3.6042984e-06
3.6042985e-06
3.6042988e-06
3.6043007e-06
3.6043072e-06
3.6043223e-06
3.6043411e-06
3.6043211e-06
3.604142e-06
3.6036964e-06
3.6031471e-06
3.6029526e-06
3.6032871e-06
3.6037005e-06
3.603726e-06
3.6037986e-06
3.6043111e-06
3.604174e-06
3.6021175e-06
3.5992912e-06
3.5984165e-06
3.6001241e-06
3.6015932e-06
3.6009453e-06
3.6018894e-06
3.6076037e-06
3.6183637e-06
3.6358639e-06
3.6519507e-06
3.6471601e-06
3.6197936e-06
3.6022276e-06
3.6110863e-06
3.6244025e-06
4.6711362e-06
3.6060244e-06
3.6043113e-06
3.6043183e-06
3.6043014e-06
3.6043011e-06
3.604299e-06
3.6042987e-06
3.6042985e-06
3.6042985e-06
3.6042984e-06
3.6042984e-06
3.6042984e-06
3.6042984e-06
3.6042988e-06
3.6043006e-06
3.6043071e-06
3.6043223e-06
3.6043418e-06
3.6043237e-06
3.604148e-06
3.6037041e-06
3.6031516e-06
3.6029516e-06
3.603283e-06
3.6036992e-06
3.6037293e-06
3.6038012e-06
3.6043176e-06
3.604199e-06
3.6021617e-06
3.5993152e-06
3.5984023e-06
3.6000954e-06
3.601589e-06
3.6009555e-06
3.6018598e-06
3.607532e-06
3.6182681e-06
3.6358374e-06
3.6521173e-06
3.6477368e-06
3.6204887e-06
3.6026427e-06
3.6111483e-06
3.6246903e-06
4.7437375e-06
3.6062201e-06
3.6043119e-06
3.6043182e-06
3.6043014e-06
3.6043011e-06
3.604299e-06
3.6042987e-06
3.6042985e-06
3.6042985e-06
3.6042984e-06
3.6042984e-06
3.6042984e-06
3.6042984e-06
3.6042988e-06
3.6043006e-06
3.6043071e-06
3.6043224e-06
3.6043425e-06
3.6043265e-06
3.6041542e-06
3.6037119e-06
3.6031564e-06
3.6029506e-06
3.6032787e-06
3.6036978e-06
3.6037327e-06
3.6038039e-06
3.6043241e-06
3.6042243e-06
3.602207e-06
3.5993407e-06
3.5983883e-06
3.6000659e-06
3.6015841e-06
3.600966e-06
3.6018302e-06
3.6074582e-06
3.6181694e-06
3.6358017e-06
3.6522833e-06
3.6483128e-06
3.6211984e-06
3.6030682e-06
3.6112127e-06
3.6249732e-06
3.615491e-06
4.8187034e-06
3.6064356e-06
3.6043125e-06
3.6043182e-06
3.6043015e-06
3.6043011e-06
3.604299e-06
3.6042987e-06
3.6042985e-06
3.6042985e-06
3.6042984e-06
3.6042984e-06
3.6042984e-06
3.6042984e-06
3.6042988e-06
3.6043006e-06
3.604307e-06
3.6043224e-06
3.6043432e-06
3.6043292e-06
3.6041605e-06
3.6037199e-06
3.6031615e-06
3.6029496e-06
3.6032744e-06
3.6036963e-06
3.6037361e-06
3.6038065e-06
3.6043305e-06
3.6042498e-06
3.6022531e-06
3.5993677e-06
3.5983746e-06
3.6000354e-06
3.6015783e-06
3.6009769e-06
3.6018005e-06
3.6073825e-06
3.6180675e-06
3.6357562e-06
3.6524495e-06
3.6488878e-06
3.6219228e-06
3.6035046e-06
3.6112802e-06
3.6252514e-06
3.6160611e-06
4.8960962e-06
3.6066724e-06
3.6043132e-06
3.6043182e-06
3.6043015e-06
3.6043011e-06
3.604299e-06
3.6042987e-06
3.6042985e-06
3.6042985e-06
3.6042984e-06
3.6042984e-06
3.6042984e-06
3.6042984e-06
3.6042988e-06
3.6043005e-06
3.604307e-06
3.6043225e-06
3.6043439e-06
3.604332e-06
3.6041669e-06
3.603728e-06
3.603167e-06
3.6029487e-06
3.6032698e-06
3.6036945e-06
3.6037395e-06
3.6038093e-06
3.6043369e-06
3.6042757e-06
3.6023002e-06
3.5993962e-06
3.5983613e-06
3.6000041e-06
3.6015718e-06
3.600988e-06
3.6017709e-06
3.6073048e-06
3.6179625e-06
3.6357001e-06
3.6526164e-06
3.6494615e-06
3.6226619e-06
3.6039525e-06
3.6113517e-06
3.6255233e-06
3.6166331e-06
4.9760003e-06
3.6069324e-06
3.604314e-06
3.6043182e-06
3.6043015e-06
3.6043011e-06
3.604299e-06
3.6042987e-06
3.6042985e-06
3.6042985e-06
3.6042984e-06
3.6042984e-06
3.6042984e-06
3.6042984e-06
3.6042987e-06
3.6043005e-06
3.6043069e-06
3.6043225e-06
3.6043445e-06
3.6043348e-06
3.6041734e-06
3.6037364e-06
3.6031729e-06
3.6029477e-06
3.6032651e-06
3.6036927e-06
3.603743e-06
3.6038121e-06
3.6043432e-06
3.6043018e-06
3.6023483e-06
3.5994264e-06
3.5983484e-06
3.5999718e-06
3.6015644e-06
3.6009995e-06
3.6017412e-06
3.6072251e-06
3.6178542e-06
3.635633e-06
3.6527846e-06
3.6500339e-06
3.6234156e-06
3.6044123e-06
3.611428e-06
3.6257881e-06
3.6172078e-06
5.0584739e-06
3.6072171e-06
3.6043149e-06
3.6043182e-06
3.6043016e-06
3.6043011e-06
3.604299e-06
3.6042987e-06
3.6042985e-06
3.6042985e-06
3.6042984e-06
3.6042984e-06
3.6042984e-06
3.6042984e-06
3.6042987e-06
3.6043005e-06
3.6043068e-06
3.6043225e-06
3.6043452e-06
3.6043377e-06
3.60418e-06
3.6037451e-06
3.6031791e-06
3.6029467e-06
3.6032603e-06
3.6036907e-06
3.6037464e-06
3.603815e-06
3.6043493e-06
3.6043284e-06
3.6023973e-06
3.5994581e-06
3.5983359e-06
3.5999385e-06
3.6015561e-06
3.6010112e-06
3.6017117e-06
3.6071435e-06
3.6177426e-06
3.6355546e-06
3.6529538e-06
3.6506049e-06
3.6241837e-06
3.6048847e-06
3.6115099e-06
3.6260451e-06
3.6177854e-06
5.1435981e-06
3.6075286e-06
3.6043159e-06
3.6043181e-06
3.6043016e-06
3.6043011e-06
3.604299e-06
3.6042987e-06
3.6042985e-06
3.6042985e-06
3.6042984e-06
3.6042984e-06
3.6042984e-06
3.6042984e-06
3.6042987e-06
3.6043004e-06
3.6043068e-06
3.6043226e-06
3.6043458e-06
3.6043405e-06
3.6041867e-06
3.603754e-06
3.6031857e-06
3.6029458e-06
3.6032553e-06
3.6036886e-06
3.6037499e-06
3.603818e-06
3.6043553e-06
3.6043553e-06
3.6024472e-06
3.5994916e-06
3.598324e-06
3.5999044e-06
3.6015469e-06
3.6010231e-06
3.6016822e-06
3.6070599e-06
3.6176274e-06
3.6354649e-06
3.6531241e-06
3.6511746e-06
3.6249663e-06
3.6053702e-06
3.6115985e-06
3.6262934e-06
3.618366e-06
3.6126432e-06
5.2314395e-06
3.607869e-06
3.6043171e-06
3.6043181e-06
3.6043016e-06
3.6043011e-06
3.604299e-06
3.6042987e-06
3.6042985e-06
3.6042985e-06
3.6042984e-06
3.6042984e-06
3.6042984e-06
3.6042984e-06
3.6042987e-06
3.6043004e-06
3.6043067e-06
3.6043226e-06
3.6043465e-06
3.6043434e-06
3.6041935e-06
3.6037632e-06
3.6031927e-06
3.6029448e-06
3.6032501e-06
3.6036864e-06
3.6037533e-06
3.6038211e-06
3.6043612e-06
3.6043826e-06
3.6024981e-06
3.5995266e-06
3.5983127e-06
3.5998694e-06
3.6015367e-06
3.6010352e-06
3.6016528e-06
3.6069745e-06
3.6175087e-06
3.635364e-06
3.6532945e-06
3.6517433e-06
3.6257631e-06
3.6058694e-06
3.6116944e-06
3.6265322e-06
3.6189506e-06
3.6130829e-06
5.3220743e-06
3.6082404e-06
3.6043184e-06
3.6043181e-06
3.6043017e-06
3.6043011e-06
3.604299e-06
3.6042987e-06
3.6042985e-06
3.6042985e-06
3.6042984e-06
3.6042984e-06
3.6042984e-06
3.6042984e-06
3.6042987e-06
3.6043003e-06
3.6043066e-06
3.6043226e-06
3.6043471e-06
3.6043463e-06
3.6042005e-06
3.6037728e-06
3.6032002e-06
3.6029439e-06
3.6032448e-06
3.603684e-06
3.6037567e-06
3.6038242e-06
3.6043669e-06
3.6044104e-06
3.6025499e-06
3.5995634e-06
3.5983021e-06
3.5998335e-06
3.6015254e-06
3.6010475e-06
3.6016235e-06
3.6068871e-06
3.6173861e-06
3.6352523e-06
3.6534643e-06
3.6523116e-06
3.6265738e-06
3.6063832e-06
3.6117981e-06
3.6267611e-06
3.6195382e-06
3.6135287e-06
5.4155901e-06
3.6086451e-06
3.6043198e-06
3.6043181e-06
3.6043017e-06
3.604301e-06
3.604299e-06
3.6042987e-06
3.6042985e-06
3.6042985e-06
3.6042984e-06
3.6042984e-06
3.6042984e-06
3.6042984e-06
3.6042987e-06
3.6043003e-06
3.6043065e-06
3.6043226e-06
3.6043477e-06
3.6043492e-06
3.6042076e-06
3.6037826e-06
3.6032081e-06
3.6029428e-06
3.6032393e-06
3.6036816e-06
3.60376e-06
3.6038275e-06
3.6043724e-06
3.6044385e-06
3.6026026e-06
3.599602e-06
3.5982922e-06
3.5997968e-06
3.6015132e-06
3.6010599e-06
3.6015944e-06
3.606798e-06
3.6172597e-06
3.6351304e-06
3.6536319e-06
3.6528801e-06
3.6273983e-06
3.6069116e-06
3.6119105e-06
3.6269794e-06
3.6201289e-06
3.6139823e-06
5.5120468e-06
3.6090858e-06
3.6043215e-06
3.604318e-06
3.6043017e-06
3.604301e-06
3.604299e-06
3.6042987e-06
3.6042985e-06
3.6042985e-06
3.6042984e-06
3.6042984e-06
3.6042984e-06
3.6042984e-06
3.6042987e-06
3.6043003e-06
3.6043065e-06
3.6043226e-06
3.6043483e-06
3.6043521e-06
3.6042149e-06
3.6037927e-06
3.6032165e-06
3.6029417e-06
3.6032336e-06
3.603679e-06
3.6037633e-06
3.6038308e-06
3.6043779e-06
3.604467e-06
3.6026562e-06
3.5996423e-06
3.598283e-06
3.5997594e-06
3.6014998e-06
3.6010724e-06
3.6015656e-06
3.606707e-06
3.6171291e-06
3.6349989e-06
3.6537959e-06
3.6534498e-06
3.6282361e-06
3.6074549e-06
3.6120329e-06
3.6271869e-06
3.6207227e-06
3.6144442e-06
3.6225712e-06
5.6115402e-06
3.609565e-06
3.6043233e-06
3.604318e-06
3.6043018e-06
3.604301e-06
3.604299e-06
3.6042987e-06
3.6042985e-06
3.6042985e-06
3.6042984e-06
3.6042984e-06
3.6042984e-06
3.6042984e-06
3.6042987e-06
3.6043002e-06
3.6043064e-06
3.6043225e-06
3.6043489e-06
3.6043549e-06
3.6042223e-06
3.6038031e-06
3.6032255e-06
3.6029405e-06
3.6032278e-06
3.6036763e-06
3.6037665e-06
3.6038342e-06
3.6043832e-06
3.6044959e-06
3.6027107e-06
3.5996845e-06
3.5982747e-06
3.5997212e-06
3.6014852e-06
3.6010849e-06
3.6015369e-06
3.6066143e-06
3.6169944e-06
3.6348585e-06
3.6539542e-06
3.6540215e-06
3.6290871e-06
3.6080134e-06
3.6121659e-06
3.6273829e-06
3.6213195e-06
3.6149163e-06
3.6229022e-06
5.7141435e-06
3.6100855e-06
3.6043254e-06
3.604318e-06
3.6043018e-06
3.604301e-06
3.604299e-06
3.6042987e-06
3.6042985e-06
3.6042985e-06
3.6042984e-06
3.6042984e-06
3.6042984e-06
3.6042984e-06
3.6042986e-06
3.6043002e-06
3.6043063e-06
3.6043225e-06
3.6043495e-06
3.6043578e-06
3.6042298e-06
3.6038137e-06
3.6032351e-06
3.6029393e-06
3.6032218e-06
3.6036735e-06
3.6037696e-06
3.6038376e-06
3.6043884e-06
3.604525e-06
3.6027661e-06
3.5997285e-06
3.5982673e-06
3.5996825e-06
3.6014695e-06
3.6010975e-06
3.6015086e-06
3.6065198e-06
3.6168553e-06
3.6347098e-06
3.6541049e-06
3.6545968e-06
3.6299503e-06
3.6085877e-06
3.6123092e-06
3.6275686e-06
3.6219191e-06
3.6153979e-06
3.6232337e-06
5.819931e-06
3.6106504e-06
3.6043278e-06
3.6043179e-06
3.6043019e-06
3.604301e-06
3.6042991e-06
3.6042987e-06
3.6042985e-06
3.6042985e-06
3.6042984e-06
3.6042984e-06
3.6042984e-06
3.6042984e-06
3.6042986e-06
3.6043001e-06
3.6043062e-06
3.6043224e-06
3.6043501e-06
3.6043606e-06
3.6042376e-06
3.6038247e-06
3.6032451e-06
3.6029381e-06
3.6032156e-06
3.6036706e-06
3.6037727e-06
3.6038411e-06
3.6043935e-06
3.6045543e-06
3.6028223e-06
3.5997744e-06
3.5982609e-06
3.5996431e-06
3.6014525e-06
3.6011101e-06
3.6014805e-06
3.6064236e-06
3.6167118e-06
3.6345536e-06
3.6542461e-06
3.6551771e-06
3.6308249e-06
3.6091784e-06
3.6124619e-06
3.6277454e-06
3.6225211e-06
3.61589e-06
3.6235668e-06
3.622535e-06
5.9289989e-06
3.6112628e-06
3.6043304e-06
3.6043179e-06
3.6043019e-06
3.604301e-06
3.6042991e-06
3.6042987e-06
3.6042985e-06
3.6042985e-06
3.6042984e-06
3.6042984e-06
3.6042984e-06
3.6042984e-06
3.6042986e-06
3.6043001e-06
3.6043061e-06
3.6043224e-06
3.6043506e-06
3.6043633e-06
3.6042455e-06
3.6038358e-06
3.6032557e-06
3.6029368e-06
3.6032092e-06
3.6036675e-06
3.6037756e-06
3.6038444e-06
3.6043986e-06
3.6045839e-06
3.6028796e-06
3.5998223e-06
3.5982556e-06
3.5996031e-06
3.6014343e-06
3.6011227e-06
3.6014528e-06
3.6063256e-06
3.6165639e-06
3.6343902e-06
3.6543756e-06
3.6557636e-06
3.6317104e-06
3.6097858e-06
3.6126244e-06
3.6279146e-06
3.6231242e-06
3.616393e-06
3.6239024e-06
3.6232097e-06
6.0414199e-06
3.6119261e-06
3.6043334e-06
3.6043179e-06
3.604302e-06
3.604301e-06
3.6042991e-06
3.6042987e-06
3.6042985e-06
3.6042985e-06
3.6042984e-06
3.6042984e-06
3.6042984e-06
3.6042984e-06
3.6042986e-06
3.6043e-06
3.604306e-06
3.6043223e-06
3.6043511e-06
3.6043661e-06
3.6042536e-06
3.6038472e-06
3.6032667e-06
3.6029357e-06
3.6032027e-06
3.6036643e-06
3.6037784e-06
3.6038477e-06
3.6044035e-06
3.6046136e-06
3.602938e-06
3.5998722e-06
3.5982515e-06
3.5995625e-06
3.6014146e-06
3.6011352e-06
3.6014256e-06
3.606226e-06
3.6164116e-06
3.6342202e-06
3.6544918e-06
3.6563578e-06
3.6326063e-06
3.6104103e-06
3.612797e-06
3.6280773e-06
3.6237276e-06
3.6169076e-06
3.6242397e-06
3.6238807e-06
6.1572874e-06
3.6126437e-06
3.6043368e-06
3.6043179e-06
3.604302e-06
3.604301e-06
3.6042991e-06
3.6042987e-06
3.6042985e-06
3.6042985e-06
3.6042984e-06
3.6042984e-06
3.6042984e-06
3.6042984e-06
3.6042986e-06
3.6043e-06
3.6043059e-06
3.6043222e-06
3.6043516e-06
3.6043688e-06
3.6042619e-06
3.6038589e-06
3.6032781e-06
3.6029348e-06
3.603196e-06
3.6036609e-06
3.6037812e-06
3.603851e-06
3.6044084e-06
3.6046434e-06
3.6029976e-06
3.5999241e-06
3.5982487e-06
3.5995214e-06
3.6013936e-06
3.6011478e-06
3.6013988e-06
3.6061249e-06
3.6162548e-06
3.6340436e-06
3.6545932e-06
3.6569609e-06
3.633512e-06
3.6110523e-06
3.6129805e-06
3.6282332e-06
3.6243325e-06
3.6174334e-06
3.6245794e-06
3.6245487e-06
6.2766738e-06
3.6134195e-06
3.6043405e-06
3.6043178e-06
3.6043021e-06
3.604301e-06
3.6042991e-06
3.6042987e-06
3.6042985e-06
3.6042985e-06
3.6042984e-06
3.6042984e-06
3.6042984e-06
3.6042984e-06
3.6042986e-06
3.6042999e-06
3.6043058e-06
3.6043221e-06
3.6043521e-06
3.6043715e-06
3.6042703e-06
3.6038709e-06
3.6032898e-06
3.6029342e-06
3.6031891e-06
3.6036573e-06
3.6037838e-06
3.6038541e-06
3.6044133e-06
3.6046734e-06
3.6030586e-06
3.5999781e-06
3.5982474e-06
3.5994798e-06
3.6013711e-06
3.6011604e-06
3.6013726e-06
3.606022e-06
3.6160932e-06
3.63386e-06
3.6546778e-06
3.6575739e-06
3.6344282e-06
3.6117134e-06
3.6131757e-06
3.6283816e-06
3.6249399e-06
3.6179692e-06
3.6249219e-06
3.6252141e-06
3.6148555e-06
6.3996751e-06
3.614258e-06
3.6043448e-06
3.6043178e-06
3.6043021e-06
3.604301e-06
3.6042991e-06
3.6042987e-06
3.6042985e-06
3.6042985e-06
3.6042984e-06
3.6042984e-06
3.6042984e-06
3.6042984e-06
3.6042986e-06
3.6042999e-06
3.6043057e-06
3.604322e-06
3.6043525e-06
3.6043741e-06
3.604279e-06
3.6038832e-06
3.6033019e-06
3.602934e-06
3.6031821e-06
3.6036536e-06
3.6037863e-06
3.6038572e-06
3.6044181e-06
3.6047034e-06
3.6031212e-06
3.6000342e-06
3.5982476e-06
3.5994376e-06
3.601347e-06
3.6011729e-06
3.6013469e-06
3.6059172e-06
3.6159264e-06
3.6336681e-06
3.6547435e-06
3.658197e-06
3.635356e-06
3.6123953e-06
3.6133828e-06
3.6285217e-06
3.6255491e-06
3.6185155e-06
3.6252675e-06
3.625878e-06
3.6156854e-06
6.5263745e-06
3.6151636e-06
3.6043495e-06
3.6043178e-06
3.6043022e-06
3.604301e-06
3.6042991e-06
3.6042987e-06
3.6042985e-06
3.6042985e-06
3.6042984e-06
3.6042984e-06
3.6042984e-06
3.6042984e-06
3.6042985e-06
3.6042998e-06
3.6043055e-06
3.6043219e-06
3.6043529e-06
3.6043767e-06
3.6042878e-06
3.6038958e-06
3.6033142e-06
3.6029343e-06
3.6031748e-06
3.6036496e-06
3.6037886e-06
3.6038602e-06
3.6044228e-06
3.6047334e-06
3.6031855e-06
3.6000924e-06
3.5982496e-06
3.5993949e-06
3.6013212e-06
3.6011853e-06
3.6013219e-06
3.6058105e-06
3.6157543e-06
3.6334676e-06
3.6547895e-06
3.6588302e-06
3.6362955e-06
3.6130987e-06
3.6136026e-06
3.6286536e-06
3.62616e-06
3.6190726e-06
3.6256159e-06
3.626539e-06
3.616524e-06
6.6568578e-06
3.6161408e-06
3.6043548e-06
3.6043177e-06
3.6043022e-06
3.604301e-06
3.6042991e-06
3.6042987e-06
3.6042985e-06
3.6042985e-06
3.6042984e-06
3.6042984e-06
3.6042984e-06
3.6042984e-06
3.6042985e-06
3.6042998e-06
3.6043054e-06
3.6043218e-06
3.6043533e-06
3.6043793e-06
3.6042967e-06
3.6039087e-06
3.6033269e-06
3.6029351e-06
3.6031673e-06
3.6036453e-06
3.6037907e-06
3.6038632e-06
3.6044274e-06
3.6047633e-06
3.6032516e-06
3.6001527e-06
3.5982533e-06
3.5993517e-06
3.6012935e-06
3.6011977e-06
3.6012976e-06
3.605702e-06
3.6155769e-06
3.6332578e-06
3.6548154e-06
3.659473e-06
3.6372469e-06
3.6138244e-06
3.6138359e-06
3.6287773e-06
3.6267721e-06
3.6196399e-06
3.6259685e-06
3.6271969e-06
3.6173723e-06
3.6127521e-06
6.7912152e-06
3.6171947e-06
3.6043608e-06
3.6043177e-06
3.6043023e-06
3.604301e-06
3.6042991e-06
3.6042987e-06
3.6042985e-06
3.6042985e-06
3.6042984e-06
3.6042984e-06
3.6042984e-06
3.6042984e-06
3.6042985e-06
3.6042997e-06
3.6043053e-06
3.6043216e-06
3.6043537e-06
3.6043819e-06
3.6043058e-06
3.603922e-06
3.6033399e-06
3.6029365e-06
3.6031596e-06
3.6036408e-06
3.6037926e-06
3.6038661e-06
3.6044318e-06
3.6047931e-06
3.6033196e-06
3.6002152e-06
3.5982589e-06
3.599308e-06
3.6012639e-06
3.6012099e-06
3.601274e-06
3.6055916e-06
3.6153941e-06
3.6330383e-06
3.6548211e-06
3.6601241e-06
3.638211e-06
3.6145729e-06
3.6140837e-06
3.628893e-06
3.6273848e-06
3.6202169e-06
3.6263264e-06
3.6278512e-06
3.6182311e-06
3.6134831e-06
6.9295274e-06
3.6183306e-06
3.6043674e-06
3.6043177e-06
3.6043023e-06
3.604301e-06
3.6042991e-06
3.6042987e-06
3.6042985e-06
3.6042985e-06
3.6042984e-06
3.6042984e-06
3.6042984e-06
3.6042984e-06
3.6042985e-06
3.6042997e-06
3.6043051e-06
3.6043215e-06
3.604354e-06
3.6043844e-06
3.6043149e-06
3.6039358e-06
3.6033532e-06
3.6029386e-06
3.6031516e-06
3.6036361e-06
3.6037942e-06
3.6038691e-06
3.6044361e-06
3.6048227e-06
3.6033897e-06
3.6002798e-06
3.5982665e-06
3.5992639e-06
3.6012324e-06
3.601222e-06
3.6012513e-06
3.6054795e-06
3.6152059e-06
3.6328083e-06
3.6548066e-06
3.6607818e-06
3.6391886e-06
3.6153449e-06
3.614347e-06
3.6290009e-06
3.6279977e-06
3.6208038e-06
3.6266907e-06
3.6285011e-06
3.6190991e-06
3.6142277e-06
7.0718889e-06
3.619554e-06
3.6043749e-06
3.6043177e-06
3.6043024e-06
3.604301e-06
3.6042991e-06
3.6042987e-06
3.6042985e-06
3.6042985e-06
3.6042984e-06
3.6042984e-06
3.6042984e-06
3.6042984e-06
3.6042985e-06
3.6042996e-06
3.604305e-06
3.6043213e-06
3.6043542e-06
3.6043869e-06
3.6043242e-06
3.60395e-06
3.6033668e-06
3.6029413e-06
3.6031434e-06
3.603631e-06
3.6037956e-06
3.6038721e-06
3.6044402e-06
3.604852e-06
3.6034618e-06
3.6003465e-06
3.5982761e-06
3.5992196e-06
3.6011989e-06
3.6012339e-06
3.6012295e-06
3.6053657e-06
3.6150122e-06
3.6325674e-06
3.6547725e-06
3.6614436e-06
3.6401811e-06
3.6161408e-06
3.6146267e-06
3.6291012e-06
3.62861e-06
3.6214011e-06
3.6270621e-06
3.629146e-06
3.6199764e-06
3.6149875e-06
7.2183812e-06
3.620871e-06
3.6043832e-06
3.6043177e-06
3.6043025e-06
3.604301e-06
3.6042991e-06
3.6042987e-06
3.6042985e-06
3.6042985e-06
3.6042984e-06
3.6042984e-06
3.6042984e-06
3.6042984e-06
3.6042985e-06
3.6042995e-06
3.6043048e-06
3.6043211e-06
3.6043544e-06
3.6043894e-06
3.6043335e-06
3.6039648e-06
3.6033808e-06
3.6029448e-06
3.6031348e-06
3.6036256e-06
3.6037966e-06
3.6038751e-06
3.6044441e-06
3.604881e-06
3.6035362e-06
3.6004155e-06
3.598288e-06
3.599175e-06
3.6011635e-06
3.6012456e-06
3.6012086e-06
3.6052502e-06
3.614813e-06
3.6323148e-06
3.654719e-06
3.6621067e-06
3.64119e-06
3.6169613e-06
3.6149238e-06
3.6291942e-06
3.6292211e-06
3.6220085e-06
3.6274405e-06
3.6297862e-06
3.6208627e-06
3.6157625e-06
3.6109948e-06
7.3690893e-06
3.6222877e-06
3.6043925e-06
3.6043177e-06
3.6043025e-06
3.604301e-06
3.6042992e-06
3.6042987e-06
3.6042985e-06
3.6042985e-06
3.6042984e-06
3.6042984e-06
3.6042984e-06
3.6042984e-06
3.6042985e-06
3.6042995e-06
3.6043047e-06
3.6043209e-06
3.6043546e-06
3.6043917e-06
3.6043428e-06
3.6039802e-06
3.6033951e-06
3.6029491e-06
3.6031257e-06
3.6036198e-06
3.6037975e-06
3.6038781e-06
3.6044478e-06
3.6049096e-06
3.6036127e-06
3.6004866e-06
3.5983022e-06
3.5991302e-06
3.601126e-06
3.601257e-06
3.6011887e-06
3.6051334e-06
3.6146082e-06
3.6320502e-06
3.6546466e-06
3.6627676e-06
3.6422172e-06
3.6178068e-06
3.6152394e-06
3.6292802e-06
3.6298302e-06
3.6226263e-06
3.6278265e-06
3.6304221e-06
3.6217575e-06
3.6165543e-06
3.6118454e-06
7.5241043e-06
3.623811e-06
3.6044029e-06
3.6043177e-06
3.6043026e-06
3.604301e-06
3.6042992e-06
3.6042987e-06
3.6042985e-06
3.6042985e-06
3.6042984e-06
3.6042984e-06
3.6042984e-06
3.6042984e-06
3.6042984e-06
3.6042994e-06
3.6043045e-06
3.6043207e-06
3.6043548e-06
3.604394e-06
3.6043521e-06
3.6039964e-06
3.6034097e-06
3.6029542e-06
3.6031163e-06
3.6036137e-06
3.6037981e-06
3.6038812e-06
3.6044511e-06
3.6049378e-06
3.6036915e-06
3.6005601e-06
3.5983187e-06
3.5990855e-06
3.6010864e-06
3.6012679e-06
3.6011699e-06
3.6050152e-06
3.6143979e-06
3.631773e-06
3.6545555e-06
3.6634228e-06
3.6432646e-06
3.618678e-06
3.6155744e-06
3.6293598e-06
3.6304366e-06
3.6232551e-06
3.6282204e-06
3.6310546e-06
3.622659e-06
3.6173621e-06
3.6127022e-06
7.6835129e-06
3.6254478e-06
3.6044146e-06
3.6043177e-06
3.6043027e-06
3.604301e-06
3.6042992e-06
3.6042987e-06
3.6042985e-06
3.6042985e-06
3.6042984e-06
3.6042984e-06
3.6042984e-06
3.6042984e-06
3.6042984e-06
3.6042994e-06
3.6043044e-06
3.6043205e-06
3.6043549e-06
3.6043963e-06
3.6043613e-06
3.6040134e-06
3.6034245e-06
3.60296e-06
3.6031064e-06
3.6036071e-06
3.6037985e-06
3.6038842e-06
3.6044542e-06
3.6049656e-06
3.6037725e-06
3.6006361e-06
3.5983378e-06
3.5990409e-06
3.6010448e-06
3.6012784e-06
3.6011521e-06
3.6048958e-06
3.6141818e-06
3.6314829e-06
3.6544457e-06
3.6640685e-06
3.6443344e-06
3.6195753e-06
3.6159299e-06
3.6294336e-06
3.6310391e-06
3.6238949e-06
3.6286229e-06
3.6316844e-06
3.6235659e-06
3.6181863e-06
3.6135666e-06
3.6025774e-06
7.8473894e-06
3.6272056e-06
3.6044275e-06
3.6043177e-06
3.6043027e-06
3.604301e-06
3.6042992e-06
3.6042987e-06
3.6042985e-06
3.6042985e-06
3.6042984e-06
3.6042984e-06
3.6042984e-06
3.6042984e-06
3.6042984e-06
3.6042993e-06
3.6043042e-06
3.6043202e-06
3.6043549e-06
3.6043984e-06
3.6043703e-06
3.6040314e-06
3.6034396e-06
3.6029667e-06
3.6030962e-06
3.6036001e-06
3.6037987e-06
3.6038873e-06
3.6044568e-06
3.604993e-06
3.6038556e-06
3.6007146e-06
3.5983594e-06
3.5989966e-06
3.6010012e-06
3.6012883e-06
3.6011355e-06
3.6047755e-06
3.6139601e-06
3.6311796e-06
3.6543171e-06
3.6647013e-06
3.6454285e-06
3.6204994e-06
3.6163068e-06
3.6295023e-06
3.631637e-06
3.6245458e-06
3.6290347e-06
3.6323106e-06
3.6244788e-06
3.619027e-06
3.6144396e-06
3.6036971e-06
8.0158282e-06
3.6290923e-06
3.604442e-06
3.6043177e-06
3.6043028e-06
3.604301e-06
3.6042992e-06
3.6042987e-06
3.6042985e-06
3.6042985e-06
3.6042984e-06
3.6042984e-06
3.6042984e-06
3.6042984e-06
3.6042984e-06
3.6042993e-06
3.604304e-06
3.6043199e-06
3.6043549e-06
3.6044005e-06
3.604379e-06
3.6040503e-06
3.6034548e-06
3.6029742e-06
3.6030857e-06
3.6035925e-06
3.6037987e-06
3.6038904e-06
3.604459e-06
3.6050198e-06
3.6039406e-06
3.600796e-06
3.5983837e-06
3.5989528e-06
3.6009556e-06
3.6012973e-06
3.6011202e-06
3.6046544e-06
3.6137326e-06
3.6308628e-06
3.654169e-06
3.6653177e-06
3.6465485e-06
3.621451e-06
3.6167062e-06
3.6295668e-06
3.6322292e-06
3.6252081e-06
3.6294564e-06
3.6329331e-06
3.6253985e-06
3.6198828e-06
3.6153206e-06
3.6048249e-06
8.1889e-06
3.6311163e-06
3.6044581e-06
3.6043178e-06
3.6043029e-06
3.604301e-06
3.6042992e-06
3.6042987e-06
3.6042985e-06
3.6042985e-06
3.6042984e-06
3.6042984e-06
3.6042984e-06
3.6042984e-06
3.6042984e-06
3.6042992e-06
3.6043038e-06
3.6043196e-06
3.6043549e-06
3.6044024e-06
3.6043876e-06
3.6040702e-06
3.6034703e-06
3.6029823e-06
3.603075e-06
3.6035844e-06
3.6037986e-06
3.6038936e-06
3.6044608e-06
3.6050463e-06
3.6040275e-06
3.6008804e-06
3.5984108e-06
3.5989095e-06
3.6009079e-06
3.6013055e-06
3.6011061e-06
3.6045327e-06
3.6134993e-06
3.6305325e-06
3.6540006e-06
3.665915e-06
3.6476957e-06
3.6224309e-06
3.617129e-06
3.6296282e-06
3.6328148e-06
3.6258819e-06
3.6298884e-06
3.6335518e-06
3.6263253e-06
3.6207531e-06
3.6162101e-06
3.6059617e-06
3.5901965e-06
8.3666963e-06
3.6332863e-06
3.604476e-06
3.6043178e-06
3.6043029e-06
3.604301e-06
3.6042992e-06
3.6042987e-06
3.6042985e-06
3.6042985e-06
3.6042984e-06
3.6042984e-06
3.6042984e-06
3.6042984e-06
3.6042984e-06
3.6042991e-06
3.6043036e-06
3.6043193e-06
3.6043548e-06
3.6044043e-06
3.6043959e-06
3.604091e-06
3.6034861e-06
3.6029911e-06
3.6030644e-06
3.6035757e-06
3.6037982e-06
3.6038967e-06
3.604462e-06
3.6050724e-06
3.6041161e-06
3.6009682e-06
3.5984405e-06
3.598867e-06
3.6008583e-06
3.6013124e-06
3.6010934e-06
3.6044107e-06
3.6132603e-06
3.6301886e-06
3.653811e-06
3.6664907e-06
3.6488707e-06
3.6234403e-06
3.6175762e-06
3.6296877e-06
3.6333927e-06
3.6265672e-06
3.6303312e-06
3.6341665e-06
3.627258e-06
3.6216393e-06
3.6171082e-06
3.6071084e-06
3.5915668e-06
8.5492856e-06
3.6356116e-06
3.6044959e-06
3.6043179e-06
3.604303e-06
3.604301e-06
3.6042992e-06
3.6042987e-06
3.6042985e-06
3.6042985e-06
3.6042984e-06
3.6042984e-06
3.6042984e-06
3.6042984e-06
3.6042984e-06
3.6042991e-06
3.6043035e-06
3.604319e-06
3.6043547e-06
3.604406e-06
3.604404e-06
3.6041127e-06
3.6035023e-06
3.6030005e-06
3.6030541e-06
3.6035662e-06
3.6037977e-06
3.6038998e-06
3.6044626e-06
3.605098e-06
3.604206e-06