/*--------------------------------*- C++ -*----------------------------------*\
| =========                 |                                                 |
| \\      /  F ield         | OpenFOAM: The Open Source CFD Toolbox           |
|  \\    /   O peration     | Version:  2506                                  |
|   \\  /    A nd           | Website:  www.openfoam.com                      |
|    \\/     M anipulation  |                                                 |
\*---------------------------------------------------------------------------*/
FoamFile
{
    version     2.0;
    format      ascii;
    arch        "LSB;label=32;scalar=64";
    class       volScalarField;
    location    "0.2";
    object      omega;
}
// * * * * * * * * * * * * * * * * * * * * * * * * * * * * * * * * * * * * * //

dimensions      [0 0 -1 0 0 0 0];

internalField   nonuniform List<scalar> 
1375
(
1563.6646
566.20566
211.18257
171.80773
1598.0149
573.89495
214.7717
202.45138
111.17372
100.80277
68.608118
61.366084
49.074587
45.624626
42.328268
40.855534
1633.7067
625.11839
225.6823
213.37502
114.44523
100.77862
65.905891
61.073874
49.312751
46.664421
42.642547
41.062577
39.985926
39.151607
38.594118
38.224065
37.984768
37.829165
37.683964
37.593432
37.547085
37.52022
1669.1216
653.60881
245.895
212.6413
114.45328
99.444459
64.890181
59.225721
49.045162
46.475063
42.846073
41.175919
40.028558
39.27497
38.630197
38.242829
37.998809
37.827068
37.687543
37.573964
37.514234
37.479204
37.465548
37.463133
37.470612
37.481238
37.503335
37.534064
37.575032
37.619334
37.675034
37.741813
37.820615
37.914039
1705.1379
645.67046
251.51253
202.59406
116.24134
97.497463
66.180336
59.012262
49.100597
46.906618
44.082265
41.454267
40.162505
39.377676
38.732799
38.259869
37.977281
37.799135
37.661539
37.536919
37.467029
37.426608
37.408476
37.402802
37.408761
37.419928
37.433023
37.457894
37.493677
37.533101
37.583616
37.643916
37.71592
37.802037
37.904719
38.027615
38.173654
38.347929
38.557188
38.81011
39.117082
39.492731
39.956662
40.537474
41.277996
42.250633
43.591914
45.578319
48.93794
1741.8979
636.74975
249.25686
191.28221
120.36494
97.666066
69.002114
60.273083
49.797439
49.576334
44.038801
41.655484
40.612078
39.427515
38.820791
38.338111
37.983665
37.804083
37.620874
37.497024
37.411889
37.370667
37.348816
37.342811
37.345148
37.353435
37.363094
37.38395
37.413351
37.448859
37.494075
37.548653
37.614156
37.693373
37.788486
37.903143
38.040139
38.204141
38.402063
38.642366
38.93501
39.294281
39.739333
40.297915
41.01159
41.951947
43.252305
45.180197
48.466181
1781.0926
633.74356
246.97281
189.17678
123.04985
100.18464
73.746734
61.558027
50.824857
49.202193
43.957176
42.104036
40.571972
39.750589
38.858304
38.343675
37.991547
37.798105
37.691266
37.48512
37.395918
37.337186
37.306523
37.291471
37.286303
37.286776
37.292453
37.310789
37.334806
37.366878
37.406258
37.455539
37.515312
37.587813
37.675968
37.782695
37.911132
38.065525
38.252876
38.481287
38.760442
39.104306
39.531686
40.069515
40.758157
41.668525
42.930552
44.804181
48.022592
1821.9815
669.73758
251.7241
188.72509
122.72821
105.14116
76.493002
62.446898
51.697963
48.525369
43.759224
42.260732
40.538664
39.712957
39.069828
38.351049
38.054094
37.780956
37.655298
37.463503
37.360673
37.294624
37.257521
37.238055
37.228188
37.222813
37.224855
37.238527
37.258541
37.286325
37.320358
37.36442
37.418863
37.485048
37.566681
37.665924
37.786257
37.931707
38.109219
38.326342
38.59289
38.922342
39.333102
39.85146
40.516782
41.39929
42.625337
44.448214
47.604879
1860.0088
692.82833
257.58207
187.1888
121.3377
106.57921
75.787435
63.069021
51.620459
48.344028
43.735731
42.318665
40.65917
39.735871
39.048627
38.585044
38.051525
37.772454
37.5859
37.424221
37.295041
37.240132
37.197511
37.177291
37.16599
37.158834
37.160643
37.168112
37.184728
37.206088
37.236081
37.275755
37.324745
37.384917
37.460387
37.552592
37.665351
37.802402
37.970636
38.177155
38.431912
38.747868
39.143034
39.643157
40.286772
41.143318
42.335536
44.1115
47.211544
1901.6151
695.32052
266.66282
184.89901
118.00087
104.94448
73.758136
62.808054
51.207482
48.218184
43.89581
42.529668
40.820486
39.881165
39.067669
38.47955
38.020836
37.739744
37.631703
37.385804
37.277092
37.198427
37.145039
37.119824
37.105751
37.096559
37.093302
37.098211
37.111605
37.126925
37.153594
37.189197
37.232713
37.287354
37.357012
37.442614
37.548194
37.677388
37.836831
38.033429
38.27719
38.580458
38.96101
39.444075
40.067511
40.899794
42.060268
43.792945
46.841377
1930.3186
682.49316
267.28647
181.51674
113.49439
99.735274
71.239611
62.042059
51.214679
48.210987
44.28528
43.011213
40.951983
39.900656
39.101297
38.442452
38.003083
37.718739
37.616084
37.352834
37.263616
37.159302
37.096943
37.064714
37.047062
37.035193
37.026666
37.029179
37.03825
37.049459
37.072944
37.103895
37.142668
37.192355
37.256433
37.335822
37.434542
37.556376
37.707525
37.894898
38.128306
38.419727
38.7866
39.253714
39.858406
40.667964
41.798735
43.490916
46.49251
1969.2771
710.61181
265.85492
177.72885
110.93047
93.753113
69.97028
61.529271
51.89843
48.419605
44.843403
43.032151
41.018113
39.937066
39.080793
38.465271
38.032401
37.737396
37.574255
37.327579
37.226754
37.112963
37.046077
37.008275
36.987073
36.97274
36.962678
36.960959
36.965738
36.973878
36.993812
37.019998
37.054528
37.099802
37.158416
37.231895
37.324201
37.439182
37.582527
37.761316
37.984923
38.265303
38.619383
39.071617
39.658863
40.447107
41.55011
43.204351
46.163157
2005.1931
704.3574
268.64691
175.0844
111.20703
91.915141
70.357382
61.632238
52.810374
48.752652
44.929998
43.041663
41.111476
40.019858
39.093047
38.540849
38.063001
37.735547
37.515267
37.298822
37.173357
37.069224
36.996563
36.952979
36.928068
36.911184
36.898044
36.892705
36.894366
36.899635
36.915475
36.937363
36.968183
37.009264
37.062678
37.130674
37.216957
37.325507
37.461541
37.632321
37.846687
38.116763
38.458856
38.897205
39.468274
40.236526
41.313567
42.93295
45.851882
2035.4578
695.84029
270.59676
173.06793
112.45021
92.03841
71.315409
61.794182
53.035959
49.01839
44.993709
43.243409
41.234365
40.040243
39.15858
38.575498
38.047836
37.708003
37.455338
37.254023
37.121826
37.023767
36.945034
36.897021
36.870161
36.848936
36.833706
36.824423
36.824001
36.825934
36.837814
36.856136
36.883428
36.920512
36.968826
37.03184
37.112561
37.214983
37.344195
37.507477
37.713202
37.973642
38.304545
38.729931
39.286032
40.035502
41.088331
2067.3195
719.78698
268.61967
172.40452
113.76056
92.766464
72.483017
62.266885
53.112473
49.339747
45.14118
43.445316
41.302942
40.127086
39.237658
38.542196
38.046529
37.685462
37.419283
37.204575
37.076798
36.9757
36.893618
36.841529
36.812223
36.785663
36.769332
36.756361
36.754474
36.752777
36.761106
36.776686
36.800225
36.833259
36.876861
36.935268
37.01085
37.107464
37.230346
37.38657
37.584255
37.835647
38.156125
38.569505
39.111616
39.843439
2101.1358
715.78142
272.68443
175.91918
117.02549
94.605718
73.500032
62.699707
53.196342
49.612104
45.330551
43.504577
41.495333
40.216738
39.230484
38.512693
38.083553
37.661082
37.40469
37.164711
37.039249
36.930474
36.845226
36.787615
36.753636
36.722759
36.704448
36.689415
36.685107
36.680119
36.685952
36.698699
36.718381
36.74737
36.786853
36.84092
36.911724
37.002936
37.119887
37.269456
37.459639
37.702548
38.01335
38.415597
38.944528
2141.2681
712.45374
271.65487
178.9339
120.24665
95.25642
73.435244
62.62665
53.342406
49.76287
45.686208
43.66764
41.734461
40.243117
39.238419
38.586755
38.083365
37.659587
37.392968
37.140023
37.004135
36.886533
36.796637
36.734476
36.695134
36.660966
36.639073
36.623813
36.615469
36.608095
36.612236
36.621368
36.637531
36.662838
36.698675
36.748637
36.815008
36.901182
37.012545
37.155884
37.339083
37.574061
37.875892
38.267772
2186.0471
736.73046
280.95508
182.44912
122.78247
95.579744
73.600952
62.739806
53.658724
49.94541
46.158168
43.94803
41.768857
40.363359
39.330892
38.65451
38.076154
37.674563
37.371072
37.119674
36.962534
36.839141
36.745318
36.681788
36.63685
36.599377
36.573815
36.558638
36.545608
36.536985
36.538625
36.544362
36.557529
36.579531
36.611989
36.658102
36.720386
36.801794
36.907935
37.045489
37.222178
37.449777
37.743262
2212.0824
725.22867
281.79154
182.77044
125.41023
96.167892
74.426439
62.876266
54.009442
50.13655
46.510273
44.045603
41.858649
40.527062
39.405256
38.631352
38.098906
37.674563
37.336238
37.088492
36.912525
36.788179
36.692566
36.628738
36.577396
36.537805
36.509371
36.492921
36.476334
36.466337
36.464895
36.467944
36.478449
36.497373
36.526699
36.569289
36.6277
36.704608
36.805945
36.938091
37.108743
37.329487
2267.4133
822.21946
300.74108
185.69
128.03341
96.652059
75.445907
62.996915
54.514769
50.352526
46.714684
44.199925
42.136886
40.516065
39.394859
38.643993
38.138865
37.653726
37.298073
37.043311
36.861348
36.735708
36.639169
36.573531
36.516736
36.477188
36.445339
36.42666
36.408112
36.395788
36.39155
36.392497
36.400236
36.416429
36.442912
36.482243
36.536925
36.609633
36.706568
36.833631
36.99871
2255.013
789.20156
299.85237
185.20726
128.07941
96.400827
75.973768
63.177511
55.195312
50.538198
46.981218
44.482826
42.469633
40.516105
39.440983
38.695372
38.137594
37.609502
37.268056
36.99666
36.813603
36.682253
36.58558
36.515935
36.456548
36.416801
36.380764
36.360367
36.339786
36.325224
36.318715
36.3176
36.322642
36.336482
36.36035
36.396554
36.447738
36.516596
36.609449
36.731783
2282.8634
912.2579
313.99932
186.44854
128.02779
96.456961
76.407398
63.598943
55.825807
50.73385
47.256904
44.693695
42.523461
40.582126
39.562457
38.722773
38.125441
37.582113
37.2487
36.959214
36.766424
36.629154
36.532562
36.457801
36.397721
36.355181
36.315449
36.294085
36.270739
36.254649
36.246067
36.242789
36.245528
36.257249
36.278589
36.31184
36.359803
36.425192
36.51422
2284.9873
887.37061
313.38885
185.51545
127.14252
96.302921
76.616385
64.075364
56.239206
51.009816
47.458208
44.782358
42.587412
40.749714
39.641458
38.722956
38.115322
37.57196
37.229609
36.926241
36.717577
36.57838
36.478854
36.40025
36.338888
36.292385
36.24999
36.227314
36.201336
36.184316
36.173343
36.168159
36.169045
36.178674
36.197572
36.228086
36.273102
36.335369
2316.0963
957.08772
321.01668
184.79429
126.49911
96.545712
77.260955
64.850239
56.764945
51.393312
47.606472
44.851873
42.639444
40.826611
39.663915
38.735279
38.111787
37.567268
37.201776
36.891655
36.671785
36.527973
36.423129
36.342786
36.279076
36.229239
36.18455
36.160079
36.132096
36.114016
36.100625
36.093886
36.09322
36.100752
36.117346
36.145325
36.187645
2328.0246
929.04749
318.12006
182.4923
125.7351
96.575767
78.187305
65.747922
57.516223
51.875811
47.880882
45.042508
42.811407
40.86041
39.685608
38.746265
38.098398
37.552593
37.163862
36.855955
36.62833
36.474662
36.364812
36.283688
36.217538
36.165951
36.118784
36.092375
36.062861
36.043155
36.027778
36.019734
36.017628
36.023202
36.037629
36.063282
2358.4994
979.95678
325.25262
181.05087
126.19476
97.254174
79.555823
66.779287
58.436269
52.547929
48.439656
45.340708
42.958051
40.906851
39.714424
38.756006
38.086446
37.53327
37.127166
36.818872
36.585327
36.418466
36.304887
36.221922
36.153557
36.101434
36.05247
36.023785
35.99306
35.971385
35.954589
35.945317
35.941893
35.945706
35.958124
35.981674
2374.3592
949.18944
321.48859
179.05716
125.81918
97.690468
80.388755
67.387512
59.316735
53.617534
49.461809
45.894171
43.236722
40.990658
39.755664
38.768904
38.074027
37.505551
37.094696
36.782932
36.541408
36.362754
36.245286
36.158766
36.087909
36.035726
35.985597
35.954064
35.922406
35.898845
35.881059
35.870579
35.865958
35.868193
35.878798
2400.6052
991.78449
333.44057
180.64488
127.54956
99.040545
81.603443
68.193683
60.307001
55.16273
50.88128
46.449845
43.416824
41.166864
39.843594
38.834489
38.079407
37.480614
37.068942
36.744237
36.493767
36.307791
36.185487
36.094744
36.021351
35.96881
35.917713
35.883216
35.850806
35.825641
35.807087
35.79545
35.789732
35.790552
2417.0442
968.36792
331.55586
180.86066
128.40823
100.0807
82.501404
69.171258
61.623106
57.174969
52.54448
47.380466
43.840376
41.403229
39.999528
38.91166
38.079281
37.456691
37.039423
36.706312
36.444476
36.252838
36.124169
36.029635
35.954277
35.900192
35.848004
35.811203
35.777929
35.751673
35.732392
35.719648
35.712912
2430.5315
1038.0608
366.52915
189.52197
133.40889
102.43569
84.219131
70.869803
63.199629
58.872149
53.975013
48.240915
44.258678
41.806169
40.214759
38.973258
38.080922
37.453076
37.015895
36.665552
36.393752
36.199893
36.062187
35.963531
35.886469
35.829754
35.776268
35.738231
35.703835
35.676758
35.656643
2444.7587
1022.6238
368.9312
194.30348
135.06977
104.68976
85.830592
72.802434
64.857541
60.179611
55.119011
49.470099
45.05931
42.080646
40.310848
39.013457
38.099598
37.457745
36.986702
36.621061
36.344424
36.144937
35.998485
35.895252
35.816449
35.757161
35.702582
35.664275
35.628528
35.600596
2435.6135
1124.4504
416.25915
207.6087
140.50712
107.47088
88.008067
74.721786
66.068132
60.866249
55.848824
50.222623
45.513199
42.348174
40.365556
39.02962
38.135522
37.467659
36.949379
36.576661
36.289869
36.084701
35.930523
35.821766
35.741061
35.680882
35.625844
35.58835
35.551443
2441.0586
1376.8068
527.36608
247.09446
152.24688
114.5507
92.568991
78.148738
68.366998
62.162433
57.015143
51.504154
46.357807
42.752253
40.559482
39.176476
38.234637
37.513246
36.954738
36.55095
36.254357
36.031739
35.866839
35.748883
35.662669
35.601641
35.546366
1195.8096
1322.0522
1469.6628
965.65878
1010.0752
1067.8699
1164.486
1216.9277
1269.8262
473.6009
473.00026
471.35522
489.50678
489.71737
488.10821
233.62402
231.69655
229.68143
232.96457
232.80446
232.55754
150.16093
149.49723
148.54977
149.28842
149.07172
148.88946
112.78048
112.74413
112.41994
112.96012
113.19929
113.63937
90.536244
90.828436
91.000596
91.609584
91.916577
92.200571
75.37049
76.125199
76.813084
77.506616
77.866085
78.086257
65.830697
66.905386
67.720122
68.137206
68.330526
58.514635
59.825415
60.917579
61.627597
62.019193
52.83038
54.016249
55.199754
56.161762
56.766864
48.113505
48.853059
49.726459
50.580158
51.203687
44.337027
44.628783
45.015812
45.529241
46.00469
41.724784
41.877702
42.062646
42.284365
42.529929
39.92535
40.022499
40.147493
40.312709
40.465913
38.856127
38.972604
39.074515
39.134315
37.960166
38.053499
38.135981
38.200681
37.236291
37.317271
37.392904
37.457967
36.744513
36.823676
36.891949
36.335314
36.416
36.489289
36.029069
36.110113
36.186024
35.883284
35.958059
35.718156
35.791926
35.59537
35.670131
35.581065
35.521036
)
;

boundaryField
{
    Side
    {
        type            empty;
    }
    Inlet
    {
        type            fixedValue;
        value           uniform 60.24606;
    }
    Airfoil
    {
        type            omegaWallFunction;
        blending        binomial;
        n               2;
        value           nonuniform List<scalar> 
33
(
1563.6646
1598.0149
1633.7067
1669.1216
1705.1379
1741.8979
1781.0926
1821.9815
1860.0088
1901.6151
1930.3186
1969.2771
2005.1931
2035.4578
2067.3195
2101.1358
2141.2681
2186.0471
2212.0824
2267.4133
2255.013
2282.8634
2284.9873
2316.0963
2328.0246
2358.4994
2374.3592
2400.6052
2417.0442
2430.5315
2444.7587
2435.6135
2441.0586
)
;
    }
    Outlet
    {
        type            inletOutlet;
        inletValue      nonuniform List<scalar> 0();
        value           nonuniform List<scalar> 0();
    }
    procBoundary1to0
    {
        type            processor;
        value           nonuniform List<scalar> 
53
(
1530.3319
570.70208
203.44044
159.8843
101.71817
101.71817
91.242203
69.946965
55.690246
49.15287
44.058645
41.752972
40.503408
39.759254
39.759254
39.13315
38.556004
38.22959
38.007584
37.83442
37.717387
37.634028
37.591976
37.572386
37.51263
37.51263
37.517169
37.529884
37.548118
37.576056
37.611949
37.656383
37.707452
37.769023
37.842784
37.928394
38.029361
38.02483
38.02483
38.156284
38.311944
38.497232
38.718601
38.984993
39.307156
39.700269
40.184333
40.78887
41.558141
42.565813
43.951005
45.999517
49.440497
)
;
    }
    procBoundary1to2
    {
        type            processor;
        value           nonuniform List<scalar> 
75
(
42.675282
45.557842
42.675282
40.873823
40.873823
39.659859
39.659859
38.784313
38.784313
38.125492
38.125492
37.61523
37.61523
37.213098
37.213098
36.891796
36.891796
36.632248
36.632248
36.420859
36.420859
36.247116
36.247116
36.103152
36.103152
36.019342
35.900504
35.900504
35.799599
35.799599
35.712536
35.642922
35.712536
35.635213
35.642922
35.579556
35.579556
35.52242
35.509434
35.52242
35.471857
35.509434
35.466435
1086.9906
920.10764
470.92301
233.23738
149.7422
112.31718
89.964084
74.9262
64.746265
64.746265
57.239044
51.699062
47.475956
44.06606
41.575676
39.840569
38.740288
38.740288
37.864609
37.144102
36.662313
36.662313
36.250871
35.946551
35.803875
35.803875
35.639339
35.517541
35.504613
35.504613
35.444877
35.466435
)
;
    }
    procBoundary1to8
    {
        type            processor;
        value           nonuniform List<scalar> 8(2136.1355 1194.7546 1308.4516 1657.1998 1453.1096 1657.1998 1877.0677 2136.1355);
    }
}


// ************************************************************************* //
