/*--------------------------------*- C++ -*----------------------------------*\
| =========                 |                                                 |
| \\      /  F ield         | OpenFOAM: The Open Source CFD Toolbox           |
|  \\    /   O peration     | Version:  2506                                  |
|   \\  /    A nd           | Website:  www.openfoam.com                      |
|    \\/     M anipulation  |                                                 |
\*---------------------------------------------------------------------------*/
FoamFile
{
    version     2.0;
    format      ascii;
    arch        "LSB;label=32;scalar=64";
    class       volScalarField;
    location    "0.00023";
    object      epsilon;
}
// * * * * * * * * * * * * * * * * * * * * * * * * * * * * * * * * * * * * * //

dimensions      [0 2 -3 0 0 0 0];

internalField   nonuniform List<scalar> 
3445
(
16796.82
16805.481
16796.961
16805.686
16808.74
16812.307
16807.345
16794.147
16797.101
16805.9
16803.179
16805.086
16808.839
16812.313
16807.021
16794.102
16797.243
16806.122
16814.86
16803.203
16805.148
16808.935
16812.313
16806.697
16794.073
16797.39
16806.336
16815.101
16802.284
16802.324
16802.53
16803.228
16805.208
16809.029
16812.309
16806.381
16794.059
16797.533
16806.54
16815.335
16802.281
16802.284
16802.325
16802.538
16803.252
16805.268
16809.12
16812.294
16806.073
16794.053
16797.678
16806.742
16815.553
16817.243
16802.281
16802.281
16802.284
16802.327
16802.546
16803.276
16805.327
16809.209
16812.275
16805.772
16794.05
16797.82
16806.936
16815.75
16817.259
16802.281
16802.281
16802.281
16802.285
16802.329
16802.554
16803.3
16805.386
16809.294
16812.252
16805.479
16794.061
16797.969
16807.121
16815.929
16817.272
16802.281
16802.281
16802.281
16802.281
16802.285
16802.331
16802.561
16803.324
16805.443
16809.378
16812.224
16805.199
16794.074
16798.123
16807.299
16816.099
16817.303
16802.281
16802.281
16802.281
16802.281
16802.281
16802.285
16802.333
16802.569
16803.348
16805.5
16809.458
16812.192
16804.928
16794.091
16798.284
16807.466
16816.26
16817.351
83619.028
16682.797
16799.191
16802.281
16802.281
16802.281
16802.281
16802.281
16802.281
16802.285
16802.334
16802.577
16803.371
16805.556
16809.536
16812.157
16804.664
16794.107
16798.434
16807.622
16816.403
16817.409
16822.142
83431.588
16683.939
16799.242
16802.375
16802.281
16802.281
16802.281
16802.281
16802.281
16802.281
16802.281
16802.286
16802.336
16802.584
16803.394
16805.611
16809.612
16812.119
16804.406
16794.125
16798.584
16807.766
16816.518
16817.461
16822.151
83248.417
16685.049
16799.291
16802.375
16802.322
16802.297
16802.288
16802.283
16802.282
16802.281
16802.281
16802.28
16802.28
16802.281
16802.28
16802.281
16802.286
16802.338
16802.592
16803.418
16805.665
16809.685
16812.078
16804.156
16794.146
16798.733
16807.886
16816.619
16817.504
16822.158
83069.463
16686.127
16799.338
16802.375
16802.322
16802.297
16802.287
16802.283
16802.282
16802.281
16802.281
16802.281
16802.281
16802.281
16802.281
16802.281
16802.286
16802.34
16802.6
16803.441
16805.719
16809.756
16812.035
16803.915
16794.171
16798.89
16808.015
16816.72
16817.553
16822.177
82894.639
16687.173
16799.384
16802.376
16802.322
16802.298
16802.287
16802.283
16802.282
16802.281
16802.281
16802.281
16802.281
16802.281
16802.281
16802.281
16802.286
16802.341
16802.607
16803.463
16805.771
16809.824
16811.989
16803.678
16794.195
16799.046
16808.174
16816.807
16817.61
16822.207
16843.276
82723.888
16688.187
16799.428
16802.376
16802.322
16802.298
16802.287
16802.283
16802.282
16802.281
16802.281
16802.281
16802.28
16802.281
16802.281
16802.281
16802.286
16802.344
16802.615
16803.486
16805.823
16809.89
16811.941
16803.444
16794.221
16799.207
16808.308
16816.871
16817.676
16822.242
16844.11
82557.171
16689.168
16799.47
16802.376
16802.322
16802.298
16802.287
16802.283
16802.282
16802.281
16802.281
16802.281
16802.28
16802.281
16802.281
16802.281
16802.286
16802.346
16802.623
16803.508
16805.874
16809.954
16811.89
16803.217
16794.244
16799.355
16808.388
16816.929
16817.741
16822.284
16844.944
16910.151
82394.513
16690.121
16799.51
16802.376
16802.322
16802.298
16802.287
16802.283
16802.282
16802.281
16802.281
16802.281
16802.281
16802.28
16802.28
16802.281
16802.287
16802.347
16802.63
16803.53
16805.924
16810.015
16811.836
16803.002
16794.268
16799.504
16808.468
16816.987
16817.796
16822.328
16845.772
16911.369
82235.76
16691.046
16799.549
16802.376
16802.322
16802.298
16802.287
16802.283
16802.282
16802.281
16802.281
16802.281
16802.281
16802.281
16802.28
16802.281
16802.287
16802.349
16802.638
16803.552
16805.972
16810.074
16811.781
16802.786
16794.296
16799.649
16808.597
16817.039
16817.838
16822.373
16846.586
16912.563
82081
16691.944
16799.587
16802.376
16802.322
16802.298
16802.287
16802.283
16802.281
16802.281
16802.281
16802.281
16802.281
16802.281
16802.28
16802.281
16802.287
16802.351
16802.644
16803.573
16806.02
16810.131
16811.724
16802.586
16794.327
16799.79
16808.748
16817.076
16817.882
16822.424
16847.385
16913.748
16948.39
81930.061
16692.816
16799.624
16802.377
16802.322
16802.298
16802.287
16802.283
16802.281
16802.281
16802.28
16802.28
16802.28
16802.281
16802.281
16802.281
16802.287
16802.353
16802.652
16803.595
16806.067
16810.185
16811.668
16802.39
16794.352
16799.936
16808.864
16817.092
16817.934
16822.481
16848.175
16914.902
16947.58
81782.938
16693.662
16799.659
16802.377
16802.322
16802.298
16802.287
16802.283
16802.282
16802.281
16802.281
16802.281
16802.28
16802.281
16802.281
16802.28
16802.287
16802.354
16802.659
16803.615
16806.113
16810.238
16811.612
16802.203
16794.375
16800.094
16808.944
16817.103
16817.993
16822.569
16848.952
16916.019
16946.71
81639.568
16694.484
16799.693
16802.377
16802.322
16802.298
16802.287
16802.283
16802.281
16802.281
16802.281
16802.281
16802.281
16802.28
16802.281
16802.28
16802.288
16802.356
16802.666
16803.636
16806.158
16810.289
16811.554
16802.02
16794.398
16800.25
16809.025
16817.113
16818.052
16822.679
16849.714
16917.085
16945.801
81499.874
16695.282
16799.726
16802.378
16802.322
16802.298
16802.287
16802.283
16802.282
16802.281
16802.281
16802.281
16802.281
16802.281
16802.281
16802.281
16802.288
16802.358
16802.672
16803.656
16806.202
16810.338
16811.497
16801.851
16794.423
16800.4
16809.124
16817.122
16818.109
16822.79
16850.459
16918.093
16944.864
81363.811
16696.057
16799.758
16802.378
16802.322
16802.298
16802.287
16802.283
16802.282
16802.281
16802.281
16802.281
16802.281
16802.281
16802.28
16802.281
16802.289
16802.36
16802.679
16803.676
16806.245
16810.384
16811.438
16801.679
16794.445
16800.551
16809.236
16817.13
16818.161
16822.878
16851.185
16919.053
16943.899
16804.342
81231.256
16696.81
16799.788
16802.378
16802.322
16802.298
16802.287
16802.283
16802.282
16802.281
16802.281
16802.281
16802.281
16802.281
16802.279
16802.281
16802.289
16802.361
16802.686
16803.696
16806.288
16810.429
16811.382
16801.518
16794.467
16800.702
16809.342
16817.13
16818.226
16822.971
16851.904
16919.993
16942.897
16801.839
81102.204
16697.542
16799.818
16802.379
16802.323
16802.298
16802.287
16802.283
16802.282
16802.281
16802.281
16802.28
16802.281
16802.281
16802.281
16802.281
16802.289
16802.363
16802.692
16803.715
16806.329
16810.472
16811.326
16801.354
16794.493
16800.856
16809.435
16817.131
16818.293
16823.079
16852.626
16920.928
16941.874
16799.424
80976.552
16698.255
16799.846
16802.379
16802.323
16802.298
16802.287
16802.283
16802.281
16802.281
16802.281
16802.28
16802.281
16802.28
16802.281
16802.281
16802.289
16802.365
16802.698
16803.734
16806.37
16810.514
16811.27
16801.203
16794.52
16800.993
16809.523
16817.132
16818.349
16823.21
16853.345
16921.849
16940.831
16797.113
80854.312
16698.948
16799.873
16802.38
16802.323
16802.298
16802.287
16802.283
16802.282
16802.281
16802.281
16802.281
16802.28
16802.279
16802.28
16802.281
16802.289
16802.366
16802.705
16803.753
16806.41
16810.553
16811.214
16801.052
16794.543
16801.12
16809.617
16817.134
16818.399
16823.351
16854.046
16922.74
16939.769
16794.892
16707.526
80735.322
16699.622
16799.9
16802.38
16802.323
16802.298
16802.287
16802.283
16802.282
16802.281
16802.281
16802.281
16802.28
16802.281
16802.28
16802.279
16802.289
16802.368
16802.711
16803.772
16806.449
16810.591
16811.162
16800.91
16794.56
16801.243
16809.714
16817.132
16818.456
16823.493
16854.729
16923.577
16938.678
16792.731
16707.675
80619.574
16700.278
16799.926
16802.38
16802.323
16802.298
16802.287
16802.283
16802.282
16802.28
16802.281
16802.281
16802.281
16802.281
16802.281
16802.281
16802.289
16802.369
16802.717
16803.79
16806.487
16810.627
16811.11
16800.77
16794.579
16801.377
16809.805
16817.126
16818.515
16823.62
16855.396
16924.37
16937.555
16790.616
16707.852
80506.929
16700.917
16799.952
16802.38
16802.322
16802.298
16802.287
16802.283
16802.281
16802.281
16802.28
16802.281
16802.281
16802.28
16802.281
16802.281
16802.289
16802.371
16802.723
16803.808
16806.524
16810.662
16811.061
16800.635
16794.601
16801.506
16809.892
16817.101
16818.577
16823.74
16856.055
16925.133
16936.411
16788.563
16708.053
16775.202
80397.3
16701.539
16799.977
16802.381
16802.322
16802.298
16802.287
16802.282
16802.282
16802.281
16802.28
16802.28
16802.281
16802.281
16802.281
16802.281
16802.289
16802.372
16802.729
16803.826
16806.561
16810.695
16811.01
16800.499
16794.625
16801.636
16809.977
16817.086
16818.649
16823.862
16856.706
16925.872
16935.266
16786.588
16708.278
16776.186
80290.696
16702.145
16800.001
16802.381
16802.323
16802.298
16802.288
16802.283
16802.282
16802.281
16802.28
16802.281
16802.281
16802.281
16802.28
16802.281
16802.29
16802.374
16802.735
16803.843
16806.597
16810.728
16810.962
16800.37
16794.648
16801.76
16810.058
16817.073
16818.724
16823.993
16857.349
16926.58
16934.131
16784.696
16708.525
16777.178
80186.953
16702.733
16800.024
16802.381
16802.323
16802.298
16802.288
16802.283
16802.282
16802.281
16802.28
16802.281
16802.281
16802.281
16802.281
16802.279
16802.29
16802.375
16802.74
16803.86
16806.631
16810.757
16810.911
16800.244
16794.672
16801.883
16810.128
16817.056
16818.793
16824.128
16857.981
16927.256
16933.004
16782.874
16708.793
16778.162
16854.334
80086.134
16703.305
16800.046
16802.382
16802.323
16802.298
16802.287
16802.283
16802.282
16802.281
16802.281
16802.28
16802.281
16802.281
16802.281
16802.281
16802.289
16802.376
16802.746
16803.877
16806.665
16810.786
16810.859
16800.123
16794.693
16801.998
16810.195
16817.037
16818.855
16824.262
16858.602
16927.897
16931.89
16781.108
16709.069
16779.114
16855.002
79988.05
16703.862
16800.067
16802.382
16802.323
16802.298
16802.287
16802.283
16802.282
16802.281
16802.28
16802.279
16802.28
16802.28
16802.28
16802.281
16802.289
16802.377
16802.752
16803.893
16806.698
16810.813
16810.812
16800.004
16794.714
16802.112
16810.267
16817.02
16818.916
16824.388
16859.209
16928.505
16930.783
16779.389
16709.342
16780.03
16855.609
79892.771
16704.405
16800.088
16802.382
16802.323
16802.298
16802.286
16802.283
16802.281
16802.28
16802.28
16802.281
16802.279
16802.278
16802.277
16802.279
16802.29
16802.379
16802.757
16803.909
16806.73
16810.84
16810.768
16799.891
16794.735
16802.217
16810.345
16817.007
16818.973
16824.51
16859.804
16929.07
16929.693
16777.72
16709.618
16780.924
16856.159
79799.953
16704.933
16800.109
16802.382
16802.323
16802.298
16802.287
16802.283
16802.282
16802.281
16802.281
16802.28
16802.278
16802.278
16802.276
16802.281
16802.29
16802.38
16802.762
16803.925
16806.762
16810.865
16810.721
16799.777
16794.756
16802.318
16810.427
16816.997
16819.034
16824.63
16860.388
16929.583
16928.633
16776.098
16709.912
16781.81
16856.664
16801.453
79710.13
16705.449
16800.13
16802.383
16802.323
16802.298
16802.287
16802.283
16802.281
16802.281
16802.281
16802.281
16802.28
16802.277
16802.279
16802.279
16802.29
16802.381
16802.767
16803.941
16806.793
16810.889
16810.674
16799.671
16794.776
16802.411
16810.517
16816.986
16819.094
16824.756
16860.963
16930.06
16927.603
16774.505
16710.232
16782.688
16857.14
16800.587
79622.016
16705.951
16800.15
16802.383
16802.323
16802.298
16802.288
16802.283
16802.281
16802.281
16802.281
16802.281
16802.28
16802.281
16802.279
16802.28
16802.29
16802.382
16802.772
16803.955
16806.822
16810.911
16810.627
16799.568
16794.798
16802.503
16810.61
16816.97
16819.148
16824.884
16861.529
16930.514
16926.603
16772.924
16710.568
16783.556
16857.594
16799.756
79537.956
16706.441
16800.169
16802.383
16802.323
16802.298
16802.288
16802.283
16802.281
16802.279
16802.281
16802.281
16802.28
16802.281
16802.28
16802.28
16802.292
16802.383
16802.778
16803.97
16806.851
16810.931
16810.584
16799.468
16794.819
16802.583
16810.703
16816.954
16819.194
16825.011
16862.082
16930.947
16925.626
16771.37
16710.904
16784.406
16858.016
16798.959
79453.05
16706.921
16800.187
16802.384
16802.323
16802.297
16802.288
16802.283
16802.282
16802.281
16802.28
16802.281
16802.281
16802.281
16802.28
16802.279
16802.291
16802.384
16802.782
16803.985
16806.879
16810.952
16810.544
16799.371
16794.844
16802.658
16810.787
16816.942
16819.234
16825.14
16862.621
16931.364
16924.666
16769.856
16711.241
16785.233
16858.399
16798.197
79377.162
16707.385
16800.204
16802.384
16802.323
16802.298
16802.288
16802.282
16802.281
16802.281
16802.28
16802.281
16802.279
16802.281
16802.28
16802.28
16802.292
16802.385
16802.787
16803.999
16806.905
16810.969
16810.5
16799.275
16794.871
16802.743
16810.869
16816.928
16819.271
16825.267
16863.148
16931.758
16923.718
16768.392
16711.597
16786.041
16858.743
16797.467
16809.761
79288.954
16707.846
16800.22
16802.384
16802.323
16802.298
16802.288
16802.283
16802.28
16802.281
16802.28
16802.281
16802.279
16802.28
16802.279
16802.281
16802.292
16802.385
16802.791
16804.013
16806.933
16810.989
16810.457
16799.18
16794.884
16802.837
16810.956
16816.923
16819.311
16825.392
16863.663
16932.131
16922.776
16766.966
16711.97
16786.831
16859.046
16796.762
16810.531
79232.211
16708.285
16800.235
16802.385
16802.323
16802.297
16802.288
16802.283
16802.282
16802.281
16802.281
16802.278
16802.28
16802.277
16802.279
16802.28
16802.29
16802.386
16802.795
16804.023
16806.951
16810.99
16810.392
16799.082
16794.922
16802.938
16811.039
16816.91
16819.348
16825.51
16864.187
16932.5
16921.859
16765.6
16712.373
16787.601
16859.326
16796.1
16811.291
79108.755
16709.257
16800.261
16802.385
16802.323
16802.298
16802.288
16802.281
16802.282
16802.279
16802.28
16802.281
16802.28
16802.281
16802.28
16802.28
16802.293
16802.387
16802.801
16804.041
16806.988
16811.042
16810.378
16798.993
16794.923
16803.01
16811.134
16816.895
16819.383
16825.617
16864.666
16932.809
16920.883
16764.187
16712.799
16788.402
16859.556
16795.421
16812.092
80681.435
16708.278
16800.203
16802.385
16802.321
16802.298
16802.288
16802.281
16802.28
16802.28
16802.28
16802.281
16802.281
16802.281
16802.279
16802.28
16802.292
16802.389
16802.809
16804.065
16807.032
16811.06
16810.338
16798.884
16794.972
16803.066
16811.284
16816.892
16819.48
16825.726
16865.032
16933.118
16920.172
16763.138
16713.191
16788.947
16859.796
16794.9
16812.714
16813.651
16794.023
16860.235
16790.209
16713.641
16761.04
16919.165
16933.822
16866.007
16825.934
16819.542
16816.783
16811.276
16803.195
16795.282
16798.76
16810.058
16810.854
16806.939
16804.043
16802.808
16802.39
16802.293
16802.28
16802.279
16802.28
16802.28
16802.281
16802.281
16802.28
16802.279
16802.281
16802.288
16802.299
16802.324
16802.386
16800.515
16716.405
75662.233
16934.86
16814.608
16793.15
16860.49
16791.509
16714.205
16758.959
16917.993
16934.118
16866.848
16825.969
16819.52
16816.54
16811.322
16803.245
16795.298
16798.561
16810.043
16810.937
16807.019
16804.085
16802.827
16802.398
16802.295
16802.28
16802.28
16802.281
16802.281
16802.281
16802.281
16802.281
16802.281
16802.283
16802.288
16802.299
16802.323
16802.386
16800.837
16728.355
71087.068
16937.854
16815.645
16792.319
16860.497
16792.811
16714.99
16757.047
16916.607
16934.138
16867.299
16825.99
16819.54
16816.579
16811.463
16803.307
16795.299
16798.432
16810.114
16811.064
16807.114
16804.121
16802.831
16802.399
16802.295
16802.28
16802.279
16802.281
16802.28
16802.28
16802.281
16802.28
16802.281
16802.283
16802.286
16802.297
16802.321
16802.384
16801.121
16739.292
67432.779
17199.812
16940.89
16816.756
16791.476
16860.388
16794.137
16716.03
16755.122
16915.091
16934.186
16867.705
16826.116
16819.657
16816.667
16811.683
16803.393
16795.3
16798.351
16810.111
16811.153
16807.189
16804.157
16802.844
16802.404
16802.297
16802.282
16802.281
16802.281
16802.281
16802.281
16802.28
16802.28
16802.281
16802.282
16802.288
16802.297
16802.321
16802.382
16801.362
16748.333
64660.666
17205.379
16944.025
16817.892
16790.571
16860.196
16795.48
16717.115
16752.988
16913.59
16934.386
16868.34
16826.387
16819.84
16816.789
16811.85
16803.467
16795.319
16798.285
16810.081
16811.185
16807.233
16804.18
16802.852
16802.406
16802.296
16802.281
16802.28
16802.281
16802.281
16802.281
16802.28
16802.281
16802.281
16802.283
16802.287
16802.297
16802.323
16802.382
16801.563
16755.513
62620.302
17211.054
16947.267
16819.002
16789.658
16860.289
16796.727
16717.921
16750.779
16912.237
16934.835
16869.253
16826.785
16819.991
16816.845
16811.951
16803.53
16795.375
16798.208
16809.987
16811.186
16807.259
16804.198
16802.859
16802.409
16802.296
16802.281
16802.28
16802.281
16802.281
16802.281
16802.281
16802.28
16802.281
16802.283
16802.288
16802.297
16802.323
16802.382
16801.727
16761.064
61164.623
17720.446
17216.885
16950.54
16820.062
16788.875
16860.34
16797.744
16718.454
16748.897
16911.023
16935.503
16870.277
16827.162
16820.077
16816.847
16812.032
16803.614
16795.454
16798.107
16809.882
16811.186
16807.281
16804.214
16802.866
16802.411
16802.296
16802.28
16802.279
16802.281
16802.281
16802.281
16802.281
16802.281
16802.281
16802.283
16802.288
16802.298
16802.321
16802.382
16801.859
16765.261
60154.668
17730.475
17222.88
16953.729
16821.096
16788.287
16860.404
16798.56
16718.947
16747.508
16909.826
16936.147
16871.219
16827.449
16820.13
16816.835
16812.123
16803.725
16795.524
16797.985
16809.779
16811.171
16807.306
16804.232
16802.874
16802.414
16802.296
16802.281
16802.281
16802.278
16802.278
16802.281
16802.28
16802.281
16802.282
16802.283
16802.288
16802.298
16802.323
16802.381
16801.96
16768.351
59470.387
18191.4
17740.612
17228.958
16956.792
16822.167
16787.826
16860.404
16799.332
16719.612
16746.383
16908.495
16936.597
16872.004
16827.659
16820.176
16816.773
16812.234
16803.831
16795.575
16797.853
16809.689
16811.188
16807.338
16804.252
16802.882
16802.413
16802.295
16802.28
16802.28
16802.281
16802.28
16802.281
16802.281
16802.281
16802.281
16802.283
16802.288
16802.297
16802.323
16802.383
16802.037
16770.589
59029.528
17940.471
18287.906
17749.402
17234.991
16959.811
16823.34
16787.384
16860.196
16800.223
16720.569
16745.214
16906.944
16936.875
16872.675
16827.847
16820.23
16816.754
16812.357
16803.919
16795.614
16797.726
16809.614
16811.187
16807.376
16804.275
16802.891
16802.416
16802.295
16802.281
16802.281
16802.281
16802.279
16802.279
16802.281
16802.281
16802.282
16802.283
16802.287
16802.298
16802.321
16802.383
16802.092
16772.042
58785.426
17934.312
18206.469
17759.22
17240.929
16962.941
16824.633
16786.896
16859.869
16801.32
16721.715
16743.809
16905.205
16937.06
16873.306
16828.045
16820.297
16816.788
16812.488
16804.003
16795.64
16797.61
16809.549
16811.216
16807.416
16804.298
16802.9
16802.417
16802.297
16802.281
16802.28
16802.281
16802.281
16802.281
16802.279
16802.281
16802.282
16802.283
16802.286
16802.298
16802.323
16802.382
16802.127
16772.889
58689.573
17531.541
17928.396
18205.671
17768.629
17246.864
16966.297
16825.986
16786.365
16859.649
16802.579
16722.721
16742.181
16903.4
16937.225
16873.958
16828.268
16820.373
16816.788
16812.621
16804.075
16795.664
16797.509
16809.488
16811.23
16807.457
16804.322
16802.909
16802.42
16802.295
16802.281
16802.281
16802.281
16802.28
16802.281
16802.281
16802.281
16802.28
16802.283
16802.286
16802.296
16802.322
16802.383
16802.141
16773.073
58668.805
17797.363
17554.556
17528.186
17922.561
18206.258
17779.284
17252.94
16969.866
16827.297
16785.856
16859.487
16803.833
16723.419
16740.524
16901.636
16937.413
16874.66
16828.518
16820.456
16816.81
16812.75
16804.126
16795.698
16797.418
16809.423
16811.25
16807.498
16804.345
16802.919
16802.423
16802.299
16802.281
16802.28
16802.281
16802.281
16802.281
16802.281
16802.28
16802.281
16802.282
16802.287
16802.298
16802.32
16802.383
16802.142
16773.168
58667.278
17741.098
17800.227
17556.541
17524.871
17916.756
18206.567
17780.216
17259.277
16973.526
16828.53
16785.446
16859.301
16804.923
16723.955
16739.022
16899.935
16937.65
16875.41
16828.784
16820.546
16816.811
16812.868
16804.177
16795.748
16797.332
16809.354
16811.267
16807.537
16804.369
16802.928
16802.425
16802.299
16802.28
16802.278
16802.281
16802.281
16802.281
16802.279
16802.281
16802.281
16802.283
16802.287
16802.298
16802.322
16802.383
16802.143
16773.168
58666.616
17708.725
17739.264
17803.457
17558.875
17521.505
17911.186
18205.77
17875.208
17264.795
16977.158
16829.74
16785.139
16859.028
16805.833
16724.536
16737.702
16898.258
16937.925
16876.184
16829.059
16820.644
16816.83
16812.974
16804.238
16795.811
16797.244
16809.28
16811.282
16807.576
16804.393
16802.937
16802.428
16802.3
16802.28
16802.28
16802.281
16802.282
16802.281
16802.281
16802.281
16802.281
16802.283
16802.286
16802.298
16802.321
16802.383
16802.142
16773.173
58666.053
17525.908
17539.562
17515.709
17674.727
17787.057
17708.6
17737.894
17806.861
17561.512
17518.188
17906.199
18205.794
17813.545
17271.251
16980.749
16831.019
16784.869
16858.634
16806.677
16725.298
16736.477
16896.563
16938.204
16876.957
16829.334
16820.744
16816.829
16813.076
16804.311
16795.877
16797.151
16809.204
16811.295
16807.614
16804.416
16802.946
16802.431
16802.3
16802.282
16802.279
16802.281
16802.282
16802.28
16802.281
16802.281
16802.282
16802.283
16802.288
16802.298
16802.322
16802.383
16802.14
16773.222
58665.5
17525.005
17539.076
17512.676
17670.636
17786.992
17708.745
17736.833
17810.213
17564.526
17515.097
17901.89
18205.604
17821.631
17277.588
16984.379
16832.416
16784.561
16858.138
16807.578
16726.264
16735.249
16894.829
16938.47
16877.718
16829.609
16820.842
16816.841
16813.183
16804.398
16795.939
16797.055
16809.128
16811.308
16807.653
16804.44
16802.956
16802.434
16802.301
16802.281
16802.28
16802.279
16802.279
16802.28
16802.281
16802.281
16802.282
16802.283
16802.287
16802.297
16802.322
16802.383
16802.139
16773.201
58664.936
17524.089
17538.536
17509.745
17666.682
17787.141
17709.037
17735.929
17813.444
17568.021
17512.293
17897.886
18205.205
17831.053
17285.015
16988.133
16833.899
16784.185
16857.608
16808.609
16727.333
16733.978
16893.057
16938.707
16878.463
16829.894
16820.936
16816.838
16813.301
16804.501
16795.992
16796.959
16809.05
16811.32
16807.691
16804.464
16802.965
16802.437
16802.302
16802.282
16802.279
16802.281
16802.281
16802.281
16802.281
16802.281
16802.28
16802.282
16802.287
16802.295
16802.32
16802.383
16802.138
16773.249
58664.353
17523.13
17538.199
17507.193
17662.93
17787.302
17709.931
17735.501
17816.666
17571.956
17509.663
17893.555
18204.508
17840.531
17285.498
16992.065
16835.379
16783.78
16857.121
16809.759
16728.368
16732.685
16891.255
16938.892
16879.198
16830.191
16821.024
16816.812
16813.429
16804.605
16796.035
16796.866
16808.971
16811.332
16807.73
16804.488
16802.975
16802.44
16802.301
16802.281
16802.281
16802.28
16802.281
16802.28
16802.279
16802.281
16802.282
16802.283
16802.287
16802.298
16802.322
16802.381
16802.137
16773.23
58663.752
17538.155
17505.251
17659.321
17787.824
17711.414
17735.589
17820.022
17576.021
17507.025
17888.286
18203.333
17849.171
17371.021
16995.276
16836.802
16783.418
16856.698
16810.935
16729.308
16731.416
16889.42
16939.039
16879.939
16830.495
16821.11
16816.797
16813.561
16804.688
16796.075
16796.777
16808.892
16811.344
16807.769
16804.512
16802.985
16802.444
16802.303
16802.281
16802.28
16802.281
16802.281
16802.281
16802.277
16802.281
16802.281
16802.283
16802.287
16802.298
16802.321
16802.382
16802.136
16773.282
58663.135
17538.363
17503.89
17655.77
17788.581
17713.35
17735.588
17823.44
17579.737
17504.257
17881.765
18201.628
17858.908
17310.975
16999.189
16838.196
16783.142
16856.293
16812.049
16730.177
16730.21
16887.552
16939.177
16880.696
16830.805
16821.198
16816.796
16813.691
16804.76
16796.121
16796.69
16808.811
16811.354
16807.809
16804.537
16802.995
16802.446
16802.303
16802.282
16802.281
16802.28
16802.28
16802.28
16802.281
16802.281
16802.28
16802.283
16802.287
16802.297
16802.32
16802.382
16802.135
16773.264
58662.5
17538.643
17502.929
17652.215
17789.461
17715.52
17735.528
17826.476
17582.816
17501.355
17874.207
18199.533
17868.791
17316.579
17003.036
16839.637
16782.936
16855.841
16813.102
16731.03
16729.064
16885.651
16939.304
16881.465
16831.122
16821.293
16816.827
16813.813
16804.834
16796.174
16796.604
16808.728
16811.364
16807.848
16804.562
16803.005
16802.45
16802.305
16802.281
16802.282
16802.28
16802.281
16802.281
16802.281
16802.28
16802.281
16802.283
16802.287
16802.298
16802.321
16802.382
16802.135
16773.317
58661.849
17539.257
17502.161
17648.59
17790.359
17717.703
17735.123
17828.555
17585.383
17498.409
17866.248
18197.317
17878.764
17323.551
17007.756
16841.175
16782.753
16855.291
16814.147
16731.932
16727.941
16883.722
16939.411
16882.24
16831.446
16821.398
16816.826
16813.924
16804.917
16796.235
16796.519
16808.644
16811.373
16807.888
16804.587
16803.015
16802.453
16802.304
16802.282
16802.281
16802.281
16802.281
16802.281
16802.281
16802.282
16802.281
16802.283
16802.287
16802.297
16802.321
16802.382
16802.134
16773.31
58661.185
17540.057
17501.396
17644.85
17791.261
17719.687
17734.016
17829.576
17587.831
17495.538
17858.503
18195.17
17888.834
17330.716
17007.992
16842.819
16782.552
16854.642
16815.249
16732.886
16726.822
16881.772
16939.504
16883.017
16831.784
16821.511
16816.821
16814.027
16805.007
16796.295
16796.436
16808.557
16811.382
16807.927
16804.613
16803.026
16802.456
16802.305
16802.282
16802.28
16802.28
16802.281
16802.281
16802.281
16802.281
16802.28
16802.283
16802.287
16802.297
16802.32
16802.382
16802.133
16773.324
58660.509
17500.48
17640.91
17792.167
17721.282
17732.125
17829.88
17590.606
17492.829
17851.177
18193.092
17898.926
17337.252
17085.226
16844.036
16782.316
16853.951
16816.435
16733.857
16725.714
16879.805
16939.582
16883.788
16832.139
16821.622
16816.822
16814.128
16805.106
16796.355
16796.356
16808.469
16811.39
16807.966
16804.638
16803.036
16802.459
16802.306
16802.281
16802.282
16802.281
16802.281
16802.282
16802.281
16802.281
16802.282
16802.283
16802.287
16802.297
16802.319
16802.382
16802.132
16773.376
58659.822
17499.319
17636.697
17793.021
17722.344
17729.696
17830.099
17594.013
17490.364
17844.171
18190.96
17909.137
17344.846
17026.48
16845.59
16782.062
16853.28
16817.671
16734.819
16724.635
16877.821
16939.643
16884.546
16832.512
16821.729
16816.795
16814.233
16805.207
16796.41
16796.278
16808.379
16811.397
16808.006
16804.664
16803.046
16802.463
16802.307
16802.282
16802.281
16802.28
16802.281
16802.281
16802.281
16802.281
16802.282
16802.283
16802.287
16802.297
16802.321
16802.383
16802.132
16773.353
58659.127
17497.869
17632.167
17793.747
17722.888
17727.248
17830.429
17598.153
17488.198
17837.263
18188.649
17919.436
17352.671
17029.243
16847.119
16781.831
16852.645
16818.907
16735.771
16723.59
16875.815
16939.675
16885.299
16832.9
16821.831
16816.763
16814.344
16805.309
16796.467
16796.203
16808.287
16811.404
16808.047
16804.69
16803.057
16802.466
16802.308
16802.282
16802.281
16802.281
16802.28
16802.282
16802.281
16802.28
16802.281
16802.281
16802.287
16802.296
16802.32
16802.383
16802.131
16773.405
58658.42
17496.123
17627.334
17794.298
17723.077
17725.18
17831.019
17602.921
17486.341
17830.258
18186.098
17929.86
17360.672
17033.178
16849.137
16781.665
16852.009
16820.131
16736.722
16722.573
16873.781
16939.677
16886.062
16833.297
16821.933
16816.751
16814.456
16805.41
16796.522
16796.131
16808.193
16811.411
16808.087
16804.717
16803.068
16802.47
16802.31
16802.28
16802.281
16802.281
16802.281
16802.281
16802.281
16802.281
16802.282
16802.282
16802.287
16802.297
16802.32
16802.383
16802.13
16773.387
58657.705
17622.33
17794.655
17723.122
17723.523
17832.023
17608.097
17484.748
17823.076
18183.322
17940.395
17368.844
17037.292
16849.236
16781.592
16851.31
16821.359
16737.687
16721.576
16871.717
16939.649
16886.84
16833.704
16822.032
16816.74
16814.565
16805.514
16796.579
16796.062
16808.097
16811.416
16808.127
16804.743
16803.08
16802.473
16802.31
16802.283
16802.281
16802.281
16802.28
16802.279
16802.281
16802.281
16802.281
16802.283
16802.287
16802.297
16802.319
16802.383
16802.13
16773.444
58656.982
17617.42
17794.802
17723.171
17722.073
17833.462
17613.468
17483.342
17815.747
18180.358
17951.007
17377.081
17040.539
16920.37
16781.572
16850.524
16822.604
16738.666
16720.605
16869.632
16939.588
16887.626
16834.121
16822.13
16816.73
16814.667
16805.621
16796.637
16795.995
16807.999
16811.42
16808.167
16804.77
16803.09
16802.477
16802.312
16802.282
16802.28
16802.282
16802.281
16802.281
16802.281
16802.28
16802.282
16802.283
16802.287
16802.296
16802.321
16802.383
16802.128
16773.426
58656.25
17612.87
17794.811
17723.327
17720.598
17835.145
17618.894
17482.081
17808.355
18177.207
17961.653
17385.523
17044.795
16862.114
16781.588
16849.681
16823.866
16739.652
16719.658
16867.537
16939.515
16888.408
16834.555
16822.226
16816.721
16814.762
16805.729
16796.696
16795.93
16807.898
16811.423
16808.207
16804.797
16803.102
16802.48
16802.311
16802.284
16802.281
16802.28
16802.281
16802.28
16802.281
16802.281
16802.282
16802.283
16802.287
16802.297
16802.32
16802.383
16802.127
16773.48
58655.508
17794.691
17723.694
17719.198
17836.788
17624.332
17480.955
17800.968
18173.833
17972.313
17394.139
17049.211
16862.526
16781.57
16848.826
16825.142
16740.639
16718.739
16865.436
16939.434
16889.168
16835.014
16822.322
16816.713
16814.856
16805.837
16796.757
16795.867