/*--------------------------------*- C++ -*----------------------------------*\
| =========                 |                                                 |
| \\      /  F ield         | OpenFOAM: The Open Source CFD Toolbox           |
|  \\    /   O peration     | Version:  2506                                  |
|   \\  /    A nd           | Website:  www.openfoam.com                      |
|    \\/     M anipulation  |                                                 |
\*---------------------------------------------------------------------------*/
FoamFile
{
    version     2.0;
    format      ascii;
    arch        "LSB;label=32;scalar=64";
    class       volScalarField;
    location    "0.026";
    object      Co;
}
// * * * * * * * * * * * * * * * * * * * * * * * * * * * * * * * * * * * * * //

dimensions      [0 0 0 0 0 0 0];

internalField   nonuniform List<scalar> 
13761
(
0.0093667395
0.0095404735
0.0097068749
0.0081725074
0.0083799755
0.0085808474
0.0087744154
0.0089606553
0.0091397493
0.0093118092
0.0094770679
0.0096357301
0.0073216211
0.0075389025
0.0077527396
0.0079617643
0.008164653
0.0083609402
0.0085507266
0.0087342142
0.0089114443
0.0090824176
0.0092472811
0.0094057512
0.009556871
0.0062326672
0.0064520475
0.0066709572
0.0068884826
0.0071038881
0.0073163661
0.0075249218
0.0077281579
0.0079254131
0.0081169687
0.0083029935
0.0084834873
0.0086583952
0.0088273764
0.008990038
0.009145675
0.0092933504
0.0053952445
0.0056080623
0.0058219623
0.0060366473
0.0062516266
0.0064660509
0.0066789135
0.0068893257
0.0070962722
0.0072988992
0.0074963393
0.0076886017
0.0078762018
0.0080591335
0.0082370729
0.0084095033
0.0085758617
0.008735892
0.0088889645
0.0090342238
0.0091715358
0.004593154
0.0047937131
0.0049967218
0.0052018461
0.0054087637
0.0056170391
0.0058261753
0.0060353284
0.0062433892
0.0064492652
0.0066522041
0.0068515885
0.007047005
0.0072380539
0.0074251739
0.00760866
0.0077878288
0.0079618915
0.0081304912
0.0082932618
0.0084494527
0.0085980123
0.0087384785
0.0088712488
0.0089959031
0.0038536752
0.0040388542
0.0042275908
0.0044195887
0.0046146667
0.0048125879
0.005012856
0.005214875
0.0054179237
0.0056212788
0.0058238667
0.0060246976
0.0062232124
0.006419258
0.0066124242
0.0068024519
0.0069893151
0.0071732186
0.0073535249
0.0075291581
0.0076996762
0.0078647797
0.0080233608
0.0081744112
0.008317851
0.0084539478
0.0085825503
0.0087023415
0.0088129199
0.0031810031
0.0033473903
0.0035180818
0.0036929302
0.0038716377
0.0040540483
0.0042397868
0.0044285243
0.0046197487
0.0048127231
0.0050067798
0.0052012712
0.005395526
0.0055887337
0.0057806355
0.0059711677
0.0061600574
0.0063466863
0.0065310285
0.0067128304
0.0068914015
0.0070657723
0.0072352867
0.0073995205
0.007557634
0.0077086414
0.0078525775
0.0079897689
0.0081195668
0.0082411319
0.0083539462
0.0084590038
0.0085570669
0.0025866051
0.0027327505
0.0028837491
0.003039442
0.0031997052
0.0033643169
0.0035331067
0.0037057146
0.0038819078
0.0040612062
0.0042431766
0.0044272495
0.0046128329
0.0047994797
0.0049866597
0.0051738996
0.0053608592
0.0055474763
0.0057332276
0.0059174777
0.0060997012
0.0062797588
0.0064567344
0.00662975
0.0067982448
0.0069616653
0.0071193466
0.0072706892
0.007415427
0.0075535858
0.0076847483
0.0078080382
0.0079235533
0.0080316623
0.0081328818
0.0082267301
0.0020710723
0.0021962088
0.0023262772
0.002461269
0.0026011722
0.0027457933
0.0028949538
0.0030484999
0.0032061841
0.003367802
0.0035329331
0.0037013421
0.0038725315
0.0040461098
0.0042216326
0.0043986625
0.0045768002
0.0047555789
0.0049347298
0.0051138884
0.0052925756
0.0054700079
0.0056457323
0.0058192644
0.0059901765
0.0061575196
0.0063207735
0.0064795319
0.006633177
0.0067812428
0.0069234774
0.0070595431
0.007189076
0.0073117911
0.0074274839
0.0075365883
0.0076390114
0.0077346006
0.007823238
0.007905387
0.0015339879
0.0016340603
0.0017389187
0.0018485355
0.0019629587
0.0020822707
0.0022063521
0.0023351824
0.0024687449
0.0026068393
0.0027493066
0.0028959964
0.0030466878
0.003201187
0.0033590713
0.003520192
0.003684108
0.0038505413
0.0040191312
0.0041894712
0.0043611814
0.0045338474
0.0047071208
0.0048803557
0.0050529747
0.0052243454
0.0053940871
0.0055615554
0.0057262897
0.0058874976
0.0060447132
0.0061974856
0.0063452452
0.0064876206
0.0066242629
0.0067546412
0.0068785293
0.0069959367
0.0071067934
0.0072112756
0.007309324
0.0074010601
0.007487082
0.0075675649
0.0011120468
0.0011891356
0.0012705164
0.0013563429
0.0014466534
0.001541465
0.001640865
0.0017448053
0.0018533498
0.0019665617
0.0020843079
0.0022065866
0.0023333946
0.0024645286
0.0025998645
0.0027392457
0.0028824771
0.0030293711
0.0031794932
0.0033327528
0.0034886643
0.0036469255
0.003807111
0.0039687664
0.0041314509
0.0042946665
0.0044579042
0.0046204718
0.0047818811
0.0049415246
0.0050989386
0.0052534449
0.0054046315
0.0055517781
0.0056944504
0.0058323725
0.0059652006
0.0060928259
0.0062152649
0.006332414
0.0064446801
0.0065523315
0.0066555522
0.0067545171
0.0068493354
0.0069399075
0.0070270234
0.00711321
0.0071951045
0.00068530429
0.00073625964
0.00079051695
0.00084830649
0.00090961488
0.00097450478
0.0010431928
0.0011157539
0.0011923967
0.0012732759
0.0013584321
0.0014478892
0.0015417355
0.0016399098
0.001742507
0.0018495608
0.0019609446
0.0020766885
0.0021968025
0.0023210806
0.0024494179
0.0025816295
0.0027175726
0.0028570793
0.0029996864
0.0031453437
0.0032935286
0.0034439578
0.0035962197
0.0037499038
0.0039045764
0.0040597893
0.004215101
0.004369995
0.0045241796
0.0046771511
0.0048286499
0.0049781726
0.0051256294
0.0052705784
0.0054129123
0.0055526026
0.0056894244
0.0058232699
0.0059539815
0.0060810519
0.0062043259
0.006323153
0.0064368048
0.006544378
0.0066447145
0.0067363899
0.0068182032
0.0068874251
0.0069390292
0.00032636723
0.00035213378
0.00037979598
0.00040961562
0.00044167463
0.00047600807
0.0005126868
0.00055198168
0.00059404932
0.00063883987
0.00068644312
0.00073717662
0.00079124987
0.00084862614
0.00090938752
0.00097372469
0.0010416913
0.0011135321
0.0011893956
0.001269322
0.0013533541
0.0014415734
0.0015338847
0.00163043
0.0017311796
0.0018359909
0.0019449491
0.0020580451
0.0021750564
0.0022959344
0.002420424
0.002548496
0.0026799831
0.0028142839
0.0029514593
0.0030909638
0.0032324807
0.0033756164
0.0035198995
0.0036648347
0.0038100301
0.003954901
0.0040990066
0.0042418213
0.0043828204
0.0045214124
0.0046569845
0.0047889728
0.0049167908
0.0050396668
0.0051573055
0.0052687961
0.0053739749
0.0054721536
0.0055630532
0.0056463689
0.0057221185
0.0057899753
0.0058502626
0.0059027525
0.0059479982
0.0059863814
0.0060183998
0.0060452289
1.2891934e-05
1.368543e-05
1.4914493e-05
1.6177467e-05
1.7546928e-05
1.9036313e-05
2.0651036e-05
2.2396289e-05
2.4267559e-05
2.6240763e-05
2.829819e-05
3.05854e-05
3.3418695e-05
3.664328e-05
3.9985685e-05
4.336896e-05
4.6814947e-05
5.0372136e-05
5.4677073e-05
5.9504945e-05
6.4546432e-05
6.9936963e-05
7.5753924e-05
8.2091144e-05
8.8947271e-05
9.6360773e-05
0.00010442667
0.00011316131
0.00012259018
0.00013276133
0.00014373002
0.00015561986
0.00016844108
0.00018224887
0.00019716677
0.00021326757
0.00023064164
0.000249303
0.0002694815
0.00029114928
0.00031439179
0.00033942401
0.00036624288
0.00039502454
0.00042600361
0.00045919944
0.00049465247
0.00053254582
0.00057305563
0.00061629304
0.00066233643
0.00071137423
0.00076358169
0.00081904329
0.00087788755
0.00094031697
0.0010064137
0.0010762419
0.0011499293
0.0012275194
0.0013091079
0.001394809
0.0014846716
0.0015787176
0.0016769909
0.0017793689
0.001885806
0.00199625
0.0021105558
0.0022285475
0.0023501707
0.0024752214
0.0026034442
0.0027346509
0.0028685313
0.0030047632
0.0031429904
0.0032828935
0.0034239036
0.0035657587
0.0037078002
0.0038498312
0.0039911995
0.0041315543
0.0042704435
0.004407392
0.0045422126
0.0046744519
0.00480415
0.0049306642
0.0050546453
0.0051753949
0.0052935779
0.0054089613
0.0055219166
0.005632907
0.0057422645
0.0058506018
0.0059584588
0.0060666767
0.006176022
0.006287855
0.006402893
0.00652232
1.3380033e-05
1.4215754e-05
1.5490887e-05
1.6802448e-05
1.8224769e-05
1.977155e-05
2.1448519e-05
2.3261191e-05
2.5205204e-05
2.7256273e-05
2.9396267e-05
3.1773533e-05
3.4715483e-05
3.8058278e-05
4.1526817e-05
4.5040559e-05
4.8618723e-05
5.2313276e-05
5.6805371e-05
6.1810163e-05
6.7037665e-05
7.2645208e-05
7.873738e-05
8.5324751e-05
9.24217e-05
0.00010012841
0.00010853908
0.00011759728
0.00012735296
0.00013794251
0.00014926939
0.00016161644
0.00017491124
0.00018915564
0.00020465913
0.00022141267
0.00023960027
0.00025890658
0.00027990599
0.00030240867
0.00032656225
0.00035276532
0.0003807761
0.00041064063
0.0004428289
0.00047739593
0.00051429602
0.00055358987
0.00059551377
0.0006403955
0.00068826054
0.00073914017
0.00079322674
0.00085074012
0.0009117926
0.00097663772
0.0010454384
0.0011180652
0.0011946507
0.0012752279
0.0013598923
0.001448784
0.0015421005
0.0016397311
0.0017418973
0.0018484834
0.0019593073
0.0020742735
0.0021933341
0.0023160962
0.0024426582
0.0025726885
0.0027057715
0.0028421329
0.002981138
0.0031225978
0.0032661185
0.0034115343
0.0035580759
0.003705768
0.0038535389
0.0040014124
0.0041485271
0.0042943479
0.0044383751
0.0045796361
0.0047178545
0.004851715
0.0049809344
0.0051037101
0.005220158
0.0053284087
0.0054280133
0.0055177181
0.0055962562
0.0056632979
0.0057175386
0.0057590875
0.0057871295
0.0058023163
0.0058047168
0.0057959357
0.0057773847
0.0057543047
1.4353448e-05
1.5273535e-05
1.664056e-05
1.8049019e-05
1.9576774e-05
2.1238028e-05
2.3039144e-05
2.4986269e-05
2.7075331e-05
2.9281566e-05
3.1586345e-05
3.4143677e-05
3.7303241e-05
4.0881776e-05
4.4601055e-05
4.8372393e-05
5.2213793e-05
5.6175831e-05
6.1038692e-05
6.6393654e-05
7.1995037e-05
7.8028006e-05
8.4569984e-05
9.1649241e-05
9.927139e-05
0.00010753043
0.00011656737
0.00012629914
0.00013677261
0.00014814319
0.00016030055
0.00017356716
0.00018785306
0.0002031511
0.00021979781
0.00023778477
0.00025732198
0.00027801915
0.00030054954
0.00032472347
0.00035063933
0.00037873808
0.00040876534
0.00044076375
0.00047524614
0.00051227497
0.00055179772
0.00059389171
0.00063880742
0.00068686472
0.00073805915
0.00079246335
0.00085031242
0.00091179254
0.00097698201
0.0010461652
0.001119508
0.0011968927
0.0012784895
0.0013643063
0.0014544259
0.0015489911
0.0016481501
0.001751803
0.001860209
0.0019731877
0.0020906254
0.0022124404
0.0023385655
0.0024686619
0.0026026719
0.0027404791
0.0028815945
0.0030261471
0.003173668
0.0033239209
0.0034764781
0.0036313217
0.0037876371
0.0039455577
0.0041043105
0.0042637268
0.0044233917
0.0045826587
0.0047415449
0.0048993003
0.005056065
0.0052110755
0.00536448
0.0055153909
0.0056640803
0.0058098113
0.0059522805
0.0060911793
0.0062265302
0.0063572568
0.0064819842
0.006599309
0.0067073387
0.0068015378
0.0068807519
0.0069435006
0.0069872463
0.0070079706
1.5321353e-05
1.6325647e-05
1.7784068e-05
1.9288882e-05
2.0921499e-05
2.2696596e-05
2.4621172e-05
2.6701985e-05
2.8935204e-05
3.1295526e-05
3.3763955e-05
3.6501405e-05
3.9878339e-05
4.3691371e-05
4.7658823e-05
5.1685402e-05
5.5787374e-05
6.0016098e-05
6.5251293e-05
7.0955952e-05
7.6928102e-05
8.3368694e-05
9.0326694e-05
9.7914182e-05
0.00010608053
0.00011490026
0.00012455389
0.00013495258
0.00014613935
0.00015828477
0.00017127324
0.00018545285
0.00020072392
0.00021706941
0.00023485531
0.00025406767
0.0002749312
0.00029702426
0.00032107528
0.00034689369
0.00037455681
0.00040453365
0.00043656743
0.00047069749
0.00050745604
0.00054691569
0.00058903858
0.00063391604
0.00068179284
0.00073298084
0.0007874735
0.00084537521
0.0009069331
0.00097230712
0.0010415777
0.0011150599
0.0011929228
0.0012750616
0.0013616536
0.0014526802
0.0015482206
0.0016484193
0.0017534003
0.0018630699
0.0019776785
0.0020970166
0.00222099
0.0023495128
0.0024824438
0.0026195118
0.0027605107
0.0029054039
0.0030536343
0.0032052477
0.0033598423
0.0035171109
0.0036765493
0.0038380925
0.0040008653
0.0041647339
0.0043290568
0.0044934585
0.0046574998
0.0048203556
0.0049816892
0.0051409547
0.0052977374
0.0054517226
0.0056022968
0.0057493824
0.0058924931
0.0060317882
0.0061667888
0.0062969314
0.0064225678
0.0065436495
0.0066604283
0.0067727524
0.0068830986
0.0069899461
0.0070925023
0.0071894344
0.007279774
0.0073620879
1.6284458e-05
1.7372874e-05
1.8922261e-05
2.0522962e-05
2.2259946e-05
2.4148342e-05
2.6195784e-05
2.8409613e-05
3.0786192e-05
3.329962e-05
3.5930659e-05
3.8848586e-05
4.2442764e-05
4.6489286e-05
5.0702357e-05
5.4981942e-05
5.9341946e-05
6.3836378e-05
6.9446607e-05
7.5501718e-05
8.1840865e-05
8.8669613e-05
9.6016922e-05
0.00010412541
0.00011285467
0.00012224613
0.00013250623
0.00014356538
0.00015546054
0.00016837552
0.00018219395
0.00019728188
0.00021353505
0.00023092351
0.00024983916
0.0002702657
0.00029244333
0.00031593382
0.00034148798
0.00036893385
0.00039834213
0.00043017754
0.00046419464
0.00050044474
0.00053946973
0.00058134432
0.00062604154
0.00067367067
0.00072448036
0.00077876909
0.00083652452
0.00089787493
0.00096308314
0.0010322889
0.0011055676
0.0011832544
0.0012655217
0.0013522843
0.0014437271
0.0015398124
0.0016406171
0.0017463013
0.0018569949
0.0019726336
0.0020934556
0.0022192309
0.0023498894
0.0024853662
0.0026254632
0.0027699844
0.0029186229
0.0030714166
0.0032278042
0.0033877482
0.0035509347
0.0037170597
0.0038856169
0.0040565955
0.0042292552
0.0044033403
0.004578275
0.0047536806
0.0049292781
0.0051043771
0.005278298
0.0054506046
0.0056206235
0.0057881742
0.00595209
0.0061123696
0.0062682435
0.0064195417
0.0065654455
0.0067058166
0.0068408208
0.0069704122
0.0070947097
0.0072133426
0.0073269449
0.0074353256
0.0075387156
0.0076367867
0.0077292757
1.7243488e-05
1.8416032e-05
2.005602e-05
2.175221e-05
2.3593148e-05
2.5594402e-05
2.7764214e-05
3.0110481e-05
3.2629714e-05
3.529536e-05
3.808807e-05
4.1187168e-05
4.4998555e-05
4.9277793e-05
5.3733952e-05
5.8264416e-05
6.2880156e-05
6.7639162e-05
7.362754e-05
8.0035589e-05
8.6736778e-05
9.3938694e-05
0.00010166386
0.00011029688
0.00011959718
0.00012957304
0.00014043184
0.00015214233
0.00016474366
0.00017842576
0.00019307276
0.0002090653
0.00022629095
0.00024471746
0.00026476011
0.00028639401
0.0003098764
0.00033475716
0.00036179642
0.00039085521
0.00042200156
0.0004556864
0.00049167011
0.00053001835
0.00057128379
0.00061555219
0.00066280577
0.00071316496
0.00076688267
0.00082425117
0.00088525671
0.00095004568
0.0010188946
0.0010919297
0.0011692191
0.0012510947
0.0013377184
0.0014290219
0.0015251993
0.0016262058
0.0017320996
0.0018430129
0.0019590549
0.0020802045
0.0022067087
0.0023383488
0.002475057
0.0026167738
0.0027632529
0.0029143619
0.0030697138
0.0032293675
0.0033927401
0.0035596418
0.0037297254
0.0039026134
0.0040777363
0.0042549856
0.0044337154
0.004613647
0.0047942298
0.0049749684
0.0051555886
0.0053358006
0.0055148428
0.0056922879
0.0058673697
0.006040276
0.0062097113
0.0063754014
0.0065367
0.0066937094
0.0068457239
0.0069919445
0.0071320614
0.0072662943
0.0073947338
0.0075165879
0.0076316926
0.0077402027
0.0078430178
0.0079403598
0.0080318808
1.819921e-05
1.945596e-05
2.1186265e-05
2.297761e-05
2.4922183e-05
2.7035957e-05
2.9327737e-05
3.180596e-05
3.4467237e-05
3.7284314e-05
4.0237864e-05
4.3519181e-05
4.7547815e-05
5.2059218e-05
5.6755982e-05
6.1535268e-05
6.6404822e-05
7.1427313e-05
7.7796157e-05
8.45616e-05
9.1622204e-05
9.9187151e-05
0.00010730465
0.00011645871
0.00012631639
0.00013688145
0.00014833589
0.00016069319
0.00017399812
0.00018844288
0.00020391664
0.00022081177
0.00023900463
0.00025846277
0.00027962749
0.00030245984
0.00032723936
0.00035350213
0.0003820105
0.00041267412
0.00044555114
0.00048107454
0.00051901843
0.00055946007
0.00060296005
0.00064961015
0.00069940916
0.00075247943
0.00080906088
0.00086944218
0.00093363049
0.0010017889
0.0010742032
0.001151006
0.0012322797
0.001318361
0.0014093985
0.0015053258
0.0016063229
0.001712339
0.0018234378
0.0019397362
0.0020613098
0.002188128
0.0023204057
0.0024579453
0.0026007111
0.0027486822
0.0029016066
0.0030594417
0.0032217979
0.0033887805
0.0035598862
0.003734899
0.0039134848
0.0040951698
0.004279308
0.0044656144
0.0046533786
0.004842209
0.0050316262
0.0052211065
0.0054101651
0.0055987143
0.0057861943
0.005972263
0.0061558081
0.0063371084
0.006515263
0.0066897185
0.0068592736
0.0070239797
0.0071839498
0.0073385627
0.0074866284
0.0076279985
0.0077633347
0.0078926187
0.0080150675
0.0081296053
0.0082367944
0.0083377831
1.9152421e-05
2.0493529e-05
2.2313954e-05
2.4200162e-05
2.6248145e-05
2.8474192e-05
3.0887643e-05
3.3497449e-05
3.6300268e-05
3.9268103e-05
4.2381777e-05
4.5846746e-05
5.0092706e-05
5.4835939e-05
5.9770893e-05
6.4796958e-05
6.9918907e-05
7.5204175e-05
8.1953766e-05
8.9081827e-05
9.6505108e-05
0.00010443203
0.00011297924
0.00012263748
0.00013301769
0.00014416887
0.00015622014
0.0001692232
0.00018323098
0.0001984364
0.00021473564
0.00023252708
0.00025168379
0.00027216823
0.00029445124
0.00031847896
0.00034454342
0.00037218257
0.00040215569
0.00043441567
0.00046901706
0.0005063653
0.00054625363
0.0005887684
0.00063447572
0.00068347806
0.00073579818
0.00079157465
0.00085103679
0.00091445375
0.00098182745
0.0010533199
0.0011292179
0.0012096603
0.0012947522
0.00138485
0.0014801045
0.001580454
0.0016860702
0.0017968924
0.0019129834
0.0020344563
0.0021613856
0.0022937432
0.0024316785
0.0025749499
0.00272347
0.002877187
0.0030358059
0.0031993027
0.0033672735
0.0035398639
0.0037166932
0.0038976055
0.0040824241
0.0042707263
0.0044618878
0.0046554783
0.004850683
0.0050468378
0.0052432735
0.0054393924
0.0056345127
0.0058284872
0.006020916
0.0062119457
0.0064005973
0.006586825
0.0067700816
0.0069503239
0.0071261143
0.0072963013
0.0074608473
0.0076202533
0.0077736949
0.0079199791
0.0080588567
0.0081911225
0.0083172901
0.0084360077
0.008546134
0.0086477203
2.0103934e-05
2.1529636e-05
2.3440086e-05
2.5420897e-05
2.7572132e-05
2.9910292e-05
3.2445237e-05
3.5186376e-05
3.8130359e-05
4.1248405e-05
4.4521606e-05
4.8172072e-05
5.263546e-05
5.7610381e-05
6.2781212e-05
6.8051953e-05
7.3425414e-05
7.8973604e-05
8.610089e-05
9.3595668e-05
0.00010139251
0.0001096969
0.00011871279
0.00012884086
0.00013970311
0.00015142398
0.00016408313
0.00017773696
0.00019244913
0.00020841516
0.00022553846
0.00024421894
0.00026433534
0.00028584723
0.00030924522
0.00033446412
0.00036180215
0.00039080894
0.00042224866
0.00045609605
0.00049241043
0.0005315727
0.00057340576
0.00061800039
0.00066590702
0.00071724213
0.00077204265
0.00083046212
0.00089274316
0.00095915569
0.0010297263
0.001104623
0.001184082
0.0012682264
0.0013571671
0.0014512739
0.0015507396
0.0016555241
0.001765774
0.00188141
0.0020024819
0.0021290776
0.0022612626
0.0023990661
0.0025426686
0.0026918786
0.0028466094
0.0030067647
0.0031719603
0.0033421072
0.003516723
0.0036958439
0.0038790872
0.0040662718
0.0042573512
0.0044520614
0.0046500384
0.0048509838
0.0050541991
0.0052589718
0.0054644435
0.0056697362
0.0058737787
0.0060760326
0.006275768
0.0064731455
0.006667707
0.0068595205
0.007048029
0.0072336432
0.0074158979
0.0075934076
0.007764779
0.007929995
0.0080893092
0.0082421926
0.0083873555
0.0085243837
0.0086543578
0.0087775772
0.008893438
2.1054595e-05
2.2565211e-05
2.4565694e-05
2.6640927e-05
2.8895299e-05
3.13455e-05
3.4001879e-05
3.6874227e-05
3.9959115e-05
4.3226957e-05
4.6659215e-05
5.0497459e-05
5.5178384e-05
6.0385028e-05
6.5789569e-05
7.1302737e-05
7.6927517e-05
8.2740745e-05
9.0238808e-05
9.8102015e-05
0.00010628812
0.00011500237
0.00012450747
0.00013505916
0.00014638126
0.00015865138
0.0001719301
0.0001862409
0.00020165831
0.00021838615
0.00023633423
0.00025589831
0.00027696617
0.00029950681
0.00032401936
0.0003504271
0.00037903272
0.00040939997
0.00044230698
0.00047774508
0.00051575796
0.00055670556
0.00060045599
0.00064712377
0.0006972335
0.00075091839
0.00080822047
0.00086927613
0.00093432201
0.001003631
0.0010772717
0.0011554757
0.0012384515
0.0013262508
0.0014189924
0.0015170018
0.0016204802
0.0017294849
0.0018441898
0.0019644997
0.0020904539
0.0022220915
0.002359386
0.0025023087
0.002650992
0.002805287
0.002965196
0.0031307154
0.0033015215
0.0034775285
0.0036582066
0.003843473
0.0040328712
0.004226044
0.0044228527
0.0046229372
0.0048259977
0.0050318939
0.0052401964
0.0054504307
0.0056619714
0.0058740531
0.0060854992
0.0062954063
0.0065025723
0.0067065648
0.0069066513
0.0071029335
0.0072950566
0.0074835238
0.0076685639
0.0078497448
0.0080258942
0.0081959308
0.0083594472
0.0085165635
0.0086666529
0.0088087311
0.0089427751
0.0090688741
2.2005288e-05
2.3601217e-05
2.5691835e-05
2.7861448e-05
3.0218891e-05
3.2781144e-05
3.5558999e-05
3.8562546e-05
4.1788204e-05
4.5205564e-05
4.8796544e-05
5.2825309e-05
5.7723874e-05
6.3162423e-05
6.8798722e-05
7.4551851e-05
8.0428134e-05
8.6511848e-05
9.4369971e-05
0.00010260015
0.00011119047
0.00012035352
0.0001303337
0.00014128634
0.00015305965
0.00016586404
0.00017976702
0.00019474
0.00021086485
0.00022835485
0.00024712871
0.00026757397
0.00028958843
0.00031315742
0.00033878475
0.00036637739
0.00039625027
0.00042797173
0.00046233385
0.00049937278
0.00053909984
0.00058183256
0.00062746072
0.00067614969
0.0007284341
0.00078445032
0.00084425797
0.00090799132
0.00097585421
0.001048102
0.0011247877
0.0012062169
0.0012926948
0.0013842145
0.0014808456
0.0015829111
0.0016904911
0.0018036278
0.0019225986
0.0020473676
0.0021780218
0.002314694
0.0024573669
0.0026059063
0.0027602833
0.0029202395
0.0030857176
0.0032567319
0.0034330745
0.0036147926
0.0038014239
0.0039928298
0.0041885671
0.0043882121
0.0045915937
0.0047982458
0.005007741
0.0052198266
0.0054340975
0.0056501292
0.0058674591
0.0060855236
0.0063034304
0.0065203952
0.0067351534
0.0069470084
0.007154811
0.0073579804
0.0075557579
0.0077485836
0.007937111
0.008121379
0.0083008697
0.0084748451
0.0086425432
0.0088036072
0.0089573227
0.0091028378
0.0092402999
2.295692e-05
2.4638649e-05
2.6819582e-05
2.9083667e-05
3.1544171e-05
3.4218581e-05
3.7118063e-05
4.0252919e-05
4.3619333e-05
4.7186079e-05
5.0935585e-05
5.5158093e-05
6.0274387e-05
6.5945137e-05
7.181152e-05
7.780191e-05
8.3929469e-05
9.0293783e-05
9.8498726e-05
0.00010709047
0.0001160948
0.00012572359
0.0001361526
0.0001475168
0.00015974697
0.00017307755
0.00018760264
0.00020323874
0.0002200755
0.0002383296
0.00025792656
0.00027925452
0.00030221516
0.00032680945
0.0003535491
0.00038232921
0.00041348405
0.00044656319
0.00048236157
0.00052097055
0.00056239911
0.00060695989
0.00065451373
0.00070521543
0.00075963577
0.00081792728
0.00088017766
0.00094653121
0.0010171769
0.0010923505
0.0011720667
0.0012565944
0.0013463471
0.001441417
0.0015418036
0.0016478475
0.0017596682
0.0018771144
0.0020003776
0.0021294842
0.0022644544
0.0024054608
0.0025527308
0.0027062653
0.0028659525
0.003031401
0.0032023789
0.0033787272
0.0035601914
0.0037469365
0.0039387295
0.0041354334
0.004336564
0.004541589
0.0047502959
0.0049622274
0.0051769407
0.0053941425
0.0056134766
0.0058345171
0.0060568559
0.0062799277
0.0065028502
0.006724912
0.0069449575
0.0071623395
0.0073760474
0.0075853421
0.0077888747
0.0079861991
0.0081778891
0.0083646144
0.0085464004
0.0087227254
0.0088930489
0.0090573653
0.0092151229
0.0093648404
0.009505946
2.3910435e-05
2.567854e-05
2.7950053e-05
3.0308823e-05
3.2872419e-05
3.5659217e-05
3.8680596e-05
4.1946999e-05
4.5454283e-05
4.9170431e-05
5.307842e-05
5.7498402e-05
6.2832485e-05
6.8735795e-05
7.4830915e-05
8.1055691e-05
8.743325e-05
9.4094297e-05
0.00010263155
0.00011157726
0.0001209929
0.00013107321
0.00014194219
0.00015374635
0.00016645122
0.00018030947
0.00019544748
0.00021174355
0.00022929681
0.00024831924
0.00026873731
0.00029094582
0.00031485701
0.0003404855
0.00036832927
0.00039828301
0.00043071734
0.00046515455
0.00050240878
0.00054259608
0.00058567765
0.00063200866
0.00068149526
0.00073425722
0.0007908356
0.00085141543
0.00091612431
0.0009851019
0.0010585309
0.0011366623
0.0012195136
0.0013072611
0.0014002779
0.0014988168
0.0016029094
0.0017127368
0.0018285727
0.0019503971
0.0020781899
0.002211968
0.0023517337
0.0024973891
0.0026491467
0.0028073314
0.0029720374
0.0031428993
0.0033195832
0.0035017177
0.0036887871
0.0038807941
0.0040777461
0.0042797739
0.0044865257
0.0046973819
0.0049119801
0.0051297496
0.005350137
0.0055726763
0.0057970217
0.0060228293
0.0062498705
0.0064778019
0.0067058949
0.0069333902
0.0071590062
0.0073819471
0.0076012213
0.0078162067
0.0080257285
0.0082288089
0.0084250623
0.0086148066
0.0087986682
0.0089767627
0.0091485334
0.0093137405
0.0094723718
0.0096238084
2.4866813e-05
2.6721962e-05
2.9084409e-05
3.1538218e-05
3.4204968e-05
3.7104528e-05
4.0248197e-05
4.3646506e-05
4.7294898e-05
5.1160611e-05
5.5227216e-05
5.9848929e-05
6.5400823e-05
7.1537058e-05
7.7859917e-05
8.4316151e-05
9.0940801e-05
9.792153e-05
0.00010677645
0.00011606868
0.00012587733
0.00013638204
0.00014769565
0.00015998214
0.00017317948
0.0001875737
0.00020331186
0.00022026533
0.00023853558
0.00025832929
0.0002795753
0.00030266102
0.00032751579
0.00035418389
0.00038314666
0.00041428089
0.00044796735
0.00048374919
0.00052247214
0.00056428136
0.00060905803
0.00065712173
0.00070847293
0.0007632823
0.00082202892
0.00088487934
0.00095197978
0.001023489
0.001099606
0.0011806006
0.0012665562
0.0013575767
0.0014538799
0.0015557766
0.0016635533
0.0017772293
0.0018968136
0.0020225305
0.0021544609
0.0022925288
0.0024369045
0.0025873831
0.0027437253
0.0029062039
0.003075259
0.0032508039
0.0034325814
0.003620186
0.0038128803
0.0040101753
0.0042118723
0.0044183168
0.0046295433
0.0048450826
0.0050645454
0.0052873278
0.0055128679
0.0057404846
0.0059695745
0.0061996324
0.0064304134
0.0066616859
0.0068930306
0.0071240416
0.0073535904
0.0075807308
0.0078043281
0.0080235896
0.0082374659
0.0084451351
0.0086459392
0.0088394779
0.0090258974
0.0092056466
0.0093789441
0.0095458715
0.0097061877
2.5827058e-05
2.7770015e-05
3.0223845e-05
3.2773142e-05
3.5543226e-05
3.8556087e-05
4.182254e-05
4.535323e-05
4.9143075e-05
5.3158671e-05
5.7384231e-05
6.2212425e-05
6.7982161e-05
7.4351619e-05
8.0901566e-05
8.7586482e-05
9.4453313e-05
0.00010178333
0.00011094242
0.00012057287
0.00013075096
0.00014165328
0.00015342446
0.00016622691
0.00017994098
0.00019487901
0.00021120473
0.00022881566
0.00024780359
0.00026836628
0.00029044372
0.00031441506
0.00034022056
0.00036791783
0.00039799204
0.00043032768
0.00046526889
0.00050238163
0.00054255237
0.00058595854
0.00063246958
0.00068232174
0.00073552763
0.00079233934
0.00085327569
0.00091846816
0.00098801135
0.0010621023
0.0011409365
0.0012247525
0.0013137348
0.0014080503
0.0015077129
0.0016128556
0.0017240629
0.0018416888
0.0019654181
0.0020951761
0.0022312168
0.0023734773
0.0025222001
0.0026774884
0.0028388944
0.0030061302
0.0031795638
0.003359475
0.0035458737
0.0037385262
0.0039368505
0.0041400592
0.0043473552
0.0045587842
0.0047747004
0.0049950012
0.0052193281
0.0054469567
0.0056773742
0.0059099499
0.0061439728
0.0063787255
0.0066138568
0.0068490787
0.0070839413
0.0073181854
0.0075510374
0.0077817275
0.0080091502
0.008232299
0.008449953
0.0086613166
0.0088657592
0.0090626764
0.0092517907
0.0094331028
0.0096069137
0.0097739172
2.6792212e-05
2.8823832e-05
3.1369613e-05
3.4014838e-05
3.6888733e-05
4.0015532e-05
4.3405367e-05
4.706902e-05
5.1000777e-05
5.5166737e-05
5.9551839e-05
6.4591662e-05
7.0579404e-05
7.7182233e-05
8.3958953e-05
9.0870227e-05
9.7972093e-05
0.00010568618
0.0001151393
0.00012509585
0.00013562353
0.0001469084
0.00015915681
0.00017248591
0.0001867469
0.0002022323
0.00021913971
0.0002374038
0.00025710916
0.00027844654
0.0003013546
0.00032621312
0.00035297733
0.00038171872
0.00041289444
0.00044641713
0.00048262678
0.00052109917
0.00056274071
0.00060771913
0.00065592273
0.00070757214
0.00076265275
0.00082142174
0.00088447079
0.00095196133
0.0010239461
0.0011006015
0.0011821234
0.001268692
0.0013605348
0.0014580703
0.0015613041
0.0016699209
0.0017843144
0.0019053388
0.0020330462
0.0021670042
0.0023071465
0.0024534441
0.0026061318
0.0027655909
0.002931735
0.0031039112
0.0032818861
0.0034659485
0.0036564072
0.0038531824
0.0040559951
0.0042643032
0.0044769754
0.00469329
0.0049133679
0.0051375969
0.0053660977
0.0055981019
0.0058329095
0.0060698186
0.0063080742
0.0065467652
0.0067853528
0.0070235993
0.0072611726
0.00749783
0.0077329267
0.007965854
0.008195744
0.0084216716
0.0086422189
0.008856392
0.0090636208
0.0092632651
0.0094547726
0.0096378775
0.009812726
2.7763354e-05
2.9884584e-05
3.2523028e-05
3.5264521e-05
3.8243169e-05
4.1484558e-05
4.4998472e-05
4.879579e-05
5.2870052e-05
5.7187037e-05
6.1732547e-05
6.6989524e-05
7.3195582e-05
8.003178e-05
8.7035267e-05
9.4171434e-05
0.00010149878
0.00010963447
0.00011937679
0.0001296437
0.00014050429
0.0001521701
0.00016491383
0.00017877232
0.00019359999
0.00020963612
0.00022713026
0.0002460448
0.00026646363
0.00028857788
0.00031232723
0.00033807157
0.00036578382
0.00039558516
0.00042788168
0.00046257057
0.00050002829
0.00053987017
0.00058300908
0.00062956857
0.0006794542
0.00073291478
0.00078992394
0.00085070954
0.00091587521
0.00098567477
0.0010601447
0.0011393593
0.0012235973
0.0013130217
0.0014076944
0.0015081832
0.0016148914
0.0017273723
0.0018454069
0.0019697129
0.0021009414
0.0022390312
0.0023835831
0.0025342257
0.0026910572
0.0028545081
0.0030249827
0.0032020702
0.0033850049
0.0035736086
0.0037683468
0.003969348
0.0041764406
0.0043894007
0.0046073949
0.0048292482
0.0050542313
0.0052824792
0.0055146895
0.0057506162
0.0059896237
0.0062309324
0.00647373
0.0067169725
0.0069597608
0.0072015544
0.0074420602
0.0076811881
0.0079184696
0.0081534107
0.0083852608
0.0086132672
0.0088361425
0.0090526805
0.0092621483
0.0094640055
0.0096577549
0.0098427326
2.8741591e-05
3.0953462e-05
3.3685444e-05
3.6523336e-05
3.9608262e-05
4.2964875e-05
4.660366e-05
5.0535467e-05
5.4752976e-05
5.9221837e-05
6.3929107e-05
6.940881e-05
7.5833715e-05
8.2903151e-05
9.0133625e-05
9.749452e-05
0.00010503525
0.00011363036
0.00012366213
0.00013422425
0.00014540347
0.00015746525
0.00017070529
0.00018509845
0.00020049822
0.00021709631
0.00023518478
0.00025475038
0.00027588356
0.00029876892
0.00032336673
0.00035001021
0.00037867292
0.00040953099
0.00044296718
0.00047885185
0.00051755824
0.00055875455
0.00060340514
0.00065155045
0.00070308247
0.00075830248
0.00081722449
0.00088003922