/*--------------------------------*- C++ -*----------------------------------*\
| =========                 |                                                 |
| \\      /  F ield         | OpenFOAM: The Open Source CFD Toolbox           |
|  \\    /   O peration     | Version:  2506                                  |
|   \\  /    A nd           | Website:  www.openfoam.com                      |
|    \\/     M anipulation  |                                                 |
\*---------------------------------------------------------------------------*/
FoamFile
{
    version     2.0;
    format      ascii;
    arch        "LSB;label=32;scalar=64";
    class       volScalarField;
    location    "0.5";
    object      Ma;
}
// * * * * * * * * * * * * * * * * * * * * * * * * * * * * * * * * * * * * * //

dimensions      [0 0 0 0 0 0 0];

internalField   nonuniform List<scalar> 
19257
(
0.29796198
0.29836644
0.29862842
0.29864081
0.29875107
0.2987312
0.29863779
0.29861331
0.29863421
0.29869891
0.29873816
0.29877185
0.29880309
0.29886688
0.29890012
0.29892198
0.29896165
0.29901991
0.29908743
0.29917843
0.29928635
0.29938549
0.29948897
0.29958658
0.29971546
0.29985585
0.29997412
0.30009562
0.30020894
0.30031899
0.30039821
0.30047479
0.30053755
0.30061256
0.30061143
0.30061591
0.30060392
0.30056308
0.30054011
0.30057416
0.30067917
0.30103511
0.30184504
0.3033841
0.30576099
0.30738891
0.31062067
0.31524723
0.34072784
0.29779026
0.29868436
0.29874015
0.29870914
0.29872816
0.298714
0.29866967
0.29865451
0.29866569
0.29870699
0.2987353
0.2987773
0.29879906
0.2988081
0.29882145
0.29885526
0.29888477
0.29892844
0.29897203
0.29904881
0.29914456
0.29923511
0.29932488
0.2993928
0.29948424
0.29958138
0.29967217
0.29973596
0.29978462
0.29981856
0.29983336
0.29981016
0.29976118
0.29970415
0.29957474
0.29943042
0.29921934
0.29892889
0.29861421
0.29827649
0.29791717
0.29772489
0.29778217
0.29835991
0.2996655
0.30080623
0.30228282
0.30655404
0.3366064
0.29777254
0.29896972
0.29889751
0.29876394
0.29871726
0.29872749
0.29871157
0.29868396
0.29868401
0.29870752
0.29873145
0.29876676
0.29876458
0.29875617
0.29877239
0.29879817
0.2988224
0.29884818
0.29887374
0.29893502
0.29901413
0.29908756
0.29915615
0.29919422
0.29923542
0.29928854
0.2993385
0.29935535
0.29934676
0.2993121
0.29926117
0.29915433
0.2990038
0.29882732
0.29859154
0.2982907
0.297894
0.29740012
0.29682089
0.29614335
0.29539152
0.29467574
0.29398539
0.29367593
0.29387219
0.2940724
0.29385182
0.29714655
0.33011551
0.29775413
0.29919854
0.29904127
0.29879885
0.29870505
0.29873628
0.29872484
0.29869579
0.29868961
0.29870208
0.29872234
0.29873601
0.29872762
0.29871858
0.29873128
0.2987354
0.29876323
0.29877043
0.2987853
0.2988214
0.29887271
0.29892797
0.29896625
0.29897134
0.29896881
0.29898205
0.29898945
0.29897313
0.29890765
0.29880914
0.2986857
0.29850002
0.29825688
0.29797356
0.29762424
0.2971828
0.2966279
0.2959466
0.29512679
0.2941554
0.29304663
0.29183821
0.29052001
0.28934993
0.28841916
0.28747696
0.28550658
0.28761905
0.32048436
0.29777855
0.29932935
0.29913536
0.29882945
0.29867919
0.29872354
0.29872295
0.29870142
0.29869504
0.2987004
0.29871175
0.29870655
0.298696
0.29868159
0.29867757
0.29867178
0.29868468
0.29868123
0.29867565
0.29868115
0.29870468
0.2987427
0.29875303
0.29873803
0.29870222
0.29867369
0.29864232
0.29857645
0.2984555
0.29829717
0.29810107
0.29784055
0.29751217
0.29712778
0.29667103
0.29610336
0.29540156
0.29454675
0.29351172
0.29227792
0.29083776
0.28919095
0.28732494
0.28534676
0.28335454
0.28118524
0.27742248
0.27775251
0.30875458
0.29773277
0.29939684
0.2992079
0.29885
0.29865282
0.29871451
0.29873679
0.2987422
0.29873036
0.29871146
0.29870546
0.29868828
0.29867142
0.29864429
0.29862333
0.29860343
0.29858884
0.29857613
0.29854841
0.29852702
0.29852806
0.29854163
0.29853402
0.29849943
0.29843017
0.29835524
0.29827662
0.29815827
0.29799093
0.29777519
0.29751227
0.29718023
0.29677107
0.29628981
0.29572565
0.29503913
0.29420188
0.29318618
0.29195779
0.29048611
0.28874647
0.28670938
0.28433196
0.28164426
0.27866515
0.27528232
0.26969959
0.2677094
0.29553368
0.29765668
0.29943327
0.2992594
0.29888673
0.2986759
0.29875987
0.29880672
0.29879701
0.29876138
0.29872083
0.29870177
0.29867524
0.29864348
0.29860402
0.29856436
0.29852404
0.29848705
0.29846382
0.29842868
0.29838452
0.29835109
0.29833108
0.29830671
0.29824386
0.29814273
0.29802569
0.29789948
0.29773799
0.2975233
0.29725351
0.29692786
0.29652643
0.29603488
0.29545642
0.29478583
0.29398785
0.29302388
0.29185906
0.29045263
0.28876421
0.2867504
0.28435887
0.28152157
0.27820092
0.27430312
0.26976076
0.2623547
0.25767508
0.28098774
0.2976458
0.29937566
0.29928588
0.29894658
0.29877726
0.29886198
0.29886177
0.29882875
0.29877118
0.29872248
0.29869009
0.29865626
0.29860802
0.29854989
0.29848833
0.29843519
0.29838529
0.29834709
0.2983018
0.29823746
0.29817259
0.29811911
0.29806769
0.29798131
0.29785388
0.29769834
0.29752714
0.29731948
0.29705604
0.29673144
0.29634257
0.29587274
0.295303
0.29463239
0.29385869
0.29295204
0.29186777
0.29056268
0.28899136
0.28710279
0.28483835
0.28212558
0.27886785
0.27497503
0.27024139
0.26459034
0.25545139
0.24786068
0.26563635
0.29763653
0.2992145
0.29929472
0.29902117
0.29883377
0.29892008
0.29890349
0.29884234
0.2987726
0.29870574
0.29865624
0.29861543
0.29855976
0.29849185
0.29841563
0.29834772
0.29828537
0.29822923
0.29816724
0.29808452
0.29799452
0.29791345
0.2978292
0.29771625
0.29756256
0.29737058
0.29715046
0.29689263
0.29658009
0.29620205
0.29575339
0.29522074
0.29458056
0.29382442
0.29295076
0.29193656
0.29073606
0.28929889
0.28757337
0.28549929
0.28300442
0.27999766
0.27635691
0.2719465
0.26645557
0.25976123
0.24901536
0.23844606
0.24980869
0.29748426
0.29910403
0.2994079
0.29912638
0.29889035
0.29893483
0.29892254
0.29884397
0.29875327
0.29867282
0.29860956
0.29856383
0.29850752
0.298438
0.29835774
0.29827482
0.29819543
0.29811851
0.29803919
0.29794083
0.29782601
0.29771053
0.29759063
0.2974469
0.29726269
0.29703493
0.29676879
0.29646337
0.29610364
0.29567585
0.29517102
0.29457818
0.29387269
0.29303771
0.29206919
0.29095021
0.28963737
0.2880754
0.28620523
0.28395848
0.28125115
0.27797535
0.27398425
0.26910191
0.26292769
0.25525966
0.24306236
0.22959492
0.23393702
0.29733446
0.29906165
0.29961311
0.29928646
0.29898576
0.29887227
0.29886077
0.29879641
0.29871436
0.29863799
0.29856546
0.29851018
0.29845351
0.29838006
0.29829375
0.29819908
0.29810463
0.29800956
0.29791018
0.29779321
0.2976539
0.29750547
0.29735051
0.29717455
0.29696136
0.29670191
0.29639569
0.29604586
0.29564099
0.29516457
0.29460481
0.29395228
0.29318454
0.29227835
0.29122333
0.29000518
0.28858473
0.28690432
0.28489857
0.28249123
0.27958784
0.27606516
0.27175357
0.26644036
0.25964801
0.25106606
0.23759164
0.22134121
0.21831742
0.29729836
0.29886494
0.29965727
0.29932652
0.29899984
0.29879972
0.29877871
0.29873891
0.29868283
0.29861779
0.29853849
0.29846267
0.29839136
0.29830697
0.29821023
0.29810321
0.29799275
0.29788175
0.29776565
0.29763318
0.29747473
0.29729859
0.29711269
0.29690712
0.29666666
0.29637932
0.29603886
0.29564665
0.29519657
0.29467279
0.29406146
0.29335245
0.2925258
0.29155498
0.29042293
0.28911414
0.28759286
0.28580142
0.28366934
0.28111344
0.27802982
0.27428155
0.26967772
0.26397138
0.25661822
0.24716599
0.23253631
0.2133553
0.20295251
0.29715425
0.29874568
0.29960519
0.29927961
0.29891918
0.29873413
0.29873963
0.29871252
0.29866189
0.29859568
0.29851189
0.2984195
0.29833163
0.29823552
0.29812614
0.29800722
0.29788294
0.29775426
0.2976186
0.29746999
0.29729766
0.29710076
0.29688618
0.29665057
0.29638302
0.29607021
0.29570016
0.29526986
0.2947774
0.29421025
0.2935526
0.2927918
0.2919097
0.29087972
0.28967969
0.28829019
0.28667687
0.28478288
0.28253464
0.27984294
0.27659548
0.27264293
0.26777506
0.26171309
0.25385404
0.24358645
0.22784715
0.20593375
0.18844326
0.29711454
0.29866476
0.29959723
0.29931377
0.29893942
0.29872642
0.29874692
0.29871958
0.2986555
0.29857527
0.29847785
0.29837635
0.29828151
0.29818051
0.29806377
0.29793427
0.29779683
0.29765312
0.29749942
0.29733152
0.29714105
0.29692363
0.29668233
0.29641669
0.29611983
0.29578118
0.29538582
0.29492386
0.29439317
0.29378593
0.2930869
0.29228084
0.29134919
0.29026567
0.28900528
0.28754464
0.28584894
0.28386226
0.28150919
0.27869563
0.27530177
0.27116736
0.26606498
0.2596868
0.25137932
0.24036994
0.22358635
0.19929648
0.17492439
0.29702886
0.29858384
0.29968163
0.29942579
0.29907794
0.29879273
0.29880292
0.2987702
0.29868234
0.29856989
0.29845648
0.29834546
0.29824363
0.29814086
0.29802241
0.29788654
0.29773764
0.29757981
0.29740982
0.29722393
0.29701523
0.29677765
0.29651152
0.2962172
0.29589033
0.29552356
0.29510338
0.29461498
0.29405141
0.29340739
0.292671
0.29182593
0.2908518
0.2897217
0.28840873
0.28688647
0.2851187
0.28305011
0.28060445
0.2776838
0.27416189
0.269869
0.26456295
0.25791066
0.24921672
0.23755677
0.21982679
0.19350717
0.1626818
0.29690232
0.29847605
0.29968384
0.29942714
0.29907014
0.29874927
0.29871799
0.29872228
0.29867506
0.29858219
0.29846242
0.29833376
0.29821218
0.29809736
0.29797541
0.29783782
0.29768411
0.29751731
0.2973348
0.29713353
0.29690919
0.29665501
0.29636906
0.29605123
0.29569852
0.29530554
0.29486132
0.29434977
0.29375945
0.29308447
0.29231565
0.29143718
0.29042733
0.28925825
0.28790118
0.28632709
0.28449816
0.28235939
0.27983429
0.27682204
0.27319082
0.26876291
0.26328403
0.25640051
0.24738471
0.23517939
0.21663345
0.18863012
0.15197832
0.29684873
0.29844003
0.29969387
0.29942788
0.29904353
0.29867659
0.29865191
0.29868416
0.2986575
0.29858212
0.29846467
0.29832605
0.29818681
0.2980528
0.29791674
0.2977707
0.29761145
0.29743955
0.29725038
0.29703971
0.29680449
0.29653878
0.29623991
0.29590732
0.29553848
0.29512755
0.2946649
0.29413603
0.29352713
0.2928298
0.29203587
0.2911307
0.29009234
0.28889261
0.28750125
0.28588677
0.28400955
0.28181457
0.27922534
0.27613877
0.27241845
0.26787987
0.26225915
0.25518671
0.2459121
0.23327222
0.21406508
0.18472717
0.14314149
0.29676787
0.29835396
0.29970001
0.29946964
0.29910263
0.29870555
0.29866623
0.29870262
0.29867081
0.29858331
0.29845841
0.29831826
0.29817578
0.29803292
0.29788324
0.29772431
0.2975562
0.2973758
0.29717615
0.29695351
0.29670745
0.29643335
0.29612693
0.29578592
0.29540825
0.294988
0.29451585
0.29397905
0.29336227
0.29265331
0.29184349
0.29092002
0.28986206
0.28864195
0.28722841
0.28558731
0.28367697
0.28144226
0.27880709
0.27566708
0.27188208
0.2672619
0.26153512
0.25432014
0.24485076
0.23188751
0.21218682
0.18187761
0.13656695
0.29674478
0.29832949
0.29970737
0.29947152
0.29908936
0.29866682
0.29862097
0.29867807
0.29865479
0.29857539
0.29845799
0.29832475
0.29818813
0.29804709
0.29789339
0.29772534
0.29754558
0.29735277
0.29714102
0.29690652
0.29664985
0.29636832
0.29605609
0.2957087
0.29532336
0.29489542
0.2944185
0.29388073
0.29326246
0.29254783
0.2917285
0.2907938
0.28972407
0.28849218
0.28706593
0.28540884
0.28347777
0.28121794
0.27855411
0.27538128
0.27155685
0.26688688
0.26109563
0.25379357
0.24420499
0.23104593
0.21104664
0.18017974
0.132653
0.29674669
0.29832354
0.29970617
0.29947078
0.29908734
0.29866977
0.29859723
0.29866395
0.29864654
0.29857176
0.29845536
0.29832407
0.29819096
0.29805594
0.2979115
0.29774844
0.29756353
0.29735842
0.29713389
0.29688956
0.29662496
0.29633834
0.29602333
0.2956724
0.29528046
0.29484477
0.29436294
0.29382367
0.29320526
0.29248986
0.29166881
0.29073196
0.28965988
0.28842586
0.28699732
0.28533631
0.28339888
0.28113067
0.27845715
0.27527335
0.27143571
0.2667486
0.2609346
0.25360151
0.24397179
0.23075012
0.21065587
0.1796103
0.13120783
0.29677727
0.298342
0.29970356
0.29946351
0.29906914
0.29865979
0.29866402
0.29869926
0.29866354
0.29856857
0.29843395
0.29828905
0.29815195
0.29801594
0.29787079
0.2977114
0.29753759
0.29734917
0.29714086
0.29690755
0.29664996
0.29636996
0.29606217
0.29571673
0.29532775
0.2948947
0.29441541
0.2938774
0.29325991
0.29254631
0.29172786
0.29079399
0.28972521
0.28849549
0.28707253
0.28541759
0.28348638
0.28122512
0.27855998
0.27538669
0.27156253
0.26689301
0.26110253
0.25380258
0.24421795
0.23106494
0.21107119
0.18021139
0.13271433
0.29683287
0.29837172
0.29967907
0.29944068
0.29906392
0.29871361
0.2986733
0.29869905
0.29866257
0.29856886
0.29843507
0.29829466
0.29816212
0.29802809
0.29788754
0.29773611
0.29757178
0.29739365
0.2971935
0.29696468
0.29671101
0.29643739
0.2961376
0.29579881
0.29541508
0.29498723
0.29451091
0.29397284
0.29335622
0.29264787
0.29183924
0.29091749
0.28986175
0.28864662
0.28724035
0.28560387
0.28369306
0.28145495
0.27881674
0.27567561
0.27189105
0.26727175
0.26154665
0.25433611
0.24487476
0.23192359
0.21223413
0.18193925
0.13669222
0.29691073
0.29845114
0.29968993
0.29944866
0.29908737
0.29868762
0.29863592
0.29866924
0.29863753
0.29855735
0.29844622
0.29832365
0.29819658
0.29806752
0.29793953
0.29780252
0.29764893
0.29747678
0.2972799
0.29705569
0.29680975
0.29654589
0.29625481
0.29592233
0.2955447
0.29512366
0.29465378
0.2941222
0.29351343
0.2928172
0.29202585
0.29112386
0.29008912
0.28889756
0.28751825
0.28591186
0.28403461
0.28183472
0.27924081
0.27615229
0.27243222
0.26789465
0.26227655
0.25521124
0.24594906
0.23332723
0.21413626
0.18481787
0.14331764
0.29698474
0.29849913
0.29964258
0.29938944
0.29903579
0.29867016
0.29865954
0.29867976
0.29865132
0.29857281
0.29846691
0.29835493
0.29823571
0.29811565
0.29799908
0.29787158
0.29772436
0.29755587
0.29736424
0.29715036
0.29691835
0.29666792
0.29638722
0.29606366
0.29569723
0.29529031
0.2948372
0.29432465
0.29373682
0.29306524
0.29230161
0.29142775
0.29042251
0.28926454
0.28792362
0.28636008
0.28453082
0.28238563
0.27985477
0.27684018
0.27320916
0.26878244
0.26330739
0.25643392
0.24743471
0.23525289
0.21672742
0.18874795
0.15219663
0.29703664
0.29861815
0.29972195
0.29945712
0.29910198
0.29873932
0.2986874
0.29871217
0.29868398
0.29860139
0.29849265
0.2983816
0.29826608
0.29815144
0.29803814
0.29791481
0.29777681
0.2976196
0.29744139
0.29724465
0.2970313
0.2967977
0.29653191
0.29622413
0.29587761
0.29549396
0.29506644
0.29458097
0.29402255
0.2933843
0.29265556
0.29181624
0.29084796
0.28973231
0.28843908
0.28692835
0.28515854
0.28308138
0.28062884
0.27770562
0.27418407
0.26989311
0.26459303
0.25795431
0.24928108
0.23764929
0.21994299
0.19365066
0.16293637
0.2972122
0.29871934
0.2996097
0.29932985
0.29901111
0.29874245
0.29873522
0.29873535
0.29869273
0.29860421
0.29850306
0.29840543
0.29830247
0.29819785
0.29808911
0.29797062
0.29784171
0.29769702
0.29753484
0.29735686
0.29716312
0.29695018
0.29670351
0.29641576
0.29609426
0.29573924
0.29534142
0.29488628
0.29436194
0.29376241
0.29307348
0.29227431
0.29135007
0.2902843
0.28904605
0.28759616
0.28589553
0.283898
0.28153704
0.27872066
0.27532747
0.27119644
0.2661032
0.25974275
0.25145976
0.2404821
0.22372406
0.19946415
0.17520889
0.2971686
0.29876836
0.29954261
0.29922474
0.29887757
0.29870741
0.29874806
0.29875084
0.29870278
0.29861095
0.2985213
0.29844327
0.29835753
0.29826579
0.29816406
0.29805335
0.29793393
0.2978006
0.29765385
0.2974948
0.29732247
0.29713047
0.29690226
0.29663718
0.29634422
0.29602016
0.29565387
0.29523212
0.29474561
0.29418837
0.29354329
0.29278977
0.29191641
0.29090724
0.2897305
0.28834929
0.2867277
0.28482127
0.28256486
0.27987059
0.2766247
0.27267789
0.26782326
0.26178336
0.25395195
0.24371837
0.22800515
0.20612399
0.18875127
0.29731919
0.29882591
0.29965364
0.2993486
0.29899676
0.29877738
0.29879931
0.29878471
0.29870845
0.29860909
0.29853485
0.29847447
0.29840753
0.2983348
0.29824931
0.29815412
0.29804597
0.29792394
0.29779179
0.29765062
0.29750154
0.29733069
0.29712226
0.29688156
0.29661765
0.29632519
0.29599237
0.29560715
0.29516228
0.29465086
0.29405263
0.29334962
0.29253403
0.29158833
0.29048039
0.28917648
0.2876439
0.2858396
0.28370017
0.28114295
0.27806288
0.27432383
0.26973797
0.26405773
0.25673443
0.24731729
0.23271293
0.21356674
0.20327817
0.29744211
0.29913735
0.29974044
0.29940295
0.29902016
0.29881501
0.2988071
0.29877027
0.29867963
0.29858979
0.29854025
0.2984919
0.29844141
0.29838942
0.29832629
0.29825208
0.29815967
0.29805226
0.29793745
0.29781885
0.29769379
0.2975405
0.2973522
0.29713652
0.29690406
0.29664581
0.29634834
0.29600292
0.29560431
0.29514216
0.29459355
0.29394559
0.29319366
0.29231766
0.29128577
0.29006734
0.28863285
0.28694031
0.28492908
0.28252274
0.27962598
0.27611695
0.27182816
0.26654425
0.25978285
0.25123586
0.23778469
0.22157172
0.21865864
0.29752385
0.29922718
0.29954239
0.29922509
0.29889129
0.29880031
0.29879859
0.29875017
0.29867044
0.29860195
0.29855568
0.29851451
0.29847927
0.29844062
0.2983972
0.29834055
0.29826425
0.29817553
0.29808444
0.29799061
0.2978848
0.29775012
0.29758353
0.297397
0.29719987
0.29697738
0.29671906
0.29641807
0.29607021
0.29565912
0.29516202
0.29457373
0.29388989
0.29308762
0.29213735
0.29101124
0.28968221
0.28810951
0.28623642
0.2839938
0.28129689
0.27803954
0.27407554
0.26922442
0.263081
0.25544669
0.24326992
0.22984132
0.23428341
0.29759774
0.29927188
0.29925515
0.29898699
0.29875619
0.29879905
0.2988106
0.29876484
0.29869202
0.29863495
0.29858942
0.29855529
0.29853077
0.29850212
0.29847234
0.29842487
0.29836108
0.29829235
0.29822432
0.29815431
0.29806738
0.2979574
0.29781446
0.29766129
0.29750389
0.29732065
0.29710418
0.29684973
0.29655276
0.29619025
0.29574693
0.29522398
0.29461271
0.29388885
0.29302506
0.29199639
0.29077875
0.28933314
0.28760776
0.28554131
0.28306102
0.28007743
0.27646694
0.27208814
0.26662669
0.25996406
0.24923617
0.23870495
0.2501588
0.2977
0.29936489
0.2992586
0.29891407
0.29872773
0.29879301
0.29881428
0.29878335
0.29873017
0.29867796
0.29862765
0.29859737
0.29857547
0.29856093
0.29854196
0.29850879
0.29846451
0.29841712
0.29836559
0.29831246
0.29824425
0.29815494
0.29804186
0.29793418
0.29781469
0.2976657
0.29749119
0.2972856
0.29703719
0.29672281
0.29633669
0.2958834
0.29534877
0.29470828
0.29393594
0.29301063
0.29191062
0.29060004
0.28903205
0.28715461
0.28490894
0.28222367
0.27899799
0.27513564
0.27042921
0.26480749
0.25568444
0.24812974
0.26599045
0.29780813
0.2995125
0.29931302
0.29892122
0.2986966
0.29875824
0.29879975
0.2987808
0.29874465
0.29870069
0.29865501
0.29862934
0.29860799
0.29861138
0.2986053
0.29859172
0.29857344
0.29855056
0.29851636
0.2984733
0.29842284
0.29835015
0.29826829
0.29820092
0.29811426
0.29800269
0.29787359
0.29771781
0.29751535
0.2972514
0.29692806
0.29654621
0.29608961
0.29553655
0.29485961
0.29404345
0.29306844
0.29190246
0.29050329
0.28882885
0.28683789
0.28447744
0.28167237
0.27837964
0.27450613
0.26999082
0.26259935
0.25795272
0.2813433
0.29782177
0.299496
0.29929069
0.29891265
0.29865412
0.29870561
0.29877046
0.29876909
0.29875094
0.29871936
0.29868367
0.29866225
0.29865949
0.29867249
0.2986774
0.29867247
0.29867422
0.29867569
0.29866002
0.29863099
0.29859945
0.29854285
0.29849452
0.29846004
0.29840505
0.29833569
0.29825313
0.29814434
0.29798559
0.29777688
0.29752244
0.29721318
0.29683554
0.29637046
0.29579139
0.29508972
0.29424802
0.2932381
0.29202006
0.2905655
0.28885302
0.28685008
0.28450324
0.28183956
0.27888167
0.27552408
0.26995575
0.26799415
0.29589054
0.29781513
0.29940138
0.29920279
0.2988794
0.29863606
0.2986956
0.29876554
0.29877094
0.29876374
0.29874372
0.29872268
0.29870318
0.29871575
0.29873085
0.29874596
0.29875456
0.29876423
0.29877912
0.29877879
0.29877229
0.29875835
0.29873463
0.29872577
0.29871785
0.29868805
0.29865987
0.2986271
0.29856284
0.29845385
0.29830047
0.29811191
0.29787824
0.29758617
0.29721091
0.29673245
0.29615106
0.29545105
0.29460906
0.29358726
0.29237268
0.29096482
0.28935439
0.28751561
0.28555658
0.28358288
0.28143808
0.27769168
0.27804447
0.30910934
0.29782529
0.29922913
0.29904844
0.29881506
0.29862552
0.29869053
0.2987585
0.29876641
0.29877916
0.298764
0.29876155
0.29874545
0.29875504
0.29877163
0.29878896
0.29882259
0.29884821
0.29887001
0.29888784
0.29890413
0.29890174
0.29890892
0.29894322
0.29895627
0.29897065
0.29897363
0.29898361
0.29895968
0.29890986
0.29882179
0.29869415
0.2985356
0.29833472
0.29805527
0.29768298
0.29723046
0.29668549
0.29602473
0.29521722
0.29426644
0.29319553
0.29202505
0.29072808
0.28957188
0.28865839
0.28774131
0.2857913
0.28791973
0.32083768
0.29781462
0.2990373
0.29890822
0.29870763
0.29862315
0.29867021
0.29872639
0.29875031
0.29877593
0.29877056
0.29878372
0.29879074
0.29880279
0.29882021
0.29883497
0.29887297
0.29892476
0.29896195
0.29899789
0.29902655
0.29903787
0.29906384
0.2991437
0.2991839
0.29924181
0.2992824
0.29932249
0.29934475
0.29934928
0.29933222
0.29926792
0.29918669
0.29908147
0.29890261
0.29864448
0.29833503
0.29795803
0.29749778
0.29692319
0.29627264
0.29556338
0.2948853
0.29420844
0.293908
0.29412176
0.29435135
0.29415763
0.29746296
0.33047015
0.29778996
0.29878251
0.29883304
0.29868573
0.29863944
0.29866069
0.29867534
0.29872269
0.29876916
0.29878144
0.29880283
0.29883622
0.29885965
0.29888359
0.29891685
0.29894003
0.29899717
0.29904839
0.29909907
0.29913907
0.29917642
0.29923848
0.29932782
0.29941269
0.29949532
0.29959004
0.29965996
0.2997371
0.29979141
0.29983033
0.29983937
0.29984752
0.29983655
0.29976251
0.29962978
0.29947469
0.29928523
0.29904885
0.29873888
0.29841704
0.2981124
0.29795366
0.29801698
0.29860033
0.29992565
0.30110652
0.30261906
0.30690271
0.33693805
0.29797424
0.29841211
0.29873834
0.29869293
0.29868609
0.29866374
0.2986283
0.29868796
0.29875461
0.29880926
0.29882446
0.29884803
0.29888193
0.29892751
0.29899939
0.29903053
0.29907274
0.29912434
0.29918315
0.29923836
0.29929329
0.29940616
0.29949887
0.29962348
0.29973759
0.29986985
0.29998672
0.30011767
0.30022855
0.30032216
0.30041181
0.30052258
0.30061429
0.30064621
0.30066229
0.30067211
0.30069686
0.30068465
0.30068987
0.30074257
0.30090151
0.30127944
0.30208871
0.30363262
0.30602738
0.30772578
0.31098111
0.31566694
0.34101669
0.20220799
0.24645788
0.26158375
0.27038127
0.27601744
0.28054854
0.28433673
0.2874853
0.29005046
0.29205004
0.29349407
0.294512
0.29519234
0.29582943
0.2965511
0.29720489
0.29764089
0.29795297
0.29832559
0.29870037
0.298986
0.299168
0.29928707
0.29933742
0.29935621
0.2993699
0.29938315
0.29936688
0.29931794
0.29925551
0.29918304
0.29912073
0.29907615
0.29901762
0.29896714
0.29890531
0.29884855
0.29878679
0.29872
0.29865834
0.29857753
0.29849168
0.29845104
0.29846405
0.29846928
0.29871433
0.29894415
0.29923165
0.30114815
0.23245719
0.26075563
0.27173656
0.27787908
0.28227042
0.28579889
0.28875143
0.29118347
0.29310871
0.29452386
0.29546564
0.29608446
0.29657998
0.29702779
0.29746709
0.29797225
0.2984496
0.29882515
0.29908335
0.29927553
0.29941222
0.29950392
0.29957432
0.29961031
0.29959068
0.29957619
0.29954964
0.29949293
0.29941339
0.29933113
0.29924538
0.29917728
0.29911326
0.29904704
0.29899162
0.29892257
0.29886518
0.2987949
0.29872562
0.29866387
0.29857703
0.29849006
0.29844932
0.29846463
0.29847508
0.29872856
0.29895514
0.29925921
0.30121201
0.24454167
0.26992713
0.2790616
0.28394432
0.28749356
0.29033823
0.29270505
0.29463713
0.29610065
0.29705732
0.29757686
0.2978941
0.29817091
0.29841139
0.298662
0.29900533
0.29938911
0.29960802
0.29968169
0.29973744
0.29981419
0.29989894
0.29992998
0.29990227
0.29982579
0.29976184
0.29969747
0.29961432
0.29950851
0.29941274
0.29931069
0.29923241
0.29914932
0.29907655
0.29901677
0.29893927
0.29888194
0.29880397
0.29873374
0.29866823
0.29857815
0.29849068
0.29844341
0.29846455
0.29847844
0.29874006
0.29896225
0.29928541
0.30117448
0.25124883
0.27628313
0.28490844
0.28928476
0.29237936
0.29480984
0.29676563
0.29827275
0.29929314
0.29978693
0.29987781
0.29986089
0.29994107
0.30004464
0.30001691
0.30003363
0.30020297
0.30031022
0.30036443
0.30036408
0.30033607
0.30032694
0.3002805
0.30016409
0.30004984
0.29995342
0.29984505
0.29973979
0.29960667
0.29949197
0.2993751
0.29928517
0.29918431
0.29910463
0.2990415
0.29895631
0.29889802
0.29881397
0.29874284
0.29867133
0.29858092
0.29849164
0.29843831
0.29846106
0.29847949
0.29875242
0.29896542
0.29929646
0.30106849
0.25881411
0.28250045
0.2902628
0.29410003
0.29678776
0.29887436
0.30050797
0.30168763
0.30234533
0.30245548
0.30218336
0.30182329
0.30168292
0.30161295
0.30141103
0.30122641
0.30113616
0.30108453
0.3010544
0.30100219
0.3008459
0.30070057
0.30060924
0.30043426
0.30028332
0.30014764
0.29999364
0.29985825
0.29970403
0.29957021
0.2994384
0.29933561
0.29921836
0.29913166
0.2990644
0.29897462
0.29891315
0.29882481
0.29875252
0.29867409
0.29858593
0.29849226
0.29843685
0.29845944
0.29848219
0.29876548
0.29896524
0.29929784
0.30099366
0.26325274
0.28704585
0.29444284
0.29809853
0.30061413
0.30253497
0.30397482
0.30490953
0.30525069
0.30504302
0.30445892
0.3037932
0.30341996
0.30315094
0.30280138
0.30245679
0.30211654
0.30187593
0.30168571
0.30158107
0.30139312
0.30110814
0.30092413
0.30072481
0.30051655
0.30032551
0.30014603
0.29997128
0.29979948
0.29964712
0.29950133
0.29938369
0.29925166
0.29915877
0.29908503
0.29899422
0.29892773
0.29883596
0.29876219
0.29867743
0.29859113
0.29849262
0.29843672
0.29845977
0.29849258
0.29877609
0.29896434
0.29928486
0.30096562
0.26889091
0.29162913
0.29838932
0.30178524
0.30412457
0.3058924
0.30716068
0.30786923
0.307923
0.30741595
0.30659303
0.30568621
0.30504935
0.30463372
0.30417014
0.30362533
0.3030895
0.30272154
0.30239304
0.30213372
0.30192828
0.30156825
0.30121875
0.30098823
0.30075464
0.3005032
0.3002954
0.30008
0.29988706
0.29971948
0.29956371
0.29943115
0.29928397
0.29918537
0.29910473
0.29901459
0.29894155
0.29884717
0.29877157
0.29868162
0.29859568
0.29849245
0.2984359
0.29846054
0.29850072
0.29878387
0.29896768
0.29926566
0.3010098
0.27230715
0.29538518
0.30176915
0.30505931
0.30728739
0.30895632
0.31010082
0.31061343
0.31041993
0.30961695
0.30860269
0.30755411
0.30657602
0.30594337
0.30549314
0.30483324
0.30411026
0.30358106
0.30314997
0.30267458
0.30234513
0.30200218
0.30155853
0.3012258
0.30097372
0.30069201
0.30043374
0.30017923
0.29996915
0.29978817
0.29962475
0.29948023
0.29931751
0.29920982
0.29912608
0.29903541
0.29895379
0.29885907
0.29878041
0.29868644
0.29860011
0.29849229
0.29843565
0.29846101
0.2985058
0.29879068
0.29897395
0.29924985
0.30104626
0.27711481
0.29930636
0.30498953
0.30811495
0.31020974
0.31176339
0.31277459
0.31309922
0.31268023
0.31162656
0.31049027
0.30949565
0.30817974
0.30701925
0.30656327
0.30599282
0.30517775
0.30440005
0.30385008
0.3032681
0.30272878
0.30235343
0.30192322
0.30148388
0.30116375
0.30087679
0.3005674
0.30026776
0.30004844
0.29985626
0.2996841
0.29953057
0.29935445
0.299232
0.29914935
0.29905628
0.29896371
0.29887166
0.29878855
0.29869147
0.29860487
0.29849238
0.29843647
0.29846168
0.29851013
0.29879691
0.29897986
0.29924556
0.30101083
0.28021228
0.30263194
0.30789839
0.31092904
0.31293083
0.31438718
0.31526114
0.31538475
0.31471701
0.31339939
0.31207062
0.31124289
0.31006421
0.30828073
0.30736956
0.30687028
0.30618944
0.30524799
0.3044678
0.30385635
0.30317771
0.3026633
0.30222249
0.30175783
0.30136154
0.30103887
0.30069635
0.30035352
0.30012377
0.29992384
0.29974233
0.29958095
0.29939328
0.2992543
0.29917179
0.29907632
0.29897121
0.29888404
0.2987963
0.29869649
0.29860984
0.29849265
0.29843702
0.29846197
0.29851367
0.29880265
0.29898318
0.29926579
0.30094494
0.28504018
0.30635889
0.31071506
0.31361897
0.3155253
0.3168934
0.31763986
0.31758556
0.31667874
0.31510719
0.31336173
0.31233509
0.3115967
0.31008054
0.30839431
0.30749853
0.30692267
0.30606808
0.30506795
0.30434869
0.30362027
0.30301626
0.30248868
0.30200235
0.30157522
0.30118289
0.30081272
0.30044888
0.30019885
0.29998654
0.29979869
0.29963183
0.29943099
0.29928016
0.29919031
0.29909466
0.29897724
0.2988956
0.29880424
0.29870177
0.29861494
0.29849352
0.29843761
0.29846265
0.29851589
0.29880899
0.29898957
0.29929266
0.30090922
0.28818597
0.30926735
0.31323856
0.3160434
0.31789177
0.31919611
0.31984657
0.3196792
0.31863675
0.31701784
0.31500549
0.31308291
0.31228462
0.31153504
0.30990111
0.30830462
0.30744212
0.30669283
0.30568382
0.30481134
0.30399093
0.30335348
0.30278476
0.30223195
0.30176663
0.3013165
0.30091458
0.30055379
0.30027854
0.30004372
0.29984786
0.29968053
0.29946766
0.29930948
0.29920474
0.29911099
0.29898322
0.29890632
0.29881303
0.29870799
0.29861955
0.29849488
0.29844048
0.29846225
0.29851708
0.29881718
0.29900512
0.299313
0.30096228
0.29332285
0.31278632
0.31566453
0.31832976
0.3200766
0.32129042
0.32181833
0.32150973
0.3203108
0.31869466
0.31699975
0.31456358
0.3126485
0.31215575
0.31109347
0.30946759
0.30808403
0.307151
0.306195
0.30526875
0.30435855
0.30361566
0.30304955
0.30247298
0.30193131
0.30143578
0.30100944
0.300654
0.30035744
0.3001034
0.29988881
0.29972004
0.29950674
0.29933906
0.29921802
0.29912516
0.29899027
0.29891567
0.29882291
0.2987152
0.2986227
0.29849672
0.29844429
0.29845966
0.29852303
0.2988246
0.29902113
0.29931822
0.30098797
0.29626875
0.31453257
0.31799072
0.32040596
0.322116
0.32328686
0.32370749
0.32320474
0.32171113
0.31982299
0.31832431
0.31648651
0.31397996
0.31252162
0.31167544
0.31039834
0.30889464
0.30764237
0.30659536
0.30562713
0.3047468
0.30389598
0.30324441
0.30266929
0.30208595
0.30154898
0.30111046
0.30074116
0.30042362
0.3001693
0.29993162
0.2997491
0.29954601
0.29936761
0.29923319
0.29913606
0.29899792
0.2989236
0.29883308
0.2987225
0.29862537
0.29849904
0.29844642
0.29845969
0.29853047
0.29882813
0.29903406
0.29931212
0.30089003
0.30115547
0.31553201
0.31991926
0.32238377
0.32402936
0.32517599
0.32554048
0.32489068
0.32313483
0.3207708
0.31896039
0.31759109
0.31569381
0.31355875
0.31207398
0.31093277
0.30953452
0.30817749
0.30701044
0.30591918
0.30504222
0.30421449
0.30345512
0.30279728
0.3022083
0.30166377
0.30121839
0.30082233
0.30047759
0.30022719
0.29998657
0.29977387
0.29957701
0.2993974
0.29925076
0.29914357
0.29900498
0.29893111
0.2988427
0.29872898
0.29862978
0.29850125
0.29844918
0.2984691
0.29853624
0.2988296
0.29904221
0.29929504
0.30081109
0.30458186
0.31663645
0.32175947
0.32447543
0.32601594
0.3269715
0.32714915
0.3263367
0.32451567
0.32199814
0.31955779
0.31805244
0.31670202
0.31477981
0.31273106
0.31131925
0.30994985
0.30859372
0.30740305
0.30625842
0.30526625
0.30443683
0.30369779
0.30292361