/*--------------------------------*- C++ -*----------------------------------*\
| =========                 |                                                 |
| \\      /  F ield         | OpenFOAM: The Open Source CFD Toolbox           |
|  \\    /   O peration     | Version:  2506                                  |
|   \\  /    A nd           | Website:  www.openfoam.com                      |
|    \\/     M anipulation  |                                                 |
\*---------------------------------------------------------------------------*/
FoamFile
{
    version     2.0;
    format      ascii;
    arch        "LSB;label=32;scalar=64";
    class       volScalarField;
    location    "0.022";
    object      p;
}
// * * * * * * * * * * * * * * * * * * * * * * * * * * * * * * * * * * * * * //

dimensions      [1 -1 -2 0 0 0 0];

internalField   nonuniform List<scalar> 
13761
(
46937.163
46937.409
46937.575
46937.655
46937.696
46937.772
46937.906
46938.029
47140.9
46938.103
47140.949
46938.141
47141.005
46938.168
47141.064
46938.192
47141.129
46938.199
47141.193
46938.197
47141.248
46938.197
47141.306
46938.198
46962.094
47141.376
46938.153
46962.01
47141.453
46938.083
46962.151
47141.536
46938.047
46962.342
47141.601
46938.042
46962.453
47141.639
46937.952
46962.53
47141.69
46937.786
46962.582
47141.777
46937.651
47116.507
46962.632
47141.871
46937.566
47116.641
46962.558
47141.958
46937.469
47116.73
46962.455
47142.043
46937.405
47116.803
46962.082
47142.125
46937.231
47116.875
46961.684
47142.193
46936.931
47116.953
46961.516
47142.248
46936.729
47117.021
46961.618
47142.309
47117.051
46961.833
47142.492
46981.005
47117.062
46961.951
47142.687
46981.123
47117.091
46962.023
47142.736
46981.257
47117.152
46962.054
47142.664
46981.395
47117.243
46962.049
47142.619
46981.523
47117.353
46961.94
47142.643
46981.641
47117.47
46961.592
47142.691
46981.754
47117.577
46961.297
47142.747
46981.864
47117.676
46961.188
47034.677
46981.973
47117.773
46961.224
47035.045
46982.083
47117.847
46961.213
47035.413
46982.199
47117.897
46961.175
47035.779
46982.328
47117.951
46961.21
47036.141
46982.464
47118.024
46961.446
47036.5
46982.597
47118.082
46961.854
47036.857
46982.725
47118.111
46962.185
46867.956
47037.213
46982.85
47118.128
46962.332
46868.603
47037.569
46982.975
47118.156
46869.253
47037.924
46983.099
47118.201
46869.906
47038.28
46983.222
47118.255
46870.561
47038.638
46983.347
47118.318
46871.218
47038.997
46983.475
47118.385
46871.877
47039.356
46983.603
47118.459
46749.74
46872.539
47039.714
46983.724
47118.531
46750.553
46873.202
47040.07
46983.841
47118.669
46751.378
46873.866
47040.425
46983.953
47118.955
46752.217
46874.532
47040.779
46984.067
46753.068
46875.199
47041.132
46984.194
46753.933
46875.869
47041.484
46984.328
46754.807
46876.541
47041.834
46984.46
46574.667
46755.684
46877.215
47042.185
46984.59
46574.76
46756.555
46877.891
47042.54
46984.724
46574.873
46757.406
46878.569
47042.901
46984.86
46575.02
46758.23
46879.247
47043.272
46984.992
46575.212
46759.031
46879.926
47043.674
46575.452
46759.826
46880.606
47044.094
46575.723
46760.628
46881.288
47044.599
46594.899
46576.002
46761.441
46881.97
47045.16
46593.821
46576.283
46762.258
46882.652
47045.848
46592.75
46576.57
46763.075
46883.333
47046.737
46591.686
46576.872
46763.894
46884.014
47047.379
46590.631
46577.187
46764.716
46884.697
47047.589
46589.583
46577.514
46765.543
46885.385
47047.501
46588.542
46577.85
46766.374
46886.078
46847.138
46587.508
46578.196
46767.209
46886.778
46844.669
46586.481
46578.553
46768.049
46887.482
46842.194
46585.463
46578.922
46768.895
46888.188
46839.711
46584.452
46579.303
46769.747
46888.893
46837.224
46583.45
46579.694
46770.605
46889.596
46834.733
46582.455
46580.096
46771.47
46890.299
47225.486
46832.239
46581.469
46580.509
46772.34
46891.001
47223.921
46829.742
46580.49
46580.933
46773.214
46891.702
47222.318
46827.245
46579.519
46581.368
46774.092
47220.678
46824.745
46578.557
46581.813
46774.974
47219.006
46822.245
46577.602
46582.269
46775.859
47217.302
46819.743
46576.656
46582.735
46776.749
47215.567
46817.24
46575.719
46583.212
46777.642
47236.462
47213.798
46814.735
46574.792
46583.699
46778.539
47238.207
47211.995
46812.229
46573.875
46584.195
46779.442
47239.953
47210.156
46809.721
46572.967
46584.699
46780.35
47241.698
47208.28
46807.211
46572.068
46585.212
47243.441
47206.366
46804.701
46571.177
46585.734
47245.19
47204.414
46802.191
46570.291
46586.266
46877.504
47246.951
47202.423
46799.68
46569.41
46586.808
46879.305
47248.728
47200.394
46797.168
46568.534
46587.361
46881.129
47250.52
47198.329
46794.655
46567.664
46587.926
46882.98
47252.321
47196.229
46792.14
46566.802
46588.501
46884.858
47254.119
47194.095
46789.623
46565.947
46589.088
46886.766
47255.902
47191.924
46787.102
46565.102
46730.394
46888.71
47257.663
47189.713
46784.578
46564.267
46730.171
46890.695
47259.397
47187.459
46782.051
46563.444
46729.936
46892.718
47261.11
47185.161
46779.523
46562.633
46729.69
46894.778
47262.811
47182.825
46776.995
46561.832
46729.432
46896.87
47264.515
47180.455
46774.469
46561.042
46851.557
46729.161
46898.989
47266.226
47178.058
46771.944
46560.263
46850.341
46728.878
46901.123
47267.935
47175.635
46769.421
46559.494
46849.137
46728.583
46903.262
47269.621
47173.189
46766.902
46847.94
46728.279
46905.405
47271.264
47170.721
46764.386
46846.747
46727.965
46907.562
47272.859
47168.233
46761.875
46845.56
46727.64
46909.756
47274.412
47165.726
46759.367
46872.534
46844.386
46727.299
46912.003
47275.938
47163.2
46756.862
46873.358
46843.233
46726.939
46914.311
47277.442
47160.656
46754.358
46874.186
46842.109
46726.556
46916.678
47278.909
47158.092
46751.856
46875.017
46841.019
46726.149
46919.095
47280.33
47155.509
46749.358
46875.85
46839.964
46725.726
46921.553
47281.708
47152.904
46683.722
46876.681
46838.944
46725.298
46924.048
47283.034
47150.276
46684.378
46877.506
46837.959
46724.877
46926.577
47284.291
47147.621
46685.045
46878.326
46837.012
46724.466
46929.137
47285.501
47144.943
46685.716
46879.14
46836.105
46724.066
46931.72
47286.733
47142.248
46686.397
46879.949
46835.234
46723.674
46934.315
47288.049
47139.539
46705.757
46687.08
46880.755
46834.391
46723.287
46936.915
47289.424
47136.815
46704.996
46687.767
46881.555
46833.567
46722.91
46939.52
47290.774
46704.224
46688.453
46882.346
46832.753
46722.548
46942.14
47292.039
46703.442
46689.135
46883.121
46831.949
46722.211
46944.786
47293.209
46738.615
46702.659
46689.811
46883.876
46831.152
46721.9
46947.475
47294.302
46739.048
46701.872
46690.476
46884.606
46830.362
46721.614
46950.214
47295.346
46739.486
46701.089
46691.131
46885.313
46829.575
46721.349
46952.998
47296.375
46739.922
46700.305
46691.775
46886
46828.785
46721.1
46955.807
47297.418
46740.361
46699.525
46692.411
46886.674
46827.982
46720.865
46958.625
47298.477
46633.158
46740.801
46698.746
46693.046
46887.339
46827.161
46720.642
46961.449
46633.158
46741.243
46697.967
46693.685
46887.998
46826.317
46720.436
46964.289
46633.173
46741.69
46697.191
46694.334
46888.65
46825.45
46720.249
46967.159
46633.204
46742.135
46696.405
46694.995
46889.296
46824.562
46720.083
46970.068
46628.949
46633.255
46742.583
46695.614
46695.672
46889.935
46823.651
46719.941
46973.018
46628.4
46633.314
46743.023
46694.806
46696.365
46890.569
46822.721
46719.825
46976.004
46627.858
46633.387
46743.455
46693.984
46697.073
46891.2
46821.772
46719.741
46979.024
46627.321
46633.466
46743.875
46693.146
46697.793
46891.83
46820.804
46719.686
46614.359
46626.795
46633.555
46744.28
46692.294
46698.522
46892.457
46819.82
46719.659
46614.204
46626.278
46633.659
46744.678
46691.429
46699.259
46893.081
46818.821
46719.653
46614.07
46625.774
46633.775
46745.063
46690.551
46700.001
46893.698
46817.809
46719.66
46613.96
46625.287
46633.912
46745.445
46689.665
46700.75
46894.307
46816.786
46719.672
46561.596
46613.877
46624.81
46634.064
46745.818
46688.771
46701.504
46894.905
46815.752
46719.691
46561.153
46613.823
46624.351
46634.238
46746.189
46687.876
46702.262
46895.496
46814.706
46719.722
46560.72
46613.803
46623.901
46634.435
46746.557
46686.984
46703.024
46896.083
46813.648
46560.298
46613.814
46623.46
46634.653
46746.922
46686.1
46703.788
46896.669
46812.577
46544.328
46559.893
46613.858
46623.025
46634.898
46747.287
46685.23
46704.553
46897.259
46811.492
46543.776
46559.5
46613.932
46622.592
46635.165
46747.648
46684.376
46705.317
46897.851
46810.392
46543.221
46559.132
46614.036
46622.165
46635.459
46748.004
46683.546
46706.079
46898.448
46809.275
46542.665
46558.779
46614.163
46621.738
46635.776
46748.354
46682.742
46706.836
46899.049
46808.141
46515.578
46542.115
46558.453
46614.311
46621.315
46636.116
46748.696
46681.967
46707.587
46899.655
46806.992
46515.033
46541.574
46558.153
46614.473
46620.896
46636.478
46749.028
46681.218
46708.329
46900.267
46514.464
46541.045
46557.89
46614.646
46620.481
46636.859
46749.349
46680.496
46709.059
46900.881
46476.062
46513.876
46540.54
46557.662
46614.828
46620.073
46637.259
46749.657
46679.796
46709.777
46901.497
46475.569
46513.268
46540.054
46557.471
46615.016
46619.666
46637.674
46749.954
46679.117
46710.482
46902.109
46475.004
46512.651
46539.595
46557.316
46615.215
46619.263
46638.106
46750.239
46678.458
46711.176
46902.712
46439.101
46474.389
46512.018
46539.155
46557.198
46615.42
46618.86
46638.551
46750.515
46677.822
46711.86
46903.303
46438.989
46473.717
46511.38
46538.746
46557.112
46615.633
46618.46
46639.011
46750.784
46677.212
46712.538
46438.813
46473.001
46510.736
46538.358
46557.049
46615.853
46618.064
46639.487
46751.048
46676.631
46713.215
46390.64
46438.576
46472.231
46510.094
46537.996
46557.007
46616.083
46617.67
46639.981
46751.311
46676.083
46713.894
46391.234
46438.262
46471.417
46509.463
46537.66
46556.983
46616.315
46617.282
46640.499
46751.576
46675.565
46714.582
46391.771
46437.883
46470.57
46508.838
46537.353
46556.98
46616.546
46616.896
46641.039
46751.845
46675.075
46715.285
46341.235
46392.245
46437.421
46469.682
46508.232
46537.079
46556.992
46616.773
46616.513
46641.603
46752.118
46674.607
46716.008
46342.426
46392.637
46436.893
46468.763
46507.648
46536.834
46557.02
46617
46616.128
46642.187
46752.393
46674.16
46716.754
46283.069
46343.61
46392.951
46436.288
46467.819
46507.102
46536.624
46557.064
46617.223
46615.74
46642.79
46752.665
46673.732
46284.456
46344.752
46393.174
46435.624
46466.866
46506.587
46536.445
46557.12
46617.444
46615.348
46643.404
46752.934
46673.316
46285.886
46345.849
46393.314
46434.892
46465.904
46506.102
46536.305
46557.187
46617.663
46614.955
46644.025
46753.195
46672.909
46218.661
46287.34
46346.895
46393.369
46434.092
46464.937
46505.659
46536.198
46557.265
46617.88
46614.559
46644.651
46753.445
46672.509
46219.826
46288.817
46347.874
46393.339
46433.24
46463.975
46505.258
46536.125
46557.357
46618.098
46614.159
46645.281
46753.681
46672.118
46154.311
46221.068
46290.301
46348.788
46393.218
46432.335
46463.027
46504.903
46536.082
46557.456
46618.314
46613.761
46645.917
46753.902
46671.738
46154.921
46222.406
46291.778
46349.625
46393.003
46431.386
46462.093
46504.58
46536.079
46557.561
46618.532
46613.371
46646.555
46754.107
46155.63
46223.812
46293.237
46350.399
46392.698
46430.38
46461.177
46504.294
46536.113
46557.671
46618.751
46612.992
46647.196
46754.293
46094.741
46156.44
46225.285
46294.677
46351.084
46392.297
46429.345
46460.296
46504.043
46536.182
46557.786
46618.972
46612.62
46647.842
46754.456
46094.822
46157.369
46226.8
46296.078
46351.665
46391.814
46428.286
46459.461
46503.83
46536.279
46557.905
46619.194
46612.26
46648.496
46754.597
46036.25
46095.022
46158.419
46228.364
46297.44
46352.133
46391.235
46427.206
46458.671
46503.648
46536.41
46558.026
46619.42
46611.912
46649.153
46754.718
46035.87
46095.339
46159.573
46229.973
46298.731
46352.496
46390.582
46426.108
46457.925
46503.503
46536.574
46558.144
46619.651
46611.576
46649.805
46754.824
45974.701
46035.558
46095.766
46160.818
46231.608
46299.95
46352.765
46389.849
46425.008
46457.23
46503.392
46536.76
46558.259
46619.886
46611.247
46650.454
45974.135
46035.324
46096.294
46162.147
46233.255
46301.081
46352.913
46389.036
46423.913
46456.603
46503.321
46536.96
46558.381
46620.124
46610.926
46651.103
45908.496
45973.625
46035.17
46096.942
46163.574
46234.883
46302.128
46352.977
46388.155
46422.832
46456.041
46503.297
46537.174
46558.505
46620.366
46610.613
46651.75
45841.48
45907.91
45973.138
46035.101
46097.698
46165.076
46236.481
46303.095
46352.913
46387.216
46421.768
46455.539
46503.304
46537.396
46558.627
46620.614
46610.306
46652.39
45840.729
45907.365
45972.676
46035.099
46098.56
46166.646
46238.05
46303.968
46352.735
46386.223
46420.744
46455.103
46503.347
46537.624
46558.74
46620.871
46610.005
46653.026
45772.021
45840.127
45906.856
45972.228
46035.162
46099.506
46168.249
46239.586
46304.732
46352.454
46385.185
46419.758
46454.738
46503.437
46537.851
46558.852
46621.132
46609.716
46653.669
45703.352
45771.062
45839.646
45906.4
45971.809
46035.316
46100.551
46169.891
46241.086
46305.362
46352.074
46384.106
46418.829
46454.445
46503.574
46538.079
46558.963
46621.397
46609.439
45701.597
45770.334
45839.262
45905.97
45971.442
46035.561
46101.686
46171.565
46242.522
46305.869
46351.602
46383.007
46417.964
46454.212
46503.746
46538.302
46559.07
46621.668
46609.174
45634.561
45700.179
45769.794
45838.919
45905.535
45971.122
46035.907
46102.916
46173.269
46243.881
46306.258
46351.034
46381.895
46417.165
46454.046
46503.944
46538.521
46559.169
46621.954
46608.917
45569.23
45632.222
45699.067
45769.39
45838.573
45905.068
45970.839
46036.343
46104.222
46174.981
46245.141
46306.534
46350.379
46380.8
46416.436
46453.958
46504.165
46538.726
46559.264
46622.251
46608.671
45505.939
45565.751
45630.265
45698.239
45769.091
45838.2
45904.565
45970.582
46036.876
46105.596
46176.666
46246.298
46306.693
46349.644
46379.722
46415.776
46453.937
46504.417
46538.928
46559.354
46622.55
46608.437
45501.434
45562.702
45628.67
45697.648
45768.867
45837.81
45904.024
45970.364
46037.513
46107.03
46178.302
46247.348
46306.753
46348.845
46378.671
46415.203
46453.955
46504.689
46539.125
46559.44
46622.85
45438.69
45497.345
45560.097
45627.444
45697.277
45768.718
45837.399
45903.467
45970.19
46038.247
46108.524
46179.898
46248.294
46306.688
46348.003
46377.652
46414.71
46454.031
46504.971
46539.314
46559.519
46623.158
45377.14
45433.658
45493.68
45557.906
45626.526
45697.066
45768.598
45836.936
45902.914
45970.109
46039.067
46110.059
46181.452
46249.137
46306.504
46347.12
46376.673
46414.306
46454.168
46505.26
46539.48
46559.591
46623.478
45316.581
45371.225
45428.985
45490.448
45556.115
45625.89
45696.961
45768.426
45836.395
45902.371
45970.102
46039.956
46111.608
46182.957
46249.884
46306.226
46346.211
46375.757
46413.982
46454.348
46505.563
46539.627
46559.655
46623.802
45207.51
45257.166
45309.957
45365.671
45424.759
45487.651
45554.698
45625.486
45696.894
45768.172
45835.772
45901.82
45970.179
46040.917
46113.149
46184.396
46250.511
46305.864
46345.273
46374.9
46413.739
46454.576
46505.875
46539.765
46559.714
46624.129
45151.56
45199.354
45249.807
45303.641
45360.505
45421.001
45485.319
45553.637
45625.279
45696.848
45767.81
45835.077
45901.269
45970.339
46041.952
46114.686
46185.76
46251.017
46305.425
46344.318
46374.131
46413.572
46454.851
46506.194
46539.891
46559.771
46624.458
45097.441
45142.933
45191.445
45242.749
45297.678
45355.78
45417.665
45483.399
45552.881
45625.191
45696.754
45767.316
45834.299
45900.74
45970.579
46043.058
46116.216
46187.029
46251.405
46304.925
46343.363
46373.428
46413.493
46455.17
46506.523
46539.99
46559.828
45004.261
45044.745
45088.249
45134.445
45183.794
45236.031
45292.119
45351.495
45414.77
45481.845
45552.374
45625.167
45696.564
45766.717
45833.459
45900.267
45970.92
46044.239
46117.745
46188.2
46251.698
46304.36
46342.423
46372.808
46413.495
46455.518
46506.863
46540.055
46559.882
44955.604
44993.94
45035.011
45079.181
45126.09
45176.328
45229.693
45286.997
45347.656
45412.325
45480.631
45552.051
45625.121
45696.262
45766.025
45832.591
45899.877
45971.37
46045.475
46119.251
46189.273
46251.901
46303.753
46341.521
46372.263
46413.567
46455.897
46507.208
46540.105
46559.932
44875.196
44908.659
44944.745
44983.695
45025.405
45070.287
45117.961
45169.258
45223.72
45282.316
45344.261
45410.3
45479.744
45551.844
45625.016
45695.814
45765.208
45831.717
45899.569
45971.925
46046.756
46120.723
46190.265
46252.015
46303.109
46340.647
46371.809
46413.711
46456.302
46507.552
46540.149
46559.989
44776.074
44802.854
44831.879
44863.317
44897.304
44933.968
44973.581
45015.976
45061.635
45110.191
45162.584
45218.158
45278.084
45341.31
45408.625
45479.085
45551.684
45624.814
45695.197
45764.255
45830.84
45899.35
45972.557
46048.056
46122.135
46191.172
46252.049
46302.436
46339.823
46371.448
46413.915
46456.734
46507.893
46540.176
46560.057
44693.616
44714.793
44737.869
44762.856
44790.05
44819.529
44851.457
44886.025
44923.316
44963.628
45006.748
45053.263
45102.827
45156.289
45213.085
45274.298
45338.786
45407.284
45478.572
45551.521
45624.496
45694.386
45763.175
45829.966
45899.232
45973.275
46049.371
46123.487
46191.993
46252.002
46301.75
46339.029
46371.179
46414.175
46457.187
46508.233
46540.18
44624.904
44641.465
44659.556
44679.334
44700.839
44724.233
44749.624
44777.261
44807.223
44839.689
44874.889
44912.847
44953.88
44997.775
45045.222
45095.847
45150.548
45208.47
45270.918
45336.619
45406.196
45478.136
45551.283
45624
45693.379
45761.986
45829.12
45899.223
45974.076
46050.699
46124.783
46192.72
46251.884
46301.053
46338.291
46371.003
46414.489
46457.655
46508.568
46540.172
44534.206
44544.227
44555.119
44567.036
44580.024
44594.168
44609.59
44626.466
44644.897
44664.998
44686.813
44710.575
44736.408
44764.512
44794.999
44828.068
44863.94
44902.585
44944.375
44989.108
45037.559
45089.272
45145.16
45204.281
45267.925
45334.755
45405.28
45477.704
45550.903
45623.24
45692.167
45760.739
45828.346
45899.33
45974.973
46052.055
46126.031
46193.365
46251.711
46300.36
46337.605
46370.91
46414.862
46458.131
46508.898
46540.156
44456.654
44461.306
44466.39
44471.912
44477.983
44484.589
44491.799
44499.665
44508.233
44517.566
44527.746
44538.833
44550.95
44564.149
44578.536
44594.271
44611.47
44630.217
44650.619
44672.788
44696.971
44723.277
44751.876
44782.948
44816.653
44853.21
44892.57
44935.174
44980.825
45030.326
45083.142
45140.21
45200.469
45265.34
45333.125
45404.438
45477.211
45550.316
45622.223
45690.787
45759.485
45827.693
45899.562
45975.951
46053.434
46127.228
46193.943
46251.491
46299.674
46336.996
46370.897
46415.292
46458.618
46509.219
46540.132
44395.586
44395.581
44395.576
44395.572
44395.567
44395.562
44395.556
44395.551
44395.547
44395.542
44395.538
44395.534
44395.531
44395.528
44395.526
44395.524
44395.523
44395.523
44395.524
44395.525
44395.528
44395.532
44395.537
44395.544
44395.553
44395.563
44395.575
44395.589
44395.606
44395.626
44395.649
44395.675
44395.705
44395.74
44395.779
44395.823
44395.873
44395.929
44395.991
44396.058
44396.131
44396.21
44396.292
44396.379
44396.468
44396.561
44396.655
44396.754
44396.858
44396.968
44397.087
44397.239
44397.506
44397.914
44398.482
44399.308
44400.483
44401.913
44403.533
44405.323
44407.261
44409.393
44411.695
44414.181
44416.884
44419.829
44422.99
44426.451
44430.208
44434.245
44438.654
44443.454
44448.694
44454.384
44460.594
44467.32
44474.657
44482.657
44491.373
44500.846
44511.179
44522.469
44534.814
44548.258
44562.935
44578.977
44596.467
44615.506
44636.239
44658.817
44683.462
44710.256
44739.398
44771.096
44805.458
44842.711
44882.827
44926.322
44972.957
45023.531
45077.462
45135.703
45197.047
45262.983
45331.677
45403.603
45476.578
45549.51
45620.971
45689.279
45758.267
45827.18
45899.919
45977.002
46054.815
46128.377
46194.468
46251.229
46299.011
46336.464
46370.956
46415.772
46459.111
46509.539
46540.102
44377.963
44377.958
44377.953
44377.948
44377.944
44377.939
44377.933
44377.929
44377.924
44377.92
44377.916
44377.913
44377.91
44377.907
44377.906
44377.905
44377.905
44377.905
44377.907
44377.91
44377.914
44377.919
44377.926
44377.935
44377.946
44377.959
44377.974
44377.991
44378.012
44378.036
44378.064
44378.096
44378.133
44378.175
44378.223
44378.278
44378.339
44378.408
44378.485
44378.57
44378.664
44378.765
44378.875
44378.992
44379.116
44379.246
44379.384
44379.531
44379.688
44379.856
44380.04
44380.265
44380.604
44381.095
44381.712
44382.587
44383.768
44385.195
44386.759
44388.503
44390.36
44392.37
44394.577
44396.993
44399.618
44402.477
44405.595
44409.008
44412.718
44416.735
44421.134
44425.972
44431.246
44436.983
44443.224
44450.009
44457.445
44465.56
44474.411
44484.054
44494.589
44506.122
44518.703
44532.406
44547.366
44563.688
44581.458
44600.822
44621.946
44644.984
44670.104
44697.42
44727.149
44759.491
44794.499
44832.478
44873.414
44917.859
44965.517
45017.166
45072.174
45131.543
45193.97
45260.885
45330.306
45402.723
45475.744
45548.425
45619.491
45687.668
45757.11
45826.806
45900.398
45978.114
46056.171
46129.472
46194.937
46250.939
46298.362
46336.006
46371.097
46416.292
46459.605
46509.851
44358.116
44358.111
44358.106
44358.101
44358.096
44358.091
44358.085
44358.08
44358.075
44358.071
44358.066
44358.062
44358.059
44358.056
44358.054
44358.052
44358.051
44358.051
44358.052
44358.054
44358.057
44358.061
44358.067
44358.074
44358.084
44358.095
44358.108
44358.124
44358.143
44358.165
44358.19
44358.22
44358.254
44358.293
44358.337
44358.388
44358.444
44358.508
44358.58
44358.659
44358.745
44358.839
44358.939
44359.046
44359.16
44359.278
44359.403
44359.534
44359.674
44359.822
44359.983
44360.181
44360.498
44360.965
44361.602
44362.499
44363.674
44365.123
44366.785
44368.614
44370.694
44372.875
44375.175
44377.728
44380.503
44383.511
44386.772
44390.319
44394.163
44398.343
44402.895
44407.852
44413.255
44419.116
44425.51
44432.492
44440.111
44448.406
44457.436
44467.287
44478.055
44489.809
44502.61
44516.569
44531.809
44548.413
44566.505
44586.248
44607.811
44631.315
44656.926
44684.794
44715.132
44748.112
44783.799
44822.558
44864.369
44909.789
44958.467
45011.18
45067.226
45127.665
45191.162
45258.942
45328.935
45401.742
45474.682
45547.034
45617.82
45685.993
45756.032
45826.565
45901.004
45979.269
46057.507
46130.524
46195.344
46250.621
46297.742
46335.62
46371.319
46416.838
46460.099
46510.151
44338.578
44338.573
44338.569
44338.564
44338.559
44338.554
44338.549
44338.545
44338.54
44338.536
44338.533
44338.53
44338.527
44338.526
44338.524
44338.524
44338.524
44338.526
44338.528
44338.532
44338.537
44338.544
44338.552
44338.562
44338.574
44338.588
44338.605
44338.625
44338.648
44338.674
44338.704
44338.739
44338.778
44338.823
44338.873
44338.93
44338.995
44339.066
44339.145
44339.233
44339.328
44339.431
44339.541
44339.657
44339.78
44339.909
44340.044
44340.188
44340.342
44340.508
44340.69
44340.912
44341.26
44341.77
44342.446
44343.424
44344.693
44346.207
44347.923
44349.781
44351.767
44353.996
44356.412
44359.008
44361.842
44364.938
44368.274
44371.952
44375.942
44380.237
44384.917
44389.977
44395.487
44401.477
44408.013
44415.147
44422.909
44431.348
44440.541
44450.581
44461.56
44473.526
44486.562
44500.798
44516.316
44533.238
44551.699
44571.859
44593.867
44617.841
44643.963
44672.415
44703.366
44736.998
44773.408
44813.007
44855.725
44902.11
44951.779
45005.534
45062.591
45124.079
45188.528
45257.07
45327.573
45400.601
45473.347
45545.388
45616.006
45684.311
45755.062
45826.502
45901.719
45980.456
46058.818
46131.532
46195.696
46250.29
46297.162
46335.305
46371.618
46417.408
46460.593
46510.431
44320.917
44320.912
44320.907
44320.902
44320.897
44320.892
44320.887
44320.882
44320.878
44320.874
44320.87
44320.867
44320.864
44320.862
44320.861
44320.861
44320.861
44320.862
44320.865
44320.869
44320.874
44320.881
44320.889
44320.899
44320.912
44320.927
44320.944
44320.965
44320.989
44321.016
44321.048
44321.085
44321.126
44321.174
44321.228
44321.289
44321.358
44321.435
44321.521
44321.616
44321.721
44321.834
44321.957
44322.088
44322.228
44322.377
44322.535
44322.704
44322.888
44323.088
44323.31
44323.579
44323.968
44324.519
44325.231
44326.2
44327.485
44328.964
44330.604
44332.41
44334.371
44336.502
44338.837
44341.402
44344.185
44347.225
44350.552
44354.17
44358.132
44362.426
44367.109
44372.227
44377.81
44383.885
44390.528
44397.777
44405.675
44414.275
44423.668
44433.932
44445.131
44457.318
44470.606
44485.124
44500.938
44518.22
44537.078
44557.663
44580.113
44604.566
44631.23
44660.275
44691.844
44726.167
44763.367
44803.836
44847.46
44894.793
44945.422
45000.188
45058.263
45120.741
45186.032
45255.219
45326.108
45399.222
45471.72
45543.503
45614.056
45682.681
45754.231
45826.598
45902.548
45981.686
46060.113
46132.492
46196.004
46249.943
46296.632
46335.078
46371.982
46418.005
46461.083
46510.705
44300.246
44300.241
44300.236
44300.232
44300.226
44300.221
44300.216
44300.211
44300.207
44300.202
44300.199
44300.196
44300.193
44300.191
44300.189
44300.189
44300.189
44300.19
44300.192
44300.196
44300.201
44300.207
44300.216
44300.226
44300.238
44300.252
44300.269
44300.289
44300.313
44300.339
44300.37
44300.406
44300.447
44300.493
44300.545
44300.604
44300.671
44300.745
44300.827
44300.918
44301.017
44301.124
44301.239
44301.361
44301.489
44301.623
44301.764
44301.911
44302.067
44302.232
44302.408
44302.616
44302.944
44303.421
44304.106
44305.074
44306.388
44307.952
44309.772
44311.884
44314.162
44316.623
44319.213
44322.003
44324.995
44328.216
44331.699
44335.486
44339.589
44344.033
44348.873
44354.158
44359.935
44366.198
44373.028
44380.45
44388.51
44397.294
44406.901
44417.381
44428.782
44441.198
44454.759
44469.583
44485.732
44503.397
44522.65
44543.657
44566.555
44591.518
44618.743
44648.392
44680.607
44715.675
44753.688
44795.023
44839.539
44887.806
44939.382
44995.129
45054.176
45117.55
45183.516
45253.335
45324.43
45397.571
45469.798
45541.385
45612.03
45681.137
45753.561
45826.861
45903.487
45982.963
46061.385
46133.393
46196.279
46249.6
46296.163
46334.927
46372.399
46418.635
46461.565
46510.982
44281.926
44281.921
44281.917
44281.913
44281.908
44281.903
44281.899
44281.894
44281.89
44281.887
44281.884
44281.882
44281.88
44281.879
44281.879
44281.88
44281.882
44281.885
44281.889
44281.895
44281.902
44281.911
44281.922
44281.936
44281.951
44281.97
44281.991
44282.015
44282.044
44282.076
44282.113
44282.156
44282.204
44282.258
44282.32
44282.389
44282.467
44282.554
44282.651
44282.757
44282.874
44283.002
44283.14
44283.288
44283.446
44283.615
44283.796
44283.99
44284.199
44284.428
44284.678
44284.971
44285.398
44286.003
44286.784
44287.871
44289.219
44290.873
44292.623
44294.433
44296.439
44298.679
44301.163
44303.894
44306.917
44310.201
44313.712
44317.575
44321.748
44326.269
44331.208
44336.582
44342.441
44348.823
44355.75
44363.284
44371.487
44380.451
44390.251
44400.933
44412.547
44425.235
44439.096
44454.23
44470.721
44488.756
44508.399
44529.837
44553.21
44578.708
44606.508
44636.772
44669.674
44705.513
44744.334
44786.511
44831.905
44881.1
44933.615
44990.312
45050.234
45114.402
45181.053
45251.29
45322.52
45395.602
45467.603
45539.091
45609.961
45679.705
45753.061
45827.292
45904.545
45984.286
46062.641
46134.24
46196.521
46249.262
46295.744
46334.873
46372.87
46419.287
46462.036
44264
44263.995
44263.99
44263.985
44263.98
44263.975
44263.97
44263.966
44263.961
44263.957
44263.954
44263.951
44263.948
44263.947
44263.946
44263.946
44263.947
44263.949
44263.952
44263.956
44263.962
44263.97
44263.98
44263.992
44264.006
44264.022
44264.042
44264.065
44264.092
44264.122
44264.158
44264.198
44264.244
44264.297
44264.357
44264.424
44264.501
44264.586
44264.681
44264.787
44264.903
44265.03
44265.168
44265.318
44265.478
44265.651
44265.836
44266.037
44266.257
44266.5
44266.77
44267.092
44267.545
44268.169
44268.979
44270.08
44271.438
44272.992
44274.722
44276.64
44278.71
44280.946
44283.395
44286.103
44289.035
44292.247
44295.762
44299.617
44303.843
44308.42
44313.432
44318.906
44324.876
44331.355
44338.416
44346.113
44354.535
44363.713
44373.722
44384.608
44396.464
44409.436
44423.589
44439.031
44455.872
44474.285
44494.336
44516.227
44540.104
44566.153
44594.533
44625.441
44659.055
44695.658
44735.257
44778.262
44824.527
44874.631
44928.059
44985.658
45046.359
45111.224
45178.465
45249.062
45320.334
45393.328
45465.173
45536.708
45607.92
45678.396
45752.76
45827.879
45905.702
45985.635
46063.882
46135.038
46196.734
46248.944
46295.38
46334.891
46373.39
46419.958
46462.496
44243.453
44243.447
44243.443
44243.438
44243.433
44243.428
44243.423
44243.419
44243.415
44243.411
44243.407
44243.405
44243.402
44243.401
44243.4
44243.4
44243.401
44243.404
44243.407
44243.412
44243.418
44243.426
44243.436
44243.448
44243.463
44243.48
44243.5
44243.523
44243.55
44243.581
44243.616
44243.657
44243.703
44243.756
44243.815
44243.882
44243.958
44244.042
44244.136
44244.24
44244.355
44244.479
44244.614
44244.758
44244.913
44245.077
44245.252
44245.439
44245.64
44245.858
44246.094
44246.369
44246.77
44247.34
44248.134
44249.299
44250.815
44252.577
44254.49
44256.609
44258.895
44261.386
44264.046
44266.949
44270.102
44273.505
44277.211
44281.248
44285.634
44290.398
44295.584
44301.214
44307.34
44313.98
44321.217
44329.111
44337.708
44347.085
44357.283
44368.393
44380.52
44393.789
44408.244
44424.014
44441.215
44460.008
44480.482
44502.844
44527.238
44553.838
44582.813
44614.38
44648.703
44686.041
44726.407
44770.236
44817.362
44868.345
44922.638
44981.081
45042.485
45108.005
45175.691
45246.591
45317.839
45390.783
45462.554
45534.279
45605.964
45677.247
45752.69
45828.617
45906.934
45986.995
46065.112
46135.803
46196.929
46248.641
46295.062
46334.982
46373.969
46420.631
46462.952
44225.906
44225.901
44225.897
44225.892
44225.888
44225.883
44225.879
44225.874
44225.871
44225.867
44225.865
44225.863
44225.862
44225.861
44225.862
44225.863
44225.866
44225.869
44225.875
44225.881
44225.89
44225.901
44225.913
44225.928
44225.946
44225.967
44225.991
44226.019
44226.051
44226.088
44226.129
44226.177
44226.231
44226.292
44226.361