/*--------------------------------*- C++ -*----------------------------------*\
| =========                 |                                                 |
| \\      /  F ield         | OpenFOAM: The Open Source CFD Toolbox           |
|  \\    /   O peration     | Version:  2506                                  |
|   \\  /    A nd           | Website:  www.openfoam.com                      |
|    \\/     M anipulation  |                                                 |
\*---------------------------------------------------------------------------*/
FoamFile
{
    version     2.0;
    format      ascii;
    arch        "LSB;label=32;scalar=64";
    class       volScalarField;
    location    "0.022";
    object      rho;
}
// * * * * * * * * * * * * * * * * * * * * * * * * * * * * * * * * * * * * * //

dimensions      [1 -3 0 0 0 0 0];

internalField   nonuniform List<scalar> 
13761
(
0.66505696
0.66505662
0.66505641
0.66505645
0.66505614
0.66505595
0.66505516
0.66505415
0.66655208
0.66505439
0.66655216
0.66505619
0.6665524
0.66505798
0.66655265
0.66505935
0.66655296
0.66506037
0.66655343
0.66506123
0.66655397
0.66506213
0.66655482
0.66506336
0.66508098
0.66655563
0.66506474
0.66507882
0.66655718
0.6650661
0.66507793
0.66655996
0.66506722
0.6650785
0.66656174
0.66506802
0.6650802
0.66656199
0.66506846
0.66508131
0.66656266
0.66506867
0.66508179
0.66656304
0.6650691
0.66637199
0.66508202
0.66656551
0.66507001
0.66637379
0.66508215
0.66657036
0.66507118
0.66637521
0.66508238
0.66657254
0.66507217
0.66637947
0.66508244
0.6665717
0.66507268
0.66638477
0.66508237
0.6665684
0.66507274
0.66638668
0.66508225
0.66656512
0.66507246
0.66638552
0.66508221
0.66656277
0.66638253
0.66508236
0.66656133
0.66479908
0.66638075
0.66508278
0.66656071
0.66480111
0.66638032
0.66508315
0.66656072
0.66480314
0.66638095
0.66508285
0.66656109
0.66480516
0.66638195
0.66508228
0.66656139
0.66480718
0.66638292
0.665082
0.66656154
0.66480919
0.66638385
0.665082
0.66656163
0.6648112
0.66638502
0.66508217
0.66656171
0.66481323
0.66638631
0.66508247
0.66457756
0.66481528
0.66638792
0.66508277
0.66458287
0.66481736
0.66639027
0.66508268
0.66458832
0.66481947
0.66639245
0.66508246
0.66459391
0.66482157
0.66639814
0.66508261
0.6645997
0.66482363
0.66640363
0.66508333
0.66460567
0.66482578
0.66640531
0.66508378
0.6646118
0.66482805
0.66640375
0.66508305
0.66196581
0.66461808
0.66483039
0.6664018
0.66508196
0.66197371
0.66462447
0.66483276
0.66640223
0.66198169
0.66463099
0.66483517
0.66640247
0.6619897
0.66463759
0.66483751
0.66640825
0.66199775
0.6646441
0.66483972
0.66641519
0.66200583
0.66465052
0.66484188
0.66641733
0.66201397
0.66465691
0.66484413
0.66641516
0.66012725
0.66202214
0.66466347
0.66484644
0.66641003
0.66013315
0.66203038
0.66467125
0.66484886
0.66640613
0.6601391
0.66203865
0.66468064
0.66485139
0.66640456
0.66014509
0.66204694
0.66469186
0.66485395
0.66015113
0.66205521
0.66470541
0.66485646
0.66015721
0.66206348
0.66471633
0.66485877
0.66016334
0.66207178
0.66472064
0.66486081
0.65849966
0.66016953
0.66208026
0.66472097
0.66486262
0.65849511
0.66017579
0.66208898
0.66471861
0.66486438
0.65849059
0.66018212
0.66209799
0.66471643
0.66486625
0.65848613
0.66018852
0.66210719
0.66471556
0.66486833
0.65848176
0.660195
0.6621165
0.66471735
0.65847749
0.66020158
0.66212579
0.66472224
0.6584733
0.66020826
0.662135
0.66472926
0.66033054
0.65846921
0.66021504
0.66214414
0.66473696
0.66030696
0.65846521
0.66022194
0.66215323
0.66474428
0.66028333
0.65846129
0.66022894
0.6621623
0.66475089
0.6602597
0.65845746
0.66023603
0.66217141
0.66475691
0.66023608
0.65845371
0.66024321
0.66218055
0.6647627
0.66021245
0.65845006
0.66025047
0.66218978
0.66476854
0.66018885
0.65844649
0.6602578
0.66219907
0.66544287
0.66016526
0.65844302
0.66026522
0.66220844
0.66540812
0.6601417
0.65843965
0.66027271
0.66221786
0.66537305
0.66011817
0.6584364
0.66028028
0.66222732
0.66533793
0.66009469
0.65843326
0.66028793
0.66223679
0.66530262
0.66007126
0.65843024
0.66029566
0.66224629
0.66526722
0.66004791
0.65842732
0.66030349
0.66225581
0.67004079
0.66523166
0.66002465
0.65842448
0.66031142
0.66226536
0.67003878
0.66519603
0.66000148
0.65842171
0.66031943
0.66227495
0.67003602
0.66516026
0.65997839
0.658419
0.66032753
0.67003262
0.66512443
0.65995538
0.65841634
0.6603357
0.67002851
0.66508848
0.6599324
0.65841374
0.66034394
0.67002365
0.66505248
0.65990944
0.65841122
0.66035225
0.67001795
0.66501635
0.65988648
0.65840879
0.66036064
0.66672098
0.67001166
0.66498013
0.65986353
0.65840645
0.66036911
0.66675557
0.67000508
0.66494375
0.65984059
0.65840421
0.66037767
0.6667901
0.66999869
0.66490723
0.65981769
0.65840205
0.66038635
0.66682441
0.66999257
0.66487054
0.65979484
0.65839993
0.66685871
0.6699866
0.6648337
0.65977205
0.65839786
0.66689305
0.66998025
0.6647967
0.65974929
0.65839585
0.66197671
0.66692754
0.66997313
0.66475958
0.65972655
0.65839391
0.66198811
0.66696218
0.66996492
0.66472232
0.65970381
0.65839206
0.66199985
0.66699695
0.66995584
0.66468495
0.65968106
0.65839033
0.66201194
0.66703172
0.66994618
0.66464745
0.65965831
0.65838872
0.66202428
0.66706636
0.6699363
0.66460984
0.6596356
0.65838722
0.66203686
0.66710077
0.66992618
0.66457212
0.65961296
0.66200459
0.66204952
0.66713497
0.66991576
0.66453428
0.65959042
0.66199647
0.66206219
0.66716918
0.66990483
0.66449631
0.659568
0.66198829
0.66207492
0.66720371
0.6698934
0.66445823
0.6595457
0.66197986
0.66208782
0.66723878
0.66988143
0.66442004
0.6595235
0.66197137
0.66210125
0.66727437
0.66986899
0.66438174
0.65950141
0.66388618
0.6619626
0.66211528
0.66731019
0.66985608
0.66434334
0.6594794
0.66388116
0.66195371
0.66213008
0.66734599
0.66984274
0.66430485
0.65945748
0.66387602
0.6619445
0.66214534
0.66738157
0.66982894
0.66426624
0.66387094
0.66193511
0.66216088
0.66741702
0.66981469
0.66422751
0.66386585
0.66192544
0.66217634
0.66745248
0.66979998
0.66418863
0.66386089
0.66191567
0.66219184
0.66748818
0.66978479
0.6641496
0.66201444
0.663856
0.66190585
0.66220749
0.66752412
0.66976908
0.66411041
0.66202448
0.66385132
0.66189609
0.66222372
0.66756032
0.66975286
0.66407106
0.66203521
0.6638466
0.66188639
0.66224071
0.66759673
0.66973612
0.66403155
0.66204597
0.66384206
0.6618768
0.66225866
0.66763349
0.6697189
0.66399189
0.66205721
0.66383722
0.66186724
0.66227737
0.66767075
0.66970119
0.66090137
0.66206852
0.66383253
0.66185777
0.66229664
0.66770865
0.66968299
0.66089455
0.66208007
0.66382736
0.66184827
0.6623161
0.66774706
0.6696643
0.66088782
0.66209178
0.66382239
0.66183883
0.66233565
0.66778577
0.6696451
0.6608815
0.66210355
0.66381686
0.66182924
0.66235527
0.66782449
0.6696254
0.66087498
0.66211556
0.6638115
0.6618196
0.66237518
0.66786306
0.66960519
0.66158874
0.66086907
0.66212754
0.66380552
0.66180973
0.66239554
0.66790138
0.66958443
0.66158449
0.66086277
0.66213975
0.66379961
0.66179983
0.66241653
0.66793938
0.66157962
0.66085717
0.66215186
0.66379318
0.66178985
0.66243811
0.667977
0.66157531
0.66085114
0.66216413
0.66378675
0.66177997
0.66246021
0.66801434
0.66083988
0.66157051
0.66084574
0.66217636
0.66378004
0.66177012
0.66248262
0.66805164
0.66084754
0.66156623
0.66083994
0.66218867
0.66377328
0.6617603
0.66250517
0.66808918
0.6608545
0.66156149
0.66083465
0.66220106
0.66376649
0.66175044
0.66252778
0.6681269
0.66086289
0.66155717
0.66082914
0.66221349
0.66375959
0.6617404
0.66255045
0.66816423
0.6608705
0.66155254
0.66082411
0.66222612
0.66375285
0.66173024
0.66257332
0.66820027
0.66003775
0.66087953
0.66154818
0.66081913
0.66223875
0.66374598
0.66171982
0.6625965
0.66002694
0.66088781
0.66154376
0.66081461
0.66225168
0.66373929
0.66170936
0.66262015
0.66001893
0.66089743
0.66153932
0.66081025
0.66226466
0.66373238
0.6616988
0.66264435
0.66000879
0.66090629
0.66153495
0.66080627
0.66227804
0.66372554
0.66168843
0.6626693
0.66005564
0.66000135
0.6609163
0.66153026
0.66080236
0.66229159
0.66371845
0.66167811
0.66269512
0.66003887
0.65999201
0.66092537
0.66152568
0.66079869
0.66230569
0.66371148
0.66166802
0.66272207
0.66002191
0.6599851
0.6609354
0.66152051
0.66079497
0.66232009
0.66370447
0.66165793
0.66275004
0.66000577
0.6599766
0.66094442
0.66151551
0.66079134
0.66233513
0.66369775
0.66164798
0.65986735
0.65999006
0.65997025
0.66095435
0.66150973
0.66078764
0.66235058
0.66369114
0.66163799
0.6598539
0.65997459
0.65996251
0.66096339
0.66150422
0.66078385
0.66236666
0.66368481
0.66162818
0.65983818
0.65996016
0.65995671
0.66097325
0.66149781
0.66078003
0.66238318
0.66367849
0.66161847
0.65982489
0.65994529
0.65994969
0.66098239
0.66149175
0.66077593
0.6624002
0.66367221
0.66160905
0.65945568
0.65980936
0.65993205
0.65994446
0.66099217
0.66148495
0.66077196
0.66241758
0.66366566
0.66159973
0.65943471
0.65979633
0.65991772
0.65993817
0.6610013
0.66147827
0.66076756
0.66243522
0.66365886
0.66159057
0.65941641
0.65978105
0.65990558
0.65993352
0.66101093
0.66147094
0.66076344
0.66245307
0.66365154
0.65939649
0.65976829
0.6598918
0.6599279
0.66102008
0.66146344
0.6607588
0.66247096
0.66364378
0.6592159
0.6593781
0.65975335
0.65988065
0.65992384
0.66102965
0.66145529
0.66075446
0.66248895
0.66363543
0.65919484
0.65935909
0.65974091
0.65986752
0.6599188
0.66103903
0.66144689
0.66074956
0.66250686
0.66362668
0.6591727
0.65934071
0.65972646
0.65985721
0.65991532
0.66104874
0.66143783
0.66074493
0.66252491
0.66361744
0.65915077
0.65932256
0.6597145
0.65984486
0.6599109
0.66105859
0.66142854
0.66073981
0.66254293
0.66360789
0.65882745
0.65912883
0.65930441
0.65970077
0.65983526
0.65990801
0.66106856
0.66141866
0.66073504
0.66256128
0.66359791
0.65881003
0.659106
0.65928725
0.65968936
0.65982375
0.65990428
0.66107892
0.66140862
0.66072993
0.66257971
0.65878878
0.65908475
0.65926966
0.65967639
0.65981481
0.65990189
0.66108906
0.66139806
0.66072534
0.66259865
0.65830424
0.65877062
0.65906133
0.65925371
0.65966529
0.65980409
0.65989885
0.66109972
0.66138734
0.66072051
0.66261767
0.65828725
0.65874826
0.6590408
0.65923694
0.659653
0.65979579
0.65989684
0.66110992
0.6613763
0.66071634
0.66263724
0.65827136
0.65872869
0.65901718
0.65922223
0.65964199
0.6597859
0.65989407
0.66112065
0.66136507
0.66071196
0.6626568
0.65766246
0.65825312
0.65870474
0.6589973
0.65920631
0.65963039
0.65977838
0.65989216
0.66113084
0.66135371
0.66070833
0.66267693
0.65764806
0.65823698
0.65868442
0.65897381
0.65919272
0.65961932
0.65976941
0.65988935
0.66114147
0.66134203
0.66070439
0.65763741
0.65821776
0.65866086
0.65895463
0.65917749
0.65960831
0.65976274
0.65988781
0.66115158
0.66133038
0.6607012
0.6570034
0.65762313
0.65820169
0.65864047
0.65893169
0.65916494
0.65959706
0.65975479
0.65988555
0.66116202
0.66131822
0.6606976
0.6569866
0.65761319
0.65818183
0.65861774
0.65891323
0.65915032
0.65958667
0.65974899
0.65988468
0.66117205
0.66130614
0.66069473
0.65696962
0.65759922
0.65816614
0.6585977
0.65889131
0.65913877
0.65957537
0.65974178
0.65988356
0.66118244
0.66129346
0.66069142
0.65647166
0.65695439
0.65758969
0.65814605
0.65857588
0.65887353
0.65912497
0.65956572
0.65973645
0.65988377
0.66119253
0.66128098
0.66068886
0.65644846
0.65693955
0.65757591
0.65813049
0.6585561
0.6588529
0.65911441
0.65955461
0.65972964
0.65988418
0.66120312
0.66126791
0.6606859
0.65579315
0.65642727
0.65692603
0.65756589
0.65811032
0.65853495
0.65883571
0.65910161
0.65954579
0.65972459
0.65988558
0.66121346
0.66125522
0.65576737
0.65640573
0.6569129
0.65755164
0.65809388
0.65851513
0.65881642
0.65909199
0.65953516
0.65971821
0.65988735
0.66122439
0.66124201
0.65573967
0.65638688
0.6569032
0.65754051
0.65807331
0.65849438
0.65879973
0.6590801
0.65952709
0.65971355
0.65988959
0.66123503
0.66122931
0.65503235
0.65571543
0.65636708
0.65689323
0.65752517
0.65805572
0.65847403
0.6587817
0.65907135
0.6595171
0.65970766
0.65989267
0.66124619
0.66121612
0.65500096
0.65568876
0.65635048
0.65688445
0.65751225
0.65803464
0.65845364
0.65876549
0.65906024
0.65950966
0.65970338
0.65989609
0.66125701
0.6612035
0.65426383
0.6549744
0.65566699
0.6563328
0.65687557
0.65749587
0.6580157
0.65843239
0.65874877
0.65905227
0.65950039
0.65969791
0.65990048
0.66126814
0.66119032
0.65423323
0.65494686
0.65564285
0.6563187
0.65686742
0.65748089
0.657994
0.65841234
0.65873303
0.65904195
0.65949351
0.65969403
0.65990489
0.66127893
0.65420683
0.65492296
0.65562425
0.65630314
0.6568589
0.65746414
0.65797503
0.65839008
0.65871763
0.65903462
0.65948497
0.65968904
0.65991021
0.66128975
0.65351298
0.65417841
0.65489876
0.65560367
0.65629043
0.65685103
0.65744699
0.65795131
0.65837026
0.65870264
0.65902527
0.65947857
0.65968566
0.65991539
0.6613003
0.6534842
0.65415327
0.65487668
0.65558799
0.65627428
0.65684216
0.65742953
0.65793097
0.6583474
0.65868889
0.65901843
0.65947063
0.65968128
0.65992147
0.66131057
0.6526967
0.65345312
0.6541257
0.65485401
0.6555704
0.6562631
0.65683389
0.65740996
0.65790561
0.65832797
0.65867515
0.6590103
0.65946461
0.65967842
0.65992733
0.6613208
0.65266719
0.65342507
0.65410075
0.65483253
0.65555599
0.6562484
0.65682327
0.65739175
0.65788601
0.65830516
0.6586633
0.65900392
0.65945712
0.6596747
0.65993405
0.6613306
0.6517751
0.65263912
0.6533961
0.6540736
0.65481005
0.65553822
0.65623966
0.65681449
0.657371
0.65786093
0.65828648
0.65865116
0.65899722
0.65945153
0.65967232
0.65994051
0.65174723
0.6526109
0.6533698
0.65404908
0.65478865
0.65552481
0.65622594
0.65680189
0.65735262
0.65784206
0.65826419
0.65864158
0.65899133
0.65944446
0.65966922
0.65994788
0.65080099
0.65172047
0.65258346
0.65334248
0.65402285
0.65476621
0.65550769
0.65621666
0.65679281
0.65733197
0.65781738
0.65824625
0.65863132
0.658986
0.65943932
0.65966723
0.65995493
0.64989566
0.65078111
0.65169221
0.65255544
0.65331675
0.65399879
0.65474487
0.65549577
0.65620349
0.65677819
0.65731363
0.65779894
0.6582248
0.65862428
0.65898046
0.6594325
0.65966475
0.65996295
0.64987953
0.6507608
0.65166784
0.65252807
0.65328933
0.65397275
0.65472223
0.65547894
0.65619265
0.65676786
0.65729395
0.65777549
0.65820749
0.65861591
0.65897612
0.65942767
0.65966313
0.65997057
0.64893715
0.64986243
0.65074242
0.65164173
0.65249961
0.65326329
0.65394896
0.65470069
0.65546691
0.65617955
0.65675144
0.65727629
0.65775726
0.6581871
0.65861121
0.65897065
0.65942086
0.65966136
0.65997919
0.648145
0.64891171
0.64984686
0.65072398
0.65161984
0.65246974
0.6532337
0.65392319
0.6546774
0.65545113
0.65616751
0.65674008
0.65725655
0.65773553
0.65817056
0.65860451
0.6589668
0.65941613
0.65966027
0.6481283
0.6488865
0.64983002
0.65070626
0.6515961
0.65243884
0.65320392
0.6539032
0.65465904
0.6554382
0.65615486
0.65672346
0.65723902
0.65771728
0.65815151
0.65860174
0.65896128
0.65940926
0.65965949
0.64713874
0.64811197
0.64886687
0.64981412
0.65068847
0.65157489
0.65240715
0.65317205
0.65387799
0.65463738
0.65542323
0.65614253
0.65671152
0.65722001
0.65769739
0.65813597
0.65859658
0.65895755
0.65940451
0.65965924
0.64610074
0.64712959
0.64809267
0.64884773
0.64979666
0.65066885
0.65155146
0.65237488
0.65313992
0.65385603
0.65461968
0.65540901
0.65613071
0.65669521
0.65720375
0.65767938
0.65811856
0.65859529
0.65895205
0.65939768
0.65965961
0.64517242
0.64608307
0.64712008
0.64807202
0.64883274
0.64978011
0.65064858
0.65152774
0.65234294
0.6531082
0.65382969
0.65459886
0.65539513
0.65611919
0.65668163
0.65718545
0.65766137
0.65810435
0.65859163
0.65894819
0.6593929
0.65966023
0.64514038
0.6460648
0.64710926
0.64804668
0.64881392
0.649762
0.65062459
0.65150111
0.65231084
0.6530761
0.65380575
0.6545818
0.6553798
0.65610798
0.65666542
0.65717099
0.65764382
0.65808874
0.65859152
0.65894279
0.65938626
0.64434776
0.64511712
0.64604963
0.64709685
0.64801913
0.64879762
0.6497449
0.65059959
0.65147298
0.65227983
0.65304637
0.65377778
0.65456165
0.6553671
0.65609746
0.65665094
0.6571529
0.65762782
0.65807593
0.65858929
0.65893871
0.65938152
0.643413
0.64431294
0.64509034
0.64603128
0.64708242
0.6479867
0.64877599
0.64972536
0.65056965
0.65144168
0.65224852
0.65301555
0.65375176
0.65454519
0.65535129
0.6560861
0.65663413
0.65713986
0.65761075
0.65806246
0.65859
0.65893334
0.65937519
0.6426014
0.64337692
0.64428566
0.64507116
0.64601393
0.6470653
0.64795301
0.64875423
0.64970688
0.65053905
0.65140885
0.65221817
0.65298722
0.65372296
0.65452566
0.65533988
0.65607655
0.65661613
0.65712148
0.65759615
0.65805129
0.65858893
0.65892896
0.6593706
0.6411698
0.64186157
0.64252213
0.64333898
0.64425125
0.6450468
0.64599181
0.64704482
0.64791419
0.64872627
0.64968424
0.65050431
0.65137327
0.65218641
0.65295705
0.653696
0.65451029
0.65532455
0.65606534
0.6565964
0.65710946
0.65757982
0.65804041
0.65858991
0.65892346
0.6593647
0.64050289
0.64109081
0.64178422
0.6424495
0.64330529
0.64422231
0.64502808
0.64596905
0.64702104
0.64787664
0.64869769
0.64966225
0.65046946
0.65133757
0.65215477
0.65292832
0.653668
0.65449179
0.65531417
0.65605721
0.65657737
0.65709141
0.65756651
0.65803093
0.65858935
0.6589189
0.65936036
0.63961647
0.64039167
0.64100911
0.64170616
0.64237684
0.64326735
0.64418504
0.6450024
0.64594078
0.64699253
0.64783432
0.64866317
0.64963497
0.65043177
0.65129944
0.65212092
0.6528975
0.65364195
0.65447829
0.6553001
0.65604648
0.65655689
0.65707994
0.65755089
0.65802258
0.65859
0.65891305
0.63845196
0.63908519
0.63951389
0.64027927
0.64093355
0.64163816
0.64231311
0.64323205
0.64415097
0.64497999
0.64591098
0.64696069
0.64779385
0.64862932
0.64960791
0.65039498
0.65126251
0.65208626
0.652867
0.65361628
0.65446171
0.65529068
0.65603931
0.65653837
0.65706338
0.65753834
0.65801443
0.65858963
0.65890821
0.63761634
0.6383246
0.63899684
0.6394176
0.64016033
0.64085255
0.64156917
0.64225071
0.64319027
0.64410775
0.64494829
0.64587478
0.64692377
0.64774802
0.64859002
0.64957488
0.65035668
0.6512232
0.65204884
0.652835
0.65359235
0.65445075
0.65527813
0.65602921
0.65651941
0.6570526
0.65752349
0.65800821
0.6585897
0.6589017
0.63676892
0.63706566
0.63751701
0.63819824
0.63890344
0.63933152
0.64004457
0.64077689
0.64150581
0.64219788
0.6431495
0.64406605
0.64491671
0.6458362
0.6468835
0.64770323
0.6485531
0.64954221
0.65031916
0.65118554
0.65201081
0.65280239
0.65356965
0.65443706
0.65526862
0.65602414
0.65650307
0.65703763
0.65751192
0.65800105
0.65858901
0.65889655
0.63547311
0.63590701
0.63629012
0.63663429
0.63696325
0.63742072
0.63806208
0.63879861
0.63925178
0.63992394
0.64069569
0.64144012
0.64214369
0.6431007
0.64401476
0.64487415
0.64579056
0.64683761
0.64765232
0.6485112
0.64950346
0.65028077
0.65114449
0.65197041
0.65276971
0.65354799
0.65442857
0.65525701
0.65601457
0.65648627
0.65702769
0.65749804
0.6579967
0.65858846
0.6588894
0.63456963
0.63472202
0.63493313
0.63528196
0.63576397
0.63615129
0.63651199
0.63687705
0.63732647
0.63791984
0.63869106
0.63918166
0.63980902
0.64061719
0.6413772
0.64209732
0.64305236
0.64396387
0.64482963
0.64574211
0.64678894
0.6476015
0.64847363
0.64946542
0.65024246
0.65110498
0.65193014
0.65273621
0.65352751
0.65441733
0.6552472
0.65601097
0.65647151
0.65701454
0.65748746
0.65799104
0.65858747
0.63380354
0.6340129
0.63416832
0.63423261
0.6344506
0.63474072
0.63513505
0.63563354
0.63601071
0.63639908
0.63678067
0.63721849
0.63777193
0.63857706
0.63911254
0.63968988
0.64053368
0.64131047
0.64204565
0.64299596
0.64390366
0.64477346
0.64568688
0.64673427
0.64754451
0.64843057
0.64942249
0.6502026
0.65106136
0.65188859
0.65270433
0.65350715
0.65441036
0.65523724
0.65599956
0.65645699
0.65700569
0.65747451
0.65798916
0.65858644
0.63310253
0.63322898
0.63332672
0.63336852
0.63336745
0.63346901
0.63357565
0.63373249
0.63382697
0.63395142
0.63426713
0.63461474
0.63501932
0.63549077
0.63587247
0.63629324
0.6366763
0.63710457
0.63762845
0.6384632
0.63904745
0.63957669
0.64044994
0.64124606
0.64199865
0.64293976
0.64384363
0.64471416
0.64562976
0.64667695
0.64748801
0.64839238
0.64938111
0.65016229
0.65101861
0.65184832
0.65267202
0.6534875
0.65440098
0.65522881
0.65599525
0.65644383
0.65699419
0.65746497
0.65798605
0.65858506
0.63263712
0.6326512
0.63265288
0.63268204
0.63272006
0.63276505
0.63280823
0.63288336
0.63292588
0.6329935
0.63310337
0.63317723
0.63319271
0.63314088
0.63319205
0.63327262
0.63340949
0.63356361
0.63379436
0.63416516
0.63451029
0.63489648
0.6353396
0.6357393
0.63617307
0.63654871
0.63698754
0.63749056
0.63834164
0.63897489
0.63946143
0.64036054
0.64117667
0.64194402
0.64287655
0.64377404
0.64464312
0.64556644
0.64661319
0.64742516
0.64834822
0.64933575
0.65011955
0.65097191
0.65180795
0.65264265
0.65346801
0.65439455
0.6552191
0.65598144
0.65643156
0.65698558
0.65745281
0.65798669
0.65858352
0.61740821
0.6174083
0.61740882
0.6174099
0.61741185
0.61741455
0.61741795
0.61742148
0.61742463
0.61742692
0.61742822
0.6174285
0.61742784
0.61742629
0.61742394
0.6174208
0.61741692
0.61741231
0.61740697
0.61740092
0.61739415
0.61738665
0.61737841
0.61736943
0.61735969
0.61734917
0.61733787
0.61732575
0.61731281
0.617299
0.61728431
0.6172687
0.61725213
0.61723456
0.61721593
0.61719617
0.61717522
0.61715298
0.61712935
0.61710413
0.61707714
0.61704814
0.61701685
0.61698293
0.61694588
0.61690503
0.61685931
0.6168067
0.61674181
0.61664964
0.61659347
0.61658243
0.61634602
0.61638024
0.61658971
0.61644
0.61601106
0.6158582
0.6184652
0.62277504
0.62693715
0.6299788
0.63135352
0.63193134
0.63212175
0.63223011
0.63229702
0.63234705
0.63238556
0.63241752
0.63245678
0.63247956
0.6324709
0.63247512
0.6325266
0.63259684
0.63266712
0.63272599
0.63276343
0.63279055
0.63284491
0.63287753
0.63287319
0.63283685
0.63290165
0.63299885
0.63318937
0.63343867
0.63372439
0.63409233
0.63440792
0.63475102
0.63518485
0.63560234
0.63604067
0.6364176
0.63688011
0.63736306
0.63821732
0.63889762
0.63935197
0.64026968
0.64111037
0.64189141
0.64281338
0.64370466
0.64456833
0.64550184
0.64654681
0.64736403
0.64830863
0.64929292
0.65007592
0.65092606
0.6517697
0.65261306
0.65344923
0.65438684
0.65521235
0.65597464
0.65641913
0.65697486
0.65744422
0.65798573
0.65858165
0.61727098
0.61727011
0.61726833
0.6172654
0.61726131
0.61725594
0.61724941
0.61724198
0.61723414
0.6172263
0.61721868
0.61721134
0.61720425
0.61719735
0.61719053
0.61718373
0.61717685
0.61716983
0.6171626
0.61715508
0.61714721
0.61713893
0.61713017
0.61712085
0.61711092
0.61710031
0.61708894
0.61707676
0.61706367
0.61704962
0.61703452
0.6170183
0.61700086
0.61698213
0.61696201
0.6169404
0.61691716
0.61689218
0.6168653
0.61683634
0.61680505
0.61677115
0.61673429
0.616694
0.61664973
0.61660067
0.6165456
0.61648231
0.61640523
0.61630122
0.61623973
0.61615674
0.61589831
0.61598862
0.61611367
0.61603047
0.61550543
0.61641274
0.61955366
0.62332388
0.62719576
0.63008962
0.63141274
0.63176779
0.63189153
0.63197692
0.63207204
0.63213936
0.63218167
0.63221082
0.63224409
0.6322754
0.63228635
0.63228643
0.63229833
0.63233663
0.63237653
0.63245133
0.63249561
0.63249429
0.63252594
0.63255046
0.63257129
0.63259063
0.63270031
0.63284932
0.63310262
0.63339183
0.63367529
0.63399743
0.6342638
0.63458161
0.63503044
0.6354523
0.63588912
0.63628581
0.63678064
0.63723785
0.63808045
0.6388077
0.63924393
0.6401717
0.64103709
0.64183001
0.64274358
0.64362491
0.64448316
0.64543178
0.64647397
0.64729751
0.64826257
0.64924687
0.65002934
0.6508773
0.65173183
0.65258678
0.65343142
0.65438164
0.65520446
0.65595949
0.6564095
0.65696618
0.65743292
0.65798754
0.61701248
0.61701238
0.6170119
0.61701079
0.61700836
0.61700445
0.61699857
0.61699108
0.6169823
0.61697298
0.61696347
0.61695403
0.61694469
0.61693546
0.61692626
0.61691704
0.61690773
0.61689825
0.61688856
0.61687858
0.61686825
0.61685751
0.61684628
0.61683451
0.61682212
0.61680904
0.6167952
0.61678053
0.61676494
0.61674835
0.61673068
0.61671184
0.61669173
0.61667027
0.61664733
0.61662279
0.61659653
0.61656839
0.6165382
0.61650575
0.61647084
0.61643315
0.61639229
0.61634774
0.61629885
0.61624465
0.61618377
0.61611384
0.61602901
0.61591442
0.61585811
0.61574654
0.61546266
0.61558482
0.61566462
0.61541751
0.61512031
0.61661968
0.61943856
0.62325761
0.62723171
0.63011301
0.63143744
0.63179952
0.63189804
0.63193469
0.6319447
0.63197857
0.63200186
0.63201074
0.63200824
0.63201222
0.63200556
0.63200435
0.63199609
0.63199852
0.63201734
0.63209
0.63217097
0.63222061
0.63228252
0.63234703
0.6323982
0.6324457
0.632597
0.63278869
0.63306564
0.63334819
0.63359199
0.63385464
0.63408716
0.63441051
0.6348754
0.63529215
0.63573942
0.63617258
0.63669037
0.63711803
0.63793752
0.63870788
0.63914424
0.6400729
0.64096574
0.64176725
0.64267458
0.64354402
0.64439635
0.64536161
0.64640022
0.64723462
0.64822111
0.64920375
0.64998201
0.6508299
0.65169591
0.65256039
0.65341466
0.65437433
0.65519834
0.65595035
0.65639828
0.6569566
0.65742512
0.65798684
0.61677348
0.61677405
0.61677506
0.6167764
0.61677756
0.6167783
0.61677805
0.61677662
0.61677388
0.61677007
0.61676538
0.61676004
0.61675413
0.61674775
0.61674093
0.61673368
0.61672601
0.61671789
0.61670931
0.61670026
0.61669069
0.61668058
0.61666988
0.61665854
0.61664652
0.61663376
0.61662022
0.61660582
0.6165905
0.61657419
0.61655683
0.61653832
0.61651858
0.61649753
0.61647507
0.61645107
0.61642543
0.61639799
0.61636861
0.61633708
0.61630318
0.61626662
0.61622703
0.61618392
0.61613665
0.61608434
0.61602566
0.61595825
0.61587594
0.6157614
0.61567135
0.61554859
0.6152526
0.6153111
0.61536959
0.61496131
0.61490565
0.61656788
0.61945098
0.62361696
0.62785956
0.63034455
0.63126208
0.63152827
0.63158615
0.631614
0.63164523
0.6316657
0.63168967
0.63170152
0.63171564
0.63170786
0.63169906
0.63170133
0.63172123
0.63176497
0.63178649
0.63185947
0.63196641
0.63207213
0.63217807
0.63224674
0.63229821
0.63236036
0.63253335
0.63273898
0.63300413
0.63325227
0.63343909
0.63366859
0.63389753
0.63424679
0.63471689
0.63512357
0.63559817
0.63606823
0.63659809
0.63699246
0.6377807
0.6385959
0.63904854
0.63996663
0.64088508
0.64169373
0.64259833
0.64345238
0.64430194
0.64528735
0.64632215
0.64716741
0.64817331
0.64915775
0.6499314
0.650781
0.65165988
0.6525367
0.65339855
0.65436938
0.65519062
0.65593501
0.6563905
0.6569488
0.65741503
0.65798868
0.61661772
0.61661699
0.61661568
0.61661364
0.61661111
0.61660782
0.61660397
0.61659942
0.61659448
0.6165892
0.61658381
0.61657835
0.61657285
0.61656728
0.6165616
0.61655574
0.61654966
0.61654329
0.61653657
0.61652944
0.61652184
0.6165137
0.61650495
0.61649553
0.61648537
0.6164744
0.61646254
0.61644973
0.61643588
0.61642092
0.61640476
0.6163873
0.61636845
0.61634806
0.61632604
0.61630226
0.61627657
0.61624883
0.61621883
0.61618637
0.61615116
0.61611289
0.61607115
0.61602544
0.61597511
0.61591932
0.61585688
0.61578582
0.6157015
0.61559541
0.61551259
0.61534022
0.61511583
0.61521239
0.61525879
0.61478484
0.61535138
0.61717757
0.62049765
0.62473329
0.62836104
0.63034753
0.63099507
0.63115825
0.63122828
0.63130206
0.63134597
0.63136834
0.63142248
0.63146034
0.63147586
0.63148058
0.63150647
0.63154081
0.63156601
0.63161883
0.63166962
0.6317534
0.63185045
0.63198043
0.63211168
0.63218802
0.63221843
0.63226062
0.63242933
0.63262866
0.6328673
0.63307414
0.63323526
0.63346806
0.63372576
0.63409329
0.63455843
0.63496826
0.63547981
0.63597458
0.63649925
0.63686718
0.63761881
0.63847735
0.63896506
0.6398607
0.64080194
0.64161488
0.64252348
0.64335896
0.64420907
0.64521497
0.6462462
0.64710689
0.64813003
0.64911469
0.64988053
0.65073419
0.65162485
0.65251278
0.6533844
0.6543655
0.65518434
0.65592414
0.65638098
0.65694118
0.65740759
0.65798747
0.61642056
0.61641907
0.61641593
0.61641077
0.61640343
0.61639381
0.6163822
0.61636929
0.61635604
0.61634323
0.6163312
0.61631998
0.61630944
0.61629941
0.61628972
0.61628021
0.61627074
0.61626118
0.61625142
0.61624135
0.61623087
0.61621988
0.61620828
0.61619599
0.61618291
0.61616896
0.61615405
0.61613808
0.61612096
0.6161026
0.61608291
0.61606178
0.61603911
0.61601479
0.61598866
0.61596059
0.61593042
0.61589797
0.61586302
0.61582532
0.61578457
0.61574042
0.61569241
0.61563999
0.6155825
0.61551905
0.61544846
0.61536888
0.61527605
0.61516354
0.61511688
0.61493584
0.61474383
0.61499925
0.61486966
0.61456219
0.61517161
0.61717854
0.62059893
0.62476594
0.62829906
0.63024775
0.6309005
0.63108901
0.63115926
0.63120612
0.63124953
0.63128486
0.63131589
0.6313428
0.63134947
0.63135754
0.63140402
0.63145748
0.63148774
0.63152914
0.63158896
0.63166396
0.63176043
0.63188608
0.63202372
0.63210802
0.63213478
0.63213499
0.63226629
0.6324305
0.63263913
0.63283259
0.63302166
0.6332916
0.63357466
0.633948
0.63440474
0.63482734
0.63536793
0.63587116
0.63638598
0.63673363
0.63744777
0.63835243
0.6388853
0.63974702
0.64070703
0.64152251
0.6424397
0.64325666
0.64411068
0.64513985
0.64616788
0.64704263
0.64808093
0.64906787
0.64982723
0.65068728
0.65158908
0.65249089
0.65337396
0.65436225
0.655176
0.65590873
0.65637574
0.65693474
0.6573989
0.65798988
0.61618217
0.61618209
0.61618172
0.61618087
0.61617908
0.61617625
0.61617203
0.61616663
0.61616019
0.61615322
0.61614585
0.61613828
0.61613048
0.61612248
0.6161142
0.61610561
0.61609663
0.61608722
0.61607731
0.61606685
0.61605576
0.616044
0.61603149
0.61601817
0.61600397
0.61598882
0.61597264
0.61595535
0.61593687
0.61591712
0.615896
0.6158734
0.61584923
0.6158234
0.6157958
0.61576628
0.61573468
0.61570083
0.6156645
0.61562546
0.61558341
0.61553797
0.61548871
0.61543508
0.61537638
0.61531172
0.61523974
0.61515831
0.61506296
0.61494411
0.61488382
0.61470723
0.61452273
0.6147916
0.61457577
0.61432941
0.61489393
0.6169989
0.62071134
0.62508202
0.62872287
0.63033684
0.63082102
0.63093709
0.63098167
0.63104142
0.63110242
0.6311421
0.63118039
0.63123338
0.63126724
0.63126065
0.63127458
0.63134011
0.63139783
0.63143713
0.63146856
0.63152533
0.63157357
0.6316899
0.63183827
0.63193672
0.63196637
0.63195221
0.63204194
0.63217413
0.63236989
0.63259453
0.63283539
0.63313957
0.63343783
0.6338037
0.63426438
0.63470811
0.63526202
0.63575766
0.63625922
0.63660228
0.63727865
0.63822631
0.63881537
0.63963401
0.64060613
0.64142396
0.64235658
0.64315457
0.64401673
0.64506782
0.64609416
0.64698727
0.64803645
0.64902343
0.64977543
0.65064285
0.6515536
0.65246933
0.65336396
0.65436112
0.65517025
0.65589718
0.65636807
0.65692913
0.6573922
0.61601974
0.61601977
0.61602
0.61602045
0.6160212
0.61602205
0.61602287
0.61602326
0.61602297
0.61602175
0.61601961
0.61601655
0.61601264
0.6160079