/*--------------------------------*- C++ -*----------------------------------*\
| =========                 |                                                 |
| \\      /  F ield         | OpenFOAM: The Open Source CFD Toolbox           |
|  \\    /   O peration     | Version:  2506                                  |
|   \\  /    A nd           | Website:  www.openfoam.com                      |
|    \\/     M anipulation  |                                                 |
\*---------------------------------------------------------------------------*/
FoamFile
{
    version     2.0;
    format      ascii;
    arch        "LSB;label=32;scalar=64";
    class       volScalarField;
    location    "0.014";
    object      T;
}
// * * * * * * * * * * * * * * * * * * * * * * * * * * * * * * * * * * * * * //

dimensions      [0 0 0 1 0 0 0];

internalField   nonuniform List<scalar> 
13761
(
249.13372
249.14176
249.14853
249.13412
249.15541
249.17411
249.19043
249.20458
249.21687
249.22757
249.23685
249.24482
249.1074
249.14171
249.17235
249.1998
249.22436
249.24624
249.26564
249.28286
249.29811
249.31152
249.3232
249.33309
249.34124
248.97109
249.02492
249.07415
249.11896
249.1596
249.19652
249.23006
249.26048
249.28802
249.31289
249.33532
249.3555
249.37348
249.38928
249.40298
249.41469
249.42463
248.81659
248.88561
248.9503
249.01043
249.06608
249.11735
249.16455
249.20796
249.24792
249.2846
249.31821
249.34896
249.37699
249.40243
249.42533
249.44572
249.46369
249.47934
249.49288
249.50451
249.51432
248.61367
248.6959
248.77439
248.84898
248.9192
248.98512
249.0466
249.10391
249.15722
249.2068
249.25286
249.29559
249.33513
249.37163
249.40516
249.43582
249.46367
249.48872
249.51109
249.53089
249.54828
249.5634
249.5764
249.58749
249.59688
248.36837
248.46039
248.55004
248.6366
248.71985
248.79919
248.87464
248.94589
249.01317
249.07641
249.13594
249.19181
249.24425
249.29333
249.33917
249.38179
249.42124
249.45754
249.49072
249.52079
249.54786
249.57205
249.59351
249.61241
249.62893
249.64329
249.65572
249.66646
249.67569
248.09789
248.1963
248.2935
248.38885
248.48176
248.57192
248.65882
248.74242
248.8223
248.89862
248.97111
249.04009
249.1054
249.16732
249.22576
249.28089
249.33261
249.38099
249.42596
249.46751
249.50564
249.54039
249.57185
249.60018
249.62554
249.64811
249.66813
249.6858
249.70135
249.71498
249.72688
249.7373
249.74641
247.81258
247.91274
248.01336
248.11331
248.21213
248.30908
248.40389
248.49618
248.58594
248.67275
248.75673
248.83747
248.91514
248.98945
249.06062
249.12839
249.19294
249.25403
249.31177
249.36595
249.41661
249.4636
249.50697
249.54671
249.58295
249.61581
249.64547
249.67213
249.69603
249.71738
249.73639
249.75329
249.76825
249.7815
249.79323
249.80363
247.53314
247.63015
247.72898
247.82878
247.92879
248.02858
248.12738
248.22498
248.32097
248.41525
248.50752
248.59788
248.68581
248.77145
248.85422
248.93426
249.01106
249.08475
249.15493
249.22171
249.2848
249.34427
249.3999
249.45175
249.49971
249.5439
249.58435
249.62124
249.65473
249.68505
249.71241
249.73706
249.75922
249.7791
249.79693
249.81288
249.82716
249.83991
249.85131
249.86148
247.17941
247.26533
247.35449
247.44648
247.54143
247.63824
247.73655
247.83552
247.93469
248.03377
248.13214
248.22965
248.32595
248.42093
248.51428
248.60604
248.69561
248.78304
248.86761
248.94937
249.02772
249.10278
249.17411
249.24189
249.30581
249.36601
249.42228
249.47476
249.52338
249.5683
249.60959
249.64746
249.68203
249.71357
249.74226
249.76832
249.79194
249.81333
249.83265
249.85006
249.86571
249.87975
249.89232
249.90355
246.87318
246.94464
247.01948
247.09844
247.1823
247.26969
247.35995
247.45278
247.54819
247.64525
247.74377
247.84286
247.94235
248.04191
248.14091
248.23923
248.33638
248.43233
248.5267
248.61963
248.71042
248.79902
248.88467
248.96736
249.04649
249.12222
249.19415
249.26252
249.32705
249.38791
249.44489
249.49815
249.5476
249.59343
249.63565
249.67449
249.71006
249.74259
249.77222
249.79917
249.82356
249.8456
249.86543
249.88323
249.89914
249.91335
249.92602
249.9373
249.9473
246.51105
246.5664
246.62325
246.68047
246.74054
246.80413
246.87056
246.94186
247.01757
247.09829
247.18407
247.27283
247.36387
247.45703
247.55251
247.64941
247.74783
247.84683
247.94641
248.046
248.145
248.24333
248.34032
248.43626
248.5307
248.62393
248.71506
248.80404
248.89002
248.97304
249.05247
249.12852
249.20078
249.26953
249.33448
249.39583
249.45331
249.50712
249.55712
249.6035
249.64627
249.68565
249.72175
249.75483
249.78497
249.81242
249.83732
249.85989
249.88029
249.89871
249.91529
249.93022
249.94364
249.95569
249.96645
245.91118
245.9969
246.08021
246.15521
246.22227
246.28504
246.34488
246.40385
246.46049
246.51616
246.57043
246.62576
246.67976
246.73828
246.80216
246.86908
246.94142
247.01774
247.09933
247.18676
247.27609
247.36665
247.45906
247.55414
247.65049
247.74881
247.84734
247.94706
248.04675
248.14585
248.24437
248.34148
248.43803
248.53327
248.62767
248.72023
248.81064
248.89809
248.98254
249.06338
249.14074
249.21423
249.28414
249.35014
249.4125
249.47092
249.52564
249.57649
249.62376
249.66738
249.7076
249.74448
249.77822
249.80898
249.83697
249.8623
249.88513
249.90563
249.92398
249.9404
249.95508
249.96818
249.97989
249.99041
245.39985
245.48908
245.59289
245.60906
245.61213
245.60606
245.58237
245.55201
245.52654
245.50872
245.49722
245.49004
245.4856
245.4851
245.4941
245.53124
245.64372
245.91014
246.32751
246.45768
245.99296
245.58817
245.38706
245.3076
245.27258
245.21213
245.1614
245.19893
245.30927
245.54024
245.64561
245.53232
245.45821
245.48884
245.55601
245.59542
245.65084
245.70932
245.76812
245.83258
245.91116
245.9973
246.08008
246.155
246.223
246.28727
246.34617
246.40396
246.45746
246.51219
246.56592
246.62507
246.68185
246.74262
246.80985
246.87773
246.9499
247.02481
247.10154
247.18628
247.27286
247.36198
247.45215
247.54603
247.64004
247.73895
247.83771
247.94014
248.04207
248.14347
248.24452
248.34309
248.44153
248.53782
248.63319
248.72643
248.81749
248.90556
248.99053
249.07181
249.14947
249.22314
249.29303
249.35876
249.42069
249.47842
249.53246
249.58242
249.6289
249.67151
249.7109
249.7467
249.77956
249.80927
249.83634
249.86067
249.88268
249.9023
249.91995
249.93558
249.9496
249.96207
249.97327
249.98322
245.39985
245.48912
245.59292
245.60907
245.61214
245.60605
245.58235
245.55199
245.52653
245.50871
245.49721
245.49003
245.4856
245.4851
245.49412
245.53131
245.64392
245.91056
246.328
246.45678
245.99253
245.58757
245.38684
245.30736
245.27221
245.21204
245.16172
245.19931
245.30988
245.54011
245.6437
245.5334
245.45864
245.49059
245.55996
245.60089
245.65277
245.70793
245.76633
245.83181
245.91068
245.99711
246.08049
246.15528
246.22209
246.28487
246.34461
246.40341
246.46016
246.51577
246.5699
246.62522
246.68154
246.73864
246.8016
246.86959
246.94232
247.0194
247.09916
247.18305
247.2733
247.36523
247.46019
247.55397
247.64994
247.74611
247.84509
247.94465
248.04586
248.14595
248.24605
248.34383
248.44081
248.53592
248.62939
248.72132
248.81082
248.89848
248.9827
249.06445
249.14202
249.2166
249.28657
249.35321
249.41524
249.47392
249.52822
249.57926
249.62626
249.67019
249.71051
249.74808
249.78241
249.8141
249.8428
249.86901
249.89255
249.91382
249.9328
249.94959
249.96446
249.97746
249.98898
249.99913
245.39984
245.48922
245.593
245.60911
245.61215
245.60604
245.5823
245.55194
245.52648
245.50868
245.49719
245.49002
245.48559
245.48512
245.49418
245.53154
245.64455
245.91184
246.32951
246.4541
245.99127
245.58582
245.38624
245.30655
245.27124
245.21198
245.16218
245.20015
245.3115
245.54026
245.63783
245.53547
245.4595
245.49577
245.56875
245.61009
245.65606
245.70778
245.76485
245.83084
245.9109
245.99737
246.07986
246.15473
246.22305
246.28658
246.34579
246.40189
246.45661
246.51088
246.56646
246.62245
246.68057
246.74006
246.80374
246.87157
246.94351
247.01919
247.09952
247.18267
247.27245
247.36343
247.45871
247.55235
247.64959
247.74581
247.84552
247.94456
248.04531
248.14504
248.24457
248.34229
248.43868
248.53305
248.6252
248.71552
248.80312
248.88868
248.97097
249.05068
249.12649
249.19912
249.26754
249.33235
249.39291
249.44966
249.50235
249.55134
249.59663
249.6386
249.67746
249.71324
249.7463
249.77657
249.80449
249.8299
249.85328
249.87441
249.89373
249.91134
249.92739
249.94192
249.95502
249.96671
245.39983
245.48938
245.59314
245.60916
245.61216
245.60601
245.58222
245.55184
245.5264
245.50862
245.49715
245.48999
245.48557
245.48514
245.49429
245.53193
245.64559
245.91399
246.33202
246.44961
245.98916
245.58293
245.38528
245.30515
245.26978
245.21193
245.16266
245.20131
245.314
245.54089
245.6277
245.53771
245.46265
245.5048
245.5774
245.61772
245.65831
245.70646
245.76263
245.82939
245.91064
245.9981
246.08038
246.15433
246.222
246.2856
246.34541
246.40124
246.45565
246.50885
246.5642
246.62002
246.67945
246.73983
246.8036
246.87164
246.94328
247.01854
247.09858
247.18038
247.26892
247.35873
247.45354
247.54706
247.64447
247.7407
247.84023
247.93908
248.03967
248.13954
248.23933
248.33771
248.43475
248.52993
248.623
248.71418
248.80294
248.88938
248.97257
249.05271
249.12913
249.2018
249.27039
249.33482
249.39513
249.45135
249.50369
249.55189
249.59642
249.63702
249.67442
249.70862
249.74007
249.76873
249.79496
249.81877
249.84041
249.85996
249.87757
249.89337
249.90754
249.92025
249.93164
249.94189
245.39981
245.48962
245.59333
245.60923
245.61219
245.60596
245.5821
245.55171
245.5263
245.50855
245.4971
245.48996
245.48554
245.48518
245.49444
245.53248
245.64705
245.91698
246.33555
246.44325
245.9862
245.57895
245.38398
245.3031
245.26795
245.21179
245.16312
245.20273
245.31729
245.54229
245.61352
245.53896
245.46978
245.51767
245.58327
245.62004
245.65751
245.70394
245.75987
245.82774
245.91006
245.99815
246.0806
246.15418
246.22134
246.28458
246.34469
246.40064
246.45509
246.50755
246.56225
246.61715
246.67655
246.7372
246.80133
246.86963
246.94129
247.01631
247.09606
247.17715
247.26478
247.35393
247.44816
247.54156
247.6388
247.7348
247.83365
247.93124
248.03007
248.12811
248.22573
248.32217
248.41697
248.5097
248.60011
248.68884
248.77575
248.86083
248.94363
249.02372
249.10067
249.17392
249.24333
249.30838
249.36922
249.42557
249.47786
249.52606
249.57057
249.61137
249.64861
249.68236
249.71301
249.74076
249.76591
249.78866
249.80924
249.82784
249.8446
249.85971
249.87327
249.88548
249.89642
245.39979
245.48992
245.59358
245.60933
245.61221
245.6059
245.58194
245.55154
245.52616
245.50845
245.49703
245.48991
245.48551
245.48522
245.49463
245.53319
245.64893
245.92083
246.34008
246.43495
245.98237
245.57393
245.38235
245.30045
245.26573
245.21145
245.16367
245.20445
245.32131
245.54487
245.5961
245.5379
245.4807
245.53353
245.58586
245.61639
245.65281
245.69902
245.75622
245.82627
245.90976
245.9979
246.08047
246.15437
246.22152
246.28397
246.34358
246.39915
246.45353
246.50553
246.55974
246.61357
246.67223
246.73259
246.79669
246.8652
246.93701
247.01185
247.09105
247.17111
247.25718
247.34522
247.43887
247.53292
247.63153
247.72993
247.83107
247.93154
248.03231
248.13172
248.22986
248.3258
248.41987
248.51122
248.59988
248.68575
248.76934
248.85065
248.92983
249.00657
249.08088
249.15216
249.22037
249.28484
249.34556
249.40205
249.45445
249.50259
249.54676
249.58705
249.62369
249.65679
249.68658
249.71327
249.73711
249.75838
249.7773
249.79416
249.80915
249.82251
249.8344
249.84504
249.85453
245.39976
245.49029
245.59387
245.60944
245.61225
245.60583
245.58175
245.55134
245.526
245.50833
245.49694
245.48985
245.48547
245.48528
245.49487
245.53406
245.65125
245.92552
246.34563
246.42465
245.97765
245.56793
245.38041
245.29733
245.263
245.21082
245.16447
245.20664
245.32603
245.54924
245.57653
245.53328
245.4921
245.54802
245.58281
245.60466
245.64243
245.69215
245.7527
245.82482
245.90953
245.99806
246.08065
246.15428
246.22117
246.28301
246.34188
246.39669
246.4508
246.50255
246.55654
246.60981
246.6679
246.72792
246.79193
246.86099
246.93367
247.00942
247.08909
247.16901
247.25339
247.3391
247.42923
247.51948
247.61413
247.70931
247.80764
247.90713
248.00858
248.11007
248.21094
248.30976
248.40591
248.49918
248.58928
248.67562
248.75828
248.83735
248.91332
248.98616
249.05629
249.12347
249.188
249.24946
249.30795
249.36302
249.41463
249.46247
249.50655
249.54684
249.5835
249.61667
249.6465
249.67318
249.69688
249.71786
249.7363
249.75247
249.76655
249.77882
249.7895
249.79884
245.39974
245.49073
245.59421
245.60958
245.61229
245.60575
245.58153
245.5511
245.5258
245.50819
245.49685
245.48979
245.48542
245.48535
245.49515
245.5351
245.65401
245.93104
246.35221
246.41222
245.97201
245.56102
245.37819
245.29386
245.25956
245.20983
245.1656
245.20941
245.33135
245.55633
245.55569
245.52411
245.49724
245.55303
245.57407
245.58912
245.62948
245.6839
245.74892
245.82369
245.90934
245.99802
246.08066
246.15414
246.22062
246.28161
246.33948
246.39329
246.44687
246.4983
246.55219
246.6052
246.66271
246.7218
246.78448
246.85241
246.9247
247.00128
247.08305
247.16607
247.25423
247.34322
247.43525
247.5262
247.61895
247.71153
247.80584
247.90057
247.99693
248.09424
248.19241
248.2905
248.38734
248.48206
248.57395
248.66224
248.74652
248.82629
248.90187
248.97319
249.04081
249.10468
249.16533
249.22273
249.27718
249.32862
249.3771
249.42246
249.46459
249.50339
249.53879
249.57089
249.59977
249.62559
249.64846
249.66859
249.68615
249.70137
249.71444
249.72559
249.73507
249.7431
245.39971
245.49124
245.5946
245.60974
245.61233
245.60565
245.58128
245.55083
245.52558
245.50803
245.49674
245.48971
245.48537
245.48544
245.49549
245.53632
245.65721
245.93739
246.35985
246.39755
245.96541
245.55328
245.37575
245.2901
245.25533
245.2085
245.1671
245.21288
245.33717
245.56677
245.53483
245.50987
245.48971
245.54311
245.56211
245.57422
245.61589
245.67541
245.74519
245.82263
245.90944
245.99835
246.08078
246.15369
246.21928
246.27907
246.33598
246.38924
246.44268
246.49409
246.54814
246.60161
246.65987
246.71987
246.78287
246.84983
246.91983
246.99275
247.07017
247.15023
247.23497
247.32293
247.41649
247.51149
247.60847
247.70437
247.80074
247.89536
247.9895
248.08314
248.1766
248.27001
248.36313
248.45539
248.54616
248.63452
248.71985
248.80105
248.87777
248.94947
249.01644
249.07871
249.13685
249.19111
249.24198
249.28973
249.33462
249.37679
249.41624
249.45292
249.48672
249.51757
249.54545
249.57045
249.59263
249.61211
249.629
249.64348
249.65576
249.66609
249.67466
245.39968
245.49181
245.59504
245.60992
245.61238
245.60554
245.58099
245.55052
245.52533
245.50785
245.49661
245.48963
245.48531
245.48554
245.49588
245.53772
245.66087
245.94455
246.36858
246.3805
245.9578
245.54479
245.37314
245.286
245.2504
245.20692
245.16892
245.21715
245.34344
245.58063
245.5149
245.49226
245.47252
245.52436
245.55123
245.56259
245.60545
245.66879
245.74243
245.82237
245.91017
245.99872
246.08047
246.15276
246.21738
246.27607
246.33204
246.38486
246.43836
246.48963
246.54273
246.59444
246.65094
246.71081
246.77601
246.847
246.92162
246.99813
247.07641
247.15421
247.2355
247.31893
247.40661
247.49716
247.5924
247.6895
247.7884
247.88625
247.98235
248.07634
248.16846
248.25903
248.34831
248.43646
248.5235
248.60903
248.69269
248.77335
248.8503
248.92246
248.98955
249.05128
249.10793
249.15988
249.20765
249.25176
249.29266
249.33072
249.36622
249.39933
249.43007
249.45841
249.48419
249.50746
249.52817
249.54644
249.56231
249.57586
249.58724
249.59662
245.39965
245.49246
245.59551
245.61011
245.61244
245.60541
245.58067
245.55018
245.52506
245.50765
245.49648
245.48954
245.48524
245.48565
245.49632
245.5393
245.665
245.95251
246.3784
246.36097
245.94913
245.53564
245.3704
245.28148
245.24496
245.20518
245.17104
245.22225
245.35026
245.59561
245.4996
245.47367
245.45343
245.50666
245.54416
245.55593
245.59993
245.66558
245.74125
245.82271
245.91131
245.99939
246.07982
246.15089
246.21478
246.2729
246.32824
246.38058
246.4345
246.48737
246.54233
246.59479
246.64924
246.70403
246.76275
246.82885
246.90113
246.97981
247.06326
247.14649
247.23153
247.31589
247.40174
247.48848
247.57855
247.67147
247.76791
247.86606
247.9641
248.06027
248.15352
248.24371
248.33103
248.41595
248.49896
248.58028
248.66023
248.7382
248.81362
248.88531
248.95246
249.01438
249.0708
249.1218
249.16782
249.20946
249.24733
249.282
249.31387
249.34335
249.37068
249.39604
249.41931
249.44042
249.45929
249.4759
249.49041
249.5029
249.51342
245.39962
245.49317
245.59602
245.61033
245.6125
245.60527
245.58031
245.54981
245.52476
245.50743
245.49633
245.48944
245.48518
245.48578
245.49683
245.54108
245.6696
245.96124
246.38905
246.33942
245.93905
245.52592
245.36753
245.27664
245.23918
245.20322
245.17335
245.22821
245.35812
245.60702
245.49373
245.45713
245.44037
245.49456
245.54267
245.55656
245.59968
245.66576
245.74163
245.82357
245.9124
245.99996
246.07875
246.14803
246.2111
246.26923
246.32467
246.37569
246.42736
246.47748
246.53263
246.58897
246.64941
246.70893
246.76843
246.83071
246.89735
246.96983
247.04935
247.13278
247.22032
247.30833
247.39619
247.48292
247.57075
247.66019
247.75245
247.84744
247.94424
248.04107
248.13578
248.22706
248.31442
248.39808
248.47853
248.55619
248.6318
248.70556
248.77738
248.84645
248.91189
248.97284
249.02864
249.07889
249.12357
249.1631
249.19817
249.22954
249.25779
249.28344
249.30684
249.32843
249.34839
249.36671
249.38326
249.3979
249.41058
249.42152
249.4307
245.39959
245.49396
245.59656
245.61057
245.61257
245.60511
245.57993
245.5494
245.52443
245.5072
245.49617
245.48933
245.48511
245.48591
245.49741
245.54307
245.67471
245.97072
246.40045
246.31599
245.92733
245.51568
245.36447
245.27171
245.23313
245.20078
245.17568
245.23506
245.36777
245.61128
245.49757
245.44638
245.43526
245.489
245.54372
245.56385
245.60485
245.6691
245.74394
245.82522
245.91314
245.9998
246.07728
246.14521
246.20737
246.26555
246.32219
246.37598
246.42892
246.477
246.52529
246.57398
246.62932
246.69046
246.75583
246.82324
246.89206
246.96303
247.03878
247.11895
247.20471
247.2937
247.38384
247.47245
247.56007
247.64764
247.73652
247.82751
247.9207
248.01556
248.11013
248.20223
248.2903
248.3739
248.45328
248.52877
248.60101
248.67062
248.73826
248.80375
248.86642
248.92536
248.97989
249.02941
249.07346
249.11194
249.14517
249.17395
249.19916
249.22153
249.24145
249.25934
249.27559
249.29051
249.30423
249.31671
249.32762
249.33677
245.39956
245.49481
245.59713
245.61083
245.61265
245.60493
245.57951
245.54897
245.52409
245.50695
245.49599
245.48922
245.48504
245.48606
245.49805
245.54527
245.68032
245.98092
246.41254
246.29065
245.91395
245.50499
245.36119
245.26701
245.22674
245.19753
245.17804
245.24281
245.37973
245.60766
245.50559
245.44496
245.44043
245.48999
245.54524
245.57511
245.61565
245.67579
245.74775
245.82752
245.91449
245.9998
246.07572
246.14263
246.20419
246.26049
246.31425
246.36516
246.42084
246.47649
246.53021
246.578
246.62762
246.68174
246.74354
246.81194
246.88354
246.95585
247.03022
247.10779
247.19075
247.27837
247.36912
247.45986
247.54884
247.6362
247.72324
247.81138
247.90083
247.99208
248.08434
248.17583
248.26417
248.34784
248.42661
248.50079
248.57078
248.63693
248.70007
248.761
248.81967
248.87536
248.9272
248.97463
249.01717
249.05447
249.0863
249.11297
249.13526
249.15426
249.17074
249.18516
249.19786
249.20921
249.21957
249.22911
249.23787
245.39954
245.49573
245.59773
245.61111
245.61273
245.60474
245.57906
245.5485
245.52372
245.50668
245.49581
245.48909
245.48497
245.48622
245.49877
245.5477
245.68645
245.99181
246.42522
246.26339
245.89892
245.49388
245.35768
245.26269
245.21993
245.19339
245.18054
245.25139
245.39418
245.59709
245.51168
245.45333
245.4544
245.49598
245.54736
245.58609
245.62835
245.68491
245.75398
245.83115
245.91581
245.99931
246.07364
246.13861
246.20112
246.2613
246.31616
246.36253
246.4086
246.45699
246.51323
246.56779
246.62103
246.6733
246.7314
246.79785
246.87088
246.94607
247.02108
247.09679
247.17654
247.26114
247.34996
247.44118
247.532
247.62056
247.7068
247.79287
247.8794
247.9669
248.05536
248.14433
248.23194
248.31578
248.39434
248.46761
248.53618
248.60028
248.66017
248.71674
248.77094
248.82283
248.87165
248.91654
248.95695
248.99259
249.02314
249.04849
249.06885
249.08505
249.0982
249.10911
249.11841
249.12654
249.13378
249.14039
245.39952
245.49672
245.59834
245.61141
245.61282
245.60453
245.57858
245.54801
245.52333
245.5064
245.49562
245.48896
245.4849
245.48639
245.49957
245.55036
245.69313
246.00336
246.4377
246.23532
245.88187
245.4824
245.35398
245.25867
245.21271
245.1885
245.18344
245.26057
245.41118
245.58114
245.51065
245.46546
245.47269
245.50426
245.54886
245.59382
245.6407
245.6959
245.76072
245.83528
245.91643
245.99833
246.07256
246.13541
246.19301
246.25037
246.3121
246.3668
246.41362
246.45623
246.50495
246.5585
246.61469
246.66738
246.72212
246.78415
246.85505
246.93261
247.01115
247.08772
247.16543
247.24705
247.33273
247.4219
247.5129
247.6033
247.69035
247.77524
247.85944
247.94404
248.02883
248.11388
248.19869
248.28149
248.3598
248.43228
248.49912
248.56111
248.61848
248.67148
248.72102
248.76809
248.81275
248.85434
248.89203
248.92529
248.9538
248.9774
248.99605
249.01017
249.0205
249.02828
249.03411
249.03886
249.04287
245.3995
245.49778
245.59896
245.61173
245.61292
245.6043
245.57807
245.5475
245.52292
245.50611
245.49542
245.48883
245.48484
245.48658
245.50045
245.55326
245.70036
246.01553
246.4494
246.20751
245.86231
245.47055
245.35004
245.2548
245.20523
245.18302
245.18697
245.27006
245.43065
245.56097
245.50152
245.47194
245.48521
245.51078
245.54873
245.59784
245.65013
245.70571
245.76794
245.84005
245.91783
245.99635
246.07011
246.13776
246.19521
246.24572
246.29654
246.35115
246.40365
246.4496
246.49456
246.54401
246.60273
246.66042
246.71563
246.77412
246.83969
246.91448
246.99534
247.07546
247.15344
247.23275
247.3153
247.40137
247.48995
247.58037
247.66896
247.75429
247.83681
247.91869
248.00045
248.08191
248.16294
248.243
248.32025
248.39251
248.45852
248.51869
248.57377
248.62412
248.67018
248.7129
248.75304
248.79064
248.82509
248.85577
248.88212
248.9038
248.9206
248.93263
248.94085
248.94561
248.94898
248.95069
245.3995
245.49891
245.5996
245.61207
245.61303
245.60405
245.57753
245.54696
245.5225
245.50581
245.49521
245.48869
245.48478
245.48679
245.50143
245.55642
245.70816
246.02827
246.45988
246.18019
245.84049
245.45834
245.34569
245.25107
245.19787
245.17758
245.19048
245.27981
245.45239
245.53842
245.48665
245.46591
245.4859
245.51301
245.54776
245.59833
245.65492
245.71429
245.77437
245.84236
245.91966
245.99528
246.06265
246.12682
246.19303
246.25081
246.29865
246.3462
246.39794
246.4457
246.49009
246.53304
246.58621
246.64724
246.70749
246.76661
246.82913
246.89893
246.97748
247.0602
247.14113
247.22015
247.30001
247.38314
247.46879
247.55711
247.64555
247.73187
247.81429
247.8941
247.9727
248.05069
248.12797
248.20432
248.27876
248.34953
248.41468
248.4735
248.52635
248.57386
248.61653
248.65525
248.69095
248.72415
248.7546
248.78184
248.80536
248.82479
248.83973
248.85006
248.8557
248.8594
248.85855
245.3995
245.50011
245.60023
245.61243
245.61314
245.60378
245.57696
245.54639
245.52206
245.50549
245.495
245.48855
245.48472
245.48701
245.50249
245.55984
245.71654
246.04155
246.46859
246.15374
245.81673
245.4458
245.34074
245.2476
245.19106
245.17269
245.19354
245.28952
245.47607
245.51563
245.47057
245.45548
245.48151
245.51323
245.54722
245.59627
245.65586
245.71866
245.78046
245.84442
245.9184
245.99774
246.06634
246.12319
246.17919
246.23841
246.29129
246.33523
246.38417
246.43521
246.48457
246.52784
246.57436
246.63086
246.69431
246.75706
246.8193
246.88556
246.95952
247.04082
247.12428
247.20545
247.2841
247.36408
247.44638
247.53197
247.61886
247.70501
247.78773
247.86682
247.94316
248.01783
248.09138
248.16406
248.23531
248.3038
248.36746
248.425
248.47622
248.52156
248.5614
248.59651
248.62802
248.65693
248.68343
248.70716
248.72752
248.74417
248.75684
248.7654
248.77017
248.77079
248.76843
245.39951
245.50138
245.60083
245.61283
245.61327
245.60349
245.57636
245.5458
245.5216
245.50517
245.49478
245.4884
245.48467
245.48726
245.50366
245.56355
245.72552
246.05531
246.47494
246.12849
245.7914
245.43297
245.33502
245.24459
245.18512
245.16842
245.19631
245.29864
245.50112
245.49439
245.45639
245.44519
245.47682
245.5127
245.54751
245.59232
245.65409
245.71926
245.78353
245.84773
245.91439
245.98714
246.06537
246.1275
246.18036
246.23526
246.28986
246.33361
246.37568
246.42209
246.47344
246.52097
246.56674
246.61757
246.6788
246.74502
246.80974
246.87468
246.94472
247.02251
247.10555
247.18898
247.26875
247.34714
247.42595
247.5078
247.59222
247.67742
247.75986
247.8383
247.91307
247.98509
248.05496
248.12334
248.19049
248.25587
248.31747
248.37329
248.42254
248.46556
248.50277
248.53468
248.56224
248.58668
248.60874
248.62851
248.64557
248.65942
248.67
248.67647
248.67962
248.67805
245.39954
245.50272
245.60141
245.61327
245.61342
245.60317
245.57573
245.5452
245.52113
245.50483
245.49455
245.48825
245.48463
245.48754
245.50493
245.56754
245.73511
246.06951
246.47847
246.10463
245.76487
245.41992
245.32855
245.24206
245.18012
245.16467
245.19895
245.30731
245.52508
245.47886
245.44459
245.43811
245.47323
245.51193
245.54908
245.58857
245.65028
245.71841
245.78113
245.85117
245.92051
245.98663
246.05379
246.1182
246.17248
246.22402
246.27971
246.3288
246.3709
246.41286
246.46137
246.51118
246.55897
246.6071
246.66364
246.7293
246.79715
246.86338
246.93082
247.00452
247.08516
247.169
247.25005
247.32844
247.40525
247.4834
247.56388
247.64687
247.72887
247.80697
247.88043
247.95026
248.01732
248.08216
248.14516
248.20663
248.26544
248.31951
248.36714
248.4081
248.4428
248.47179
248.49589
248.51636
248.53418
248.54976
248.563
248.57393
248.58173
248.58738
248.58802
245.39958
245.50412
245.60199
245.61372
245.61358
245.60282
245.57508
245.54457
245.52065
245.50449
245.49432
245.48809
245.48459
245.48784
245.50631
245.57182
245.7453
246.08413
246.4789
246.08208
245.73755
245.40677
245.32143
245.23975
245.17591
245.16125
245.20193
245.31638
245.54206
245.47707
245.43641
245.4365
245.47305
245.51214
245.55089
245.58701
245.64302
245.71618
245.78012
245.84274
245.91804
245.98939
246.05381
246.11736
246.17291
246.22049
246.27127
246.32039
246.36374
246.40426
246.44948
246.49931
246.54987
246.59801
246.6512
246.71406
246.78264
246.85115
246.9184
246.98868
247.0658
247.14877
247.23057
247.30917
247.38484
247.46049
247.53724
247.61655
247.69652
247.77401
247.84663
247.91444
247.9785
248.03981
248.09887
248.15623
248.21138
248.26268
248.30822
248.34718
248.37958
248.40584
248.42661
248.44315
248.45673
248.4682
248.47792
248.48544
248.49064
248.49407
245.39963
245.50561
245.60252
245.61422
245.61375
245.60244
245.5744
245.54393
245.52016
245.50414
245.49409
245.48794
245.48457
245.48818
245.50781
245.57642
245.75609
246.09912
246.47617
246.06055
245.70976
245.39364
245.31373
245.23727
245.17224
245.15846
245.20582
245.32714
245.54849
245.4857
245.4398
245.44184
245.47516
245.51277
245.55087
245.5876
245.63787
245.71055
245.7831
245.84381
245.91041
245.98243
246.04612
246.10783
246.16643
246.21519
246.2632
246.31243
246.35627
246.39557
246.43815
246.48573
246.53799
246.58801
246.63922
246.69884
246.76654
246.83648
246.90464
246.97302
247.04624
247.12667
247.20851
247.28772
247.3628
247.43634
247.50986
247.58555
247.66265
247.73858
247.81032
247.87684
247.93865
247.99677
248.05195
248.10514
248.15655
248.20492
248.24814
248.28491
248.31504
248.33887
248.35686
248.36999
248.37971
248.38716
248.39295
248.39734
248.39999
245.3997
245.50715
245.60304
245.61473
245.61394
245.60203
245.57369
245.54328
245.51966
245.50379
245.49385
245.48778
245.48455
245.48855
245.50943
245.58133
245.76749
246.11445
246.47022
246.03973
245.68181
245.38066
245.30538
245.23427
245.16905
245.15673
245.2111
245.34087
245.54273
245.48816
245.4489
245.44988
245.47783
245.51269
245.55164
245.58717
245.63771
245.70033
245.77396
245.84292
245.9098
245.98287
246.04691
246.10495
246.16227
246.21087
246.25411
246.30153
246.34774
246.38688
246.42734
246.47246
246.52433
246.57674
246.62819
246.68474
246.74998
246.82067
246.89047
246.95818
247.02825
247.10542
247.18591
247.26523
247.34029
247.41259
247.48326
247.55501
247.6286
247.70226
247.7725
247.83741
247.89701
247.9523
248.00397
248.05294
248.09995
248.14465
248.18519
248.21973
248.24754
248.2688
248.28389
248.29387
248.29984
248.30391
248.30637
248.30732
245.39979
245.50875
245.60354
245.61525
245.61414
245.6016
245.57297
245.54261
245.51915
245.50343
245.4936
245.48762
245.48454
245.48896
245.51118
245.58656
245.77947
246.13009
246.46116
246.01933
245.65392
245.36797
245.29626
245.2305
245.1664
245.15646
245.2179
245.35827
245.52723
245.47793
245.45228
245.45542
245.47981
245.51197
245.55234
245.587
245.63846
245.69993
245.76656
245.83647
245.90393
245.97457
246.04164
246.0983
246.15577
246.20743
246.24835
246.29061
246.33704
246.37782
246.41694
246.45928
246.50964
246.56309
246.61595
246.67124
246.73317
246.80239
246.87377
246.94231
247.00996
247.0835
247.16188
247.24077
247.31558
247.38702
247.45585
247.52431
247.59393
247.66452
247.73306
247.79666
247.85438
247.90698
247.9554
248.00064
248.04357
248.08434
248.12166
248.15369
248.17924
248.19824
248.21088
248.21764
248.22107
248.22069
248.22009
245.39989
245.51041
245.60402
245.61577
245.61435
245.60115
245.57222
245.54193
245.51863
245.50307
245.49336
245.48746
245.48455
245.48941
245.51308
245.59212
245.792
246.146
246.44894
245.99909
245.62632
245.35571
245.28643
245.22596
245.16425
245.1578
245.22612
245.37915
245.50548
245.45948
245.44484
245.45415
245.47941
245.51164
245.54933
245.59063
245.63278
245.69342
245.76222
245.83658
245.90521
245.97304
246.03979
246.09534
246.14697
246.20016
246.24265
246.28091
246.32516
246.36702
246.40674
246.44702
246.49501
246.54858
246.60256
246.65777
246.71765
246.78442
246.85568
246.92565
246.99255
247.06268
247.13787
247.21562
247.29028
247.36092
247.4279
247.49348
247.55942
247.62637
247.6922
247.75393
247.80986
247.86012
247.90541
247.94683
247.98553
248.02221
248.05604