/*--------------------------------*- C++ -*----------------------------------*\
| =========                 |                                                 |
| \\      /  F ield         | OpenFOAM: The Open Source CFD Toolbox           |
|  \\    /   O peration     | Version:  2506                                  |
|   \\  /    A nd           | Website:  www.openfoam.com                      |
|    \\/     M anipulation  |                                                 |
\*---------------------------------------------------------------------------*/
FoamFile
{
    version     2.0;
    format      ascii;
    arch        "LSB;label=32;scalar=64";
    class       volScalarField;
    location    "0.03";
    object      rho;
}
// * * * * * * * * * * * * * * * * * * * * * * * * * * * * * * * * * * * * * //

dimensions      [1 -3 0 0 0 0 0];

internalField   nonuniform List<scalar> 
192657
(
0.66472207
0.66706892
0.66428419
0.66498479
0.66198006
0.66156254
0.66094866
0.6654924
0.66817165
0.66755153
0.66243894
0.66259703
0.66493523
0.66338908
0.66198774
0.66365019
0.66255642
0.66199941
0.6625106
0.66159408
0.66147527
0.66128126
0.66065139
0.66041785
0.65989417
0.6589721
0.65862888
0.65814744
0.65741011
0.65636587
0.65550361
0.65522248
0.65498897
0.65368557
0.65279259
0.65141915
0.65017453
0.64914757
0.64802057
0.64683356
0.64564827
0.64428464
0.64255615
0.64107457
0.63977408
0.63827945
0.636993
0.63547534
0.63387123
0.63216128
0.63036142
0.6284485
0.62642834
0.62439543
0.6222628
0.62012726
0.61794448
0.61566737
0.61347929
0.61136875
0.60928519
0.60728178
0.60528567
0.60335306
0.6015273
0.59976679
0.59803741
0.59641889
0.59488698
0.59341657
0.59200341
0.59071063
0.58949531
0.58837296
0.5873219
0.58633201
0.58540334
0.58456222
0.58377789
0.58303679
0.58235263
0.58171626
0.58111857
0.5805484
0.5800128
0.57950853
0.57903908
0.57860169
0.57819735
0.57781147
0.57743864
0.57707148
0.57672795
0.57641742
0.57611477
0.57582524
0.57555754
0.57530125
0.57506432
0.57484676
0.57464041
0.57445916
0.57422907
0.57256076
0.56576479
0.55999826
0.55695443
0.55521626
0.5542432
0.55374053
0.55352587
0.55348635
0.55355086
0.55368042
0.55385287
0.55405026
0.55425827
0.55446228
0.55465983
0.55484923
0.55502894
0.55519791
0.55535556
0.55550167
0.55563626
0.55575951
0.55587173
0.55597322
0.55606428
0.55614512
0.55621582
0.55627645
0.55632837
0.5563718
0.55640678
0.55643247
0.5564458
0.55644317
0.55642529
0.556396
0.55635785
0.5563123
0.55626276
0.55621537
0.55617775
0.55615442
0.55614363
0.55614038
0.55614042
0.66472572
0.66707898
0.6642901
0.66500225
0.66199407
0.66156865
0.66093066
0.66546017
0.66815655
0.66758492
0.6624651
0.66257928
0.66492825
0.66341206
0.66198156
0.66364547
0.66257077
0.66199694
0.66251304
0.66159832
0.66147645
0.66128721
0.66065673
0.66042667
0.65990589
0.65898426
0.65864199
0.65816142
0.65742604
0.65638329
0.65551701
0.6552377
0.65501337
0.65371922
0.65282287
0.65145215
0.65020795
0.64918295
0.64805208
0.64686471
0.64568803
0.64432433
0.64259875
0.64111511
0.63981672
0.63831937
0.63703402
0.63551123
0.63390973
0.63220548
0.63040293
0.62848777
0.62646381
0.62442198
0.62228305
0.6201358
0.61793671
0.61565253
0.61345318
0.61132584
0.60922517
0.60720364
0.6051922
0.6032402
0.60139299
0.59961009
0.5978588
0.59621478
0.5946576
0.59316375
0.59172861
0.59041715
0.58918357
0.58805425
0.58699124
0.5859806
0.58503353
0.5841762
0.58337781
0.58262663
0.58193505
0.58129656
0.58068891
0.58011059
0.57957043
0.57906991
0.57860151
0.57816063
0.57774733
0.5773532
0.57699425
0.57665923
0.57633676
0.57602675
0.57573635
0.57546803
0.57521851
0.57499245
0.57478714
0.57459697
0.57443072
0.57423497
0.57384136
0.57148446
0.56417779
0.55874591
0.55601183
0.55438532
0.55334669
0.55266404
0.55220864
0.55190601
0.55170991
0.55159091
0.55152885
0.55150822
0.55151884
0.55155219
0.55160093
0.55165789
0.55171816
0.55177946
0.5518404
0.55189993
0.55195722
0.55201171
0.55206299
0.55211082
0.55215505
0.55219563
0.55223253
0.55226581
0.55229553
0.55232182
0.55234484
0.55236482
0.55238207
0.55239694
0.55240982
0.55242104
0.55243091
0.55243983
0.55244843
0.55245662
0.55246371
0.5524688
0.55247166
0.5524729
0.5524733
0.66472543
0.66709022
0.6642953
0.6650217
0.66200826
0.66157493
0.66091226
0.66542741
0.66814124
0.667619
0.66249149
0.66256085
0.6649211
0.66343546
0.66197497
0.66364064
0.66258536
0.66199457
0.66251537
0.66160215
0.66147814
0.66129363
0.66066107
0.66043682
0.65991643
0.65899755
0.65865552
0.65817699
0.65744442
0.65640223
0.65553124
0.65525403
0.65503982
0.65375586
0.65285687
0.65148847
0.65024297
0.6492176
0.64808322
0.6468976
0.64572993
0.64436574
0.64264255
0.64115589
0.63986015
0.63836043
0.63707687
0.63554879
0.6339498
0.63225092
0.63044479
0.62852687
0.62649825
0.62444867
0.62230316
0.62014773
0.61793786
0.61564064
0.61343014
0.61128461
0.60916523
0.60712191
0.60509525
0.60312486
0.60125765
0.59945312
0.59768056
0.59600631
0.59442178
0.59290572
0.59145298
0.5901237
0.58887731
0.58773641
0.58665202
0.58561928
0.58466005
0.58379041
0.58298057
0.58221985
0.58151925
0.58086966
0.58025841
0.57967594
0.57913365
0.57862689
0.57815877
0.57772872
0.57733345
0.57695928
0.5766034
0.57625771
0.57594666
0.57567048
0.57540291
0.57515408
0.57493291
0.57473066
0.57455429
0.57440025
0.57425628
0.57411788
0.57381264
0.57177069
0.5644897
0.5589105
0.55620269
0.55466304
0.55375598
0.55322028
0.55291628
0.55276121
0.55270037
0.55270185
0.55274359
0.55281047
0.55289158
0.55297993
0.55307131
0.5531645
0.55325869
0.55335198
0.55344271
0.55352974
0.55361235
0.55369011
0.5537628
0.55383033
0.55389271
0.55394999
0.55400227
0.55404963
0.55409217
0.55412991
0.5541629
0.55419114
0.55421459
0.55423323
0.55424706
0.55425625
0.55426126
0.55426267
0.55426098
0.55425744
0.55425367
0.55425095
0.55424958
0.55424918
0.55424923
0.66472178
0.66710289
0.66429948
0.66504226
0.66202262
0.66158136
0.66089374
0.66539393
0.66812564
0.66765335
0.66251848
0.66254204
0.66491347
0.66345937
0.6619682
0.66363551
0.66260016
0.66199175
0.66251733
0.66160609
0.66147872
0.66129932
0.66066635
0.66044492
0.65992756
0.65900925
0.65866829
0.6581903
0.65746046
0.65641936
0.65554422
0.655268
0.65506401
0.65378964
0.65288683
0.65152152
0.65027572
0.64925321
0.64811508
0.64692794
0.64576876
0.64440557
0.64268587
0.64119761
0.63990489
0.63840362
0.63712073
0.63558695
0.63399044
0.63229625
0.63048741
0.62856718
0.62653437
0.62447678
0.62232415
0.62015925
0.61793655
0.61562768
0.61340632
0.61124405
0.60910697
0.60704594
0.6050051
0.60301528
0.60112656
0.59929791
0.59750223
0.59580132
0.59419184
0.592653
0.59118047
0.58983199
0.5885677
0.58741801
0.58631797
0.58526427
0.58428735
0.58339997
0.58257642
0.58180846
0.58110268
0.58045026
0.57982994
0.57924286
0.57869791
0.5781955
0.57773021
0.57730077
0.57690233
0.57652938
0.57619539
0.57588601
0.57559097
0.57531088
0.57505875
0.57483355
0.57462913
0.57445375
0.57430344
0.57417117
0.57406589
0.57394189
0.57364941
0.57169265
0.564715
0.55884927
0.55601802
0.55440035
0.55341408
0.55280272
0.55243025
0.55221474
0.55210085
0.55205112
0.55204736
0.55207674
0.55212918
0.55219883
0.55228086
0.5523701
0.55246189
0.55255285
0.55264108
0.55272564
0.55280605
0.55288201
0.55295335
0.55302
0.55308198
0.55313939
0.5531924
0.55324118
0.55328595
0.55332691
0.55336428
0.55339831
0.55342923
0.55345726
0.55348258
0.55350533
0.55352554
0.55354305
0.55355748
0.55356837
0.55357565
0.55357978
0.55358175
0.55358254
0.55358279
0.6647153
0.6671175
0.66430373
0.66506285
0.66203751
0.66158818
0.66087459
0.66535901
0.66810934
0.66768891
0.66254681
0.66252232
0.66490531
0.66348415
0.66196109
0.66363004
0.66261556
0.6619892
0.66251933
0.66160988
0.66148013
0.66130587
0.66067041
0.66045485
0.65993768
0.65902236
0.65868183
0.65820594
0.65747936
0.65643877
0.65555855
0.65528331
0.65509041
0.65382699
0.6529212
0.65155901
0.65031094
0.64928861
0.64814723
0.64696105
0.64581056
0.6444481
0.64273159
0.64124036
0.63995084
0.63844852
0.63716696
0.6356276
0.63403381
0.63234422
0.63053211
0.62860938
0.62657196
0.62450794
0.62234911
0.62017595
0.61794216
0.61562103
0.61338909
0.6112096
0.60905358
0.60697065
0.60491544
0.60290721
0.60099866
0.5991465
0.5973288
0.59559626
0.59395918
0.59239871
0.59091083
0.58954579
0.58827025
0.58710564
0.58598006
0.58490257
0.5839133
0.5830158
0.58218372
0.58140471
0.58068742
0.58002474
0.57940086
0.57880896
0.57826307
0.57775842
0.57729822
0.57688076
0.57649705
0.57613826
0.57580181
0.57548177
0.57520436
0.57496119
0.57472717
0.57451395
0.57432869
0.5741665
0.57403278
0.57392072
0.57381965
0.57372384
0.57347659
0.57175551
0.56501669
0.55886194
0.55597378
0.55429906
0.55327109
0.55263492
0.55224875
0.55202827
0.55192301
0.55189699
0.55191973
0.5519734
0.55204766
0.55213481
0.55222843
0.552324
0.55241973
0.55251457
0.55260723
0.5526969
0.55278295
0.55286489
0.55294234
0.55301506
0.55308297
0.55314615
0.55320472
0.5532588
0.55330849
0.5533539
0.55339512
0.55343222
0.55346526
0.55349428
0.55351932
0.55354045
0.55355785
0.55357179
0.55358259
0.55359054
0.55359596
0.55359928
0.55360106
0.55360187
0.55360212
0.66470793
0.66713286
0.66430844
0.66508177
0.66205272
0.66159528
0.66085538
0.66532331
0.66809257
0.66772474
0.66257619
0.66250221
0.66489666
0.66350942
0.66195377
0.66362421
0.66263119
0.66198629
0.66252107
0.66161396
0.66148042
0.66131182
0.66067567
0.66046276
0.6599485
0.65903429
0.65869477
0.65821913
0.65749611
0.65645645
0.65557186
0.65529635
0.65511491
0.65386164
0.6529515
0.65159317
0.65034387
0.64932499
0.64818044
0.6469919
0.6458492
0.64448903
0.64277678
0.64128402
0.63999825
0.63849563
0.63721407
0.63566894
0.63407774
0.63239202
0.63057739
0.62865249
0.62661096
0.62454023
0.6223744
0.62019318
0.61794488
0.61561354
0.61337106
0.61117525
0.60900116
0.6069001
0.60483135
0.60280378
0.60087377
0.5989961
0.5971545
0.59539493
0.59373352
0.59215098
0.59064533
0.58926015
0.58796617
0.58678902
0.58564353
0.58454566
0.58354061
0.58262465
0.58177824
0.5809927
0.58027055
0.57960244
0.57896855
0.57837352
0.57782451
0.57732129
0.5768611
0.57644325
0.5760583
0.5757051
0.57539059
0.57509975
0.57482544
0.57456793
0.57434273
0.57414434
0.57396686
0.57381985
0.57369714
0.57359299
0.57351563
0.57341893
0.57318225
0.57163465
0.56546553
0.55890659
0.55583417
0.55407351
0.55300412
0.55234713
0.55194654
0.55171142
0.55158886
0.5515436
0.55155125
0.551595
0.5516621
0.55174189
0.55182828
0.55191848
0.55201002
0.55210112
0.55219069
0.55227735
0.55236056
0.55243979
0.55251476
0.55258528
0.55265139
0.55271333
0.55277116
0.55282503
0.55287506
0.55292143
0.55296436
0.55300406
0.55304074
0.55307456
0.55310561
0.55313394
0.55315947
0.55318202
0.55320126
0.55321675
0.55322786
0.55323464
0.55323807
0.55323947
0.55323987
0.66470083
0.66714796
0.66431222
0.66509812
0.66206856
0.66160289
0.66083556
0.66528583
0.66807479
0.66776183
0.66260733
0.66248126
0.66488744
0.66353566
0.66194612
0.66361787
0.6626475
0.66198377
0.66252289
0.66161792
0.66148165
0.66131877
0.66067975
0.66047261
0.65995842
0.65904735
0.65870853
0.65823491
0.65751577
0.65647671
0.65558655
0.65531082
0.65514159
0.65389992
0.65298651
0.65163206
0.65037979
0.64936141
0.64821435
0.64702606
0.64589116
0.64453263
0.64282443
0.64132894
0.64004684
0.63854465
0.63726373
0.63571328
0.63412514
0.63244317
0.63062544
0.6286982
0.62665229
0.62457638
0.6224049
0.6202157
0.61795614
0.61561483
0.61336062
0.61114782
0.60895552
0.60683202
0.60474894
0.60270269
0.60075288
0.59885031
0.59698611
0.5951944
0.59350582
0.59190215
0.59038238
0.58898084
0.58767533
0.58647868
0.58530503
0.58418333
0.58316522
0.58224001
0.58138585
0.58058604
0.5798489
0.57917034
0.57853197
0.5779302
0.57737929
0.57687475
0.57641971
0.57600988
0.57563076
0.57527997
0.5749545
0.5746511
0.57439322
0.57416736
0.57395137
0.57375565
0.57358479
0.57343892
0.57332127
0.5732237
0.57313721
0.57305766
0.57286107
0.57154304
0.5656969
0.55883032
0.55560783
0.55377067
0.55264976
0.55195766
0.55153503
0.55128725
0.55115493
0.55110001
0.55109756
0.55113107
0.55118928
0.55126431
0.55135033
0.55144281
0.5515383
0.55163418
0.55172851
0.55182008
0.55190775
0.55199111
0.55207011
0.55214493
0.55221576
0.55228269
0.55234581
0.55240505
0.5524604
0.55251185
0.55255955
0.55260371
0.55264442
0.55268173
0.55271565
0.55274617
0.55277328
0.55279688
0.55281678
0.55283265
0.5528441
0.55285121
0.55285489
0.5528564
0.5528568
0.66469413
0.66715823
0.66431327
0.66511082
0.66208475
0.66161079
0.66081574
0.66524728
0.66805656
0.66779922
0.66263944
0.66246013
0.66487789
0.6635623
0.66193829
0.66361106
0.66266406
0.66198088
0.66252439
0.66162228
0.66148181
0.66132514
0.66068528
0.66048051
0.65996912
0.65905968
0.65872167
0.65824811
0.65753349
0.65649522
0.65560038
0.65532299
0.65516662
0.65393556
0.6530175
0.65166768
0.65041352
0.64939865
0.64824966
0.64705823
0.64592982
0.64457451
0.64287145
0.64137487
0.64009699
0.63859591
0.63731409
0.63575833
0.63417318
0.63249432
0.6306742
0.62874491
0.62669527
0.62461385
0.62243587
0.62023916
0.61796642
0.61561367
0.61334936
0.61112056
0.60891075
0.60676857
0.60467156
0.60260602
0.60063487
0.59870592
0.59681715
0.59499874
0.59328675
0.59166156
0.59012508
0.58870191
0.58737641
0.58616225
0.5849647
0.5838239
0.58279219
0.58184783
0.58097758
0.58016999
0.57942645
0.57873845
0.57808785
0.57748281
0.57692652
0.5764178
0.57595674
0.5755426
0.57516192
0.57481781
0.57451006
0.57422366
0.5739551
0.57370538
0.57348875
0.5732976
0.57312821
0.57298819
0.57286984
0.57277051
0.57269745
0.57260984
0.57242116
0.57130009
0.56615386
0.55896293
0.55544359
0.55347242
0.55228096
0.55154777
0.55109758
0.55082928
0.55068148
0.55061515
0.55060419
0.55063132
0.55068421
0.55075422
0.55083518
0.55092269
0.55101362
0.55110569
0.55119728
0.55128719
0.55137456
0.5514587
0.55153912
0.55161547
0.5516875
0.55175494
0.55181797
0.551877
0.55193237
0.55198443
0.55203335
0.55207923
0.55212217
0.5521622
0.55219928
0.55223331
0.5522641
0.5522914
0.55231481
0.55233371
0.55234745
0.55235598
0.55236035
0.55236213
0.5523626
0.66468633
0.66716274
0.66431253
0.66512108
0.66210165
0.66161922
0.6607954
0.66520669
0.66803728
0.66783777
0.66267339
0.66243845
0.66486779
0.66358992
0.66193026
0.66360364
0.66268137
0.66197841
0.66252598
0.6616264
0.66148297
0.66133261
0.66068958
0.66049031
0.65997891
0.65907286
0.65873553
0.65826418
0.65755414
0.65651655
0.65561561
0.6553367
0.65519369
0.65397482
0.65305348
0.65170817
0.65045074
0.64943631
0.64828597
0.64709395
0.64597187
0.64461878
0.64292068
0.64142215
0.64014843
0.63864899
0.63736708
0.63580687
0.63422529
0.63254936
0.63072631
0.62879469
0.62674108
0.62465554
0.62247264
0.62026871
0.61798451
0.61562247
0.61334528
0.61110099
0.60887378
0.60670923
0.60459678
0.6025122
0.60052119
0.59856643
0.59665442
0.59480419
0.59306602
0.59141989
0.58986911
0.58842853
0.58708936
0.58585093
0.58462458
0.58346119
0.58241497
0.58146038
0.58058069
0.57975465
0.57899266
0.57829336
0.57763661
0.57702206
0.57646118
0.57594982
0.57549081
0.57507819
0.57469235
0.5743374
0.57401088
0.57371133
0.57345524
0.57322847
0.57301385
0.57281813
0.57264421
0.57249755
0.57237727
0.5722757
0.57218737
0.57211062
0.57195459
0.57102452
0.5662739
0.5589062
0.55510571
0.55302221
0.55176504
0.55098825
0.55050841
0.55021968
0.55005735
0.5499802
0.54996071
0.54998104
0.55002856
0.55009444
0.55017234
0.55025768
0.55034709
0.55043813
0.550529
0.55061846
0.55070559
0.55078982
0.55087076
0.55094817
0.55102195
0.55109204
0.55115845
0.5512212
0.55128033
0.55133587
0.5513879
0.55143649
0.55148172
0.55152371
0.55156256
0.55159832
0.55163096
0.55166023
0.55168567
0.55170651
0.5517219
0.55173158
0.5517366
0.55173863
0.55173913
0.66467707
0.667165
0.66431129
0.66513198
0.66211897
0.66162792
0.66077506
0.66516495
0.66801765
0.6678766
0.66270859
0.6624166
0.66485748
0.66361782
0.66192219
0.66359572
0.66269897
0.66197556
0.66252716
0.66163102
0.66148309
0.66133949
0.66069556
0.6604982
0.65998964
0.65908574
0.65874874
0.6582775
0.65757296
0.65653604
0.65563012
0.65534813
0.65521926
0.65401144
0.65308564
0.65174553
0.65048587
0.64947468
0.64832382
0.64712784
0.64601036
0.64466129
0.64296913
0.64147049
0.64020141
0.63870439
0.63742056
0.63585614
0.634278
0.63260452
0.63077934
0.62884568
0.62678879
0.62469864
0.62250999
0.62029928
0.61800397
0.61562775
0.61334061
0.61108175
0.60883707
0.60665427
0.60452636
0.60242239
0.60041022
0.59842884
0.59649164
0.5946156
0.59285499
0.59118757
0.58961979
0.58815551
0.58679409
0.58553318
0.58427986
0.5830988
0.58204051
0.58106566
0.58016724
0.57933086
0.57855955
0.57784636
0.57717445
0.57655439
0.57598454
0.57546244
0.5749909
0.57456915
0.57418082
0.57383259
0.57351721
0.57322114
0.5729441
0.57268799
0.57246302
0.57226299
0.57208755
0.57193957
0.57181115
0.57170289
0.57162082
0.57153143
0.571376
0.57062607
0.56664196
0.55915313
0.5549142
0.55266367
0.55131366
0.55047874
0.54995994
0.54964365
0.54946094
0.54936819
0.54933647
0.54934687
0.54938623
0.54944531
0.54951755
0.54959821
0.54968383
0.54977187
0.54986047
0.54994825
0.55003423
0.55011772
0.55019824
0.55027549
0.55034931
0.55041963
0.55048645
0.55054984
0.55060987
0.55066662
0.55072019
0.55077068
0.55081815
0.55086264
0.55090411
0.55094247
0.55097758
0.55100913
0.55103663
0.55105924
0.55107598
0.55108651
0.55109197
0.5510942
0.55109475
0.66466576
0.66716848
0.66431073
0.665148
0.66213717
0.66163721
0.66075426
0.66512102
0.66799683
0.66791653
0.66274614
0.66239404
0.66484652
0.66364673
0.66191404
0.6635871
0.66271738
0.66197311
0.66252847
0.66163529
0.66148422
0.66134758
0.66070013
0.660508
0.6599994
0.6590991
0.65876267
0.65829389
0.6575947
0.65655853
0.65564618
0.65536136
0.65524672
0.65405172
0.65312308
0.6517879
0.650525
0.649514
0.64836277
0.64716543
0.64605216
0.64470598
0.64301951
0.64152033
0.64025583
0.63876201
0.63747673
0.63590935
0.63433527
0.63266392
0.63083609
0.62890017
0.62683965
0.62474612
0.62255347
0.62033634
0.61802995
0.61564316
0.61334527
0.61107096
0.60880894
0.60660501
0.60445956
0.60233569
0.60030348
0.59829604
0.59633512
0.59442819
0.59264263
0.59095412
0.58937038
0.58788651
0.58650803
0.58521882
0.58393793
0.58273621
0.58166085
0.5806729
0.57976139
0.57890245
0.57811008
0.57738448
0.57670398
0.57607088
0.57549246
0.57496506
0.57449137
0.57406351
0.57365948
0.57328886
0.57294965
0.57264145
0.57237222
0.57212991
0.57190347
0.57169393
0.57150426
0.57134512
0.5712106
0.57109418
0.5709932
0.57091064
0.57077861
0.57016075
0.56659233
0.55918167
0.55451876
0.55212607
0.55069426
0.54980568
0.54925098
0.54891021
0.54871034
0.54860509
0.54856395
0.54856685
0.54860017
0.54865431
0.54872249
0.54879984
0.54888284
0.54896888
0.54905604
0.54914293
0.54922851
0.54931203
0.54939299
0.54947103
0.54954595
0.54961762
0.549686
0.54975113
0.54981303
0.54987176
0.5499274
0.54998003
0.55002973
0.55007651
0.55012035
0.55016117
0.55019879
0.55023288
0.55026283
0.55028766
0.55030616
0.55031787
0.55032394
0.5503264
0.55032698
0.66465804
0.66718059
0.66431057
0.66517189
0.66215602
0.66164681
0.66073349
0.6650758
0.66797564
0.66795664
0.66278517
0.66237101
0.66483528
0.66367582
0.66190595
0.66357803
0.66273603
0.66197023
0.66252927
0.66164013
0.66148433
0.661355
0.66070667
0.66051595
0.66001016
0.65911256
0.65877599
0.6583073
0.65761477
0.65657906
0.65566169
0.65537241
0.6552729
0.65408942
0.653157
0.65182736
0.65056206
0.6495537
0.64840312
0.64720152
0.6460902
0.64474901
0.64306906
0.64157126
0.64031166
0.63882151
0.63753336
0.63596309
0.63439306
0.63272347
0.63089387
0.62895612
0.62689268
0.62479511
0.6225976
0.62037426
0.61805738
0.61565598
0.61334772
0.61106008
0.60878053
0.60655943
0.60439642
0.60225239
0.60019895
0.59816549
0.59617906
0.59424755
0.59244035
0.59073041
0.58912796
0.5876179
0.5862149
0.5848992
0.58358944
0.58237122
0.5812838
0.58027395
0.5793408
0.57846836
0.57766301
0.57691925
0.57622031
0.57557764
0.57498579
0.57444138
0.57394967
0.57350861
0.57310108
0.57273658
0.57240106
0.57208397
0.57178802
0.57151491
0.57126938
0.57104973
0.57085829
0.5706915
0.57054394
0.57041784
0.57031748
0.57021738
0.57008018
0.56961034
0.56678758
0.55954759
0.55432394
0.5517274
0.55017637
0.54921084
0.54860497
0.54822892
0.54800376
0.54787968
0.54782417
0.54781542
0.54783924
0.54788544
0.54794691
0.54801858
0.54809675
0.54817875
0.54826257
0.54834675
0.5484302
0.54851212
0.54859194
0.54866926
0.54874383
0.54881546
0.54888409
0.5489497
0.54901227
0.54907184
0.54912846
0.54918217
0.54923303
0.54928104
0.54932617
0.54936831
0.5494073
0.54944278
0.5494741
0.54950022
0.54951982
0.5495323
0.5495388
0.54954143
0.54954208
0.66465381
0.66720225
0.66431226
0.66520259
0.66217597
0.66165713
0.66071238
0.66502823
0.66795298
0.66799771
0.66282689
0.66234726
0.66482311
0.66370591
0.6618979
0.66356819
0.6627555
0.66196776
0.66253022
0.66164454
0.66148536
0.66136372
0.66071165
0.6605258
0.6600199
0.65912608
0.65879013
0.65832397
0.65763765
0.65660275
0.65567893
0.6553859
0.655301
0.65413084
0.65319642
0.65187191
0.65060358
0.64959488
0.6484445
0.64724135
0.64613154
0.64479403
0.64312045
0.64162387
0.64036912
0.63888342
0.63759249
0.63602098
0.63445576
0.6327875
0.63095551
0.62901589
0.62694907
0.62484855
0.62264804
0.62041871
0.61809195
0.61567922
0.61336063
0.61105741
0.60876129
0.60652067
0.60433793
0.60217234
0.60009818
0.59803931
0.5960289
0.59406786
0.59223687
0.5905053
0.58888402
0.5873515
0.58592771
0.58458105
0.58324624
0.58200935
0.58090116
0.57987391
0.57892298
0.57802485
0.57719717
0.5764396
0.57572903
0.57506971
0.5744648
0.57391129
0.57341252
0.57295764
0.57252583
0.57213008
0.57176909
0.57144175
0.57114854
0.57088129
0.57063433
0.57040176
0.57018852
0.57000913
0.56985308
0.56971538
0.56959451
0.56949913
0.56937559
0.56897319
0.56651564
0.55966255
0.55393318
0.55115061
0.54949211
0.54845804
0.54780771
0.54740205
0.54715651
0.54701787
0.54695166
0.54693446
0.54695152
0.54699213
0.54704888
0.54711653
0.54719131
0.54727046
0.54735196
0.54743433
0.54751645
0.54759749
0.54767686
0.54775412
0.54782899
0.54790126
0.54797082
0.54803762
0.54810163
0.54816284
0.54822129
0.548277
0.54833001
0.5483803
0.54842782
0.54847244
0.54851393
0.5485519
0.54858559
0.54861382
0.54863509
0.54864867
0.54865575
0.54865861
0.54865929
0.66465677
0.66722794
0.66431732
0.66523447
0.66219669
0.6616679
0.66069132
0.66497922
0.66792988
0.66803913
0.66287016
0.66232308
0.66481047
0.66373621
0.66189002
0.6635579
0.66277509
0.66196488
0.6625306
0.66164952
0.66148547
0.66137145
0.66071872
0.66053394
0.66003102
0.65914003
0.65880362
0.65833748
0.65765911
0.65662411
0.65569563
0.65539696
0.65532789
0.65416974
0.65323253
0.6519137
0.65064293
0.6496358
0.64848712
0.64727993
0.64616921
0.64483747
0.64317106
0.64167761
0.64042786
0.63894677
0.63765222
0.63607909
0.63451882
0.63285163
0.63101821
0.62907729
0.62700779
0.62490355
0.62269909
0.62046385
0.61812744
0.6157023
0.61337041
0.61105405
0.60874087
0.6064842
0.60428217
0.60209505
0.59999914
0.59791574
0.59587975
0.59389531
0.59204299
0.59028948
0.58864666
0.58708545
0.58563543
0.58425984
0.58289548
0.58164258
0.58052075
0.57946949
0.57849429
0.5775795
0.5767349
0.57595535
0.57522316
0.57454953
0.57392689
0.57335124
0.57282988
0.57235895
0.57192259
0.57153097
0.57116578
0.57081969
0.57049754
0.57020025
0.56992713
0.56968186
0.56946816
0.56927612
0.56910526
0.56895746
0.56883434
0.56871604
0.56858719
0.56829636
0.56647974
0.56009104
0.55379095
0.55073678
0.54892552
0.54779535
0.54708216
0.54663374
0.54635811
0.54619758
0.54611496
0.54608497
0.54609171
0.54612376
0.54617323
0.54623459
0.54630389
0.54637826
0.54645561
0.54653441
0.54661349
0.546692
0.54676932
0.54684497
0.54691862
0.54699004
0.54705906
0.54712561
0.54718961
0.54725103
0.54730985
0.54736609
0.54741975
0.5474708
0.54751916
0.54756468
0.54760714
0.54764613
0.54768087
0.54771016
0.54773237
0.54774665
0.54775413
0.54775716
0.5477579
0.66466036
0.66725333
0.6643242
0.66526236
0.6622185
0.66167958
0.66067005
0.66492768
0.66790503
0.66808136
0.66291627
0.66229851
0.66479669
0.66376763
0.66188237
0.66354672
0.66279547
0.66196241
0.66253124
0.66165407
0.66148634
0.66138064
0.66072411
0.66054376
0.66004106
0.65915363
0.65881807
0.65835454
0.65768321
0.65664943
0.65571418
0.65541086
0.65535652
0.65421241
0.65327415
0.65196052
0.65068708
0.64967863
0.64853094
0.64732203
0.64621037
0.64488278
0.64322351
0.64173328
0.64048847
0.63901264
0.63771491
0.6361415
0.6345869
0.63292037
0.63108486
0.6291427
0.62706995
0.62496294
0.62275638
0.62051542
0.61817017
0.6157336
0.61338949
0.61106008
0.60872972
0.60645521
0.60423182
0.60202119
0.59990338
0.59779583
0.59573578
0.59372305
0.59184765
0.59007167
0.58840658
0.58682
0.58534577
0.58393814
0.58255193
0.58128177
0.58013496
0.57906135
0.57806353
0.57712132
0.57625449
0.57545931
0.57471222
0.57401904
0.57337921
0.57279012
0.57225627
0.57176398
0.57129718
0.57086871
0.57047864
0.57012359
0.56979836
0.56950063
0.56922762
0.56896616
0.56872542
0.56852181
0.56834114
0.56818002
0.56803628
0.56792112
0.56779507
0.56751334
0.5659562
0.56022108
0.55348246
0.55015327
0.54820165
0.54698652
0.54621899
0.54573442
0.54543406
0.54525618
0.54516101
0.54512175
0.54512116
0.54514724
0.54519168
0.54524866
0.54531411
0.54538508
0.54545944
0.54553565
0.54561256
0.5456893
0.54576525
0.54583993
0.54591301
0.54598422
0.54605339
0.54612042
0.5461852
0.54624767
0.5463078
0.54636556
0.54642095
0.54647388
0.54652425
0.54657189
0.54661651
0.54665765
0.54669447
0.54672564
0.54674936
0.54676465
0.54677267
0.54677592
0.5467767
0.66465629
0.66726934
0.66432931
0.66528243
0.66224083
0.66169174
0.66064895
0.66487455
0.66787967
0.66812398
0.66296399
0.66227389
0.66478254
0.66379936
0.66187486
0.66353512
0.66281593
0.66195949
0.66253124
0.66165914
0.66148641
0.66138864
0.66073166
0.66055227
0.66005277
0.65916791
0.65883165
0.65836828
0.65770622
0.65667286
0.6557323
0.65542226
0.65538371
0.65425254
0.65331246
0.65200464
0.65072878
0.64972032
0.64857609
0.64736315
0.64624827
0.64492662
0.64327513
0.64179004
0.64055018
0.63907954
0.63777792
0.63620385
0.63465499
0.63298899
0.63115249
0.62920973
0.62713448
0.62502392
0.62281417
0.62056742
0.61821327
0.61576445
0.61340595
0.6110635
0.6087166
0.60642704
0.60418308
0.60194979
0.59980901
0.59767861
0.59559303
0.59355786
0.5916608
0.5898621
0.58817224
0.58655487
0.58505338
0.58361609
0.58220082
0.58091403
0.57975067
0.57865093
0.57762688
0.57666516
0.57577753
0.57495731
0.57418608
0.5734743
0.57281334
0.57219882
0.5716393
0.5711294
0.57065624
0.57022822
0.56982596
0.56944515
0.56909073
0.56876318
0.56845857
0.56818412
0.56794354
0.56772276
0.56752643
0.56735461
0.56720619
0.56706412
0.56693513
0.56673962
0.56567365
0.56059807
0.55346359
0.54974196
0.5476035
0.54627498
0.54543284
0.54489712
0.5445609
0.54435743
0.54424359
0.54419054
0.5441791
0.54419648
0.54423364
0.54428433
0.54434418
0.54441012
0.54447993
0.54455201
0.54462519
0.5446986
0.54477161
0.54484374
0.54491463
0.54498401
0.54505169
0.54511753
0.5451814
0.54524321
0.5453029
0.54536042
0.54541571
0.5454687
0.54551926
0.5455672
0.54561224
0.54565393
0.54569141
0.54572332
0.54574781
0.54576372
0.54577213
0.54577556
0.5457764
0.66464316
0.66727736
0.66433293
0.66529554
0.66226395
0.66170486
0.66062785
0.66481872
0.66785231
0.66816727
0.66301485
0.66224969
0.66476733
0.66383218
0.66186788
0.66352264
0.66283718
0.66195702
0.66253155
0.66166383
0.661487
0.66139818
0.66073759
0.66056229
0.66006332
0.65918166
0.65884646
0.65838594
0.65773162
0.65670036
0.65575265
0.65543655
0.65541272
0.65429647
0.65335614
0.65205363
0.65077555
0.64976432
0.64862277
0.64740768
0.64628987
0.64497243
0.64332852
0.64184896
0.64061398
0.63914917
0.63784419
0.63627074
0.63472801
0.63306221
0.63122412
0.62928083
0.62720243
0.62508919
0.62287805
0.62062556
0.61826352
0.61580396
0.61343267
0.6110785
0.60871292
0.60640673
0.60414033
0.60188218
0.59971732
0.59756387
0.59545416
0.59339201
0.59147206
0.5896498
0.58793435
0.58628925
0.58476077
0.58329165
0.58185774
0.58055393
0.57936137
0.57823473
0.57718405
0.5761948
0.57528611
0.57444813
0.57365897
0.57292581
0.57224445
0.57161236
0.57103546
0.57049787
0.56999054
0.56952363
0.56909774
0.56870769
0.5683443
0.56801142
0.56770711
0.56741236
0.56714116
0.56690993
0.5667014
0.56651416
0.56634521
0.56620636
0.56606854
0.56584046
0.56490975
0.56062361
0.55330762
0.54917217
0.54686271
0.54543321
0.54452485
0.54394427
0.54357727
0.54335251
0.54322378
0.54316027
0.54314101
0.54315241
0.54318473
0.5432313
0.54328748
0.54335004
0.54341672
0.54348589
0.54355641
0.54362742
0.54369831
0.54376861
0.543838
0.5439062
0.54397301
0.5440383
0.54410193
0.54416379
0.54422381
0.54428191
0.54433801
0.54439201
0.54444376
0.54449303
0.54453951
0.54458268
0.54462165
0.54465493
0.54468056
0.54469723
0.54470606
0.54470967
0.54471057
0.66462389
0.66728367
0.66433895
0.6653055
0.66228743
0.66171839
0.660607
0.66476114
0.66782441
0.66821096
0.66306747
0.66222584
0.66475192
0.66386516
0.66186115
0.66350977
0.66285846
0.66195417
0.66253114
0.6616689
0.66148699
0.6614064
0.6607456
0.66057141
0.66007567
0.65919638
0.65886005
0.65840021
0.65775614
0.65672635
0.65577235
0.65544822
0.65544021
0.65433772
0.65339636
0.65210004
0.65081949
0.64980635
0.64867081
0.64745198
0.6463285
0.64501706
0.64338084
0.64190875
0.64067855
0.63921959
0.63791065
0.63633693
0.63480064
0.63313501
0.63129646
0.62935338
0.62727265
0.62515614
0.62294237
0.62068386
0.61831371
0.61584215
0.61345757
0.61108846
0.60870651
0.60638555
0.60409808
0.60181692
0.59962682
0.59745181
0.59531679
0.59323299
0.59129048
0.58944438
0.58770091
0.58602369
0.58446755
0.58296931
0.5815076
0.58018547
0.57897237
0.57781782
0.57674011
0.57572907
0.57479611
0.57393136
0.57311677
0.57236177
0.57165714
0.57099845
0.57039514
0.56984022
0.56932412
0.56885289
0.5684081
0.56798825
0.56759658
0.56723248
0.56689248
0.56658577
0.56631315
0.56606018
0.56583525
0.56563572
0.56545887
0.56529007
0.56515266
0.56499708
0.56441003
0.56081488
0.55345573
0.54878239
0.5462573
0.54469676
0.54370006
0.54305843
0.54264875
0.5423939
0.54224376
0.54216501
0.54213434
0.54213717
0.54216273
0.54220368
0.54225495
0.54231305
0.54237554
0.54244071
0.54250738
0.5425747
0.54264207
0.54270906
0.54277535
0.54284071
0.54290495
0.54296794
0.54302955
0.54308967
0.54314819
0.54320505
0.54326014
0.54331334