/*--------------------------------*- C++ -*----------------------------------*\
| =========                 |                                                 |
| \\      /  F ield         | OpenFOAM: The Open Source CFD Toolbox           |
|  \\    /   O peration     | Version:  2506                                  |
|   \\  /    A nd           | Website:  www.openfoam.com                      |
|    \\/     M anipulation  |                                                 |
\*---------------------------------------------------------------------------*/
FoamFile
{
    version     2.0;
    format      ascii;
    arch        "LSB;label=32;scalar=64";
    class       volScalarField;
    location    "0.0015";
    object      nut;
}
// * * * * * * * * * * * * * * * * * * * * * * * * * * * * * * * * * * * * * //

dimensions      [0 2 -1 0 0 0 0];

internalField   nonuniform List<scalar> 
192657
(
1.3100061e-05
1.0325069e-05
1.0325348e-05
1.0325336e-05
1.0325335e-05
1.0325335e-05
1.0325335e-05
1.0325335e-05
1.0325335e-05
1.0325335e-05
1.0325335e-05
1.0325335e-05
1.0325335e-05
1.0325335e-05
1.0325335e-05
1.0325335e-05
1.0325335e-05
1.0325335e-05
1.0325335e-05
1.0325335e-05
1.0325335e-05
1.0325335e-05
1.0325335e-05
1.0325335e-05
1.0325335e-05
1.0325335e-05
1.0325335e-05
1.0325335e-05
1.0325335e-05
1.0325336e-05
1.0325336e-05
1.0325336e-05
1.0325336e-05
1.0325336e-05
1.0325337e-05
1.0325409e-05
1.0326199e-05
1.0330334e-05
1.0345e-05
1.0383991e-05
1.0458234e-05
1.0535253e-05
1.0544098e-05
1.046002e-05
1.038022e-05
1.0393823e-05
1.0419341e-05
1.0364118e-05
1.0330689e-05
1.0358265e-05
1.034646e-05
1.0314784e-05
1.0264402e-05
1.0131439e-05
9.9830253e-06
9.9283974e-06
1.0029535e-05
1.0138905e-05
1.0096327e-05
1.0044832e-05
1.0135773e-05
1.0196725e-05
1.0169531e-05
1.0207773e-05
1.0264409e-05
1.0283399e-05
1.0327034e-05
1.0368488e-05
1.0397497e-05
1.0433913e-05
1.0465105e-05
1.0504913e-05
1.0562028e-05
1.0608395e-05
1.0643969e-05
1.0680645e-05
1.0652609e-05
1.0442651e-05
1.0194484e-05
1.0150954e-05
1.0524888e-05
1.084336e-05
1.088999e-05
1.0923184e-05
1.1271982e-05
1.1587294e-05
1.1723646e-05
1.186958e-05
1.196018e-05
1.1706056e-05
1.1527595e-05
1.1575659e-05
1.171147e-05
1.1865556e-05
1.2104269e-05
1.2674105e-05
1.3957506e-05
1.6068145e-05
1.872373e-05
2.0679718e-05
2.1797253e-05
2.2110889e-05
2.167585e-05
2.0517254e-05
1.9123426e-05
6.9044959e-05
0.00046147989
0.0009731026
0.0013488182
0.0015808587
0.0016992467
0.0017329828
0.0017086095
0.0016476523
0.0015646797
0.0014728256
0.0013797009
0.0012891427
0.0012021533
0.001119052
0.0010397615
0.00096402862
0.00089156219
0.0008221111
0.00075549999
0.00069162314
0.00063043898
0.00057194885
0.00051617198
0.00046312532
0.0004128254
0.0003652446
0.00032044584
0.00027842927
0.00023914098
0.00020252881
0.00016856467
0.00013726782
0.00010870943
8.2990403e-05
6.0259312e-05
4.0751503e-05
2.4779748e-05
1.2699658e-05
4.8754327e-06
1.1770399e-06
1.4493749e-07
8.0197938e-09
2.4718871e-09
1.3083077e-05
1.0325055e-05
1.0325348e-05
1.0325336e-05
1.0325335e-05
1.0325335e-05
1.0325335e-05
1.0325335e-05
1.0325335e-05
1.0325335e-05
1.0325335e-05
1.0325335e-05
1.0325335e-05
1.0325335e-05
1.0325335e-05
1.0325335e-05
1.0325335e-05
1.0325335e-05
1.0325335e-05
1.0325335e-05
1.0325335e-05
1.0325335e-05
1.0325335e-05
1.0325335e-05
1.0325335e-05
1.0325335e-05
1.0325335e-05
1.0325335e-05
1.0325335e-05
1.0325336e-05
1.0325336e-05
1.0325336e-05
1.0325336e-05
1.0325336e-05
1.0325337e-05
1.032541e-05
1.032618e-05
1.0330265e-05
1.0344815e-05
1.0383651e-05
1.0457949e-05
1.0535968e-05
1.0545208e-05
1.046159e-05
1.0380794e-05
1.0394268e-05
1.0420234e-05
1.0365712e-05
1.0331485e-05
1.0358856e-05
1.0347835e-05
1.0316009e-05
1.0265702e-05
1.0133616e-05
9.9844763e-06
9.9286749e-06
1.0028841e-05
1.0137344e-05
1.0095806e-05
1.0044964e-05
1.0135451e-05
1.0194778e-05
1.0168146e-05
1.0206948e-05
1.0263604e-05
1.0282646e-05
1.032688e-05
1.0368676e-05
1.0398106e-05
1.0436182e-05
1.0468587e-05
1.0507613e-05
1.056345e-05
1.0610008e-05
1.064619e-05
1.0684886e-05
1.065922e-05
1.0449894e-05
1.0201713e-05
1.0161173e-05
1.0545279e-05
1.0856517e-05
1.0904202e-05
1.0943821e-05
1.1301298e-05
1.1604848e-05
1.1736522e-05
1.1882388e-05
1.1965806e-05
1.1708115e-05
1.1568002e-05
1.1646336e-05
1.1790128e-05
1.1875697e-05
1.2090759e-05
1.2623909e-05
1.3835714e-05
1.5776492e-05
1.8440928e-05
2.0705694e-05
2.1941672e-05
2.2540432e-05
2.2225541e-05
2.1129545e-05
2.2422536e-05
0.0001013732
0.00055016904
0.0010617892
0.0014096036
0.0016141593
0.0017090515
0.0017240914
0.0016859998
0.0016165
0.0015308709
0.0014389668
0.0013464593
0.0012562124
0.0011694179
0.0010863773
0.0010069966
0.00093102746
0.00085821214
0.00078835371
0.0007213396
0.00065712265
0.00059574648
0.00053724688
0.00048167689
0.00042910698
0.00037958661
0.00033313704
0.00028970394
0.00024934013
0.00021207911
0.0001779267
0.00014687242
0.00011883613
9.3751317e-05
7.1549199e-05
5.2148284e-05
3.5468641e-05
2.1599171e-05
1.0909523e-05
4.0248834e-06
9.2288885e-07
1.0923483e-07
5.5895046e-09
1.3822793e-09
1.314104e-05
1.0325037e-05
1.0325348e-05
1.0325336e-05
1.0325335e-05
1.0325335e-05
1.0325335e-05
1.0325335e-05
1.0325335e-05
1.0325335e-05
1.0325335e-05
1.0325335e-05
1.0325335e-05
1.0325335e-05
1.0325335e-05
1.0325335e-05
1.0325335e-05
1.0325335e-05
1.0325335e-05
1.0325335e-05
1.0325335e-05
1.0325335e-05
1.0325335e-05
1.0325335e-05
1.0325335e-05
1.0325335e-05
1.0325335e-05
1.0325335e-05
1.0325336e-05
1.0325336e-05
1.0325336e-05
1.0325336e-05
1.0325336e-05
1.0325336e-05
1.0325337e-05
1.0325398e-05
1.0326154e-05
1.0330185e-05
1.0344607e-05
1.0383256e-05
1.0457564e-05
1.0536616e-05
1.0546336e-05
1.0463243e-05
1.0381353e-05
1.0394743e-05
1.0421154e-05
1.0367455e-05
1.0332356e-05
1.0359405e-05
1.0349212e-05
1.031738e-05
1.0267319e-05
1.013634e-05
9.9864977e-06
9.9288772e-06
1.0027506e-05
1.0135582e-05
1.0095568e-05
1.004511e-05
1.0134673e-05
1.0192747e-05
1.0166558e-05
1.020584e-05
1.0262288e-05
1.0281581e-05
1.0326378e-05
1.0368368e-05
1.0398287e-05
1.0437737e-05
1.0471495e-05
1.0509593e-05
1.0563895e-05
1.0610743e-05
1.0647292e-05
1.0688113e-05
1.0667293e-05
1.0462368e-05
1.0212498e-05
1.0166821e-05
1.0547907e-05
1.0863469e-05
1.0917613e-05
1.095758e-05
1.1310154e-05
1.1612223e-05
1.1742457e-05
1.1887729e-05
1.1974279e-05
1.1725283e-05
1.1608541e-05
1.1705615e-05
1.1848735e-05
1.1887729e-05
1.2054149e-05
1.2511671e-05
1.3547688e-05
1.5228543e-05
1.7597536e-05
2.0336671e-05
2.1945315e-05
2.2897839e-05
2.2935579e-05
2.2043558e-05
2.2359345e-05
9.4642533e-05
0.00054694282
0.0010578808
0.0014010376
0.0016035046
0.0016961478
0.0017096407
0.0016708894
0.0016018146
0.0015171007
0.0014263095
0.0013349286
0.0012455955
0.0011595024
0.0010770618
0.00099820314
0.00092269668
0.0008503072
0.00078085726
0.00071424671
0.00065043593
0.00058945635
0.00053134736
0.00047617622
0.00042402517
0.000374967
0.00032905056
0.00028629308
0.00024662636
0.00020994726
0.00017618848
0.00014529614
0.00011728576
9.2155132e-05
6.989364e-05
5.04719e-05
3.391574e-05
2.0357741e-05
1.0132228e-05
3.6978481e-06
8.4435904e-07
1.0010111e-07
5.2839479e-09
1.4601237e-09
1.3168812e-05
1.0325019e-05
1.0325348e-05
1.0325336e-05
1.0325335e-05
1.0325335e-05
1.0325335e-05
1.0325335e-05
1.0325335e-05
1.0325335e-05
1.0325335e-05
1.0325335e-05
1.0325335e-05
1.0325335e-05
1.0325335e-05
1.0325335e-05
1.0325335e-05
1.0325335e-05
1.0325335e-05
1.0325335e-05
1.0325335e-05
1.0325335e-05
1.0325335e-05
1.0325335e-05
1.0325335e-05
1.0325335e-05
1.0325335e-05
1.0325335e-05
1.0325336e-05
1.0325336e-05
1.0325336e-05
1.0325336e-05
1.0325336e-05
1.0325336e-05
1.0325337e-05
1.0325396e-05
1.0326136e-05
1.0330116e-05
1.0344414e-05
1.0382871e-05
1.0457197e-05
1.053733e-05
1.0547434e-05
1.0464714e-05
1.0383573e-05
1.0395258e-05
1.0422154e-05
1.0369175e-05
1.0333283e-05
1.035996e-05
1.0350561e-05
1.0318762e-05
1.0268963e-05
1.0138978e-05
9.988629e-06
9.929154e-06
1.0026299e-05
1.0133759e-05
1.0095291e-05
1.0045399e-05
1.0133864e-05
1.0190717e-05
1.0164898e-05
1.020471e-05
1.0261008e-05
1.0280353e-05
1.0325789e-05
1.036802e-05
1.0398342e-05
1.0438962e-05
1.0474287e-05
1.0511884e-05
1.0564491e-05
1.0611319e-05
1.0648004e-05
1.0690456e-05
1.0674509e-05
1.0474598e-05
1.0222947e-05
1.0173714e-05
1.0554449e-05
1.086988e-05
1.0931126e-05
1.0972777e-05
1.1322858e-05
1.1620992e-05
1.1750244e-05
1.1892875e-05
1.1979428e-05
1.1739345e-05
1.1643169e-05
1.1760283e-05
1.1910021e-05
1.1935674e-05
1.2029522e-05
1.2455756e-05
1.3365564e-05
1.4814108e-05
1.6941663e-05
1.9688567e-05
2.1890588e-05
2.3102765e-05
2.3539803e-05
2.2919488e-05
2.3105618e-05
8.238625e-05
0.00050163648
0.0010272705
0.0013762537
0.0015823031
0.0016757197
0.0016905078
0.0016546162
0.0015885133
0.0015066023
0.0014182323
0.001328941
0.001241394
0.0011568133
0.00107556
0.00099759876
0.00092277106
0.00085091368
0.00078190175
0.00071566357
0.00065217099
0.00059144519
0.00053352661
0.00047846041
0.00042631111
0.00037713642
0.00033097891
0.0002878925
0.00024792385
0.00021108694
0.00017730923
0.00014649946
0.00011857936
9.347421e-05
7.1122338e-05
5.1479567e-05
3.4614769e-05
2.0740101e-05
1.0270363e-05
3.7161022e-06
8.407684e-07
9.9024981e-08
5.1152165e-09
1.3173242e-09
1.320998e-05
1.0325001e-05
1.0325348e-05
1.0325336e-05
1.0325335e-05
1.0325335e-05
1.0325335e-05
1.0325335e-05
1.0325335e-05
1.0325335e-05
1.0325335e-05
1.0325335e-05
1.0325335e-05
1.0325335e-05
1.0325335e-05
1.0325335e-05
1.0325335e-05
1.0325335e-05
1.0325335e-05
1.0325335e-05
1.0325335e-05
1.0325335e-05
1.0325335e-05
1.0325335e-05
1.0325335e-05
1.0325335e-05
1.0325335e-05
1.0325335e-05
1.0325336e-05
1.0325336e-05
1.0325336e-05
1.0325336e-05
1.0325336e-05
1.0325336e-05
1.0325337e-05
1.0325393e-05
1.0326116e-05
1.0330043e-05
1.0344211e-05
1.0382464e-05
1.0456786e-05
1.0538028e-05
1.0548535e-05
1.0466105e-05
1.0384918e-05
1.0395732e-05
1.0423194e-05
1.0370913e-05
1.0334253e-05
1.0360489e-05
1.0351915e-05
1.0320188e-05
1.0270666e-05
1.0141709e-05
9.9909765e-06
9.9294384e-06
1.0025022e-05
1.0131821e-05
1.009506e-05
1.0045767e-05
1.013291e-05
1.0188707e-05
1.016322e-05
1.0203546e-05
1.025964e-05
1.0278983e-05
1.0325067e-05
1.0367578e-05
1.0398167e-05
1.0439779e-05
1.0476698e-05
1.0514131e-05
1.0565047e-05
1.0611681e-05
1.0648279e-05
1.0692023e-05
1.0681187e-05
1.0487299e-05
1.0233798e-05
1.0180221e-05
1.055764e-05
1.0874853e-05
1.0944377e-05
1.0986832e-05
1.133259e-05
1.1629234e-05
1.1758707e-05
1.1897565e-05
1.1983713e-05
1.1753345e-05
1.1673265e-05
1.1807511e-05
1.1963259e-05
1.1991158e-05
1.2027323e-05
1.241884e-05
1.3224681e-05
1.4449501e-05
1.6289148e-05
1.8871386e-05
2.1656169e-05
2.3178377e-05
2.4034698e-05
2.3784219e-05
2.3620534e-05
7.1038397e-05
0.00045690469
0.0009870932
0.0013376533
0.0015478569
0.0016470318
0.0016667792
0.0016344998
0.001571073
0.0014919134
0.0014063017
0.00131932
0.0012335385
0.001150351
0.0010701807
0.00099304404
0.00091884268
0.00084747813
0.00077887584
0.00071299663
0.00064983665
0.00058943218
0.0005318427
0.00047712428
0.00042533967
0.00037653054
0.00033070802
0.00028788164
0.00024804892
0.00021118453
0.00017726734
0.00014627907
0.00011817882
9.293118e-05
7.0513846e-05
5.0918118e-05
3.417455e-05
2.0446217e-05
1.0109637e-05
3.6516716e-06
8.2484906e-07
9.7052213e-08
5.0100663e-09
1.288915e-09
1.324654e-05
1.0324981e-05
1.0325348e-05
1.0325336e-05
1.0325335e-05
1.0325335e-05
1.0325335e-05
1.0325335e-05
1.0325335e-05
1.0325335e-05
1.0325335e-05
1.0325335e-05
1.0325335e-05
1.0325335e-05
1.0325335e-05
1.0325335e-05
1.0325335e-05
1.0325335e-05
1.0325335e-05
1.0325335e-05
1.0325335e-05
1.0325335e-05
1.0325335e-05
1.0325335e-05
1.0325335e-05
1.0325335e-05
1.0325335e-05
1.0325335e-05
1.0325336e-05
1.0325335e-05
1.0325336e-05
1.0325336e-05
1.0325336e-05
1.0325336e-05
1.0325337e-05
1.0325391e-05
1.0326097e-05
1.0329971e-05
1.0344006e-05
1.0382044e-05
1.0456353e-05
1.0538729e-05
1.0549638e-05
1.0467506e-05
1.0386481e-05
1.0396149e-05
1.0424297e-05
1.0372628e-05
1.0335234e-05
1.0361036e-05
1.0353251e-05
1.032165e-05
1.0272405e-05
1.0144512e-05
9.9935143e-06
9.9297396e-06
1.0023729e-05
1.0129802e-05
1.0094821e-05
1.00462e-05
1.0131878e-05
1.0186727e-05
1.0161505e-05
1.0202391e-05
1.0258276e-05
1.0277464e-05
1.0324129e-05
1.0367028e-05
1.039784e-05
1.0440154e-05
1.047867e-05
1.0516325e-05
1.056561e-05
1.0611912e-05
1.0648257e-05
1.0693001e-05
1.0687314e-05
1.0499988e-05
1.0244777e-05
1.0186582e-05
1.0559365e-05
1.0878694e-05
1.0957381e-05
1.100002e-05
1.134064e-05
1.1637363e-05
1.1768359e-05
1.1902512e-05
1.1987574e-05
1.1766913e-05
1.169861e-05
1.1847472e-05
1.2010745e-05
1.2046498e-05
1.2061646e-05
1.2389181e-05
1.3130958e-05
1.4165319e-05
1.5713988e-05
1.8035271e-05
2.1008213e-05
2.3152548e-05
2.4365887e-05
2.4558876e-05
2.44099e-05
5.9883887e-05
0.00039824985
0.00093335147
0.0012901841
0.00150794
0.0016132647
0.0016384339
0.0016113887
0.0015532726
0.0014785543
0.0013962271
0.0013116116
0.0012279559
0.0011464547
0.0010675972
0.00099145012
0.00091798109
0.00084715569
0.00077894494
0.00071334365
0.00065037706
0.00059009794
0.00053257939
0.00047788172
0.00042607679
0.00037722207
0.00033134825
0.00028848444
0.00024864457
0.00021180897
0.00017793928
0.00014698702
0.0001188987
9.3624793e-05
7.1122864e-05
5.1380965e-05
3.4466958e-05
2.0585567e-05
1.0145889e-05
3.6484321e-06
8.2057344e-07
9.6274128e-08
4.9280021e-09
1.2312419e-09
1.328702e-05
1.0324961e-05
1.0325348e-05
1.0325336e-05
1.0325335e-05
1.0325335e-05
1.0325335e-05
1.0325335e-05
1.0325335e-05
1.0325335e-05
1.0325335e-05
1.0325335e-05
1.0325335e-05
1.0325335e-05
1.0325335e-05
1.0325335e-05
1.0325335e-05
1.0325335e-05
1.0325335e-05
1.0325335e-05
1.0325335e-05
1.0325335e-05
1.0325335e-05
1.0325335e-05
1.0325335e-05
1.0325335e-05
1.0325335e-05
1.0325335e-05
1.0325336e-05
1.0325335e-05
1.0325336e-05
1.0325336e-05
1.0325336e-05
1.0325336e-05
1.0325337e-05
1.0325388e-05
1.0326078e-05
1.0329897e-05
1.0343796e-05
1.0381609e-05
1.045589e-05
1.0539421e-05
1.0550783e-05
1.046896e-05
1.0387968e-05
1.0396457e-05
1.0425426e-05
1.0374318e-05
1.0336197e-05
1.0361612e-05
1.0354569e-05
1.0323148e-05
1.027417e-05
1.0147406e-05
9.9962168e-06
9.9300738e-06
1.0022428e-05
1.0127711e-05
1.0094561e-05
1.0046638e-05
1.0130823e-05
1.0184811e-05
1.0159794e-05
1.0201146e-05
1.025693e-05
1.0275791e-05
1.0323123e-05
1.0366358e-05
1.0397376e-05
1.0440064e-05
1.0480193e-05
1.0518393e-05
1.056627e-05
1.0612113e-05
1.0648073e-05
1.0693527e-05
1.0692962e-05
1.0513314e-05
1.0255753e-05
1.0192152e-05
1.0559436e-05
1.0881705e-05
1.0970184e-05
1.1012085e-05
1.1346411e-05
1.1645149e-05
1.1779225e-05
1.1908322e-05
1.1991769e-05
1.1781e-05
1.1720431e-05
1.1880361e-05
1.2051163e-05
1.2095773e-05
1.2115494e-05
1.2371061e-05
1.3071353e-05
1.3951974e-05
1.5230173e-05
1.7239084e-05
2.012566e-05
2.3030715e-05
2.4537194e-05
2.5198867e-05
2.5203659e-05
5.0935198e-05
0.00033980412
0.00087139451
0.0012361373
0.0014627296
0.0015752167
0.001606766
0.0015855308
0.0015325857
0.0014623342
0.0013838909
0.0013025699
0.0012212133
0.0011414229
0.0010638679
0.00098865462
0.00091586291
0.00084552491
0.00077765697
0.00071231804
0.0006495858
0.00058954109
0.00053226068
0.00047779838
0.00042620976
0.00037754209
0.00033181725
0.00028905153
0.00024924956
0.00021239004
0.00017844334
0.00014738016
0.00011917149
9.3792692e-05
7.1223645e-05
5.1452979e-05
3.452642e-05
2.063022e-05
1.0171618e-05
3.657837e-06
8.2242791e-07
9.6447643e-08
4.9223738e-09
1.216554e-09
1.3327495e-05
1.032494e-05
1.0325349e-05
1.0325336e-05
1.0325335e-05
1.0325335e-05
1.0325335e-05
1.0325335e-05
1.0325335e-05
1.0325335e-05
1.0325335e-05
1.0325335e-05
1.0325335e-05
1.0325335e-05
1.0325335e-05
1.0325335e-05
1.0325335e-05
1.0325335e-05
1.0325335e-05
1.0325335e-05
1.0325335e-05
1.0325335e-05
1.0325335e-05
1.0325335e-05
1.0325335e-05
1.0325335e-05
1.0325336e-05
1.0325335e-05
1.0325336e-05
1.0325335e-05
1.0325336e-05
1.0325336e-05
1.0325336e-05
1.0325336e-05
1.0325337e-05
1.0325386e-05
1.0326058e-05
1.0329822e-05
1.0343582e-05
1.0381159e-05
1.0455412e-05
1.0540002e-05
1.0551976e-05
1.0470455e-05
1.0389464e-05
1.0396434e-05
1.0426529e-05
1.0376002e-05
1.0337133e-05
1.0362205e-05
1.0355868e-05
1.0324689e-05
1.0275963e-05
1.0150388e-05
9.9990427e-06
9.9304514e-06
1.0021151e-05
1.0125557e-05
1.0094282e-05
1.0047031e-05
1.0129756e-05
1.0183021e-05
1.0158008e-05
1.0199838e-05
1.0255657e-05
1.0274009e-05
1.0321969e-05
1.0365546e-05
1.0396773e-05
1.0439626e-05
1.0481243e-05
1.0520317e-05
1.0567038e-05
1.0612337e-05
1.0647832e-05
1.0693734e-05
1.0698071e-05
1.052779e-05
1.0266844e-05
1.0196793e-05
1.0557916e-05
1.0884113e-05
1.0983006e-05
1.1022587e-05
1.1350074e-05
1.1652547e-05
1.1791267e-05
1.1915324e-05
1.1997033e-05
1.1795867e-05
1.1739594e-05
1.1906904e-05
1.2084706e-05
1.2139776e-05
1.217056e-05
1.2390172e-05
1.3032371e-05
1.3802494e-05
1.484566e-05
1.6520566e-05
1.9182758e-05
2.2466165e-05
2.4558335e-05
2.5661782e-05
2.5973616e-05
4.3373986e-05
0.00028074839
0.00080128617
0.0011753331
0.001411879
0.0015326231
0.0015713163
0.0015565228
0.0015094447
0.0014444564
0.0013705598
0.0012930127
0.0012146611
0.0011368952
0.0010605461
0.00098625617
0.00091426955
0.00084451936
0.00077709481
0.00071211121
0.00064966939
0.00058985859
0.00053276526
0.00047845558
0.00042699145
0.00037840651
0.00033271331
0.00028994148
0.0002501129
0.00021321835
0.00017923238
0.0001481219
0.00011985045
9.4385737e-05
7.1706723e-05
5.1809996e-05
3.4759687e-05
2.0759285e-05
1.0226374e-05
3.6726639e-06
8.2452223e-07
9.6580253e-08
4.9058393e-09
1.1914742e-09
1.3370012e-05
1.0324917e-05
1.0325349e-05
1.0325336e-05
1.0325335e-05
1.0325335e-05
1.0325335e-05
1.0325335e-05
1.0325335e-05
1.0325335e-05
1.0325335e-05
1.0325335e-05
1.0325335e-05
1.0325335e-05
1.0325335e-05
1.0325335e-05
1.0325335e-05
1.0325335e-05
1.0325335e-05
1.0325335e-05
1.0325335e-05
1.0325335e-05
1.0325335e-05
1.0325335e-05
1.0325335e-05
1.0325335e-05
1.0325335e-05
1.0325335e-05
1.0325336e-05
1.0325335e-05
1.0325336e-05
1.0325336e-05
1.0325336e-05
1.0325336e-05
1.0325336e-05
1.0325383e-05
1.0326039e-05
1.0329746e-05
1.0343364e-05
1.0380698e-05
1.0454925e-05
1.0540496e-05
1.0553253e-05
1.0472003e-05
1.0390958e-05
1.0397276e-05
1.0427545e-05
1.0377697e-05
1.0338068e-05
1.0362786e-05
1.0357138e-05
1.032628e-05
1.02778e-05
1.0153442e-05
1.0001974e-05
9.9308989e-06
1.0019895e-05
1.0123356e-05
1.0093972e-05
1.0047389e-05
1.0128671e-05
1.0181341e-05
1.0156147e-05
1.0198509e-05
1.0254471e-05
1.0272143e-05
1.0320617e-05
1.0364643e-05
1.0396015e-05
1.043893e-05
1.0481764e-05
1.0522049e-05
1.0567931e-05
1.0612749e-05
1.0647715e-05
1.069383e-05
1.0703022e-05
1.0541709e-05
1.0277959e-05
1.0200428e-05
1.0554524e-05
1.0885999e-05
1.0996098e-05
1.1031825e-05
1.1351233e-05
1.1659005e-05
1.1804465e-05
1.1923699e-05
1.2004022e-05
1.1812104e-05
1.175727e-05
1.1927932e-05
1.2111243e-05
1.2177338e-05
1.2219565e-05
1.2436664e-05
1.2999292e-05
1.3704277e-05
1.455411e-05
1.5911778e-05
1.825939e-05
2.1564321e-05
2.4497549e-05
2.5927464e-05
2.6666364e-05
3.8082356e-05
0.00022652831
0.00072421288
0.001110304
0.001357372
0.0014872974
0.001534001
0.001526247
0.0014852513
0.0014253504
0.0013555781
0.0012813052
0.0012055701
0.0011300326
0.0010555725
0.00098265216
0.00091154459
0.00084261752
0.00077587049
0.00071144057
0.0006494397
0.00058997248
0.00053313185
0.00047898999
0.0004276188
0.00037907447
0.00033338969
0.00029060077
0.00025073417
0.00021378615
0.00017973647
0.00014855748
0.00012021485
9.4681641e-05
7.1943278e-05
5.1996732e-05
3.4898867e-05
2.0851839e-05
1.0276365e-05
3.6916285e-06
8.2880941e-07
9.7062478e-08
4.9185605e-09
1.1834041e-09
1.3413569e-05
1.0324894e-05
1.0325349e-05
1.0325336e-05
1.0325335e-05
1.0325335e-05
1.0325335e-05
1.0325335e-05
1.0325335e-05
1.0325335e-05
1.0325335e-05
1.0325335e-05
1.0325335e-05
1.0325335e-05
1.0325335e-05
1.0325335e-05
1.0325335e-05
1.0325335e-05
1.0325335e-05
1.0325335e-05
1.0325335e-05
1.0325335e-05
1.0325335e-05
1.0325335e-05
1.0325335e-05
1.0325335e-05
1.0325335e-05
1.0325335e-05
1.0325336e-05
1.0325335e-05
1.0325336e-05
1.0325336e-05
1.0325336e-05
1.0325336e-05
1.0325336e-05
1.0325381e-05
1.032602e-05
1.032967e-05
1.0343142e-05
1.0380225e-05
1.0454422e-05
1.0540856e-05
1.0554634e-05
1.0473621e-05
1.0392459e-05
1.0397759e-05
1.0428458e-05
1.037939e-05
1.033904e-05
1.0363324e-05
1.0358379e-05
1.032791e-05
1.0279688e-05
1.0156547e-05
1.0004993e-05
9.9314684e-06
1.0018632e-05
1.0121131e-05
1.0093625e-05
1.0047711e-05
1.0127605e-05
1.017972e-05
1.0154253e-05
1.0197089e-05
1.025337e-05
1.027023e-05
1.0319212e-05
1.0363652e-05
1.0395103e-05
1.0438035e-05
1.0481786e-05
1.0523632e-05
1.0569002e-05
1.0613395e-05
1.0647786e-05
1.0693892e-05
1.0707372e-05
1.0555786e-05
1.0289089e-05
1.0203051e-05
1.0549097e-05
1.0887486e-05
1.1009566e-05
1.1040015e-05
1.1349581e-05
1.1664086e-05
1.1818481e-05
1.1933328e-05
1.2012649e-05
1.1829914e-05
1.1774346e-05
1.1944992e-05
1.2131985e-05
1.2207906e-05
1.2263198e-05
1.2486525e-05
1.2991169e-05
1.3643257e-05
1.4344223e-05
1.5420141e-05
1.7399945e-05
2.054795e-05
2.4092374e-05
2.601255e-05
2.716579e-05
3.4489387e-05
0.00017783487
0.00064298733
0.0010414564
0.0012986052
0.001438112
0.0014932839
0.0014930781
0.0014587952
0.0014047361
0.0013398848
0.0012696082
0.0011970002
0.0011238226
0.0010510869
0.000979415
0.00090920779
0.00084074634
0.00077447569
0.0007104398
0.00064876426
0.00058958298
0.00053301202
0.00047912753
0.00042799894
0.00037967355
0.00033417355
0.00029152639
0.00025175186
0.00021484278
0.00018078062
0.00014954763
0.00012111534
9.5463787e-05
7.2586509e-05
5.2490739e-05
3.5250168e-05
2.1076793e-05
1.0397422e-05
3.7390321e-06
8.3998571e-07
9.8378876e-08
4.9695523e-09
1.1800816e-09
1.3458747e-05
1.0324869e-05
1.0325348e-05
1.0325336e-05
1.0325335e-05
1.0325335e-05
1.0325335e-05
1.0325335e-05
1.0325335e-05
1.0325335e-05
1.0325335e-05
1.0325335e-05
1.0325335e-05
1.0325335e-05
1.0325335e-05
1.0325335e-05
1.0325335e-05
1.0325335e-05
1.0325335e-05
1.0325335e-05
1.0325335e-05
1.0325335e-05
1.0325335e-05
1.0325335e-05
1.0325335e-05
1.0325335e-05
1.0325335e-05
1.0325335e-05
1.0325336e-05
1.0325335e-05
1.0325335e-05
1.0325336e-05
1.0325336e-05
1.0325336e-05
1.0325336e-05
1.0325379e-05
1.0326e-05
1.0329592e-05
1.0342915e-05
1.0379743e-05
1.0453896e-05
1.0541021e-05
1.0556154e-05
1.0475311e-05
1.0393968e-05
1.0398336e-05
1.042909e-05
1.0381054e-05
1.0340078e-05
1.0363823e-05
1.0359583e-05
1.0329588e-05
1.0281628e-05
1.0159713e-05
1.0008084e-05
9.9321878e-06
1.0017328e-05
1.0118894e-05
1.009326e-05
1.0047963e-05
1.0126599e-05
1.0178136e-05
1.0152294e-05
1.0195591e-05
1.0252325e-05
1.02683e-05
1.0317778e-05
1.0362386e-05
1.0394164e-05
1.043704e-05
1.0481443e-05
1.0524986e-05
1.057017e-05
1.0614265e-05
1.0648153e-05
1.0694061e-05
1.0711437e-05
1.0570148e-05
1.0300241e-05
1.0204669e-05
1.0541282e-05
1.0888623e-05
1.1023252e-05
1.1047421e-05
1.1344943e-05
1.1667434e-05
1.1832954e-05
1.1944109e-05
1.202311e-05
1.1849818e-05
1.1791497e-05
1.1959251e-05
1.2147668e-05
1.2230655e-05
1.2300387e-05
1.2531016e-05
1.3021699e-05
1.3602108e-05
1.4200991e-05
1.5041815e-05
1.666013e-05
1.9511701e-05
2.3216083e-05
2.5983748e-05
2.7451832e-05
3.234324e-05
0.00013730812
0.00055910838
0.00097007954
0.0012367517
0.0013866283
0.0014509038
0.0014585736
0.0014310718
0.0013827608
0.0013226855
0.0012563085
0.0011868321
0.001116132
0.0010453171
0.00097514236
0.00090612139
0.00083861376
0.00077285848
0.00070926697
0.00064801181
0.00058915564
0.00053284053
0.00047916148
0.00042820088
0.0003800133
0.00033462488
0.00029206568
0.00025235906
0.00021549906
0.00018145595
0.00015020081
0.00012171839
9.6000538e-05
7.3046852e-05
5.2868277e-05
3.5538699e-05
2.1274237e-05
1.0509454e-05
3.784631e-06
8.5101556e-07
9.9694549e-08
5.0230721e-09
1.1797222e-09
1.3505326e-05
1.0324843e-05
1.0325348e-05
1.0325336e-05
1.0325335e-05
1.0325335e-05
1.0325335e-05
1.0325335e-05
1.0325335e-05
1.0325335e-05
1.0325335e-05
1.0325335e-05
1.0325335e-05
1.0325335e-05
1.0325335e-05
1.0325335e-05
1.0325335e-05
1.0325335e-05
1.0325335e-05
1.0325335e-05
1.0325335e-05
1.0325335e-05
1.0325335e-05
1.0325335e-05
1.0325335e-05
1.0325335e-05
1.0325335e-05
1.0325335e-05
1.0325336e-05
1.0325335e-05
1.0325335e-05
1.0325336e-05
1.0325336e-05
1.0325336e-05
1.0325336e-05
1.0325376e-05
1.0325981e-05
1.0329514e-05
1.0342684e-05
1.0379249e-05
1.0453342e-05
1.0541043e-05
1.0557813e-05
1.0477085e-05
1.0395478e-05
1.039892e-05
1.0429413e-05
1.0382656e-05
1.034117e-05
1.0364329e-05
1.0360753e-05
1.0331313e-05
1.0283646e-05
1.0162934e-05
1.0011268e-05
9.9330652e-06
1.0015944e-05
1.0116638e-05
1.0092898e-05
1.0048137e-05
1.012564e-05
1.0176595e-05
1.0150272e-05
1.0194057e-05
1.0251251e-05
1.0266434e-05
1.0316288e-05
1.0361145e-05
1.039318e-05
1.0435875e-05
1.0480685e-05
1.0526069e-05
1.057143e-05
1.0615449e-05
1.0648894e-05
1.0694397e-05
1.0715249e-05
1.0584584e-05
1.0311452e-05
1.020532e-05
1.0530718e-05
1.0889387e-05
1.1037029e-05
1.105449e-05
1.1337413e-05
1.1668811e-05
1.1847455e-05
1.1955544e-05
1.2034912e-05
1.1871865e-05
1.1809475e-05
1.1972446e-05
1.2159869e-05
1.2246351e-05
1.2330647e-05
1.2570331e-05
1.3063057e-05
1.3573009e-05
1.410889e-05
1.4762011e-05
1.6049574e-05
1.8509185e-05
2.2158675e-05
2.5780513e-05
2.7551416e-05
3.1068093e-05
0.00010466423
0.00047513105
0.00089561721
0.0011712597
0.0013320696
0.001405992
0.0014220025
0.001401699
0.0013595167
0.0013045448
0.0012423309
0.0011761209
0.0011078266
0.0010388631
0.00097015164
0.00090230926
0.00083576841
0.00077085396
0.00070780583
0.00064691345
0.00058844048
0.00053244644
0.00047904528
0.00042832508
0.00038034217
0.00033512033
0.0002926841
0.00025304727
0.00021620127
0.00018214104
0.00015085438
0.00012232617
9.6547537e-05
7.3520063e-05
5.325803e-05
3.5839182e-05
2.1483816e-05
1.0632123e-05
3.8364311e-06
8.639357e-07
1.012661e-07
5.0920449e-09
1.1849355e-09
1.3553472e-05
1.0324816e-05
1.0325348e-05
1.0325335e-05
1.0325335e-05
1.0325335e-05
1.0325335e-05
1.0325335e-05
1.0325335e-05
1.0325335e-05
1.0325335e-05
1.0325335e-05
1.0325335e-05
1.0325335e-05
1.0325335e-05
1.0325335e-05
1.0325335e-05
1.0325335e-05
1.0325335e-05
1.0325335e-05
1.0325335e-05
1.0325335e-05
1.0325335e-05
1.0325335e-05
1.0325335e-05
1.0325335e-05
1.0325335e-05
1.0325335e-05
1.0325335e-05
1.0325335e-05
1.0325335e-05
1.0325336e-05
1.0325336e-05
1.0325336e-05
1.0325336e-05
1.0325374e-05
1.0325962e-05
1.0329435e-05
1.034245e-05
1.0378745e-05
1.0452757e-05
1.0541038e-05
1.0559544e-05
1.047898e-05
1.0396981e-05
1.039951e-05
1.0430909e-05
1.0384178e-05
1.0342305e-05
1.0364876e-05
1.0361902e-05
1.0333071e-05
1.0285719e-05
1.0166188e-05
1.0014559e-05
9.9341093e-06
1.0014483e-05
1.011433e-05
1.0092545e-05
1.0048239e-05
1.0124709e-05
1.0175111e-05
1.0148227e-05
1.0192426e-05
1.0250165e-05
1.026466e-05
1.0314758e-05
1.0359934e-05
1.0392097e-05
1.0434648e-05
1.0479535e-05
1.0526941e-05
1.0572692e-05
1.0616844e-05
1.0649912e-05
1.0694922e-05
1.0718863e-05
1.0599187e-05
1.0322946e-05
1.0205327e-05
1.0517274e-05
1.0889775e-05
1.1050795e-05
1.1061546e-05
1.1327135e-05
1.1668128e-05
1.1861519e-05
1.1967515e-05
1.2047897e-05
1.1895999e-05
1.1828562e-05
1.1985314e-05
1.2169191e-05
1.22555e-05
1.2353791e-05
1.2603836e-05
1.3100388e-05
1.3584565e-05
1.4050487e-05
1.4565137e-05
1.5572259e-05
1.7624325e-05
2.1033907e-05
2.5026322e-05
2.7537174e-05
3.0356502e-05
8.0117293e-05
0.00039442509
0.00081817902
0.0011033238
0.0012754188
0.0013593794
0.0013839903
0.001371024
0.0013350567
0.0012852798
0.001227293
0.0011643328
0.001098629
0.0010316295
0.0009644444
0.00089780951
0.0008322064
0.00076805219
0.00070567403
0.00064532377
0.00058721459
0.00053160653
0.00047853028
0.0004280702
0.000380294
0.00033523513
0.00029292726
0.00025339439
0.0002166339
0.00018263255
0.00015137538
0.00012284764
9.7042815e-05
7.3966276e-05
5.3637055e-05
3.6138269e-05
2.1696104e-05
1.0758114e-05
3.8902966e-06
8.7750957e-07
1.0292794e-07
5.1665034e-09
1.1921476e-09
1.360317e-05
1.0324787e-05
1.0325348e-05
1.0325335e-05
1.0325335e-05
1.0325335e-05
1.0325335e-05
1.0325335e-05
1.0325335e-05
1.0325335e-05
1.0325335e-05
1.0325335e-05
1.0325335e-05
1.0325335e-05
1.0325335e-05
1.0325335e-05
1.0325335e-05
1.0325335e-05
1.0325335e-05
1.0325335e-05
1.0325335e-05
1.0325335e-05
1.0325335e-05
1.0325335e-05
1.0325335e-05
1.0325335e-05
1.0325335e-05
1.0325335e-05
1.0325335e-05
1.0325335e-05
1.0325335e-05
1.0325336e-05
1.0325336e-05
1.0325336e-05
1.0325336e-05
1.0325372e-05
1.0325943e-05
1.0329356e-05
1.0342211e-05
1.037823e-05
1.0452141e-05
1.0541086e-05
1.0561272e-05
1.0480948e-05
1.0398486e-05
1.0400115e-05
1.0431822e-05
1.0385615e-05
1.0343485e-05
1.036546e-05
1.0363033e-05
1.0334855e-05
1.0287835e-05
1.0169486e-05
1.0017937e-05
9.935321e-06
1.0012978e-05
1.0111958e-05
1.0092172e-05
1.0048257e-05
1.012379e-05
1.0173694e-05
1.0146176e-05
1.0190675e-05
1.0249071e-05
1.0262913e-05
1.0313244e-05
1.035865e-05
1.0391018e-05
1.0433486e-05
1.0478064e-05
1.0527504e-05
1.0573833e-05
1.0618394e-05
1.0651244e-05
1.0695779e-05
1.0722435e-05
1.0614054e-05
1.0334955e-05
1.0205044e-05
1.050078e-05
1.0889411e-05
1.1064163e-05
1.1068896e-05
1.1314384e-05
1.166555e-05
1.187447e-05
1.1979596e-05
1.2061496e-05
1.1921888e-05
1.1849376e-05
1.1999258e-05
1.2177272e-05
1.2259553e-05
1.2370074e-05
1.2630861e-05
1.3133284e-05
1.3622074e-05
1.400868e-05
1.4432193e-05
1.5209975e-05
1.6877145e-05
1.9899001e-05
2.3968221e-05
2.7441878e-05
2.9941846e-05
6.2400874e-05
0.00031959712
0.00074020296
0.0010334596
0.001216544
0.0013108105
0.0013443335
0.0013389801
0.0013094512
0.0012650689
0.0012113849
0.0011519611
0.0010890846
0.0010242725
0.00095862271
0.00089305451
0.00082831592
0.00076486937
0.00070308213
0.00064324914
0.00058559804
0.00053028872
0.0004775348
0.00042737145
0.00037985673
0.0003350274
0.00029291657
0.00025354704
0.00021691529
0.00018300791
0.00015181055
0.00012331
9.7502245e-05
7.4396128e-05
5.4014893e-05
3.6446412e-05
2.1922156e-05
1.0896771e-05
3.9513921e-06
8.9324926e-07
1.0487962e-07
5.2573765e-09
1.2043842e-09
1.3654519e-05
1.0324757e-05
1.0325348e-05
1.0325335e-05
1.0325335e-05
1.0325335e-05
1.0325335e-05
1.0325335e-05
1.0325335e-05
1.0325335e-05
1.0325335e-05
1.0325335e-05
1.0325335e-05
1.0325335e-05
1.0325335e-05
1.0325335e-05
1.0325335e-05
1.0325335e-05