/*--------------------------------*- C++ -*----------------------------------*\
| =========                 |                                                 |
| \\      /  F ield         | OpenFOAM: The Open Source CFD Toolbox           |
|  \\    /   O peration     | Version:  2506                                  |
|   \\  /    A nd           | Website:  www.openfoam.com                      |
|    \\/     M anipulation  |                                                 |
\*---------------------------------------------------------------------------*/
FoamFile
{
    version     2.0;
    format      ascii;
    arch        "LSB;label=32;scalar=64";
    class       volScalarField;
    location    "0.027";
    object      Ma;
}
// * * * * * * * * * * * * * * * * * * * * * * * * * * * * * * * * * * * * * //

dimensions      [0 0 0 0 0 0 0];

internalField   nonuniform List<scalar> 
192657
(
0.29856892
0.30013303
0.2999855
0.29997845
0.30136982
0.30204665
0.30489507
0.30558276
0.30526861
0.30155706
0.29981335
0.30271647
0.30664257
0.30577722
0.30529225
0.30816647
0.30898156
0.30926884
0.31144962
0.31250471
0.31388425
0.31581554
0.31738086
0.31945738
0.3215449
0.32378628
0.32625956
0.32881225
0.33156663
0.33441331
0.33742272
0.34060273
0.34401214
0.34764215
0.35144271
0.35540808
0.35954687
0.36386992
0.36838414
0.37309053
0.37799512
0.38310373
0.3884181
0.39394309
0.39967713
0.40561803
0.4117608
0.41809813
0.42461728
0.43130357
0.43813638
0.4450925
0.45214242
0.45925505
0.466395
0.47352556
0.48060722
0.48760185
0.49446996
0.50117629
0.50768584
0.51396817
0.51999697
0.52575197
0.53121281
0.53636903
0.54121089
0.54573547
0.54994123
0.5538331
0.55741691
0.5607014
0.56369957
0.56642428
0.56888961
0.57111157
0.57310767
0.57489537
0.5764922
0.57791558
0.57918413
0.58031198
0.58131592
0.58221219
0.58301507
0.5837365
0.58438916
0.58498369
0.58553072
0.5860381
0.58651338
0.58696255
0.58739101
0.5878031
0.58820201
0.5885901
0.58896811
0.58932973
0.58963765
0.58971981
0.5888267
0.58376929
0.56966174
0.55144723
0.53415498
0.51818539
0.5033964
0.48967882
0.47693668
0.4650826
0.4540354
0.44371981
0.43406642
0.42501098
0.41649393
0.40846039
0.40085944
0.39364345
0.38676895
0.38019528
0.37388362
0.36779704
0.36189985
0.3561573
0.3505355
0.34500018
0.33951655
0.33404859
0.32855724
0.32300102
0.31733308
0.31149883
0.30543685
0.29907436
0.29231997
0.28505879
0.27714445
0.26838591
0.25852997
0.24723173
0.23400351
0.21816106
0.19879174
0.17486773
0.14594489
0.1133714
0.079811794
0.047067336
0.015637867
0.29856254
0.30013224
0.29998685
0.29997363
0.30136646
0.30203338
0.3048899
0.30559198
0.30530555
0.30158544
0.29981298
0.30267953
0.30664554
0.30580251
0.30528725
0.30815918
0.30899602
0.30926561
0.31144894
0.31250888
0.3138793
0.31581372
0.3173755
0.31944912
0.32153498
0.32377183
0.32624249
0.32879157
0.33154326
0.33438651
0.33739097
0.34056408
0.34396548
0.34758817
0.35138196
0.3553406
0.35947254
0.36378881
0.36829582
0.37299379
0.37789143
0.38299303
0.38830076
0.39381976
0.39954875
0.40548584
0.41162644
0.41796367
0.42448519
0.43117678
0.43801831
0.444987
0.45205375
0.45918782
0.46635409
0.47351601
0.4806341
0.48767014
0.49458442
0.50134132
0.50790538
0.51424564
0.52033512
0.5261529
0.53167789
0.53689899
0.5418058
0.54639482
0.55066389
0.55461751
0.55826104
0.56160284
0.56465559
0.56743183
0.56994537
0.57221201
0.57424904
0.57607368
0.57770327
0.5791551
0.58044686
0.58159352
0.58261158
0.58351665
0.58432284
0.58504104
0.58568412
0.58626226
0.58678561
0.58726155
0.58769714
0.58809773
0.58846801
0.58881149
0.58913018
0.5894247
0.58969309
0.58992455
0.59007337
0.5899487
0.58875886
0.58335724
0.568939
0.55023104
0.53246543
0.5160204
0.5007377
0.48651108
0.47324571
0.46085542
0.44926055
0.43838776
0.42816991
0.41854515
0.40945633
0.40085091
0.39268008
0.38489812
0.37746321
0.37033606
0.3634789
0.35685549
0.35043055
0.34416945
0.3380382
0.33200221
0.32602618
0.32007347
0.31410426
0.30807636
0.30194219
0.29564653
0.28912777
0.2823135
0.27511338
0.26741481
0.25907571
0.24991241
0.23968374
0.22806373
0.21459381
0.19863551
0.17935041
0.15584406
0.1279344
0.097355746
0.066997638
0.03859234
0.012472295
0.29855625
0.30013139
0.29998831
0.299969
0.30136353
0.30202083
0.30488508
0.30560074
0.30534106
0.30161223
0.29981332
0.3026444
0.30664842
0.3058274
0.30528289
0.30815215
0.30901026
0.30926268
0.31144833
0.31251304
0.31387453
0.31581192
0.31737025
0.31944095
0.32152513
0.32375748
0.32622545
0.3287709
0.33151984
0.33435961
0.33735912
0.3405254
0.34391882
0.34753413
0.35132104
0.35527284
0.35939783
0.36370733
0.3682061
0.37289671
0.37778703
0.38288143
0.38818231
0.39369506
0.39941869
0.40535162
0.41148964
0.41782625
0.42434958
0.43104583
0.43789537
0.44487585
0.45195859
0.45911322
0.46630489
0.47349723
0.48065083
0.48772741
0.49468703
0.50149377
0.50811172
0.51450942
0.52065921
0.52653959
0.5321287
0.53741485
0.54238693
0.54704089
0.55137394
0.55539011
0.55909428
0.56249439
0.56560275
0.56843156
0.5709943
0.57330644
0.575385
0.57724688
0.57890911
0.58038876
0.58170273
0.58286651
0.58389585
0.58480574
0.58560992
0.58632003
0.58694781
0.5875033
0.58799678
0.58843485
0.58882499
0.58917276
0.58948328
0.58976082
0.59000865
0.59022933
0.59042393
0.59058597
0.59067491
0.59050303
0.58927789
0.58395804
0.56978989
0.55099299
0.53303783
0.51639736
0.50092484
0.48652434
0.47310132
0.46056846
0.44884432
0.43785358
0.4275271
0.41780117
0.40861688
0.39992013
0.39166084
0.38379224
0.37627176
0.36905958
0.36211756
0.35540928
0.34889938
0.34255328
0.33633714
0.33021663
0.3241568
0.31812149
0.31207145
0.30596523
0.29975615
0.29339007
0.28680677
0.27993551
0.27268793
0.26495384
0.25659399
0.247428
0.23721853
0.22564394
0.21225104
0.19640928
0.1772964
0.15405625
0.12656931
0.096556992
0.066727315
0.038638301
0.012571192
0.29854987
0.30013047
0.29998981
0.29996424
0.30136041
0.30200784
0.3048798
0.30560955
0.3053778
0.30164007
0.2998141
0.30260792
0.30665067
0.30585343
0.30527856
0.30814445
0.30902492
0.3092597
0.31144742
0.31251727
0.31386951
0.3158099
0.31736477
0.3194324
0.32151489
0.3237426
0.3262078
0.3287495
0.3314956
0.33433184
0.33732636
0.3404857
0.34387099
0.34747874
0.3512586
0.3552034
0.35932132
0.36362384
0.36811402
0.37279735
0.37768011
0.38276708
0.38806086
0.3935671
0.39928507
0.40521351
0.41134857
0.41768417
0.42420888
0.43090932
0.43776636
0.4447581
0.4518563
0.45903094
0.46624749
0.47346975
0.48065842
0.48777515
0.49477984
0.50163625
0.50830803
0.51476323
0.52097355
0.52691689
0.53257061
0.53792243
0.54296054
0.5476803
0.5520783
0.55615806
0.55992398
0.56338352
0.56654861
0.56943106
0.57204397
0.57440246
0.57652319
0.57842272
0.58011772
0.58162491
0.58296065
0.58414056
0.58517996
0.58609344
0.58689444
0.58759492
0.58820605
0.58873809
0.589201
0.58960255
0.58995014
0.5902499
0.59050765
0.59072847
0.59091652
0.59107519
0.59120649
0.5913035
0.59132525
0.59108132
0.58978413
0.58455849
0.57080999
0.55202086
0.53383316
0.51692444
0.50117643
0.48650833
0.47282454
0.46003788
0.44806703
0.43683665
0.42627767
0.41632628
0.40692311
0.39801351
0.38954691
0.38147609
0.37375812
0.36635292
0.35922211
0.35232912
0.34563844
0.33911538
0.33272606
0.32643613
0.32021067
0.31401358
0.30780574
0.3015459
0.29518768
0.2886773
0.28195514
0.27495127
0.26757841
0.2597278
0.25126221
0.2420041
0.23172009
0.22009421
0.20668144
0.19086393
0.17184094
0.14879831
0.12169724
0.092348679
0.063464676
0.036541949
0.011810212
0.2985434
0.30012949
0.29999135
0.29995937
0.30135709
0.30199447
0.30487409
0.30561839
0.30541568
0.30166887
0.29981538
0.30257019
0.30665227
0.30588061
0.3052743
0.30813609
0.30904
0.30925667
0.31144621
0.31252157
0.31386427
0.31580767
0.31735908
0.31942348
0.32150427
0.3237272
0.32618954
0.32872739
0.33147056
0.33430322
0.33729269
0.34044503
0.34382203
0.34742203
0.35119468
0.35513233
0.35924306
0.36353809
0.36801994
0.37269572
0.37757072
0.38265004
0.38793649
0.39343595
0.39914798
0.4050716
0.41120335
0.41753754
0.42406318
0.43076734
0.43763138
0.44463385
0.45174694
0.45894103
0.4661819
0.47343356
0.48065681
0.48781327
0.49486267
0.50176851
0.508494
0.51500671
0.5212777
0.52728426
0.53300303
0.53842108
0.54352592
0.54831231
0.55277618
0.55692057
0.56074933
0.56426947
0.56749249
0.57042979
0.57309407
0.57550006
0.57766404
0.57960221
0.58133089
0.58286644
0.58422489
0.58542171
0.58647198
0.58739007
0.58818936
0.58888205
0.58947928
0.58999158
0.59042901
0.59080041
0.59111339
0.59137479
0.5915912
0.59176848
0.59191155
0.59202463
0.59211039
0.59216263
0.59214117
0.5918576
0.59054375
0.5855261
0.5724299
0.55385876
0.53553303
0.51844167
0.50250885
0.48767639
0.47383983
0.46091046
0.44880525
0.43744697
0.42676542
0.41669632
0.40717861
0.39815625
0.3895777
0.3813951
0.37356517
0.3660477
0.35880436
0.35179872
0.34499552
0.33836036
0.33185973
0.32545968
0.31912575
0.31282238
0.30651098
0.30015096
0.29369667
0.2870951
0.28028761
0.27320537
0.26576239
0.2578514
0.24933695
0.24004359
0.2297404
0.21811429
0.20472373
0.18895541
0.17001605
0.14710684
0.12021659
0.091169264
0.062636703
0.036063685
0.011656689
0.29853684
0.30012844
0.29999293
0.29995437
0.30135359
0.30198068
0.30486792
0.30562724
0.30545475
0.30169873
0.29981722
0.30253115
0.30665311
0.305909
0.30527012
0.308127
0.30905549
0.30925362
0.31144465
0.31252597
0.31385879
0.31580521
0.31735317
0.31941417
0.32149326
0.32371128
0.32617065
0.32870453
0.33144468
0.33427371
0.33725808
0.34040334
0.34377189
0.34736398
0.35112923
0.35505958
0.35916303
0.36345007
0.36792382
0.37259177
0.3774588
0.38253027
0.38780916
0.39330159
0.39900739
0.40492588
0.41105397
0.41738636
0.42391251
0.43061993
0.43749047
0.44450314
0.45163059
0.45884359
0.46610823
0.47338877
0.48064612
0.4878419
0.49493569
0.50189073
0.50866982
0.51524005
0.52157185
0.52764194
0.53342619
0.53891105
0.54408333
0.54893719
0.5534679
0.55767797
0.56157074
0.56515272
0.56843497
0.57142848
0.57414551
0.57660044
0.57880916
0.58078753
0.58255151
0.5841172
0.58550035
0.58671632
0.58778004
0.58870588
0.58950731
0.59019673
0.59078557
0.59128471
0.59170468
0.59205504
0.59234394
0.59257889
0.59276712
0.59291514
0.59302843
0.59311175
0.59316794
0.59319206
0.59314546
0.59284722
0.59156802
0.58684244
0.57447199
0.55621114
0.53777879
0.5205215
0.50442672
0.4894174
0.47540847
0.4623139
0.45005013
0.43853783
0.42770608
0.41749475
0.40783891
0.39868097
0.38996853
0.38165317
0.37369124
0.36604239
0.35866831
0.35153274
0.34460051
0.33783735
0.33120993
0.32468457
0.31822711
0.31180235
0.30537211
0.29889627
0.29232967
0.28561987
0.27870892
0.27152882
0.26399449
0.25599979
0.24741066
0.23805341
0.22769929
0.21603796
0.20263137
0.18687088
0.16797004
0.14514257
0.11840279
0.089606399
0.061428515
0.035290598
0.011377609
0.29853018
0.30012731
0.29999457
0.29994926
0.30134987
0.30196649
0.30486124
0.30563609
0.305495
0.30172971
0.29981967
0.30249078
0.30665311
0.30593866
0.30526605
0.30811715
0.3090714
0.30925056
0.31144274
0.31253046
0.31385307
0.31580252
0.31734703
0.31940446
0.32148184
0.32369483
0.32615112
0.32868092
0.33141795
0.3342433
0.33722253
0.34036063
0.34372058
0.34730455
0.35106224
0.35498513
0.35908121
0.36335985
0.36782553
0.37248547
0.37734434
0.38240775
0.38767885
0.393164
0.3988633
0.40477634
0.41090043
0.41723065
0.42375689
0.43046712
0.43734368
0.44436604
0.45150731
0.45873867
0.46602657
0.47333547
0.48062645
0.48786114
0.49499899
0.50200299
0.50883557
0.51546333
0.52185609
0.52798998
0.53384015
0.5393924
0.54463283
0.549555
0.55415352
0.55843036
0.56238833
0.56603343
0.56937631
0.57242751
0.57519892
0.57770452
0.57995985
0.58198046
0.58378204
0.58538044
0.58679126
0.58802979
0.58911096
0.5900492
0.59085821
0.59155069
0.59213843
0.59263277
0.59304476
0.59338452
0.5936608
0.59388166
0.59405484
0.59418735
0.59428512
0.59435327
0.59439508
0.59440659
0.59435245
0.59406497
0.59287123
0.58852295
0.5769652
0.55910417
0.54060227
0.52319823
0.50695249
0.4917972
0.47764949
0.46442364
0.45203602
0.44040765
0.42946536
0.41914146
0.40937344
0.40010407
0.39128071
0.38285446
0.37478119
0.36701992
0.35953303
0.35228519
0.34524077
0.33836544
0.33162601
0.32498907
0.31842082
0.31188652
0.3053485
0.29876715
0.29209791
0.28528889
0.27828281
0.27101247
0.26339365
0.25532117
0.24666215
0.23724425
0.22684034
0.21514193
0.20171298
0.18594707
0.16706012
0.14426917
0.11759684
0.088912645
0.060894581
0.034951836
0.011256785
0.29852343
0.30012611
0.29999626
0.29994402
0.30134595
0.30195188
0.30485403
0.30564492
0.30553645
0.30176193
0.29982275
0.30244904
0.30665218
0.30596966
0.30526209
0.30810648
0.30908775
0.30924751
0.31144045
0.31253504
0.31384711
0.31579958
0.31734066
0.31939434
0.32147002
0.32367781
0.32613093
0.32865653
0.33139033
0.33421194
0.33718599
0.34031686
0.34366805
0.34724373
0.35099367
0.35490894
0.35899753
0.36326744
0.36772503
0.37237676
0.3772273
0.38228244
0.38754554
0.39302316
0.39871569
0.40462299
0.41074273
0.41707041
0.42359634
0.43030894
0.43719103
0.44422258
0.45137715
0.45862635
0.46593696
0.47327373
0.48059787
0.48787106
0.49505263
0.50210536
0.50899133
0.51567661
0.52213048
0.52832846
0.53424498
0.53986518
0.54517448
0.55016582
0.55483312
0.55917784
0.56320224
0.56691182
0.5703168
0.57342733
0.57625489
0.57881312
0.58111727
0.58318261
0.5850246
0.58665895
0.58810118
0.58936656
0.59047012
0.59142647
0.59224954
0.59295242
0.59354728
0.59404588
0.59445976
0.59479957
0.59507452
0.59529308
0.59546341
0.59559285
0.59568762
0.59575307
0.59579284
0.59580394
0.59575508
0.59549523
0.59441743
0.59049286
0.57980995
0.56243995
0.54389663
0.52635481
0.50996374
0.49466592
0.48038102
0.46702383
0.45451055
0.44276166
0.43170327
0.42126683
0.41138902
0.40201178
0.39308178
0.38454958
0.37637068
0.36850411
0.36091105
0.35355496
0.34640081
0.33941467
0.33256373
0.3258149
0.31913466
0.31248861
0.30584037
0.29915062
0.29237511
0.28546241
0.27835578
0.27098865
0.26327748
0.25511789
0.24637794
0.2368864
0.22641749
0.21466423
0.20119216
0.18539632
0.16649327
0.1436993
0.11703858
0.088395284
0.060466378
0.034662715
0.01114739
0.2985166
0.30012482
0.29999801
0.29993865
0.3013418
0.30193684
0.30484626
0.30565371
0.30557912
0.30179552
0.29982648
0.30240591
0.30665023
0.30600206
0.30525828
0.30809495
0.30910453
0.30924447
0.31143774
0.31253972
0.31384091
0.31579637
0.31733407
0.31938379
0.32145777
0.32366023
0.32611007
0.32863133
0.3313618
0.33417963
0.33714846
0.34027202
0.34361429
0.34718148
0.35092349
0.35483097
0.35891195
0.36317287
0.36762225
0.37226562
0.37710763
0.38215432
0.38740919
0.39287905
0.39856454
0.40446579
0.41058087
0.41690564
0.42343086
0.43014538
0.43703256
0.4440728
0.45124016
0.45850667
0.46583948
0.47320361
0.48056045
0.48787174
0.4950967
0.50219793
0.50913715
0.51587998
0.52239508
0.52865744
0.53464073
0.54032947
0.54570835
0.5507697
0.55550679
0.5599205
0.56401259
0.56778805
0.57125669
0.57442827
0.57731391
0.57992695
0.58228237
0.58439524
0.58628087
0.58795488
0.58943277
0.5907299
0.5918614
0.59284211
0.59368627
0.59440729
0.59501772
0.5955297
0.59595517
0.59630517
0.59658929
0.5968163
0.59699461
0.59713181
0.59723426
0.59730749
0.5973554
0.59737605
0.59734266
0.59712272
0.59617947
0.59270176
0.58294098
0.56616556
0.5476185
0.52995198
0.51342636
0.49799627
0.48358401
0.47010506
0.45747563
0.44561581
0.43445108
0.42391211
0.41393467
0.40445983
0.39543336
0.38680508
0.37852984
0.37056617
0.36287492
0.35541937
0.34816442
0.34107622
0.33412219
0.32726953
0.32048515
0.31373507
0.30698237
0.30018835
0.29330937
0.28629457
0.27908781
0.27162318
0.26381777
0.25556792
0.2467424
0.23717081
0.22662865
0.2148101
0.20128155
0.18543828
0.16649525
0.14366301
0.11695823
0.08827346
0.060331389
0.034554449
0.011101017
0.29850967
0.30012345
0.29999983
0.29993316
0.30133741
0.30192137
0.30483787
0.30566243
0.30562301
0.30183069
0.29983081
0.30236138
0.30664716
0.30603589
0.30525465
0.3080825
0.30912177
0.30924147
0.31143459
0.31254451
0.31383446
0.31579289
0.31732723
0.3193728
0.32144508
0.32364207
0.3260885
0.32860532
0.33133232
0.33414632
0.33710988
0.34022607
0.34355927
0.34711778
0.35085166
0.35475117
0.35882437
0.36307618
0.36751715
0.372152
0.3769853
0.38202333
0.38726977
0.39273162
0.39840981
0.40430473
0.41041482
0.41673632
0.42326044
0.42997647
0.43686827
0.44391672
0.45109636
0.45837966
0.46573416
0.47312516
0.48051425
0.48786322
0.49513126
0.50228075
0.5092731
0.51607348
0.52264995
0.52897697
0.53502746
0.5407853
0.54623448
0.55136671
0.55617457
0.56065842
0.56481948
0.56866225
0.57219615
0.57543058
0.57837634
0.5810465
0.58345584
0.58561927
0.58755203
0.5892697
0.59078783
0.59212187
0.59328715
0.59429871
0.59517107
0.59591795
0.59655222
0.5970863
0.59753243
0.59790197
0.59820473
0.59844968
0.59864539
0.59879955
0.59891864
0.59900825
0.5990725
0.59911047
0.59909995
0.5989274
0.59812663
0.59509909
0.58628922
0.57021743
0.55171052
0.53392909
0.51727503
0.50171769
0.48718215
0.47358487
0.46084241
0.44887484
0.43760726
0.42696972
0.41689718
0.4073298
0.39821245
0.38949405
0.3811287
0.37307429
0.36529116
0.35774224
0.35039222
0.34320718
0.33615457
0.32920175
0.32231585
0.31546319
0.3086072
0.30170958
0.29472713
0.28760942
0.28030085
0.27273604
0.2648327
0.25648778
0.24757079
0.23791218
0.22728795
0.21539296
0.20179414
0.18588641
0.16688169
0.14398107
0.1171865
0.088395615
0.060366561
0.034544481
0.011086414
0.29850267
0.30012199
0.30000172
0.29992754
0.30133279
0.30190546
0.30482884
0.30567106
0.3056681
0.30186761
0.2998357
0.30231542
0.30664288
0.3060712
0.30525122
0.30806907
0.30913948
0.30923853
0.31143098
0.3125494
0.31382775
0.31578911
0.31732016
0.31936135
0.32143194
0.3236233
0.32606622
0.32857845
0.33130188
0.33411198
0.33707024
0.34017899
0.34350297
0.34705258
0.35077815
0.35466951
0.35873471
0.36297737
0.36740966
0.37203583
0.37686024
0.38188943
0.38712722
0.39258084
0.39825147
0.40413977
0.41024454
0.41656244
0.42308508
0.4298022
0.43669817
0.44375435
0.45094578
0.45824537
0.46562105
0.47303843
0.48045931
0.48784557
0.49515636
0.50235388
0.50939924
0.51625717
0.52289515
0.52928709
0.5354052
0.54123273
0.54675292
0.55195688
0.55683652
0.56139165
0.56562298
0.56953452
0.57313532
0.57643446
0.57944244
0.58217211
0.58463811
0.58685526
0.58883875
0.5906042
0.59216723
0.59354344
0.59474831
0.59579711
0.59670459
0.59748473
0.59815062
0.59871489
0.59918998
0.59958743
0.59991721
0.60018836
0.60040953
0.60058847
0.60073167
0.60084476
0.60093205
0.60099354
0.60101146
0.60089069
0.60023324
0.59764512
0.58979714
0.57454186
0.55613164
0.53824674
0.52147128
0.50579293
0.49113945
0.47742853
0.46457744
0.45250651
0.44114075
0.43040977
0.4202478
0.41059413
0.40139269
0.39259143
0.38414358
0.37600622
0.36813907
0.36050452
0.35306691
0.3457921
0.33864744
0.33160033
0.32461804
0.31766711
0.31071125
0.30371252
0.29662809
0.28940794
0.28199695
0.27433025
0.26632603
0.25788177
0.24886755
0.23911438
0.22839889
0.21641645
0.20273407
0.18674563
0.16765868
0.14466188
0.1177364
0.088780394
0.060592861
0.034649636
0.011110744
0.29849558
0.30012043
0.30000368
0.29992179
0.30132791
0.30188911
0.30481913
0.30567957
0.30571441
0.30190646
0.29984109
0.30226803
0.30663729
0.30610802
0.30524803
0.3080546
0.30915765
0.30923568
0.31142686
0.3125544
0.31382079
0.31578502
0.31731283
0.31934942
0.32141832
0.32360392
0.3260432
0.32855072
0.33127044
0.33407658
0.33702949
0.34013075
0.34344534
0.34698587
0.3507029
0.35458592
0.35864293
0.36287646
0.36729971
0.37191707
0.37673242
0.38175257
0.3869815
0.39242665
0.39808948
0.40397088
0.41007003
0.41638398
0.42290476
0.42962256
0.43652225
0.4435857
0.45078843
0.45810381
0.46550018
0.47294345
0.48039568
0.48781884
0.49517205
0.50241736
0.50951561
0.5164311
0.52313071
0.52958786
0.53577402
0.54167179
0.54726371
0.55254026
0.55749268
0.56212025
0.56642314
0.57040492
0.57407427
0.57743999
0.5805123
0.58330391
0.58582934
0.58810336
0.59014118
0.5919585
0.59357103
0.5949945
0.59624458
0.5973367
0.59828581
0.59910607
0.59981072
0.60041249
0.60092393
0.60135669
0.60172079
0.60202528
0.6022788
0.60248913
0.60266272
0.6028052
0.60292104
0.60301106
0.60306157
0.60299463
0.60247616
0.60030593
0.59341214
0.57908396
0.56084107
0.54286466
0.5259739
0.51017973
0.4954124
0.48159102
0.46863395
0.45646222
0.44500107
0.43417989
0.42393236
0.41419698
0.40491674
0.39603858
0.38751476
0.37930144
0.37135752
0.36364472
0.35612683
0.34876931
0.34153927
0.33440399
0.32733074
0.32028618
0.31323421
0.30613714
0.29895249
0.29163057
0.28411668
0.27634641
0.26823839
0.25969055
0.25057343
0.24071854
0.22990294
0.2178223
0.20404341
0.18795851
0.16876967
0.1456503
0.11855532
0.089380247
0.060971716
0.034844716
0.011164872
0.29848841
0.30011876
0.30000573
0.2999159
0.30132276
0.3018723
0.30480869
0.30568793
0.30576192
0.3019474
0.29984692
0.3022192
0.30663028
0.30614636
0.30524511
0.30803903
0.30917629
0.30923294
0.31142221
0.31255952
0.31381358
0.3157806
0.31730526
0.31933701
0.32140423
0.3235839
0.32601941
0.32852208
0.33123796
0.33404008
0.33698759
0.3400813
0.34338636
0.34691759
0.35062589
0.35450038
0.35854895
0.36277348
0.36718718
0.37179565
0.37660176
0.38161269
0.38683256
0.39226902
0.39792378
0.40379801
0.40989124
0.41620089
0.42271945
0.42943752
0.43634052
0.44341077
0.45062432
0.45795499
0.46537156
0.47284026
0.48032339
0.48778305
0.49517836
0.50247124
0.50962225
0.5165953
0.52335669
0.52987931
0.53613393
0.54210252
0.54776687
0.55311688
0.55814308
0.56284423
0.56721999
0.57127347
0.57501302
0.57844717
0.58158594
0.58444187
0.58702943
0.58936341
0.59145905
0.59333213
0.59499852
0.59647406
0.59777457
0.59891561
0.59991229
0.60077886
0.60152865
0.60217441
0.6027287
0.60320321
0.60360794
0.60395189
0.60424366
0.60449097
0.60470025
0.60487711
0.6050261
0.60514881
0.60523514
0.60522264
0.60483555
0.60305427
0.59708911
0.58379057
0.56580288
0.54774912
0.53074944
0.51484499
0.49996808
0.48603939
0.47297883
0.46070854
0.44915435
0.43824571
0.42791597
0.41810296
0.40874878
0.39979938
0.39120595
0.38292367
0.37491046
0.36712721
0.35953697
0.35210463
0.34479687
0.33758066
0.33042312
0.32329087
0.31614786
0.30895659
0.30167479
0.29425306
0.28663702
0.27876267
0.27054902
0.26189439
0.2526697
0.24270682
0.23178314
0.21959442
0.20570693
0.18951081
0.17020161
0.14693512
0.11963493
0.090190297
0.061501122
0.035129301
0.011248939
0.29848117
0.30011698
0.30000787
0.29990988
0.30131734
0.30185503
0.30479749
0.30569611
0.30581061
0.30199053
0.29985318
0.30216893
0.30662177
0.30618623
0.3052425
0.30802231
0.30919539
0.30923034
0.31141699
0.31256475
0.3138061
0.31577583
0.31729743
0.31932408
0.32138963
0.32356322
0.32599483
0.32849252
0.33120441
0.33400244
0.33694452
0.34003063
0.343326
0.34684771
0.35054706
0.35441281
0.35845273
0.36266851
0.36707189
0.3716715
0.37646821
0.38146972
0.38668033
0.39210788
0.39775433
0.40362111
0.40970811
0.41601315
0.42252911
0.42924707
0.43615294
0.44322955
0.45045345
0.45779894
0.46523522
0.47272888
0.48024248
0.48773826
0.49517536
0.50251557
0.50971922
0.51674982
0.52357312
0.53016149
0.53648499
0.54252495
0.54826246
0.55368678
0.55878776
0.56356362
0.56801355
0.57214017
0.57595155
0.57945596
0.58266321
0.58558577
0.58823806
0.5906349
0.59279162
0.59472412
0.59644836
0.59798034
0.59933598
0.60053096
0.60158044
0.60249877
0.60329927
0.60399463
0.60459737
0.60511914
0.6055699
0.60595853
0.60629354
0.6065826
0.60683208
0.60704754
0.60723363
0.60739252
0.60751723
0.60755885
0.60729365
0.60586751
0.60078885
0.58860771
0.57098136
0.55286751
0.53576534
0.51975617
0.50477373
0.49074044
0.4775782
0.46521073
0.45356484
0.4425704
0.43216066
0.42227295
0.41284861
0.40383264
0.39517518
0.38683031
0.3787549
0.37090883
0.36325429
0.35575538
0.34837813
0.34108904
0.33385484
0.32664196
0.31941423
0.31213415
0.30475957
0.29724122
0.289525
0.28154721
0.27322717
0.26446349
0.25512741
0.24505105
0.23401198
0.22170592
0.20769836
0.19137691
0.17192985
0.14849325
0.12095489
0.091194101
0.062168991
0.035495926
0.011360337
0.29847386
0.30011509
0.3000101
0.29990371
0.30131164
0.30183731
0.30478547
0.30570406
0.30586045
0.30203593
0.2998599
0.30211723
0.30661164
0.30622764
0.30524022
0.30800437
0.30921496
0.30922791
0.31141116
0.3125701
0.31379836
0.31577069
0.31728933
0.31931061
0.32137451
0.32354187
0.32596944
0.328462
0.33116976
0.33396363
0.33690021
0.33997868
0.34326421
0.34677619
0.35046638
0.35432318
0.35835423
0.36256149
0.3669538
0.37154455
0.37633169
0.38132362
0.38652476
0.39194317
0.39758107
0.40344013
0.40952061
0.4158207
0.42233372
0.42905118
0.43595951
0.44304203
0.45027582
0.45763565
0.46509117
0.47260933
0.48015296
0.48768448
0.49516306
0.50255039
0.50980656
0.51689471
0.52378005
0.53043444
0.53682723
0.54293914
0.54875051
0.55424999
0.55942673
0.56427845
0.56880381
0.57300501
0.57688979
0.58046621
0.58374392
0.58673527
0.58945472
0.59191711
0.59413787
0.59613303
0.59791867
0.59951092
0.60092577
0.60217899
0.60328578
0.60426048
0.60511638
0.60586607
0.60652195
0.60709563
0.60759693
0.60803463
0.60841709
0.60875192
0.60904542
0.60930308
0.60952962
0.60972769
0.60989288
0.60998785
0.60983421
0.60872686
0.60447841
0.59348137
0.57634049
0.55818893
0.54099117
0.52488312
0.50979933
0.49566409
0.48240168
0.46993792
0.45820103
0.44712165
0.43663322
0.4266728
0.41718111
0.40810231
0.39938553
0.39098376
0.38285275
0.3749513
0.36724053
0.3596836
0.3522457
0.34489261
0.33759051
0.33030536
0.32300068
0.3156388
0.30817747
0.30056745
0.29275473
0.2846758
0.27625018
0.26737668
0.25792674
0.24773264
0.23657201
0.22414035
0.21000215
0.19354216
0.17394068
0.15031238
0.1225052
0.092384568
0.062970941
0.035942374
0.011498454
0.29846649
0.30011307
0.30001243
0.2998974
0.30130564
0.30181912
0.30477259
0.30571176
0.30591141
0.30208373
0.29986713
0.30206413
0.30659978
0.30627061
0.30523833
0.30798518
0.30923498
0.30922569
0.3114047
0.31257555
0.31379036
0.31576515
0.31728095
0.3192966
0.32135884
0.32351981
0.3259432
0.3284305
0.33113395
0.3339236
0.33685463
0.33992541
0.34320096
0.34670299
0.35038378
0.35423142
0.35825338
0.36245209
0.3668332
0.37141467
0.37619215
0.38117429
0.38636576
0.39177482
0.39740393
0.40325501
0.40932868
0.41562349
0.42213323
0.42884981
0.43576019
0.4428482
0.45009141
0.45746512
0.46493942
0.47248162
0.48005488
0.48762176
0.49514151
0.50257573
0.5098843
0.51703001
0.52397752
0.53069821
0.53716071
0.54334513
0.54923107
0.55480656
0.56006005
0.56498874
0.56959078
0.57386794
0.57782766
0.58147778
0.58482777
0.58788994
0.59067873
0.59320908
0.5954965
0.59755712
0.59940719
0.6010629
0.60254036
0.60385534
0.60502309
0.60605791
0.606973
0.60778083
0.60849365
0.60912297
0.60967848
0.6101688
0.61060216
0.61098609
0.61132678
0.61162967
0.6118995
0.61213931
0.61234675
0.61249407
0.6124416
0.61161604
0.6081303
0.59835757
0.58184154
0.56368235
0.5463964
0.53019552
0.51501467
0.50077998
0.48741862
0.47485896
0.46303109
0.45186678
0.44129996
0.43126769
0.42171029
0.4125712
0.40379867
0.39534466
0.38716379
0.3792137
0.37145439
0.36384791
0.35635845
0.34895085
0.34159048
0.33424262
0.32687023
0.31943522
0.31189503
0.30420021
0.29629666
0.28812088
0.27959244
0.2706102
0.26104568
0.25073116
0.23944422
0.22687996
0.21260165
0.1959909
0.17621946
0.15237929
0.12427486
0.093753628
0.063901694
0.036465705
0.011662373
0.29845906
0.30011092
0.30001488
0.29989094
0.30129934
0.30180046
0.3047588
0.30571916
0.30596345
0.30213403
0.29987493
0.30200967
0.30658606
0.30631515
0.30523687
0.30796466
0.30925543
0.3092237
0.31139756
0.31258112
0.3137821
0.31575919
0.3172723
0.31928201
0.32134261
0.32349704
0.32591609
0.32839798
0.33109696
0.3338823
0.33680774
0.33987079
0.34313621
0.34662807
0.35029923
0.35413749
0.35815013
0.3623399
0.36671049
0.37128169
0.37604949
0.38102166
0.38620327
0.39160276
0.39722285
0.40306569
0.40913225
0.41542149
0.4219276
0.42864292
0.43555496
0.44264802
0.44990022
0.45728736
0.46477998
0.47234578
0.47994825
0.48755013
0.49511074
0.50259164
0.50995251
0.51715578
0.5241656
0.53095285
0.53748548
0.54374298
0.54970419
0.55535653
0.56068775
0.56569452
0.57037447
0.57472893
0.57876505
0.58249045
0.58591444
0.58904925
0.59190936
0.59450974
0.59686601
0.59899443
0.60091134
0.60263306
0.60417573
0.60555518
0.60678664
0.60788438
0.60886151
0.60973033
0.61050294
0.61119072
0.61180323
0.61234891
0.61283584
0.61327145
0.61366185
0.6140124
0.61432785
0.61461151
0.61486266
0.6150613
0.61510009
0.61452016
0.61172187
0.60318356
0.58744143
0.5693159
0.55194984
0.53566237
0.52038887
0.50605725
0.49259798
0.47994246
0.46802309
0.45677313
0.44612733
0.43602302
0.42640034
0.41720224
0.40837623
0.39987334
0.39164716
0.38365418
0.37585324
0.3682052
0.36067311
0.3532207
0.34581233
0.33841234
0.33098287
0.32348512
0.31587595
0.30810541
0.30011907
0.2918532
0.28322717
0.27413971
0.26446219
0.25402677
0.24261071
0.22990858
0.21548223
0.1987098
0.17875412
0.15468334
0.12625542
0.095295627
0.064958036
0.03706445
0.011851763
0.29845158
0.30010863
0.30001743
0.29988433
0.30129273
0.30178132
0.30474406
0.30572621
0.30601649
0.30218702
0.29988334
0.3019539
0.30657033
0.30636128
0.30523588
0.30794277
0.30927629
0.309222
0.3113897
0.31258679
0.31377357
0.31575278
0.31726335
0.31926682
0.3213258
0.32347352
0.32588808
0.3283644
0.33105874
0.33383969
0.33675948
0.33981477
0.34306991
0.34655138
0.35021267
0.35404132
0.35804442
0.36222494
0.36658559
0.37114548
0.37590361
0.38086567
0.38603721
0.39142692
0.39703775
0.40287209
0.40893128
0.41521462
0.42171676
0.42843047
0.43534377
0.44244148
0.44970224
0.45710235
0.46461284
0.47220182
0.47983309
0.48746961
0.4950708
0.50259817
0.51001122
0.51727206
0.52434434
0.53119845
0.53780162
0.54413276
0.55016995
0.55589998
0.5613099
0.56639583
0.57115489
0.57558794
0.57970187
0.58350403
0.58700358
0.59021268
0.59314579
0.59581795
0.59824486
0.60044288
0.60242845
0.60421798
0.60582768
0.6072734
0.60857037
0.60973284
0.61077382
0.61170547
0.6125397
0.61328779
0.61395915
0.61456204
0.61510437
0.61559348
0.6160354
0.61643537
0.61679816
0.61712727
0.61742321
0.6176721
0.61779303
0.61742451
0.61523423
0.60790891
0.59309108
0.57505575
0.55761836
0.54125055
0.5258889
0.51146285
0.49790653
0.48515489
0.47314302
0.46180604
0.45107982
0.44090222
0.43121348
0.42195627
0.41307755
0.40452761
0.39625912
0.38822755
0.3803906
0.37270796
0.36514146
0.35765364
0.35020763
0.34276666
0.33529177
0.32774316
0.32007682
0.31224197