/*--------------------------------*- C++ -*----------------------------------*\
| =========                 |                                                 |
| \\      /  F ield         | OpenFOAM: The Open Source CFD Toolbox           |
|  \\    /   O peration     | Version:  2506                                  |
|   \\  /    A nd           | Website:  www.openfoam.com                      |
|    \\/     M anipulation  |                                                 |
\*---------------------------------------------------------------------------*/
FoamFile
{
    version     2.0;
    format      ascii;
    arch        "LSB;label=32;scalar=64";
    class       volScalarField;
    location    "1.1";
    object      Cp;
}
// * * * * * * * * * * * * * * * * * * * * * * * * * * * * * * * * * * * * * //

dimensions      [0 0 0 0 0 0 0];

internalField   nonuniform List<scalar> 
1375
(
0.039263574
0.041880563
0.043765827
0.046246443
0.050134914
0.054326188
0.058602574
0.064182611
0.070805614
0.077401925
0.084315962
0.092540347
0.10199399
0.11333037
0.12815772
0.14650511
0.16708775
0.18963468
0.21542264
0.24714121
0.28836192
0.34296819
0.41563881
0.51339918
0.64973885
0.84046755
0.03149745
0.02524064
0.020995031
0.020789935
0.021757498
0.022543351
0.023104431
0.0232602
0.02339609
0.023752611
0.024333129
0.024958639
0.025651628
0.026444891
0.027135115
0.027766345
0.028820974
0.030353921
0.031819267
0.032800172
0.033671652
0.034814904
0.036554975
0.03910181
0.041729943
0.043678888
0.046180743
0.050115063
0.054309838
0.058567695
0.064045632
0.070545113
0.0772447
0.084213343
0.092348982
0.10169226
0.11299565
0.12799133
0.14664974
0.16727977
0.18946646
0.21473263
0.24616522
0.28754876
0.34244384
0.41507225
0.51251947
0.64803259
0.83746018
0.031050278
0.024980213
0.0209821
0.020976945
0.022096138
0.022711594
0.023247791
0.023560187
0.023584083
0.023750878
0.024249621
0.024910784
0.025629795
0.026413354
0.027051483
0.027660441
0.028784882
0.030300884
0.031621429
0.032512519
0.033456137
0.034574778
0.036231931
0.038720337
0.041292809
0.043244085
0.045853958
0.049827409
0.053905519
0.05815783
0.063548275
0.069826512
0.076455777
0.08343236
0.091499738
0.10068249
0.11193626
0.12714152
0.14600715
0.16648437
0.18817591
0.21283647
0.2438838
0.28527265
0.3401012
0.41204702
0.50798734
0.6412627
0.82685825
0.030439445
0.024854079
0.021111734
0.021157838
0.022242689
0.023120028
0.023473532
0.023614376
0.023696342
0.023869529
0.024227778
0.024797367
0.025531633
0.026332356
0.026907916
0.027466655
0.028601218
0.030059796
0.031217604
0.032070981
0.033058342
0.034114673
0.03564675
0.038054371
0.040492399
0.042383139
0.045133496
0.049065554
0.052910586
0.057150021
0.062410056
0.068359627
0.074743156
0.08166257
0.089636547
0.09859556
0.10978638
0.12510145
0.14385475
0.1638283
0.184834
0.20880545
0.23941346
0.28041823
0.33457331
0.40478589
0.49812186
0.62696495
0.80618203
0.029732556
0.024752439
0.021305474
0.02144221
0.022290373
0.023233
0.023800748
0.023616081
0.0237012
0.023921658
0.024202071
0.024693808
0.025427417
0.026229767
0.026689785
0.027186999
0.02829766
0.029665879
0.030664741
0.031483872
0.03245043
0.033422234
0.034834622
0.037157389
0.03937801
0.04118893
0.044065753
0.047850669
0.051405843
0.055615012
0.060671569
0.066203665
0.072236679
0.079089448
0.086915268
0.095642682
0.10677341
0.12199163
0.14015931
0.1593149
0.17956455
0.20289799
0.23289458
0.27340339
0.32602067
0.39391505
0.48458958
0.60664618
0.77519236
0.029054622
0.024684903
0.021604872
0.021839751
0.022606321
0.023314002
0.023898472
0.024074564
0.024100431
0.024073814
0.024249433
0.024706718
0.02542644
0.026113071
0.026373026
0.026825741
0.027912406
0.029162444
0.029971722
0.030740083
0.031668555
0.032556627
0.033878029
0.036103742
0.03803926
0.039799905
0.042785087
0.046332821
0.049573811
0.053691737
0.058443532
0.063492501
0.06918006
0.075969545
0.083598739
0.092138681
0.10319246
0.11801521
0.13526277
0.15345685
0.17294403
0.19556748
0.22513892
0.26439206
0.31529658
0.3807947
0.46507036
0.5825087
0.73609745
0.028369425
0.024640175
0.021917041
0.022249911
0.023022354
0.023574998
0.023935633
0.024318297
0.024321017
0.024199896
0.024346144
0.024775811
0.025420304
0.02587537
0.025948282
0.026343638
0.027409557
0.028521613
0.029181969
0.029897905
0.030769715
0.031487742
0.032723837
0.034860895
0.036491456
0.038291804
0.041368768
0.044568651
0.047462003
0.051391347
0.055747583
0.060314993
0.065730102
0.072415662
0.079830474
0.088202632
0.099068828
0.1131789
0.12934381
0.14655923
0.16525734
0.18730399
0.21655493
0.25453216
0.30350815
0.36496785
0.44408669
0.55033613
0.68911993
0.027991318
0.0247371
0.022209998
0.022400457
0.023243469
0.023781929
0.023998934
0.024259382
0.024274954
0.024170221
0.024378531
0.024784809
0.025267924
0.025423025
0.025417928
0.025795367
0.026866381
0.027822463
0.028299066
0.028897439
0.02969192
0.030189694
0.031396363
0.03340818
0.034731385
0.036698743
0.039775813
0.042465757
0.045024925
0.048699355
0.052620689
0.056762274
0.06195684
0.068482151
0.075653
0.083829759
0.094274679
0.1074241
0.12244784
0.13867996
0.15666612
0.17839356
0.20645053
0.2429872
0.28924106
0.3456611
0.42138813
0.51599827
0.63374819
0.027523114
0.02461719
0.022533039
0.022504241
0.023346299
0.023811191
0.023963354
0.024049485
0.024067784
0.023981073
0.024267065
0.02462583
0.024953716
0.024889223
0.02490181
0.025347056
0.02636168
0.027037693
0.027292771
0.027826971
0.028545784
0.028842788
0.030081289
0.031862745
0.032928093
0.035105276
0.037970245
0.040051646
0.042368387
0.045740835
0.049197699
0.052945749
0.057925988
0.064239602
0.071081475
0.07893422
0.088718245
0.10090874
0.1145947
0.13038362
0.14755359
0.16930783
0.19602556
0.2308077
0.27246177
0.32649506
0.39209301
0.47556937
0.57118378
0.027317287
0.024591785
0.022731048
0.022807751
0.023425887
0.023747455
0.023817446
0.023817279
0.023791966
0.023704452
0.024022822
0.024370233
0.024546269
0.024351164
0.024402707
0.024926224
0.02588133
0.026232851
0.026313497
0.026814009
0.027383399
0.027445782
0.028689164
0.030190103
0.031155081
0.033462138
0.035881775
0.037421026
0.039562936
0.042561002
0.045558785
0.048951768
0.05374715
0.059741837
0.066146124
0.073503932
0.082537544
0.093595018
0.10644581
0.1210822
0.13772614
0.1581116
0.1836184
0.21588719
0.25426109
0.30555367
0.36526364
0.43112759
0.49900899
0.026915111
0.024659684
0.02300442
0.023138329
0.023647902
0.023718815
0.023666869
0.023716216
0.023470308
0.023387607
0.023715196
0.02401006
0.024070936
0.023900712
0.023909411
0.02442562
0.025296861
0.025275538
0.025235271
0.025751804
0.026006186
0.025851397
0.027078586
0.0283769
0.029413573
0.031613596
0.033478311
0.034629171
0.036568548
0.039113792
0.041703105
0.044841481
0.049492037
0.05500374
0.060844356
0.06763948
0.076029723
0.085714061
0.097895864
0.11191796
0.12850803
0.14755038
0.17172778
0.19883441
0.23472734
0.27893078
0.33209561
0.3838907
0.41989455
0.026719771
0.024611353
0.023124991
0.023148739
0.023635403
0.023772741
0.023607439
0.023604063
0.023207501
0.023191461
0.0234558
0.023653333
0.02355617
0.023425432
0.023372609
0.023780132
0.024447878
0.024254621
0.024020486
0.024430152
0.024502398
0.024344945
0.025418811
0.026461688
0.027723003
0.029618291
0.030955126
0.031738619
0.033392097
0.035488102
0.037710352
0.04069586
0.04512184
0.04998123
0.055301698
0.061646386
0.069040482
0.077691799
0.088817703
0.10159597
0.11734797
0.13473202
0.15661665
0.18128617
0.21385383
0.25306361
0.29707631
0.33129682
0.33054951
0.026470384
0.024697125
0.023339418
0.023232053
0.023608088
0.023766068
0.023555582
0.023357117
0.022997347
0.023008512
0.023084272
0.023216931
0.023019145
0.022842365
0.022865011
0.02317044
0.023408149
0.023187163
0.023079063
0.023365223
0.023096221
0.022860731
0.02391284
0.024711088
0.026066341
0.027574333
0.028467951
0.028825264
0.030142231
0.03191342
0.033802902
0.036647852
0.040618445
0.044749098
0.04967839
0.055389471
0.061542462
0.069103993
0.079528511
0.09311864
0.1068084
0.12259343
0.13884636
0.16123133
0.18865629
0.2233691
0.25997367
0.27650579
0.23467072
0.026302981
0.024578455
0.023286555
0.023169268
0.02355111
0.023608989
0.023452606
0.023059914
0.022712513
0.022712383
0.022700985
0.022775942
0.022545108
0.022457856
0.022335078
0.022574512
0.022493187
0.022405303
0.022391946
0.022330862
0.021903692
0.021721478
0.022409622
0.023235448
0.024454758
0.025562079
0.02593178
0.025881772
0.026883032
0.028426636
0.030082537
0.032650536
0.035890643
0.039448793
0.043967805
0.048832889
0.053417394
0.060587701
0.069684911
0.081957746
0.094875703
0.10932728
0.12362671
0.14119672
0.16368842
0.19203066
0.22046721
0.22096193
0.12764831
0.02620042
0.024049827
0.022779816
0.022980663
0.02320763
0.023373247
0.023268201
0.02277621
0.022481478
0.022488312
0.022395854
0.022433502
0.022100562
0.021980423
0.021916414
0.022138065
0.021716229
0.021551285
0.02171666
0.02122793
0.020518142
0.020683628
0.020934461
0.021909903
0.022824036
0.023600603
0.023410612
0.022951604
0.023702685
0.024950416
0.026560844
0.028652026
0.03097587
0.034143375
0.038235868
0.041650154
0.045334094
0.051430076
0.06101709
0.071409197
0.081838799
0.091630086
0.10403575
0.12042186
0.1376097
0.15676224
0.17398843
0.1642704
0.02427924
0.026830069
0.024122044
0.022665338
0.022960079
0.022948125
0.023166872
0.023063805
0.022522256
0.022414608
0.022327876
0.022172946
0.022058405
0.021695792
0.021431023
0.021613687
0.021784604
0.021315988
0.020823876
0.020870445
0.020103767
0.019395183
0.019524845
0.019680271
0.020495776
0.021124094
0.021511521
0.020898192
0.020065208
0.020785734
0.021479121
0.023059414
0.024594719
0.026071751
0.028806702
0.032019123
0.034067526
0.036904851
0.04334867
0.052294126
0.061321581
0.070353911
0.076929604
0.08469152
0.094852886
0.11241232
0.11852634
0.12373948
0.10787824
-0.082116786
0.02609812
0.023958471
0.022984797
0.022929569
0.022875911
0.022978429
0.022816266
0.022220763
0.022282297
0.02199377
0.021866313
0.021655519
0.021267329
0.021014289
0.021436613
0.021223277
0.020866496
0.020437222
0.020157018
0.019082474
0.018613902
0.0184286
0.018709823
0.019262222
0.019431176
0.019223549
0.018343062
0.017432479
0.017959994
0.018162863
0.019367221
0.020350868
0.021215456
0.023442828
0.025516503
0.026534187
0.028629557
0.033858384
0.041641905
0.0483813
0.054547631
0.05970347
0.066149242
0.074072302
0.0812315
0.080826198
0.06259379
0.040922981
-0.16321
0.025628369
0.022827375
0.022639041
0.022878256
0.022871593
0.022784483
0.022533221
0.021954196
0.022080469
0.021681949
0.021591038
0.021260174
0.02080466
0.020703556
0.02121635
0.020655603
0.019881178
0.019648949
0.019407347
0.018283574
0.01770508
0.017330729
0.017718844
0.018079086
0.017825409
0.016960774
0.015692605
0.01499352
0.015057324
0.015167303
0.015594826
0.015857854
0.016450301
0.017938575
0.018748479
0.018831301
0.021212707
0.02574336
0.033099797
0.038978365
0.037613697
0.03988616
0.04413985
0.048738497
0.052934023
0.037992108
0.0093798946
-0.015982934
-0.2506146
0.026005106
0.022775857
0.022311753
0.022839033
0.022770837
0.022576587
0.022322904
0.022027262
0.021890603
0.021575248
0.021358183
0.020914588
0.020342563
0.020472236
0.020835124
0.020248528
0.019165944
0.018753074
0.01842223
0.017463748
0.01687465
0.01640193
0.016753358
0.01681492
0.016147014
0.014774693
0.01320426
0.012737146
0.012120103
0.012173089
0.011752512
0.011268099
0.011732607
0.012001645
0.011549723
0.011582786
0.012409791
0.016130855
0.019518437
0.023332323
0.022899762
0.024071226
0.021306291
0.020927992
0.020202929
0.0026186541
-0.074636359
-0.088501432
-0.2764456
0.025464778
0.023057812
0.022196411
0.022762924
0.022624818
0.022425822
0.022147684
0.022012729
0.021854502
0.021567268
0.02116069
0.020595467
0.020111294
0.020266865
0.020346624
0.019672035
0.018660246
0.018290079
0.017668063
0.016493173
0.015892007
0.015734919
0.015976599
0.015620152
0.014377667
0.012704826
0.011047682
0.010408616
0.0092434563
0.0089529741
0.0078554889
0.0067208409
0.00702414
0.0060548514
0.0044302233
0.0034894439
0.0041361783
0.0049176478
0.0092186157
0.0077389566
-0.00025599409
-0.003273348
0.0038010727
-0.0040698182
-0.027685851
-0.03238403
-0.05899698
-0.16896805
-0.41496179
-0.35735851
-0.181578
-0.17838131
-0.073252875
-0.029879203
-0.039004146
-0.041555183
-0.027051716
-0.018433637
-0.0071932063
-0.0025951695
-0.0035646414
-0.0041024006
-0.004396255
-0.002838459
5.1391182e-05
0.0020692685
0.0023916343
0.0039777546
0.0056768319
0.0065311966
0.0080661502
0.0091233956
0.010716218
0.012611049
0.014299783
0.015052784
0.014918578
0.014910875
0.015732373
0.017249458
0.017894694
0.017928454
0.019013046
0.019927726
0.020171717
0.020130109
0.020388815
0.021036415
0.021424268
0.021742727
0.021873147
0.022008005
0.022291502
0.022519264
0.022765893
0.022158566
0.022947282
0.024250613
-0.32808171
-0.20031973
-0.25102763
-0.10064356
-0.089950295
-0.064428714
-0.06389473
-0.041809327
-0.028069928
-0.026922826
-0.02057671
-0.014102854
-0.014385931
-0.011358243
-0.0096263339
-0.006504714
-0.0029257252
-0.0018279737
0.00015676896
0.0023311306
0.0038242115
0.0056445938
0.0070070841
0.0087373346
0.010822316
0.012701344
0.014027434
0.014362834
0.014374593
0.015007045
0.016800212
0.017214797
0.017100383
0.018174379
0.019512925
0.019922812
0.020130204
0.020275285
0.020880544
0.021211286
0.021580909
0.021760301
0.021978848
0.022161927
0.022349237
0.022649907
0.022024035
0.022856875
0.023337689
-0.37462909
-0.22324205
-0.26198095
-0.12050145
-0.13882965
-0.089537991
-0.089550191
-0.065819524
-0.053547803
-0.043042277
-0.033536463
-0.024991067
-0.022916455
-0.019846544
-0.016280495
-0.012845918
-0.0082050748
-0.0060097761
-0.0035933178
-0.00097507094
0.00085825706
0.0029882858
0.0048243343
0.0068699066
0.0092013755
0.011184693
0.013049103
0.013757202
0.013883221
0.014035241
0.015570602
0.016554724
0.017600483
0.017810504
0.019022929
0.019876844
0.020289328
0.020286768
0.020730551
0.021075174
0.021426529
0.021703181
0.021889355
0.022008102
0.022200207
0.022513062
0.021877542
0.022382987
0.022691456
-0.4176267
-0.23698893
-0.29085945
-0.1534488
-0.19206294
-0.11980934
-0.096796393
-0.086661574
-0.075520944
-0.056683183
-0.042819986
-0.035522472
-0.031255277
-0.02715983
-0.023520818
-0.019334147
-0.014090593
-0.010656837
-0.0075926773
-0.0041425524
-0.0018279414
0.00069240613
0.0026508514
0.0049818044
0.0077464344
0.0097023229
0.011720028
0.012746268
0.013252385
0.01325995
0.014759639
0.016640863
0.017399576
0.017911356
0.018833858
0.019781655
0.0202772
0.020229827
0.020607068
0.020965505
0.02131405
0.021672186
0.021812774
0.021901414
0.022014783
0.022416053
0.021820243
0.022239195
0.022309838
-0.43044072
-0.22636056
-0.33392836
-0.20157322
-0.23797374
-0.14995088
-0.089823272
-0.093764508
-0.082923645
-0.070913782
-0.056664271
-0.04744789
-0.041789543
-0.034859466
-0.029699667
-0.025704733
-0.019880526
-0.015490347
-0.011551581
-0.0073218014
-0.0044086868
-0.0016798092
0.00043229085
0.0028276434
0.0060351763
0.0081146862
0.010294411
0.011822215
0.012804959
0.013006402
0.014385865
0.016134158
0.016857329
0.017764358
0.018661715
0.01952038
0.019841673
0.019971559
0.02048358
0.020834001
0.021244687
0.021661505
0.021786024
0.021841334
0.021844861
0.022361507
0.021816545
0.022157529
0.021846228
-0.40300148
-0.27516881
-0.30997284
-0.21029309
-0.23282577
-0.16094634
-0.15145754
-0.1130578
-0.095783585
-0.080447161
-0.068687355
-0.05776116
-0.050686672
-0.045152214
-0.037383974
-0.031353165
-0.025599283
-0.02010461
-0.015709735
-0.010720655
-0.0073444366
-0.0041267677
-0.0013699994
0.00086140964
0.0043118904
0.0069397277
0.0093695074
0.010940262
0.012184311
0.012736472
0.013866544
0.01537804
0.01656113
0.017220522
0.018228919
0.019016755
0.019483185
0.019963805
0.020396613
0.020792128
0.021189601
0.021592198
0.021734058
0.021840582
0.02178561
0.022331621
0.021813756
0.022024648
0.021562192
-0.23363632
-0.15989597
-0.17985103
-0.13389086
-0.12473479
-0.097972261
-0.07853776
-0.068447839
-0.056321984
-0.051068037
-0.044614449
-0.037787759
-0.031610081
-0.02535765
-0.020071804
-0.014171606
-0.0095408432
-0.0059696027
-0.0032604917
-0.00087946298
0.002743355
0.0058260462
0.0082384282
0.010111291
0.011325485
0.01213467
0.013280663
0.014772342
0.016106967
0.016608105
0.017756896
0.018724613
0.019496252
0.019930668
0.020307758
0.020839377
0.021101748
0.021489257
0.02165458
0.021888971
0.021759761
0.022276057
0.021762921
0.022017191
0.021582414
-0.06576977
-0.055304022
-0.048908187
-0.043700966
-0.03611009
-0.029661966
-0.024120796
-0.017959618
-0.012459341
-0.0080957667
-0.0048427352
-0.0026553993
0.00081237319
0.0042552701
0.0069294622
0.0091938037
0.010763851
0.011744069
0.012994495
0.014622793
0.0155988
0.016276236
0.017430371
0.01862228
0.019410859
0.019847222
0.020230502
0.020737554
0.021055815
0.0214722
0.021631723
0.021914402
0.021753422
0.022265687
0.021706586
0.022152488
0.021523894
-0.0061759588
-0.0033254426
-0.00051499009
0.003205637
0.0060609576
0.0080714943
0.01031778
0.011622928
0.01275244
0.014427065
0.015458591
0.01626924
0.017270849
0.018435902
0.019243455
0.019667411
0.020238731
0.020611519
0.021081273
0.02148439
0.021638418
0.021942651
0.021761081
0.022298751
0.021688562
0.022288964
0.021416776
0.017078506
0.018352523
0.019047887
0.019421844
0.020152656
0.020609734
0.021071796
0.021478417
0.021671456
0.021999076
0.021757704
0.022364238
0.021699595
0.022381383
0.021394154
)
;

boundaryField
{
    Side
    {
        type            empty;
    }
    Inlet
    {
        type            calculated;
        value           nonuniform List<scalar> 
29
(
0.023444673
0.023484106
0.023539161
0.023598979
0.023653268
0.023695531
0.023728916
0.023750085
0.023771598
0.023780374
0.023799567
0.023811879
0.023849207
0.023895733
0.023904196
0.023818411
0.023763791
0.023752468
0.023656922
0.023402524
0.022956757
0.022636674
0.022392656
0.022159407
0.022133456
0.02217355
0.022168279
0.022122919
0.022044977
)
;
    }
    Airfoil
    {
        type            calculated;
        value           nonuniform List<scalar> 
26
(
0.84046755
0.83746018
0.82685825
0.80618203
0.77519236
0.73609745
0.68911993
0.63374819
0.57118378
0.49900899
0.41989455
0.33054951
0.23467072
0.12764831
0.02427924
-0.082116786
-0.16321
-0.2506146
-0.2764456
-0.41496179
-0.35735851
-0.32808171
-0.37462909
-0.4176267
-0.43044072
-0.40300148
)
;
    }
    Outlet
    {
        type            calculated;
        value           nonuniform List<scalar> 0();
    }
    procBoundary0to1
    {
        type            processor;
        value           nonuniform List<scalar> 
53
(
-0.40565009
-0.29799545
-0.31044599
-0.21500049
-0.21500049
-0.24867379
-0.16154003
-0.18691803
-0.13855167
-0.13722332
-0.11546092
-0.093017744
-0.080052966
-0.080052966
-0.078325819
-0.066902713
-0.0563135
-0.047286285
-0.040772397
-0.03320771
-0.027351728
-0.021448978
-0.016396207
-0.011124536
-0.011124536
-0.0085669645
-0.004137033
-0.00103738
0.0023387765
0.0058098593
0.0079671372
0.0095233173
0.010948976
0.012419198
0.014205323
0.015377977
0.016069459
0.016069459
0.01682187
0.018170162
0.019118308
0.019506267
0.019997119
0.020530035
0.021052768
0.021463548
0.021641449
0.022032027
0.021787102
0.022462668
0.021747358
0.02244603
0.021510405
)
;
    }
    procBoundary0to7
    {
        type            processor;
        value           nonuniform List<scalar> 
50
(
0.039305326
0.041835788
0.043637992
0.046195724
0.050035493
0.054130177
0.058468625
0.06418813
0.070850226
0.07721894
0.084059704
0.092401492
0.10192358
0.11327914
0.12799863
0.14605542
0.16654724
0.18940723
0.21566241
0.24760121
0.28858944
0.34276669
0.41514323
0.51266901
0.64830896
0.83801038
0.031727799
0.025462201
0.021028068
0.020725174
0.02163674
0.022268431
0.022840256
0.023160567
0.023446863
0.023806291
0.024367757
0.025009359
0.025722857
0.02651803
0.027197174
0.02783335
0.028832271
0.030322258
0.031847961
0.032915807
0.033734393
0.0348947
0.03668181
0.03668181
)
;
    }
}


// ************************************************************************* //
