/*--------------------------------*- C++ -*----------------------------------*\
| =========                 |                                                 |
| \\      /  F ield         | OpenFOAM: The Open Source CFD Toolbox           |
|  \\    /   O peration     | Version:  2506                                  |
|   \\  /    A nd           | Website:  www.openfoam.com                      |
|    \\/     M anipulation  |                                                 |
\*---------------------------------------------------------------------------*/
FoamFile
{
    version     2.0;
    format      ascii;
    arch        "LSB;label=32;scalar=64";
    class       volScalarField;
    location    "0.00023";
    object      Co;
}
// * * * * * * * * * * * * * * * * * * * * * * * * * * * * * * * * * * * * * //

dimensions      [0 0 0 0 0 0 0];

internalField   nonuniform List<scalar> 
3447
(
6.9491711e-06
6.6444422e-06
6.3431185e-06
1.2862917e-05
1.2687479e-05
1.25042e-05
1.2312794e-05
1.2113032e-05
1.1904738e-05
1.1687799e-05
1.1462172e-05
1.1227889e-05
1.098506e-05
1.0733877e-05
1.0474618e-05
1.020765e-05
9.9334244e-06
9.6524818e-06
9.3654446e-06
9.0730148e-06
8.7759665e-06
8.4751373e-06
8.1714201e-06
7.8657507e-06
7.5590963e-06
7.2524419e-06
6.9467776e-06
6.6430793e-06
6.3426917e-06
1.3450961e-05
1.3304378e-05
1.3151553e-05
1.2992047e-05
1.2825454e-05
1.2651402e-05
1.2469561e-05
1.2279646e-05
1.2081419e-05
1.1874701e-05
1.1659378e-05
1.14354e-05
1.1202791e-05
1.0961655e-05
1.0712178e-05
1.0454628e-05
1.0189363e-05
9.9168267e-06
9.6375503e-06
9.3521475e-06
9.0613111e-06
8.7658062e-06
8.4664628e-06
8.1641659e-06
7.8598444e-06
7.5544598e-06
7.2489924e-06
6.9444288e-06
6.6417417e-06
6.3422744e-06
1.3683694e-05
1.354922e-05
1.3409502e-05
1.3264056e-05
1.3112418e-05
1.2954154e-05
1.2788858e-05
1.2616159e-05
1.243572e-05
1.2247253e-05
1.2050522e-05
1.1845344e-05
1.1631596e-05
1.1409223e-05
1.1178247e-05
1.0938763e-05
1.0690948e-05
1.0435066e-05
1.0171463e-05
9.9005768e-06
9.6229286e-06
9.3391232e-06
9.0498443e-06
8.755849e-06
8.4579594e-06
8.1570528e-06
7.8540514e-06
7.5499111e-06
7.2456073e-06
6.9421228e-06
6.6404276e-06
6.3418634e-06
1.3894557e-05
1.3769947e-05
1.3641163e-05
1.3507689e-05
1.3369023e-05
1.3224679e-05
1.3074199e-05
1.2917147e-05
1.2753114e-05
1.2581728e-05
1.2402655e-05
1.2215602e-05
1.2020328e-05
1.1816647e-05
1.1604432e-05
1.1383626e-05
1.1154242e-05
1.0916369e-05
1.0670177e-05
1.0415921e-05
1.0153942e-05
9.8846675e-06
9.6086097e-06
9.326365e-06
9.0386094e-06
8.7460909e-06
8.4496237e-06
8.150078e-06
7.8483697e-06
7.5454486e-06
7.2422855e-06
6.9398592e-06
6.6391377e-06
6.3414587e-06
1.8326261e-05
1.8018479e-05
1.7733004e-05
1.4315748e-05
1.4203065e-05
1.4088464e-05
1.3971368e-05
1.3851225e-05
1.3727491e-05
1.3599632e-05
1.346713e-05
1.3329486e-05
1.3186221e-05
1.3036871e-05
1.2880997e-05
1.2718195e-05
1.254809e-05
1.2370344e-05
1.2184666e-05
1.1990813e-05
1.1788592e-05
1.1577874e-05
1.1358596e-05
1.1130763e-05
1.0894461e-05
1.0649852e-05
1.0397185e-05
1.0136791e-05
9.8690898e-06
9.594586e-06
9.3138675e-06
9.0276011e-06
8.7365272e-06
8.4414521e-06
8.1432388e-06
7.8427969e-06
7.5410704e-06
7.2390255e-06
6.9376377e-06
6.6378716e-06
6.3410621e-06
1.9347819e-05
1.8960642e-05
1.8602376e-05
1.8270657e-05
1.7963274e-05
1.7678183e-05
1.7413487e-05
1.7167433e-05
1.6938391e-05
1.6724839e-05
1.6525366e-05
1.4601034e-05
1.4491142e-05
1.4381152e-05
1.4270456e-05
1.4158456e-05
1.4044575e-05
1.3928247e-05
1.3808915e-05
1.3686033e-05
1.3559074e-05
1.3427522e-05
1.3290876e-05
1.3148655e-05
1.30004e-05
1.2845675e-05
1.2684073e-05
1.2515216e-05
1.2338767e-05
1.2154431e-05
1.1961962e-05
1.1761163e-05
1.1551903e-05
1.1334114e-05
1.1107795e-05
1.0873026e-05
1.0629963e-05
1.0378846e-05
1.012e-05
9.8538361e-06
9.580851e-06
9.3016241e-06
9.016814e-06
8.7271534e-06
8.4334409e-06
8.1365324e-06
7.8373308e-06
7.5367751e-06
7.2358266e-06
6.9354567e-06
6.636628e-06
6.3406727e-06
1.929252e-05
1.8905778e-05
1.8547926e-05
1.8216602e-05
1.7909598e-05
1.7624873e-05
1.7360533e-05
1.7114829e-05
1.6886131e-05
1.667292e-05
1.6473786e-05
1.6287414e-05
1.6112576e-05
1.5948121e-05
1.5792973e-05
1.5646121e-05
1.5506602e-05
1.537352e-05
1.5246019e-05
1.5123287e-05
1.500455e-05
1.4889065e-05
1.4776123e-05
1.4665038e-05
1.455515e-05
1.444582e-05
1.4336421e-05
1.4226349e-05
1.4115015e-05
1.4001839e-05
1.3886251e-05
1.37677e-05
1.3645646e-05
1.351956e-05
1.3388927e-05
1.3253251e-05
1.3112049e-05
1.2964861e-05
1.2811251e-05
1.2650812e-05
1.2483166e-05
1.2307975e-05
1.2124943e-05
1.1933817e-05
1.1734403e-05
1.1526562e-05
1.1310221e-05
1.1085376e-05
1.0852099e-05
1.0610541e-05
1.0360934e-05
1.0103597e-05
9.8389317e-06
9.5674274e-06
9.2896554e-06
9.0062664e-06
8.7179855e-06
8.4256036e-06
8.1299698e-06
7.8319809e-06
7.5325699e-06
7.2326938e-06
6.9333201e-06
6.6354092e-06
6.3402902e-06
1.9658055e-05
1.9240162e-05
1.8853746e-05
1.8496211e-05
1.8165193e-05
1.7858483e-05
1.7574046e-05
1.7309992e-05
1.7064567e-05
1.6836147e-05
1.6623216e-05
1.6424362e-05
1.6238276e-05
1.6063732e-05
1.5899579e-05
1.5744736e-05
1.5598198e-05
1.5459011e-05
1.5326274e-05
1.5199136e-05
1.5076783e-05
1.4958443e-05
1.484338e-05
1.4730883e-05
1.462027e-05
1.4510881e-05
1.4402077e-05
1.429324e-05
1.4183764e-05
1.4073058e-05
1.3960547e-05
1.3845665e-05
1.3727865e-05
1.3606604e-05
1.3481355e-05
1.3351604e-05
1.3216854e-05
1.3076627e-05
1.2930464e-05
1.2777927e-05
1.2618608e-05
1.245213e-05
1.2278152e-05
1.2096375e-05
1.1906547e-05
1.1708469e-05
1.1501997e-05
1.1287055e-05
1.1063634e-05
1.08318e-05
1.0591697e-05
1.0343552e-05
1.0087674e-05
9.8244598e-06
9.5543902e-06
9.2780286e-06
8.9960176e-06
8.7090749e-06
8.4179841e-06
8.123588e-06
7.8267767e-06
7.5284782e-06
7.229645e-06
6.9312412e-06
6.6342233e-06
6.3399178e-06
1.9606573e-05
1.9189029e-05
1.8802948e-05
1.844573e-05
1.8115017e-05
1.7808607e-05
1.752446e-05
1.7260689e-05
1.7015548e-05
1.6787408e-05
1.6574754e-05
1.6376181e-05
1.6190379e-05
1.6016118e-05
1.5852259e-05
1.5697722e-05
1.5551501e-05
1.5412639e-05
1.5280239e-05
1.5153453e-05
1.503147e-05
1.491352e-05
1.4798868e-05
1.4686804e-05
1.457665e-05
1.4467747e-05
1.4359457e-05
1.4251164e-05
1.4142266e-05
1.4032171e-05
1.392031e-05
1.3806118e-05
1.3689043e-05
1.356855e-05
1.3444112e-05
1.331522e-05
1.3181375e-05
1.3042097e-05
1.2896928e-05
1.2745434e-05
1.2587204e-05
1.2421861e-05
1.2249064e-05
1.2068509e-05
1.1879943e-05
1.1683162e-05
1.1478023e-05
1.1264443e-05
1.1042408e-05
1.0811979e-05
1.0573293e-05
1.0326572e-05
1.0072117e-05
9.8103183e-06
9.5416477e-06
9.2666617e-06
8.9859958e-06
8.7003599e-06
8.4105304e-06
8.1173435e-06
7.8216834e-06
7.5244728e-06
7.2266595e-06
6.9292041e-06
6.6330612e-06
6.3395549e-06
2.0007467e-05
1.9556108e-05
1.9138927e-05
1.8753193e-05
1.8396307e-05
1.8065914e-05
1.7759811e-05
1.7475966e-05
1.7212489e-05
1.6967632e-05
1.6739775e-05
1.6527407e-05
1.6329116e-05
1.6143599e-05
1.5969631e-05
1.5806067e-05
1.5651831e-05
1.5505918e-05
1.5367377e-05
1.5235314e-05
1.5108879e-05
1.4987262e-05
1.4869695e-05
1.4755446e-05
1.4643808e-05
1.4534102e-05
1.4425672e-05
1.4317887e-05
1.4210127e-05
1.4101792e-05
1.3992297e-05
1.3881067e-05
1.3767544e-05
1.3651179e-05
1.3531434e-05
1.3407788e-05
1.327973e-05
1.3146764e-05
1.3008409e-05
1.286421e-05
1.271373e-05
1.255656e-05
1.2392321e-05
1.2220669e-05
1.2041304e-05
1.1853967e-05
1.1658452e-05
1.1454611e-05
1.1242357e-05
1.1021673e-05
1.0792613e-05
1.055531e-05
1.0309976e-05
1.005691e-05
9.7964912e-06
9.5291861e-06
9.2555434e-06
8.9761909e-06
8.6918313e-06
8.4032344e-06
8.1112296e-06
7.8166955e-06
7.5205495e-06
7.2237345e-06
6.9272079e-06
6.6319213e-06
6.3391978e-06
2.0445742e-05
1.9957574e-05
1.9506619e-05
1.9089816e-05
1.8704442e-05
1.8347902e-05
1.8017841e-05
1.7712056e-05
1.7428519e-05
1.7165343e-05
1.6920781e-05
1.6693214e-05
1.6481132e-05
1.6283129e-05
1.6097902e-05
1.5924224e-05
1.5760955e-05
1.560702e-05
1.546142e-05
1.53232e-05
1.5191468e-05
1.5065376e-05
1.494412e-05
1.4826931e-05
1.4713079e-05
1.4601858e-05
1.4492591e-05
1.4384628e-05
1.4277334e-05
1.4170093e-05
1.4062307e-05
1.3953394e-05
1.3842782e-05
1.3729912e-05
1.3614238e-05
1.3495225e-05
1.3372349e-05
1.3245102e-05
1.3112989e-05
1.2975534e-05
1.2832279e-05
1.2682787e-05
1.2526649e-05
1.2363485e-05
1.2192952e-05
1.2014744e-05
1.1828603e-05
1.1634321e-05
1.1431745e-05
1.1220783e-05
1.1001414e-05
1.0773689e-05
1.0537733e-05
1.0293754e-05
1.0042041e-05
9.7829696e-06
9.5169973e-06
9.2446661e-06
8.9665967e-06
8.6834843e-06
8.3960922e-06
8.1052435e-06
7.8118106e-06
7.5167062e-06
7.2208687e-06
6.9252522e-06
6.6308055e-06
6.3388467e-06
2.0396331e-05
1.9908607e-05
1.9458073e-05
1.904167e-05
1.865667e-05
1.8300485e-05
1.7970766e-05
1.7665311e-05
1.738209e-05
1.7119221e-05
1.6874962e-05
1.6647691e-05
1.6435901e-05
1.6238189e-05
1.6053251e-05
1.5879865e-05
1.5716892e-05
1.5563261e-05
1.5417968e-05
1.5280067e-05
1.5148663e-05
1.5022913e-05
1.4902012e-05
1.4785196e-05
1.4671735e-05
1.4560923e-05
1.4452089e-05
1.4344581e-05
1.4237765e-05
1.4131033e-05
1.4023787e-05
1.3915443e-05
1.3805432e-05
1.3693199e-05
1.3578196e-05
1.3459894e-05
1.3337769e-05
1.3211313e-05
1.3080035e-05
1.2943454e-05
1.2801117e-05
1.2652585e-05
1.2497452e-05
1.2335336e-05
1.2165891e-05
1.1988812e-05
1.1803838e-05
1.1610754e-05
1.1409409e-05
1.1199707e-05
1.0981621e-05
1.0755197e-05
1.0520555e-05
1.0277896e-05
1.0027504e-05
9.7697471e-06
9.505076e-06
9.2340254e-06
8.957209e-06
8.6753154e-06
8.3891009e-06
8.0993824e-06
7.807027e-06
7.5129415e-06
7.2180609e-06
6.9233352e-06
6.6297103e-06
6.3385026e-06
2.0875426e-05
2.0347806e-05
1.9860546e-05
1.9410446e-05
1.8994452e-05
1.8609846e-05
1.8254034e-05
1.7924668e-05
1.7619551e-05
1.7336657e-05
1.7074104e-05
1.6830153e-05
1.6603183e-05
1.639169e-05
1.6194272e-05
1.6009626e-05
1.5836538e-05
1.5673861e-05
1.5520532e-05
1.5375547e-05
1.523796e-05
1.5106884e-05
1.4981472e-05
1.4860922e-05
1.4744473e-05
1.4631394e-05
1.4520984e-05
1.4412574e-05
1.430551e-05
1.4199166e-05
1.4092931e-05
1.3986208e-05
1.3878419e-05
1.3768994e-05
1.3657382e-05
1.3543037e-05
1.3425427e-05
1.3304033e-05
1.3178348e-05
1.3047881e-05
1.2912154e-05
1.2770711e-05
1.2623116e-05
1.246896e-05
1.2307863e-05
1.2139477e-05
1.1963494e-05
1.1779653e-05
1.1587741e-05
1.1387597e-05
1.1179122e-05
1.0962286e-05
1.073713e-05
1.0503769e-05
1.0262398e-05
1.0013294e-05
9.7568196e-06
9.4934183e-06
9.2236179e-06
8.9480253e-06
8.6673223e-06
8.3822589e-06
8.0936452e-06
7.8023432e-06
7.5092549e-06
7.2153106e-06
6.9214569e-06
6.628638e-06
6.3381665e-06
2.1398151e-05
2.082722e-05
2.0300118e-05
1.981334e-05
1.9363697e-05
1.8948134e-05
1.8563932e-05
1.8208502e-05
1.78795e-05
1.7574732e-05
1.7292175e-05
1.7029947e-05
1.6786309e-05
1.6559646e-05
1.6348455e-05
1.6151336e-05
1.5966986e-05
1.5794191e-05
1.5631815e-05
1.5478787e-05
1.5334111e-05
1.5196841e-05
1.5066085e-05
1.4941006e-05
1.4820804e-05
1.4704716e-05
1.4592014e-05
1.4482001e-05
1.4374004e-05
1.4267378e-05
1.4161496e-05
1.4055747e-05
1.3949537e-05
1.384229e-05
1.373344e-05
1.3622433e-05
1.3508726e-05
1.3391792e-05
1.3271111e-05
1.3146175e-05
1.3016497e-05
1.2881601e-05
1.274103e-05
1.2594347e-05
1.2441144e-05
1.2281039e-05
1.2113685e-05
1.1938774e-05
1.175604e-05
1.1565265e-05
1.1366289e-05
1.115901e-05
1.0943393e-05
1.0719473e-05
1.0487361e-05
1.0247247e-05
9.9994002e-06
9.7441771e-06
9.4820156e-06
9.2134364e-06
8.9390392e-06
8.6594995e-06
8.3755609e-06
8.0880278e-06
7.7977564e-06
7.5056436e-06
7.212616e-06
6.9196166e-06
6.6275866e-06
6.3378358e-06
2.1350175e-05
2.0779819e-05
2.0253255e-05
1.9766982e-05
1.9317808e-05
1.8902687e-05
1.8518901e-05
1.8163872e-05
1.7835249e-05
1.753084e-05
1.7248625e-05
1.6986726e-05
1.674341e-05
1.6517062e-05
1.6306176e-05
1.6109359e-05
1.5925311e-05
1.5752814e-05
1.5590736e-05
1.5438011e-05
1.5293638e-05
1.5156678e-05
1.5026247e-05
1.4901503e-05
1.4781644e-05
1.4665911e-05
1.4553578e-05
1.4443955e-05
1.4336368e-05
1.423017e-05
1.4124736e-05
1.4019461e-05
1.3913754e-05
1.3807037e-05
1.3698746e-05
1.358833e-05
1.3475248e-05
1.3358971e-05
1.3238984e-05
1.3114782e-05
1.2985875e-05
1.2851787e-05
1.2712062e-05
1.2566268e-05
1.2413992e-05
1.2254854e-05
1.2088506e-05
1.1914637e-05
1.1732979e-05
1.1543314e-05
1.1345477e-05
1.1139364e-05
1.0924935e-05
1.0702221e-05
1.0471327e-05
1.0232438e-05
9.9858177e-06
9.7318163e-06
9.470865e-06
9.2034778e-06
8.9302483e-06
8.6518452e-06
8.3690058e-06
8.082529e-06
7.7932654e-06
7.5021072e-06
7.2099768e-06
6.9178133e-06
6.6265561e-06
6.3375117e-06
2.1302945e-05
2.0733186e-05
2.0207181e-05
1.972143e-05
1.9272747e-05
1.8858087e-05
1.8474736e-05
1.8120112e-05
1.7791876e-05
1.7487838e-05
1.7205977e-05
1.6944421e-05
1.6701432e-05
1.6475401e-05
1.6264827e-05
1.6068314e-05
1.5884567e-05
1.5712371e-05
1.5550595e-05
1.5398172e-05
1.5254107e-05
1.5117462e-05
1.4987348e-05
1.4862929e-05
1.4743408e-05
1.4628028e-05
1.4516064e-05
1.4406822e-05
1.4299633e-05
1.4193855e-05
1.4088865e-05
1.3984056e-05
1.387884e-05
1.3772641e-05
1.3664894e-05
1.3555053e-05
1.344258e-05
1.3326947e-05
1.3207637e-05
1.3084148e-05
1.2955989e-05
1.2822689e-05
1.2683792e-05
1.2538862e-05
1.2387489e-05
1.2229295e-05
1.2063925e-05
1.189107e-05
1.1710462e-05
1.1521877e-05
1.1325151e-05
1.1120174e-05
1.0906903e-05
1.0685364e-05
1.0455658e-05
1.0217964e-05
9.9725406e-06
9.7197311e-06
9.4599609e-06
9.1937377e-06
8.9216486e-06
8.644356e-06
8.3625911e-06
8.077147e-06
7.7888689e-06
7.4986445e-06
7.2073919e-06
6.9160477e-06
6.6255473e-06
6.3371954e-06
2.1873242e-05
2.1256567e-05
2.0687422e-05
2.0161987e-05
1.967677e-05
1.9228586e-05
1.8814395e-05
1.8431484e-05
1.8077278e-05
1.7749438e-05
1.7445775e-05
1.7164273e-05
1.6903059e-05
1.6660403e-05
1.6434693e-05
1.6224431e-05
1.6028225e-05
1.5844782e-05
1.5672887e-05
1.5511407e-05
1.5359285e-05
1.5215527e-05
1.507919e-05
1.494939e-05
1.4825294e-05
1.4706107e-05
1.4591073e-05
1.4479469e-05
1.4370601e-05
1.4263805e-05
1.4158439e-05
1.4053881e-05
1.3949526e-05
1.3844787e-05
1.3739093e-05
1.3631882e-05
1.3522604e-05
1.3410723e-05
1.3295715e-05
1.3177065e-05
1.3054268e-05
1.2926839e-05
1.2794308e-05
1.2656215e-05
1.2512127e-05
1.2361635e-05
1.2204355e-05
1.203994e-05
1.1868074e-05
1.1688486e-05
1.1500955e-05
1.130531e-05
1.110144e-05
1.0889297e-05
1.0668903e-05
1.0440354e-05
1.0203825e-05
9.9595685e-06
9.7079217e-06
9.4493037e-06
9.1842165e-06
8.9132407e-06
8.6370325e-06
8.3563171e-06
8.0718818e-06
7.7845671e-06
7.4952558e-06
7.2048617e-06
6.9143181e-06
6.6245585e-06
6.3368855e-06
2.2496948e-05
2.1829256e-05
2.12131e-05
2.064444e-05
2.0119454e-05
1.9634663e-05
1.9186878e-05
1.877306e-05
1.8390506e-05
1.8036634e-05
1.7709114e-05
1.7405758e-05
1.7124552e-05
1.6863622e-05
1.6621239e-05
1.6395799e-05
1.6185803e-05
1.598986e-05
1.5806676e-05
1.5635041e-05
1.5473826e-05
1.5321969e-05
1.5178478e-05
1.5042416e-05
1.4912904e-05
1.4789104e-05
1.4670223e-05
1.4555507e-05
1.4444235e-05
1.4335716e-05
1.4229286e-05
1.4124306e-05
1.4020154e-05
1.3916228e-05
1.3811941e-05
1.3706726e-05
1.3600022e-05
1.349128e-05
1.3379965e-05
1.3265553e-05
1.3147533e-05
1.3025404e-05
1.2898675e-05
1.2766878e-05
1.2629557e-05
1.248628e-05
1.2336634e-05
1.2180237e-05
1.2016738e-05
1.1845824e-05
1.1667222e-05
1.1480706e-05
1.1286104e-05
1.1083301e-05
1.0872247e-05
1.0652959e-05
1.042553e-05
1.0190126e-05
9.9469977e-06
9.6964753e-06
9.4389724e-06
9.1749845e-06
8.9050863e-06
8.629928e-06
8.3502294e-06
8.0667721e-06
7.7803913e-06
7.4919654e-06
7.2024046e-06
6.9126385e-06
6.6235983e-06
6.3365828e-06
2.2454032e-05
2.1786856e-05
2.1171177e-05
2.0602969e-05
2.0078406e-05
1.9594005e-05
1.914659e-05
1.8733124e-05
1.8350899e-05
1.7997342e-05
1.767012e-05
1.736705e-05
1.7086117e-05
1.6825454e-05
1.6583332e-05
1.6358146e-05
1.6148401e-05
1.5952703e-05
1.5769764e-05
1.5598376e-05
1.543741e-05
1.5285806e-05
1.5142574e-05
1.5006777e-05
1.4877536e-05
1.4754018e-05
1.4635429e-05
1.4521016e-05
1.4410064e-05
1.4301881e-05
1.4195805e-05
1.4091195e-05
1.3987433e-05
1.3883921e-05
1.3780075e-05
1.3675322e-05
1.3569103e-05
1.3460878e-05
1.335011e-05
1.3236277e-05
1.3118866e-05
1.2997379e-05
1.287133e-05
1.2740245e-05
1.2603673e-05
1.2461178e-05
1.231235e-05
1.2156807e-05
1.1994197e-05
1.1824206e-05
1.1646558e-05
1.1461025e-05
1.1267435e-05
1.1065667e-05
1.0855669e-05
1.0637455e-05
1.0411111e-05
1.01768e-05
9.9347669e-06
9.6853364e-06
9.4289168e-06
9.1659973e-06
8.8971468e-06
8.6230097e-06
8.3443001e-06
8.0617943e-06
7.7763226e-06
7.4887588e-06
7.2000095e-06
6.9110011e-06
6.6226622e-06
6.3362883e-06
2.3133839e-05
2.2411821e-05
2.1745185e-05
2.1130007e-05
2.0562263e-05
2.0038137e-05
1.9554147e-05
1.9107117e-05
1.8694011e-05
1.8312128e-05
1.7958896e-05
1.7631981e-05
1.7329204e-05
1.7048556e-05
1.6788167e-05
1.6546309e-05
1.632138e-05
1.6111888e-05
1.5916442e-05
1.5733751e-05
1.556261e-05
1.5401894e-05
1.5250543e-05
1.5107567e-05
1.4972031e-05
1.484306e-05
1.471982e-05
1.4601519e-05
1.4487409e-05
1.4376771e-05
1.4268916e-05
1.4163184e-05
1.4058938e-05
1.3955561e-05
1.3852453e-05
1.3749029e-05
1.3644726e-05
1.3538988e-05
1.3431267e-05
1.3321031e-05
1.320776e-05
1.3090943e-05
1.297008e-05
1.2844689e-05
1.2714297e-05
1.257845e-05
1.2436718e-05
1.2288687e-05
1.2133976e-05
1.1972232e-05
1.1803137e-05
1.1626417e-05
1.1441842e-05
1.1249235e-05
1.1048475e-05
1.0839505e-05
1.0622335e-05
1.0397047e-05
1.0163801e-05
9.9228344e-06
9.6744676e-06
9.4191033e-06
9.1572249e-06
8.8893958e-06
8.6162546e-06
8.3385095e-06
8.0569319e-06
7.7723476e-06
7.4856256e-06
7.1976688e-06
6.9094002e-06
6.6217464e-06
6.3359999e-06
2.3091716e-05
2.2370298e-05
2.1704222e-05
2.1089569e-05
2.0522311e-05
1.999864e-05
1.9515074e-05
1.9068442e-05
1.8655711e-05
1.8274179e-05
1.7921281e-05
1.7594685e-05
1.7292212e-05
1.7011851e-05
1.675174e-05
1.6510154e-05
1.6285486e-05
1.6076249e-05
1.5881054e-05
1.5698616e-05
1.5527725e-05
1.5367257e-05
1.5216157e-05
1.5073437e-05
1.4938164e-05
1.480946e-05
1.4686495e-05
1.4568479e-05
1.4454665e-05
1.4344335e-05
1.4236802e-05
1.4131408e-05
1.4027517e-05
1.3924514e-05
1.3821801e-05
1.3718798e-05
1.3614934e-05
1.3509658e-05
1.3402428e-05
1.3292712e-05
1.3179989e-05
1.306375e-05
1.2943497e-05
1.2818745e-05
1.2689026e-05
1.2553889e-05
1.2412896e-05
1.226564e-05
1.2111737e-05
1.1950832e-05
1.1782609e-05
1.1606791e-05
1.1423147e-05
1.1231497e-05
1.1031718e-05
1.0823748e-05
1.0607594e-05
1.0383334e-05
1.0151124e-05
9.911196e-06
9.6638654e-06
9.409529e-06
9.1486652e-06
8.8818315e-06
8.6096607e-06
8.3328562e-06
8.0521844e-06
7.7684657e-06
7.4825651e-06
7.1953819e-06
6.9078365e-06
6.6208521e-06
6.3357197e-06
2.3050233e-05
2.2329438e-05
2.1663942e-05
2.1049829e-05
2.0483075e-05
1.9959874e-05
1.9476747e-05
1.9030526e-05
1.8618185e-05
1.8237018e-05
1.7884462e-05
1.7558191e-05
1.7256028e-05
1.6975964e-05
1.6716138e-05
1.6474826e-05
1.6250426e-05
1.604145e-05
1.5846511e-05
1.5664325e-05
1.5493686e-05
1.5333469e-05
1.518262e-05
1.5040154e-05
1.4905142e-05
1.4776702e-05
1.4654011e-05
1.4536278e-05
1.4422755e-05
1.4312728e-05
1.4205513e-05
1.4100453e-05
1.399691e-05
1.3894272e-05
1.3791944e-05
1.3689345e-05
1.3585912e-05
1.3481089e-05
1.3374336e-05
1.3265125e-05
1.3152935e-05
1.3037256e-05
1.2917596e-05
1.279347e-05
1.2664407e-05
1.2529956e-05
1.2389685e-05
1.2243183e-05
1.2090065e-05
1.1929978e-05
1.1762604e-05
1.1587664e-05
1.1404925e-05
1.1214207e-05
1.101538e-05
1.0808384e-05
1.0593219e-05
1.0369961e-05
1.0138759e-05
9.8998425e-06
9.653521e-06
9.4001861e-06
9.1403111e-06
8.8744475e-06
8.6032233e-06
8.3273363e-06
8.0475478e-06
7.7646737e-06
7.4795752e-06
7.1931474e-06
6.9063077e-06
6.619977e-06
6.3354449e-06
2.3009368e-05
2.2289213e-05
2.1624321e-05
2.1010771e-05
2.0444542e-05
1.9921828e-05
1.9439159e-05
1.8993362e-05
1.8581416e-05
1.8200627e-05
1.7848428e-05
1.7522491e-05
1.7220648e-05
1.6940888e-05
1.6681353e-05
1.644032e-05
1.6216192e-05
1.6007481e-05
1.58128e-05
1.5630867e-05
1.5460478e-05
1.5300513e-05
1.5149918e-05
1.5007709e-05
1.4872951e-05
1.4744774e-05
1.4622352e-05
1.4504898e-05
1.4391664e-05
1.4281937e-05
1.4175032e-05
1.4070296e-05
1.3967095e-05
1.3864816e-05
1.3762865e-05
1.3660664e-05
1.355765e-05
1.345327e-05
1.3346984e-05
1.3238263e-05
1.3126593e-05
1.3011464e-05
1.2892379e-05
1.2768859e-05
1.2640434e-05
1.2506651e-05
1.236708e-05
1.222131e-05
1.2068955e-05
1.1909664e-05
1.1743116e-05
1.156903e-05
1.1387172e-05
1.1197359e-05
1.099946e-05
1.0793411e-05
1.0579208e-05
1.0356924e-05
1.0126704e-05
9.8887719e-06
9.6434328e-06
9.3910736e-06
9.1321616e-06
8.8672434e-06
8.5969415e-06
8.3219487e-06
8.0430217e-06
7.7609716e-06
7.4766556e-06
7.1909651e-06
6.9048146e-06
6.6191228e-06
6.3351748e-06
2.2969091e-05
2.2249609e-05
2.1585341e-05
2.0972373e-05
2.0406684e-05
1.9884474e-05
1.9402271e-05
1.8956917e-05
1.8545382e-05
1.8164979e-05
1.7813145e-05
1.7487552e-05
1.7186035e-05
1.6906587e-05
1.6647349e-05
1.6406603e-05
1.618275e-05
1.5974308e-05
1.5779888e-05
1.5598213e-05
1.5428079e-05
1.5268366e-05
1.5118022e-05
1.4976064e-05
1.4841566e-05
1.4713653e-05
1.4591498e-05
1.4474319e-05
1.4361367e-05
1.4251933e-05
1.4145337e-05
1.4040921e-05
1.3938054e-05
1.3836126e-05
1.3734545e-05
1.3632732e-05
1.3530127e-05
1.3426177e-05
1.3320346e-05
1.3212106e-05
1.3100938e-05
1.2986342e-05
1.2867819e-05
1.2744889e-05
1.2617083e-05
1.2483953e-05
1.2345065e-05
1.2200007e-05
1.2048396e-05
1.1889877e-05
1.172413e-05
1.1550875e-05
1.1369873e-05
1.118094e-05
1.0983944e-05
1.0778816e-05
1.056555e-05
1.0344214e-05
1.011495e-05
9.8779765e-06
9.6335945e-06
9.3821851e-06
9.1242113e-06
8.8602143e-06
8.5908115e-06
8.3166908e-06
8.0386036e-06
7.7573573e-06
7.4738046e-06
7.1888337e-06
6.9033558e-06
6.618288e-06
6.3349121e-06
2.3705244e-05
2.2929379e-05
2.2210596e-05
2.1546975e-05
2.0934609e-05
2.0369479e-05
1.9847789e-05
1.9366074e-05
1.8921172e-05
1.8510064e-05
1.8130057e-05
1.7778597e-05
1.7453361e-05
1.7152179e-05
1.6873049e-05
1.6614115e-05
1.637366e-05
1.6150087e-05
1.5941915e-05
1.5747762e-05
1.5566345e-05
1.5396466e-05
1.5237007e-05
1.5086916e-05
1.4945214e-05
1.4810972e-05
1.4683317e-05
1.4561427e-05
1.4444518e-05
1.4331848e-05
1.4222705e-05
1.4116411e-05
1.4012309e-05
1.390977e-05
1.3808186e-05
1.3706965e-05
1.360553e-05
1.3503321e-05
1.3399793e-05
1.3294405e-05
1.3186633e-05
1.3075961e-05
1.2961881e-05
1.2843904e-05
1.2721548e-05
1.2594347e-05
1.2461848e-05
1.2323622e-05
1.2179258e-05
1.202837e-05
1.1870604e-05
1.1705637e-05
1.1533189e-05
1.1353021e-05
1.1164944e-05
1.0968826e-05
1.0764594e-05
1.0552239e-05
1.0331826e-05
1.0103492e-05
9.8674516e-06
9.6240013e-06
9.3735171e-06
9.1164569e-06
8.8533576e-06
8.5848309e-06
8.31156e-06
8.0342918e-06
7.7538293e-06
7.4710213e-06
7.1867526e-06
6.9019318e-06
6.617473e-06
6.3346555e-06
2.3665336e-05
2.2890223e-05
2.2172155e-05
2.1509206e-05
2.089746e-05
2.0332909e-05
1.9811755e-05
1.9330543e-05
1.888611e-05
1.847544e-05
1.8095842e-05
1.7744766e-05
1.7419892e-05
1.7119051e-05
1.6840247e-05
1.6581622e-05
1.6341466e-05
1.6118182e-05
1.5910285e-05
1.5716399e-05
1.5535244e-05
1.5365623e-05
1.5206418e-05
1.505658e-05
1.4915129e-05
1.4781141e-05
1.4653746e-05
1.453212e-05
1.4415481e-05
1.4303088e-05
1.4194231e-05
1.4088231e-05
1.3984437e-05
1.388222e-05
1.3780973e-05
1.3680104e-05
1.3579043e-05
1.3477226e-05
1.3374107e-05
1.3269151e-05
1.3161833e-05
1.3051638e-05
1.2938066e-05
1.2820622e-05
1.2698825e-05
1.2572211e-05
1.244033e-05
1.2302748e-05
1.2159056e-05
1.2008871e-05
1.1851835e-05
1.1687627e-05
1.1515965e-05
1.1336607e-05
1.1149363e-05
1.0954099e-05
1.0750738e-05
1.053927e-05
1.0319754e-05
1.0092325e-05
9.8571928e-06
9.6146493e-06
9.3650661e-06
9.1088961e-06
8.8466708e-06
8.5789975e-06
8.3065548e-06
8.0300851e-06
7.7503868e-06
7.468305e-06
7.1847213e-06
6.900541e-06
6.6166761e-06
6.3344041e-06
2.3625898e-05
2.2851586e-05
2.2134265e-05
2.1472008e-05
2.0860904e-05
2.0296952e-05
1.9776356e-05
1.9295656e-05
1.8851702e-05
1.8441483e-05
1.8062309e-05
1.7711627e-05
1.7387126e-05
1.7086639e-05
1.6808168e-05
1.6549862e-05
1.6310005e-05
1.6087009e-05
1.5879393e-05
1.5685779e-05
1.5504891e-05
1.5335528e-05
1.517658e-05
1.5026997e-05
1.48858e-05
1.4752068e-05
1.462493e-05
1.4503563e-05
1.438719e-05
1.4275071e-05
1.4166495e-05
1.4060787e-05
1.3957297e-05
1.3855396e-05
1.3754478e-05
1.3653957e-05
1.3553255e-05
1.3451819e-05
1.3349101e-05
1.3244566e-05
1.3137692e-05
1.3027966e-05
1.2914885e-05
1.2797958e-05
1.2676705e-05
1.2550661e-05
1.2419377e-05
1.2282424e-05
1.2139388e-05
1.1989886e-05
1.1833561e-05
1.1670091e-05
1.1499192e-05
1.1320621e-05
1.1134188e-05
1.0939754e-05
1.0737241e-05
1.0526635e-05
1.0307993e-05
1.0081444e-05
9.8471956e-06
9.6055347e-06
9.3568284e-06
9.1015246e-06
8.8401506e-06
8.5733088e-06
8.3016731e-06
8.0259814e-06
7.7470281e-06
7.4656546e-06
7.1827389e-06
6.8991839e-06
6.6158995e-06
6.3341591e-06
2.4409654e-05
2.3587785e-05
2.281424e-05
2.2097635e-05
2.1436041e-05
2.0825555e-05
2.0262171e-05
1.9742105e-05
1.9261905e-05
1.8818414e-05
1.8408623e-05
1.8029854e-05
1.7679556e-05
1.735541e-05
1.705526e-05
1.6777108e-05
1.6519106e-05
1.6279541e-05
1.6056823e-05
1.5849478e-05
1.5656124e-05
1.5475488e-05
1.5306376e-05
1.5147674e-05
1.4998336e-05
1.4857384e-05
1.4723895e-05
1.4597003e-05
1.4475891e-05
1.4359776e-05
1.4247919e-05
1.4139615e-05
1.4034189e-05
1.3930991e-05
1.3829395e-05
1.3728797e-05
1.3628608e-05
1.3528257e-05
1.3427189e-05
1.3324858e-05
1.3220731e-05
1.3114285e-05
1.3005011e-05
1.2892406e-05
1.2775979e-05
1.2655251e-05
1.2529761e-05
1.2399059e-05
1.2262711e-05
1.2120308e-05
1.1971467e-05
1.1815831e-05
1.1653075e-05
1.1482915e-05
1.1305107e-05
1.1119459e-05
1.0925829e-05
1.0724138e-05
1.0514367e-05
1.0296572e-05
1.0070877e-05
9.8374854e-06
9.5966805e-06
9.3488249e-06
9.0943619e-06
8.8338142e-06
8.5677798e-06
8.2969277e-06
8.0219916e-06
7.743762e-06
7.4630767e-06
7.1808104e-06
6.8978635e-06
6.6151435e-06
6.3339222e-06
2.4374216e-05
2.3552935e-05
2.2779976e-05
2.206393e-05
2.1402856e-05
2.079285e-05
2.0229915e-05
1.9710269e-05
1.9230455e-05
1.8787329e-05
1.8377881e-05
1.7999431e-05
1.7649432e-05
1.7325575e-05
1.7025695e-05
1.6747803e-05
1.6490049e-05
1.6250723e-05
1.6028236e-05
1.5821111e-05
1.5627976e-05
1.5447557e-05
1.5278656e-05
1.5120163e-05
1.4971034e-05
1.4830295e-05
1.4697024e-05
1.4570352e-05
1.4449462e-05
1.4333578e-05
1.422196e-05
1.4113905e-05
1.4008738e-05
1.390581e-05
1.3804496e-05
1.3704192e-05
1.3604314e-05
1.3504292e-05
1.3403569e-05
1.3301603e-05
1.3197862e-05
1.3091823e-05
1.2982976e-05
1.2870823e-05
1.2754872e-05
1.2634647e-05
1.2509685e-05
1.2379533e-05
1.2243764e-05
1.2101968e-05
1.195376e-05
1.1798782e-05
1.163671e-05
1.1467259e-05
1.1290182e-05
1.1105286e-05
1.0912429e-05
1.0711525e-05
1.0502558e-05
1.0285575e-05
1.0060701e-05
9.828133e-06
9.5881511e-06
9.3411138e-06
9.0874599e-06
8.8277075e-06
8.56245e-06
8.2923526e-06
8.0181442e-06
7.7406121e-06
7.4605901e-06
7.1789501e-06
6.8965891e-06
6.6144132e-06
6.3336927e-06
2.4339412e-05
2.3518736e-05
2.2746382e-05
2.2030905e-05
2.137036e-05
2.0760847e-05
2.0198368e-05
1.9679145e-05
1.9199732e-05
1.8756977e-05
1.8347877e-05
1.7969753e-05
1.7620062e-05
1.7296494e-05
1.699689e-05
1.6719258e-05
1.6461753e-05
1.6222666e-05
1.600041e-05
1.5793512e-05
1.5600595e-05
1.5420388e-05
1.5251699e-05
1.5093419e-05
1.4944502e-05
1.4803973e-05
1.4670912e-05
1.4544458e-05
1.442379e-05
1.4308133e-05
1.4196751e-05
1.4088939e-05
1.3984023e-05
1.3881358e-05
1.378032e-05
1.3680306e-05
1.3580732e-05
1.3481029e-05
1.3380643e-05
1.3279032e-05
1.3175663e-05
1.307002e-05
1.2961589e-05
1.2849872e-05
1.2734383e-05
1.2614645e-05
1.2490191e-05
1.2360576e-05
1.222537e-05
1.2084163e-05
1.1936568e-05
1.1782229e-05
1.162082e-05
1.1452055e-05
1.1275689e-05
1.1091523e-05
1.0899413e-05
1.0699275e-05
1.0491085e-05
1.0274891e-05
1.0050813e-05
9.8190448e-06
9.5798617e-06
9.3336188e-06
9.0807504e-06
8.8217702e-06
8.5572676e-06
8.2879031e-06
8.0144023e-06
7.7375481e-06
7.458171e-06
7.1771398e-06
6.8953495e-06
6.613703e-06
6.3334671e-06
2.3484974e-05
2.2713242e-05
2.1998357e-05
2.1338368e-05
2.072937e-05
2.016737e-05
1.9648592e-05
1.9169592e-05
1.8727226e-05
1.8318488e-05
1.7940703e-05
1.7591331e-05
1.7268063e-05
1.6968744e-05
1.6691383e-05
1.6434135e-05
1.6195294e-05
1.5973276e-05
1.5766608e-05
1.5573914e-05
1.5393926e-05
1.5225454e-05
1.5067383e-05
1.4918675e-05
1.4778359e-05
1.4645512e-05
1.4519273e-05
1.4398826e-05
1.4283394e-05
1.4172243e-05
1.4064672e-05
1.3960004e-05
1.3857597e-05
1.3756828e-05
1.3657099e-05
1.3557821e-05
1.3458429e-05
1.3358372e-05
1.3257106e-05
1.3154102e-05
1.3048841e-05
1.2940815e-05
1.2829527e-05
1.2714487e-05
1.2595219e-05
1.2471263e-05
1.234217e-05
1.2207508e-05
1.2066871e-05
1.1919871e-05
1.1766152e-05
1.1605387e-05
1.1437288e-05
1.126161e-05
1.1078151e-05
1.0886768e-05
1.0687372e-05
1.0479938e-05
1.026451e-05
1.0041203e-05
9.8102113e-06
9.5718039e-06
9.3263324e-06
9.0742269e-06
8.8159967e-06
8.5522275e-06
8.2835755e-06
8.0107623e-06
7.734567e-06
7.4558171e-06
7.1753781e-06
6.8941424e-06
6.6130113e-06
6.3332489e-06
2.345161e-05
2.2680529e-05
2.1966264e-05
2.130685e-05
2.0698392e-05
2.0136893e-05
1.9618579e-05
1.914001e-05
1.8698045e-05
1.8289686e-05
1.7912255e-05
1.7563216e-05
1.724026e-05
1.6941235e-05
1.6664152e-05
1.6407168e-05
1.6168581e-05
1.5946806e-05
1.5740371e-05
1.5547906e-05
1.5368139e-05
1.5199882e-05
1.5042028e-05
1.4893534e-05
1.4753429e-05
1.4620796e-05
1.4494774e-05
1.4374546e-05
1.4259338e-05
1.4148415e-05
1.4041078e-05
1.3936656e-05
1.3834506e-05
1.3734004e-05
1.363455e-05
1.3535563e-05
1.3436478e-05
1.333674e-05
1.323581e-05
1.3133161e-05
1.3028274e-05
1.2920643e-05
1.2809768e-05
1.2695163e-05
1.2576354e-05
1.2452879e-05
1.2324292e-05
1.2190161e-05
1.2050077e-05
1.1903654e-05
1.1750536e-05
1.1590396e-05
1.1422943e-05
1.1247932e-05
1.1065161e-05
1.0874483e-05
1.0675807e-05
1.0469106e-05
1.025442e-05
1.0031864e-05
9.8016256e-06
9.5639714e-06
9.3192488e-06
9.0678842e-06
8.8103828e-06
8.5473261e-06
8.2793664e-06
8.0072215e-06
7.7316668e-06
7.4535266e-06
7.1736638e-06
6.892968e-06
6.6123386e-06
6.333037e-06
2.423741e-05
2.3418626e-05
2.2648233e-05
2.1934619e-05
2.127581e-05
2.0667907e-05
2.0106929e-05
1.95891e-05
1.9110983e-05
1.8669435e-05
1.8261464e-05
1.78844e-05
1.7535703e-05
1.7213068e-05
1.6914349e-05
1.6637555e-05
1.6380846e-05
1.6142519e-05
1.5920993e-05
1.5714797e-05
1.5522563e-05
1.5343021e-05