/*--------------------------------*- C++ -*----------------------------------*\
| =========                 |                                                 |
| \\      /  F ield         | OpenFOAM: The Open Source CFD Toolbox           |
|  \\    /   O peration     | Version:  2506                                  |
|   \\  /    A nd           | Website:  www.openfoam.com                      |
|    \\/     M anipulation  |                                                 |
\*---------------------------------------------------------------------------*/
FoamFile
{
    version     2.0;
    format      ascii;
    arch        "LSB;label=32;scalar=64";
    class       volScalarField;
    location    "0.018";
    object      T;
}
// * * * * * * * * * * * * * * * * * * * * * * * * * * * * * * * * * * * * * //

dimensions      [0 0 0 1 0 0 0];

internalField   nonuniform List<scalar> 
13761
(
241.97822
241.97823
241.97833
241.97864
241.97927
241.98029
241.98161
241.98312
241.98474
241.9864
241.98809
241.98977
241.99148
241.9628
241.9628
241.96287
241.96311
241.9636
241.96435
241.9653
241.96635
241.96747
241.96863
241.96983
241.97108
241.97241
241.97385
241.97542
241.97716
241.9791
241.98128
241.98371
241.98644
241.9895
241.9929
241.99664
242.00072
242.00507
242.00962
241.94825
241.94824
241.94827
241.94836
241.9486
241.94903
241.94966
241.95045
241.95137
241.95241
241.95357
241.95486
241.95628
241.95786
241.95964
241.96164
241.9639
241.96644
241.96929
241.97249
241.97611
241.98016
241.98467
241.98958
241.99485
242.00035
242.00591
242.01136
242.01646
242.02082
242.02399
242.02535
241.94275
241.94274
241.94277
241.94287
241.94308
241.94341
241.94383
241.94433
241.94488
241.9455
241.94621
241.94706
241.94809
241.94935
241.95092
241.95283
241.95517
241.95797
241.96127
241.96505
241.96929
241.97396
241.97903
241.98448
241.99028
241.9964
242.00274
242.00902
242.01484
242.01974
242.02326
242.02479
242.02355
242.01854
242.00849
241.99176
248.14527
248.14524
248.14511
248.14482
248.14423
248.14324
248.14172
248.13962
248.13696
248.13376
248.13005
248.12585
248.12115
248.11596
248.11026
248.10404
248.09727
248.08994
248.08196
248.0732
248.06369
248.05342
248.04232
248.03035
248.01741
248.00336
247.98805
247.97128
247.95282
247.93236
247.90957
247.88402
247.85519
247.82243
247.7849
247.74143
247.69027
247.62854
247.55082
247.45258
247.38988
247.38166
247.38376
247.38592
247.38756
247.38877
247.38983
247.39096
247.39228
247.39373
247.39552
247.39786
248.12538
248.12536
248.12526
248.125
248.12447
248.12355
248.12212
248.12013
248.11758
248.1145
248.1109
248.1068
248.1022
248.09708
248.09145
248.08527
248.07852
248.07119
248.06323
248.05462
248.04515
248.03483
248.02364
248.01153
247.99843
247.98423
247.96878
247.95191
247.93339
247.91296
247.8903
247.86499
247.83656
247.80438
247.76763
247.72518
247.6754
247.61558
247.54069
247.44386
247.3694
247.35627
247.358
247.36012
247.36168
247.36278
247.36369
247.3647
247.3662
247.36838
247.3709
247.37294
247.37391
247.3735
247.37107
247.36674
247.36206
247.35958
247.36124
247.36664
247.373
247.37741
248.10635
248.10632
248.10622
248.10596
248.10545
248.10456
248.10318
248.10127
248.09881
248.09584
248.09236
248.08839
248.08391
248.07891
248.07338
248.0673
248.06065
248.05338
248.04547
248.03689
248.0276
248.01744
248.00627
247.99411
247.9809
247.96657
247.951
247.93404
247.91548
247.89509
247.87254
247.84746
247.81938
247.78769
247.75161
247.71007
247.66153
247.60345
247.53123
247.43699
247.35103
247.33099
247.33203
247.33429
247.33621
247.33786
247.33943
247.34106
247.34267
247.34413
247.34552
247.34679
247.3473
247.34621
247.34373
247.34106
247.33989
247.34193
247.34738
247.3543
247.35968
247.36152
247.35983
247.35766
247.35745
247.36083
247.36845
248.0882
248.08817
248.08806
248.08779
248.08727
248.08639
248.08505
248.0832
248.08085
248.07801
248.07468
248.07087
248.06656
248.06173
248.05636
248.05042
248.04387
248.03669
248.02884
248.02028
248.01098
248.00089
247.98994
247.97789
247.96469
247.9503
247.93464
247.91759
247.89896
247.87854
247.85604
247.83111
247.80329
247.77205
247.73663
247.69602
247.64872
247.59238
247.52279
247.43211
247.33683
247.30748
247.30729
247.30956
247.31159
247.31334
247.31495
247.31662
247.31854
247.32054
247.32195
247.32231
247.32195
247.32112
247.32033
247.32068
247.32342
247.32887
247.33567
247.34134
247.3436
247.34176
247.3377
247.33522
247.33576
247.33965
247.34656
247.35493
247.36434
247.37517
247.38758
248.0722
248.07217
248.07206
248.07181
248.07132
248.07049
248.06922
248.06745
248.06517
248.06237
248.05906
248.05524
248.0509
248.04601
248.04057
248.03457
248.02798
248.0208
248.013
248.00454
247.99534
247.98537
247.97455
247.96282
247.95002
247.93591
247.92039
247.90339
247.88478
247.86437
247.84192
247.81711
247.78953
247.75865
247.72377
247.68393
247.63775
247.58304
247.51606
247.42984
247.32703
247.28619
247.28435
247.28685
247.28936
247.29161
247.29357
247.29523
247.29653
247.29751
247.29839
247.29922
247.29964
247.30004
247.30161
247.30516
247.31063
247.31702
247.3224
247.32461
247.32243
247.31721
247.31263
247.31146
247.31386
247.31848
247.32482
247.33249
247.34234
247.35491
247.3691
247.38153
247.38989
247.39499
248.05819
248.05816
248.05804
248.05778
248.05731
248.05653
248.05537
248.05377
248.05172
248.04922
248.04626
248.04281
248.03884
248.03432
248.02922
248.02349
248.0171
248.01
248.00216
247.99355
247.98413
247.97386
247.96271
247.95062
247.93757
247.92344
247.90804
247.89113
247.87259
247.85224
247.82988
247.80521
247.77785
247.74733
247.713
247.67396
247.62893
247.57593
247.51162
247.42961
247.32469
247.26843
247.26353
247.26589
247.26843
247.27073
247.27276
247.27465
247.2765
247.27802
247.27882
247.27921
247.28027
247.28255
247.28627
247.29148
247.29741
247.30232
247.30415
247.30143
247.2952
247.28914
247.28674
247.28892
247.29352
247.29863
247.30415
247.31124
247.32156
247.33542
247.3503
247.36228
247.36959
247.37402
247.37815
247.38303
247.38791
248.04393
248.04389
248.04376
248.04349
248.04299
248.04219
248.04099
248.03938
248.03734
248.03489
248.03202
248.02871
248.02495
248.02068
248.01588
248.01051
248.00451
247.99783
247.99042
247.98223
247.97323
247.96337
247.95261
247.94086
247.92802
247.91401
247.89876
247.8821
247.86377
247.84351
247.82115
247.79649
247.76919
247.73882
247.70481
247.66632
247.62219
247.5706
247.50856
247.43057
247.32691
247.2547
247.245
247.24711
247.24984
247.25229
247.25426
247.25569
247.25672
247.25775
247.25914
247.26089
247.263
247.2663
247.27106
247.27646
247.28083
247.2823
247.27932
247.27242
247.26522
247.26197
247.26432
247.26991
247.27561
247.28025
247.28489
247.29175
247.30266
247.31705
247.3317
247.3429
247.34971
247.35398
247.35778
247.36183
247.36598
247.3714
247.37977
248.03019
248.03015
248.03002
248.02976
248.02928
248.02849
248.02734
248.02578
248.02382
248.02147
248.01873
248.01559
248.01203
248.008
248.00348
247.9984
247.99272
247.98637
247.97932
247.97148
247.96281
247.9532
247.9426
247.93093
247.91811
247.90404
247.88861
247.87167
247.85305
247.83271
247.81039
247.78584
247.75873
247.72865
247.69508
247.65727
247.61413
247.56402
247.50418
247.42931
247.3305
247.24385
247.2271
247.22865
247.23128
247.23374
247.23586
247.23765
247.23913
247.24021
247.24108
247.24263
247.2457
247.24993
247.25442
247.25797
247.25903
247.256
247.24905
247.24145
247.23786
247.24049
247.24723
247.25423
247.25941
247.26298
247.2669
247.27378
247.28481
247.2985
247.31173
247.32191
247.32872
247.33316
247.3363
247.33906
247.34246
247.34844
247.35796
247.36906
247.37922
248.01727
248.01722
248.01709
248.01681
248.01631
248.0155
248.01432
248.01273
248.01076
248.00842
248.00571
248.00263
247.99913
247.9952
247.9908
247.98587
247.98036
247.97422
247.96739
247.95979
247.95135
247.942
247.93163
247.92017
247.90752
247.89358
247.87823
247.86134
247.84282
247.82251
247.8002
247.77567
247.74862
247.71868
247.68536
247.64798
247.60556
247.55659
247.4986
247.42699
247.33448
247.23591
247.20925
247.20985
247.21242
247.21471
247.21641
247.21754
247.21849
247.21995
247.2222
247.22487
247.22781
247.23105
247.23366
247.23416
247.23131
247.22531
247.21878
247.21577
247.21873
247.22617
247.23427
247.24025
247.24357
247.24585
247.24974
247.257
247.26745
247.27944
247.29088
247.30054
247.30794
247.31274
247.31517
247.31667
247.31977
247.32692
247.33761
247.34921
247.35988
247.36861
248.0038
248.00375
248.00362
248.00333
248.00283
248.00201
248.00082
247.99922
247.99724
247.99489
247.99217
247.98909
247.98561
247.98172
247.97737
247.97252
247.96711
247.96109
247.95438
247.94692
247.93862
247.9294
247.91916
247.90781
247.89522
247.8813
247.8659
247.849
247.83051
247.81024
247.78799
247.76355
247.73663
247.7069
247.67391
247.63702
247.59535
247.54753
247.49137
247.42308
247.33524
247.23038
247.19074
247.18964
247.19204
247.19438
247.19641
247.1981
247.19946
247.20063
247.20206
247.20424
247.20676
247.20849
247.20855
247.20637
247.20217
247.19772
247.19608
247.19941
247.20688
247.21532
247.22174
247.22495
247.22627
247.22846
247.23331
247.24076
247.24989
247.25945
247.26894
247.27833
247.28646
247.29131
247.29287
247.29327
247.29681
247.30528
247.31676
247.32864
247.34013
247.34969
247.35488
247.35534
247.99034
247.9903
247.99016
247.98987
247.98934
247.98851
247.98729
247.98566
247.98365
247.98127
247.97853
247.97542
247.97194
247.96805
247.96373
247.95891
247.95357
247.94763
247.94103
247.93371
247.92559
247.91658
247.90659
247.89551
247.88324
247.86966
247.85464
247.83804
247.81972
247.79953
247.7773
247.75283
247.72587
247.69613
247.66318
247.62648
247.58522
247.53818
247.48343
247.4176
247.33373
247.22695
247.17184
247.16773
247.16971
247.17173
247.17346
247.17502
247.17674
247.17893
247.18121
247.18275
247.1835
247.18349
247.18223
247.17977
247.17744
247.17749
247.18141
247.18867
247.19695
247.20357
247.2068
247.20752
247.20841
247.21197
247.21803
247.22503
247.23197
247.23894
247.2469
247.25636
247.26488
247.26968
247.27098
247.27147
247.27616
247.28559
247.29748
247.30994
247.32194
247.33162
247.33696
247.33783
247.3357
247.97652
247.97647
247.97633
247.97603
247.97549
247.97464
247.97341
247.97177
247.96974
247.96734
247.96459
247.96147
247.95798
247.95409
247.94977
247.94497
247.93964
247.93374
247.92718
247.91992
247.91185
247.90289
247.89295
247.88191
247.86967
247.85609
247.84113
247.82467
247.80655
247.78659
247.76459
247.74035
247.71363
247.68413
247.65147
247.61515
247.57443
247.52821
247.47475
247.41102
247.33101
247.22661
247.15455
247.14571
247.14743
247.14964
247.15182
247.15381
247.15545
247.15677
247.15806
247.15926
247.15953
247.15861
247.15726
247.15666
247.15826
247.16304
247.17053
247.1788
247.18548
247.18876
247.18903
247.18862
247.19091
247.19638
247.20283
247.20837
247.21295
247.21778
247.22483
247.23418
247.24264
247.24738
247.24901
247.25016
247.25565
247.26541
247.27772
247.29064
247.30254
247.31179
247.31692
247.31801
247.31665
247.31444
247.96242
247.96237
247.96222
247.96191
247.96137
247.9605
247.95925
247.95758
247.95552
247.95309
247.95031
247.94717
247.94366
247.93976
247.93543
247.93065
247.92537
247.91952
247.91306
247.90593
247.89803
247.88929
247.87962
247.86891
247.85706
247.84393
247.82935
247.81318
247.79526
247.77545
247.75354
247.72936
247.70267
247.6732
247.64061
247.60443
247.564
247.51833
247.46583
247.40383
247.32733
247.22701
247.13913
247.12294
247.12411
247.12626
247.12856
247.13101
247.13354
247.13577
247.13693
247.13677
247.1362
247.13586
247.13638
247.13889
247.14429
247.15212
247.1605
247.16714
247.17034
247.17009
247.16864
247.16947
247.17425
247.181
247.1869
247.19084
247.19379
247.19773
247.20427
247.21291
247.22059
247.22531
247.22772
247.23017
247.23652
247.24672
247.25946
247.27257
247.28383
247.29204
247.29686
247.29878
247.29922
247.29823
247.29497
247.28759
247.94843
247.94837
247.9482
247.94787
247.94729
247.94638
247.94508
247.94337
247.94127
247.93882
247.93601
247.93284
247.92932
247.9254
247.92106
247.91627
247.91098
247.90513
247.89868
247.89156
247.88368
247.87497
247.86533
247.85464
247.8428
247.82969
247.81523
247.79926
247.78162
247.76213
247.74058
247.71676
247.69044
247.66135
247.62916
247.59342
247.55353
247.50858
247.45716
247.39688
247.32355
247.2293
247.12957
247.10248
247.10284
247.10511
247.10751
247.10976
247.1116
247.11307
247.11445
247.11557
247.11603
247.11681
247.11947
247.12469
247.13209
247.14026
247.14695
247.15028
247.14978
247.14755
247.14721
247.15116
247.15825
247.16537
247.17024
247.17298
247.17522
247.1787
247.1842
247.19108
247.19747
247.20246
247.20628
247.21026
247.21717
247.22737
247.24022
247.25311
247.26312
247.27006
247.27485
247.27809
247.27992
247.27969
247.27663
247.26964
247.25624
247.93386
247.93381
247.93364
247.93331
247.93273
247.93181
247.93049
247.92875
247.92662
247.92413
247.92129
247.9181
247.91455
247.91061
247.90628
247.9015
247.89623
247.89044
247.88406
247.87704
247.8693
247.86076
247.85135
247.84095
247.82946
247.81673
247.8026
247.78692
247.76952
247.75022
247.72884
247.70517
247.67898
247.65003
247.618
247.58249
247.54295
247.49855
247.44804
247.38936
247.31893
247.22985
247.1227
247.08245
247.08137
247.08378
247.08656
247.0896
247.09255
247.09477
247.09593
247.0967
247.0982
247.10075
247.10482
247.11076
247.11794
247.12444
247.1281
247.1281
247.12591
247.12496
247.12823
247.13527
247.14317
247.1492
247.15262
247.15468
247.15712
247.16049
247.16472
247.16957
247.17493
247.18048
247.18564
247.19092
247.1983
247.2088
247.22192
247.23417
247.24276
247.24864
247.25345
247.25804
247.26169
247.26321
247.26047
247.25348
247.24118
247.22329
247.91976
247.91969
247.9195
247.91914
247.91852
247.91756
247.91619
247.9144
247.91223
247.9097
247.90682
247.9036
247.90001
247.89605
247.89168
247.88687
247.88157
247.87574
247.86934
247.86229
247.85452
247.84597
247.83653
247.8261
247.81457
247.80184
247.78781
247.7723
247.75516
247.73619
247.7152
247.69197
247.66625
247.63779
247.60627
247.57131
247.53238
247.48876
247.43931
247.38222
247.31436
247.22976
247.12303
247.0655
247.06138
247.06361
247.06613
247.06864
247.0711
247.07373
247.07656
247.07915
247.08149
247.0846
247.08918
247.09487
247.10042
247.10414
247.105
247.1037
247.1028
247.10539
247.11188
247.11982
247.12638
247.1305
247.13321
247.13625
247.13979
247.14302
247.14565
247.14829
247.15245
247.15823
247.16435
247.1707
247.17868
247.18945
247.20216
247.21334
247.22074
247.22565
247.23066
247.23714
247.24312
247.24581
247.24249
247.23577
247.22525
247.20933
247.18928
247.90518
247.90511
247.90493
247.90457
247.90395
247.90297
247.90158
247.89977
247.89756
247.89499
247.89208
247.88882
247.88521
247.88123
247.87685
247.87204
247.86676
247.86096
247.8546
247.84763
247.83997
247.83154
247.82228
247.81208
247.80084
247.7884
247.77461
247.75933
247.74237
247.72357
247.70273
247.67963
247.65406
247.62577
247.59447
247.5598
247.5213
247.47829
247.42975
247.37407
247.30845
247.22747
247.12398
247.04993
247.04104
247.04332
247.04628
247.04951
247.05267
247.05532
247.05768
247.06065
247.06439
247.06837
247.07248
247.07642
247.07926
247.0801
247.07938
247.07909
247.08179
247.08808
247.09614
247.10308
247.10764
247.11075
247.11457
247.1195
247.12397
247.12642
247.12733
247.12804
247.13102
247.13654
247.14321
247.15052
247.15942
247.17043
247.18273
247.19339
247.20007
247.20433
247.20988
247.2182
247.22576
247.22913
247.22612
247.22042
247.21125
247.19657
247.17771
247.89187
247.89178
247.89154
247.8911
247.89038
247.88928
247.88778
247.88586
247.88355
247.8809
247.87791
247.87459
247.87092
247.86688
247.86245
247.85758
247.85225
247.8464
247.83998
247.83295
247.82522
247.81673
247.80739
247.7971
247.78575
247.77326
247.7595
247.74432
247.72756
247.70903
247.68853
247.66584
247.64073
247.61293
247.58216
247.54805
247.51016
247.46788
247.42028
247.36592
247.30232
247.22501
247.12699
247.03773
247.02065
247.02222
247.0247
247.02746
247.03072
247.03466
247.03886
247.04268
247.04631
247.04981
247.05259
247.05406
247.054
247.05315
247.05352
247.05714
247.06423
247.073
247.08064
247.08561
247.08856
247.09208
247.09779
247.10419
247.10837
247.1096
247.10871
247.10796
247.10964
247.11446
247.12132
247.12968
247.13928
247.15028
247.16233
247.17248
247.17848
247.18227
247.18853
247.19828
247.20716
247.21165
247.2093
247.20381
247.19507
247.18128
247.16365
247.14371
247.87713
247.87704
247.87682
247.87641
247.87571
247.87464
247.87314
247.87123
247.86892
247.86626
247.86327
247.85994
247.85626
247.85222
247.8478
247.84295
247.83764
247.83183
247.82547
247.81851
247.81088
247.80252
247.79334
247.78326
247.77218
247.75993
247.74637
247.73137
247.71475
247.69634
247.67594
247.65333
247.62832
247.60065
247.57006
247.53622
247.49871
247.45698
247.41018
247.35699
247.29528
247.22136
247.12864
247.02898
247.00043
247.00126
247.00397
247.0069
247.00989
247.01293
247.01654
247.02101
247.0251
247.0277
247.02868
247.02841
247.02765
247.02814
247.03216
247.04014
247.05014
247.0591
247.06503
247.06806
247.07074
247.07567
247.08267
247.08887
247.09184
247.09176
247.0899
247.08864
247.0892
247.09296
247.10008
247.10907
247.11915
247.13071
247.14289
247.15276
247.15861
247.16278
247.16995
247.18044
247.19003
247.19507
247.193
247.18736
247.17881
247.16612
247.15015
247.13121
247.10533
247.86239
247.86231
247.8621
247.86169
247.86101
247.85997
247.85852
247.85664
247.85438
247.85176
247.8488
247.8455
247.84186
247.83784
247.83342
247.82858
247.82327
247.81744
247.81107
247.80407
247.79641
247.78799
247.77875
247.76858
247.75737
247.74506
247.73152
247.7166
247.70014
247.68195
247.66186
247.63963
247.61503
247.58782
247.5577
247.52435
247.48738
247.44625
247.4002
247.34807
247.28798
247.21673
247.12822
247.02296
246.97971
246.97838
246.98064
246.98342
246.98697
246.99113
246.99514
246.99854
247.00169
247.00395
247.00464
247.00441
247.00496
247.00849
247.01606
247.02648
247.0369
247.04454
247.04862
247.05116
247.055
247.06105
247.06769
247.07228
247.07361
247.07278
247.07077
247.06907
247.06858
247.07149
247.07855
247.08793
247.09884
247.11108
247.12309
247.13245
247.13853
247.14348
247.15051
247.16054
247.17027
247.17602
247.17472
247.16877
247.16032
247.14921
247.13507
247.11697
247.09182
247.05759
247.84793
247.84785
247.84763
247.84721
247.84651
247.84544
247.84395
247.84205
247.83976
247.83712
247.83415
247.83085
247.82721
247.82321
247.81882
247.81401
247.80875
247.803
247.7967
247.78981
247.78226
247.77399
247.76492
247.75497
247.74404
247.73197
247.71865
247.70392
247.68762
247.66959
247.64963
247.62753
247.60307
247.57602
247.54611
247.51304
247.47643
247.43579
247.39041
247.33923
247.28057
247.21158
247.12693
247.02156
246.96119
246.95643
246.95842
246.96063
246.96304
246.96607
246.97019
246.97477
246.97811
246.9799
246.98103
246.98279
246.98649
246.99324
247.00295
247.01382
247.0231
247.02898
247.03244
247.03607
247.04123
247.04695
247.05137
247.05317
247.05292
247.05204
247.0506
247.0491
247.04842
247.0514
247.05871
247.06843
247.07991
247.09239
247.10392
247.11311
247.11995
247.1252
247.13149
247.14125
247.15173
247.15834
247.15716
247.15044
247.1426
247.13349
247.12121
247.10409
247.08007
247.04752
247.00958
247.83306
247.83298
247.83277
247.83238
247.83171
247.83069
247.82925
247.8274
247.82517
247.82259
247.81967
247.81642
247.81282
247.80885
247.8045
247.79972
247.79448
247.78874
247.78245
247.77557
247.76802
247.75975
247.75066
247.74068
247.7297
247.71764
247.70437
247.68975
247.67363
247.65583
247.63616
247.61441
247.59036
247.56376
247.53433
247.50177
247.4657
247.42565
247.38097
247.33069
247.27328
247.2062
247.1248
247.02219
246.94422
246.93383
246.93571
246.93846
246.94183
246.94533
246.94832
246.95108
246.9543
246.95763
246.96126
246.96632
246.97355
246.98262
246.99247
247.0015
247.00814
247.01234
247.01618
247.02117
247.02648
247.03008
247.03115
247.03046
247.02988
247.03027
247.03024
247.02962
247.02973
247.03315
247.04017
247.04953
247.06096
247.07298
247.08356
247.09258
247.09968
247.10502
247.11122
247.12108
247.13181
247.13826
247.13654
247.13004
247.12386
247.11727
247.10692
247.09078
247.06755
247.03675
247.00131
247.8185
247.81842
247.8182
247.81779
247.81711
247.81605
247.81459
247.81271
247.81046
247.80787
247.80495
247.8017
247.79811
247.79417
247.78985
247.78512
247.77994
247.77427
247.76808
247.7613
247.75388
247.74575
247.73684
247.72706
247.71633
247.7045
247.69145
247.67703
247.66111
247.64352
247.62406
247.60255
247.57876
247.55246
247.52338
247.49121
247.45561
247.41613
247.37213
247.32274
247.26655
247.20131
247.12308
247.02498
246.93254
246.91281
246.91392
246.91592
246.91834
246.92174
246.92614
246.93054
246.93464
246.93973
246.94664
246.9551
246.96417
246.97284
246.98014
246.9854
246.98868
246.99197
246.9972
247.00362
247.00823
247.00966
247.0085
247.00731
247.0078
247.00979
247.01091
247.01128
247.01249
247.01658
247.02302
247.03166
247.04241
247.05319
247.06293
247.07195
247.07947
247.08554
247.09222
247.10216
247.11272
247.11886
247.11718
247.11188
247.10777
247.10351
247.0945
247.07882
247.05627
247.02726
246.99327
246.95203
247.80324
247.80317
247.80298
247.8026
247.80196
247.80098
247.79959
247.7978
247.79563
247.79311
247.79026
247.78708
247.78356
247.77968
247.77541
247.77072
247.76559
247.75996
247.7538
247.74705
247.73966
247.73155
247.72267
247.71292
247.70222
247.69044
247.67751
247.66328
247.6476
247.63031
247.61121
247.59012
247.5668
247.54101
247.51248
247.48092
247.44598
247.40722
247.36405
247.31562
247.26066
247.19715
247.12173
247.0284
246.92537
246.89398
246.89471
246.89762
246.90081
246.90396
246.90727
246.91187
246.91818
246.92583
246.93465
246.94398
246.95243
246.95852
246.96167
246.96266
246.96416
246.96892
246.97679
246.98424
246.98805
246.98838
246.98705
246.98654
246.98809
246.99046
246.99201
246.99337
246.99609
247.00034
247.00577
247.01335
247.0227
247.03205
247.04087
247.04958
247.05751
247.06446
247.07238
247.08293
247.0929
247.09814
247.0961
247.09243
247.09095
247.0889
247.08082
247.06539
247.04349
247.01604
246.98329
246.94249
246.89092
247.78856
247.78848
247.78828
247.78788
247.78722
247.7862
247.78478
247.78296
247.78077
247.77824
247.77539
247.77221
247.76871
247.76485
247.76062
247.75598
247.75091
247.74536
247.73928
247.73264
247.72536
247.71739
247.70866
247.69909
247.68858
247.67704
247.66431
247.65026
247.63476
247.61765
247.59876
247.5779
247.55487
247.52944
247.50135
247.47032
247.43599
247.39795
247.35564
247.30827
247.25465
247.19297
247.12017
247.03102
246.92444
246.87666
246.87528
246.87798
246.88147
246.88609
246.89144
246.89688
246.90334
246.91147
246.92043
246.92861
246.93435
246.93675
246.93664
246.93659
246.93999
246.9479
246.95754
246.96508
246.96833
246.96884
246.96848
246.9687
246.97007
246.97165
246.97287
246.97555
246.97947
246.98366
246.98844
246.99514
247.00302
247.01077
247.01864
247.02742
247.03619
247.04486
247.05483
247.06573
247.07425
247.07798
247.07647
247.07558
247.07673
247.07611
247.06811
247.05248
247.03118
247.00505
246.97324
246.93299
246.88313
247.77308
247.77301
247.77284
247.77249
247.77189
247.77096
247.76964
247.76792
247.76583
247.76341
247.76065
247.75757
247.75414
247.75036
247.7462
247.74163
247.73661
247.73111
247.72508
247.71848
247.71125
247.70333
247.69465
247.68513
247.67469
247.66322
247.65063
247.63679
247.62156
247.60479
247.5863
247.56591
247.54341
247.51855
247.49109
247.46074
247.42714
247.38989
247.34845
247.30206
247.24965
247.18956
247.11922
247.03446
246.92752
246.86285
246.85814
246.8611
246.86433
246.86791
246.87262
246.87909
246.88633
246.8937
246.90083
246.9066
246.90985
246.91073
246.91135
246.91449
246.92153
246.93099
246.94006
246.94608
246.94886
246.95034
246.95127
246.95174
246.95193
246.952
246.9532
246.95717
246.9617
246.96575
246.97049
246.97658
246.98279
246.98883
246.9961
247.0049
247.0143
247.02471
247.03643
247.04737
247.05444
247.05703
247.05674
247.05816
247.06104
247.06117
247.05274
247.03697
247.01653
246.99192
246.96138
246.92284
246.87509
246.82801
247.75838
247.75831
247.75812
247.75775
247.75713
247.75617
247.75482
247.75309
247.75099
247.74857
247.74583
247.74277
247.73937
247.73563
247.73152
247.72701
247.72206
247.71664
247.7107
247.70419
247.69707
247.68926
247.68071
247.67132
247.66103
247.64972
247.63725
247.62352
247.60839
247.59172
247.57335
247.55312
247.53082
247.50627
247.47922
247.44938
247.41643
247.37997
247.33947
247.29422
247.24318
247.18477
247.11644
247.03377
246.93037
246.84906
246.83854
246.84162
246.84584
246.85075
246.85565
246.86038
246.86592
246.87194
246.8772
246.881
246.8838
246.88711
246.89239
246.8997
246.90811
246.91619
246.92246
246.92648
246.92948
246.93247
246.93434
246.93441
246.933
246.93209
246.93345
246.93814
246.94296
246.94766
246.95333
246.95889
246.96323
246.9678
246.97446
246.9829
246.99319
247.0058
247.01949
247.03069
247.0367
247.0381
247.0386
247.04173
247.04583
247.04624
247.03731
247.02174
247.00278
246.97988
246.95079
246.9138
246.86737
246.82146
246.77414
247.74266
247.7426
247.74245
247.74214
247.74159
247.74074
247.73951
247.73791
247.73594
247.73365
247.73102
247.72807
247.72479
247.72115
247.71714
247.71272
247.70786
247.70253
247.69667
247.69026
247.68323
247.67552
247.66708
247.65783
247.64769
247.63657
247.62436
247.61094
247.59617
247.57991
247.56199
247.54222
247.52041
247.49635
247.46979
247.44046
247.40807
247.37221
247.3324
247.28795
247.23788
247.18073
247.11421
247.03483
246.93554
246.83992
246.81967
246.82168
246.82459
246.82815
246.83305
246.83865
246.84337
246.84736
246.8514
246.8561
246.86212
246.87004
246.8793
246.88833
246.89556
246.90039
246.90326
246.9058
246.90963
246.91398
246.91611
246.91548
246.91302
246.9118
246.91376
246.91875
246.92388
246.92985
246.93623
246.94052
246.94306
246.9465
246.95255
246.96106
246.97267
246.98725
247.00189
247.01249
247.01737
247.0178
247.01905
247.02326
247.02797
247.02886
247.01981
247.00519
246.98809
246.96688
246.93954
246.90403
246.85908
246.8149
246.7684
247.72775
247.72769
247.72753
247.72721
247.72666
247.72579
247.72456
247.72296
247.72101
247.71874
247.71615
247.71326
247.71003
247.70646
247.70252
247.69818
247.69341
247.68817
247.68241
247.67609
247.66915
247.66153
247.65316
247.64396
247.63386
247.62275
247.61054
247.59711
247.58234
247.5661
247.54827
247.52868
247.50715
247.48348
247.45744
247.42876
247.39714
247.36217
247.32337
247.28004
247.23125
247.1756
247.11096
247.03358
246.93799
246.83187
246.80042
246.80213
246.80595
246.80951
246.81245
246.81554
246.81961
246.82424
246.82963
246.83675
246.84621
246.85724
246.8679
246.8759
246.88028
246.88183
246.88266
246.88514
246.88995
246.89452
246.89618
246.89496
246.89279
246.89233
246.89491
246.8995
246.90505
246.9124
246.91899
246.92215
246.9237
246.92653
246.93215
246.94077
246.95359
246.96913
246.98375
246.99416
246.99903
246.99925
247.0007
247.0052
247.01082
247.0126
247.0039
246.99051
246.97528
246.95606
246.92994
246.89511
246.85125
246.80864
246.76286
246.7095
247.71178
247.71174
247.71161
247.71136
247.71089
247.71014
247.70904
247.70758
247.70577
247.70363
247.70118
247.69841
247.6953
247.69185
247.68803
247.68382
247.67917
247.67406
247.66844
247.66226
247.65549
247.64805
247.6399
247.63095
247.62114
247.61037
247.59856
247.58553
247.57115
247.55529
247.53781
247.51854
247.49733
247.47397
247.44827
247.41996
247.38876
247.35429
247.31609
247.27353
247.2257
247.1713
247.10835
247.03376
246.94164
246.83051
246.78224
246.78096
246.7835
246.78706
246.79163
246.79598
246.80001
246.80512
246.81227
246.82159
246.83252
246.84377
246.85327
246.85916
246.8611
246.8612
246.86195
246.8651
246.8697
246.87322
246.87398
246.87322
246.87251
246.87345
246.87631
246.88062
246.8873
246.89555
246.90131
246.90336
246.90425
246.90652
246.91134
246.9204
246.93421
246.94985
246.96415
246.97454
246.97923
246.97907
246.98007
246.98525
246.99214
246.99507
246.987
246.97504
246.96202
246.94447
246.9189
246.88463
246.84291
246.80224
246.75688
246.70387
247.69665
247.69661
247.69649
247.69624
247.69578
247.69505
247.69398
247.69256
247.6908
247.68873
247.68635
247.68366
247.68064
247.67728
247.67356
247.66944
247.66489
247.65987
247.65434
247.64826
247.64155
247.63418
247.62606
247.61712
247.60729
247.59647
247.58456
247.57147
247.55712
247.54138
247.52411
247.50515
247.48434
247.46149
247.43639
247.40879
247.3784
247.34485
247.30767
247.26624
247.21968
247.16676
247.1056
247.03326
246.94472
246.83252
246.76788
246.76399
246.76686
246.7695
246.77234
246.77667
246.78221
246.7885
246.79626
246.80584
246.81646
246.82643
246.8339
246.83788
246.83946
246.84064
246.84275
246.84567
246.8485
246.85007
246.85054
246.8513
246.85308
246.85554
246.85875
246.86351
246.87094
246.87855
246.88292
246.88424
246.88497
246.88648
246.89102
246.9012
246.91572
246.93083
246.94435
246.95448
246.95929
246.95958
246.96119
246.96754
246.97563
246.97957
246.97203
246.96143
246.95025
246.93384
246.90825
246.87488
246.83533
246.79602
246.75079
246.69882
246.6521
247.68047
247.68045
247.68038
247.6802
247.67984
247.67923
247.6783
247.67702
247.67541
247.67347
247.67122
247.66866
247.66576
247.66253
247.65893
247.65494
247.65054
247.64567
247.64031
247.6344
247.6279
247.62076
247.6129
247.60427
247.59478
247.58436
247.57291
247.56032
247.54639
247.53097
247.51396
247.49521
247.47459
247.45192
247.42704
247.39972
247.36968
247.33661
247.30005
247.25941
247.21386
247.16218
247.10259
247.03214
246.94589
246.83552
246.75419
246.7452
246.74843
246.75287
246.75741
246.7614
246.76622
246.77272
246.78058
246.7892
246.79773
246.80511
246.8106
246.81434
246.81734
246.82048
246.82317
246.8249
246.82565
246.82596
246.82727
246.83065
246.83492
246.8387
246.84261
246.84823
246.85548
246.86101
246.86337
246.86426
246.86467
246.86569
246.87088
246.88236
246.89692
246.91077
246.92309
246.933
246.93814
246.93935
246.94194
246.94968
246.95866
246.963
246.95562
246.9463
246.93692
246.92132
246.89548
246.8636
246.82706
246.78926
246.7445
246.69372
246.64733
247.66413
247.66414
247.6641
247.664
247.66374
247.66325
247.66247
247.66136
247.65992
247.65816
247.65609
247.65369
247.65096
247.64789
247.64445
247.64061
247.63634
247.63161
247.62637
247.62058
247.61419
247.60714
247.59936
247.59078
247.58133
247.57092
247.55945
247.5468
247.53291
247.51768