/*--------------------------------*- C++ -*----------------------------------*\
| =========                 |                                                 |
| \\      /  F ield         | OpenFOAM: The Open Source CFD Toolbox           |
|  \\    /   O peration     | Version:  2506                                  |
|   \\  /    A nd           | Website:  www.openfoam.com                      |
|    \\/     M anipulation  |                                                 |
\*---------------------------------------------------------------------------*/
FoamFile
{
    version     2.0;
    format      ascii;
    arch        "LSB;label=32;scalar=64";
    class       volScalarField;
    location    "0.0055";
    object      nut;
}
// * * * * * * * * * * * * * * * * * * * * * * * * * * * * * * * * * * * * * //

dimensions      [0 2 -1 0 0 0 0];

internalField   nonuniform List<scalar> 
13761
(
1.4720526e-09
6.261448e-09
1.2444158e-07
1.0510546e-06
4.5665693e-06
1.2344257e-05
2.4450822e-05
4.0216679e-05
5.9173879e-05
8.1125501e-05
0.00010606108
0.00013407129
0.0001652969
1.4961704e-09
6.3558525e-09
1.2624378e-07
1.0652059e-06
4.6199809e-06
1.2465868e-05
2.4662189e-05
4.0545488e-05
5.9661083e-05
8.1825518e-05
0.00010703801
0.00013539935
0.00016705956
0.00020221575
0.00024110458
0.00028398817
0.00033114232
0.00038286181
0.00043942417
0.00050109765
0.00056815051
0.00064080814
0.00071925916
0.00080369884
0.00089434004
0.00099128608
1.4999823e-09
6.3325885e-09
1.2560129e-07
1.0598428e-06
4.5981368e-06
1.2412808e-05
2.456785e-05
4.0402159e-05
5.9460447e-05
8.1560026e-05
0.00010670438
0.00013500215
0.00016661484
0.00020175355
0.00024067127
0.00028365058
0.0003310007
0.00038302077
0.00043998507
0.00050216328
0.00056982573
0.00064318322
0.00072234841
0.00080748339
0.00089869682
0.00099603089
0.0010994404
0.0012087222
0.0013235113
0.0014429118
0.0015664279
0.0016932138
1.5086741e-09
6.3425309e-09
1.2566353e-07
1.0601299e-06
4.5984687e-06
1.2413924e-05
2.4579441e-05
4.0452131e-05
5.9599962e-05
8.1864379e-05
0.00010726883
0.00013593301
0.00016801558
0.00020370899
0.0002432341
0.00028683121
0.00033474303
0.00038724352
0.00044457981
0.00050698825
0.00057471282
0.00064798593
0.00072706455
0.00081208695
0.00090310298
0.0010001007
0.0011029876
0.0012114074
0.001324778
0.0014427652
0.0015647934
0.0016900031
0.0018171606
0.0019445026
0.0020697399
0.0021897372
1.6617292e-10
3.872639e-10
6.2785174e-09
5.7317731e-08
3.0488241e-07
1.1148618e-06
3.0487313e-06
6.6030099e-06
1.1951983e-05
1.898893e-05
2.7524947e-05
3.7399551e-05
4.8496581e-05
6.0738066e-05
7.406832e-05
8.8438611e-05
0.00010379866
0.00012008812
0.00013722445
0.00015509335
0.0001735473
0.00019238716
0.00021137059
0.00023021878
0.00024860967
0.00026617966
0.00028251735
0.00029717104
0.00030965402
0.0003193373
0.00032542144
0.00032685816
0.00032223973
0.00030986208
0.00028757348
0.0002528594
0.00020327508
0.00013786261
6.4410766e-05
1.7082789e-05
5.6808211e-06
4.3675373e-06
4.1262977e-06
3.9626219e-06
3.8312255e-06
3.7225577e-06
3.606293e-06
3.462447e-06
3.3215401e-06
3.2418736e-06
3.2312613e-06
3.3219997e-06
1.678879e-10
3.9366749e-10
6.4036992e-09
5.8460336e-08
3.1079457e-07
1.1352115e-06
3.0991422e-06
6.6989981e-06
1.210303e-05
1.9198542e-05
2.7793286e-05
3.7725004e-05
4.8876448e-05
6.1169235e-05
7.4548421e-05
8.8960137e-05
0.00010435442
0.00012066827
0.00013781831
0.00015569599
0.00017416708
0.00019304833
0.00021210726
0.00023107199
0.00024962455
0.00026740593
0.00028401424
0.00029900349
0.0003118682
0.00032200021
0.00032862443
0.00033071006
0.00032687465
0.00031534797
0.00029395087
0.00026017663
0.00021155379
0.00014685258
7.2154776e-05
1.9943948e-05
6.0941495e-06
4.4601274e-06
4.1925062e-06
4.016233e-06
3.8699557e-06
3.7524414e-06
3.6370698e-06
3.4975358e-06
3.3527222e-06
3.2604831e-06
3.2379205e-06
3.3085326e-06
3.4668807e-06
3.621133e-06
3.7392524e-06
3.8202242e-06
3.8807761e-06
3.8844828e-06
3.6258412e-06
3.3012753e-06
3.0319955e-06
2.854481e-06
1.6913565e-10
3.9950425e-10
6.5243392e-09
5.9565822e-08
3.1653635e-07
1.1550962e-06
3.1488575e-06
6.7948698e-06
1.2256364e-05
1.9415601e-05
2.8077855e-05
3.8080016e-05
4.93045e-05
6.1672619e-05
7.5128836e-05
8.9621734e-05
0.0001050994
0.00012149321
0.00013871157
0.00015664304
0.000175156
0.00019407919
0.00021319563
0.00023224624
0.00025092637
0.00026888974
0.00028574411
0.00030104424
0.00031427616
0.00032482312
0.00033191238
0.0003345397
0.0003313744
0.00032067378
0.00030024962
0.00026755894
0.00022005437
0.00015623517
8.0644358e-05
2.3413626e-05
6.6098996e-06
4.5611639e-06
4.26256e-06
4.0757493e-06
3.914077e-06
3.7847234e-06
3.6668348e-06
3.5309236e-06
3.3843849e-06
3.2819497e-06
3.2505858e-06
3.3016606e-06
3.4456133e-06
3.6015413e-06
3.729023e-06
3.8235859e-06
3.897234e-06
3.9324132e-06
3.7173746e-06
3.3854912e-06
3.0994065e-06
2.8977332e-06
2.7656281e-06
2.715889e-06
2.795849e-06
2.8791917e-06
2.8037281e-06
1.6990863e-10
4.0426849e-10
6.6279453e-09
6.0518039e-08
3.2149682e-07
1.1723596e-06
3.1923139e-06
6.8793335e-06
1.239241e-05
1.9608867e-05
2.8330638e-05
3.8392455e-05
4.9675527e-05
6.2101347e-05
7.561638e-05
9.0164796e-05
0.00010570222
0.00012216518
0.00013946116
0.00015747458
0.00017607199
0.00019508476
0.00021430688
0.00023349426
0.0002523552
0.00027055415
0.00028770629
0.00030336862
0.00031702326
0.00032804473
0.00033565188
0.00033884224
0.0003363092
0.00032635654
0.00030684116
0.00027523024
0.00022891272
0.00016612232
9.0006097e-05
2.7672374e-05
7.2837952e-06
4.6750774e-06
4.3359429e-06
4.1410305e-06
3.9644028e-06
3.8208311e-06
3.6968917e-06
3.562919e-06
3.4163739e-06
3.3065415e-06
3.2686435e-06
3.3011187e-06
3.4279225e-06
3.5808827e-06
3.7153857e-06
3.8238715e-06
3.9107269e-06
3.9634585e-06
3.804998e-06
3.4713061e-06
3.1721501e-06
2.9471887e-06
2.7913827e-06
2.7282878e-06
2.7945734e-06
2.8786374e-06
2.7986947e-06
2.6738698e-06
2.8777088e-06
3.2231327e-06
3.4803791e-06
1.6947233e-10
4.0753759e-10
6.7189511e-09
6.1365002e-08
3.2595522e-07
1.1881347e-06
3.2329662e-06
6.9608087e-06
1.2528933e-05
1.9812923e-05
2.8614977e-05
3.877078e-05
5.0161009e-05
6.2703673e-05
7.6338363e-05
9.1012633e-05
0.00010667088
0.00012324233
0.00014063207
0.00015872682
0.00017739677
0.00019648265
0.00021579232
0.00023509624
0.00025411665
0.00027252939
0.0002899574
0.00030596167
0.00032002565
0.00033152423
0.00033967778
0.00034348836
0.00034165929
0.00033251361
0.00031393643
0.00028341675
0.0002383156
0.00017665959
0.00010037087
3.2887368e-05
8.1491296e-06
4.8025943e-06
4.4118573e-06
4.2114514e-06
4.0212013e-06
3.8617882e-06
3.7283989e-06
3.5939239e-06
3.448358e-06
3.3332037e-06
3.2887661e-06
3.3043019e-06
3.4152047e-06
3.5603248e-06
3.6993667e-06
3.8193462e-06
3.9184368e-06
3.9833761e-06
3.8840477e-06
3.5573465e-06
3.2492743e-06
3.0029922e-06
2.8217458e-06
2.7422358e-06
2.7938953e-06
2.8776949e-06
2.7928623e-06
2.6620884e-06
2.8677809e-06
3.2118144e-06
3.475788e-06
3.555699e-06
3.5694067e-06
3.5601037e-06
1.6754043e-10
4.0907032e-10
6.7980604e-09
6.2119551e-08
3.3002612e-07
1.2030605e-06
3.2729274e-06
7.043017e-06
1.2666679e-05
2.0011765e-05
2.8872727e-05
3.907953e-05
5.0511249e-05
6.3088597e-05
7.6757338e-05
9.1490755e-05
0.0001072289
0.00012390099
0.00014141054
0.00015964095
0.00017845765
0.00019769634
0.00021716305
0.00023663418
0.00025584458
0.00027448609
0.00029219763
0.00030855375
0.00032304824
0.00033506419
0.00034383013
0.0003483584
0.00034736592
0.00033919275
0.00032174226
0.00029251296
0.00024883517
0.00018855623
0.00011253058
3.9809792e-05
9.4388938e-06
4.9654878e-06
4.4912936e-06
4.287086e-06
4.0854194e-06
3.9092718e-06
3.7632976e-06
3.6252983e-06
3.4805051e-06
3.3613716e-06
3.3090123e-06
3.3100507e-06
3.4064105e-06
3.5404536e-06
3.6811636e-06
3.8101073e-06
3.9210692e-06
3.9965923e-06
3.9497643e-06
3.6426962e-06
3.3299941e-06
3.0654191e-06
2.85806e-06
2.7581476e-06
2.795001e-06
2.8769059e-06
2.7866452e-06
2.6499396e-06
2.8569179e-06
3.1995984e-06
3.4707883e-06
3.5549313e-06
3.5696548e-06
3.5611385e-06
3.5522103e-06
3.5314815e-06
3.5172105e-06
1.673937e-10
4.1223813e-10
6.8809619e-09
6.2893996e-08
3.3415453e-07
1.2180315e-06
3.313e-06
7.1272248e-06
1.2814634e-05
2.0241233e-05
2.9198889e-05
3.9513323e-05
5.1056067e-05
6.3739703e-05
7.7511342e-05
9.2323808e-05
0.00010812934
0.00012486993
0.00014246288
0.00016080168
0.0001797581
0.0001991679
0.00021883238
0.00023852349
0.00025797587
0.00027688674
0.00029490564
0.00031162132
0.00032654307
0.0003390688
0.00034844085
0.00035368573
0.00035353674
0.00034635322
0.00033005736
0.00030215449
0.00025994189
0.00020110999
0.00012570028
4.8268575e-05
1.1232369e-05
5.1718194e-06
4.57069e-06
4.3635954e-06
4.1539282e-06
3.9618095e-06
3.8011831e-06
3.6564657e-06
3.5112641e-06
3.3895567e-06
3.3297997e-06
3.3221308e-06
3.4018839e-06
3.5229154e-06
3.661859e-06
3.7974917e-06
3.9214115e-06
4.0058207e-06
3.9987379e-06
3.7247032e-06
3.4121056e-06
3.1334749e-06
2.9010567e-06
2.7769235e-06
2.8004602e-06
2.8768712e-06
2.7801007e-06
2.6378251e-06
2.845394e-06
3.1868862e-06
3.4655187e-06
3.5542581e-06
3.5698505e-06
3.5621298e-06
3.5533644e-06
3.5317113e-06
3.5172044e-06
3.4973591e-06
3.4802082e-06
1.6880222e-10
4.1669807e-10
6.9639524e-09
6.3652124e-08
3.3811122e-07
1.2319557e-06
3.3490875e-06
7.2012628e-06
1.2943699e-05
2.0443226e-05
2.9492334e-05
3.9917375e-05
5.159025e-05
6.4420965e-05
7.8337504e-05
9.3280512e-05
0.0001091936
0.00012601291
0.00014366088
0.00016205137
0.00018107789
0.00020059747
0.00022042967
0.00024035598
0.0002601107
0.00027938633
0.00029782739
0.00031501939
0.00033047167
0.00034358575
0.00035361075
0.00035958326
0.0003602512
0.00035399453
0.00033876015
0.00031207139
0.00027120946
0.00021374485
0.00013912904
5.792721e-05
1.3587455e-05
5.4295377e-06
4.6472442e-06
4.4367334e-06
4.2230233e-06
4.0171645e-06
3.8411765e-06
3.6869042e-06
3.5394194e-06
3.4162051e-06
3.3515563e-06
3.3399901e-06
3.4025422e-06
3.5089568e-06
3.6424662e-06
3.782297e-06
3.9176101e-06
4.0122207e-06
4.0314585e-06
3.8008294e-06
3.4936556e-06
3.2061428e-06
2.9508125e-06
2.800606e-06
2.8109558e-06
2.8774855e-06
2.7735107e-06
2.6261726e-06
2.8333772e-06
3.1739592e-06
3.4600146e-06
3.5536774e-06
3.5699637e-06
3.5631086e-06
3.5546805e-06
3.5322064e-06
3.5171921e-06
3.4969504e-06
3.4789898e-06
3.498172e-06
3.517092e-06
1.704191e-10
4.2115393e-10
7.0424628e-09
6.4365353e-08
3.4180089e-07
1.2447113e-06
3.3812671e-06
7.265316e-06
1.3052722e-05
2.0612329e-05
2.9740165e-05
4.0265451e-05
5.2061432e-05
6.50404e-05
7.9139055e-05
9.4297127e-05
0.00011045919
0.00012755724
0.00014550029
0.00016417533
0.00018346042
0.00020320571
0.0002232341
0.00024334244
0.00026328821
0.00028278846
0.00030151082
0.00031905901
0.00033495376
0.00034860131
0.00035925067
0.00036593643
0.00036740637
0.00036204629
0.00034781704
0.00032225838
0.00028264889
0.00022647658
0.00015274241
6.8758834e-05
1.6677147e-05
5.7661927e-06
4.7213387e-06
4.5042106e-06
4.2903963e-06
4.0738842e-06
3.8828757e-06
3.7168455e-06
3.5648356e-06
3.4405126e-06
3.3732569e-06
3.359416e-06
3.4054367e-06
3.4985387e-06
3.6234682e-06
3.7649569e-06
3.9090531e-06
4.0158509e-06
4.0511385e-06
3.8692677e-06
3.5734343e-06
3.2827919e-06
3.0075836e-06
2.8308953e-06
2.8252712e-06
2.879149e-06
2.7678516e-06
2.6153199e-06
2.8206589e-06
3.1607358e-06
3.4542016e-06
3.5529445e-06
3.5699273e-06
3.5641118e-06
3.5562145e-06
3.5328943e-06
3.517107e-06
3.4963987e-06
3.4778443e-06
3.4958288e-06
3.5145121e-06
3.5194972e-06
1.7191632e-10
4.2527078e-10
7.1148039e-09
6.5021312e-08
3.4517779e-07
1.2562582e-06
3.4098173e-06
7.3204797e-06
1.314329e-05
2.0747731e-05
2.9932332e-05
4.0529249e-05
5.2413838e-05
6.5497947e-05
7.9716015e-05
9.4998999e-05
0.00011128791
0.0001285104
0.00014657445
0.00016537442
0.00018479666
0.00020470814
0.00022495082
0.00024532858
0.00026560198
0.00028548895
0.00030465635
0.00032270858
0.00033916951
0.00035344992
0.00036480294
0.00037226584
0.00037458818
0.00037015922
0.00035694798
0.000332506
0.00029411281
0.00023919607
0.00016640211
8.058627e-05
2.0645533e-05
6.2152414e-06
4.7947808e-06
4.564932e-06
4.3547302e-06
4.1310954e-06
3.9261661e-06
3.7469183e-06
3.5880983e-06
3.4622937e-06
3.3936884e-06
3.3778116e-06
3.409462e-06
3.4911849e-06
3.6053057e-06
3.7461558e-06
3.8971726e-06
4.0173571e-06
4.0622198e-06
3.9289158e-06
3.6505709e-06
3.3627229e-06
3.0713338e-06
2.8687074e-06
2.8427248e-06
2.8822722e-06
2.7648435e-06
2.6055521e-06
2.8070823e-06
3.1471609e-06
3.4481099e-06
3.5520134e-06
3.5697637e-06
3.5651569e-06
3.5579915e-06
3.5337354e-06
3.5169229e-06
3.4958268e-06
3.4767541e-06
3.4936905e-06
3.5119206e-06
3.517157e-06
3.5231421e-06
3.5242066e-06
1.7342755e-10
4.2954668e-10
7.1908852e-09
6.5711812e-08
3.4873176e-07
1.2683871e-06
3.4396658e-06
7.3776747e-06
1.3236149e-05
2.0885019e-05
3.0125834e-05
4.0795255e-05
5.2773537e-05
6.5976932e-05
8.0342716e-05
9.5813404e-05
0.00011232902
0.00012981751
0.00014818462
0.00016731696
0.00018708376
0.00020732253
0.00022784469
0.00024845123
0.00026891652
0.00028898548
0.00030835916
0.00032667625
0.00034348959
0.00035823061
0.00037016391
0.00037832991
0.00038147507
0.00037798261
0.00036581615
0.00034252348
0.00030537316
0.00025173466
0.00017997184
9.3180656e-05
2.5617933e-05
6.8230553e-06
4.8716353e-06
4.6194358e-06
4.4160086e-06
4.1888411e-06
3.9715322e-06
3.7782207e-06
3.6103529e-06
3.4820002e-06
3.4125426e-06
3.3950085e-06
3.4173851e-06
3.487347e-06
3.5888076e-06
3.7269833e-06
3.8832238e-06
4.0162286e-06
4.0682807e-06
3.9793665e-06
3.7242887e-06
3.4450579e-06
3.1414149e-06
2.9130755e-06
2.8636063e-06
2.8886553e-06
2.7662668e-06
2.597089e-06
2.7927122e-06
3.1332752e-06
3.4418916e-06
3.5508818e-06
3.5695418e-06
3.5661995e-06
3.5599945e-06
3.5346812e-06
3.5166686e-06
3.4952732e-06
3.4756691e-06
3.4917705e-06
3.5093966e-06
3.5144679e-06
3.5231105e-06
3.526793e-06
3.4739772e-06
1.7484542e-10
4.3352612e-10
7.2614168e-09
6.6351151e-08
3.5201428e-07
1.2795241e-06
3.4667652e-06
7.4286441e-06
1.3316617e-05
2.0999462e-05
3.0279331e-05
4.0994163e-05
5.3025451e-05
6.6290594e-05
8.0728469e-05
9.6279832e-05
0.00011288419
0.00013047285
0.00014895259
0.0001682115
0.00018812457
0.00020854542
0.00022930576
0.0002502094
0.00027102528
0.00029148784
0.00031128736
0.00033005792
0.00034735774
0.00036263337
0.00037517059
0.00038403195
0.0003879821
0.00038541582
0.00037430103
0.00035218193
0.00031630898
0.00026398954
0.00019336162
0.00010629951
3.1681729e-05
7.6484225e-06
4.9577172e-06
4.6690378e-06
4.4746918e-06
4.2476747e-06
4.0199263e-06
3.8122477e-06
3.633221e-06
3.5006736e-06
3.4303369e-06
3.4116918e-06
3.4303384e-06
3.4874933e-06
3.5749973e-06
3.7085983e-06
3.8680709e-06
4.0120119e-06
4.0727815e-06
4.0204911e-06
3.7937368e-06
3.5285666e-06
3.2165643e-06
2.9619185e-06
2.8879477e-06
2.9001763e-06
2.7723048e-06
2.5900578e-06
2.7778363e-06
3.1192292e-06
3.4357546e-06
3.5495359e-06
3.5692384e-06
3.5671173e-06
3.5621856e-06
3.5356551e-06
3.5163967e-06
3.4947676e-06
3.474558e-06
3.4899961e-06
3.5070137e-06
3.5115111e-06
3.5230618e-06
3.5287327e-06
3.480095e-06
3.4075815e-06
1.7628749e-10
4.3785622e-10
7.3402586e-09
6.7067356e-08
3.5569933e-07
1.2920758e-06
3.4975065e-06
7.4870086e-06
1.340995e-05
2.1134545e-05
3.0464926e-05
4.1242647e-05
5.3353605e-05
6.6719818e-05
8.1284033e-05
9.6994398e-05
0.00011379681
0.00013161703
0.00015035742
0.00016990191
0.0001901162
0.0002108347
0.00023186499
0.00025300207
0.00027401959
0.00029467074
0.00031467341
0.00033369074
0.00035130607
0.00036698575
0.00038003121
0.00038951819
0.00039422263
0.00039254769
0.00038246503
0.00036151439
0.00032692566
0.00027594614
0.00020653782
0.00011972171
3.8866486e-05
8.7607024e-06
5.0600052e-06
4.7149893e-06
4.5308582e-06
4.307807e-06
4.0721891e-06
3.8505474e-06
3.6586426e-06
3.5197609e-06
3.4479079e-06
3.4284253e-06
3.4463192e-06
3.4904542e-06
3.5645451e-06
3.6916644e-06
3.852415e-06
4.0058319e-06
4.0773338e-06
4.0517868e-06
3.8580141e-06
3.611639e-06
3.295308e-06
3.0129618e-06
2.9152554e-06
2.9171548e-06
2.7815863e-06
2.5845238e-06
2.7627736e-06
3.1052042e-06
3.4297711e-06
3.5479225e-06
3.5687356e-06
3.5678328e-06
3.5645317e-06
3.5365888e-06
3.5161437e-06
3.494339e-06
3.4734313e-06
3.4883116e-06
3.5048012e-06
3.508453e-06
3.5226732e-06
3.5300502e-06
3.486293e-06
3.410234e-06
3.341101e-06
3.317515e-06
1.7764978e-10
4.4191784e-10
7.4140312e-09
6.7736915e-08
3.5913838e-07
1.3037476e-06
3.5258986e-06
7.5402911e-06
1.349362e-05
2.1252414e-05
3.0620869e-05
4.1441469e-05
5.3601331e-05
6.7024145e-05
8.1655363e-05
9.7446237e-05
0.00011434124
0.00013227588
0.00015116052
0.00017088635
0.00019132614
0.00021232177
0.00023368561
0.00025520618
0.00027664097
0.00029772042
0.00031814244
0.00033756271
0.00035557393
0.00037166638
0.00038517466
0.00039521023
0.00040058101
0.00039971369
0.00039059163
0.00037075141
0.00033739938
0.00028772392
0.00021954764
0.00013327786
4.7136559e-05
1.0234211e-05
5.1846398e-06
4.7559847e-06
4.5831466e-06
4.3677586e-06
4.1278928e-06
3.8938879e-06
3.6882937e-06
3.5406603e-06
3.4659226e-06
3.4452216e-06
3.4626455e-06
3.4946086e-06
3.5573412e-06
3.6761348e-06
3.8362228e-06
3.9976111e-06
4.0794353e-06
4.0716285e-06
3.9149913e-06
3.6917164e-06
3.3760137e-06
3.0661689e-06
2.9454192e-06
2.93792e-06
2.7934728e-06
2.5805284e-06
2.7475158e-06
3.0912907e-06
3.4238333e-06
3.5459975e-06
3.5679228e-06
3.5683256e-06
3.5669751e-06
3.5374903e-06
3.5159557e-06
3.4940035e-06
3.4723199e-06
3.4867228e-06
3.5027428e-06
3.5053788e-06
3.5218126e-06
3.5308121e-06
3.4924858e-06
3.4134718e-06
3.3412589e-06
3.3138181e-06
3.4596996e-06
1.7902184e-10
4.4622777e-10
7.4938196e-09
6.8461939e-08
3.6286686e-07
1.3164352e-06
3.5569116e-06
7.5989554e-06
1.3586791e-05
2.1385613e-05
3.0800295e-05
4.167499e-05
5.3898646e-05
6.739642e-05
8.211438e-05
9.8003686e-05
0.00011501259
0.00013307233
0.00015208858
0.00017194922
0.00019252837
0.00021367165
0.00023519594
0.00025689703
0.00027854518
0.00029989292
0.0003206739
0.00034055265
0.00035910534
0.00037580491
0.00038997629
0.00040073313
0.0004068967
0.00040691304
0.00039878295
0.00038004922
0.00034790353
0.00029948687
0.00023251455
0.00014693226
5.6465041e-05
1.2160354e-05
5.3400411e-06
4.7890643e-06
4.628254e-06
4.4238039e-06
4.184295e-06
3.9412962e-06
3.722725e-06
3.5641115e-06
3.4843166e-06
3.4612008e-06
3.4769863e-06
3.4997037e-06
3.5520523e-06
3.6610996e-06
3.8181286e-06
3.9850261e-06
4.0763611e-06
4.0793684e-06
3.9600264e-06
3.7647151e-06
3.4562735e-06
3.1225046e-06
2.9775151e-06
2.9598235e-06
2.8067075e-06
2.5780291e-06
2.7318284e-06
3.0774887e-06
3.4177672e-06
3.5437761e-06
3.566838e-06
3.568624e-06
3.5693831e-06
3.5384589e-06
3.5158948e-06
3.493749e-06
3.4712392e-06
3.4852495e-06
3.5008288e-06
3.5023341e-06
3.5205541e-06
3.5311977e-06
3.4985857e-06
3.4172135e-06
3.3415072e-06
3.3105037e-06
3.4537551e-06
3.6493116e-06
1.8038084e-10
4.5048179e-10
7.5725084e-09
6.9177068e-08
3.6654432e-07
1.3289432e-06
3.5874511e-06
7.6566203e-06
1.3678169e-05
2.1515977e-05
3.0975801e-05
4.1904201e-05
5.4193687e-05
6.7774227e-05
8.259814e-05
9.8624252e-05
0.00011580856
0.00013408937
0.00015337698
0.00017355898
0.00019449993
0.00021603564
0.00023797806
0.00026011972
0.0002822227
0.00030401707
0.00032518766
0.00034539297
0.00036424609
0.00038126402
0.00039581517
0.00040705111
0.00041382204
0.00041459184
0.00040736606
0.00038967616
0.000358682
0.00031146603
0.00024564108
0.00016076859
6.6861359e-05
1.4658342e-05
5.5433738e-06
4.8138992e-06
4.6638236e-06
4.472992e-06
4.2372844e-06
3.9893107e-06
3.7601714e-06
3.5893489e-06
3.5016921e-06
3.4748867e-06
3.4880786e-06
3.5061163e-06
3.547178e-06
3.6458026e-06
3.7979879e-06
3.9679074e-06
4.0679169e-06
4.0797482e-06
3.9906251e-06
3.8271485e-06
3.532991e-06
3.1820227e-06
3.0119208e-06
2.9815734e-06
2.8189378e-06
2.5767575e-06
2.7156373e-06
3.0638495e-06
3.4113674e-06
3.5412999e-06
3.5657249e-06
3.5687833e-06
3.5715034e-06
3.5395989e-06
3.51599e-06
3.4935525e-06
3.4701872e-06
3.4838451e-06
3.4990629e-06
3.4993477e-06
3.518982e-06
3.5313506e-06
3.5045095e-06
3.4212237e-06
3.3416281e-06
3.3074522e-06
3.4476577e-06
3.6450705e-06
3.7893505e-06
1.816742e-10
4.5452784e-10
7.6473545e-09
6.985685e-08
3.7003425e-07
1.3407775e-06
3.6162101e-06
7.7105557e-06
1.3762795e-05
2.163487e-05
3.1131977e-05
4.2100421e-05
5.4431917e-05
6.8054973e-05
8.2920124e-05
9.8984882e-05
0.00011619689
0.00013449955
0.00015381223
0.00017403817
0.00019505832
0.00021672238
0.00023885014
0.00026123592
0.00028364402
0.00030581699
0.00032747389
0.00034828981
0.00036785475
0.00038565492
0.00040103047
0.0004131177
0.00042076935
0.00042246654
0.00041623671
0.00039962383
0.00036977782
0.00032373813
0.00025902423
0.00017485749
7.8333142e-05
1.7874167e-05
5.8185373e-06
4.8347831e-06
4.6894299e-06
4.5158178e-06
4.2852531e-06
4.0336567e-06
3.7960457e-06
3.6130701e-06
3.5159012e-06
3.4855616e-06
3.4970914e-06
3.5134881e-06
3.5427177e-06
3.6308953e-06
3.7774872e-06
3.9481228e-06
4.0558485e-06
4.0753748e-06
4.0084213e-06
3.8795446e-06
3.6037805e-06
3.2446254e-06
3.0505678e-06
3.0049992e-06
2.8290253e-06
2.5763703e-06
2.6986511e-06
3.0505013e-06
3.4044475e-06
3.5386634e-06
3.5647268e-06
3.5687408e-06
3.573045e-06
3.5409436e-06
3.5162186e-06
3.4934095e-06
3.4691544e-06
3.48244e-06
3.4974244e-06
3.4964612e-06
3.5171216e-06
3.5313425e-06
3.5101855e-06
3.4254423e-06
3.3417096e-06
3.3045592e-06
3.441126e-06
3.6407664e-06
3.7874348e-06
1.8298275e-10
4.5873237e-10
7.7257146e-09
7.0568527e-08
3.7369331e-07
1.3532236e-06
3.6466125e-06
7.7680741e-06
1.38543e-05
2.1766177e-05
3.1310078e-05
4.2335058e-05
5.4736688e-05
6.844827e-05
8.3425661e-05
9.9631259e-05
0.00011702833
0.00013555809
0.00015513388
0.00017564759
0.00019697649
0.00021896892
0.00024144596
0.00026420785
0.00028702284
0.00030962635
0.00033171066
0.00035292732
0.00037288848
0.00039111663
0.0004069908
0.00041967747
0.00042804664
0.00043058575
0.0004253208
0.00040978552
0.00038110411
0.00033626348
0.00027268023
0.00018926213
9.0896288e-05
2.1988026e-05
6.2013971e-06
4.8570202e-06
4.705126e-06
4.5522426e-06
4.3293323e-06
4.0740356e-06
3.8267115e-06
3.6320539e-06
3.5264406e-06
3.4939396e-06
3.5049726e-06
3.5205048e-06
3.5393839e-06
3.6171538e-06
3.7570395e-06
3.9255475e-06
4.0392633e-06
4.0644043e-06
4.014519e-06
3.921954e-06
3.66788e-06
3.309833e-06
3.0946742e-06
3.0305353e-06
2.8382471e-06
2.5769532e-06
2.6804934e-06
3.037554e-06
3.3969308e-06
3.5359463e-06
3.5638006e-06
3.5685638e-06
3.5739624e-06
3.5424413e-06
3.5166573e-06
3.4933234e-06
3.4681251e-06
3.4809836e-06
3.4958652e-06
3.4937426e-06
3.5149698e-06
3.5310902e-06
3.5155485e-06
3.4299355e-06
3.3420944e-06
3.3018458e-06
3.4343061e-06
3.6364203e-06
3.7853729e-06
3.8582455e-06
1.8419725e-10
4.6249686e-10
7.7950469e-09
7.1197107e-08
3.7691613e-07
1.3641266e-06
3.6730063e-06
7.8173093e-06
1.3930998e-05
2.187289e-05
3.1448396e-05
4.2505704e-05
5.4939033e-05
6.8679917e-05
8.3682627e-05
9.9909366e-05
0.00011731067
0.00013583662
0.00015541265
0.00017594805
0.00019733169
0.00021942178
0.00024204747
0.00026501372
0.00028809597
0.00031104848
0.00033360251
0.00035541658
0.00037608125
0.00039509267
0.0004118084
0.00042538525
0.0004346963
0.00043824132
0.00043406131
0.00041969907
0.00039227085
0.00034872341
0.00028637302
0.00020384558
0.00010442047
2.7167912e-05
6.7397334e-06
4.8855522e-06
4.7137843e-06
4.5813658e-06
4.3701493e-06
4.1124666e-06
3.8545396e-06
3.6480788e-06
3.534928e-06
3.5008314e-06
3.5118193e-06
3.526305e-06
3.5377941e-06
3.6047623e-06
3.7377751e-06
3.9013672e-06
4.0188836e-06
4.048169e-06
4.0131803e-06
3.9522672e-06
3.7251842e-06
3.3764715e-06
3.1439432e-06
3.0579501e-06
2.8484343e-06
2.5788869e-06
2.6608614e-06
3.0250337e-06
3.3888439e-06
3.5331286e-06
3.5628528e-06
3.5683152e-06
3.5744384e-06
3.5439726e-06
3.5173287e-06
3.4932908e-06
3.4670963e-06
3.4794456e-06
3.49434e-06
3.4912362e-06
3.5125242e-06
3.5306801e-06
3.5205029e-06
3.4347656e-06
3.3429744e-06
3.2994716e-06
3.4273357e-06
3.6320297e-06
3.7831455e-06
3.8573925e-06
3.8744825e-06
1.8543466e-10
4.6649821e-10
7.8699849e-09
7.1878342e-08
3.8041761e-07
1.3760235e-06
3.7020241e-06
7.8721263e-06
1.4018127e-05
2.1997898e-05
3.1617986e-05
4.2729076e-05
5.522871e-05
6.90523e-05
8.4158086e-05
0.0001005114
0.00011808014
0.00013681014
0.00015662096
0.00017741095
0.00019906413
0.00022143608
0.00024435533
0.00026762952
0.00029103477
0.00031431387
0.00033716385
0.00035926127
0.00038022911
0.00039960034
0.00041676804
0.00043091864
0.00044094689
0.00044536574
0.00044222102
0.00042904977
0.00040294594
0.00036080414
0.00029983148
0.00021840383
0.00011866522
3.3539135e-05
7.4932979e-06
4.9264406e-06
4.720402e-06
4.6041671e-06
4.4080557e-06
4.1496269e-06
3.8819739e-06
3.6637193e-06
3.5427243e-06
3.5066638e-06
3.5176515e-06
3.5312578e-06
3.5381766e-06
3.5940041e-06
3.7202527e-06
3.8790126e-06
3.9984898e-06
4.0310423e-06
4.0101636e-06
3.9710597e-06
3.7754318e-06
3.4426536e-06
3.1976891e-06
3.0880919e-06
2.8607038e-06
2.581758e-06
2.6396014e-06
3.0127769e-06
3.3802815e-06
3.530141e-06
3.5617489e-06
3.5679271e-06
3.5746613e-06
3.5454577e-06
3.5181562e-06
3.4933083e-06
3.4660886e-06
3.477828e-06
3.492834e-06
3.4889462e-06
3.5098003e-06
3.5302596e-06
3.5249179e-06
3.4399646e-06
3.3441366e-06
3.2975846e-06
3.4202698e-06
3.6275697e-06
3.7808244e-06
3.8564947e-06
3.8749041e-06
3.8441338e-06
1.865607e-10
4.7000131e-10
7.934602e-09
7.2464397e-08
3.834219e-07
1.3861769e-06
3.7265627e-06
7.9178099e-06
1.4089157e-05
2.2096503e-05
3.1745377e-05
4.288547e-05
5.5412744e-05
6.9260529e-05
8.4385082e-05
0.00010075094
0.00011831027
0.00013701715
0.0001568012
0.00017757526
0.00019923415
0.00022164322
0.00024463996
0.00026803927
0.00029162782
0.00031517417
0.00033840831
0.00036100275
0.00038256581
0.00040261206
0.00042051979
0.00043547055
0.00044636716
0.00045174277
0.00044967016
0.00043771047
0.00041296482
0.00037229867
0.00031282598
0.00023271427
0.00013331039
4.1153174e-05
8.5355767e-06
4.9876968e-06
4.7287369e-06
4.6230636e-06
4.4434929e-06
4.1860029e-06
3.909333e-06
3.6798251e-06
3.5507252e-06
3.5120095e-06
3.5230791e-06
3.5364364e-06
3.5401994e-06
3.585481e-06
3.7044742e-06
3.8591192e-06
3.9800844e-06
4.0152225e-06
4.0053373e-06
3.9822289e-06
3.8179031e-06
3.5061871e-06
3.2551793e-06
3.1224494e-06
2.8756353e-06
2.5865107e-06
2.6170861e-06
3.0004306e-06
3.3714201e-06
3.5269597e-06
3.5603967e-06
3.5672588e-06
3.5747287e-06
3.5469148e-06
3.5190736e-06
3.4933674e-06
3.4651207e-06
3.4762046e-06
3.4913813e-06
3.4868259e-06
3.5068106e-06
3.5298758e-06
3.528703e-06
3.4455461e-06
3.3456916e-06
3.2961706e-06
3.4131556e-06
3.6230361e-06
3.7784737e-06
3.8558852e-06
3.8752348e-06
3.8448735e-06
3.8208703e-06
1.8772323e-10
4.7380887e-10
8.0061897e-09
7.3114776e-08
3.8676365e-07
1.3975272e-06
3.7542472e-06
7.9701395e-06
1.417245e-05
2.2216229e-05
3.1908061e-05
4.3099928e-05
5.5690784e-05
6.9617328e-05
8.4839115e-05
0.00010132287
0.00011904005
0.00013793889
0.00015794238
0.00017895299
0.00020085902
0.00022352086
0.0002467724
0.00027042662
0.00029426543
0.00031803636
0.00034145784
0.00036422073
0.00038596453
0.00040624295
0.00042447494
0.00043987883
0.00045138697
0.00045755402
0.00045646657
0.0004456904
0.00042231644
0.00038317204
0.00032528336
0.00024664997
0.00014805394
4.9976433e-05
9.9473963e-06
5.0771393e-06
4.7403911e-06
4.6390858e-06
4.4763209e-06
4.2225011e-06
3.9369447e-06
3.6968241e-06
3.5598107e-06
3.517897e-06
3.5291763e-06
3.5431063e-06
3.5445004e-06
3.5797865e-06
3.6913893e-06
3.8407275e-06
3.9624255e-06
4.0001712e-06
3.9954907e-06
3.9871588e-06
3.8519788e-06
3.5652624e-06
3.3160379e-06
3.1629394e-06
2.8933618e-06
2.5936302e-06
2.5950775e-06
2.987675e-06
3.3624803e-06
3.5236293e-06
3.5587966e-06
3.5662828e-06
3.5747023e-06
3.5483913e-06
3.5200687e-06
3.4934525e-06
3.4641985e-06
3.4746375e-06
3.4900193e-06
3.4848224e-06
3.503542e-06
3.5295201e-06
3.5318536e-06
3.4514425e-06
3.3476799e-06
3.2951007e-06
3.4060214e-06
3.6184398e-06
3.7760881e-06
3.855412e-06
3.87558e-06
3.8455811e-06
3.820892e-06
1.8877516e-10
4.7716107e-10
8.0685607e-09
7.3680172e-08
3.8966122e-07
1.4073268e-06
3.7779661e-06
8.014434e-06
1.424164e-05
2.2312834e-05
3.2033668e-05
4.3255163e-05
5.5874746e-05
6.9827054e-05
8.5069609e-05
0.00010156831
0.00011927918
0.0001381571
0.00015813417
0.00017912553
0.00020102862
0.00022371235
0.00024701851
0.00027076774
0.00029475277
0.00031874969
0.00034249823
0.00036568547
0.00038793744
0.00040879048
0.00042765021
0.00044373277
0.00045598356
0.00046298496
0.0004628605
0.00045321182
0.00043115002
0.00039348881
0.00033718748
0.00026011046
0.00016261286
5.9869411e-05
1.1807529e-05
5.2008496e-06
4.7548457e-06
4.6527819e-06
4.5038005e-06
4.2590182e-06
3.9655777e-06
3.7152013e-06
3.5707489e-06
3.5253666e-06
3.536777e-06
3.5516413e-06
3.5513352e-06
3.5769852e-06
3.6817848e-06
3.8249715e-06
3.9462129e-06
3.9861515e-06
3.9827096e-06
3.988595e-06
3.8779718e-06
3.6184158e-06
3.3791479e-06
3.2093118e-06
2.9137438e-06
2.5995703e-06
2.5763481e-06
2.9743415e-06
3.3536416e-06
3.5202935e-06
3.5569952e-06
3.5650052e-06
3.5745204e-06
3.5498668e-06
3.5211549e-06
3.493561e-06
3.4633354e-06
3.4731331e-06
3.4887444e-06
3.4829143e-06
3.4999746e-06
3.5291992e-06
3.5344152e-06
3.4575499e-06
3.3499505e-06
3.2942523e-06
3.3988696e-06
3.6137965e-06
3.7736348e-06
3.8549236e-06
3.8759654e-06
3.8462918e-06
3.8209047e-06
3.8222899e-06
1.8987067e-10
4.8086991e-10
8.1390998e-09
7.4321236e-08
3.9295607e-07
1.4185301e-06
3.8053493e-06
8.0663877e-06
1.4324772e-05
2.2433061e-05
3.2198033e-05
4.3472985e-05
5.615826e-05
7.0191752e-05
8.5534138e-05
0.00010215335
0.0001200221
0.00013909156
0.00015928718
0.00018051435
0.00020266529
0.0002256036
0.00024916639
0.0002731696
0.00029739913
0.00032160781
0.00034552203
0.00036884149
0.00039121912
0.0004122285
0.00043131676
0.00044774019
0.000460479
0.00046814347
0.00046887787
0.000460296
0.0004395078
0.00040330213
0.00034857559
0.00027307891
0.00017681112
7.0645294e-05
1.4193563e-05
5.3636695e-06
4.7668032e-06
4.6650637e-06
4.5216517e-06
4.2920167e-06
3.9957541e-06
3.7356028e-06
3.5837293e-06
3.5342757e-06
3.5451558e-06
3.5602777e-06
3.5582402e-06
3.5759603e-06
3.6752463e-06
3.8129901e-06
3.932411e-06
3.9734081e-06
3.9708159e-06
3.989494e-06
3.8968292e-06
3.6640583e-06
3.4419088e-06
3.2604743e-06
2.9369153e-06
2.6028167e-06
2.5622865e-06
2.9603936e-06
3.345056e-06
3.5171801e-06
3.5552269e-06