/*--------------------------------*- C++ -*----------------------------------*\
| =========                 |                                                 |
| \\      /  F ield         | OpenFOAM: The Open Source CFD Toolbox           |
|  \\    /   O peration     | Version:  2506                                  |
|   \\  /    A nd           | Website:  www.openfoam.com                      |
|    \\/     M anipulation  |                                                 |
\*---------------------------------------------------------------------------*/
FoamFile
{
    version     2.0;
    format      ascii;
    arch        "LSB;label=32;scalar=64";
    class       volVectorField;
    location    "0.05";
    object      wallShearStress;
}
// * * * * * * * * * * * * * * * * * * * * * * * * * * * * * * * * * * * * * //

dimensions      [1 -1 -2 0 0 0 0];

internalField   uniform (0 0 0);

boundaryField
{
    Side
    {
        type            empty;
    }
    Inlet
    {
        type            calculated;
        value           uniform (0 0 0);
    }
    Airfoil
    {
        type            calculated;
        value           nonuniform List<vector> 
33
(
(-7.0413926 1.3354307 -1.990611e-20)
(-7.1514086 1.3509645 -4.5064454e-19)
(-7.3486027 1.046423 4.5654695e-19)
(-7.545101 1.2834913 4.6411167e-19)
(-7.4069741 1.3752232 -1.3604682e-20)
(-7.7548722 0.47305119 -5.0186041e-19)
(-7.4784316 1.8382875 -2.6219475e-19)
(-7.8098097 -0.51101821 -2.3452689e-19)
(-7.9599918 1.6203077 -1.0584409e-20)
(-7.8611481 -0.0038411272 -1.11341e-19)
(-8.1953093 0.48581539 4.2495034e-19)
(-8.1302519 0.61059925 -4.1924238e-19)
(-8.3792878 -0.15713385 1.0300716e-19)
(-8.3140168 0.91850018 -7.7604353e-19)
(-8.2489104 -0.79903596 7.8013344e-19)
(-8.5580525 0.30910722 1.1490067e-18)
(-8.4978194 -0.0685832 -7.1328884e-19)
(-8.4587225 -0.18260027 -6.7716466e-19)
(-8.6740357 -0.44633202 6.5090618e-19)
(-8.5288614 0.74807972 -3.0092655e-36)
(-8.47214 -1.5845192 1.3183823e-18)
(-8.5308505 0.88187897 -1.258932e-18)
(-8.2703189 -1.2869743 1.2683886e-18)
(-8.3684024 0.24327105 -1.2380894e-18)
(-8.2189253 -1.1865599 5.8187867e-19)
(-8.2754776 -0.16959987 -2.8058931e-18)
(-8.0657647 -1.0761249 5.3816144e-19)
(-7.9749936 -0.29223464 2.1057918e-18)
(-7.801454 -1.1051888 -2.0015994e-18)
(-7.7478701 -0.49253537 -9.6035129e-19)
(-7.4809686 -1.0566115 -2.7520133e-18)
(-7.165071 -0.29541263 -3.4475588e-18)
(-6.1381348 -1.0563343 -7.7866289e-19)
)
;
    }
    Outlet
    {
        type            calculated;
        value           nonuniform List<vector> 0();
    }
    procBoundary1to0
    {
        type            processor;
        value           uniform (0 0 0);
    }
    procBoundary1to2
    {
        type            processor;
        value           uniform (0 0 0);
    }
    procBoundary1to8
    {
        type            processor;
        value           uniform (0 0 0);
    }
}


// ************************************************************************* //
