/*--------------------------------*- C++ -*----------------------------------*\
| =========                 |                                                 |
| \\      /  F ield         | OpenFOAM: The Open Source CFD Toolbox           |
|  \\    /   O peration     | Version:  2506                                  |
|   \\  /    A nd           | Website:  www.openfoam.com                      |
|    \\/     M anipulation  |                                                 |
\*---------------------------------------------------------------------------*/
FoamFile
{
    version     2.0;
    format      ascii;
    arch        "LSB;label=32;scalar=64";
    class       volScalarField;
    location    "0.009";
    object      Co;
}
// * * * * * * * * * * * * * * * * * * * * * * * * * * * * * * * * * * * * * //

dimensions      [0 0 0 0 0 0 0];

internalField   nonuniform List<scalar> 
13761
(
0.0016007879
0.0016004006
0.0016000229
0.001599654
0.0015992905
0.0016893028
0.0015989325
0.0016883847
0.001598582
0.0016874842
0.0015982389
0.0016866006
0.0015979029
0.0016857332
0.0015975733
0.0017786255
0.0016848808
0.0015972465
0.0017771935
0.0016840429
0.0015969221
0.0017757888
0.0016832199
0.0015966038
0.0017744154
0.0016824159
0.0015962922
0.0017730704
0.0016816294
0.0015959864
0.0017717503
0.0016808566
0.0015956847
0.0018608714
0.0017704543
0.0016800963
0.0015953878
0.0018590164
0.0017691807
0.0016793483
0.0015950966
0.0018571947
0.0017679296
0.0016786099
0.0015948077
0.0018554054
0.0017667005
0.0016778838
0.0015945193
0.0018536482
0.0017654922
0.0016771728
0.0015942336
0.0018519246
0.001764306
0.0016764784
0.0015939511
0.0019391584
0.0018502386
0.0017631451
0.0016757992
0.0015936735
0.001936939
0.0018485831
0.0017620053
0.0016751292
0.0015934035
0.0019347612
0.0018469571
0.0017608855
0.0016744675
0.0015931382
0.0019326235
0.0018453593
0.001759785
0.0016738153
0.0015928812
0.0019305248
0.0018437885
0.0017587054
0.0016731723
0.0015926383
0.0020154196
0.0019284636
0.0018422442
0.0017576447
0.0016725389
0.0015923978
0.0020128365
0.0019264385
0.0018407278
0.0017565987
0.0016719148
0.001592151
0.0020102999
0.0019244481
0.0018392384
0.0017555669
0.0016713004
0.0015919009
0.0020078129
0.0019224952
0.0018377767
0.0017545515
0.0016706948
0.0015916525
0.0020053823
0.0019205855
0.0018363465
0.001753557
0.0016700972
0.0015914085
0.0020029976
0.0019187107
0.0018349418
0.0017525795
0.0016695095
0.0015911714
0.0020846796
0.0020006569
0.0019168691
0.0018335617
0.0017516176
0.0016689352
0.0015909415
0.0020818573
0.0019983589
0.0019150602
0.0018322056
0.0017506714
0.0016683739
0.001590714
0.0020790873
0.0019961025
0.0019132834
0.0018308722
0.0017497423
0.0016678199
0.0015904858
0.0020763683
0.0019938865
0.0019115382
0.0018295595
0.0017488331
0.0016672685
0.0015902578
0.0020737049
0.0019917098
0.0019098236
0.0018282663
0.0017479419
0.0016667264
0.0015900354
0.0021527607
0.0020710916
0.0019895713
0.0019081386
0.0018269935
0.0017470619
0.0016661998
0.0015898161
0.002149703
0.0020685265
0.0019874714
0.0019064828
0.0018257441
0.0017461927
0.0016656868
0.0015895971
0.0021467185
0.0020660209
0.0019854187
0.0019048628
0.0018245238
0.0017453391
0.0016651814
0.0015893793
0.0021437959
0.002063566
0.0019834066
0.0019032736
0.0018233277
0.0017445004
0.0016646808
0.0015891638
0.0021409294
0.0020611576
0.0019814319
0.001901713
0.0018221526
0.0017436758
0.0016641873
0.0015889519
0.0021381178
0.0020587943
0.0019794934
0.0019001804
0.0018209973
0.0017428638
0.0016637017
0.0015887437
0.0022139965
0.0021353592
0.0020564749
0.0019775902
0.0018986752
0.0018198615
0.0017420656
0.0016632223
0.0015885405
0.0022108318
0.0021326529
0.0020541986
0.0019757217
0.0018971966
0.0018187451
0.0017412831
0.0016627486
0.0022077272
0.0021299969
0.0020519639
0.0019738868
0.001895744
0.001817647
0.001740514
0.0016622824
0.0022046816
0.0021273904
0.0020497701
0.0019720848
0.0018943166
0.0018165677
0.001739755
0.0016618239
0.0022016934
0.0021248321
0.0020476163
0.001970315
0.0018929138
0.0018155075
0.0017390067
0.0016613724
0.0022743108
0.002198767
0.0021223259
0.0020455053
0.0019685796
0.0018915378
0.0018144667
0.0017382742
0.0016609278
0.0022710326
0.002195914
0.0021198814
0.002043445
0.0019668846
0.0018901935
0.001813447
0.0017375617
0.0016604911
0.0022678219
0.0021931187
0.0021174857
0.002041425
0.0019652222
0.0018888747
0.0018124459
0.0017368615
0.001660062
0.0022646752
0.0021903783
0.0021151361
0.0020394434
0.0019635907
0.0018875792
0.0018114645
0.0017361697
0.0016596396
0.0022615911
0.0021876916
0.0021128317
0.0020374994
0.0019619898
0.001886307
0.001810501
0.0017354872
0.0022585682
0.0021850572
0.0021105715
0.0020355921
0.0019604186
0.0018850579
0.0018095538
0.0017348153
0.0023275385
0.0022556049
0.002182474
0.0021083545
0.0020337208
0.0019588766
0.0018838317
0.0018086227
0.0017341538
0.0023242502
0.0022527
0.002179941
0.0021061798
0.0020318847
0.0019573631
0.0018826281
0.0018077068
0.0017335045
0.0023210275
0.0022498522
0.002177457
0.0021040464
0.002030083
0.0019558775
0.0018814467
0.0018068048
0.0017328699
0.0023178688
0.0022470601
0.0021750208
0.0021019535
0.0020283151
0.0019544194
0.0018802867
0.0018059177
0.0017322487
0.0023147791
0.0022443282
0.0021726365
0.0020999044
0.0020265835
0.0019529907
0.00187915
0.0018050455
0.0017316402
0.0023804489
0.0023117752
0.0022416713
0.0021703167
0.0020979101
0.002024897
0.001951598
0.0018780414
0.0018041934
0.0017310473
0.002377164
0.0023088367
0.0022390715
0.0021680462
0.0020959575
0.0020232452
0.0019502335
0.0018769544
0.0018033617
0.0023739497
0.0023059607
0.0022365264
0.0021658227
0.0020940447
0.0020216267
0.0019488961
0.0018758878
0.0018025496
0.0023708041
0.0023031453
0.0022340342
0.0021636449
0.0020921706
0.0020200405
0.0019475851
0.0018748413
0.0018017547
0.0023677256
0.0023003894
0.002231594
0.0021615119
0.0020903344
0.0020184862
0.0019463001
0.0018738149
0.0018009744
0.0024301399
0.0023647134
0.0022976922
0.0022292051
0.0021594231
0.0020885359
0.0020169633
0.0019450406
0.0018728085
0.0018002075
0.0024268793
0.0023617653
0.0022950517
0.0022268659
0.0021573771
0.0020867737
0.0020154708
0.001943806
0.0018718217
0.0017994539
0.0024236894
0.0023588806
0.0022924673
0.0022245758
0.0021553736
0.0020850474
0.0020140084
0.001942596
0.0018708543
0.0017987137
0.0024205688
0.0023560578
0.0022899378
0.0022223337
0.0021534116
0.0020833565
0.0020125757
0.0019414102
0.001869906
0.0024801382
0.0024175174
0.002353297
0.0022874634
0.0022201399
0.0021514913
0.0020817011
0.0020111726
0.0019402485
0.0018689767
0.0024768933
0.0024145571
0.0023506179
0.0022850614
0.0022180097
0.002149626
0.0020800924
0.0020098083
0.001939118
0.0018680719
0.0024737337
0.0024116739
0.0023480081
0.0022827209
0.0022159335
0.0021478075
0.0020785235
0.002008477
0.0019380143
0.0018671885
0.002470649
0.0024088585
0.002345459
0.0022804344
0.0022139046
0.0021460299
0.0020769895
0.0020071751
0.0019369346
0.0018663242
0.002467638
0.00240611
0.00234297
0.0022782012
0.0022119226
0.0021442929
0.0020754901
0.0020059023
0.0019358787
0.0018654785
0.002524789
0.0024646985
0.0024034262
0.002340539
0.0022760197
0.0022099859
0.0021425952
0.0020740242
0.0020046575
0.0019348457
0.0018646504
0.0025216689
0.00246183
0.0024008067
0.0023381659
0.0022738896
0.0022080945
0.0021409367
0.0020725916
0.0020034408
0.0019338356
0.0018638397
0.002518624
0.0024590305
0.0023982499
0.002335849
0.0022718095
0.0022062469
0.0021393162
0.0020711915
0.0020022515
0.0019328479
0.0025156533
0.0024562989
0.0023957546
0.0023335875
0.0022697786
0.0022044427
0.0021377333
0.0020698235
0.0020010891
0.0019318823
0.0025717748
0.0025127555
0.002453634
0.0023933198
0.0023313804
0.0022677963
0.0022026811
0.0021361874
0.002068487
0.0019999533
0.0019309387
0.0025687198
0.0025099295
0.0024510347
0.0023909446
0.0023292268
0.0022658615
0.0022009614
0.0021346779
0.0020671815
0.0019988436
0.0019300166
0.00256575
0.0025071821
0.0024485074
0.0023886347
0.002327132
0.002263979
0.0021992878
0.0021332084
0.0020659103
0.0019977626
0.001929118
0.0025628866
0.0025045327
0.0024460696
0.0023864061
0.0023251104
0.0022621619
0.0021976717
0.0021317888
0.0020646817
0.0019967169
0.0019282481
0.0026204501
0.0025601017
0.0025019556
0.0024436981
0.0023842376
0.0023231429
0.002260393
0.0021960981
0.0021304062
0.0020634847
0.0019956979
0.0019274
0.0026175326
0.0025573925
0.0024994482
0.0024413903
0.0023821272
0.0023212277
0.0022586707
0.0021945656
0.0021290594
0.0020623183
0.0019947046
0.0019265731
0.002614693
0.0025547565
0.0024970083
0.0024391446
0.0023800732
0.0023193634
0.0022569938
0.0021930731
0.0021277473
0.0020611817
0.0019937365
0.002611931
0.0025521929
0.0024946355
0.0024369605
0.0023780754
0.0023175497
0.002255362
0.0021916204
0.0021264699
0.0020600747
0.0019927934
0.0026741041
0.0026092441
0.0025496999
0.0024923281
0.0024348367
0.0023761322
0.0023157853
0.0022537743
0.0021902066
0.0021252262
0.0020589966
0.0019918748
0.0026713018
0.0026066315
0.0025472765
0.0024900852
0.0024327721
0.002374243
0.0023140696
0.0022522301
0.0021888311
0.002124016
0.0020579471
0.0019909803
0.0026685772
0.0026040926
0.002544922
0.002487906
0.002430766
0.0023724071
0.0023124018
0.0022507287
0.0021874935
0.0021228387
0.0020569259
0.0019901097
0.0026659301
0.0026016267
0.0025426352
0.0024857896
0.0024288176
0.0023706237
0.0023107815
0.0022492696
0.0021861933
0.002121694
0.0020559324
0.0019892627
0.0027343857
0.0026633589
0.0025992328
0.002540415
0.002483735
0.0024269259
0.0023688919
0.0023092078
0.0022478522
0.0021849298
0.0021205813
0.0020549665
0.001988439
0.0027317607
0.0026608773
0.0025969232
0.002538273
0.0024817527
0.0024251006
0.0023672206
0.0023076887
0.0022464836
0.0021837095
0.0021195062
0.0020540328
0.0027292493
0.0026585036
0.0025947145
0.0025362251
0.0024798576
0.0024233553
0.0023656222
0.0023062353
0.0022451738
0.0021825411
0.0021184763
0.0020531379
0.0027268192
0.0026562063
0.0025925774
0.0025342444
0.0024780248
0.0024216674
0.002364076
0.0023048291
0.0022439062
0.0021814099
0.0021174789
0.0020522708
0.002797742
0.0027244676
0.0026539836
0.0025905102
0.0025323292
0.0024762526
0.0024200352
0.0023625807
0.002303469
0.0022426797
0.0021803152
0.0021165133
0.002051431
0.0027954791
0.0027221929
0.0026518336
0.0025885111
0.0025304779
0.0024745396
0.0024184576
0.002361135
0.0023021537
0.0022414933
0.0021792559
0.0021155787
0.0020506178
0.0027932926
0.0027199941
0.0026497557
0.0025865798
0.0025286898
0.0024728853
0.0024169339
0.0023597386
0.0023008829
0.0022403468
0.002178232
0.0021146748
0.002049831
0.0028543653
0.0027911821
0.0027178701
0.0026477494
0.0025847154
0.0025269641
0.0024712889
0.0024154635
0.0023583909
0.0022996561
0.0022392397
0.0021772429
0.0021138014
0.0020490703
0.0028525608
0.0027891458
0.0027158196
0.0026458135
0.0025829169
0.0025252998
0.0024697495
0.0024140456
0.002357091
0.0022984727
0.0022381714
0.0021762881
0.002112958
0.002850833
0.0027871825
0.0027138414
0.0026439467
0.0025811835
0.0025236963
0.0024682665
0.0024126797
0.0023558385
0.0022973321
0.0022371415
0.0021753673
0.0021121442
0.0028900401
0.0028491812
0.0027852914
0.0027119347
0.0026421481
0.0025795143
0.0025221528
0.0024668391
0.0024113649
0.0023546328
0.0022962338
0.0022361494
0.00217448
0.0021113597
0.0028889288
0.0028476045
0.0027834713
0.0027100986
0.0026404164
0.0025779086
0.0025206688
0.0024654668
0.0024101008
0.0023534734
0.0022951774
0.0022351949
0.002173626
0.0021106043
0.0028879031
0.0028461132
0.0027817321
0.0027083423
0.0026387599
0.0025763744
0.0025192515
0.0024641563
0.0024088937
0.0023523659
0.002294168
0.0022342826
0.0021728093
0.0021098815
0.0028938021
0.0028869881
0.0028447383
0.0027801036
0.0027066936
0.0026372043
0.0025749354
0.0025179231
0.002462928
0.0024077621
0.0023513274
0.0022932209
0.0022334259
0.0021720419
0.0021092017
0.0028935262
0.0028861416
0.0028434408
0.0027785493
0.0027051184
0.0026357177
0.0025735621
0.0025166562
0.0024617569
0.0024066834
0.002350337
0.0022923175
0.0022326084
0.0021713093
0.0021085522
0.0028933532
0.0028853634
0.0028422159
0.0027770648
0.0027036125
0.0026342963
0.0025722511
0.0025154478
0.0024606401
0.0024056546
0.0023493924
0.0022914554
0.002231828
0.0021706095
0.0028851516
0.0028932761
0.0028846592
0.0028410611
0.0027756482
0.0027021742
0.0026329386
0.0025710007
0.0025142964
0.0024595763
0.0024046748
0.0023484925
0.0022906339
0.002231084
0.0021699418
0.0028848767
0.0028932937
0.0028840331
0.0028399758
0.0027742991
0.0027008034
0.0026316453
0.0025698111
0.0025132022
0.0024585657
0.0024037439
0.0023476373
0.0022898528
0.0022303762
0.0021693064
0.0028847078
0.0028934005
0.0028834814
0.0028389584
0.0027730154
0.0026994988
0.0026304151
0.0025686808
0.0025121635
0.0024576068
0.0024028608
0.0023468258
0.0022891114
0.002229704
0.0021687025
0.0029144903
0.002884648
0.0028935934
0.0028829991
0.002838009
0.0027717971
0.00269826
0.0026292478
0.0025676098
0.0025111804
0.0024566996
0.0024020255
0.0023460579
0.0022884094
0.0022290672
0.00216813
0.0029131157
0.0028847016
0.0028938696
0.0028825829
0.002837128
0.0027706441
0.0026970864
0.002628143
0.0025665975
0.0025102525
0.0024558438
0.0024012374
0.0023453333
0.0022877467
0.0022284656
0.0021675888
0.0029738901
0.0029118595
0.0028848682
0.0028942266
0.0028822317
0.0028363145
0.0027695562
0.002695977
0.0026270991
0.0025656429
0.0025093787
0.0024550384
0.002400496
0.0023446512
0.0022871225
0.0022278986
0.0021670782
0.0029729618
0.0029107198
0.0028851483
0.0028946624
0.0028819459
0.0028355678
0.0027685336
0.0026949314
0.002626116
0.0025647459
0.0025085589
0.0024542832
0.0023998008
0.0023440115
0.0022865368
0.002227366
0.0030086385
0.0029720865
0.0029097007
0.0028855399
0.0028951765
0.002881726
0.0028348877
0.0027675776
0.0026939512
0.0026251949
0.0025639073
0.002507794
0.002453579
0.0023991527
0.0023434148
0.00228599
0.0022268685
0.003008726
0.0029713173
0.002908857
0.0028860851
0.0028958125
0.0028816128
0.0028343131
0.0027667256
0.0026930714
0.0026243683
0.0025631572
0.0025071118
0.0024529515
0.0023985751
0.0023428826
0.0022855015
0.0022264232
0.0030089288
0.0029706229
0.0029081649
0.0028867536
0.0028965417
0.0028815784
0.0028338179
0.0027659539
0.0026922702
0.002623616
0.0025624768
0.002506495
0.0024523847
0.0023980534
0.0023424013
0.0022850592
0.0022260194
0.0030287479
0.0030092085
0.0029699801
0.002907609
0.0028875246
0.0028973428
0.0028816053
0.0028333841
0.0027652456
0.0026915313
0.0026229232
0.0025618524
0.0025059307
0.0024518667
0.0023975769
0.0023419614
0.0022846545
0.0022256491
0.0030292159
0.0030095502
0.002969385
0.0029071927
0.002888398
0.0028982126
0.0028816954
0.0028330112
0.0027645997
0.0026908529
0.0026222886
0.002561283
0.002505418
0.0024513967
0.0023971446
0.0023415619
0.0022842863
0.0022253118
0.0030615417
0.0030297913
0.0030099462
0.0029688358
0.0029069181
0.0028893747
0.0028991483
0.0028818512
0.0028326992
0.0027640162
0.0026902343
0.0026217118
0.0025607683
0.0025049565
0.0024509743
0.0023967562
0.0023412027
0.0022839547
0.0022250073
0.0030618416
0.0030304778
0.0030103996
0.0029683317
0.0029067831
0.0028904572
0.0029001475
0.002882073
0.0028324493
0.0027634953
0.0026896758
0.0026211929
0.0025603083
0.0025045464
0.0024505998
0.0023964121
0.0023408839
0.0022836597
0.0030985461
0.0030622224
0.00303128
0.0030109161
0.0029678697
0.0029067817
0.0028916446
0.0029012052
0.0028823576
0.0028322594
0.0027630353
0.0026891754
0.0026207301
0.0025599016
0.0025041862
0.0024502719
0.0023961109
0.0023406044
0.0022834003
0.003131326
0.0030991981
0.0030626838
0.0030322025
0.0030115042
0.0029674532
0.0029069146
0.0028929394
0.0029023196
0.0028827052
0.0028321301
0.0027626368
0.0026887337
0.0026203239
0.0025595486
0.0025038768
0.0024499911
0.0023958532
0.0023403647
0.0022831772
0.0031323941
0.0030999461
0.0030632314
0.0030332427
0.0030121617
0.002967078
0.002907173
0.0028943409
0.0029034879
0.002883115
0.00283206
0.0027622982
0.0026883488
0.0026199727
0.0025592481
0.0025036168
0.0024497564
0.0023956381
0.0023401639
0.0022829892
0.0031635108
0.0031335322
0.0031007739
0.0030638654
0.0030343992
0.0030128847
0.0029667444
0.0029075487
0.0028958508
0.0029047112
0.0028835897
0.00283205
0.0027620193
0.0026880205
0.0026196767
0.0025590004
0.0025034064
0.0024495679
0.0023954656
0.0023400022
0.0022828367
0.0031648761
0.0031347797
0.0031016965
0.0030645913
0.0030356707
0.0030136705
0.0029664587
0.0029080364
0.0028974704
0.0029059928
0.0028841317
0.0028321005
0.0027617998
0.002687749
0.0026194358
0.0025588056
0.0025032456
0.0024494254
0.0023953356
0.0023398794
0.0022827194
0.0031969877
0.00316631
0.0031361147
0.0031027219
0.0030654279
0.0030370741
0.003014538
0.0029662428
0.0029086464
0.0028992145
0.0029073523
0.002884754
0.0028322231
0.0027616511
0.0026875461
0.0026192605
0.0025586729
0.0025031428
0.002449337
0.0023952554
0.002339802
0.0032282093
0.0031987844
0.0031679332
0.0031376185
0.0031039105
0.0030664282
0.0030386541
0.0030155383
0.002966148
0.0029094173
0.0029011206
0.0029088332
0.0028854888
0.0028324507
0.002761605
0.0026874421
0.0026191783
0.0025586276
0.0025031215
0.0024493243
0.0023952447
0.0023397881
0.0032574331
0.0032302953
0.0032006108
0.0031696076
0.0031391962
0.0031051896
0.003067529
0.0030403436
0.0030166177
0.0029661298
0.0029102972
0.0029031368
0.0029103928
0.0028862843
0.0028327387
0.0027616219
0.0026874005
0.0026191551
0.002558638
0.0025031524
0.00244936
0.0023952789
0.0023398153
0.0032599034
0.0032325259
0.0032025574
0.0031713804
0.0031408637
0.0031065563
0.0030687213
0.0030421245
0.0030177667
0.0029661911
0.0029112831
0.0029052543
0.0029120278
0.0028871299
0.0028330815
0.0027616978
0.0026874167
0.0026191869
0.0025587005
0.0025032323
0.0024494414
0.002395355
0.0023398808
0.0032880525
0.0032623928
0.0032347787
0.0032045381
0.0031732093
0.0031426067
0.003108004
0.0030700014
0.0030439862
0.0030189761
0.0029663377
0.0029123792
0.0029074705
0.0029137359
0.0028880222
0.0028334787
0.0027618333
0.0026874895
0.0026192732
0.0025588146
0.0025033607
0.002449568
0.0023954729
0.0023399845
0.0033154184
0.0032909717
0.0032650558
0.0032371779
0.0032066371
0.0031751394
0.0031444432
0.0031095336
0.0030713686
0.00304592
0.0030202404
0.0029665718
0.0029135905
0.0029097841
0.0029155105
0.0028889622
0.0028339309
0.0027620283
0.0026876185
0.0026194138
0.0025589804
0.0025035374
0.0024497397
0.0023956323
0.0023401262
0.0033417681
0.0033185888
0.0032938754
0.0032677345
0.0032396123
0.0032087905
0.0031771441
0.0031463654
0.003111143
0.0030728276
0.0030479199
0.0030215621
0.0029668927
0.0029149208
0.0029121938
0.0029173422
0.0028899527
0.0028344392
0.0027622826
0.0026878038
0.0026196085
0.0025591975
0.0025037623
0.0024499562
0.0023958332
0.0023403058
0.0033676426
0.0033454604
0.0033220247
0.0032970047
0.0032705885
0.0032421895
0.003211061
0.0031792515
0.003148383
0.0031128366
0.0030743874
0.0030499857
0.0030229454
0.0029672989
0.0029163707
0.0029146959
0.0029192203
0.0028909978
0.0028350043
0.0027625949
0.0026880453
0.0026198573
0.0025594658
0.0025040351
0.0024502175
0.0023960752
0.0033919841
0.0033716077
0.0033491334
0.00332539
0.0033001032
0.0032734609
0.0032448138
0.0032133989
0.0031814413
0.0031504896
0.0031146179
0.0030760568
0.0030521202
0.0030243893
0.0029677911
0.0029179384
0.0029172855
0.0029211374
0.0028921004
0.0028356261
0.0027629638
0.0026883429
0.0026201597
0.002559785
0.0025043554
0.002450523
0.002396358
0.0034151614
0.0033962461
0.0033757309
0.0033530608
0.003329033
0.0033034268
0.0032765037
0.0032475735
0.0032158498
0.0031837322
0.0031526903
0.0031164929
0.0030778391
0.003054329
0.0030258913
0.0029683755
0.002919623
0.0029199588
0.002923095
0.0028932637
0.0028363047
0.0027633885
0.0026886966
0.0026205157
0.0025601549
0.0025047232
0.0024508729
0.0023966818
0.0034529605
0.003436973
0.0034197695
0.0034006607
0.0033798764
0.0033569126
0.0033325884
0.0033067237
0.003279576
0.003250393
0.0032183805
0.0031861138
0.0031549808
0.0031184619
0.0030797306
0.0030566112
0.0030274463
0.0029690574
0.0029214246
0.0029227119
0.0029251012
0.0028944873
0.0028370398
0.0027638685
0.0026891061
0.0026209252
0.0025605753
0.0025051385
0.002451267
0.0023970461
0.0034721962
0.0034580356
0.0034418727
0.003424469
0.0034051777
0.0033842219
0.0033610425
0.0033364188
0.0033102312
0.0032828047
0.003253339
0.0032210238
0.0031885977
0.0031573606
0.0031205232
0.0030817267
0.0030589562
0.0030290506
0.0029698418
0.0029233462
0.0029255428
0.002927168
0.0028957685
0.0028378312
0.0027644041
0.0026895703
0.0026213875
0.0025610459
0.0025056007
0.0024517051
0.0023974511
0.0035028242
0.0034908893
0.0034776066
0.0034633046
0.0034469946
0.003429367
0.0034098072
0.0033885662
0.0033651177
0.0033402171
0.0033137728
0.0032861186
0.0032563977
0.0032237982
0.0031912142
0.0031598607
0.0031227066
0.0030838531
0.0030613875
0.0030307329
0.0029707599
0.0029254202
0.0029284767
0.0029293284
0.0028971281
0.0028387018
0.0027650174
0.0026901092
0.002621921
0.0025615838
0.0025061258
0.0024522015
0.0023979097
0.0035298021
0.0035200885
0.0035088977
0.0034968154
0.0034833856
0.0034688591
0.0034523307
0.0034344545
0.003414687
0.0033932547
0.0033695739
0.003344361
0.0033175868
0.0032896514
0.0032596494
0.0032267558
0.0031939989
0.0031625084
0.0031250373
0.0030861318
0.0030639295
0.0030325149
0.0029718364
0.0029276748
0.0029315335
0.0029316023
0.0028985837
0.0028396701
0.0027657263
0.0026907386
0.0026225405
0.0025622027
0.0025067266
0.0024527682
0.0035532211
0.0035452411
0.0035362724
0.0035264225
0.0035151022
0.0035028625
0.0034893053
0.003474548
0.0034577644
0.0034395901
0.0034195477
0.0033978571
0.0033739305
0.0033484495
0.0033214117
0.0032932379
0.003262979
0.0032298084
0.003196876
0.0031652329
0.0031274501
0.0030885063
0.0030665273
0.003034332
0.0029730169
0.0029300638
0.0029346618
0.002933935
0.0029000911
0.0028406939
0.0027664917
0.0026914222
0.0026232122
0.0025628712
0.0025073736
0.0024533781
0.0035799429
0.003574066
0.0035676029
0.0035601275
0.0035520523
0.0035430304
0.0035330511
0.0035215751
0.0035091176
0.0034953508
0.0034803075
0.0034632822
0.0034448747
0.0034246407
0.0034027484
0.0033785682
0.0033527659
0.0033253991
0.0032969457
0.0032664139
0.0032329664
0.0031998479
0.0031680317
0.0031299446
0.0030909912
0.0030691891
0.0030361784
0.0029742965
0.0029325906
0.0029378587
0.0029363181
0.0029016522
0.0028417724
0.0027673132
0.0026921598
0.0026239355
0.0025635889
0.0025080668
0.0024540309
0.0036013568
0.0035971449
0.0035925995
0.0035873817
0.0035814841
0.0035749078
0.0035673614
0.0035591582
0.0035499873
0.0035398152
0.003528158
0.0035154686
0.0035014885
0.0034861413
0.003468837
0.0034501567
0.0034296783
0.0034075415
0.0033831238
0.0033570544
0.0033294151
0.0033007124
0.0032699264
0.0032362201
0.003202913
0.0031709032
0.0031325189
0.003093607
0.0030719261
0.0030380386
0.0029756691
0.0029352582
0.0029411237
0.0029387483
0.0029032682
0.0028429053
0.0027681898
0.0026929506
0.0026247099
0.002564355
0.0025088053
0.0024547262
0.0036249068
0.0036225798
0.0036196553
0.0036169137
0.0036132544
0.0036095786
0.0036051767
0.0036004827
0.003595074
0.0035890611
0.003582343
0.0035747438
0.0035664237
0.0035570697
0.0035466832
0.0035348188
0.0035218702
0.0035076732
0.0034920673
0.0034745735
0.0034556931
0.0034350073
0.0034126248
0.0033879309
0.0033615355
0.0033335662
0.0033045808
0.0032735305
0.0032395744
0.0032060732
0.0031738473
0.0031351668
0.0030963732
0.0030747491
0.0030399018
0.0029771279
0.002938069
0.0029444588
0.0029412292
0.0029049395
0.002844093
0.0027691216
0.0026937948
0.0026255353
0.0025651697
0.0025095892
0.0024554636
0.0036476648
0.003646881
0.003645109
0.0036432447
0.0036416896
0.0036393076
0.0036378096
0.0036354051
0.0036330312
0.003630416
0.0036273848
0.0036246236
0.0036210649
0.003617443
0.0036130581
0.0036083763
0.0036029221
0.0035969086
0.0035900868
0.0035823929
0.0035738819
0.0035642847
0.0035536519
0.0035415715
0.0035283682
0.0035139487
0.0034980562
0.0034803288
0.003461187
0.0034402418
0.0034176069
0.0033926816
0.0033660189
0.0033377614
0.0033085099
0.0032772069
0.0032430209
0.0032093243
0.0031768635
0.0031378789
0.0030992991
0.0030776605
0.0030417671
0.0029786678
0.0029410241
0.002947868
0.0029437663
0.002906665
0.0028453356
0.0027701084
0.002694692
0.002626412
0.0025660329
0.0025104185
0.0024562435
0.004124444
0.0041845527
0.0042649163
0.0044012753
0.0045499384
0.0046687066
0.0048246046
0.0049399299
0.0050392834
0.005078135
0.0050976959
0.0050939989
0.0050605297
0.0049861161
0.0048446036
0.0046781003
0.0045126226
0.004359772
0.0042213419
0.0041036805
0.0040030342
0.0039163789
0.0038421849
0.0037797086
0.0037274318
0.0036848935
0.0036509216
0.0036316275
0.0036356034
0.0036480785
0.0036554262
0.0036604698
0.0036626229
0.0036629418
0.0036624706
0.0036584952
0.0036556387
0.0036532224
0.0036511629
0.0036485995
0.0036468979
0.0036443433
0.0036420113
0.0036393943
0.0036362844
0.0036332731
0.0036294959
0.0036256542
0.0036210894
0.003616301
0.0036107149
0.0036046402
0.0035976931
0.0035898733
0.0035812158
0.0035714358
0.0035605806
0.0035483321
0.0035349489
0.0035203747
0.0035042691
0.0034863693
0.0034669775
0.0034457647
0.0034228553
0.0033976497
0.003370667
0.0033420741
0.0033125268
0.0032809612
0.0032465571
0.0032126605
0.0031799503
0.0031406477
0.0031023793
0.0030806533
0.0030436425
0.0029802855
0.0029441223
0.0029513541
0.0029463624
0.0029084431
0.0028466327
0.0027711499
0.0026956423
0.0026273398
0.0025669447
0.0025112931
0.0028809105
0.0029186354
0.0029703493
0.0030430644
0.0031466201
0.0032947019
0.0035083306
0.0037987743
0.0040642572
0.0042679886
0.0044832637
0.0046563268
0.0048177485
0.0049189174
0.005012781
0.005082482
0.0050998475
0.0050656121
0.00495515
0.0047861533
0.0045931279
0.0044012527
0.0042267084
0.0040799521
0.0039610712
0.0038639185
0.003785653
0.0037241163
0.0036766675
0.0036663821
0.0036798021
0.0036868391
0.0036906249
0.0036905358
0.0036879178
0.0036849946
0.0036811509
0.0036770884
0.0036723734
0.0036664144
0.0036634898
0.003661086
0.0036590462
0.0036566733
0.0036550136
0.0036523152
0.0036498746
0.0036471465
0.0036441257
0.0036412206
0.003637565
0.0036337976
0.0036292581
0.0036245093
0.0036188685
0.0036127252
0.003605626
0.0035976505
0.0035888206
0.0035788191
0.003567705
0.0035552705
0.0035416891
0.0035269074
0.0035105069
0.0034923512
0.0034726512
0.0034511686
0.0034280225
0.0034025958
0.003375345
0.0033464467
0.0033166097
0.0032847843
0.0032501772
0.0032160741
0.0031831067
0.0031434749
0.0031056002
0.0030837222
0.003045539
0.0029819793
0.0029473603
0.0029549168
0.0029490158
0.0029102732
0.0028479839
0.0027722458
0.0026966455
0.0026283187
0.0025679046
0.0025122129
0.0019383765
0.0019983987
0.0020608895
0.0021257334
0.0021926145
0.0022609127
0.0023291198
0.0023943829
0.0024509239
0.0024891024
0.0025026363
0.0025018762
0.0024963957
0.0025337051
0.0025931125
0.0027478035
0.0029693061
0.0032159025
0.0034581999
0.0036787733
0.0038525478
0.0039519911
0.0039761746
0.0039381116
0.0038568868
0.0038140516
0.0038257498
0.0038440659
0.0038499656
0.0038461502
0.0038341983
0.0038159345
0.0037952537
0.0037744803
0.0037562139
0.0037406033
0.003726455
0.0037144429
0.0037046745
0.0036959254
0.0036886323
0.0036817758
0.0036761326
0.0036737715
0.0036711705
0.003668936
0.0036663229
0.003664287
0.00366128
0.0036588036
0.0036559318
0.0036527695
0.0036496001
0.0036457484
0.0036418619
0.0036372089
0.0036323876
0.0036266371
0.0036204067
0.0036132443
0.0036051997
0.0035962637
0.0035861581
0.0035748928
0.0035623505
0.0035486479
0.0035337016
0.0035170302
0.0034986286
0.0034786096
0.0034568485
0.0034334308
0.0034077322
0.0033801678
0.0033509285
0.0033207791
0.0032886838
0.0032538836
0.0032195606
0.0031863326
0.0031463656
0.0031089496
0.0030868675
0.003047468
0.0029837493
0.0029507362
0.0029585507
0.0029517219
0.0029121554
0.0028493883
0.0027733961
0.0026977016
0.0026293487
0.0025689131
0.002513178
0.0036763728
0.0037652542
0.0038542604
0.0039432842
0.0040317987
0.0041196019
0.0042059697
0.0042900022
0.004370729
0.0044460106
0.0045133049
0.0045693236
0.0046103839
0.0046333362
0.0046643587
0.0046876096
0.004733334
0.0047900433
0.0048475659
0.0049075598
0.0049753047
0.0050573956
0.0051419166
0.0051772445
0.0051590751
0.0050946177
0.0049743379
0.0048131245
0.0046389819
0.0044709026
0.0043253344
0.0042004436
0.0040958071
0.0040066039
0.0039321591
0.0038730461
0.0038266294
0.003791276
0.0037636719
0.0037415985
0.0037247053
0.0037114482
0.0037009272
0.003693092
0.0036864894
0.0036824886
0.0036809374
0.0036782728
0.0036760111
0.0036734543
0.0036715062
0.0036686581
0.0036664762
0.0036637877
0.0036609822
0.0036580424
0.003654286
0.0036504513
0.0036457742
0.003640908
0.0036350805
0.0036287385
0.0036214621
0.0036132618
0.0036041228
0.0035938781
0.0035823886
0.0035696216
0.0035557019
0.0035404938
0.0035234676
0.0035047719
0.0034844391
0.0034624387
0.0034388004
0.0034128837
0.0033850434
0.003355483
0.003325025
0.0032926604
0.0032576803
0.0032231189
0.0031896301
0.0031493237
0.0031124228
0.003090093
0.0030494371
0.0029855995
0.0029542456
0.0029622494
0.0029544756
0.0029140901
0.0028508452
0.0027746007
0.002698811
0.0026304297
0.0025699698
0.0025141883
0.0039542999
0.0040372693
0.004117286
0.0041941123
0.0042680477
0.0043386402
0.0044058714
0.0044695244
0.0045296121
0.004585828
0.0046384129
0.0046872956
0.0047326953
0.0047754774
0.0048162239
0.0048562793
0.0048975996
0.0049437123
0.0049948328
0.0050975078
0.0052146968
0.0053491637
0.0054854618
0.0055959659
0.0057015518
0.0057836388
0.0058576742
0.0058825914
0.0058344859
0.0057369961
0.0055773138
0.005344313
0.0050562565
0.0047787088
0.0045445434
0.0043563155
0.0042058443
0.0040856568
0.003988816
0.0039139019
0.0038572358
0.0038139888
0.0037814832
0.0037561673
0.0037366318
0.0037224144
0.0037111902
0.0037034049
0.0036981243
0.0036939471
0.0036918767
0.0036905547
0.0036875998
0.0036854375
0.0036828209
0.0036806572
0.0036776513
0.0036753873
0.0036724368
0.0036694703
0.0036663115
0.003662414
0.0036585265
0.0036538141
0.0036489311
0.0036431177
0.0036367399
0.0036294286
0.0036211939
0.0036119694
0.0036016774
0.003590028
0.0035770953
0.0035630063
0.0035475532
0.0035301905
0.0035112173
0.0034905653
0.0034682896
0.0034443808
0.0034181971
0.0033900443
0.0033601385
0.003329359
0.0032967202
0.0032615743
0.0032267518
0.0031930031
0.0031523515