/*--------------------------------*- C++ -*----------------------------------*\
| =========                 |                                                 |
| \\      /  F ield         | OpenFOAM: The Open Source CFD Toolbox           |
|  \\    /   O peration     | Version:  2506                                  |
|   \\  /    A nd           | Website:  www.openfoam.com                      |
|    \\/     M anipulation  |                                                 |
\*---------------------------------------------------------------------------*/
FoamFile
{
    version     2.0;
    format      ascii;
    arch        "LSB;label=32;scalar=64";
    class       volScalarField;
    location    "0.008";
    object      T;
}
// * * * * * * * * * * * * * * * * * * * * * * * * * * * * * * * * * * * * * //

dimensions      [0 0 0 1 0 0 0];

internalField   nonuniform List<scalar> 
13761
(
226.26015
225.72116
225.20275
229.67511
229.07866
228.48859
227.91585
227.36148
226.81833
226.28554
225.77287
225.28181
231.97717
231.37936
230.78477
230.19994
229.61798
229.04035
228.47615
227.92742
227.39012
226.86814
226.36554
225.88086
225.41145
234.75407
234.19312
233.61711
233.04248
232.46499
231.88042
231.29922
230.72549
230.15459
229.58915
229.04062
228.50811
227.98374
227.46926
226.9744
226.50015
226.04063
236.73396
236.22636
235.69959
235.17059
234.6244
234.06484
233.50743
232.94712
232.38035
231.81695
231.26164
230.70734
230.1569
229.61964
229.09566
228.58157
228.08224
227.60095
227.13505
226.6835
226.24763
238.47502
238.03632
237.57207
237.10181
236.60998
236.10242
235.59269
235.0652
234.5255
233.98735
233.44397
232.8931
232.34574
231.80449
231.26337
230.72739
230.20774
229.70141
229.20089
228.70983
228.23764
227.7844
227.34412
226.91939
226.51558
239.93293
239.56999
239.17804
238.78416
238.36032
237.91435
237.46342
236.98976
236.50155
236.00978
235.4982
234.97559
234.45452
233.92858
233.39577
232.86698
232.3446
231.82129
231.30234
230.79651
230.30132
229.81442
229.34204
228.88635
228.44363
228.01373
227.59905
227.20227
226.82306
241.11923
240.83573
240.51683
240.20005
239.84944
239.47471
239.09853
238.69086
238.26321
237.8296
237.37154
236.90205
236.42854
235.93568
235.43414
234.93433
234.42756
233.91319
233.40306
232.89721
232.38914
231.88664
231.39948
230.92256
230.44987
229.98651
229.54078
229.11196
228.69471
228.29211
227.90976
227.54693
227.19608
242.04977
241.83777
241.58857
241.33795
241.06502
240.76026
240.45811
240.12004
239.76355
239.40268
239.0091
238.5988
238.18343
237.74375
237.29553
236.84125
236.36623
235.88299
235.4004
234.91066
234.41413
233.92272
233.43532
232.94541
232.46129
231.99001
231.52651
231.07002
230.62789
230.20106
229.78488
229.37993
228.98953
228.61578
228.25808
227.91711
242.77958
242.61462
242.43334
242.23275
242.03172
241.79342
241.55757
241.29506
241.00544
240.71892
240.39364
240.05412
239.70937
239.33193
238.94189
238.54459
238.12174
237.692
237.25438
236.79717
236.33477
235.87407
235.4048
234.92888
234.45835
233.98966
233.51723
233.05161
232.59949
232.15434
231.7127
231.28058
230.86432
230.46266
230.07143
229.69404
229.33559
228.99497
228.66583
228.34481
243.46082
243.34633
243.21494
243.08404
242.9304
242.7758
242.60153
242.41293
242.22066
241.99318
241.7708
241.51744
241.24359
240.97023
240.65679
240.33563
240.00654
239.64368
239.27088
238.8895
238.4842
238.07572
237.65773
237.22038
236.77808
236.33536
235.88286
235.42463
234.97259
234.52125
234.06671
233.61995
233.18503
232.75525
232.33177
231.92235
231.52674
231.13975
230.76254
230.39917
230.05135
229.71743
229.39763
229.09564
243.93735
243.86175
243.77458
243.68054
243.57703
243.46886
243.34559
243.22285
243.07714
242.9334
242.7667
242.59134
242.4081
242.19301
241.98388
241.74092
241.48309
241.2226
240.92309
240.61994
240.30472
239.95676
239.60438
239.24105
238.85479
238.46518
238.06316
237.64272
237.2201
236.79834
236.36625
235.93004
235.50014
235.06904
234.63432
234.20813
233.79267
233.38107
232.97313
232.57507
232.19076
231.81854
231.45582
231.10628
230.77415
230.45818
230.15276
229.85475
229.5702
244.33179
244.28504
244.24344
244.19833
244.14804
244.0947
244.03197
243.96201
243.88121
243.79292
243.69603
243.5938
243.47836
243.36249
243.22451
243.0901
242.93029
242.76691
242.59101
242.38763
242.1906
241.95663
241.7144
241.46572
241.17928
240.89255
240.59166
240.25997
239.92597
239.57702
239.20742
238.83707
238.45365
238.05396
237.65313
237.25041
236.83553
236.41749
236.00571
235.59078
235.17341
234.76554
234.36756
233.97284
233.58445
233.20942
232.84655
232.49077
232.14364
231.80973
231.49034
231.1826
230.8864
230.60672
230.34321
245.21125
245.08749
244.94906
244.81659
244.70243
244.62174
244.54751
244.49798
244.44732
244.39726
244.35649
244.31869
244.27643
244.22926
244.17963
244.12134
244.05627
243.98149
243.89858
243.80897
243.71259
243.60535
243.49644
243.36725
243.24225
243.09061
242.93982
242.77144
242.58153
242.39654
242.17215
241.94715
241.70934
241.43667
241.16829
240.88062
240.56373
240.24789
239.91532
239.56616
239.21516
238.84845
238.46583
238.08362
237.6997
237.30406
236.90837
236.51851
236.12438
235.72875
235.34321
234.96507
234.58832
234.21596
233.85383
233.50333
233.16237
232.83015
232.51067
232.207
231.91765
231.63808
231.36536
231.10456
245.45336
245.56412
245.5739
245.53547
245.50351
245.48828
245.48275
245.48087
245.48026
245.48007
245.48002
245.48001
245.48
245.48
245.48
245.48
245.48
245.48
245.4801
245.48149
245.49198
245.53853
245.69183
246.09827
246.91249
247.96871
247.44554
246.79349
246.1325
245.94522
245.839
245.73928
245.67384
245.66416
245.63951
245.58868
245.5249
245.46776
245.41559
245.36068
245.27438
245.15153
245.01262
244.87729
244.76442
244.67686
244.61308
244.55286
244.51197
244.46595
244.42396
244.38811
244.35069
244.30957
244.26548
244.21267
244.15344
244.08484
244.00763
243.92512
243.83394
243.73487
243.63178
243.5111
243.39383
243.24969
243.1102
242.94741
242.77088
242.59521
242.38084
242.17134
241.9426
241.68514
241.43235
241.15596
240.8559
240.55899
240.24146
239.90916
239.57499
239.2248
238.86208
238.50206
238.13768
237.7604
237.38403
237.01196
236.6335
236.25499
235.88645
235.52492
235.16587
234.81383
234.47404
234.14448
233.82094
233.50547
233.20284
232.91377
232.63411
232.36342
232.10811
231.86934
245.45338
245.56375
245.57391
245.53563
245.50362
245.48832
245.48277
245.48088
245.48026
245.48008
245.48002
245.48001
245.48
245.48
245.48
245.48
245.48
245.48
245.48009
245.48143
245.49168
245.53743
245.68882
246.09293
246.90937
247.98952
247.51351
246.84566
246.16691
245.97811
245.87901
245.77508
245.70933
245.70138
245.67845
245.62951
245.56967
245.51727
245.46996
245.4197
245.33542
245.2131
245.07434
244.93766
244.82355
244.73454
244.67381
244.61033
244.57774
244.52885
244.48949
244.46083
244.42823
244.39
244.34863
244.29982
244.2447
244.1817
244.10981
244.03424
243.94854
243.85786
243.76058
243.6495
243.53988
243.4047
243.27672
243.12075
242.95865
242.79239
242.5895
242.39537
242.17694
241.93424
241.69711
241.43322
241.15068
240.86947
240.56593
240.2529
239.93749
239.60505
239.26087
238.91942
238.5715
238.21213
237.85718
237.50525
237.14712
236.79111
236.44571
236.10456
235.76347
235.4275
235.10194
234.78617
234.47753
234.177
233.88904
233.61511
233.35336
233.10091
232.85543
232.62022
245.4534
245.56341
245.57391
245.53577
245.50371
245.48836
245.48279
245.48088
245.48027
245.48008
245.48002
245.48001
245.48
245.48
245.48
245.48
245.48
245.48
245.48009
245.48139
245.49142
245.53653
245.68639
246.08891
246.90809
248.00997
247.58022
246.89451
246.20067
246.01025
245.91822
245.81015
245.74455
245.73809
245.71691
245.6699
245.61374
245.56495
245.52235
245.47605
245.39353
245.27154
245.13415
244.99705
244.88103
244.79303
244.73017
244.67341
244.63642
244.59275
244.5596
244.53135
244.50011
244.46609
244.4303
244.38766
244.33814
244.28167
244.21541
244.14691
244.06636
243.98346
243.89142
243.78951
243.68586
243.55929
243.44043
243.29105
243.14178
242.98307
242.79114
242.61107
242.40103
242.17301
241.95107
241.69779
241.43153
241.16657
240.87931
240.58461
240.28527
239.96749
239.64148
239.32059
238.99126
238.65166
238.31707
237.98267
237.64082
237.30235
236.97261
236.64654
236.32303
236.0076
235.70308
235.40641
235.11486
234.83157
234.56104
234.30293
234.05205
233.80785
233.57794
233.365
245.45341
245.56311
245.5739
245.53589
245.5038
245.4884
245.4828
245.48089
245.48027
245.48008
245.48002
245.48001
245.48
245.48
245.48
245.48
245.48
245.48
245.48009
245.48136
245.49121
245.53581
245.68451
246.08618
246.90877
248.0303
247.64507
246.94
246.2337
246.04168
245.95654
245.84495
245.77955
245.77442
245.75488
245.70955
245.65547
245.60997
245.57167
245.52893
245.44837
245.3268
245.19157
245.05477
244.93759
244.85016
244.78576
244.73595
244.69181
244.66107
244.62519
244.59758
244.57335
244.54519
244.51229
244.47284
244.42729
244.37553
244.3143
244.25213
244.17658
244.10173
244.01518
243.92293
243.82527
243.709
243.59901
243.45802
243.32291
243.17094
242.99267
242.82608
242.6245
242.41363
242.20497
241.96211
241.71518
241.46521
241.19166
240.91354
240.63035
240.32972
240.02417
239.72237
239.40825
239.08618
238.77105
238.45411
238.13146
237.81456
237.50718
237.20189
236.89656
236.59677
236.30716
236.02579
235.74961
235.48124
235.22531
234.98115
234.74659
234.52128
234.30392
234.09514
245.45341
245.56284
245.57389
245.53599
245.50387
245.48843
245.48281
245.4809
245.48027
245.48008
245.48002
245.48001
245.48
245.48
245.48
245.48
245.48
245.48
245.48009
245.48133
245.49105
245.53528
245.68319
246.0847
246.91144
248.05119
247.70738
246.98249
246.26597
246.07239
245.99398
245.87956
245.81425
245.81035
245.79222
245.74755
245.69389
245.65138
245.61784
245.57804
245.49918
245.37942
245.24615
245.11044
244.99291
244.90548
244.84173
244.79525
244.75054
244.72598
244.68782
244.66796
244.64596
244.61918
244.58965
244.55654
244.51726
244.47171
244.41656
244.36067
244.29062
244.22319
244.14156
244.05834
243.96553
243.85918
243.75569
243.62256
243.49997
243.35231
243.18841
243.03152
242.83921
242.64395
242.44595
242.21559
241.98588
241.74794
241.48961
241.2304
240.96381
240.67798
240.39003
240.10531
239.80767
239.50604
239.21102
238.9114
238.60642
238.30794
238.01574
237.72418
237.43537
237.15583
236.88597
236.62101
236.36024
236.10875
235.87002
235.64199
235.41928
235.20166
234.99722
245.45341
245.5626
245.57388
245.53608
245.50393
245.48845
245.48282
245.4809
245.48027
245.48008
245.48002
245.48001
245.48
245.48
245.48
245.48
245.48
245.48
245.48008
245.48131
245.49094
245.53492
245.68241
246.08452
246.91604
248.07351
247.76601
247.0225
246.29734
246.10227
246.0306
245.91381
245.84864
245.84596
245.82882
245.78315
245.72892
245.68972
245.66048
245.6231
245.54647
245.42963
245.29783
245.16384
245.04655
244.95939
244.89717
244.85229
244.8117
244.78506
244.75454
244.73647
244.71286
244.69361
244.67048
244.6415
244.60489
244.5631
244.51228
244.46168
244.3969
244.33632
244.26025
244.18606
244.09846
244.00318
243.90619
243.78334
243.67314
243.53114
243.38274
243.23573
243.05338
242.87432
242.68742
242.46951
242.25616
242.0318
241.78972
241.5464
241.29249
241.02156
240.75436
240.48794
240.20603
239.92278
239.64478
239.36042
239.07338
238.79408
238.52174
238.25035
237.97994
237.71552
237.46017
237.21146
236.96709
236.7309
236.50653
236.29095
236.08219
235.88315
235.69371
245.4534
245.56239
245.57386
245.53614
245.50398
245.48847
245.48283
245.48091
245.48027
245.48008
245.48002
245.48001
245.48
245.48
245.48
245.48
245.48
245.48
245.48008
245.4813
245.49087
245.53475
245.68217
246.08572
246.92258
248.09769
247.82046
247.06008
246.32765
246.13121
246.06632
245.94789
245.88253
245.8814
245.86466
245.8163
245.76133
245.72575
245.69968
245.66455
245.5905
245.47701
245.34716
245.2153
245.09898
245.01135
244.95124
244.90849
244.87243
244.84241
244.82206
244.79885
244.78264
244.77042
244.74721
244.72124
244.69004
244.65453
244.61034
244.5658
244.50709
244.45304
244.38248
244.31613
244.23332
244.14839
244.05591
243.94323
243.84191
243.70519
243.57072
243.43168
243.25809
243.09526
242.91618
242.71105
242.51431
242.30213
242.07357
241.84611
241.60723
241.35355
241.10514
240.85231
240.58528
240.32139
240.0614
239.79417
239.52585
239.26552
239.00902
238.75096
238.49564
238.25064
238.01407
237.77912
237.54769
237.32711
237.11869
236.91849
236.72243
236.53116
245.45339
245.56221
245.57384
245.53619
245.50402
245.48849
245.48284
245.48091
245.48027
245.48008
245.48002
245.48001
245.48
245.48
245.48
245.48
245.48
245.48
245.48008
245.4813
245.49085
245.53475
245.6825
246.08821
246.9313
248.12381
247.87065
247.09528
246.35683
246.1592
246.10118
245.98181
245.91596
245.91691
245.89974
245.848
245.7926
245.75988
245.73603
245.70265
245.63158
245.5219
245.39397
245.26485
245.15001
245.06211
245.00442
244.96359
244.93145
244.90091
244.88601
244.861
244.85348
244.84051
244.82126
244.80324
244.77648
244.74407
244.70411
244.66292
244.60982
244.56087
244.49623
244.43741
244.3604
244.2861
244.19857
244.09809
244.00506
243.87601
243.75683
243.62453
243.46263
243.31585
243.14342
242.95448
242.77249
242.5709
242.358
242.1474
241.92062
241.68156
241.45078
241.21299
240.96312
240.71828
240.4735
240.22074
239.96926
239.72554
239.48539
239.24515
239.00797
238.77778
238.55418
238.33516
238.1215
237.91714
237.7228
237.53366
237.34908
237.17513
245.45337
245.56206
245.57381
245.53623
245.50404
245.4885
245.48285
245.48091
245.48028
245.48008
245.48002
245.48001
245.48
245.48
245.48
245.48
245.48
245.48
245.48008
245.4813
245.49086
245.53493
245.68333
246.0919
246.94235
248.15215
247.91659
247.12819
246.38491
246.18631
246.13532
246.01547
245.94912
245.95264
245.93436
245.87928
245.82474
245.79258
245.76939
245.73848
245.67006
245.56414
245.43841
245.31272
245.19967
245.11246
245.05622
245.01746
244.9886
244.9604
244.94553
244.92617
244.92028
244.9085
244.89791
244.88243
244.85737
244.8308
244.79778
244.76188
244.7161
244.6721
244.6143
244.56189
244.49073
244.42542
244.34197
244.25303
244.16466
244.04337
243.93727
243.80888
243.65999
243.52501
243.35987
243.18627
243.01634
242.82635
242.62897
242.43167
242.21577
241.99501
241.78276
241.55768
241.32339
241.09512
240.86528
240.62912
240.39613
240.17088
239.94729
239.72113
239.49845
239.28632
239.08037
238.87359
238.67081
238.47993
238.29907
238.12351
237.9524
245.45334
245.56195
245.57378
245.53624
245.50406
245.48851
245.48285
245.48091
245.48028
245.48008
245.48002
245.48001
245.48
245.48
245.48
245.48
245.48
245.48
245.48008
245.48131
245.49093
245.53527
245.68469
246.09694
246.9558
248.18276
247.95816
247.15886
246.4119
246.21267
246.16883
246.04867
245.98215
245.98852
245.96905
245.91127
245.85791
245.82424
245.80044
245.77267
245.70649
245.6039
245.48092
245.35847
245.24808
245.16208
245.10738
245.07047
245.04422
245.01894
245.00398
244.99263
244.98109
244.97936
244.97102
244.95579
244.939
244.91988
244.89003
244.85613
244.81547
244.77466
244.72358
244.67666
244.61253
244.55582
244.47759
244.40119
244.31708
244.20734
244.11381
243.99008
243.85668
243.73251
243.57605
243.41769
243.26041
243.08171
242.89854
242.71452
242.51181
242.30909
242.11045
241.89708
241.6797
241.46905
241.2539
241.03263
240.81565
240.6054
240.39487
240.18301
239.9773
239.7795
239.5843
239.39196
239.20787
239.03394
238.86672
238.7016
245.4533
245.56186
245.57375
245.53624
245.50406
245.48851
245.48285
245.48091
245.48028
245.48008
245.48002
245.48001
245.48
245.48
245.48
245.48
245.48
245.48
245.48008
245.48132
245.49103
245.53578
245.68663
246.1034
246.97178
248.2159
247.99525
247.18723
246.43766
246.23825
246.20158
246.08121
246.01501
246.02423
246.0037
245.9454
245.89081
245.85505
245.83092
245.80525
245.74114
245.64183
245.52179
245.40206
245.29502
245.21085
245.15752
245.12252
245.0984
245.07633
245.06154
245.05591
245.04157
245.04967
245.03995
245.03167
245.02166
245.00344
244.97709
244.94867
244.91641
244.88003
244.83731
244.79536
244.73867
244.68849
244.61529
244.54978
244.46775
244.36953
244.28482
244.16452
244.04618
243.92964
243.78128
243.63774
243.49137
243.32171
243.15441
242.98268
242.79124
242.60486
242.41981
242.22018
242.0202
241.8239
241.62148
241.41535
241.21561
241.02199
240.82702
240.6306
240.44048
240.25887
240.07952
239.89957
239.72569
239.56258
239.40554
245.45326
245.56181
245.57372
245.53622
245.50405
245.48851
245.48285
245.48091
245.48028
245.48008
245.48002
245.48001
245.48
245.48
245.48
245.48
245.48
245.48
245.48009
245.48134
245.49118
245.53648
245.68913
246.11124
246.99004
248.25105
248.02795
247.21342
246.46236
246.26337
246.23378
246.11309
246.0476
246.05929
246.0385
245.9807
245.92359
245.88535
245.86226
245.83675
245.7744
245.67806
245.56155
245.44387
245.34006
245.25838
245.2066
245.17318
245.15119
245.13235
245.11858
245.11624
245.10561
245.11528
245.10772
245.108
245.09867
245.08238
245.0648
245.04083
245.01302
244.9781
244.94281
244.90393
244.85523
244.81085
244.74455
244.68938
244.61088
244.52666
244.4498
244.33553
244.23401
244.12379
243.98567
243.85813
243.72008
243.56203
243.41092
243.24759
243.06916
242.9011
242.72826
242.54094
242.35547
242.17331
241.98497
241.79421
241.61018
241.43044
241.24651
241.06214
240.88672
240.71741
240.54698
240.38001
240.22416
240.07722
239.9332
245.45321
245.56178
245.57368
245.53619
245.50403
245.4885
245.48285
245.48091
245.48028
245.48008
245.48002
245.48001
245.48
245.48
245.48
245.48
245.48
245.48
245.48009
245.48137
245.49137
245.53735
245.69222
246.12069
247.01156
248.28852
248.05575
247.23718
246.48571
246.28787
246.26536
246.14444
246.07953
246.0939
246.07334
246.01664
245.95681
245.91677
245.89446
245.86834
245.80681
245.71298
245.60002
245.48406
245.38364
245.30464
245.25414
245.22232
245.20318
245.18706
245.17496
245.17388
245.17028
245.17674
245.17957
245.17926
245.17277
245.1633
245.14977
245.12766
245.10612
245.07737
245.05168
245.01629
244.97695
244.9366
244.87748
244.82983
244.75456
244.68342
244.60949
244.50241
244.41468
244.30809
244.18098
244.06677
243.93523
243.78989
243.65153
243.49627
243.33393
243.18064
243.01667
242.84223
242.67338
242.50526
242.32909
242.15205
241.98367
241.81735
241.64638
241.4784
241.31977
241.1647
241.00839
240.85499
240.70959
240.57107
245.45315
245.56178
245.57365
245.53614
245.504
245.48849
245.48284
245.48091
245.48028
245.48008
245.48002
245.48001
245.48
245.48
245.48
245.48
245.48
245.48
245.48009
245.4814
245.4916
245.53841
245.69586
246.13134
247.0348
248.32853
248.07937
247.25895
246.50824
246.31274
246.29638
246.17492
246.11033
246.1279
246.10903
246.05338
245.99206
245.95029
245.92814
245.89986
245.83909
245.74758
245.63682
245.52313
245.42546
245.34907
245.30047
245.27072
245.25398
245.24019
245.23057
245.2296
245.23348
245.23683
245.2488
245.24827
245.24836
245.24252
245.23056
245.2143
245.1988
245.17457
245.1532
245.11927
245.08877
245.05093
245.00104
244.95989
244.89016
244.8329
244.76112
244.6662
244.59134
244.48902
244.37553
244.27385
244.14897
244.01751
243.89042
243.74474
243.59766
243.45624
243.30301
243.14328
242.98828
242.83129
242.66667
242.50501
242.35183
242.19729
242.03743
241.88227
241.73516
241.58847
241.44044
241.29937
241.16924
245.45309
245.56181
245.5736
245.53607
245.50397
245.48847
245.48284
245.48091
245.48027
245.48008
245.48002
245.48001
245.48
245.48
245.48
245.48
245.48
245.48
245.48009
245.48145
245.49189
245.53964
245.70008
246.14344
247.06083
248.37109
248.09808
247.27832
246.52935
246.33683
246.32745
246.20413
246.14052
246.16174
246.14595
246.09213
246.02986
245.98723
245.96268
245.9322
245.87167
245.7817
245.67215
245.56178
245.46532
245.39142
245.34508
245.31796
245.30367
245.29225
245.28509
245.28447
245.29362
245.29851
245.31334
245.31745
245.32359
245.31706
245.31209
245.30127
245.2874
245.26818
245.25317
245.22555
245.20517
245.16951
245.12968
245.09217
245.02877
244.982
244.90976
244.82784
244.76124
244.6617
244.56184
244.46932
244.34988
244.23237
244.11444
243.97819
243.84546
243.71605
243.57318
243.4255
243.2837
243.13871
242.98647
242.83933
242.69946
242.55456
242.4063
242.26656
242.13414
242.00054
241.86673
241.73963
245.45302
245.56187
245.57356
245.53599
245.50392
245.48845
245.48283
245.48091
245.48027
245.48008
245.48002
245.48001
245.48
245.48
245.48
245.48
245.48
245.48
245.4801
245.4815
245.49222
245.54107
245.7049
246.157
247.08926
248.41563
248.11233
247.29554
246.54936
246.36141
246.35779
246.23137
246.17016
246.19562
246.18452
246.13366
246.07135
246.02634
245.99795
245.96611
245.90463
245.81554
245.70617
245.59951
245.50388
245.43231
245.38793
245.36381
245.35208
245.34268
245.33787
245.33942
245.35113
245.36052
245.37521
245.3872
245.39403
245.39133
245.39278
245.38246
245.37442
245.36238
245.34985
245.32751
245.31157
245.27657
245.24767
245.21263
245.15865
245.1207
245.05033
244.98471
244.92483
244.83037
244.74707
244.66106
244.54977
244.44672
244.33645
244.21078
244.09303
243.97364
243.83918
243.70447
243.57657
243.4412
243.29957
243.16727
243.03915
242.90372
242.76858
242.64283
242.51922
242.39124
242.26567
245.45294
245.56195
245.57351
245.5359
245.50386
245.48843
245.48282
245.4809
245.48027
245.48008
245.48002
245.48001
245.48
245.48
245.48
245.48
245.48
245.48
245.4801
245.48155
245.4926
245.5427
245.71033
246.17205
247.12023
248.46251
248.12189
247.31044
246.56813
246.38586
246.38704
246.25735
246.19924
246.2287
246.22312
246.17762
246.11409
246.06796
246.03376
246.00065
245.93912
245.84819
245.73828
245.63617
245.54134
245.47178
245.42904
245.40826
245.39915
245.39152
245.38924
245.39364
245.40656
245.42135
245.43656
245.45501
245.46043
245.46687
245.46866
245.46188
245.4617
245.45351
245.44265
245.42858
245.41796
245.38862
245.37112
245.33652
245.29326
245.25953
245.19185
245.14086
245.08236
244.99375
244.92475
244.8412
244.7393
244.64812
244.54391
244.43007
244.32523
244.21356
244.08832
243.96821
243.85163
243.72406
243.59568
243.47824
243.35958
243.23287
243.11043
242.99622
242.88179
242.7665
245.45286
245.56206
245.57347
245.53579
245.50379
245.4884
245.48281
245.4809
245.48027
245.48008
245.48002
245.48001
245.48
245.48
245.48
245.48
245.48
245.48
245.4801
245.48162
245.49303
245.54452
245.7164
246.18863
247.15376
248.5114
248.12677
247.32306
246.5858
246.4101
246.41519
246.28243
246.22712
246.25922
246.26032
246.22005
246.15735
246.1073
246.07195
246.03628
245.97291
245.88096
245.77068
245.67039
245.57706
245.51027
245.4693
245.45159
245.44462
245.43867
245.43952
245.44688
245.46062
245.48027
245.49734
245.51913
245.52701
245.53928
245.54079
245.54301
245.54489
245.53911
245.53578
245.52828
245.51738
245.49398
245.48224
245.44745
245.4172
245.38565
245.32551
245.28932
245.23088
245.15421
245.0981
245.01737
244.92797
244.84735
244.75019
244.64867
244.55563
244.45089
244.33587
244.22893
244.12091
244.00168
243.88719
243.78159
243.66962
243.55283
243.44401
243.34106
243.23529
245.45277
245.56219
245.57341
245.53567
245.50371
245.48837
245.4828
245.48089
245.48027
245.48008
245.48002
245.48001
245.48
245.48
245.48
245.48
245.48
245.48
245.48011
245.4817
245.49352
245.54656
245.72312
246.20677
247.18984
248.56226
248.12695
247.3334
246.60226
246.43395
246.44194
246.30706
246.2532
246.28585
246.29363
246.25862
246.1977
246.1474
246.10929
246.0734
246.00593
245.91234
245.80289
245.70246
245.61098
245.54698
245.50874
245.49448
245.48898
245.4852
245.48827
245.49799
245.51319
245.53677
245.55732
245.58026
245.59382
245.60675
245.61364
245.62146
245.62328
245.62625
245.62682
245.62297
245.61452
245.60206
245.59496
245.56433
245.54654
245.51342
245.46391
245.43684
245.37553
245.31239
245.26338
245.18424
245.10691
245.03436
244.9431
244.854
244.77089
244.67135
244.5672
244.47326
244.37225
244.26262
244.16244
244.06651
243.96198
243.8569
243.76006
243.66455
243.56491
245.45267
245.56235
245.57336
245.53553
245.50363
245.48833
245.48278
245.48089
245.48027
245.48008
245.48002
245.48001
245.48
245.48
245.48
245.48
245.48
245.48
245.48012
245.48178
245.49407
245.54882
245.73052
246.22651
247.22847
248.61449
248.12309
247.34138
246.61769
246.4576
246.46818
246.3319
246.27722
246.30818
246.32167
246.29143
246.23548
246.18619
246.14757
246.10849
246.03945
245.94269
245.83263
245.73478
245.64415
245.58124
245.54626
245.53579
245.53208
245.53107
245.53628
245.54778
245.56529
245.59133
245.61591
245.63926
245.65932
245.67212
245.68573
245.69482
245.70166
245.71172
245.71181
245.71592
245.71264
245.7057
245.69684
245.67207
245.66216
245.62775
245.59377
245.5717
245.51118
245.46573
245.42121
245.34721
245.2841
245.21836
245.13428
245.05914
244.98315
244.88877
244.79813
244.71405
244.61828
244.52005
244.4326
244.34323
244.24553
244.15131
244.06391
243.97558
245.45258
245.56253
245.5733
245.53539
245.50353
245.4883
245.48277
245.48088
245.48026
245.48008
245.48002
245.48001
245.48
245.48
245.48
245.48
245.48
245.48001
245.48012
245.48188
245.49467
245.5513
245.7386
246.24787
247.26964
248.66765
248.11602
247.34676
246.63237
246.48113
246.4948
246.35749
246.29937
246.32693
246.34447
246.31989
246.27046
246.22386
246.18449
246.14258
246.07161
245.97181
245.86262
245.7646
245.67519
245.61476
245.58321
245.57582
245.57395
245.57529
245.58286
245.5959
245.6166
245.64472
245.67351
245.69803
245.72238
245.73756
245.75529
245.76677
245.77966
245.79133
245.79598
245.80828
245.80582
245.80443
245.79869
245.78579
245.78082
245.74869
245.72949
245.70509
245.64854
245.61798
245.57196
245.5041
245.45308
245.39018
245.3143
245.25142
245.17871
245.09169
245.01407
244.93674
244.84766
244.76227
244.68451
244.60079
244.5124
244.42983
244.35122
245.45248
245.56274
245.57324
245.53523
245.50343
245.48825
245.48275
245.48087
245.48026
245.48008
245.48002
245.48001
245.48
245.48
245.48
245.48
245.48
245.48001
245.48013
245.48199
245.49534
245.55402
245.74741
246.27089
247.31333
248.72133
248.10622
247.34874
246.64598
246.50468
246.52214
246.38447
246.32066
246.34379
246.36446
246.34596
246.30291
246.25998
246.21862
246.17626
246.1009
246.00098
245.89298
245.79148
245.70397
245.64757
245.61862
245.61442
245.61473
245.61842
245.62825
245.64254
245.66677
245.6968
245.72892
245.75568
245.78186
245.8027
245.82152
245.83877
245.85418
245.8684
245.87986
245.89447
245.89363
245.90308
245.89943
245.8923
245.88577
245.85873
245.85117
245.82299
245.77863
245.7605
245.7131
245.65745
245.61787
245.55754
245.49382
245.44096
245.37085
245.29419
245.22757
245.15541
245.07465
245.00041
244.93018
244.85298
244.77344
244.699
245.45237
245.56297
245.57318
245.53505
245.50333
245.48821
245.48273
245.48087
245.48026
245.48007
245.48002
245.48001
245.48
245.48
245.48
245.48
245.48
245.48001
245.48014
245.48211
245.49608
245.55698
245.75695
246.2956
247.35949
248.77501
248.09406
247.34742
246.65881
246.52828
246.5498
246.41282
246.34304
246.36139
246.3841
246.37075
246.33292
246.2935
246.25111
246.20646
246.13109
246.02785
245.92104
245.81912
245.73176
245.67728
245.65214
245.65219
245.65428
245.65985
245.67191
245.68791
245.71574
245.74775
245.78245
245.81252
245.83921
245.86604
245.88507
245.90879
245.92461
245.94488
245.96021
245.97532
245.9827
245.99815
245.99444
245.99745
245.99295
245.97672
245.97577
245.94447
245.91482
245.90111
245.85086
245.80867
245.77417
245.71526
245.66415
245.61614
245.54909
245.4831
245.42515
245.35816
245.28571
245.22186
245.15883
245.08731
245.01517
245.45227
245.56322
245.57312
245.53487
245.50321
245.48816
245.48271
245.48086
245.48026
245.48007
245.48002
245.48001
245.48
245.48
245.48
245.48
245.48
245.48001
245.48015
245.48224
245.49689
245.56021
245.76726
246.32204
247.40805
248.82811
248.07998
247.34281
246.67123
246.5516
246.57694
246.4413
246.36798
246.38115
246.4045
246.39403
246.36093
246.32357
246.28171
246.23476
246.15943
246.05406
245.94793
245.84396
245.75839
245.70667
245.6846
245.6878
245.69219
245.70048
245.71419
245.73283
245.76339
245.79705
245.83397
245.86743
245.89524
245.9269
245.94842
245.97597
245.99433
246.01951
246.03708
246.05652
246.07015
246.08607
246.08801
246.09959
246.09461
246.0861
246.08317
246.05195
246.04027
246.02684
245.9802
245.95435
245.92213
245.86995
245.8319
245.78714
245.72524
245.6709
245.62027
245.55718
245.49393
245.44027
245.38192
245.3147
245.45216
245.56349
245.57305
245.53468
245.50309
245.48811
245.48269
245.48085
245.48025
245.48007
245.48002
245.48001
245.48
245.48
245.48
245.48
245.48
245.48001
245.48016
245.48239
245.49777
245.5637
245.77836
246.35024
247.45891
248.87998
248.06453
247.33497
246.68333
246.57486
246.60251
246.46866
246.39464
246.4023
246.42427
246.41578
246.38574
246.352
246.30802
246.2638
246.18443
246.07961
245.97387
245.86758
245.78185
245.73573
245.71684
245.72224
245.7281
245.74011
245.75474
245.77687
245.81001
245.84558
245.88438
245.92015
245.95077
245.98502
246.01093
246.03916
246.06334
246.09012
246.11284
246.13555
246.15345
246.17079
246.18103
246.19613
246.19111
246.19692
246.19287
246.16975
246.17159
246.15201
246.11243
246.0981
246.06307
246.01913
245.98985
245.94491
245.8894
245.84603
245.79935
245.74055
245.68844
245.64229
245.58625
245.45205
245.56378
245.57298
245.53448
245.50297
245.48806
245.48267
245.48084
245.48025
245.48007
245.48002
245.48001
245.48
245.48
245.48
245.48
245.48
245.48001
245.48018
245.48256
245.49874
245.56747
245.79028
246.38023
247.51199
248.9299
248.04827
247.3241
246.69518
246.59846
246.62569
246.49513
246.42124
246.42356
246.44246
246.43524
246.40857
246.37627
246.33492
246.28839
246.21079
246.10123
245.99661
245.88991
245.80738
245.76181
245.74675
245.75723
245.76528
245.77732
245.79302
245.81913
245.85544
245.89291
245.93349
245.97122
246.0061
246.04098
246.07196
246.10112
246.13163
246.15814
246.1878
246.21071
246.23482
246.25474
246.27027
246.28548
246.28758
246.29925
246.29231
246.281
246.28516
246.26036
246.23599
246.23036
246.19467
246.16427
246.14188
246.09765
246.05286
246.0191
245.97435
245.92266
245.88115
245.83891
245.78604
245.45194
245.56409
245.57291
245.53426
245.50284
245.48801
245.48265
245.48083
245.48025
245.48007
245.48002
245.48001
245.48
245.48
245.48
245.48
245.48
245.48001
245.48019
245.48274
245.49978
245.57154
245.80303
246.41204
247.56719
248.97714
248.03172
247.31049
246.70674
246.62264
246.6463
246.52161
246.44853
246.44595