/*--------------------------------*- C++ -*----------------------------------*\
| =========                 |                                                 |
| \\      /  F ield         | OpenFOAM: The Open Source CFD Toolbox           |
|  \\    /   O peration     | Version:  2506                                  |
|   \\  /    A nd           | Website:  www.openfoam.com                      |
|    \\/     M anipulation  |                                                 |
\*---------------------------------------------------------------------------*/
FoamFile
{
    version     2.0;
    format      ascii;
    arch        "LSB;label=32;scalar=64";
    class       volScalarField;
    location    "0.019";
    object      rho;
}
// * * * * * * * * * * * * * * * * * * * * * * * * * * * * * * * * * * * * * //

dimensions      [1 -3 0 0 0 0 0];

internalField   nonuniform List<scalar> 
13761
(
0.67332831
0.67204989
0.67167241
0.67202555
0.67201893
0.67211339
0.67201336
0.6719379
0.67185358
0.67179043
0.67175257
0.67173257
0.67172124
0.67171069
0.67169773
0.67168185
0.67166536
0.67164918
0.67163488
0.67162294
0.6716143
0.67160946
0.67160889
0.67161271
0.67162121
0.67163434
0.67165192
0.67167315
0.67169693
0.671722
0.6717468
0.67176966
0.67178833
0.67180034
0.67180265
0.67179195
0.67176445
0.67171569
0.67164265
0.67156006
0.67149737
0.67146989
0.67146448
0.6714573
0.67143103
0.67137175
0.67127244
0.67111646
0.67088123
0.67053342
0.67003612
0.6694004
0.66878062
0.66854914
0.66991864
0.67229952
0.67366515
0.67392966
0.67354237
0.67305169
0.67227961
0.67159845
0.67079132
0.67047329
0.67025166
0.67041258
0.6707478
0.67170316
0.67258324
0.67304645
0.67346845
0.67324658
0.67246063
0.67203521
0.67185892
0.67197972
0.67199206
0.67194572
0.67190033
0.67177458
0.67159118
0.67142338
0.67128683
0.67121243
0.67122498
0.67126396
0.67118227
0.67096138
0.67070722
0.67040193
0.67013747
0.67000362
0.66997341
0.66987685
0.66970313
0.66939856
0.66907323
0.66898562
0.66879629
0.66836438
0.66805126
0.66774176
0.66741118
0.66709947
0.66682276
0.66658319
0.66634557
0.6661304
0.66592616
0.66570901
0.66558753
0.66549619
0.66534371
0.66511143
0.6649947
0.6650378
0.66501577
0.66482579
0.66446233
0.66430703
0.66438546
0.66437559
0.66435354
0.66427167
0.66431503
0.66451177
0.66446516
0.66466471
0.66465087
0.66454045
0.66495277
0.66475315
0.66442485
0.66505641
0.66560858
0.66478304
0.66426972
0.66450904
0.67063889
0.67063824
0.67063816
0.6706323
0.6706319
0.67062969
0.67063176
0.67063407
0.67064032
0.67064804
0.67065923
0.67067195
0.67068699
0.67070336
0.67072118
0.67074026
0.6707604
0.67078174
0.67080402
0.67082735
0.67085152
0.67087655
0.67090233
0.67092879
0.6709559
0.67098357
0.67101184
0.67104076
0.67107038
0.6711006
0.67113136
0.67116256
0.6711941
0.67122587
0.6712577
0.67128934
0.67132045
0.67135037
0.67137799
0.67140078
0.67140827
0.67139487
0.6713587
0.6712982
0.67121205
0.67109357
0.670926
0.67069632
0.67038442
0.66997142
0.66945581
0.66888696
0.66859415
0.66949845
0.67229177
0.67402475
0.67440488
0.67410016
0.67361625
0.67312253
0.67223715
0.67152563
0.67085597
0.67086964
0.67042965
0.67034567
0.67050865
0.67148165
0.67247999
0.67303626
0.67341991
0.67312459
0.67244143
0.67200752
0.6718674
0.67197041
0.67195388
0.6718813
0.67182416
0.67169758
0.67151573
0.67135901
0.67124879
0.6712057
0.67124347
0.67125283
0.67114777
0.67091217
0.67064799
0.67035426
0.67011995
0.67000424
0.66998051
0.66986666
0.66968705
0.66937653
0.66907012
0.66899198
0.66877884
0.66834576
0.66804421
0.66773334
0.66739695
0.66708799
0.6668126
0.66657451
0.66633755
0.66612134
0.66591641
0.66569902
0.66558379
0.66549075
0.66533518
0.66510563
0.66499236
0.66503642
0.66501016
0.66481645
0.66445308
0.66430182
0.6643838
0.66437316
0.66435183
0.66426963
0.66431284
0.66451318
0.66446365
0.66466466
0.66465167
0.66453803
0.66495331
0.66475451
0.66442311
0.66505571
0.6656092
0.66478163
0.66426636
0.66450707
0.67065215
0.67065221
0.67065415
0.67065624
0.67066102
0.67066704
0.67067686
0.67068923
0.67070563
0.67072447
0.67074604
0.67076909
0.67079356
0.67081885
0.67084489
0.67087147
0.67089851
0.67092597
0.67095377
0.67098188
0.67101023
0.67103878
0.67106746
0.67109616
0.67112481
0.67115324
0.67118133
0.67120886
0.67123557
0.67126116
0.67128524
0.67130732
0.67132681
0.671343
0.67135502
0.67136176
0.67136225
0.67135474
0.6713376
0.67130889
0.67126653
0.67120798
0.67113008
0.67102879
0.67089762
0.67072959
0.67051824
0.67025568
0.66993368
0.66954638
0.669144
0.66896103
0.66947212
0.6716154
0.67389494
0.67449025
0.67440924
0.67403979
0.67383054
0.67323022
0.67232664
0.67180299
0.67134088
0.67097338
0.67017531
0.66988804
0.66986119
0.67097301
0.67234762
0.67310038
0.67341716
0.67306378
0.67242506
0.67194537
0.67182716
0.67190019
0.6718617
0.67178656
0.67171644
0.67160017
0.6714322
0.671291
0.67120461
0.67119443
0.6712451
0.67122894
0.67108829
0.67085048
0.67058788
0.6703132
0.67011103
0.67000745
0.66998377
0.66985637
0.66967653
0.66935591
0.66906729
0.66899998
0.66876406
0.66833106
0.66803974
0.66772751
0.66738358
0.66707873
0.66680466
0.66656776
0.66633117
0.66611329
0.66590762
0.66569036
0.66557908
0.66548633
0.66532817
0.66510103
0.6649905
0.66503518
0.6650057
0.66480896
0.66444518
0.66429642
0.66438143
0.66437037
0.66434992
0.66426753
0.6643101
0.66451428
0.66446188
0.66466432
0.66465253
0.66453549
0.66495387
0.66475615
0.66442101
0.66505531
0.66560988
0.66478026
0.66426331
0.66450516
0.67030478
0.6703086
0.67031684
0.67033012
0.67034876
0.67037323
0.67040356
0.67043925
0.67047885
0.6705206
0.67056286
0.6706046
0.67064527
0.67068464
0.67072271
0.67075953
0.67079522
0.67082987
0.67086354
0.67089628
0.67092812
0.67095904
0.67098899
0.67101789
0.67104562
0.67107201
0.67109687
0.67111991
0.67114082
0.6711592
0.67117455
0.67118629
0.67119373
0.67119598
0.67119222
0.67118119
0.67116151
0.67113163
0.67108974
0.67103378
0.67096145
0.67087028
0.6707577
0.67062119
0.67045777
0.67026421
0.67003698
0.66977251
0.66947884
0.6692139
0.66911693
0.66947203
0.67093795
0.67335985
0.67463667
0.67463594
0.67441417
0.6742475
0.67415309
0.67330931
0.67256896
0.6722257
0.67166155
0.6706546
0.66969111
0.66943945
0.66951209
0.67079699
0.67229259
0.67320138
0.67340417
0.67302555
0.6723768
0.67190614
0.67183455
0.67186581
0.67179124
0.67170952
0.67163229
0.67152192
0.67136832
0.67124107
0.67118054
0.6712154
0.67124673
0.67120756
0.67102755
0.6707834
0.67053108
0.67027743
0.67010537
0.67002168
0.66998673
0.66984357
0.66966151
0.66933283
0.66906544
0.6690035
0.66874129
0.66831047
0.66803097
0.66771676
0.66736637
0.66706672
0.66679473
0.66655939
0.66632374
0.66610483
0.66589904
0.66568307
0.66557441
0.6654826
0.66532014
0.66509549
0.66498873
0.66503446
0.66500142
0.66480105
0.66443685
0.66429114
0.66437872
0.66436667
0.66434762
0.66426486
0.66430706
0.6645154
0.66445974
0.66466381
0.66465305
0.66453271
0.66495453
0.66475754
0.66441864
0.66505453
0.66561062
0.66477895
0.66425994
0.67030562
0.67030653
0.67030906
0.67031353
0.6703208
0.6703314
0.67034618
0.67036527
0.67038852
0.67041497
0.67044373
0.67047385
0.67050473
0.67053588
0.67056702
0.67059794
0.67062847
0.67065847
0.6706878
0.67071631
0.67074386
0.67077027
0.67079537
0.67081894
0.67084074
0.67086049
0.67087787
0.67089253
0.67090404
0.6709119
0.67091554
0.6709143
0.6709075
0.67089413
0.6708732
0.67084354
0.67080382
0.67075258
0.67068824
0.67060912
0.67051355
0.67039996
0.6702669
0.67011314
0.66993816
0.66974291
0.66953334
0.66932895
0.66918145
0.66916953
0.66949966
0.67055275
0.67254625
0.67442795
0.67487046
0.67458472
0.67453686
0.67458371
0.6742394
0.67331569
0.67280696
0.67246436
0.67162497
0.67013079
0.66909808
0.66887872
0.66905537
0.67044098
0.6720285
0.673094
0.67330824
0.67289934
0.67226316
0.6717806
0.67176439
0.6717621
0.67167802
0.67158876
0.67151919
0.67142499
0.67129125
0.67118447
0.67115709
0.67121814
0.67122749
0.67116399
0.67095143
0.67071105
0.67047536
0.67024866
0.67010204
0.6700355
0.66998578
0.66983047
0.66964421
0.66931342
0.6690675
0.66900662
0.66872072
0.66829485
0.66802631
0.66770891
0.66735058
0.6670561
0.66678617
0.66655177
0.6663168
0.66609588
0.66588938
0.66567362
0.665567
0.6654783
0.66531285
0.66509059
0.66498752
0.6650339
0.66499692
0.66479295
0.66442826
0.6642857
0.6643759
0.66436263
0.6643453
0.66426201
0.66430372
0.6645167
0.66445725
0.66466352
0.66465388
0.66452947
0.6649553
0.6647593
0.66441597
0.66505384
0.66561162
0.66477772
0.66425672
0.66982605
0.66982906
0.66983617
0.6698481
0.66986585
0.66989008
0.66992126
0.66995872
0.67000104
0.67004597
0.67009168
0.67013677
0.67018047
0.67022232
0.67026214
0.67029986
0.67033543
0.67036885
0.67040007
0.67042904
0.67045571
0.67047996
0.67050167
0.67052068
0.67053678
0.67054973
0.67055923
0.67056492
0.67056639
0.67056318
0.67055472
0.6705403
0.67051919
0.6704905
0.67045326
0.67040638
0.6703487
0.67027898
0.67019601
0.67009871
0.66998623
0.66985829
0.66971559
0.66956064
0.66939916
0.66924252
0.66911276
0.66904713
0.66910547
0.66942626
0.67022281
0.67170474
0.67361049
0.67476628
0.67481343
0.6746396
0.67484419
0.67483565
0.67405183
0.67323856
0.67278004
0.67229791
0.67136385
0.66968231
0.66898103
0.66904305
0.66913396
0.67009617
0.67192136
0.67303847
0.67323545
0.67280742
0.67214191
0.67174359
0.67172875
0.6717066
0.67160969
0.67151919
0.67144019
0.671362
0.67124306
0.67116233
0.67118015
0.67122197
0.67120361
0.67111327
0.67087145
0.67064315
0.67042752
0.67022731
0.67010007
0.67005304
0.66998143
0.66981655
0.66962255
0.66929054
0.66906994
0.66900267
0.66869185
0.66827587
0.66801571
0.66769504
0.66733075
0.66704279
0.66677531
0.66654213
0.66630855
0.66608655
0.66588011
0.66566636
0.66556085
0.66547421
0.66530427
0.66508451
0.664986
0.66503361
0.6649927
0.66478458
0.66441949
0.66428034
0.66437277
0.66435819
0.66434275
0.66425881
0.66430044
0.66451778
0.66445464
0.66466289
0.66465425
0.66452642
0.66495606
0.66476062
0.66441337
0.66505314
0.66561259
0.66477641
0.66425337
0.66976266
0.66976338
0.66976567
0.66976992
0.66977716
0.66978779
0.66980265
0.66982144
0.66984374
0.6698682
0.66989383
0.66991963
0.66994504
0.66996961
0.66999312
0.67001534
0.67003616
0.67005543
0.67007303
0.67008882
0.67010264
0.67011431
0.67012363
0.67013037
0.67013425
0.67013497
0.67013218
0.67012549
0.6701144
0.67009841
0.67007691
0.67004925
0.67001469
0.66997243
0.66992163
0.6698614
0.6697909
0.66970941
0.66961644
0.66951204
0.66939707
0.66927382
0.66914673
0.66902353
0.66891696
0.66884761
0.66883988
0.66894854
0.66925575
0.66988741
0.67099032
0.67257453
0.67413875
0.67480081
0.67472566
0.67484213
0.67505686
0.67469994
0.67356948
0.67276217
0.67220307
0.67165119
0.6708618
0.66943808
0.66902775
0.66901
0.66880063
0.6695728
0.67156893
0.67291884
0.67313653
0.67265634
0.67194276
0.67161925
0.67164262
0.67160183
0.67150488
0.67140888
0.67134338
0.67127727
0.67118398
0.67114773
0.67118676
0.67119955
0.67116432
0.67103007
0.67078214
0.67057966
0.67038532
0.67021161
0.67009648
0.67006527
0.66997245
0.66980318
0.66959971
0.66927488
0.6690782
0.66899778
0.6686659
0.66826863
0.66801017
0.66768375
0.66731225
0.66703089
0.66676593
0.6665331
0.66630032
0.66607606
0.66586902
0.66565663
0.66555226
0.6654696
0.66529651
0.66507889
0.66498471
0.6650332
0.66498793
0.66477594
0.66441026
0.66427469
0.66436972
0.66435347
0.66434022
0.66425549
0.66429693
0.66451916
0.66445173
0.66466259
0.66465498
0.66452286
0.66495699
0.66476227
0.66441049
0.66505263
0.66561375
0.66477508
0.66952571
0.66952462
0.66952333
0.66952198
0.66952153
0.66952231
0.66952516
0.6695302
0.66953758
0.66954677
0.66955732
0.6695686
0.66958021
0.66959171
0.66960283
0.6696133
0.66962289
0.66963139
0.66963858
0.66964426
0.6696482
0.66965015
0.66964985
0.66964704
0.66964138
0.66963254
0.66962012
0.66960372
0.66958287
0.66955706
0.66952574
0.66948832
0.66944421
0.66939277
0.66933345
0.66926577
0.66918947
0.66910467
0.66901212
0.66891355
0.66881216
0.6687132
0.66862482
0.66855931
0.66853084
0.66856447
0.6686956
0.66897611
0.6694805
0.67030249
0.67151065
0.67299721
0.67425648
0.67470316
0.67465738
0.67496341
0.67499281
0.67425912
0.6729321
0.672032
0.67137233
0.67082312
0.67027449
0.66939915
0.66936405
0.66909007
0.66856409
0.66948873
0.67158255
0.67290472
0.67305798
0.67249416
0.67181811
0.67157486
0.67162076
0.67156992
0.67146516
0.67136851
0.67129054
0.67123463
0.6711847
0.67118263
0.67119667
0.67116693
0.67112348
0.6709484
0.67069783
0.67052592
0.6703516
0.67019912
0.67010229
0.6700722
0.66995904
0.66978799
0.66957105
0.66925598
0.66908429
0.66898374
0.66863158
0.66825544
0.66799783
0.6676669
0.66729027
0.66701625
0.66675439
0.66652213
0.66629114
0.66606562
0.66585908
0.66564887
0.66554504
0.66546456
0.66528715
0.66507203
0.66498325
0.6650333
0.66498352
0.66476669
0.66440082
0.66426926
0.66436622
0.66434864
0.66433756
0.66425194
0.66429358
0.66452024
0.66444882
0.66466193
0.66465523
0.66451963
0.66495787
0.66476344
0.66440781
0.66505214
0.66561485
0.66477361
0.66922095
0.66921925
0.66921617
0.6692117
0.66920633
0.66920029
0.66919449
0.6691894
0.66918579
0.66918368
0.66918312
0.66918368
0.66918506
0.66918678
0.66918854
0.66918997
0.66919079
0.66919072
0.66918948
0.66918683
0.6691825
0.66917623
0.66916775
0.66915677
0.669143
0.66912611
0.66910577
0.66908161
0.66905326
0.66902032
0.66898239
0.66893907
0.66889
0.66883491
0.66877367
0.66870636
0.6686335
0.66855632
0.66847699
0.66839893
0.66832736
0.66826982
0.66823593
0.66823876
0.668297
0.66843455
0.66868398
0.66908984
0.66970991
0.67060569
0.67179932
0.67315845
0.67425502
0.67462301
0.67458141
0.67480384
0.67460913
0.67370939
0.67223513
0.67120685
0.67031545
0.6698282
0.6696405
0.66922182
0.66931486
0.66867652
0.66815353
0.66925793
0.6715607
0.67280094
0.67287183
0.67225359
0.67161139
0.67146981
0.67152584
0.67149378
0.67139712
0.67129732
0.67121691
0.67116691
0.67116288
0.67119102
0.67117344
0.6711189
0.67105539
0.67084834
0.67061819
0.67047943
0.67032364
0.67018759
0.67010949
0.6700729
0.66994287
0.66977456
0.66954233
0.66924411
0.66909621
0.66896959
0.6686029
0.66825061
0.66798939
0.66765157
0.66726962
0.66700296
0.66674427
0.66651178
0.66628152
0.66605369
0.66584657
0.6656386
0.66553585
0.66545957
0.665279
0.66506559
0.66498156
0.66503275
0.66497848
0.66475729
0.66439091
0.66426331
0.66436307
0.66434346
0.66433498
0.66424829
0.66429007
0.66452164
0.66444562
0.66466165
0.66465586
0.66451589
0.66495902
0.6647648
0.66440491
0.66505189
0.66561612
0.66477235
0.66881655
0.66881628
0.6688162
0.66881628
0.66881645
0.66881681
0.66881712
0.66881746
0.6688175
0.66881733
0.66881663
0.66881541
0.66881346
0.66881075
0.66880712
0.66880249
0.66879673
0.66878974
0.66878138
0.66877152
0.66876001
0.66874667
0.66873131
0.66871375
0.66869374
0.66867106
0.66864546
0.66861666
0.66858441
0.66854845
0.66850855
0.66846454
0.66841638
0.66836418
0.66830833
0.66824966
0.66818957
0.66813007
0.66807413
0.66802621
0.66799243
0.66798041
0.66800108
0.66806735
0.66819525
0.66840485
0.66872195
0.6691794
0.66981736
0.67067666
0.67177061
0.6730183
0.67412004
0.674574
0.67443876
0.67445845
0.67415332
0.67332648
0.67184082
0.67053797
0.66929569
0.66875833
0.66902076
0.66904034
0.66928782
0.668493
0.66823501
0.66960989
0.67172368
0.67278987
0.67273594
0.6720254
0.67152863
0.6714695
0.67152002
0.67146808
0.67138007
0.67127788
0.67119111
0.67115752
0.6711774
0.67119696
0.67113748
0.67106805
0.67097455
0.6707556
0.67055671
0.67044388
0.67030056
0.67017275
0.67011412
0.67006405
0.66992329
0.66975748
0.66950641
0.66922792
0.66910143
0.66894568
0.66856642
0.66823794
0.6679742
0.6676309
0.66724585
0.66698708
0.66673186
0.66649955
0.66627137
0.66604225
0.66583598
0.66563056
0.66552765
0.66545322
0.66526926
0.6650581
0.66498006
0.66503308
0.66497381
0.664747
0.66438092
0.66425746
0.66435943
0.66433838
0.66433223
0.66424448
0.6642866
0.6645228
0.66444251
0.66466103
0.66465607
0.66451253
0.66496004
0.66476587
0.66440218
0.66505171
0.66561728
0.66836905
0.66837315
0.66838109
0.66839336
0.66840858
0.6684267
0.66844578
0.66846498
0.66848214
0.66849669
0.66850777
0.66851574
0.66852055
0.66852268
0.66852225
0.66851956
0.66851471
0.66850786
0.66849902
0.66848826
0.66847555
0.66846088
0.66844415
0.66842529
0.66840419
0.66838074
0.66835479
0.66832623
0.66829492
0.6682608
0.66822383
0.66818411
0.66814185
0.66809752
0.66805186
0.66800606
0.66796187
0.66792195
0.66789
0.6678709
0.66787093
0.66789743
0.66795904
0.66806569
0.66822911
0.66846329
0.66878648
0.66922457
0.66981183
0.6705865
0.67157559
0.67274883
0.67393142
0.67457846
0.67437983
0.6741938
0.67388762
0.67322326
0.67184781
0.67033078
0.66880563
0.66827049
0.668587
0.6690524
0.66918257
0.66798449
0.66815773
0.66966581
0.67182931
0.672627
0.67220557
0.67151856
0.67135493
0.67143056
0.67148763
0.6714161
0.67133693
0.67123993
0.67114112
0.67111623
0.67115136
0.67115691
0.67108141
0.67099801
0.67087637
0.67066096
0.67050537
0.67041273
0.67027867
0.67017014
0.6701189
0.67005201
0.66990581
0.66974057
0.66947407
0.66921962
0.6691082
0.6689246
0.66854085
0.66823127
0.66796107
0.66761076
0.66722405
0.66697228
0.66672078
0.66648763
0.66626018
0.66602876
0.66582212
0.66561997
0.66551833
0.66544738
0.66526129
0.6650508
0.66497793
0.66503239
0.66496847
0.66473681
0.66437038
0.66425109
0.66435634
0.66433287
0.66432968
0.66424062
0.66428307
0.66452423
0.66443916
0.66466081
0.66465667
0.66450868
0.66496137
0.66476708
0.66439923
0.66505165
0.66561854
0.66886174
0.66885594
0.66884445
0.6688267
0.66880363
0.66877535
0.66874356
0.66870953
0.6686757
0.66864335
0.66861353
0.66858623
0.66856138
0.66853858
0.66851748
0.66849767
0.66847879
0.66846051
0.66844251
0.66842453
0.66840628
0.66838752
0.66836802
0.66834757
0.66832597
0.66830307
0.66827871
0.66825279
0.66822527
0.66819616
0.66816558
0.66813378
0.66810118
0.66806845
0.66803654
0.66800685
0.66798127
0.66796235
0.66795343
0.66795847
0.66798251
0.6680316
0.66811261
0.66823306
0.66840146
0.6686281
0.66892644
0.66931418
0.66981551
0.67046156
0.67128521
0.67230926
0.67354304
0.67465413
0.67459174
0.67429366
0.67396402
0.67346417
0.672273
0.67068718
0.66894524
0.6684128
0.66868854
0.66926683
0.66897819
0.66800169
0.66855932
0.67008435
0.67211849
0.67244096
0.67181908
0.67138027
0.67139072
0.67149176
0.67149972
0.67139429
0.67131881
0.67123834
0.67114065
0.67110138
0.67112217
0.67110828
0.67102398
0.67092238
0.67077785
0.67058162
0.67046709
0.67038504
0.67025318
0.67016592
0.67011473
0.6700304
0.66988649
0.66971573
0.66943286
0.66920867
0.66910349
0.66889256
0.66850934
0.66821735
0.66794122
0.66758563
0.66719948
0.66695488
0.6667071
0.66647416
0.66624897
0.66601646
0.66581059
0.66561134
0.66550946
0.66543964
0.66525129
0.66504289
0.66497637
0.66503305
0.66496349
0.66472557
0.66435977
0.66424484
0.66435267
0.66432748
0.66432689
0.66423672
0.6642794
0.66452551
0.66443588
0.66466021
0.66465687
0.66450523
0.66496251
0.66476804
0.66439639
0.66505166
0.66561967
0.66848744
0.66849146
0.66849924
0.66851127
0.66852657
0.66854502
0.66856489
0.66858509
0.6686035
0.66861929
0.66863164
0.66864073
0.66864658
0.66864959
0.66864997
0.66864805
0.66864397
0.66863795
0.66863008
0.66862051
0.66860929
0.66859652
0.66858223
0.66856649
0.66854935
0.66853088
0.66851114
0.66849024
0.66846832
0.66844557
0.66842227
0.6683988
0.66837568
0.66835365
0.66833366
0.66831699
0.66830533
0.66830084
0.66830604
0.66832413
0.66835893
0.66841455
0.66849539
0.66860601
0.66875128
0.66893682
0.6691701
0.66946198
0.66982853
0.67029217
0.67088202
0.6716357
0.672641
0.674101
0.67479463
0.67462874
0.67416024
0.67357249
0.67263556
0.67118444
0.669477
0.66901647
0.66910492
0.6692547
0.66858575
0.66811294
0.66887031
0.67052295
0.67219809
0.6720681
0.67143393
0.67126671
0.67135873
0.67147073
0.67140755
0.671308
0.6712866
0.67121141
0.67110853
0.6710515
0.67105866
0.67104041
0.67094625
0.67083224
0.67068509
0.67051965
0.67043391
0.67035544
0.6702339
0.67017245
0.67010977
0.67001071
0.66987222
0.66969121
0.66940069
0.66920935
0.66909995
0.66886677
0.66848688
0.66820625
0.66792195
0.66756036
0.66717731
0.66693848
0.66669425
0.66646043
0.66623597
0.66600148
0.66579526
0.66560041
0.66550055
0.66543284
0.6652426
0.66503486
0.66497379
0.66503229
0.66495801
0.66471452
0.66434849
0.66423821
0.66434955
0.66432156
0.66432436
0.66423269
0.66427586
0.66452688
0.66443238
0.66466007
0.66465743
0.66450128
0.66496404
0.66476916
0.66439331
0.66505175
0.66562087
0.66962853
0.66962336
0.66961251
0.66959543
0.66957249
0.66954366
0.66951009
0.66947308
0.66943485
0.66939699
0.66936079
0.66932669
0.66929486
0.6692652
0.66923749
0.6692115
0.66918699
0.66916373
0.66914151
0.66912017
0.66909951
0.6690794
0.66905969
0.6690403
0.66902112
0.6690021
0.6689832
0.66896442
0.66894581
0.66892748
0.66890961
0.66889246
0.66887641
0.66886201
0.66884996
0.66884119
0.66883689
0.66883857
0.66884771
0.66886652
0.66889726
0.66894216
0.66900342
0.66908296
0.66918252
0.66930389
0.66944955
0.66962363
0.66983288
0.67008732
0.67040029
0.67078912
0.67129002
0.6721568
0.67337761
0.67387539
0.67364163
0.67309152
0.67221131
0.67115414
0.66997656
0.66965876
0.66956419
0.66929353
0.66855953
0.66867545
0.66958463
0.67121369
0.67214125
0.67174731
0.67122706
0.6712592
0.6713997
0.67148731
0.67131716
0.67122008
0.67124082
0.67117337
0.67108639
0.67100602
0.67100238
0.67096982
0.67086476
0.67074711
0.6706016
0.67047111
0.6704013
0.67032105
0.67021202
0.67016593
0.67009463
0.66998628
0.66984979
0.66965417
0.66936218
0.66920288
0.66908162
0.66883204
0.66846062
0.6681881
0.66789634
0.66753043
0.66715299
0.66691954
0.66667857
0.66644562
0.66622354
0.66598844
0.66578249
0.66559093
0.66549102
0.66542393
0.6652323
0.66502674
0.66497198
0.6650328
0.66495267
0.66470239
0.66433729
0.6642316
0.66434583
0.6643158
0.66432156
0.66422873
0.66427214
0.66452819
0.664429
0.66465952
0.6646576
0.66449776
0.6649653
0.66477007
0.6643904
0.66505189
0.66962273
0.66962502
0.66962937
0.66963619
0.66964514
0.66965622
0.66966855
0.66968134
0.6696932
0.6697034
0.66971135
0.66971704
0.66972047
0.66972185
0.66972133
0.66971909
0.66971526
0.66970998
0.66970334
0.66969544
0.66968638
0.66967622
0.66966506
0.66965298
0.66964005
0.66962639
0.66961209
0.66959729
0.66958212
0.66956678
0.66955147
0.66953647
0.66952208
0.66950871
0.66949683
0.669487
0.66947991
0.66947632
0.66947713
0.66948328
0.66949547
0.66951459
0.66954126
0.66957557
0.66961724
0.66966567
0.66972021
0.66978054
0.66984688
0.66992024
0.67000156
0.67009207
0.670185
0.67028789
0.67064646
0.67126191
0.67136742
0.67114909
0.67058933
0.66998463
0.66971362
0.6698172
0.66976593
0.66927641
0.66885928
0.6692587
0.67019301
0.67129073
0.67161998
0.67127587
0.6710559
0.67124226
0.67132733
0.67135702
0.67115677
0.67109811
0.6711022
0.67110782
0.67103059
0.67093567
0.67091229
0.67087366
0.67077549
0.67066292
0.67053316
0.67043033
0.6703858
0.67029478
0.67020448
0.67016064
0.67008222
0.6699702
0.66983261
0.66961928
0.66933778
0.6692069
0.66906581
0.66880323
0.66844166
0.66817089
0.66787073
0.66750019
0.66713119
0.66690191
0.66666329
0.66642967
0.66620837
0.66597172
0.66576562
0.6655797
0.66548246
0.66541611
0.665223
0.66501808
0.66496911
0.66503213
0.66494685
0.66469041
0.66432542
0.66422477
0.66434269
0.66430964
0.66431907
0.66422462
0.66426868
0.6645296
0.66442534
0.66465955
0.66465805
0.66449371
0.66496698
0.66477106
0.6643873
0.66505206
0.67059612
0.67060043
0.67060771
0.67061816
0.67062919
0.67064015
0.67064804
0.67065215
0.67065059
0.67064399
0.67063239
0.67061704
0.67059846
0.67057754
0.67055472
0.67053052
0.67050525
0.6704792
0.67045262
0.67042567
0.67039852
0.67037128
0.67034405
0.67031693
0.67028998
0.67026326
0.67023682
0.67021068
0.67018489
0.67015948
0.67013447
0.67010991
0.67008585
0.67006235
0.67003949
0.67001734
0.66999601
0.66997558
0.66995615
0.66993781
0.66992057
0.66990434
0.66988887
0.66987366
0.66985786
0.66984026
0.66981931
0.66979326
0.66976026
0.66971874
0.66966746
0.6696051
0.66954046
0.66941482
0.66924371
0.66921567
0.66932757
0.66940706
0.6695094
0.6696781
0.67001422
0.67011085
0.66991069
0.66945072
0.66947842
0.66996313
0.67086445
0.67137308
0.67149645
0.67109224
0.67099849
0.67126135
0.67125767
0.67118766
0.67099314
0.67097103
0.67097313
0.67103716
0.67097259
0.67086729
0.67082443
0.67078636
0.67069483
0.67058762
0.67047224
0.6703915
0.67036557
0.67026276
0.67018892
0.67014589
0.67006196
0.66994633
0.66980041
0.66957011
0.66931359
0.66919713
0.66903535
0.66876862
0.66841925
0.66814585
0.66783992
0.66746609
0.66710742
0.6668816
0.66664557
0.66641349
0.6661943
0.66595757
0.66575138
0.66556917
0.66547241
0.66540598
0.6652126
0.66500976
0.664967
0.66503266
0.66494093
0.66467749
0.6643136
0.66421783
0.66433894
0.66430352
0.66431632
0.66422065
0.66426494
0.6645309
0.66442189
0.6646591
0.66465819
0.66449011
0.66496835
0.66477192
0.66438435
0.66505224
0.67068232
0.67068481
0.67068904
0.670695
0.67070126
0.67070785
0.67071296
0.67071649
0.67071717
0.67071546
0.67071103
0.67070447
0.67069585
0.67068561
0.67067387
0.67066085
0.67064668
0.67063147
0.67061535
0.67059834
0.67058056
0.67056201
0.67054277
0.67052284
0.67050226
0.67048103
0.67045917
0.67043665
0.6704135
0.67038969
0.67036523
0.6703402
0.67031465
0.67028857
0.67026192
0.6702347
0.67020688
0.67017849
0.67014953
0.67012007
0.67009019
0.67005997
0.67002949
0.66999875
0.66996761
0.6699358
0.66990306
0.6698693
0.66983485
0.66980011
0.66976503
0.66973076
0.66971449
0.66972894
0.66962727
0.66942939
0.66943197
0.66957416
0.66992612
0.67028776
0.67050983
0.67033394
0.67004291
0.66989158
0.67001497
0.67017395
0.670352
0.67092876
0.67125788
0.67087513
0.67093504
0.67125571
0.67109332
0.6709185
0.67081275
0.67083134
0.67084664
0.6709426
0.67087191
0.67076611
0.67072744
0.67069665
0.67061498
0.67051822
0.67041875
0.6703838
0.67035434
0.67024464
0.67017865
0.67013631
0.67004837
0.66993112
0.66977166
0.66952792
0.66930332
0.66919512
0.66900895
0.6687406
0.66840071
0.66811922
0.66780916
0.66743242
0.66708568
0.6668627
0.66662774
0.66639542
0.66617659
0.66593909
0.66573304
0.66555762
0.66546404
0.66539711
0.66520255
0.66500095
0.66496383
0.66503242
0.66493478
0.66466458
0.66430112
0.66421103
0.66433564
0.66429706
0.66431389
0.6642164
0.6642616
0.66453232
0.66441809
0.6646593
0.66465854
0.66448598
0.6649702
0.66477293
0.66438124
0.67089228
0.67088996
0.6708851
0.67087762
0.67086804
0.67085622
0.67084326
0.67082944
0.67081593
0.67080275
0.67079039
0.67077853
0.67076723
0.67075617
0.67074532
0.67073447
0.67072358
0.67071252
0.67070124
0.67068967
0.67067778
0.67066553
0.67065288
0.67063983
0.67062635
0.67061245
0.67059812
0.67058338
0.67056823
0.67055267
0.67053667
0.67052001
0.67050259
0.67048445
0.67046563
0.6704462
0.67042626
0.67040591
0.67038534
0.67036509
0.67034586
0.67032834
0.67031333
0.67030176
0.67029463
0.67029297
0.67029702
0.67030675
0.67032351
0.67035055
0.67039517
0.67047222
0.67062042
0.67096861
0.67137467
0.67134973
0.67100695
0.67066678
0.67065038
0.67061549
0.67041867
0.67021721
0.67008376
0.6701165
0.67031814
0.6699117
0.66989289
0.67091748
0.67129515
0.67088286
0.67095821
0.67121762
0.67093801
0.67071596
0.67063803
0.67069115
0.67073223
0.67081194
0.67075321
0.67066736
0.67063554
0.67061581
0.67053482
0.67044543
0.67036804
0.67036558
0.67031873
0.67021391
0.67016211
0.67012189
0.67002787
0.66990011
0.66972502
0.66947412
0.6692921
0.66917643
0.66897016
0.66870979
0.66837672
0.66808506
0.66777417
0.66739563
0.66706154
0.66684127
0.66660831
0.66637819
0.66616083
0.66592379
0.66571728
0.66554599
0.66545355
0.66538613
0.66519184
0.6649926
0.66496132
0.66503275
0.66492843
0.66465094
0.66428878
0.66420382
0.66433181
0.66429054
0.66431119
0.6642123
0.6642579
0.66453366
0.66441458
0.66465897
0.66465866
0.66448226
0.66497155
0.66477411
0.66437816
0.67070995
0.67071018
0.67071102
0.67071238
0.67071434
0.67071666
0.6707189
0.6707207
0.67072165
0.67072174
0.67072086
0.67071922
0.67071681
0.67071383
0.67071026
0.67070621
0.67070168
0.67069674
0.67069138
0.67068564
0.67067952
0.67067304
0.6706662
0.67065904
0.67065154
0.67064375
0.67063568
0.67062738
0.67061892
0.67061039
0.67060194
0.67059386
0.67058642
0.67057991
0.67057466
0.67057113
0.67056989
0.67057172
0.6705775
0.6705881
0.67060448
0.67062795
0.67065997
0.67070219
0.67075651
0.67082543
0.67091331
0.67102676
0.6711747
0.67136995
0.67162973
0.67197278
0.67240984
0.67287614
0.67300887
0.6724375
0.67167646
0.67101708
0.67058228
0.67012922
0.66993178
0.66996429
0.6703202
0.67071568
0.67060879
0.66949493
0.66946291
0.67074238
0.67123834
0.67081018
0.67097246
0.67109963
0.67077289
0.67054174
0.67047911
0.67054099
0.67061267
0.67066928
0.67063031
0.67056927
0.67054436
0.67052957
0.6704526
0.67038032
0.6703564
0.67035753
0.67028759
0.67019726
0.67016081
0.67011335
0.67001476
0.66987309
0.66968311
0.66943912
0.66929303
0.66916164
0.66893557
0.66868482
0.66835267
0.66804836
0.66774022
0.66736049
0.66703884
0.66682092
0.6665881
0.66635826
0.6661407
0.66590354
0.66569748
0.6655342
0.66544516
0.66537618
0.66518144
0.66498364
0.66495786
0.66503299
0.66492184
0.66463716
0.66427606
0.66419701
0.66432835
0.66428392
0.6643089
0.66420791
0.66425474
0.66453504
0.6644107
0.66465934
0.6646589
0.66447804
0.66497341
0.66477547
0.66437482
0.67073683
0.67073237
0.67072375
0.67071051
0.67069374
0.67067327
0.67065111
0.67062821
0.67060683
0.67058753
0.67057116
0.67055735
0.67054611
0.67053696
0.67052972
0.67052406
0.67051981
0.67051678
0.67051486
0.67051396
0.67051402
0.67051501
0.67051693
0.67051983
0.67052377
0.67052886
0.67053525
0.67054314
0.67055278
0.6705645
0.67057871
0.67059591
0.67061673
0.67064191
0.67067238
0.67070925
0.67075384
0.67080762
0.6708723
0.67094965
0.67104155
0.67114985
0.67127641
0.67142316
0.67159246
0.6717875
0.67201276
0.67227398
0.67257679
0.67292132
0.67328881
0.67360849
0.67369218
0.67339864
0.6727997
0.67188022
0.6711009
0.67050514
0.67008365
0.67000734
0.67058089
0.67103299
0.67126142
0.6711964
0.67055104
0.66927718
0.66917215
0.67067643
0.67143876
0.67110888
0.671126
0.67093718
0.67060594
0.67039422
0.67033802
0.67039989
0.67050504
0.67051574
0.67049409
0.67046661
0.67044603
0.67043356
0.67036385
0.67031429
0.67034029
0.67032633
0.67023941
0.67017122
0.67015368
0.67009602
0.66998545
0.66982813
0.66962337
0.66940512
0.66928034
0.66913351
0.66889389
0.66865667
0.66832198