/*--------------------------------*- C++ -*----------------------------------*\
| =========                 |                                                 |
| \\      /  F ield         | OpenFOAM: The Open Source CFD Toolbox           |
|  \\    /   O peration     | Version:  2506                                  |
|   \\  /    A nd           | Website:  www.openfoam.com                      |
|    \\/     M anipulation  |                                                 |
\*---------------------------------------------------------------------------*/
FoamFile
{
    version     2.0;
    format      ascii;
    arch        "LSB;label=32;scalar=64";
    class       volScalarField;
    location    "0.002";
    object      Co;
}
// * * * * * * * * * * * * * * * * * * * * * * * * * * * * * * * * * * * * * //

dimensions      [0 0 0 0 0 0 0];

internalField   nonuniform List<scalar> 
13761
(
5.4013531e-05
0.00016525819
0.00028417661
0.00041101154
0.00054421607
0.00067861782
0.00080587107
0.00091959103
0.0010183211
0.0011037335
0.001178319
0.0012443781
0.0013037048
0.0013576844
0.0014073889
0.0014536477
0.0014971024
0.0015382565
0.001577494
0.0016151131
0.0016513643
0.0016864377
0.0017204665
0.0017535474
0.0017857321
0.0018170838
0.001848419
0.0018795547
0.0019096271
0.0019385593
0.0019662859
0.0019927733
0.0020180408
0.0020421755
0.002065343
0.0020877857
0.0021098166
0.0021318144
0.0021542112
0.0021774744
0.0022020786
0.002228472
5.2973535e-05
0.00016253904
0.00028027072
0.00040643616
0.00053941715
0.00067390062
0.00080140581
0.00091547531
0.0010146349
0.0011005195
0.0011756106
0.0012421769
0.0013019997
0.0013564546
0.0014066098
0.0014532897
0.0014971401
0.0015386627
0.0015782404
0.0016161766
0.0016527235
0.0016880707
0.0017225854
0.0017568896
0.001790774
0.0018237475
0.0018557882
0.0018868426
0.0019168408
0.0019457046
0.0019733668
0.0019997948
0.0020250073
0.0020490904
0.0020722102
0.0020946088
0.002116597
0.0021385537
0.0021609122
5.2412371e-05
0.00016113338
0.00027835644
0.00040430905
0.00053731543
0.00067196296
0.00079968358
0.00091398363
0.0010133971
0.0010995586
0.0011749481
0.0012418216
0.0013019538
0.0013567144
0.001407171
0.001454146
0.0014982819
0.0015400798
0.0015799217
0.0016183111
0.001655898
0.0016926596
0.0017283567
0.001763085
0.0017968942
0.0018297966
0.0018617718
0.0018927666
0.00192271
0.0019515245
0.0019791438
0.0020055332
0.0020307117
0.0020547656
0.0020778606
0.0021002395
5.1903206e-05
0.00015987023
0.00027664268
0.00040241941
0.00053548797
0.00067031576
0.00079824751
0.00091276661
0.001012421
0.0010988439
0.0011745182
0.0012416883
0.0013021212
0.0013571837
0.0014079394
0.0014555114
0.0015005659
0.0015433427
0.0015841968
0.0016234268
0.0016612805
0.0016979435
0.0017335484
0.0017681916
0.0018019249
0.0018347585
0.0018666707
0.0018976093
0.0019275035
0.0019562761
0.0019838616
5.3806091e-05
0.00016467559
0.00028337167
0.00041039784
0.00054416724
0.00067932665
0.0008072791
0.00092162658
0.0010210017
0.0011071146
0.0011824669
0.0012493304
0.0013094787
0.0013642829
0.0014148061
0.0014618675
0.0015061067
0.0015480217
0.0015879906
0.0016263145
0.0016632442
0.0016994564
0.0017351713
0.0017700239
5.2400095e-05
5.6684743e-05
0.0001748992
0.00030326947
0.00044216102
0.00058996928
0.00074092028
0.00088534455
0.0010155107
0.0011293687
0.0012286163
0.0013160197
0.0013941168
0.0014648867
0.0015298513
0.0015901823
0.0016467791
0.0017003385
0.0017514023
0.0018003827
0.0018475983
0.0018933153
0.0019377364
0.0019809968
0.0020231939
0.0020643774
0.002104547
0.0021436713
0.0021816782
0.0022184748
0.0022539593
0.002288041
0.0023206635
0.00235183
0.0023816189
0.002410203
0.0024378493
0.0024649083
0.0024918142
0.0025190682
0.0025472207
0.0025768422
0.0026084837
0.0026426286
0.0026797191
0.0027204791
0.0027673144
0.0028300819
0.002907701
0.0029289619
0.0029318029
0.0029330806
0.0029341426
0.0029349907
0.0029355316
0.0029357242
0.0029355494
0.0029350539
0.0029342399
0.0029331964
0.0029319596
0.0029308723
0.0029299993
0.0029291401
0.0029279654
0.0029271613
0.0029262241
0.0029244747
0.0029215368
0.0029178585
0.0029142919
0.0029107911
0.0029074968
5.6821712e-05
0.00017510823
0.00030316236
0.00044134376
0.00058804629
0.00073753044
0.00088045862
0.0010096807
0.0011230396
0.0012218624
0.0013089054
0.0013866873
0.0014571782
0.0015218903
0.0015819871
0.001638363
0.0016917127
0.0017425747
0.0017913566
0.0018383778
0.001883904
0.0019281345
0.0019712072
0.0020132188
0.0020542171
0.0020942044
0.0021331487
0.0021709794
0.0022076051
0.0022429246
0.0022768474
0.002309318
0.0023403391
0.0023699891
0.0023984395
0.0024259543
0.0024528827
0.0024796553
0.0025067696
0.0025347727
0.0025642314
0.0025956928
0.0026296368
0.0026664998
0.0027069884
0.0027534221
0.0028155065
0.0028936784
0.0029158313
0.0029187472
0.0029200157
0.00292107
0.0029219174
0.0029224657
0.002922673
0.0029225218
0.0029220569
0.0029212824
0.002920285
0.0029191024
0.0029180747
0.0029172727
0.0029164952
0.0029154146
0.0029147141
0.0029139018
0.0029122929
0.0029095206
0.0029060102
0.002902614
0.0028992755
0.002896152
0.0028919748
0.0028875791
0.0028825068
0.0028779319
0.0028726321
0.0028674615
0.0028608303
0.0028547556
0.0028483275
0.0028429543
5.6963414e-05
0.00017539986
0.00030344152
0.00044146216
0.00058786493
0.00073693672
0.00087916622
0.0010070347
0.0011186533
0.0012161332
0.0013025108
0.0013799505
0.0014501294
0.0015145523
0.00157438
0.0016305017
0.0016836083
0.001734235
0.0017827884
0.0018295877
0.001874897
0.0019189156
0.0019617797
0.0020035858
0.0020443828
0.0020841735
0.0021229259
0.0021605697
0.0021970143
0.00223216
0.0022659169
0.002298229
0.0023290988
0.0023586037
0.0023869141
0.0024142918
0.0024410832
0.0024677161
0.0024946844
0.0025225321
0.002551823
0.0025831008
0.0026168415
0.002653476
0.0026936944
0.0027397363
0.0028011654
0.0028798147
0.0029028484
0.0029058356
0.0029070908
0.0029081332
0.0029089759
0.0029095279
0.0029097466
0.0029096156
0.0029091782
0.0029084405
0.0029074861
0.0029063551
0.0029053837
0.0029046501
0.0029039499
0.0029029607
0.0029023567
0.002901665
0.0029001889
0.0028975821
0.002894238
0.0028910219
0.0028878562
0.0028849236
0.0028809087
0.0028766749
0.002871727
0.0028672782
0.0028620961
0.0028570426
0.0028505365
0.0028445456
0.0028381727
0.0028328201
0.0028258728
0.0028196695
0.0028125368
0.0028059521
0.0027978769
0.002788457
5.6537975e-05
0.00017423464
0.00030165039
0.00043914387
0.00058509119
0.00073373597
0.0008755586
0.0010030579
0.0011146078
0.0012121755
0.0012982839
0.0013752196
0.001444935
0.0015089318
0.0015683641
0.0016241176
0.0016768785
0.0017271797
0.0017754241
0.0018219278
0.0018669545
0.0019107008
0.001953302
0.0019948548
0.0020354062
0.0020749593
0.0021134824
0.0021509062
0.0021871403
0.002222085
0.0022556504
0.002287781
0.002318478
0.0023478181
0.0023759701
0.0024031929
0.0024298304
0.0024563077
0.0024831153
0.0025107937
0.0025399034
0.0025709844
0.0026045098
0.0026409045
0.0026808428
0.0027264906
0.0027872784
0.0028663221
0.0028902098
0.0028932529
0.0028944794
0.0028954954
0.0028963194
0.0028968614
0.0028970782
0.002896955
0.0028965334
0.0028958211
0.0028948982
0.0028938078
0.0028928815
0.0028922068
0.0028915736
0.0028906683
0.0028901496
0.0028895697
0.002888211
0.002885759
0.0028825657
0.0028795251
0.0028765312
0.0028738009
0.0028699676
0.0028659177
0.0028611204
0.0028568105
0.0028517563
0.0028468073
0.002840423
0.002834511
0.0028281949
0.0028228658
0.0028158777
0.0028096912
0.0028025508
0.0027960276
0.0027880693
0.0027787837
0.0027685136
0.0027587687
0.0027498202
0.002739476
5.6754177e-05
0.00017473942
0.00030226814
0.00043970607
0.00058543908
0.00073373506
0.0008751104
0.001002124
0.0011129571
0.0012093954
0.001294212
0.0013699161
0.001438456
0.0015017396
0.0015609126
0.0016164592
0.001669023
0.0017191333
0.0017671901
0.0018135099
0.0018583556
0.0019019227
0.0019443464
0.0019857228
0.0020261001
0.0020654821
0.0021038372
0.0021410972
0.0021771723
0.0022119638
0.0022453817
0.0022773711
0.0023079326
0.0023371418
0.0023651662
0.0023922629
0.0024187732
0.0024451191
0.0024717887
0.0024993193
0.0025282684
0.0025591733
0.0025925033
0.0026286786
0.0026683587
0.0027136424
0.0027738347
0.0028532241
0.0028779584
0.0028810609
0.00288226
0.0028832481
0.0028840493
0.0028845751
0.0028847819
0.0028846565
0.0028842383
0.0028835372
0.0028826299
0.0028815628
0.0028806623
0.0028800275
0.0028794417
0.0028786039
0.0028781514
0.0028776661
0.0028764025
0.0028740877
0.0028710215
0.0028681409
0.002865309
0.0028627818
0.0028591421
0.002855293
0.0028506728
0.0028465177
0.0028416059
0.002836755
0.0028304853
0.0028246449
0.0028183818
0.0028130871
0.0028060446
0.0027998803
0.0027927274
0.0027862478
0.0027783989
0.0027692294
0.0027591366
0.0027494583
0.0027406265
0.0027303294
0.0027192087
0.0027078203
0.0026932832
5.643881e-05
0.00017385813
0.00030088142
0.00043786409
0.00058317081
0.00073103735
0.00087198094
0.00099858514
0.0011090578
0.0012051868
0.0012897381
0.0013652102
0.001433555
0.001496621
0.0015555063
0.0016107468
0.0016630222
0.0017128591
0.0017606545
0.001806723
0.0018513261
0.0018946573
0.0019368522
0.001978006
0.0020181654
0.0020573358
0.0020954854
0.002132546
0.002168429
0.0022030361
0.002236278
0.002268099
0.0022984991
0.0023275532
0.0023554272
0.0023823756
0.0024087373
0.0024349315
0.0024614431
0.0024888059
0.0025175745
0.0025482824
0.0025813957
0.0026173288
0.002656728
0.00270163
0.0027612226
0.0028408677
0.002866398
0.0028695299
0.0028706747
0.0028716101
0.0028723648
0.0028728515
0.0028730251
0.0028728742
0.0028724359
0.002871722
0.0028708045
0.0028697334
0.0028688289
0.0028682036
0.002867633
0.0028668326
0.0028664158
0.0028659986
0.0028648014
0.0028626001
0.002859635
0.0028568947
0.0028542089
0.0028518754
0.0028484325
0.0028447931
0.0028403709
0.0028363861
0.0028316318
0.0028268846
0.0028207213
0.0028149478
0.0028087245
0.002803479
0.0027963664
0.0027902356
0.0027830667
0.0027766152
0.0027688696
0.0027597951
0.002749907
0.0027402815
0.0027315669
0.0027212976
0.0027103328
0.0026991435
0.0026846004
0.0026731306
0.0026562888
5.6582813e-05
0.00017418354
0.00030125768
0.00043816237
0.00058326474
0.00073081113
0.0008713469
0.00099751102
0.0011075515
0.0012032776
0.0012874571
0.0013625882
0.0014306071
0.0014929976
0.0015509015
0.0016051939
0.0016565541
0.0017056215
0.001753012
0.0017989043
0.0018433351
0.0018864958
0.001928522
0.0019695102
0.0020095071
0.0020485176
0.0020865109
0.0021234203
0.0021591574
0.0021936243
0.0022267327
0.0022584267
0.0022887055
0.0023176434
0.0023454045
0.0023722409
0.00239849
0.0024245676
0.002450956
0.0024781861
0.0025068095
0.0025373573
0.0025702928
0.0026060261
0.0026451912
0.0026897701
0.0027488392
0.0028287491
0.0028551121
0.0028583217
0.0028594509
0.0028603622
0.0028610895
0.0028615474
0.0028616908
0.0028615109
0.0028610432
0.0028603027
0.0028593574
0.002858262
0.0028573308
0.0028566885
0.0028561027
0.0028553097
0.0028548992
0.0028545221
0.0028533646
0.0028512548
0.0028483691
0.0028457526
0.0028432001
0.0028410484
0.0028378009
0.0028343722
0.0028301624
0.0028263639
0.0028217844
0.0028171593
0.0028110911
0.002805392
0.0027991948
0.0027940148
0.0027868206
0.0027807372
0.0027735495
0.0027671177
0.0027594694
0.0027504701
0.0027408104
0.0027312217
0.0027226278
0.002712375
0.0027016045
0.0026905814
0.0026760141
0.0026647755
0.0026479966
0.0026378013
0.0026201851
5.6311592e-05
0.0001734343
0.00030010217
0.00043666092
0.00058145642
0.00072870369
0.00086894132
0.00099482601
0.0011046318
0.0012001701
0.0012841982
0.0013592018
0.001427111
0.0014894022
0.0015472111
0.00160141
0.0016526754
0.0017015314
0.0017483742
0.0017935176
0.0018372228
0.0018796832
0.0019210343
0.0019613721
0.0020007426
0.0020391515
0.0020767577
0.0021134773
0.0021490401
0.002183344
0.0022163003
0.002247853
0.002278
0.0023068142
0.0023344581
0.0023611811
0.0023873174
0.0024132796
0.0024395461
0.0024666445
0.002495123
0.0025255083
0.0025582601
0.0025937835
0.0026326985
0.0026769322
0.0027354522
0.0028155461
0.0028427005
0.0028459807
0.0028471032
0.0028480122
0.0028487447
0.0028492153
0.0028493767
0.0028492201
0.0028487781
0.0028480666
0.0028471488
0.0028460821
0.0028451738
0.0028445595
0.0028439999
0.0028432496
0.0028428773
0.0028425703
0.0028414843
0.0028394946
0.0028367183
0.0028342503
0.0028318552
0.0028299053
0.0028268829
0.0028236874
0.0028197243
0.0028161508
0.0028117829
0.002807323
0.0028013624
0.002795771
0.0027896032
0.0027845209
0.0027772656
0.0027712402
0.0027640452
0.0027576471
0.0027500954
0.0027411692
0.0027317618
0.0027222001
0.0027137428
0.0027035058
0.0026929714
0.0026820729
0.0026674985
0.0026565068
0.0026398057
0.0026298894
0.0026120078
0.0025973598
0.002583023
5.6374614e-05
0.00017355437
0.00030019579
0.00043664344
0.00058124185
0.00072820959
0.00086810556
0.00099363299
0.0011030987
0.0011983296
0.0012820817
0.0013568404
0.0014245298
0.0014866208
0.0015442456
0.0015982707
0.0016493695
0.0016980653
0.0017447534
0.001789745
0.0018332999
0.0018756101
0.0019168107
0.0019569972
0.0019962166
0.0020344734
0.0020717359
0.0021079366
0.0021429855
0.0021767832
0.0022092394
0.0022402963
0.0022699509
0.0022982761
0.0023254349
0.0023516783
0.0023773426
0.0024028431
0.0024286612
0.0024553262
0.0024835239
0.0025137633
0.002546361
0.0025817085
0.0026204137
0.0026643554
0.0027223976
0.0028026927
0.0028306722
0.0028340536
0.002835188
0.0028361027
0.0028368399
0.002837316
0.0028374829
0.0028373331
0.002836898
0.002836195
0.002835284
0.0028342246
0.0028333194
0.0028327124
0.0028321608
0.0028314321
0.0028310788
0.0028308218
0.0028297925
0.0028279027
0.0028252235
0.0028228856
0.0028206352
0.0028188675
0.0028160599
0.0028130818
0.0028093667
0.0028060287
0.0028018697
0.0027975942
0.0027917388
0.0027862743
0.0027801281
0.002775162
0.0027678685
0.0027618728
0.0027546756
0.0027483163
0.0027408483
0.0027319938
0.0027228388
0.0027132879
0.0027049812
0.0026947567
0.0026844856
0.0026736549
0.0026591169
0.0026483598
0.0026317505
0.0026220818
0.0026039395
0.0025897443
0.0025754703
0.00255573
5.6102863e-05
0.00017278445
0.00029896917
0.00043499528
0.00057919271
0.00072575784
0.00086525171
0.00099040102
0.0010995376
0.0011944905
0.0012780105
0.0013525717
0.0014200899
0.0014820289
0.0015395153
0.0015934135
0.0016443938
0.0016929754
0.001739553
0.0017844356
0.0018278814
0.0018700839
0.0019111764
0.0019512544
0.0019903652
0.0020285129
0.0020656671
0.0021017599
0.0021367032
0.002170398
0.0022027541
0.0022337143
0.002263275
0.002291508
0.0023185747
0.0023447245
0.0023702916
0.0023956887
0.0024213944
0.0024479356
0.0024758591
0.00250569
0.002537884
0.0025728408
0.0026111672
0.0026547409
0.0027124382
0.00279261
0.002820137
0.0028227776
0.0028239054
0.0028248103
0.0028255383
0.0028260067
0.0028261668
0.0028260116
0.0028255693
0.0028248585
0.0028239375
0.0028228671
0.0028219473
0.0028213294
0.0028207698
0.0028200423
0.0028196925
0.0028194633
0.0028184718
0.002816654
0.002814052
0.0028118147
0.0028096865
0.0028080695
0.0028054528
0.0028026627
0.0027991708
0.0027960585
0.0027920936
0.0027880246
0.0027822706
0.0027769475
0.0027708172
0.0027659736
0.0027586724
0.0027526832
0.0027454811
0.0027391513
0.0027317575
0.002722975
0.0027140588
0.0027045017
0.0026963602
0.0026861526
0.0026761531
0.0026653342
0.0026508948
0.002640341
0.0026238339
0.0026143797
0.0025959897
0.0025822631
0.0025680372
0.0025481876
0.0025353134
0.0025198433
5.6146448e-05
0.00017284167
0.00029894462
0.00043479558
0.00057872518
0.00072493752
0.00086401453
0.00098872771
0.0010974458
0.0011920155
0.0012751858
0.0013494289
0.0014166575
0.001478331
0.0015355722
0.0015892411
0.0016400054
0.0016883842
0.0017347702
0.0017794709
0.0018227419
0.0018647766
0.0019057078
0.0019456294
0.0019845893
0.0020225917
0.0020596057
0.0020955645
0.0021303792
0.0021639516
0.0021961917
0.0022270415
0.0022564973
0.0022846294
0.002311597
0.0023376478
0.0023631135
0.0023884042
0.0024139955
0.0024404112
0.0024681956
0.0024978706
0.0025298893
0.0025646467
0.0026027379
0.0026459946
0.0027031858
0.0027834262
0.0028115538
0.0028130317
0.0028130844
0.0028139037
0.002814619
0.0028150753
0.002815225
0.0028150617
0.0028146119
0.0028138941
0.0028129641
0.0028118821
0.0028109483
0.002810318
0.0028097501
0.0028090188
0.0028086712
0.0028084589
0.0028074998
0.0028057355
0.0028031986
0.0028010365
0.0027990116
0.0027975157
0.0027950644
0.0027924341
0.0027891319
0.0027862387
0.0027824537
0.0027786002
0.0027729462
0.0027677753
0.0027616654
0.0027569373
0.0027496672
0.0027436748
0.0027364656
0.0027301483
0.0027228233
0.0027141113
0.0027054138
0.0026958363
0.0026878766
0.0026776993
0.0026679611
0.0026571102
0.0026428376
0.0026324472
0.0026160453
0.0026067806
0.0025881629
0.002574909
0.0025607171
0.0025407853
0.0025284296
0.0025125559
0.0024887954
5.588489e-05
0.00017210022
0.00029776052
0.00043319941
0.00057673273
0.00072254115
0.00086120898
0.00098553289
0.0010939056
0.0011881761
0.0012710889
0.0013451067
0.0014121341
0.0014736241
0.0015306951
0.0015842044
0.0016348174
0.0016830506
0.0017292959
0.0017738588
0.0018169955
0.0018588987
0.0018997004
0.0019394959
0.0019783326
0.0020162147
0.0020531123
0.0020889587
0.0021236665
0.0021571375
0.0021892817
0.002220041
0.0022494116
0.0022774622
0.0023043507
0.0023303224
0.0023557061
0.0023809096
0.0024064052
0.0024327136
0.0024603755
0.0024899102
0.0025217679
0.0025563399
0.0025942126
0.0026371776
0.0026939002
0.0027741776
0.0028031071
0.0028047213
0.0028038882
0.0028035652
0.0028039956
0.0028044417
0.0028045823
0.0028044105
0.0028039532
0.0028032282
0.0028022918
0.0028012022
0.0028002605
0.0027996236
0.0027990548
0.002798321
0.0027979797
0.0027977824
0.0027968586
0.0027951372
0.0027926589
0.0027905513
0.002788614
0.0027872114
0.0027848998
0.0027824041
0.0027792653
0.002776573
0.0027729455
0.0027693105
0.0027637588
0.002758743
0.0027526717
0.0027480471
0.0027408449
0.0027348418
0.0027276325
0.002721307
0.0027140487
0.0027053996
0.0026969
0.002687292
0.0026795296
0.0026694003
0.0026598985
0.0026489902
0.0026349444
0.0026246774
0.002608375
0.0025992882
0.0025804658
0.0025676739
0.0025535065
0.0025335232
0.0025216679
0.002505361
0.0024816237
0.0024742542
5.5948418e-05
0.00017221131
0.00029781723
0.00043310221
0.00057638483
0.00072185343
0.00086011381
0.00098400958
0.0010919704
0.0011858614
0.0012684246
0.0013421218
0.0014088539
0.0014700702
0.0015268855
0.0015801535
0.0016305372
0.0016785522
0.0017245895
0.0017689528
0.0018118973
0.0018536156
0.0018942393
0.0019338623
0.0019725331
0.0020102558
0.0020470015
0.0020827036
0.0021172743
0.0021506166
0.0021826411
0.0022132893
0.0022425561
0.0022705089
0.0022973039
0.0023231842
0.0023484759
0.0023735837
0.0023989766
0.0024251726
0.0024527091
0.0024821023
0.0025137996
0.002548188
0.0025858446
0.0026285227
0.0026847883
0.0027650546
0.0027947484
0.0027964874
0.0027956892
0.0027947584
0.0027940766
0.0027940202
0.0027941531
0.0027939788
0.0027935215
0.0027927987
0.0027918674
0.0027907803
0.0027898427
0.002789211
0.002788653
0.0027879235
0.0027875959
0.0027874158
0.0027865331
0.002784849
0.0027824274
0.0027803579
0.0027784922
0.0027771553
0.0027749578
0.0027725703
0.0027695697
0.0027670479
0.0027635651
0.002760144
0.0027546998
0.0027498362
0.0027438334
0.0027392964
0.0027321962
0.0027261751
0.002718983
0.0027126246
0.0027054355
0.0026968323
0.0026885151
0.0026788719
0.0026713172
0.0026612528
0.0026519542
0.0026409841
0.0026272074
0.0026170295
0.002600813
0.0025919069
0.0025729033
0.0025605481
0.0025464028
0.0025263986
0.0025150227
0.002498265
0.0024746206
0.0024684
0.0024541067
5.5681663e-05
0.00017146297
0.00029663372
0.00043152198
0.0005744298
0.00071951872
0.00085739491
0.00098092522
0.0010885611
0.0011821709
0.0012644931
0.0013379796
0.001404524
0.0014655682
0.0015222225
0.0015753382
0.0016255757
0.0016734475
0.0017193443
0.0017635698
0.001806378
0.0018479611
0.0018884513
0.001927943
0.001966484
0.0020040794
0.0020407008
0.0020762825
0.0021107382
0.0021439706
0.0021758907
0.0022064406
0.002235615
0.0022634802
0.0022901908
0.0023159879
0.0023411955
0.0023662158
0.0023915152
0.0024176083
0.0024450298
0.0024742937
0.0025058439
0.002540064
0.0025775217
0.0026199358
0.0026757777
0.0027560142
0.0027864534
0.0027883236
0.0027875676
0.0027866707
0.0027856923
0.0027845533
0.0027839401
0.0027837527
0.0027832983
0.0027825842
0.0027816648
0.0027805908
0.0027796705
0.0027790547
0.0027785187
0.0027778032
0.0027775007
0.0027773445
0.0027765105
0.0027748623
0.002772497
0.0027704514
0.0027686423
0.002767345
0.002765235
0.0027629315
0.0027600451
0.0027576695
0.0027543189
0.0027510963
0.0027457637
0.0027410451
0.0027351446
0.0027306792
0.002723713
0.0027176645
0.0027105163
0.0027040965
0.0026969844
0.002688402
0.0026802605
0.0026705822
0.0026632367
0.0026532487
0.0026441204
0.0026331008
0.0026196179
0.0026095003
0.0025933523
0.0025846406
0.0025654793
0.0025535234
0.0025394049
0.0025194073
0.0025084877
0.0024912749
0.0024677803
0.0024626381
0.0024480008
0.0024201833
5.5786739e-05
0.00017168601
0.00029685947
0.00043164071
0.0005743341
0.00071911282
0.00085660542
0.00097972589
0.0010869643
0.0011802067
0.0012621909
0.0013353664
0.0014016225
0.0014623986
0.001518801
0.0015716772
0.0016216865
0.0016693411
0.001715029
0.0017590524
0.0018016644
0.0018430574
0.0018833628
0.0019226742
0.001961041
0.0019984673
0.0020349257
0.0020703505
0.002104656
0.0021377464
0.0021695325
0.0021999562
0.0022290128
0.0022567673
0.0022833727
0.0023090695
0.0023341786
0.0023590994
0.0023842957
0.002410279
0.0024375803
0.0024667099
0.0024981084
0.002532155
0.0025694094
0.0026115589
0.0026669867
0.0027471579
0.0027783021
0.0027802938
0.0027795748
0.0027787047
0.0027777485
0.0027766304
0.0027753197
0.0027740856
0.0027732772
0.0027725778
0.0027716788
0.0027706282
0.0027697329
0.0027691411
0.0027686381
0.0027679469
0.002767681
0.0027675558
0.002766777
0.002765163
0.002762854
0.0027608221
0.0027590579
0.0027577807
0.0027557386
0.0027534938
0.0027506984
0.0027484461
0.002745213
0.0027421663
0.0027369478
0.0027323675
0.0027265966
0.0027221898
0.0027153867
0.0027093006
0.0027022276
0.0026957166
0.002688696
0.0026801032
0.0026721391
0.0026624294
0.0026552845
0.0026453773
0.002636394
0.0026253457
0.0026121683
0.002602085
0.0025859892
0.0025774902
0.0025581952
0.0025465957
0.0025325132
0.0025125443
0.0025020552
0.0024843986
0.0024610978
0.0024569634
0.0024419683
0.0024133915
0.002393891
5.5507612e-05
0.00017090966
0.00029564194
0.00043002969
0.00057235859
0.00071677086
0.00085389208
0.00097665794
0.0010835828
0.0011765557
0.0012583091
0.001331283
0.0013973608
0.001457973
0.001514223
0.0015669554
0.0016168257
0.001664344
0.0017098992
0.0017537914
0.0017962727
0.0018375365
0.0018777135
0.0019168979
0.0019551395
0.0019924431
0.0020287814
0.00206409
0.0020982845
0.0021312687
0.002162955
0.0021932858
0.0022222556
0.0022499291
0.0022764584
0.0023020814
0.0023271173
0.0023519633
0.0023770794
0.0024029738
0.0024301746
0.0024591884
0.0024904522
0.0025243409
0.002561406
0.0026033059
0.00265834
0.0027384199
0.0027702253
0.0027723227
0.0027716317
0.0027707891
0.0027698652
0.0027687787
0.0027674954
0.0027660019
0.0027643262
0.0027629303
0.0027619318
0.0027609043
0.0027600349
0.002759474
0.0027590126
0.002758353
0.0027581307
0.0027580402
0.0027573196
0.0027557373
0.0027534842
0.0027514602
0.0027497351
0.0027484658
0.0027464737
0.0027442674
0.0027415461
0.00273939
0.0027362555
0.0027333574
0.0027282499
0.0027238075
0.0027181819
0.0027138271
0.0027072116
0.0027010762
0.0026941115
0.0026874801
0.0026805713
0.0026719355
0.0026641559
0.002654419
0.002647458
0.0026376316
0.0026287777
0.0026177208
0.0026048531
0.0025947798
0.002578726
0.002570455
0.0025510521
0.002539765
0.00252573
0.0025058064
0.0024957146
0.0024776474
0.0024545708
0.002451372
0.0024360035
0.0024067091
0.0023876548
0.0023963773
5.5631927e-05
0.000171187
0.0002959539
0.00043026244
0.00057240225
0.00071652497
0.00085327909
0.00097564752
0.0010821834
0.0011747953
0.0012562148
0.001328882
0.0013946757
0.0014550239
0.0015110261
0.0015635237
0.0016131696
0.0016604732
0.001705822
0.0017495153
0.001791804
0.0018328809
0.0018728762
0.0019118836
0.0019499537
0.0019870908
0.0020232687
0.0020584234
0.00209247
0.0021253137
0.0021568673
0.0021870728
0.0022159248
0.0022434868
0.0022699094
0.0022954292
0.0023203628
0.0023451041
0.0023701105
0.0023958873
0.0024229585
0.0024518286
0.0024829323
0.0025166419
0.0025535034
0.0025951503
0.0026498054
0.0027297802
0.0027622208
0.0027644378
0.0027637951
0.0027629925
0.002762098
0.002761026
0.0027597441
0.0027582402
0.002756554
0.0027546778
0.0027528337
0.0027514345
0.0027505996
0.0027500734
0.0027496534
0.0027490249
0.0027488447
0.0027487868
0.0027481215
0.0027465661
0.0027443653
0.0027423448
0.0027406541
0.0027393933
0.0027374392
0.002735259
0.0027325958
0.0027305082
0.0027274506
0.0027246725
0.0027196678
0.0027153728
0.0027098916
0.0027055868
0.0026991794
0.0026929803
0.0026861584
0.0026793781
0.0026726066
0.0026638966
0.002656309
0.0026465482
0.0026397512
0.0026300053
0.0026212712
0.0026102213
0.0025976631
0.002587577
0.0025715638
0.0025635276
0.0025440452
0.0025330299
0.0025190533
0.0024991886
0.0024894469
0.0024710291
0.002448195
0.0024458562
0.0024300916
0.0024001144
0.0023815401
0.0023913035
0.0023920594
5.5454114e-05
0.00017068352
0.0002951452
0.0004291606
0.0005710047
0.00071480281
0.00085120425
0.00097322151
0.0010794353
0.001171762
0.0012529319
0.0013253763
0.0013909688
0.0014511324
0.0015069609
0.0015592938
0.0016087825
0.0016559332
0.001701133
0.0017446795
0.0017868235
0.0018277581
0.0018676124
0.0019064813
0.0019444143
0.0019814163
0.0020174623
0.0020524881
0.0020864102
0.0021191344
0.0021505733
0.0021806694
0.0022094174
0.0022368802
0.002263207
0.0022886329
0.002313472
0.0023381166
0.0023630212
0.0023886882
0.0024156396
0.0024443778
0.0024753365
0.0025088869
0.0025455696
0.0025869955
0.0026413144
0.0027211911
0.0027542367
0.002756566
0.002755954
0.0027551611
0.0027542638
0.0027531879
0.0027519143
0.0027504384
0.0027487972
0.00274696
0.0027449707
0.0027428272
0.0027414731
0.0027409742
0.0027405868
0.0027399823
0.0027398362
0.0027398041
0.0027391841
0.0027376473
0.0027354916
0.0027334717
0.0027318156
0.0027305654
0.0027286422
0.0027264809
0.0027238585
0.0027218134
0.0027188047
0.0027161157
0.0027111956
0.002707026
0.0027017234
0.0026974697
0.0026912897
0.0026850072
0.0026783652
0.002671407
0.0026648027
0.0026559911
0.0026485999
0.002638817
0.0026321662
0.0026225033
0.0026138753
0.0026028484
0.0025905925
0.0025804751
0.0025645111
0.0025567039
0.0025371728
0.0025263933
0.0025124854
0.0024926903
0.0024832768
0.0024645997
0.0024419707
0.002440413
0.0024246204
0.0023939794
0.0023755493
0.0023863323
0.0023875244
0.0023562812
5.554864e-05
0.00017088347
0.00029534428
0.00042925755
0.00057089815
0.00071439805
0.00085042533
0.00097203868
0.001077858
0.0011698184
0.0012506502
0.0013227841
0.0013880896
0.0014479853
0.0015035628
0.0015556582
0.0016049199
0.001651854
0.001696846
0.0017401924
0.0017821426
0.0018228888
0.0018625606
0.0019012515
0.0019390123
0.0019758477
0.0020117325
0.0020466036
0.0020803774
0.0021129598
0.0021442646
0.0021742343
0.0022028633
0.0022302138
0.0022564334
0.0022817558
0.0023064935
0.0023310355
0.0023558339
0.0023813886
0.0024082194
0.0024368271
0.0024676437
0.0025010388
0.0025375481
0.0025787603
0.0026327578
0.0027125193
0.0027461128
0.0027485385
0.002747956
0.0027471842
0.0027463075
0.0027452576
0.0027440194
0.0027425863
0.0027409792
0.0027391479
0.0027371368
0.0027349653
0.0027331349
0.0027322026
0.0027318333
0.0027312457
0.0027311224
0.0027311053
0.0027305158
0.0027289878
0.0027268653
0.0027248429
0.0027232176
0.0027219775
0.0027200806
0.0027179343
0.0027153347
0.0027133065
0.0027103092
0.0027076737
0.0027028359
0.0026987485
0.0026936649
0.0026894597
0.0026835382
0.0026771461
0.002670727
0.0026635581
0.0026571556
0.0026482178
0.0026410253
0.0026312209
0.0026247016
0.002615132
0.0026065765
0.0025956031
0.0025836271
0.0025734711
0.0025575722
0.0025499758
0.002530428
0.0025198533
0.002506024
0.0024863035
0.0024774931
0.002458631
0.0024358941
0.0024350362
0.0024192659
0.0023880135
0.0023696818
0.0023814592
0.0023830602
0.0023508752
0.0023175156
5.5319687e-05
0.00017024457
0.00029433622
0.00042791292
0.00056923091
0.00071238963
0.00084805193
0.00096930179
0.0010747903
0.0011664578
0.001247032
0.0013189378
0.0013840368
0.0014437411
0.0014991397
0.0015510644
0.0016001626
0.0016469378
0.0016917739
0.0017349672
0.0017767663
0.0018173635
0.001856888
0.0018954336
0.0019330504
0.0019697441
0.00200549
0.0020402246
0.002073866
0.0021063211
0.0021375033
0.0021673562
0.002195874
0.0022231187
0.0022492381
0.0022744649
0.0022991105
0.002323563
0.0023482725
0.0023737366
0.0024004718
0.0024289755
0.0024596758
0.0024929374
0.0025292884
0.0025702972
0.0026239883
0.002703625
0.0027377172
0.0027402403
0.002739709
0.0027389862
0.0027381524
0.0027371381
0.0027359321
0.0027345325
0.0027329578
0.0027311558
0.0027291674
0.0027270198
0.0027251143
0.0027239458
0.0027234372
0.0027228496
0.0027227291
0.0027227113
0.0027221321
0.0027206004
0.0027184923
0.0027164649
0.0027148544
0.0027136253
0.0027117453
0.0027096118
0.0027070109
0.0027049781
0.0027019605
0.0026993482
0.0026945802
0.0026905662
0.0026857155
0.0026815406
0.0026759197
0.0026693873
0.002663243
0.0026558247
0.002649665
0.0026405763
0.0026335858
0.0026237615
0.0026173532
0.0026079041
0.0025993575
0.0025884957
0.0025767486
0.0025665676
0.0025507533
0.0025433367
0.0025238059
0.0025134104
0.0024996674
0.0024800204
0.002471778
0.0024528089
0.0024299625
0.0024297216
0.0024139707
0.0023821509
0.0023639394
0.0023766809
0.0023786652
0.0023455446
0.0023110336
0.002290195
5.5380788e-05
0.00017037164
0.00029446116
0.00042796802
0.00056914333
0.00071208077
0.00084745422
0.00096838873
0.0010735676
0.001164949
0.0012452619
0.0013169265
0.0013818011
0.0014412951
0.0014964923
0.0015482234
0.0015971331
0.0016437235
0.0016883787
0.0017313928
0.0017730144
0.0018134352
0.001852784
0.0018911549
0.0019285994
0.0019651218
0.0020006986
0.0020352681
0.0020687475
0.0021010445
0.0021320739
0.0021617791
0.0021901551
0.0022172634
0.0022432515
0.0022683514
0.002292873
0.0023172029
0.0023417896
0.0023671286
0.0023937338
0.0024221002
0.002452653