/*--------------------------------*- C++ -*----------------------------------*\
| =========                 |                                                 |
| \\      /  F ield         | OpenFOAM: The Open Source CFD Toolbox           |
|  \\    /   O peration     | Version:  2506                                  |
|   \\  /    A nd           | Website:  www.openfoam.com                      |
|    \\/     M anipulation  |                                                 |
\*---------------------------------------------------------------------------*/
FoamFile
{
    version     2.0;
    format      ascii;
    arch        "LSB;label=32;scalar=64";
    class       volScalarField;
    location    "0.035";
    object      p;
}
// * * * * * * * * * * * * * * * * * * * * * * * * * * * * * * * * * * * * * //

dimensions      [1 -1 -2 0 0 0 0];

internalField   nonuniform List<scalar> 
13761
(
39621.211
39621.207
39621.205
39621.204
39621.208
39621.217
39621.235
39621.262
39621.299
39621.347
39621.407
39621.479
39621.564
39582.76
39582.756
39582.754
39582.755
39582.758
39582.768
39582.785
39582.811
39582.846
39582.891
39582.947
39583.014
39583.094
39583.188
39583.296
39583.42
39583.561
39583.722
39583.905
39584.111
39584.343
39584.605
39584.899
39585.229
39585.599
39586.014
39546.818
39546.816
39546.814
39546.815
39546.818
39546.827
39546.843
39546.867
39546.9
39546.941
39546.993
39547.054
39547.128
39547.213
39547.312
39547.426
39547.556
39547.704
39547.872
39548.063
39548.278
39548.521
39548.795
39549.103
39549.449
39549.839
39550.278
39550.771
39551.324
39551.947
39552.646
39553.431
39513.277
39513.274
39513.273
39513.274
39513.277
39513.286
39513.3
39513.322
39513.351
39513.389
39513.435
39513.491
39513.557
39513.634
39513.723
39513.826
39513.944
39514.078
39514.231
39514.404
39514.601
39514.823
39515.074
39515.358
39515.678
39516.04
39516.448
39516.907
39517.425
39518.008
39518.666
39519.406
39520.24
39521.179
39522.238
39523.432
49699.756
49699.757
49699.757
49699.758
49699.759
49699.761
49699.763
49699.766
49699.77
49699.776
49699.783
49699.792
49699.802
49699.815
49699.83
49699.847
49699.868
49699.891
49699.918
49699.949
49699.984
49700.024
49700.069
49700.121
49700.179
49700.244
49700.318
49700.401
49700.494
49700.599
49700.717
49700.849
49700.996
49701.16
49701.344
49701.549
49701.776
49702.027
49702.298
49702.579
49702.866
49703.164
49703.479
49703.813
49704.167
49704.541
49704.935
49705.349
49705.781
49706.233
49706.701
49707.184
49685.375
49685.376
49685.376
49685.377
49685.379
49685.381
49685.383
49685.387
49685.392
49685.398
49685.407
49685.417
49685.429
49685.444
49685.461
49685.481
49685.505
49685.532
49685.563
49685.598
49685.638
49685.684
49685.736
49685.794
49685.859
49685.933
49686.016
49686.109
49686.213
49686.33
49686.461
49686.607
49686.77
49686.951
49687.153
49687.378
49687.627
49687.902
49688.199
49688.511
49688.83
49689.162
49689.513
49689.885
49690.279
49690.696
49691.135
49691.597
49692.08
49692.585
49693.109
49693.651
49694.207
49694.776
49695.351
49695.929
49696.501
49697.06
49697.596
49698.096
49698.546
49698.929
49671.011
49671.012
49671.013
49671.015
49671.016
49671.018
49671.021
49671.026
49671.031
49671.039
49671.048
49671.06
49671.074
49671.09
49671.11
49671.133
49671.16
49671.19
49671.225
49671.265
49671.311
49671.362
49671.419
49671.484
49671.557
49671.639
49671.731
49671.834
49671.948
49672.077
49672.22
49672.379
49672.557
49672.754
49672.973
49673.217
49673.486
49673.782
49674.105
49674.444
49674.794
49675.158
49675.542
49675.949
49676.381
49676.837
49677.318
49677.823
49678.353
49678.905
49679.48
49680.075
49680.688
49681.314
49681.951
49682.592
49683.23
49683.859
49684.467
49685.042
49685.572
49686.038
49686.421
49686.697
49686.838
49686.811
49686.577
49656.756
49656.757
49656.758
49656.76
49656.761
49656.764
49656.768
49656.772
49656.779
49656.787
49656.798
49656.811
49656.826
49656.845
49656.867
49656.893
49656.923
49656.957
49656.996
49657.04
49657.09
49657.146
49657.21
49657.281
49657.362
49657.451
49657.552
49657.664
49657.789
49657.928
49658.083
49658.255
49658.447
49658.659
49658.894
49659.154
49659.441
49659.758
49660.102
49660.467
49660.845
49661.237
49661.65
49662.088
49662.551
49663.041
49663.557
49664.099
49664.667
49665.261
49665.877
49666.516
49667.175
49667.85
49668.537
49669.231
49669.925
49670.612
49671.282
49671.924
49672.524
49673.065
49673.527
49673.889
49674.122
49674.193
49674.067
49673.698
49673.035
49672.018
49670.578
49642.816
49642.818
49642.819
49642.821
49642.823
49642.826
49642.83
49642.835
49642.842
49642.851
49642.863
49642.878
49642.895
49642.916
49642.94
49642.968
49643.001
49643.038
49643.081
49643.129
49643.183
49643.244
49643.313
49643.39
49643.475
49643.571
49643.678
49643.797
49643.929
49644.076
49644.239
49644.419
49644.619
49644.84
49645.085
49645.354
49645.651
49645.978
49646.335
49646.715
49647.109
49647.519
49647.95
49648.407
49648.891
49649.403
49649.941
49650.508
49651.101
49651.721
49652.365
49653.034
49653.724
49654.432
49655.154
49655.886
49656.622
49657.354
49658.072
49658.767
49659.425
49660.029
49660.561
49660.998
49661.314
49661.477
49661.451
49661.192
49660.65
49659.767
49658.475
49656.696
49654.34
49651.307
49629.134
49629.135
49629.137
49629.138
49629.141
49629.144
49629.148
49629.154
49629.161
49629.171
49629.184
49629.2
49629.219
49629.241
49629.268
49629.298
49629.334
49629.374
49629.42
49629.472
49629.531
49629.597
49629.671
49629.754
49629.846
49629.949
49630.063
49630.19
49630.331
49630.488
49630.661
49630.852
49631.063
49631.296
49631.552
49631.835
49632.145
49632.484
49632.854
49633.249
49633.658
49634.082
49634.525
49634.992
49635.485
49636.004
49636.55
49637.122
49637.722
49638.348
49639.001
49639.678
49640.379
49641.1
49641.838
49642.589
49643.348
49644.107
49644.858
49645.591
49646.292
49646.946
49647.536
49648.038
49648.427
49648.673
49648.739
49648.584
49648.157
49647.402
49646.253
49644.632
49642.453
49639.616
49636.007
49631.498
49625.949
49617.212
49617.213
49617.214
49617.216
49617.218
49617.22
49617.224
49617.228
49617.234
49617.242
49617.251
49617.263
49617.277
49617.293
49617.313
49617.335
49617.362
49617.392
49617.426
49617.465
49617.508
49617.558
49617.613
49617.676
49617.746
49617.824
49617.911
49618.009
49618.117
49618.239
49618.374
49618.525
49618.692
49618.879
49619.086
49619.317
49619.573
49619.857
49620.17
49620.51
49620.866
49621.238
49621.631
49622.05
49622.499
49622.976
49623.484
49624.021
49624.59
49625.188
49625.817
49626.474
49627.159
49627.868
49628.6
49629.35
49630.112
49630.881
49631.648
49632.403
49633.133
49633.825
49634.46
49635.016
49635.469
49635.788
49635.939
49635.879
49635.561
49634.929
49633.917
49632.45
49630.444
49627.798
49624.403
49620.132
49614.847
49608.391
49600.596
49605.116
49605.117
49605.118
49605.12
49605.122
49605.124
49605.127
49605.131
49605.136
49605.142
49605.149
49605.159
49605.17
49605.183
49605.198
49605.216
49605.237
49605.261
49605.288
49605.319
49605.354
49605.394
49605.439
49605.49
49605.547
49605.611
49605.683
49605.764
49605.854
49605.956
49606.069
49606.196
49606.339
49606.498
49606.676
49606.875
49607.097
49607.344
49607.619
49607.919
49608.235
49608.563
49608.911
49609.284
49609.685
49610.115
49610.576
49611.069
49611.594
49612.151
49612.742
49613.365
49614.019
49614.702
49615.413
49616.147
49616.899
49617.665
49618.434
49619.2
49619.948
49620.666
49621.336
49621.936
49622.443
49622.827
49623.054
49623.083
49622.867
49622.351
49621.471
49620.153
49618.314
49615.856
49612.67
49608.634
49603.608
49597.44
49589.963
49580.993
49570.337
49592.313
49592.314
49592.316
49592.317
49592.319
49592.322
49592.325
49592.329
49592.333
49592.339
49592.347
49592.356
49592.367
49592.379
49592.394
49592.412
49592.432
49592.455
49592.481
49592.512
49592.546
49592.585
49592.629
49592.678
49592.734
49592.796
49592.866
49592.944
49593.032
49593.13
49593.24
49593.363
49593.501
49593.655
49593.827
49594.019
49594.234
49594.473
49594.738
49595.028
49595.335
49595.652
49595.985
49596.341
49596.723
49597.132
49597.571
49598.039
49598.539
49599.07
49599.635
49600.232
49600.861
49601.522
49602.213
49602.931
49603.671
49604.429
49605.197
49605.966
49606.726
49607.463
49608.161
49608.798
49609.352
49609.794
49610.09
49610.201
49610.08
49609.674
49608.92
49607.746
49606.068
49603.793
49600.812
49597.004
49592.234
49586.35
49579.186
49570.562
49560.285
49548.148
49579.235
49579.236
49579.238
49579.239
49579.241
49579.244
49579.247
49579.251
49579.256
49579.262
49579.27
49579.279
49579.289
49579.302
49579.317
49579.334
49579.354
49579.377
49579.403
49579.433
49579.466
49579.505
49579.548
49579.596
49579.651
49579.712
49579.781
49579.858
49579.944
49580.04
49580.148
49580.268
49580.402
49580.553
49580.72
49580.908
49581.117
49581.35
49581.609
49581.893
49582.195
49582.507
49582.834
49583.183
49583.558
49583.959
49584.389
49584.848
49585.337
49585.858
49586.411
49586.996
49587.614
49588.263
49588.943
49589.652
49590.385
49591.139
49591.907
49592.681
49593.452
49594.206
49594.927
49595.598
49596.194
49596.688
49597.048
49597.235
49597.204
49596.902
49596.268
49595.231
49593.711
49591.613
49588.832
49585.248
49580.729
49575.123
49568.269
49559.986
49550.084
49538.357
49524.593
49508.576
49565.934
49565.936
49565.938
49565.939
49565.942
49565.944
49565.948
49565.952
49565.957
49565.963
49565.97
49565.979
49565.99
49566.003
49566.018
49566.035
49566.055
49566.078
49566.104
49566.134
49566.167
49566.206
49566.249
49566.297
49566.352
49566.413
49566.481
49566.558
49566.644
49566.74
49566.847
49566.966
49567.1
49567.249
49567.415
49567.601
49567.808
49568.038
49568.295
49568.577
49568.877
49569.189
49569.513
49569.859
49570.23
49570.628
49571.054
49571.509
49571.994
49572.511
49573.06
49573.641
49574.255
49574.901
49575.578
49576.284
49577.017
49577.773
49578.545
49579.327
49580.11
49580.881
49581.627
49582.328
49582.964
49583.507
49583.927
49584.185
49584.239
49584.037
49583.518
49582.615
49581.246
49579.32
49576.734
49573.37
49569.096
49563.765
49557.215
49549.269
49539.737
49528.416
49515.093
49499.552
49481.574
49552.471
49552.473
49552.475
49552.477
49552.479
49552.482
49552.485
49552.489
49552.494
49552.501
49552.508
49552.517
49552.528
49552.541
49552.556
49552.573
49552.593
49552.616
49552.643
49552.672
49552.706
49552.744
49552.788
49552.836
49552.891
49552.952
49553.02
49553.097
49553.183
49553.279
49553.386
49553.506
49553.639
49553.788
49553.954
49554.139
49554.345
49554.575
49554.83
49555.112
49555.413
49555.726
49556.051
49556.397
49556.768
49557.165
49557.59
49558.044
49558.529
49559.045
49559.593
49560.174
49560.788
49561.435
49562.114
49562.823
49563.56
49564.321
49565.101
49565.894
49566.692
49567.482
49568.252
49568.985
49569.659
49570.249
49570.726
49571.054
49571.189
49571.082
49570.674
49569.899
49568.676
49566.918
49564.522
49561.373
49557.34
49552.278
49546.028
49538.414
49529.248
49518.328
49505.442
49490.373
49472.903
49452.817
49538.872
49538.874
49538.876
49538.878
49538.88
49538.883
49538.886
49538.89
49538.896
49538.902
49538.91
49538.919
49538.93
49538.943
49538.958
49538.976
49538.996
49539.019
49539.045
49539.075
49539.109
49539.148
49539.191
49539.24
49539.294
49539.356
49539.425
49539.501
49539.588
49539.684
49539.791
49539.911
49540.044
49540.193
49540.359
49540.544
49540.751
49540.98
49541.235
49541.517
49541.821
49542.136
49542.464
49542.811
49543.183
49543.582
49544.009
49544.465
49544.951
49545.469
49546.019
49546.603
49547.22
49547.87
49548.553
49549.268
49550.012
49550.782
49551.573
49552.379
49553.194
49554.005
49554.801
49555.564
49556.277
49556.914
49557.447
49557.84
49558.054
49558.039
49557.738
49557.086
49556.007
49554.412
49552.201
49549.261
49545.464
49540.667
49534.712
49527.425
49518.621
49508.097
49495.644
49481.044
49464.078
49444.529
49422.191
49396.877
49525.155
49525.157
49525.159
49525.161
49525.163
49525.166
49525.17
49525.174
49525.179
49525.186
49525.194
49525.203
49525.215
49525.228
49525.243
49525.261
49525.281
49525.304
49525.331
49525.361
49525.395
49525.433
49525.477
49525.526
49525.581
49525.642
49525.711
49525.789
49525.875
49525.972
49526.079
49526.199
49526.333
49526.483
49526.649
49526.834
49527.041
49527.27
49527.526
49527.808
49528.114
49528.433
49528.763
49529.113
49529.488
49529.889
49530.318
49530.777
49531.267
49531.789
49532.343
49532.932
49533.554
49534.21
49534.9
49535.622
49536.375
49537.156
49537.96
49538.782
49539.614
49540.448
49541.27
49542.066
49542.817
49543.5
49544.088
49544.546
49544.835
49544.909
49544.713
49544.181
49543.24
49541.803
49539.773
49537.038
49533.472
49528.934
49523.269
49516.305
49507.857
49497.725
49485.7
49471.565
49455.099
49436.085
49414.314
49389.593
49361.757
49511.335
49511.337
49511.338
49511.34
49511.343
49511.346
49511.349
49511.354
49511.359
49511.366
49511.374
49511.384
49511.395
49511.408
49511.424
49511.441
49511.462
49511.485
49511.512
49511.542
49511.576
49511.615
49511.659
49511.708
49511.763
49511.825
49511.895
49511.972
49512.059
49512.156
49512.264
49512.384
49512.519
49512.668
49512.835
49513.021
49513.228
49513.458
49513.713
49513.997
49514.305
49514.627
49514.961
49515.314
49515.691
49516.096
49516.529
49516.992
49517.486
49518.012
49518.572
49519.166
49519.794
49520.458
49521.156
49521.888
49522.652
49523.445
49524.263
49525.103
49525.955
49526.812
49527.662
49528.491
49529.28
49530.009
49530.65
49531.171
49531.535
49531.696
49531.6
49531.185
49530.379
49529.096
49527.242
49524.707
49521.367
49517.084
49511.704
49505.058
49496.961
49487.216
49475.615
49461.94
49445.971
49427.489
49406.281
49382.153
49354.933
49324.482
49497.421
49497.423
49497.424
49497.427
49497.429
49497.432
49497.436
49497.44
49497.446
49497.452
49497.461
49497.47
49497.482
49497.495
49497.511
49497.529
49497.549
49497.573
49497.6
49497.63
49497.665
49497.704
49497.748
49497.797
49497.853
49497.915
49497.984
49498.062
49498.149
49498.247
49498.355
49498.476
49498.611
49498.761
49498.928
49499.114
49499.322
49499.552
49499.809
49500.093
49500.403
49500.729
49501.067
49501.422
49501.803
49502.211
49502.648
49503.115
49503.614
49504.146
49504.711
49505.312
49505.948
49506.62
49507.327
49508.069
49508.845
49509.652
49510.486
49511.344
49512.217
49513.098
49513.977
49514.838
49515.667
49516.441
49517.135
49517.719
49518.155
49518.401
49518.403
49518.102
49517.426
49516.294
49514.612
49512.273
49509.154
49505.121
49500.02
49493.686
49485.935
49476.572
49465.39
49452.171
49436.695
49418.741
49398.095
49374.558
49347.954
49318.137
49285.002
49483.422
49483.424
49483.426
49483.428
49483.431
49483.434
49483.437
49483.442
49483.448
49483.454
49483.463
49483.473
49483.484
49483.498
49483.513
49483.532
49483.552
49483.576
49483.603
49483.634
49483.669
49483.708
49483.752
49483.802
49483.857
49483.92
49483.99
49484.068
49484.156
49484.253
49484.362
49484.483
49484.619
49484.769
49484.937
49485.124
49485.331
49485.562
49485.819
49486.104
49486.416
49486.746
49487.088
49487.447
49487.831
49488.243
49488.684
49489.156
49489.66
49490.197
49490.769
49491.376
49492.02
49492.701
49493.418
49494.172
49494.96
49495.781
49496.632
49497.508
49498.403
49499.309
49500.216
49501.112
49501.979
49502.798
49503.545
49504.19
49504.697
49505.025
49505.124
49504.933
49504.386
49503.4
49501.886
49499.738
49496.836
49493.047
49488.221
49482.193
49474.783
49465.798
49455.029
49442.262
49427.274
49409.845
49389.757
49366.809
49340.82
49311.638
49279.151
49469.347
49469.349
49469.351
49469.353
49469.355
49469.358
49469.362
49469.367
49469.373
49469.38
49469.388
49469.398
49469.41
49469.423
49469.439
49469.457
49469.478
49469.502
49469.53
49469.561
49469.595
49469.635
49469.679
49469.729
49469.785
49469.848
49469.918
49469.997
49470.085
49470.183
49470.292
49470.414
49470.549
49470.7
49470.869
49471.056
49471.264
49471.496
49471.753
49472.039
49472.353
49472.686
49473.032
49473.395
49473.783
49474.198
49474.644
49475.12
49475.629
49476.172
49476.751
49477.365
49478.017
49478.707
49479.434
49480.199
49481.001
49481.837
49482.704
49483.6
49484.517
49485.448
49486.384
49487.313
49488.219
49489.083
49489.881
49490.587
49491.164
49491.573
49491.765
49491.683
49491.26
49490.418
49489.068
49487.106
49484.416
49480.866
49476.31
49470.584
49463.509
49454.895
49444.535
49432.214
49417.711
49400.802
49381.27
49358.908
49333.533
49304.986
49273.148
49237.947
49455.201
49455.203
49455.205
49455.207
49455.21
49455.213
49455.217
49455.222
49455.228
49455.235
49455.243
49455.253
49455.265
49455.279
49455.295
49455.313
49455.335
49455.359
49455.386
49455.417
49455.452
49455.492
49455.537
49455.587
49455.643
49455.706
49455.777
49455.856
49455.944
49456.042
49456.152
49456.274
49456.41
49456.562
49456.73
49456.918
49457.127
49457.359
49457.617
49457.904
49458.219
49458.556
49458.906
49459.272
49459.664
49460.083
49460.533
49461.014
49461.528
49462.077
49462.662
49463.284
49463.944
49464.643
49465.381
49466.158
49466.972
49467.823
49468.708
49469.622
49470.562
49471.518
49472.483
49473.445
49474.39
49475.298
49476.148
49476.912
49477.558
49478.047
49478.33
49478.354
49478.052
49477.35
49476.16
49474.38
49471.898
49468.583
49464.29
49458.86
49452.116
49443.868
49433.911
49422.031
49408.007
49391.615
49372.635
49350.858
49326.094
49298.182
49266.995
49232.452
49194.523
49440.992
49440.994
49440.996
49440.999
49441.001
49441.005
49441.008
49441.013
49441.019
49441.026
49441.035
49441.045
49441.057
49441.071
49441.087
49441.106
49441.127
49441.151
49441.179
49441.21
49441.246
49441.285
49441.33
49441.381
49441.437
49441.501
49441.571
49441.651
49441.739
49441.838
49441.948
49442.071
49442.207
49442.359
49442.528
49442.717
49442.926
49443.159
49443.417
49443.704
49444.021
49444.361
49444.715
49445.086
49445.48
49445.904
49446.358
49446.843
49447.363
49447.918
49448.509
49449.139
49449.807
49450.515
49451.263
49452.052
49452.88
49453.746
49454.647
49455.581
49456.542
49457.524
49458.518
49459.513
49460.495
49461.447
49462.347
49463.17
49463.883
49464.449
49464.822
49464.949
49464.766
49464.2
49463.166
49461.565
49459.285
49456.2
49452.166
49447.027
49440.608
49432.72
49423.161
49411.717
49398.167
49382.287
49363.854
49342.658
49318.505
49291.227
49260.691
49226.809
49189.542
49148.911
49426.726
49426.728
49426.73
49426.733
49426.735
49426.739
49426.743
49426.748
49426.754
49426.761
49426.769
49426.78
49426.792
49426.806
49426.822
49426.841
49426.862
49426.887
49426.915
49426.946
49426.982
49427.022
49427.067
49427.117
49427.174
49427.238
49427.309
49427.389
49427.477
49427.576
49427.687
49427.81
49427.947
49428.099
49428.269
49428.458
49428.668
49428.901
49429.16
49429.448
49429.765
49430.108
49430.467
49430.841
49431.239
49431.666
49432.124
49432.615
49433.14
49433.7
49434.298
49434.935
49435.611
49436.328
49437.087
49437.887
49438.728
49439.608
49440.527
49441.479
49442.462
49443.469
49444.491
49445.519
49446.538
49447.533
49448.483
49449.362
49450.141
49450.783
49451.244
49451.471
49451.404
49450.971
49450.089
49448.663
49446.581
49443.72
49439.941
49435.087
49428.987
49421.454
49412.287
49401.273
49388.192
49372.819
49354.931
49334.313
49310.768
49284.123
49254.239
49221.019
49184.417
49144.445
49101.176
49412.409
49412.411
49412.413
49412.416
49412.419
49412.422
49412.426
49412.431
49412.437
49412.444
49412.453
49412.463
49412.476
49412.49
49412.506
49412.525
49412.547
49412.571
49412.599
49412.631
49412.667
49412.707
49412.752
49412.803
49412.86
49412.924
49412.996
49413.075
49413.165
49413.264
49413.375
49413.498
49413.636
49413.788
49413.958
49414.148
49414.358
49414.592
49414.851
49415.14
49415.458
49415.804
49416.166
49416.544
49416.946
49417.376
49417.838
49418.334
49418.863
49419.43
49420.034
49420.678
49421.362
49422.088
49422.857
49423.668
49424.521
49425.416
49426.351
49427.323
49428.327
49429.357
49430.407
49431.467
49432.523
49433.56
49434.558
49435.493
49436.336
49437.052
49437.598
49437.924
49437.97
49437.667
49436.934
49435.677
49433.79
49431.149
49427.618
49423.044
49417.258
49410.073
49401.293
49390.704
49378.087
49363.216
49345.867
49325.824
49302.884
49276.871
49247.638
49215.082
49179.147
49139.839
49097.22
49398.048
49398.05
49398.052
49398.055
49398.058
49398.061
49398.065
49398.07
49398.076
49398.084
49398.093
49398.103
49398.115
49398.13
49398.146
49398.165
49398.187
49398.212
49398.24
49398.272
49398.308
49398.348
49398.394
49398.445
49398.502
49398.566
49398.638
49398.718
49398.807
49398.907
49399.018
49399.142
49399.28
49399.433
49399.603
49399.793
49400.004
49400.238
49400.498
49400.787
49401.106
49401.454
49401.82
49402.202
49402.606
49403.041
49403.507
49404.006
49404.541
49405.113
49405.723
49406.373
49407.065
49407.8
49408.578
49409.4
49410.266
49411.175
49412.126
49413.115
49414.14
49415.194
49416.271
49417.362
49418.453
49419.531
49420.576
49421.566
49422.472
49423.26
49423.889
49424.31
49424.467
49424.291
49423.703
49422.612
49420.914
49418.489
49415.202
49410.902
49405.423
49398.582
49390.182
49380.012
49367.853
49353.479
49336.666
49317.193
49294.856
49269.472
49240.891
49208.999
49173.735
49135.094
49093.13
49047.948
49383.65
49383.652
49383.654
49383.657
49383.659
49383.663
49383.667
49383.672
49383.678
49383.686
49383.695
49383.705
49383.718
49383.732
49383.749
49383.768
49383.79
49383.815
49383.843
49383.875
49383.911
49383.952
49383.998
49384.049
49384.107
49384.171
49384.243
49384.323
49384.413
49384.513
49384.624
49384.748
49384.886
49385.04
49385.211
49385.401
49385.612
49385.846
49386.107
49386.396
49386.716
49387.065
49387.435
49387.82
49388.228
49388.666
49389.136
49389.639
49390.178
49390.755
49391.371
49392.028
49392.727
49393.47
49394.257
49395.09
49395.967
49396.89
49397.855
49398.862
49399.907
49400.984
49402.087
49403.207
49404.333
49405.451
49406.542
49407.584
49408.551
49409.409
49410.119
49410.634
49410.898
49410.846
49410.4
49409.471
49407.958
49405.744
49402.695
49398.665
49393.488
49386.984
49378.958
49369.201
49357.494
49343.612
49327.329
49308.423
49286.685
49261.929
49233.997
49202.771
49168.18
49130.209
49088.905
49044.363
48996.738
49369.223
49369.225
49369.228
49369.23
49369.233
49369.237
49369.241
49369.246
49369.252
49369.26
49369.269
49369.279
49369.292
49369.306
49369.323
49369.343
49369.365
49369.39
49369.418
49369.45
49369.487
49369.527
49369.573
49369.625
49369.683
49369.747
49369.819
49369.9
49369.99
49370.09
49370.202
49370.326
49370.464
49370.618
49370.789
49370.979
49371.19
49371.425
49371.686
49371.975
49372.295
49372.646
49373.019
49373.407
49373.818
49374.259
49374.732
49375.239
49375.782
49376.364
49376.985
49377.648
49378.353
49379.103
49379.899
49380.741
49381.63
49382.565
49383.545
49384.568
49385.631
49386.73
49387.858
49389.007
49390.167
49391.323
49392.458
49393.552
49394.578
49395.504
49396.293
49396.899
49397.268
49397.336
49397.028
49396.258
49394.926
49392.917
49390.102
49386.335
49381.454
49375.282
49367.624
49358.274
49347.014
49333.618
49317.859
49299.515
49278.374
49254.243
49226.96
49196.399
49162.482
49125.186
49084.546
49040.649
48993.642
49354.775
49354.777
49354.78
49354.782
49354.785
49354.789
49354.793
49354.798
49354.804
49354.812
49354.821
49354.832
49354.845
49354.859
49354.876
49354.896
49354.918
49354.943
49354.972
49355.004
49355.04
49355.081
49355.127
49355.179
49355.237
49355.302
49355.374
49355.455
49355.545
49355.645
49355.757
49355.882
49356.02
49356.174
49356.345
49356.535
49356.747
49356.981
49357.242
49357.531
49357.852
49358.204
49358.579
49358.971
49359.384
49359.827
49360.303
49360.813
49361.36
49361.945
49362.571
49363.238
49363.95
49364.706
49365.51
49366.36
49367.259
49368.205
49369.198
49370.237
49371.318
49372.437
49373.589
49374.766
49375.957
49377.15
49378.328
49379.472
49380.555
49381.548
49382.413
49383.108
49383.578
49383.764
49383.591
49382.975
49381.819
49380.012
49377.425
49373.917
49369.327
49363.48
49356.184
49347.235
49336.415
49323.499
49308.26
49290.473
49269.924
49246.416
49219.78
49189.884
49156.643
49120.023
49080.052
49036.807
48990.425
48941.119
49340.337
49340.339
49340.342
49340.344
49340.347
49340.351
49340.355
49340.36
49340.367
49340.374
49340.383
49340.394
49340.407
49340.421
49340.438
49340.458
49340.48
49340.505
49340.533
49340.566
49340.602
49340.643
49340.689
49340.74
49340.798
49340.862
49340.934
49341.015
49341.104
49341.204
49341.316
49341.439
49341.577
49341.73
49341.901
49342.09
49342.3
49342.534
49342.794
49343.082
49343.401
49343.752
49344.129
49344.522
49344.937
49345.381
49345.858
49346.37
49346.919
49347.506
49348.135
49348.806
49349.522
49350.284
49351.093
49351.951
49352.858
49353.815
49354.82
49355.873
49356.97
49358.109
49359.284
49360.487
49361.708
49362.937
49364.156
49365.347
49366.486
49367.543
49368.483
49369.264
49369.834
49370.133
49370.092
49369.627
49368.644
49367.033
49364.67
49361.414
49357.109
49351.581
49344.641
49336.086
49325.7
49313.259
49298.534
49281.3
49261.338
49238.449
49212.459
49183.228
49150.662
49114.723
49075.424
49032.836
48987.086
48938.38
48886.978
49325.922
49325.924
49325.927
49325.929
49325.932
49325.936
49325.94
49325.945
49325.952
49325.959
49325.968
49325.979
49325.991
49326.006
49326.022
49326.042
49326.063
49326.088
49326.116
49326.148
49326.184
49326.224
49326.27
49326.32
49326.377
49326.441
49326.512
49326.591
49326.68
49326.778
49326.888
49327.01
49327.146
49327.297
49327.466
49327.653
49327.86
49328.091
49328.348
49328.633
49328.949
49329.298
49329.673
49330.066
49330.48
49330.923
49331.4
49331.912
49332.461
49333.049
49333.679
49334.353
49335.072
49335.837
49336.652
49337.516
49338.431
49339.397
49340.413
49341.479
49342.592
49343.748
49344.944
49346.172
49347.423
49348.686
49349.945
49351.183
49352.375
49353.495
49354.507
49355.371
49356.037
49356.448
49356.535
49356.217
49355.402
49353.983
49351.838
49348.83
49344.804
49339.589
49332.999
49324.832
49314.874
49302.9
49288.684
49271.996
49252.618
49230.345
49204.997
49176.43
49144.542
49109.284
49070.662
49028.735
48983.625
48935.525
48884.692
49311.432
49311.434
49311.436
49311.439
49311.442
49311.446
49311.45
49311.455
49311.462
49311.469
49311.478
49311.489
49311.502
49311.516
49311.533
49311.552
49311.574
49311.599
49311.627
49311.659
49311.695
49311.735
49311.78
49311.831
49311.888
49311.951
49312.022
49312.101
49312.19
49312.288
49312.398
49312.52
49312.656
49312.807
49312.975
49313.161
49313.369
49313.599
49313.855
49314.14
49314.455
49314.803
49315.18
49315.574
49315.989
49316.434
49316.911
49317.424
49317.975
49318.565
49319.197
49319.873
49320.595
49321.365
49322.184
49323.054
49323.976
49324.951
49325.977
49327.055
49328.183
49329.357
49330.574
49331.826
49333.105
49334.4
49335.698
49336.98
49338.225
49339.405
49340.487
49341.432
49342.192
49342.711
49342.923
49342.748
49342.097
49340.865
49338.934
49336.168
49332.415
49327.507
49321.261
49313.475
49303.938
49292.427
49278.713
49262.567
49243.767
49222.106
49197.398
49169.494
49138.282
49103.707
49065.765
49024.505
48980.039
48932.555
48882.299
48829.557
49296.906
49296.909
49296.911
49296.914
49296.917
49296.921
49296.925
49296.93
49296.937
49296.944
49296.953
49296.964
49296.977
49296.991
49297.008
49297.027
49297.049
49297.074
49297.102
49297.134
49297.17
49297.21
49297.255
49297.306
49297.363
49297.426
49297.497
49297.577
49297.665
49297.763
49297.873
49297.994
49298.13
49298.281
49298.448
49298.634
49298.841
49299.071
49299.327
49299.61
49299.925
49300.272
49300.65
49301.047
49301.464
49301.909
49302.389
49302.904
49303.456
49304.049
49304.684
49305.364
49306.09
49306.864
49307.689
49308.565
49309.495
49310.478
49311.515
49312.605
49313.747
49314.938
49316.174
49317.449
49318.756
49320.083
49321.418
49322.743
49324.038
49325.277
49326.427
49327.451
49328.303
49328.927
49329.259
49329.224
49328.733
49327.685
49325.962
49323.432
49319.947
49315.34
49309.43
49302.02
49292.898
49281.842
49268.623
49253.013
49234.787
49213.733
49189.663
49162.419
49131.885
49097.994
49060.734
49020.145
48976.33
48929.468
48879.797
48827.598
49282.35
49282.353
49282.355
49282.358
49282.361
49282.365
49282.369
49282.374
49282.381
49282.388
49282.398
49282.408
49282.421
49282.436
49282.452
49282.472
49282.494
49282.519
49282.547
49282.579
49282.614
49282.655
49282.7
49282.751
49282.808
49282.871
49282.942
49283.021
49283.109
49283.207
49283.317
49283.439
49283.574
49283.724
49283.892
49284.078
49284.284
49284.514
49284.769
49285.052
49285.366
49285.713
49286.091
49286.491
49286.909
49287.357
49287.838
49288.355
49288.91
49289.505
49290.144
49290.827
49291.557
49292.336
49293.166
49294.049
49294.987
49295.979
49297.026
49298.128
49299.285
49300.492
49301.748
49303.045
49304.378
49305.737
49307.107
49308.475
49309.819
49311.114
49312.331
49313.431
49314.371
49315.098
49315.548
49315.649
49315.314
49314.444
49312.924
49310.626
49307.402
49303.091
49297.512
49290.469
49281.755
49271.148
49258.419
49243.339
49225.68
49205.23
49181.794
49155.208
49125.35
49092.145
49055.57
49015.656
48972.497
48926.263
48877.185
48825.537
48771.631
49267.77
49267.773
49267.775
49267.778
49267.781
49267.785
49267.789
49267.795
49267.801
49267.809
49267.818
49267.829
49267.842
49267.856
49267.873
49267.892
49267.914
49267.939
49267.967
49267.999
49268.035
49268.076
49268.121
49268.172
49268.228
49268.292
49268.363
49268.442
49268.53
49268.628
49268.737
49268.859
49268.994
49269.145
49269.312
49269.497
49269.703
49269.933
49270.187
49270.47
49270.783
49271.13
49271.509
49271.911
49272.331
49272.78
49273.263
49273.782
49274.34
49274.938
49275.58
49276.267
49277.001
49277.785
49278.621
49279.511
49280.456
49281.457
49282.514
49283.629
49284.799
49286.023
49287.297
49288.617
49289.976
49291.364
49292.77
49294.178
49295.57
49296.92
49298.201
49299.375
49300.402
49301.228
49301.793
49302.026
49301.843
49301.147
49299.826
49297.753
49294.786
49290.763
49285.508
49278.828
49270.514
49260.349
49248.103
49233.546
49216.45
49196.598
49173.793
49147.864
49118.68
49086.161
49050.273
49011.038
48968.54
48922.941
48874.464
48823.375
48769.983
49253.171
49253.174
49253.176
49253.179
49253.182
49253.186
49253.191
49253.196
49253.202
49253.21
49253.219
49253.23
49253.243
49253.258
49253.275
49253.294
49253.316
49253.341
49253.369
49253.401
49253.437
49253.477
49253.523
49253.573
49253.63
49253.694