/*--------------------------------*- C++ -*----------------------------------*\
| =========                 |                                                 |
| \\      /  F ield         | OpenFOAM: The Open Source CFD Toolbox           |
|  \\    /   O peration     | Version:  2506                                  |
|   \\  /    A nd           | Website:  www.openfoam.com                      |
|    \\/     M anipulation  |                                                 |
\*---------------------------------------------------------------------------*/
FoamFile
{
    version     2.0;
    format      ascii;
    arch        "LSB;label=32;scalar=64";
    class       volVectorField;
    location    "0.0095";
    object      wallShearStress;
}
// * * * * * * * * * * * * * * * * * * * * * * * * * * * * * * * * * * * * * //

dimensions      [1 -1 -2 0 0 0 0];

internalField   uniform (0 0 0);

boundaryField
{
    Side
    {
        type            empty;
    }
    Inlet
    {
        type            calculated;
        value           uniform (0 0 0);
    }
    Airfoil
    {
        type            calculated;
        value           nonuniform List<vector> 
65
(
(-6.4901659 -0.79942854 2.8103097e-39)
(-6.4655613 -0.79901625 6.6971205e-33)
(-6.4340588 -0.79761296 2.9029126e-16)
(-6.4091892 -0.79688978 1.1565918e-26)
(-6.3785672 -0.79533048 1.1650064e-26)
(-6.354966 -0.79470765 -7.032819e-23)
(-6.3199236 -0.79341574 2.9667006e-16)
(-6.29235 -0.79299416 2.9839131e-16)
(-6.2536938 -0.79098643 -7.1556784e-23)
(-6.2265737 -0.79026326 -3.0196944e-16)
(-6.1903963 -0.78822577 -7.24494e-23)
(-6.1619382 -0.78695776 7.2896267e-23)
(-6.1251556 -0.78446025 -1.5388151e-16)
(-6.0973117 -0.78289969 1.5490468e-16)
(-6.0604115 -0.78003505 1.4874529e-22)
(-6.0321494 -0.77908264 -1.4860756e-22)
(-5.9885428 -0.77636806 6.9792391e-33)
(-5.9549834 -0.77474556 1.5933729e-16)
(-5.9125011 -0.77176946 -1.6053688e-16)
(-5.87919 -0.76977205 -1.6177515e-16)
(-5.8382345 -0.76656467 1.6305188e-16)
(-5.804938 -0.76415698 -1.6437378e-16)
(-5.7650773 -0.76064819 1.6574122e-16)
(-5.7335142 -0.75806981 1.6715633e-16)
(-5.6913805 -0.75491124 1.6094341e-24)
(-5.6515267 -0.75229054 -1.622813e-22)
(-5.6039014 -0.7484231 1.6374972e-22)
(-5.5624543 -0.74517272 -1.5046328e-36)
(-5.5133822 -0.7406877 -1.7504901e-16)
(-5.4692374 -0.73663711 3.7903311e-26)
(-5.4156828 -0.73107566 -3.5727226e-16)
(-5.3697037 -0.72632928 -1.721563e-22)
(-5.3169908 -0.72086504 -1.7408954e-22)
(-5.2672701 -0.71666169 -1.8459105e-16)
(-5.2075426 -0.71094204 2.6541722e-33)
(-5.1551859 -0.70594217 1.8900221e-16)
(-5.0948455 -0.69959397 -4.5138983e-36)
(-5.0396677 -0.6937119 0)
(-4.9775061 -0.6865389 1.963783e-16)
(-4.9215203 -0.67998252 0)
(-4.858468 -0.6726322 -1.9258947e-22)
(-4.7939873 -0.6660413 2.0489878e-16)
(-4.7177773 -0.65760635 -2.0804011e-16)
(-4.6450982 -0.64931407 -2.0446357e-22)
(-4.5641301 -0.63955877 2.048711e-22)
(-4.4878059 -0.63006665 1.3412247e-33)
(-4.4044575 -0.61921819 -2.122157e-22)
(-4.3314781 -0.60955286 2.1786901e-22)
(-4.2453673 -0.59909508 -1.1556946e-16)
(-4.1574667 -0.58844104 2.3592118e-16)
(-4.0607121 -0.57623439 1.2051967e-16)
(-3.9683658 -0.56437704 9.0686098e-33)
(-3.8687163 -0.55108327 1.2625592e-16)
(-3.7766525 -0.53852049 1.2949049e-16)
(-3.6768381 -0.52490309 -1.3302131e-16)
(-3.5759519 -0.51213849 1.3690854e-16)
(-3.4551759 -0.49592988 8.4024371e-24)
(-3.350252 -0.48187858 6.0215403e-33)
(-3.2190267 -0.46080334 -1.5120584e-16)
(-3.1234442 -0.4468785 -6.0005657e-22)
(-2.9992932 -0.42969324 6.269352e-22)
(-2.9438078 -0.42307699 8.6483019e-17)
(-2.7957903 -0.36279722 6.0185311e-36)
(-2.7616661 -0.3703042 -9.630578e-17)
(-3.4903082 -0.45146525 2.2804392e-21)
)
;
    }
    Outlet
    {
        type            calculated;
        value           nonuniform List<vector> 0();
    }
    procBoundary5to4
    {
        type            processor;
        value           uniform (0 0 0);
    }
    procBoundary5to6
    {
        type            processor;
        value           uniform (0 0 0);
    }
    procBoundary5to12
    {
        type            processor;
        value           uniform (0 0 0);
    }
    procBoundary5to13
    {
        type            processor;
        value           uniform (0 0 0);
    }
}


// ************************************************************************* //
