/*--------------------------------*- C++ -*----------------------------------*\
| =========                 |                                                 |
| \\      /  F ield         | OpenFOAM: The Open Source CFD Toolbox           |
|  \\    /   O peration     | Version:  2506                                  |
|   \\  /    A nd           | Website:  www.openfoam.com                      |
|    \\/     M anipulation  |                                                 |
\*---------------------------------------------------------------------------*/
FoamFile
{
    version     2.0;
    format      ascii;
    arch        "LSB;label=32;scalar=64";
    class       volScalarField;
    location    "0.019";
    object      Ma;
}
// * * * * * * * * * * * * * * * * * * * * * * * * * * * * * * * * * * * * * //

dimensions      [0 0 0 0 0 0 0];

internalField   nonuniform List<scalar> 
13761
(
0.36160442
0.3653906
0.36945143
0.37341371
0.37771076
0.38198557
0.38662615
0.39125216
0.39610883
0.40093179
0.40587205
0.41087836
0.41587238
0.42093236
0.42591574
0.43092436
0.43575764
0.44056824
0.44522169
0.44971109
0.45406012
0.45820482
0.46223656
0.46604156
0.46959877
0.4730252
0.47626302
0.4792741
0.48213444
0.48476538
0.4872106
0.48958162
0.49170739
0.49359911
0.49554412
0.49739635
0.49881414
0.5001129
0.50169124
0.50320765
0.50430675
0.50528134
0.50640497
0.50746662
0.50832431
0.50917421
0.51009866
0.51094931
0.51163629
0.5122736
0.5129989
0.51374697
0.51441633
0.51501386
0.51562107
0.51624727
0.51685273
0.51740118
0.51791074
0.51839995
0.51616501
0.50492235
0.49148932
0.48040649
0.47046931
0.46123533
0.45251894
0.44423417
0.43632958
0.42877302
0.42153831
0.41459786
0.40792488
0.40149449
0.39527929
0.38924962
0.38337924
0.37764635
0.37202884
0.36650361
0.36104654
0.35563168
0.35023187
0.34481861
0.33936052
0.33382469
0.32817442
0.32236804
0.31636014
0.3100984
0.30351803
0.29653893
0.28905764
0.28091724
0.27186489
0.26151711
0.24938202
0.23472244
0.21646837
0.19321409
0.16376089
0.12871567
0.091111638
0.05380431
0.017874747
0.36143395
0.36520904
0.36925297
0.37319334
0.37749135
0.38176418
0.38640371
0.39102624
0.39588649
0.40070997
0.40565885
0.41067627
0.41568348
0.42075569
0.42575831
0.4307914
0.43565531
0.44050056
0.44518828
0.4497117
0.45409241
0.45828092
0.46234707
0.46619528
0.46978682
0.47325355
0.47653312
0.47957877
0.482478
0.48514858
0.48762972
0.49003483
0.49219122
0.49411639
0.49608801
0.49796748
0.49940018
0.50071495
0.50231394
0.5038118
0.50488707
0.50586675
0.50699049
0.5080018
0.50878007
0.50955837
0.51045282
0.51132225
0.51205982
0.51271717
0.51337299
0.51402549
0.51460061
0.51511477
0.51562428
0.51614772
0.51662967
0.51706051
0.51746942
0.51732932
0.51375171
0.5013368
0.48802353
0.47680951
0.46652932
0.45683876
0.44761308
0.43877077
0.43027363
0.4220941
0.41421104
0.40660692
0.39926542
0.39216908
0.38529789
0.37862453
0.37212514
0.36578319
0.35957624
0.35347926
0.34746557
0.34150619
0.33557036
0.32962521
0.3236341
0.31755717
0.31134815
0.30495248
0.29830864
0.29134322
0.28396344
0.27605288
0.26746479
0.25801006
0.2474413
0.23542846
0.22151817
0.20509343
0.18533888
0.16135394
0.13282582
0.10132896
0.069882292
0.040375574
0.013108184
0.36508189
0.36910487
0.37303484
0.37732618
0.38160172
0.3862309
0.39084398
0.39570078
0.40052198
0.40547352
0.41049432
0.41551104
0.42059618
0.42561508
0.43066566
0.43555188
0.44042333
0.44514092
0.44970141
0.45412154
0.45834346
0.46245495
0.46634195
0.46997651
0.4734787
0.47679796
0.4798899
0.48282718
0.48553025
0.48804562
0.49048351
0.49267052
0.49462151
0.4966158
0.49850963
0.49996391
0.50129461
0.50289771
0.50442421
0.50552001
0.5064902
0.50760043
0.50862867
0.50944332
0.51023512
0.51107849
0.51183205
0.51241544
0.51295112
0.51356572
0.51417742
0.51468376
0.51510022
0.51551195
0.5159189
0.51628777
0.51658943
0.51683951
0.51708172
0.51403004
0.5012728
0.48781527
0.47645094
0.46599995
0.45614962
0.44677938
0.43782222
0.4292323
0.42097539
0.4130247
0.40535599
0.39794812
0.39078259
0.38384606
0.37713076
0.37061633
0.36426885
0.3580591
0.35195967
0.34594303
0.33998011
0.33404034
0.3280913
0.32209711
0.31601956
0.30981552
0.30343451
0.29682011
0.28990558
0.2826063
0.27481515
0.26639439
0.25716256
0.24687795
0.23520943
0.22168411
0.205634
0.18622074
0.16253976
0.13429224
0.10298915
0.071446361
0.041493914
0.013543124
0.36489743
0.36890093
0.37281024
0.3771028
0.38137494
0.3860003
0.39060984
0.39546867
0.40028976
0.405249
0.41028026
0.41531011
0.42040681
0.42544383
0.43051839
0.43543399
0.44033852
0.4450904
0.44968634
0.45413948
0.45840402
0.46255082
0.46648168
0.47015061
0.47369357
0.47705405
0.48018041
0.48315768
0.48590022
0.48845124
0.4909225
0.49313959
0.49511786
0.49713352
0.49905077
0.5005117
0.50185187
0.50346632
0.50496768
0.50603752
0.50700526
0.50810336
0.5090729
0.50980337
0.51052874
0.51136132
0.51215234
0.51278337
0.51331431
0.51383405
0.51433327
0.51474315
0.51508724
0.51541505
0.51574463
0.51602677
0.5162502
0.51642954
0.51609602
0.5130824
0.50060512
0.48700851
0.47548262
0.46486108
0.45483294
0.44528228
0.43614556
0.42737783
0.41894373
0.41081484
0.40297098
0.39539306
0.38806063
0.38095347
0.37405031
0.36732677
0.36076171
0.35433323
0.34801596
0.34178359
0.33560804
0.32945948
0.32330575
0.31711056
0.31083466
0.30443298
0.29785237
0.29103337
0.28390618
0.27638399
0.26835897
0.25969544
0.25021895
0.23970182
0.227839
0.21420469
0.1982135
0.17906738
0.15587437
0.1283581
0.098058052
0.067760041
0.039206362
0.012742864
0.364768
0.36874688
0.37264762
0.37693357
0.3812068
0.38582146
0.3904198
0.39527425
0.40009137
0.40505235
0.4100866
0.41512505
0.42023393
0.42528738
0.43037885
0.43531531
0.4402445
0.44502599
0.44965977
0.45415422
0.45845189
0.46264423
0.46661471
0.47032895
0.47390938
0.4773107
0.48048438
0.48350067
0.48627881
0.48886668
0.4913717
0.49362154
0.49562966
0.49767003
0.49960526
0.50109421
0.50244845
0.50406651
0.5055967
0.50668174
0.50763466
0.5087167
0.50970101
0.5104598
0.51117564
0.51192623
0.51258069
0.51306434
0.51350378
0.51401274
0.51450337
0.51487933
0.51516012
0.51543345
0.515704
0.51593704
0.51610365
0.51623266
0.51629155
0.51355013
0.50151113
0.4875466
0.47578678
0.46500691
0.45486534
0.44523013
0.43602761
0.42720512
0.41871937
0.41052892
0.40261481
0.39495634
0.38753354
0.38032969
0.37332987
0.36652101
0.35988454
0.35339503
0.34702027
0.34073254
0.33450471
0.32830843
0.3221128
0.31588156
0.30957671
0.30315514
0.29656626
0.28975357
0.28265019
0.27517163
0.26721174
0.25863516
0.24926493
0.23886605
0.22711711
0.21356802
0.19760509
0.17842858
0.15517952
0.12764118
0.097403675
0.067243174
0.038871096
0.012619837
0.36458
0.36853697
0.3724185
0.37670462
0.3809741
0.38558251
0.3901764
0.39503115
0.39984848
0.40481614
0.40985976
0.41491087
0.42003131
0.42510152
0.43021659
0.43518133
0.44014152
0.44495626
0.4496266
0.45415435
0.45849501
0.46272399
0.46673928
0.4704882
0.4741096
0.4775514
0.48075976
0.48381772
0.48663503
0.48925832
0.49179706
0.49407737
0.49610869
0.49816852
0.50012475
0.50161511
0.5029782
0.50460532
0.50611174
0.50717749
0.50813107
0.50920115
0.51013416
0.5108246
0.51150374
0.51228519
0.51301206
0.51355734
0.51399046
0.51441469
0.51481559
0.51512728
0.51537599
0.51560782
0.51584397
0.51603436
0.51616616
0.51624997
0.51593392
0.51364734
0.5025317
0.48847478
0.47668833
0.46584487
0.45557078
0.44576007
0.43636237
0.42735059
0.41870583
0.41041024
0.4024223
0.39470932
0.38724443
0.38000241
0.37295808
0.36608497
0.35935498
0.35274326
0.34623218
0.33980135
0.3334266
0.3270813
0.32073772
0.31435405
0.30789382
0.30131528
0.29456843
0.28759703
0.28033426
0.27269567
0.26457556
0.25584086
0.24632035
0.23579058
0.22395097
0.21037414
0.19445439
0.17539711
0.15235056
0.1251146
0.095300554
0.065671454
0.037896747
0.012279387
0.36444751
0.36837816
0.372251
0.37653135
0.38079939
0.38539712
0.38997749
0.39482673
0.39963926
0.40460779
0.40965375
0.41471246
0.41984434
0.42493042
0.43006231
0.43504698
0.44003012
0.44487364
0.44958184
0.45415223
0.45852611
0.46280031
0.46685645
0.47065303
0.4743137
0.47779694
0.48105319
0.48415132
0.487008
0.48967111
0.49224559
0.49456173
0.49662753
0.498715
0.50069668
0.50222445
0.50360222
0.50523606
0.50677507
0.50785669
0.50879875
0.50986076
0.51081598
0.51153572
0.51219475
0.51288194
0.51347695
0.5139093
0.51430284
0.51475522
0.51518271
0.51549791
0.5157212
0.51593816
0.51615379
0.51633736
0.5164565
0.51655194
0.51659664
0.51461109
0.50429564
0.48990064
0.47790741
0.46697754
0.45667885
0.44687723
0.4374957
0.42847934
0.41978889
0.4113966
0.40328366
0.39543178
0.38782213
0.38043752
0.37326009
0.36626983
0.35944533
0.35276315
0.34619816
0.33972154
0.33330233
0.32690856
0.32050614
0.31406948
0.30756141
0.30094165
0.29416182
0.28716777
0.27989563
0.27226205
0.26415976
0.25545395
0.24597
0.23547752
0.2236635
0.21009226
0.19416031
0.1750797
0.15200785
0.12475778
0.094957208
0.065380309
0.037696329
0.012202119
0.36816272
0.37201754
0.37629733
0.38056016
0.3851493
0.38972365
0.39457229
0.39938551
0.40435979
0.40941367
0.41448414
0.41962769
0.42472941
0.4298841
0.43489641
0.43990922
0.44478459
0.44952936
0.45413464
0.45855092
0.46286164
0.46696471
0.47079703
0.47449868
0.47802215
0.4813141
0.48445609
0.48735189
0.49005067
0.49266003
0.49500794
0.49709551
0.49920382
0.50120586
0.50273404
0.50412593
0.50577258
0.50729701
0.5083736
0.50932616
0.51038431
0.51130529
0.51198436
0.51264727
0.51340909
0.5141072
0.51460714
0.51499089
0.51537618
0.51574171
0.51602102
0.51623788
0.51643963
0.51665225
0.51682529
0.51694265
0.51701544
0.51679229
0.51525022
0.50616979
0.49181415
0.47974514
0.46873339
0.45831505
0.44837566
0.43885982
0.42973013
0.42095475
0.41250357
0.40434731
0.39645822
0.3888098
0.38137825
0.37414114
0.3670763
0.36016232
0.35337773
0.3467004
0.34010785
0.33357567
0.32707739
0.32058392
0.31406176
0.30747446
0.30077666
0.29391578
0.28683366
0.27946187
0.27171733
0.26349895
0.25467731
0.24508362
0.23449531
0.22261122
0.20900034
0.19306047
0.17400276
0.15098487
0.12382312
0.094155025
0.064760524
0.037300413
0.012059654
0.36799841
0.37184533
0.37612034
0.38037816
0.38495667
0.38951495
0.39435768
0.39916524
0.40413987
0.40919529
0.41427221
0.41942593
0.42454288
0.42971431
0.43474564
0.43978049
0.44468409
0.44946644
0.45411454
0.45856444
0.46291883
0.46706444
0.47094658
0.47468936
0.47825492
0.48159481
0.48477807
0.48771727
0.490459
0.49310678
0.49549438
0.49762149
0.49976133
0.50179891
0.50337534
0.5047842
0.50644281
0.50800542
0.50910273
0.51005247
0.5111155
0.51206968
0.51278078
0.51341648
0.51408188
0.51466857
0.51510342
0.51550042
0.51594152
0.51635534
0.5166636
0.5168825
0.51709372
0.5173082
0.51749611
0.51762127
0.51774159
0.51785553
0.5165687
0.50843671
0.49398155
0.48171427
0.47063779
0.46020088
0.45025713
0.44073108
0.43157453
0.42275187
0.41423543
0.40600171
0.39802882
0.39029484
0.38277855
0.37545933
0.36831595
0.36132624
0.35446723
0.34771519
0.3410459
0.33443352
0.32785075
0.32126842
0.31465367
0.30797108
0.30117972
0.29423081
0.28706971
0.27963139
0.27183334
0.26357174
0.25471495
0.24509202
0.23447749
0.22256479
0.20892121
0.19294677
0.17385651
0.15080857
0.12362026
0.093938884
0.064561567
0.037155575
0.012001411
0.36777576
0.37160725
0.37588019
0.38013184
0.38469953
0.38925025
0.39409164
0.39890078
0.40387978
0.40894191
0.41402929
0.41919464
0.42432659
0.42951941
0.43457786
0.43964178
0.44457629
0.44939461
0.45407808
0.45857064
0.46296149
0.46715524
0.47107489
0.47485905
0.47846553
0.48184279
0.48507211
0.48805054
0.49082884
0.49351361
0.49593528
0.49808551
0.50025049
0.50230926
0.5038891
0.50532172
0.5070015
0.50856376
0.50967364
0.51064667
0.51171774
0.51265824
0.51336015
0.5140404
0.51481562
0.51551949
0.5160136
0.51639284
0.51678751
0.51716678
0.51746128
0.51769036
0.51790522
0.51813594
0.5183314
0.51846993
0.51856083
0.5184348
0.51755166
0.51078754
0.49664655
0.4842186
0.47304632
0.46251188
0.45247039
0.44285342
0.43361979
0.42473507
0.4161673
0.4078886
0.39987269
0.39209428
0.38453025
0.37715856
0.36995709
0.36290388
0.35597671
0.34915281
0.34240888
0.33571993
0.32905928
0.32239824
0.31570416
0.3089418
0.30207033
0.29504112
0.28779987
0.28028217
0.27240641
0.26406997
0.25514259
0.2454548
0.23478298
0.22282296
0.20914375
0.19314388
0.17403329
0.15096139
0.12373096
0.093987813
0.064556991
0.03712817
0.011983012
0.3676053
0.3714294
0.37569843
0.37994222
0.38449934
0.38903197
0.39386651
0.39866959
0.40364829
0.408711
0.4138037
0.41897744
0.42412416
0.42933334
0.43441014
0.43949542
0.44445836
0.44931368
0.45403929
0.45856586
0.46299942
0.4672352
0.47120793
0.47503486
0.47868428
0.48210933
0.48538096
0.48840668
0.49123094
0.49395728
0.49642293
0.49861761
0.50081829
0.50292355
0.50456181
0.50601414
0.50771183
0.50931781
0.51045506
0.51143644
0.51252604
0.5135099
0.5142443
0.51489146
0.51557642
0.51620094
0.51668322
0.51712091
0.51758383
0.51802047
0.51835954
0.51860976
0.51884848
0.51909448
0.51931615
0.51947365
0.51963766
0.51982588
0.51909215
0.51326949
0.49943414
0.48675978
0.47552242
0.46496738
0.45491228
0.44527557
0.43601098
0.42708537
0.4184697
0.41013783
0.40206543
0.39422851
0.38660454
0.37917131
0.37190673
0.36478887
0.35779504
0.35090213
0.3440868
0.33732413
0.3305877
0.3238492
0.31707648
0.31023482
0.30328389
0.2961756
0.28885616
0.2812617
0.27331113
0.26490248
0.25590628
0.24615392
0.2354219
0.22340549
0.20967335
0.19362369
0.1744644
0.15133682
0.12402824
0.094182053
0.064653945
0.0371599
0.011984087
0.37118673
0.37545142
0.37968859
0.3842327
0.38875694
0.39358922
0.3983938
0.40337568
0.40844399
0.41354609
0.41873102
0.42389253
0.42912137
0.4342247
0.43933867
0.44433192
0.4492229
0.45398406
0.45855399
0.46302349
0.46730708
0.47132063
0.47518999
0.47888158
0.48234604
0.48566574
0.48873108
0.49159331
0.49435916
0.49686157
0.49908306
0.50131521
0.50344373
0.50509169
0.50657991
0.50830972
0.50993181
0.51109942
0.51211727
0.51322744
0.51421803
0.51497397
0.51570025
0.51651571
0.51725193
0.51777242
0.5181839
0.51862439
0.51905215
0.51939414
0.51966466
0.51992005
0.52019324
0.52043246
0.52060983
0.52072817
0.52070554
0.52030931
0.5157968
0.50269846
0.48976568
0.47842401
0.46779007
0.4576612
0.44795738
0.43863292
0.429656
0.42099703
0.41262635
0.40451708
0.39664346
0.38898157
0.38150831
0.3742007
0.36703602
0.35999128
0.35304329
0.34616878
0.33934307
0.33254009
0.32573193
0.31888696
0.31197101
0.30494439
0.29775958
0.29036348
0.28269296
0.27466765
0.2661863
0.25711971
0.24729885
0.23650016
0.22441943
0.21062549
0.19451553
0.17529322
0.15208758
0.12466247
0.094652766
0.064951602
0.037312207
0.012025874
0.37100327
0.37526504
0.37949146
0.38402468
0.38853002
0.39335412
0.39815137
0.40313247
0.40820026
0.41330681
0.4184982
0.42367385
0.42891864
0.43403952
0.43917451
0.44419654
0.44912383
0.45392568
0.45853064
0.46304227
0.4673674
0.47143624
0.47535022
0.47908529
0.48259751
0.48596044
0.48907635
0.49198701
0.49479754
0.49734811
0.49961816
0.50188982
0.50407509
0.5057894
0.50729963
0.50905263
0.51072243
0.51192456
0.51296203
0.51410264
0.5151442
0.51593056
0.51662013
0.51735999
0.51805787
0.51861852
0.51912003
0.51962618
0.5201105
0.52050524
0.52080927
0.52109565
0.52139178
0.52166357
0.52186895
0.52208472
0.52233919
0.5219926
0.51826067
0.50597358
0.49274963
0.4813393
0.47068372
0.46053507
0.4508073
0.44145416
0.43244254
0.42374493
0.41533468
0.40718504
0.39927024
0.39156627
0.38404972
0.37669676
0.36948428
0.36238914
0.3553876
0.34845609
0.34156978
0.33470261
0.32782687
0.32091121
0.31392191
0.30681977
0.29955785
0.29208364
0.28433472
0.27623123
0.2676718
0.25852712
0.24862884
0.23775429
0.22559994
0.21173472
0.19555471
0.17625902
0.1529635
0.12540641
0.095212061
0.065312731
0.037502258
0.012080305
0.37075673
0.37501127
0.37923042
0.38374835
0.3882458
0.39306594
0.39786367
0.40284696
0.40791917
0.41303436
0.41823679
0.42342681
0.42868987
0.4338359
0.4389998
0.44405171
0.44901438
0.45385174
0.45850053
0.4630491
0.46742133
0.47153289
0.47549155
0.47927028
0.48282447
0.48623714
0.48939313
0.4923436
0.49519653
0.49778684
0.50008904
0.50239916
0.50461038
0.50634275
0.50790143
0.50969789
0.51139999
0.51264816
0.51373352
0.51490657
0.51597321
0.51680827
0.51760223
0.51847633
0.51926356
0.51983445
0.52030535
0.52081574
0.52131303
0.52172222
0.52205189
0.52236407
0.52269367
0.52298886
0.52321561
0.52336602
0.52345021
0.52337962
0.52074709
0.5096464
0.49614344
0.48462219
0.47389877
0.46368723
0.45390224
0.44449854
0.4354429
0.42670689
0.41826304
0.41008337
0.40214053
0.39440911
0.38686457
0.37948225
0.37223801
0.36510779
0.35806727
0.35109252
0.3441585
0.33723902
0.33030644
0.32332957
0.31627503
0.30910404
0.30177013
0.29422122
0.28639491
0.27821129
0.26956956
0.26034136
0.25035909
0.23940069
0.22716306
0.213215
0.19695107
0.17756495
0.15415673
0.12643315
0.09600219
0.065840329
0.03779158
0.012168016
0.37056758
0.37482011
0.3790256
0.3835323
0.38801117
0.39282126
0.39761005
0.4025917
0.40766216
0.41278121
0.41798863
0.42319178
0.42847031
0.43363334
0.43881804
0.44389885
0.44889685
0.45377315
0.45845807
0.4630489
0.46746229
0.47162932
0.47563529
0.47945796
0.48305997
0.486517
0.48972624
0.49272673
0.49562697
0.49826904
0.50062254
0.50297482
0.5052509
0.50705405
0.50863593
0.51045922
0.51221097
0.5135004
0.51461504
0.51582743
0.51694946
0.51781159
0.51857007
0.51939232
0.52018832
0.52084521
0.52142161
0.52198316
0.52253029
0.52299503
0.52336533
0.52371111
0.52406841
0.5244007
0.52466496
0.52493905
0.52525305
0.52515872
0.5230512
0.51318908
0.4994858
0.48788114
0.47713173
0.46689529
0.45708263
0.44764884
0.43856191
0.42979371
0.42131758
0.41310694
0.40513471
0.39737499
0.38980241
0.38239142
0.37511672
0.36795331
0.36087646
0.35386173
0.34688367
0.3399158
0.33293024
0.32589571
0.31877876
0.31154063
0.30413491
0.2965098
0.28860355
0.28033708
0.27161031
0.26229547
0.25222549
0.24117881
0.22885257
0.21481529
0.19845984
0.17897439
0.15544327
0.12754151
0.096859413
0.066417334
0.038111085
0.012266117
0.37031632
0.37455919
0.37875642
0.38324595
0.38771827
0.39252242
0.39731
0.40229302
0.40736669
0.41249391
0.41771231
0.42292935
0.42822472
0.43341215
0.43862514
0.44373589
0.44876872
0.45368029
0.45840997
0.46303815
0.46749816
0.47170879
0.47576354
0.47963139
0.48327797
0.48678643
0.49003655
0.49307881
0.49602394
0.49870848
0.50110027
0.50349757
0.5058026
0.50763313
0.50927477
0.51115153
0.51294941
0.51429635
0.51546723
0.51672211
0.51788419
0.51881679
0.51969402
0.52063857
0.52149081
0.52213167
0.52268211
0.52327648
0.52385412
0.52434069
0.52473905
0.52511692
0.52551085
0.52586999
0.52615431
0.5263466
0.52653117
0.52667175
0.5253894
0.51698717
0.50319824
0.49145107
0.48063399
0.47034049
0.46047626
0.4509955
0.44186656
0.43306193
0.42455496
0.41631837
0.40832419
0.40054549
0.39295573
0.38552809
0.37823622
0.37105395
0.36395523
0.35691458
0.34990579
0.34290185
0.3358745
0.32879228
0.3216217
0.31432412
0.30685336
0.29915791
0.2911764
0.28283014
0.27401943
0.26461695
0.25445606
0.2433156
0.23089298
0.21675641
0.20029699
0.18069682
0.15702249
0.1289118
0.097931355
0.067149467
0.038523106
0.012395214
0.37436222
0.37854355
0.38302137
0.38747609
0.39226905
0.39704552
0.40202535
0.40709615
0.41222683
0.41744917
0.42267808
0.42798797
0.43319296
0.43842593
0.44356525
0.44863227
0.45358141
0.45834772
0.46301982
0.46752198
0.47178592
0.47588994
0.47980263
0.48349731
0.48705141
0.49035675
0.49344984
0.49644398
0.49918292
0.50162721
0.50406801
0.50644299
0.50834455
0.5100089
0.51191375
0.51376072
0.51515407
0.51636076
0.51765969
0.51887851
0.51983471
0.52068338
0.52160846
0.52251868
0.52328165
0.52393869
0.52456449
0.52518476
0.52572752
0.52617061
0.52658194
0.52700601
0.52740421
0.52773399
0.52806822
0.5284299
0.52851266
0.52749174
0.52049278
0.50684526
0.49495893
0.48410506
0.47378544
0.46389346
0.45438174
0.44522026
0.43638338
0.42784574
0.41958127
0.41156281
0.40376342
0.39615598
0.38871267
0.38140589
0.37420822
0.36709252
0.36003214
0.35299985
0.34596778
0.33890698
0.33178544
0.32456935
0.3172199
0.30969086
0.30193085
0.29387873
0.28545612
0.27656367
0.26707441
0.25682209
0.24558587
0.23306331
0.21882216
0.20225158
0.18252758
0.15869927
0.13036755
0.099074064
0.067934164
0.038967423
0.012535495
0.37409388
0.37826534
0.38272465
0.38717378
0.39196017
0.39673331
0.40171348
0.40678608
0.41192467
0.41715794
0.42240032
0.42772575
0.43295437
0.43821518
0.44338436
0.44848565
0.4534698
0.45828139
0.46299194
0.46754186
0.47184896
0.47600431
0.47996475
0.483706
0.48731316
0.4906608
0.49379808
0.49683936
0.49962319
0.50211181
0.50460286
0.50700966
0.50894769
0.51068035
0.5126458
0.51454849
0.516005
0.51727245
0.51862057
0.51988932
0.52092967
0.52189861
0.52292077
0.52384991
0.52457895
0.52522575
0.52591384
0.52657936
0.52715042
0.5276241
0.52807301
0.52853515
0.5289615
0.52930689
0.52955521
0.52980899
0.53010744
0.52966923
0.52410399
0.51082262
0.4987167
0.4877887
0.47741919
0.46748189
0.45792649
0.4487234
0.43984811
0.43127704
0.42298492
0.41494434
0.40712809
0.3995084
0.39205643
0.38474337
0.37754057
0.37041945
0.36335198
0.3563096
0.34926327
0.34218299
0.33503589
0.32778747
0.32039841
0.31282215
0.30500713
0.29689221
0.28839906
0.27942849
0.2698538
0.259509
0.24817352
0.2355451
0.2211911
0.20449877
0.18463777
0.16063829
0.13205959
0.10041207
0.068860798
0.039496746
0.012704371
0.37389115
0.37804406
0.38249109
0.38692302
0.3916994
0.39645867
0.4014333
0.40650185
0.41164367
0.41688015
0.42213298
0.42747201
0.43271836
0.43799909
0.44319573
0.44832999
0.4533505
0.45819874
0.46295578
0.46754829
0.47190759
0.47611197
0.4801191
0.48390864
0.48756285
0.49096728
0.4941557
0.49724688
0.50008673
0.50262739
0.50516189
0.50764012
0.50964554
0.51139906
0.51339191
0.515341
0.51684672
0.5181523
0.51954432
0.52086752
0.5219272
0.52287839
0.52391703
0.52494807
0.5258205
0.52656207
0.52726178
0.52796593
0.52859485
0.52911753
0.52960025
0.53009503
0.53056194
0.53096004
0.53135534
0.5317517
0.53197325
0.53159186
0.52729268
0.51469819
0.50236784
0.49139281
0.48100026
0.47103659
0.46144983
0.45221291
0.44330388
0.43469996
0.42637739
0.41831091
0.41047426
0.40283939
0.39537678
0.38805708
0.3808506
0.37372754
0.36665852
0.35961355
0.35256218
0.34547306
0.33831212
0.33104382
0.32362797
0.31601729
0.30815968
0.29999359
0.29144045
0.28240091
0.2727482
0.2623163
0.25088464
0.23815075
0.22368123
0.20686115
0.18685382
0.16267139
0.13383339
0.10181889
0.069840174
0.040059507
0.012885191
0.37361536
0.37775638
0.38218372
0.38661012
0.3913812
0.39613509
0.40110863
0.40617734
0.41132673
0.41657387
0.4218399
0.42719346
0.43246237
0.43777091
0.44299736
0.44816486
0.45322023
0.45811354
0.46291045
0.4675507
0.47195478
0.47621159
0.48026909
0.48410709
0.48781557
0.4912643
0.49449982
0.49764007
0.50052686
0.50311732
0.50570597
0.50821897
0.51026911
0.51209606
0.51415293
0.51616214
0.51773055
0.51909721
0.52054071
0.52191675
0.52306354
0.5241223
0.52522146
0.52623287
0.52706158
0.52781404
0.52860005
0.52935874
0.53002154
0.53057853
0.53110567
0.5316411
0.53213814
0.53254761
0.53285545
0.53316637
0.53359458
0.53362345
0.53047534
0.51880936
0.50619568
0.49514251
0.4847075
0.47470242
0.46507323
0.45579374
0.44684321
0.43820148
0.42984638
0.42175273
0.41389475
0.40624452
0.39877223
0.39144815
0.38424195
0.37712287
0.37006027
0.36302273
0.35597813
0.34889348
0.34173318
0.33446031
0.32703343
0.31940412
0.31151928
0.3033165
0.2947165
0.28561937
0.2758979
0.26538577
0.25386213
0.2410242
0.22643773
0.20948545
0.18932406
0.16494645
0.13582853
0.10341206
0.070957564
0.04070632
0.013094794
0.37752659
0.38194099
0.38635019
0.39111251
0.39585143
0.40081629
0.40587969
0.41103178
0.41628154
0.42155664
0.4269226
0.43220945
0.4375378
0.44279044
0.44798937
0.45308048
0.45800996
0.46285595
0.46754134
0.47199562
0.47630001
0.48040611
0.48429348
0.48805013
0.49155683
0.49484355
0.49803382
0.50097752
0.50361855
0.50624971
0.50883236
0.5109432
0.51278847
0.51487059
0.51692205
0.51854
0.51994271
0.52142538
0.52284997
0.52401089
0.52506396
0.52621216
0.52735531
0.52832743
0.52914832
0.52992432
0.53071568
0.53143386
0.5320409
0.53260137
0.53317261
0.53371344
0.53418449
0.53464373
0.53507837
0.53538904
0.53537026
0.53315619
0.52270112
0.50985577
0.49874709
0.48828991
0.4782572
0.46859505
0.4592797
0.45029234
0.44161387
0.43322389
0.42509915
0.41721456
0.4095428
0.40205471
0.39472076
0.38751058
0.38039312
0.37333715
0.36631021
0.35927863
0.35220759
0.34505974
0.33779642
0.33037458
0.32274432
0.31485101
0.30663076
0.298003
0.2888667
0.27909363
0.26851651
0.25691361
0.24398109
0.2292832
0.21219974
0.19188058
0.16730052
0.13789479
0.10506876
0.072127172
0.041388264
0.013317638
0.37722892
0.38162297
0.38602629
0.39078362
0.39551736
0.40047969
0.40554134
0.41069989
0.4159599
0.4212482
0.4266276
0.43193608
0.43729216
0.44257464
0.44780556
0.45293113
0.45790493
0.46279192
0.46752647
0.47202682
0.47638445
0.48054214
0.48448019
0.4882919
0.49184536
0.49518257
0.49842364
0.50141598
0.50411133
0.50679909
0.50941965
0.51158215
0.51350252
0.51564864
0.51775973
0.51943508
0.52089573
0.52242793
0.52390134
0.52514214
0.52627797
0.52744304
0.5285302
0.52945401
0.5303033
0.53117482
0.53201697
0.53276525
0.53340259
0.53400736
0.53461706
0.53518721
0.53566521
0.53603846
0.53641227
0.53693364
0.53721059
0.53576421
0.52664331
0.51360193
0.50240247
0.49190122
0.48182509
0.47211896
0.46275908
0.45372718
0.44500636
0.43657782
0.42841892
0.4205047
0.41280805
0.40530037
0.39795242
0.39073404
0.3836143
0.37656199
0.36954473
0.36252905
0.35547949
0.34835632
0.34111784
0.33371802
0.32610438
0.31822055
0.31000148
0.30136538
0.2922096
0.28240411
0.27178001
0.26011405
0.24710089
0.23230279
0.21509629
0.194624
0.16984153
0.14014028
0.10688343
0.073418726
0.042147196
0.013567807
0.37699013
0.38137076
0.38575728
0.39050516
0.39522485
0.40017624
0.40523116
0.4103909
0.41565255
0.42094869
0.4263397
0.4316658
0.43704131
0.44234899
0.44760996
0.45277045
0.4577796
0.46271782
0.46749982
0.47205037
0.47645398
0.48066084
0.48465027
0.48851093
0.49212249
0.49551122
0.49880226
0.50185189
0.50459576
0.50732461
0.51001079
0.51222589
0.51416266
0.51633162
0.51848073
0.52020459
0.52169629
0.52326041
0.52477489
0.52602544
0.52716798
0.52840716
0.52963843
0.5306851
0.53156504
0.53240235
0.53326384
0.53405312
0.53472868
0.53535437
0.53599152
0.53659883
0.53713881
0.53766103
0.53814225
0.5385022
0.53871182
0.53782811
0.53016554
0.51709395
0.50580895
0.49527453
0.48516425
0.47542123
0.4660228
0.45695052
0.44818816
0.43971897
0.43152181
0.42357276
0.41584535
0.40831159
0.40094276
0.39370914
0.38658007
0.37952446
0.37250977
0.36550217
0.35846624
0.35136317
0.34415159
0.33678397
0.32920498
0.32135456
0.31316368
0.30454718
0.29540021
0.28559113
0.2749489
0.26324759
0.25017892
0.23530178
0.21798806
0.19737245
0.17239286
0.14240193
0.10872376
0.074741749
0.042933011
0.013829989
0.38104197
0.38542185
0.39016384
0.39487929
0.39982845
0.40488022
0.41004369
0.41531475
0.42062372
0.42602814
0.431375
0.43677729
0.44211498
0.44740743
0.45260115
0.45765354
0.462633
0.46746569
0.47206398
0.47652194
0.4807805
0.4848223
0.48873871
0.49239888
0.4958417
0.49918553
0.50228556
0.5050876
0.50787458
0.51060203
0.51287403
0.5148847
0.51711508
0.51931986
0.52109299
0.52263772
0.52424688
0.5258015
0.52711775
0.52831186
0.52952527
0.53067251
0.53167281
0.53259327
0.5335205
0.53441749
0.53522248
0.53591249
0.53656798
0.53722635
0.53784605
0.53837346
0.53879815
0.53922882
0.53980135
0.54023023
0.53977328
0.53350027
0.52054991
0.50912715
0.49853234
0.48837055
0.47857698
0.46912724
0.46000442
0.45119335
0.44267728
0.43443556
0.42644482
0.41867915
0.41111114
0.40371258
0.39645434
0.38930635
0.382238
0.37521713
0.36821011
0.36118139
0.35409179
0.34689978
0.33955841
0.33201248
0.32420092
0.31605269
0.30747939
0.29837176
0.28859336
0.27796916
0.26627
0.25318406
0.23826554
0.22087966
0.20015091
0.17499789
0.14473362
0.11064087
0.076134837
0.043768803
0.014111838
0.38077947
0.38514338
0.389874
0.39457609
0.39951436
0.40455854
0.40972022
0.41499109
0.42030652
0.42572256
0.43108644
0.43650702
0.44186932
0.44719103
0.45241932
0.4575061
0.46253702
0.46741949
0.47206801
0.47657208
0.48088034
0.48497512
0.48894219
0.49265936
0.49615336
0.4995472
0.50270468
0.50555321
0.50837997
0.51116773
0.51348421
0.51551102
0.51776289
0.52000283
0.52182313
0.52339298
0.52502708
0.5266167
0.52794156
0.52915558
0.53046066
0.53174972
0.53284074
0.53375374
0.53462782
0.53552923
0.53635523
0.53706385
0.53771904
0.53838437
0.53902008
0.53959171
0.54014205
0.5406407
0.5410132
0.54135606
0.54116554
0.53621902
0.52363503
0.51206043
0.50140911
0.49120261
0.48136359
0.47186501
0.4626918
0.45383036
0.44526349
0.43697161
0.42893248
0.42112104
0.41351044
0.40607277
0.3987792
0.39159999
0.38450499
0.37746258
0.37043968
0.3634014
0.3563092
0.34912233
0.34179476
0.33427276
0.32649664
0.31839577
0.30988108
0.30084124
0.29113577
0.28058355
0.26894809
0.25591008
0.2410166
0.22362526
0.20284883
0.17758283
0.14709621
0.1126252
0.077608474
0.044671571
0.014423158
0.38043914
0.38479553
0.38951927
0.39421658
0.39915406
0.40419579
0.40935744
0.41463556
0.41996335
0.42539295
0.4307771
0.43622318
0.44161489
0.44696836
0.45222929
0.45735798
0.46242871
0.46736269
0.47206154
0.47662085
0.48098047
0.48512848
0.48915307
0.4929204
0.4964711
0.49991969
0.50312876
0.50603795
0.50892351
0.51175606
0.514133
0.51623068
0.51854008
0.52082948
0.52268985
0.52430804
0.52598235
0.52760208
0.52897604
0.53021151
0.53145832
0.5326502
0.53370588
0.53466969
0.53562227
0.53654409
0.53737287
0.53808119
0.53875064
0.53941812
0.54004445
0.54057678
0.54100688
0.54144582
0.54200869
0.54249579
0.54247723
0.53861297
0.52655279
0.5147468
0.50399292
0.49370736
0.48379058
0.47421504
0.46496649
0.45603098
0.4473917
0.43902749
0.4309166
0.42303722
0.41536385
0.40786814
0.40052032
0.39329044
0.38614852
0.37906303
0.37200109
0.36492808
0.35780572
0.35059349
0.34324544
0.3357078
0.32792129
0.31981647
0.3113061
0.30228131
0.29260474
0.28209798
0.270525
0.25756358
0.24275386
0.22544179
0.20472321
0.17946757
0.14889735
0.11419577
0.078811351
0.045428576
0.014691609
0.38016526
0.38450646
0.38921669
0.39390101
0.3988272
0.40386162
0.40901951
0.41429394
0.41962684
0.42506781
0.43046801
0.4359316
0.44134698