/*--------------------------------*- C++ -*----------------------------------*\
| =========                 |                                                 |
| \\      /  F ield         | OpenFOAM: The Open Source CFD Toolbox           |
|  \\    /   O peration     | Version:  2506                                  |
|   \\  /    A nd           | Website:  www.openfoam.com                      |
|    \\/     M anipulation  |                                                 |
\*---------------------------------------------------------------------------*/
FoamFile
{
    version     2.0;
    format      ascii;
    arch        "LSB;label=32;scalar=64";
    class       volScalarField;
    location    "1.25";
    object      p;
}
// * * * * * * * * * * * * * * * * * * * * * * * * * * * * * * * * * * * * * //

dimensions      [1 -1 -2 0 0 0 0];

internalField   nonuniform List<scalar> 
1376
(
47023.506
47023.66
47023.849
47024.038
47022.681
47022.899
47023.058
47023.271
47023.497
47023.728
47023.959
47024.189
47024.418
47024.649
47024.886
47022.114
47022.307
47022.444
47022.649
47022.887
47023.151
47023.426
47023.694
47023.946
47024.181
47024.399
47024.624
47024.866
47025.115
47025.377
47025.639
47021.54
47021.73
47021.849
47022.028
47022.238
47022.483
47022.748
47023.006
47023.243
47023.462
47023.68
47023.915
47024.168
47024.434
47024.709
47024.988
47025.264
47025.525
47025.761
47025.966
47020.902
47021.107
47021.227
47021.388
47021.558
47021.745
47021.947
47022.153
47022.356
47022.554
47022.776
47023.028
47023.29
47023.564
47023.846
47024.142
47024.461
47024.79
47025.107
47025.391
47025.635
47025.832
47025.982
47026.092
47026.245
47020.224
47020.45
47020.575
47020.727
47020.871
47021.017
47021.17
47021.338
47021.524
47021.729
47021.959
47022.201
47022.446
47022.699
47022.971
47023.282
47023.637
47024.016
47024.391
47024.737
47025.049
47025.329
47025.579
47025.803
47025.995
47026.144
47026.268
47026.4
47026.618
47019.465
47019.729
47019.879
47020.052
47020.203
47020.346
47020.496
47020.667
47020.86
47021.082
47021.32
47021.558
47021.806
47022.07
47022.361
47022.682
47023.018
47023.35
47023.672
47023.995
47024.352
47024.756
47025.164
47025.495
47025.711
47025.85
47026.005
47026.182
47026.335
47026.473
47026.57
47026.695
47026.917
47018.534
47018.848
47019.053
47019.291
47019.497
47019.685
47019.866
47020.056
47020.262
47020.49
47020.726
47020.961
47021.21
47021.489
47021.805
47022.148
47022.507
47022.883
47023.277
47023.661
47023.983
47024.212
47024.385
47024.609
47024.946
47025.341
47025.673
47025.903
47026.081
47026.23
47026.392
47026.506
47026.576
47026.63
47026.731
47027.006
47017.56
47017.92
47018.167
47018.449
47018.706
47018.945
47019.175
47019.405
47019.645
47019.887
47020.12
47020.35
47020.59
47020.854
47021.137
47021.436
47021.759
47022.125
47022.527
47022.933
47023.313
47023.67
47024.002
47024.27
47024.432
47024.521
47024.649
47024.927
47025.301
47025.653
47025.958
47026.099
47026.112
47026.171
47026.262
47026.351
47026.503
47026.823
47027.353
47016.526
47016.931
47017.193
47017.49
47017.769
47018.04
47018.319
47018.613
47018.913
47019.196
47019.448
47019.67
47019.878
47020.079
47020.278
47020.485
47020.722
47021.008
47021.341
47021.705
47022.107
47022.561
47023.047
47023.5
47023.867
47024.137
47024.301
47024.391
47024.4
47024.371
47024.433
47024.695
47025.057
47025.336
47025.553
47025.672
47025.838
47026.108
47026.429
47026.932
47027.576
47028.243
47015.215
47015.683
47015.977
47016.293
47016.579
47016.868
47017.178
47017.524
47017.868
47018.173
47018.444
47018.678
47018.888
47019.086
47019.278
47019.472
47019.668
47019.863
47020.067
47020.308
47020.616
47021.001
47021.443
47021.936
47022.458
47022.921
47023.249
47023.457
47023.6
47023.702
47023.724
47023.704
47023.673
47023.732
47024.023
47024.514
47025.024
47025.38
47025.758
47026.236
47026.9
47027.698
47028.482
47029.243
47030.08
47013.604
47014.112
47014.435
47014.782
47015.096
47015.416
47015.763
47016.136
47016.493
47016.799
47017.06
47017.302
47017.541
47017.775
47017.997
47018.211
47018.415
47018.605
47018.798
47019.034
47019.328
47019.634
47019.903
47020.168
47020.48
47020.833
47021.23
47021.687
47022.154
47022.494
47022.714
47022.923
47023.088
47023.235
47023.313
47023.261
47023.458
47024.03
47024.862
47025.646
47026.292
47027.105
47028.075
47029.016
47029.93
47030.933
47031.17
47011.842
47012.335
47012.65
47013.016
47013.361
47013.71
47014.081
47014.467
47014.827
47015.131
47015.404
47015.674
47015.954
47016.232
47016.489
47016.724
47016.931
47017.112
47017.304
47017.555
47017.871
47018.205
47018.532
47018.863
47019.199
47019.502
47019.743
47019.917
47020.119
47020.489
47021.087
47021.747
47022.215
47022.479
47022.702
47022.856
47023.071
47023.363
47023.771
47024.411
47025.342
47026.345
47027.426
47028.668
47029.97
47031.207
47031.171
47033.493
47030.514
47009.987
47010.432
47010.707
47011.063
47011.424
47011.792
47012.167
47012.553
47012.914
47013.233
47013.537
47013.85
47014.186
47014.523
47014.845
47015.136
47015.391
47015.618
47015.847
47016.103
47016.379
47016.665
47016.996
47017.407
47017.881
47018.345
47018.759
47019.101
47019.394
47019.721
47020.072
47020.372
47020.755
47021.081
47021.007
47021.63
47022.535
47022.828
47023.387
47024.059
47024.629
47025.471
47026.443
47027.652
47029.188
47031.091
47030.915
47034.003
47030.182
47008.072
47008.456
47008.688
47009.028
47009.393
47009.774
47010.155
47010.54
47010.915
47011.268
47011.614
47011.975
47012.359
47012.759
47013.169
47013.579
47013.973
47014.344
47014.682
47014.983
47015.259
47015.557
47015.918
47016.326
47016.728
47017.137
47017.564
47017.997
47018.47
47018.938
47019.333
47019.708
47020.095
47020.492
47020.803
47020.863
47021.009
47022.038
47023.085
47023.804
47024.694
47025.147
47025.922
47027.005
47028.167
47029.699
47030.188
47034.243
47029.724
47006.322
47006.648
47006.843
47007.161
47007.517
47007.898
47008.284
47008.676
47009.08
47009.483
47009.889
47010.309
47010.735
47011.173
47011.635
47012.127
47012.633
47013.122
47013.568
47013.974
47014.368
47014.793
47015.258
47015.701
47016.071
47016.385
47016.682
47017.035
47017.496
47018.004
47018.432
47018.8
47019.241
47019.776
47020.566
47021.047
47021.435
47021.79
47022.063
47022.79
47023.338
47024.432
47025.659
47026.591
47027.62
47028.898
47029.047
47033.418
47029.043
47004.812
47005.105
47005.26
47005.534
47005.842
47006.171
47006.511
47006.875
47007.279
47007.717
47008.18
47008.654
47009.115
47009.565
47010.03
47010.535
47011.079
47011.636
47012.181
47012.725
47013.286
47013.856
47014.414
47014.94
47015.398
47015.775
47016.115
47016.455
47016.791
47017.097
47017.336
47017.62
47018.158
47018.937
47019.994
47020.414
47020.784
47021.306
47021.862
47022.612
47023.36
47023.977
47024.376
47025.364
47026.9
47028.756
47028.485
47032.896
47028.218
47003.262
47003.572
47003.72
47003.965
47004.215
47004.465
47004.718
47005.002
47005.346
47005.752
47006.209
47006.692
47007.16
47007.61
47008.069
47008.565
47009.12
47009.739
47010.419
47011.137
47011.852
47012.511
47013.091
47013.642
47014.207
47014.751
47015.245
47015.688
47016.063
47016.416
47016.84
47017.236
47017.31
47017.5
47017.897
47018.92
47020.078
47020.705
47021.549
47022.405
47023.199
47023.938
47024.668
47025.398
47026.024
47027.358
47027.699
47032.755
47027.221
47001.593
47001.954
47002.143
47002.399
47002.629
47002.843
47003.038
47003.257
47003.541
47003.89
47004.303
47004.738
47005.161
47005.578
47006.012
47006.493
47007.053
47007.714
47008.474
47009.285
47010.067
47010.769
47011.398
47011.995
47012.624
47013.307
47013.984
47014.555
47014.977
47015.342
47015.783
47016.348
47016.983
47017.441
47017.975
47018.425
47018.532
47018.92
47019.512
47020.338
47021.805
47023.165
47023.99
47025.091
47025.998
47027.247
47026.7
47032.283
47026.211
46999.985
47000.387
47000.612
47000.893
47001.138
47001.366
47001.561
47001.766
47002.011
47002.308
47002.677
47003.057
47003.417
47003.773
47004.143
47004.566
47005.076
47005.696
47006.427
47007.231
47008.038
47008.792
47009.488
47010.159
47010.869
47011.649
47012.381
47012.913
47013.348
47013.878
47014.469
47015.128
47015.897
47016.402
47016.75
47017.072
47017.527
47018.178
47018.85
47019.569
47020.507
47021.86
47023.31
47024.214
47025.296
47027.537
47026.525
47032.119
47025.611
46998.468
46998.867
46999.071
46999.325
46999.552
46999.762
46999.943
47000.13
47000.33
47000.568
47000.875
47001.205
47001.534
47001.86
47002.198
47002.572
47003.019
47003.569
47004.231
47004.994
47005.823
47006.672
47007.501
47008.316
47009.136
47009.943
47010.678
47011.344
47012.061
47012.781
47013.167
47013.348
47014.139
47015.159
47016.256
47016.755
47017.288
47017.835
47018.492
47019.267
47019.705
47020.737
47022.33
47023.73
47024.862
47026.149
47025.751
47032.182
47024.372
46996.926
46997.303
46997.462
46997.649
46997.799
46997.951
46998.075
46998.204
46998.334
46998.477
46998.693
46998.96
46999.257
46999.577
46999.927
47000.312
47000.74
47001.234
47001.822
47002.521
47003.337
47004.255
47005.226
47006.198
47007.155
47008.105
47009.067
47010.062
47011.044
47011.965
47012.833
47013.477
47013.53
47013.322
47013.704
47014.05
47015.354
47016.879
47017.864
47018.642
47019.395
47019.775
47020.162
47022.569
47024.867
47026.544
47024.684
47032.291
47022.975
46995.366
46995.71
46995.828
46995.966
46996.054
46996.131
46996.179
46996.236
46996.297
46996.345
46996.454
46996.631
46996.87
46997.173
46997.529
46997.938
46998.394
46998.883
46999.423
47000.048
47000.788
47001.674
47002.694
47003.772
47004.831
47005.866
47006.942
47008.079
47009.174
47010.145
47011.087
47012.054
47012.893
47013.565
47013.793
47014.283
47014.349
47014.542
47015.215
47016.063
47017.701
47019.367
47020.635
47021.165
47022.376
47025.639
47023.596
47032.503
47021.66
46993.9
46994.193
46994.248
46994.314
46994.321
46994.291
46994.255
46994.218
46994.176
46994.164
46994.193
46994.285
46994.459
46994.717
46995.061
46995.496
46996.008
46996.562
46997.131
46997.731
46998.403
46999.194
47000.143
47001.213
47002.294
47003.34
47004.401
47005.509
47006.601
47007.619
47008.59
47009.557
47010.533
47011.496
47012.416
47013.292
47013.868
47014.305
47014.878
47015.463
47015.785
47017.199
47019.288
47020.995
47021.189
47023.967
47022.007
47031.718
47019.897
46992.216
46992.487
46992.486
46992.456
46992.353
46992.209
46992.056
46991.9
46991.755
46991.666
46991.638
46991.689
46991.833
46992.077
46992.43
46992.893
46993.459
46994.099
46994.763
46995.425
46996.113
46996.868
46997.728
46998.709
46999.761
47000.806
47001.833
47002.87
47003.901
47004.903
47005.885
47006.824
47007.719
47008.616
47009.58
47010.674
47011.824
47012.794
47013.574
47014.41
47015.183
47015.516
47016.959
47019.486
47020.534
47024.763
47020.868
47032.243
47017.536
46989.957
46990.267
46990.293
46990.263
46990.138
46989.965
46989.777
46989.579
46989.388
46989.247
46989.181
46989.22
46989.353
46989.581
46989.92
46990.354
46990.883
46991.514
46992.22
46992.947
46993.677
46994.444
46995.261
46996.147
46997.12
46998.152
46999.197
47000.225
47001.232
47002.217
47003.194
47004.182
47005.16
47006.078
47006.937
47007.877
47008.974
47010.065
47011.215
47012.604
47014.087
47015.288
47016.063
47016.188
47017.3
47021.617
47018.081
47031.721
47015.13
46987.374
46987.747
46987.869
46987.953
46987.937
46987.852
46987.733
46987.599
46987.441
46987.293
46987.21
46987.199
46987.259
46987.392
46987.599
46987.912
46988.343
46988.889
46989.541
46990.263
46991.005
46991.766
46992.57
46993.416
46994.314
46995.269
46996.26
46997.265
46998.267
46999.253
47000.224
47001.203
47002.205
47003.197
47004.151
47005.126
47006.198
47007.302
47008.428
47009.751
47011.291
47012.948
47014.446
47015.493
47015.624
47019.844
47014.956
47030.721
47011.999
46984.756
46985.141
46985.332
46985.531
46985.645
46985.677
46985.654
46985.609
46985.518
46985.401
46985.295
46985.211
46985.154
46985.162
46985.259
46985.475
46985.819
46986.268
46986.81
46987.437
46988.128
46988.862
46989.646
46990.463
46991.3
46992.176
46993.078
46993.992
46994.93
46995.894
46996.851
46997.784
46998.719
46999.658
47000.598
47001.593
47002.7
47003.888
47005.053
47006.245
47007.606
47009.178
47010.869
47012.851
47013.633
47019.981
47012.133
47031.542
47008.255
46982.008
46982.352
46982.553
46982.789
46982.982
46983.114
46983.17
46983.193
46983.178
46983.124
46983.057
46982.959
46982.868
46982.836
46982.894
46983.042
46983.267
46983.568
46983.958
46984.463
46985.064
46985.729
46986.453
46987.233
46988.024
46988.813
46989.621
46990.438
46991.268
46992.131
46993.016
46993.892
46994.756
46995.605
46996.436
46997.33
46998.389
46999.609
47000.892
47002.199
47003.593
47005.156
47006.889
47009.034
47009.909
47018.031
47008.281
47031.49
47004.131
46979.155
46979.473
46979.656
46979.891
46980.121
46980.33
46980.465
46980.538
46980.556
46980.538
46980.509
46980.467
46980.434
46980.421
46980.416
46980.422
46980.483
46980.66
46980.983
46981.42
46981.932
46982.501
46983.139
46983.848
46984.58
46985.287
46985.978
46986.665
46987.349
46988.047
46988.792
46989.573
46990.362
46991.161
46991.966
46992.801
46993.769
46994.938
46996.278
46997.745
46999.349
47001.128
47003.119
47005.302
47005.305
47014.909
47003.267
47031.295
46995.631
46976.473
46976.812
46976.984
46977.203
46977.421
46977.64
46977.786
46977.847
46977.846
46977.819
46977.798
46977.816
46977.837
46977.795
46977.683
46977.582
46977.62
46977.8
46978.095
46978.438
46978.822
46979.3
46979.847
46980.412
46980.98
46981.544
46982.094
46982.624
46983.141
46983.654
46984.194
46984.796
46985.446
46986.14
46986.89
46987.687
46988.552
46989.56
46990.781
46992.2
46993.808
46995.703
46998.026
47000.71
46999.953
47012.289
46995.995
47032.748
46987.715
46973.99
46974.3
46974.425
46974.61
46974.754
46974.89
46974.963
46974.958
46974.951
46974.931
46974.946
46974.998
46974.957
46974.832
46974.756
46974.756
46974.842
46975
46975.162
46975.382
46975.654
46975.974
46976.334
46976.711
46977.093
46977.449
46977.79
46978.146
46978.496
46978.824
46979.15
46979.529
46979.988
46980.502
46981.091
46981.781
46982.539
46983.393
46984.432
46985.688
46987.153
46988.869
46991.204
46994.735
46992.251
47008.186
46986.81
47032.115
46977.656
46971.567
46971.73
46971.745
46971.884
46971.916
46971.95
46971.957
46971.935
46971.943
46971.978
46972.002
46972.004
46971.978
46971.935
46971.947
46972.009
46972.036
46972.027
46972.053
46972.171
46972.305
46972.43
46972.598
46972.803
46972.972
46973.092
46973.229
46973.391
46973.57
46973.755
46973.907
46974.082
46974.354
46974.698
46975.078
46975.545
46976.097
46976.69
46977.422
46978.495
46979.735
46980.948
46982.206
46987.498
46984.216
47001.621
46976.381
47031.494
46968.591
)
;

boundaryField
{
    Side
    {
        type            empty;
    }
    Inlet
    {
        type            totalPressure;
        rho             rho;
        psi             none;
        gamma           1;
        p0              uniform 50000;
        value           nonuniform List<scalar> 
21
(
47034.246
47034.051
47033.868
47033.671
47033.41
47033.05
47032.649
47032.21
47031.722
47031.285
47030.791
47030.129
47029.377
47028.484
47027.382
47026.277
47024.592
47022.54
47020.402
47017.001
47018.317
)
;
    }
    Airfoil
    {
        type            zeroGradient;
    }
    Outlet
    {
        type            fixedValue;
        value           uniform 46970;
    }
    procBoundary13to6
    {
        type            processor;
        value           nonuniform List<scalar> 
34
(
47023.278
47023.278
47022.656
47022.106
47021.538
47020.875
47020.156
47019.393
47018.467
47017.471
47016.424
47015.112
47013.492
47011.746
47009.951
47008.092
47006.364
47004.856
47003.277
47001.528
46999.845
46998.306
46996.765
46995.204
46993.745
46992.068
46989.772
46987.139
46984.516
46981.815
46978.949
46976.189
46973.714
46971.448
)
;
    }
    procBoundary13to12
    {
        type            processor;
        value           nonuniform List<scalar> 
60
(
47024.051
47024.182
47024.345
47024.513
47024.227
47024.227
47024.42
47024.621
47024.835
47025.067
47025.319
47025.13
47025.13
47025.394
47025.673
47025.959
47026.243
47025.894
47025.894
47026.147
47026.403
47026.67
47026.15
47026.15
47026.349
47026.595
47026.91
47027.266
47026.522
47026.522
47026.909
47027.319
47027.59
47026.904
47026.904
47027.17
47027.446
47027.701
47027.23
47027.23
47027.599
47028.032
47027.471
47027.471
47028.008
47028.482
47027.917
47027.917
47028.487
47029.012
47028.95
47028.95
47029.729
47030.463
47031.129
47031.129
47031.256
47033.316
47033.316
47030.869
)
;
    }
}


// ************************************************************************* //
