/*--------------------------------*- C++ -*----------------------------------*\
| =========                 |                                                 |
| \\      /  F ield         | OpenFOAM: The Open Source CFD Toolbox           |
|  \\    /   O peration     | Version:  2506                                  |
|   \\  /    A nd           | Website:  www.openfoam.com                      |
|    \\/     M anipulation  |                                                 |
\*---------------------------------------------------------------------------*/
FoamFile
{
    version     2.0;
    format      ascii;
    arch        "LSB;label=32;scalar=64";
    class       volScalarField;
    location    "2.995";
    object      alphat;
}
// * * * * * * * * * * * * * * * * * * * * * * * * * * * * * * * * * * * * * //

dimensions      [1 -1 -1 0 0 0 0];

internalField   nonuniform List<scalar> 
19257
(
0.13193948
0.13090573
0.13026995
0.12979825
0.12941015
0.12909462
0.12883454
0.12861437
0.12842743
0.12827126
0.1281429
0.12803796
0.12795172
0.12788
0.12781948
0.12776768
0.12772271
0.12768315
0.12764798
0.12761652
0.12758842
0.12756362
0.12754238
0.12752529
0.1275133
0.12750783
0.12751087
0.12752514
0.12755431
0.12760323
0.12767954
0.12779422
0.12234058
0.099491106
0.080797919
0.065597641
0.053187677
0.043050107
0.034766221
0.027994778
0.022489706
0.017949
0.014442045
0.011014289
0.010812187
0.0084519873
0.0069510839
0.0052978335
0.0051173629
0.13195418
0.13096154
0.13034348
0.12987806
0.12949148
0.1291734
0.12890968
0.12868608
0.12849582
0.12833607
0.12820378
0.12809477
0.12800456
0.12792913
0.12786528
0.12781052
0.12776297
0.12772117
0.12768408
0.12765099
0.12762154
0.12759565
0.12757353
0.12755572
0.12754311
0.12753702
0.12753931
0.12755254
0.12758012
0.12762661
0.12769917
0.12780806
0.12448492
0.10113016
0.082031304
0.066487601
0.053784403
0.043401156
0.034909439
0.027972529
0.022314034
0.017696529
0.014009041
0.010864467
0.0087761683
0.0068052991
0.006470414
0.0042624309
0.0050659472
0.13200279
0.13103957
0.13042953
0.12996985
0.12958408
0.12926245
0.12899407
0.1287662
0.12857184
0.12840779
0.12827092
0.12815722
0.12806246
0.12798282
0.12791516
0.12785702
0.1278065
0.12776211
0.12772278
0.1276878
0.12765674
0.1276295
0.12760625
0.12758749
0.12757401
0.12756706
0.12756835
0.12758026
0.127606
0.12764982
0.12771839
0.12782137
0.1264989
0.10263965
0.083149792
0.067281534
0.054314305
0.043717113
0.035051291
0.02797571
0.022201265
0.017490709
0.013721615
0.010542108
0.0082809778
0.0055808071
0.0060957869
0.0040194307
0.0050399975
0.13204474
0.13111439
0.13051492
0.13006249
0.12967892
0.12935457
0.12908174
0.12884961
0.12865129
0.12848308
0.1283417
0.12822331
0.12812392
0.12803991
0.12796825
0.12790653
0.12785283
0.12780565
0.1277639
0.12772683
0.127694
0.12766528
0.12764079
0.12762098
0.12760657
0.1275987
0.12759898
0.12760961
0.12763357
0.12767488
0.12773973
0.12783732
0.12799784
0.10446306
0.084530055
0.068290562
0.055024788
0.044186741
0.035326983
0.028098436
0.022196897
0.017395532
0.013528163
0.01032851
0.0079044822
0.005494955
0.0046514278
0.0037142392
0.0050283029
0.13208771
0.13119085
0.13060206
0.13015766
0.12977733
0.1294508
0.12917358
0.12893714
0.12873483
0.12856247
0.12841657
0.1282934
0.12818922
0.12810066
0.1280248
0.12795927
0.12790215
0.12785196
0.12780757
0.12776822
0.12773345
0.12770309
0.12767722
0.12765623
0.12764079
0.12763193
0.12763113
0.12764044
0.12766265
0.12770151
0.12776279
0.12785531
0.12800601
0.10633348
0.085945568
0.069328982
0.055764267
0.044687044
0.03563729
0.028260028
0.022238337
0.017351137
0.013394314
0.010166002
0.0076235961
0.0053484791
0.0040018613
0.0029209159
0.0045318685
0.1321289
0.13126605
0.13068906
0.13025374
0.12987784
0.12954995
0.12926866
0.12902803
0.12882183
0.12864543
0.12849506
0.12836711
0.1282581
0.12816487
0.12808466
0.12801514
0.12795442
0.12790101
0.1278538
0.12781199
0.12777511
0.12774296
0.12771558
0.12769331
0.12767674
0.12766681
0.12766488
0.12767286
0.12769331
0.12772979
0.12778763
0.1278753
0.12801685
0.1083834
0.087500465
0.070481808
0.056599126
0.045268289
0.036018511
0.028485197
0.022340385
0.01736327
0.013321225
0.010057867
0.0074215734
0.0052166069
0.0036930928
0.0024528684
0.0041419684
0.13216842
0.13133978
0.13077547
0.13034968
0.12997908
0.12965078
0.12936607
0.12912158
0.1289117
0.1287314
0.12857667
0.128444
0.12833016
0.12823222
0.12814755
0.1280739
0.12800941
0.12795263
0.12790241
0.12785799
0.12781885
0.12778477
0.12775577
0.12773211
0.12771433
0.12770326
0.12770017
0.12770678
0.12772551
0.12775966
0.12781419
0.12789725
0.12803005
0.11057226
0.089162418
0.071720364
0.057503779
0.04590772
0.036450064
0.0287552
0.022485264
0.017414836
0.013292634
0.0099879247
0.0072786021
0.0051105892
0.0034760874
0.0021654514
0.00412156
0.13220546
0.13141185
0.13086076
0.13044422
0.13007925
0.12975157
0.12946445
0.12921677
0.12900353
0.12881954
0.1286606
0.12852334
0.12840476
0.12830213
0.12821297
0.12813512
0.12806676
0.12800646
0.12795311
0.12790593
0.1278644
0.12782829
0.12779756
0.12777243
0.12775336
0.1277411
0.1277368
0.12774205
0.12775907
0.12779096
0.12784232
0.12792101
0.1280455
0.11290901
0.090939266
0.073049509
0.058480866
0.046606321
0.036931333
0.029068037
0.022669028
0.017501174
0.013300932
0.0099492963
0.0071803801
0.0050267623
0.003313867
0.0019963688
0.0040484999
0.13224043
0.13148304
0.13094456
0.13053597
0.13017646
0.12985044
0.12956228
0.12931229
0.12909615
0.12890871
0.1287458
0.12860417
0.12848103
0.12837383
0.12828022
0.12819815
0.12812586
0.12806197
0.1280054
0.12795536
0.12791136
0.12787312
0.12784058
0.12781391
0.12779349
0.12777999
0.12777445
0.12777833
0.12779368
0.12782339
0.12787173
0.12794629
0.12806297
0.11537757
0.092818118
0.074457705
0.059520201
0.047355405
0.037454703
0.029416769
0.022884685
0.017615758
0.013338181
0.0099354843
0.0071160985
0.0049623668
0.0031898364
0.0019330097
0.0038294812
0.13227349
0.13155308
0.13102668
0.13062376
0.13026894
0.12994571
0.12965801
0.1294067
0.12918813
0.12899755
0.12883098
0.1286853
0.12855786
0.12844627
0.12834834
0.12826211
0.12818592
0.12811842
0.12805859
0.12800566
0.12795913
0.12791871
0.12788431
0.12785605
0.12783424
0.12781947
0.12781267
0.12781519
0.12782891
0.12785653
0.12790201
0.1279727
0.12808212
0.11795411
0.094781535
0.075930372
0.060610005
0.048145938
0.038013038
0.029795427
0.023126714
0.017753712
0.013398641
0.0099419594
0.0070778963
0.0049140521
0.0031001167
0.0018807286
0.0030936747
0.13230519
0.13162085
0.13110574
0.13070665
0.13035572
0.13003614
0.12975015
0.12949841
0.1292779
0.12908453
0.12891467
0.1287653
0.1286339
0.1285182
0.12841615
0.12832591
0.12824591
0.12817488
0.12811182
0.12805602
0.12800697
0.12796437
0.1279281
0.12789822
0.12787499
0.12785894
0.12785088
0.12785206
0.1278642
0.12788984
0.12793264
0.12799973
0.12810249
0.12060092
0.096800082
0.077443528
0.061731963
0.048964426
0.038596096
0.030195938
0.023388447
0.017909592
0.01347694
0.0099645219
0.0070594214
0.0048794068
0.0030352994
0.0018400814
0.0021630436
0.13233565
0.13168552
0.13118084
0.13078428
0.13043651
0.13012079
0.12983727
0.12958573
0.12936376
0.12916803
0.12899528
0.12884264
0.12870764
0.12858816
0.12848226
0.12838824
0.12830462
0.12823021
0.12816406
0.12810548
0.12805398
0.12800925
0.12797114
0.12793966
0.12791503
0.12789768
0.12788837
0.12788823
0.12789887
0.12792265
0.12796297
0.12802674
0.12812352
0.12326911
0.098832771
0.078964863
0.062862606
0.049793742
0.039190889
0.030608305
0.02366211
0.018077396
0.013567866
0.0099991194
0.0070555133
0.0048559746
0.0029884748
0.0018101677
0.0016148484
0.13236469
0.1317463
0.13125179
0.13085717
0.13051149
0.13019895
0.12991791
0.129667
0.12944405
0.12924638
0.12907114
0.12891561
0.12877742
0.12865453
0.12854514
0.12844765
0.12836071
0.12828317
0.12821415
0.12815297
0.12809917
0.12805242
0.12801253
0.1279795
0.12795349
0.12793488
0.12792435
0.12792294
0.12793215
0.12795418
0.12799226
0.12805297
0.12814459
0.12589686
0.10082496
0.080455276
0.063974542
0.050613296
0.039781554
0.031020522
0.023938735
0.01825048
0.013666171
0.010041748
0.0070619457
0.0048411096
0.0029546064
0.0017907193
0.0012580124
0.13239171
0.13180321
0.13131862
0.1309251
0.13058006
0.13026979
0.12999082
0.12974067
0.12951708
0.12931783
0.12914046
0.12898244
0.12884149
0.12871564
0.12860319
0.12850266
0.12841276
0.12833244
0.12826085
0.12819734
0.12814145
0.12809283
0.1280513
0.1280168
0.12798947
0.12796963
0.12795793
0.12795531
0.12796319
0.12798362
0.1280197
0.1280776
0.12816509
0.12831617
0.1027059
0.081872429
0.065036973
0.05139854
0.040349117
0.031418529
0.024208071
0.018421433
0.013766322
0.010088299
0.0070750898
0.0048319252
0.0029299402
0.0017795675
0.00099283194
0.13241669
0.1318554
0.13138007
0.1309867
0.13064101
0.13033216
0.13005494
0.12980539
0.12958116
0.12938053
0.1292014
0.12904138
0.12889818
0.12876988
0.12865488
0.12855178
0.1284594
0.12837673
0.12830296
0.12823745
0.12817972
0.12812945
0.12808643
0.12805057
0.128022
0.12800102
0.12798821
0.12798447
0.12799113
0.12801014
0.12804449
0.12809981
0.12818435
0.12832872
0.10441564
0.083176114
0.066015387
0.052122063
0.040873397
0.031787923
0.024459913
0.018583118
0.013863292
0.010135319
0.007092219
0.0048259852
0.0029124263
0.001770169
0.00078402694
0.13243988
0.13190087
0.13143397
0.131041
0.13069443
0.13038591
0.13010926
0.1298596
0.12963462
0.12943289
0.12925248
0.12909097
0.12894605
0.12881584
0.12869882
0.12859371
0.12849938
0.12841485
0.12833932
0.12827217
0.12821292
0.12816123
0.12811689
0.12807983
0.12805014
0.12802812
0.1280143
0.12800955
0.12801514
0.12803292
0.12806578
0.12811888
0.12820153
0.12834002
0.10591371
0.084315284
0.066869031
0.052754365
0.041333322
0.032113552
0.024683369
0.018727885
0.013951788
0.010179331
0.0071108374
0.0048211506
0.0029009255
0.0017528012
0.00071688904
0.13245726
0.13194008
0.13148208
0.131088
0.13073795
0.13042793
0.13015141
0.12990199
0.1296767
0.12947424
0.12929287
0.12913023
0.12898404
0.12885243
0.12873396
0.12862741
0.12853167
0.12844577
0.12836892
0.12830049
0.12824001
0.12818715
0.12814171
0.12810362
0.12807297
0.12805004
0.12803535
0.12802975
0.12803441
0.12805125
0.1280827
0.12813457
0.12821551
0.12834739
0.10713253
0.085239643
0.067562037
0.053269215
0.041709262
0.032380797
0.024867827
0.018848363
0.014026931
0.010217454
0.007129306
0.0048165871
0.0028945349
0.0017296635
0.00069001192
0.13247541
0.13196624
0.13151276
0.13111893
0.13076852
0.13045892
0.13018248
0.12993287
0.12970712
0.12950406
0.129322
0.12915859
0.12901154
0.12887903
0.12875965
0.12865216
0.12855548
0.12846864
0.12839083
0.12832145
0.12826004
0.12820627
0.12815997
0.12812106
0.12808965
0.128066
0.12805063
0.12804437
0.1280483
0.12806455
0.12809431
0.12814826
0.12821804
0.12835174
0.10801691
0.085913631
0.068069031
0.053646976
0.041986084
0.03257858
0.02500569
0.01893977
0.014086101
0.010248836
0.007147969
0.0048136497
0.0028943104
0.0017004481
0.00067480062
0.1324831
0.13198533
0.13153557
0.13114165
0.13078935
0.13047779
0.13020061
0.12995096
0.12972517
0.12952191
0.12933956
0.12917582
0.1290284
0.12889545
0.12877554
0.12866747
0.12857017
0.12848267
0.12840422
0.12833419
0.12827215
0.12821778
0.12817091
0.12813146
0.12809954
0.12807542
0.12805959
0.12805289
0.12805636
0.12807231
0.12810032
0.12816147
0.12817973
0.12838556
0.10853626
0.086308454
0.06836483
0.05386716
0.04214801
0.032695274
0.025088512
0.018996136
0.014124855
0.010270848
0.0071645059
0.0048131776
0.0028989429
0.001671084
0.00066880387
0.13248914
0.13198948
0.13154067
0.1311455
0.1307921
0.13048174
0.13020589
0.12995675
0.12973106
0.1295279
0.12934573
0.12918214
0.12903472
0.12890159
0.12878135
0.12867286
0.1285751
0.12848719
0.12840837
0.12833804
0.12827574
0.12822114
0.12817405
0.1281344
0.12810229
0.12807799
0.128062
0.12805512
0.12805852
0.12807393
0.12810382
0.12815394
0.12823007
0.12835831
0.10863663
0.086384312
0.068422379
0.053910873
0.042181003
0.032719779
0.025106748
0.019009226
0.014134951
0.010277034
0.007170549
0.004813272
0.0029014749
0.0016578222
0.0006669322
0.13248058
0.13198543
0.13153478
0.13114017
0.13078906
0.13047923
0.13020332
0.129954
0.12972807
0.1295245
0.12934176
0.12917757
0.12902966
0.12889623
0.12877587
0.12866739
0.12856975
0.128482
0.12840336
0.1283332
0.12827106
0.12821662
0.12816968
0.12813019
0.12809822
0.12807407
0.12805824
0.12805155
0.12805505
0.12807108
0.12809918
0.12816057
0.1281786
0.12838942
0.1083373
0.086158122
0.068251969
0.053783022
0.042086306
0.03265112
0.025057923
0.018975904
0.014112265
0.010263753
0.0071608453
0.0048120663
0.0028984234
0.0016726075
0.00066889946
0.13247369
0.13196422
0.13151156
0.13111681
0.13076596
0.1304572
0.130182
0.12993315
0.12970757
0.12950437
0.12932211
0.12915852
0.12901132
0.12887863
0.12875901
0.12865127
0.12855435
0.12846729
0.12838931
0.12831978
0.12825823
0.12820433
0.12815789
0.12811885
0.12808731
0.12806357
0.12804812
0.12804183
0.12804579
0.12806215
0.12809208
0.12814643
0.12821623
0.12835157
0.10762012
0.085614035
0.067844079
0.053479275
0.041863115
0.032490625
0.024944843
0.018899609
0.014061305
0.010234943
0.0071411779
0.0048114887
0.0028937946
0.0017019849
0.00067519176
0.13245548
0.13193881
0.13147837
0.13108433
0.13073728
0.13042923
0.13015306
0.12990316
0.12967698
0.12947356
0.12929138
0.1291282
0.12898172
0.12885002
0.12873157
0.12862508
0.12852942
0.12844359
0.12836678
0.12829833
0.12823777
0.12818477
0.12813915
0.12810084
0.12806997
0.12804683
0.12803197
0.12802626
0.12803091
0.12804784
0.12807951
0.12813183
0.1282133
0.12834633
0.10654152
0.084793506
0.067227127
0.053019616
0.041526268
0.032249888
0.024777307
0.01878868
0.013990295
0.010197018
0.0071197204
0.0048133903
0.0028942931
0.0017304394
0.00069151745
0.13243813
0.13189822
0.13143156
0.13103861
0.13069408
0.13038786
0.13011239
0.12986262
0.12963658
0.12943333
0.12925134
0.12908847
0.1289426
0.12881188
0.12869475
0.12858982
0.12849582
0.12841167
0.12833647
0.12826954
0.12821036
0.12815862
0.1281141
0.12807678
0.12804677
0.12802443
0.12801033
0.12800538
0.12801087
0.12802871
0.12806182
0.12811542
0.12819882
0.12833891
0.1051407
0.08372897
0.066427639
0.052425121
0.041091849
0.031940702
0.024563811
0.01864906
0.013903564
0.01015248
0.0070985724
0.0048168462
0.0029009595
0.0017529653
0.00071724036
0.13241621
0.1318556
0.13137913
0.13098487
0.13064073
0.13033421
0.13005876
0.12980979
0.12958502
0.12938295
0.12920188
0.12903982
0.12889487
0.12876536
0.12864977
0.12854665
0.12845463
0.12837251
0.1282993
0.12823425
0.12817681
0.12812663
0.12808349
0.12804738
0.12801845
0.12799707
0.12798388
0.12797984
0.12798633
0.12800535
0.12803995
0.12809586
0.12818122
0.1283279
0.10347424
0.082459656
0.065473728
0.051716842
0.040575623
0.031574441
0.024312121
0.018485651
0.013803846
0.010102287
0.0070775014
0.0048206156
0.0029128634
0.0017687668
0.00080144714
0.13239316
0.13180523
0.13131898
0.13092484
0.13058099
0.13027263
0.12999539
0.12974616
0.12952253
0.12932223
0.12914294
0.12898253
0.1288392
0.12871144
0.1285978
0.12849681
0.12840706
0.12832726
0.12825635
0.12819348
0.12813806
0.1280897
0.12804818
0.12801348
0.12798579
0.12796552
0.12795338
0.12795038
0.12795803
0.12797845
0.12801479
0.12807332
0.12816204
0.12689551
0.10159366
0.081035083
0.064403428
0.050922751
0.039998082
0.031166035
0.024032935
0.018305848
0.013696053
0.010049393
0.007058235
0.004825731
0.0029307968
0.0017775676
0.0010108241
0.13236756
0.13175026
0.13125408
0.13085849
0.13051336
0.13020241
0.12992306
0.12967328
0.12945065
0.12925231
0.12907536
0.12891738
0.1287765
0.1286512
0.12854005
0.12844162
0.12835445
0.12827723
0.12820883
0.12814837
0.12809518
0.12804883
0.1280091
0.12797598
0.12794967
0.12793064
0.12791965
0.12791784
0.12792679
0.12794879
0.12798717
0.12804855
0.12814189
0.12421425
0.099555711
0.079502278
0.063254708
0.050071777
0.03938044
0.030730763
0.023737151
0.018117259
0.01358545
0.0099972992
0.0070433189
0.0048344388
0.0029559954
0.0017889991
0.0012755816
0.13233999
0.13169169
0.13118536
0.13078715
0.13043893
0.13012441
0.12984257
0.12959234
0.12937094
0.12917483
0.12900065
0.12884572
0.12870801
0.12858587
0.12847782
0.12838238
0.12829812
0.12822371
0.12815802
0.12810011
0.12804929
0.12800509
0.12796727
0.12793583
0.127911
0.1278933
0.12788357
0.12788304
0.12789343
0.12791719
0.12795789
0.12802239
0.12812133
0.12143013
0.097431583
0.07790585
0.06206124
0.049190063
0.038742288
0.030282808
0.023434841
0.017926902
0.013476987
0.0099494489
0.0070355372
0.0048492185
0.0029907307
0.0018088435
0.0016370875
0.13231115
0.13162948
0.13111254
0.13071092
0.13035865
0.1300398
0.12975539
0.12950498
0.12928513
0.12909157
0.12892055
0.12876917
0.12863522
0.12851686
0.12841245
0.12832044
0.1282394
0.12816801
0.12810516
0.12804991
0.12800153
0.12795954
0.12792369
0.12789398
0.12787068
0.12785437
0.12784597
0.12784681
0.12785876
0.12788445
0.12792772
0.12799565
0.12810101
0.11862844
0.095287463
0.07629065
0.060854969
0.048301744
0.03810193
0.029835758
0.023135943
0.017741966
0.01337605
0.0099098928
0.0070385979
0.0048729596
0.0030389526
0.0018392757
0.002195266
0.13228093
0.13156414
0.13103556
0.13062927
0.13027253
0.12994965
0.12966321
0.12941306
0.12919509
0.12900437
0.12883684
0.12868942
0.1285597
0.1284456
0.12834528
0.12825706
0.1281795
0.12811132
0.12805141
0.12799885
0.12795293
0.12791316
0.12787928
0.12785131
0.12782957
0.12781468
0.12780764
0.12780992
0.12782354
0.12785131
0.12789739
0.12796907
0.12808154
0.11586868
0.093174118
0.074695569
0.059664078
0.047427452
0.037474743
0.029401075
0.022848983
0.017568758
0.013287669
0.0098825193
0.007056822
0.0049082772
0.0031058817
0.0018803606
0.0031462329
0.13224908
0.13149622
0.13095502
0.13054238
0.13018081
0.12985491
0.12956762
0.12931842
0.12910265
0.128915
0.12875122
0.12860809
0.12848297
0.12837349
0.12827758
0.12819343
0.12811955
0.12805468
0.12799777
0.12794791
0.12790443
0.12786683
0.12783489
0.12780864
0.12778842
0.12777494
0.12776929
0.12777306
0.12778843
0.12781843
0.12786754
0.12794328
0.1280635
0.11319861
0.091129681
0.073151276
0.05851174
0.046584151
0.036873264
0.028988166
0.022581188
0.017412844
0.01321675
0.0098712236
0.0070955242
0.0049576333
0.0031985585
0.0019333015
0.0038548267
0.13221525
0.13142668
0.13087229
0.1304514
0.1300846
0.12975684
0.1294701
0.12922273
0.12900952
0.12882511
0.12866528
0.12852668
0.1284064
0.12830178
0.1282105
0.12813059
0.1280605
0.12799901
0.12794509
0.1278979
0.12785679
0.1278213
0.12779122
0.12776661
0.12774788
0.12773579
0.12773153
0.12773681
0.12775401
0.12778635
0.12783869
0.12791878
0.12804733
0.11065426
0.089181063
0.071679717
0.057415255
0.045784796
0.036307159
0.028604405
0.022338512
0.017279009
0.013168186
0.009879827
0.0071613193
0.0050233883
0.0033272664
0.0019973353
0.0040659394
0.13217966
0.13135613
0.13078798
0.1303578
0.12998561
0.12965701
0.12937214
0.12912743
0.12891714
0.12873613
0.12858038
0.12844646
0.12833118
0.12823155
0.12814499
0.12806938
0.12800312
0.127945
0.12789403
0.12784944
0.12781061
0.12777712
0.1277488
0.12772576
0.12770845
0.12769769
0.1276948
0.12770162
0.1277207
0.1277555
0.12781124
0.12789596
0.12803338
0.10825517
0.087343685
0.070293914
0.056385328
0.045037758
0.03578299
0.0282551
0.022125821
0.017171578
0.013147324
0.0099126287
0.0072627973
0.0051090082
0.00349446
0.0021874043
0.0041313513
0.13214208
0.13128392
0.13070246
0.13026292
0.12988551
0.12955704
0.1292751
0.12903373
0.12882665
0.12864919
0.12849764
0.1283685
0.12825827
0.12816366
0.12808181
0.12801048
0.12794801
0.12789318
0.12784508
0.12780298
0.12776631
0.12773471
0.12770805
0.12768647
0.12767048
0.127661
0.12765944
0.1276678
0.1276888
0.12772615
0.12778546
0.12787508
0.12802181
0.10601532
0.085627547
0.069003465
0.05543052
0.044350255
0.035306871
0.027945498
0.021948284
0.017094961
0.013160686
0.0099738554
0.0074119223
0.005215495
0.003723947
0.0024854747
0.0041679892
0.13210266
0.13121014
0.13061613
0.1301676
0.12978579
0.1294584
0.12918013
0.12894253
0.12873892
0.12856517
0.12841792
0.1282936
0.12818843
0.12809876
0.12802153
0.12795436
0.12789555
0.12784391
0.12779855
0.1277588
0.12772417
0.12769432
0.12766918
0.12764894
0.12763419
0.12762592
0.12762566
0.12763554
0.1276585
0.12769847
0.12776151
0.12785628
0.12801315
0.10393164
0.084026657
0.067804854
0.054549624
0.043722784
0.034880914
0.027678775
0.021811352
0.017055323
0.013217727
0.010071452
0.0076285338
0.0053496053
0.0040517116
0.0029674599
0.0045941084
0.13206146
0.13113518
0.13052956
0.13007271
0.1296876
0.12936219
0.12908807
0.12885449
0.12865453
0.12848465
0.12834181
0.12822233
0.12812212
0.12803726
0.12796448
0.1279013
0.12784599
0.12779736
0.12775459
0.12771705
0.12768429
0.12765606
0.12763231
0.1276133
0.12759969
0.12759255
0.12759352
0.12760491
0.12762985
0.12767253
0.12773946
0.1278397
0.12581845
0.10202712
0.082567646
0.066716897
0.053757848
0.043167789
0.034515085
0.027462548
0.021721291
0.017054286
0.013327382
0.010200899
0.0079377347
0.0054665094
0.0049041606
0.0037924909
0.0050279608
0.13202084
0.13106148
0.13044451
0.12998012
0.1295926
0.12926971
0.12899989
0.12877037
0.12857415
0.12840823
0.12826982
0.1281551
0.12805969
0.12797942
0.12791086
0.12785143
0.1277994
0.12775359
0.12771321
0.12767771
0.12764667
0.12761989
0.12759739
0.12757949
0.12756689
0.12756079
0.12756295
0.12757582
0.12760276
0.12764822
0.12771919
0.12782531
0.12343172
0.1002103
0.081185348
0.065692166
0.053023152
0.042667589
0.034205038
0.027300434
0.021695618
0.017118021
0.013517084
0.010390822
0.0083952059
0.0055622311
0.0063757305
0.0039132647
0.0050389636
0.13197413
0.13098482
0.1303588
0.12988844
0.12949978
0.12918014
0.12891483
0.12868945
0.12849717
0.12833545
0.12820162
0.12809166
0.12800094
0.12792506
0.12786048
0.12780459
0.12775562
0.12771244
0.1276743
0.12764067
0.12761121
0.12758575
0.12756438
0.12754749
0.12753584
0.12753073
0.12753406
0.12754844
0.12757749
0.12762593
0.12770125
0.12781389
0.12133366
0.098633016
0.080005519
0.064830902
0.052418186
0.04226799
0.033970338
0.02719887
0.021711359
0.017187634
0.013778206
0.010544195
0.0089857439
0.0064748622
0.0069120295
0.0044658808
0.0050676202
0.13195953
0.13092965
0.13028612
0.12980912
0.12941835
0.12910078
0.12883889
0.1286168
0.12842775
0.12826957
0.12813966
0.12803384
0.12794721
0.12787519
0.1278141
0.12776131
0.12771504
0.12767415
0.12763792
0.12760589
0.12757773
0.12755335
0.12753286
0.12751671
0.12750576
0.12750139
0.12750563
0.12752128
0.12755217
0.12760336
0.1276828
0.1278019
0.11915345
0.096993441
0.078807823
0.063990952
0.051872245
0.041964708
0.033862875
0.027226439
0.02189048
0.01750589
0.014148438
0.010875659
0.0099035659
0.0061146291
0.0078242023
0.0040551245
0.0035749798
0.0039922045
0.0081193962
0.01297839
0.021374479
0.028200698
0.035953909
0.04420238
0.052600539
0.062465218
0.072236944
0.084499188
0.097404909
0.11416439
0.12616891
0.12814603
0.12932624
0.12985648
0.12982117
0.12937672
0.12876219
0.12820235
0.12776986
0.12745187
0.12721983
0.12705246
0.12693318
0.12684852
0.12678832
0.12674496
0.12671288
0.12668811
0.12666792
0.12665045
0.12663459
0.12661973
0.12660574
0.12659262
0.12658081
0.12657083
0.12656457
0.12656559
0.12657959
0.12661548
0.12668268
0.12679731
0.12697302
0.12724874
0.12770754
0.12849732
0.0054622379
0.010874894
0.019943398
0.031491561
0.034203655
0.041665924
0.047106075
0.053572212
0.061320289
0.069114784
0.079530129
0.090674734
0.10533822
0.12162259
0.1282711
0.12936825
0.12983885
0.12975411
0.12928575
0.12867768
0.12814319
0.12773429
0.12743325
0.12721323
0.12705466
0.12694179
0.12686174
0.12680486
0.12676389
0.12673352
0.12671001
0.12669071
0.12667391
0.12665854
0.12664405
0.12663036
0.1266175
0.12660596
0.1265963
0.1265905
0.1265922
0.12660724
0.12664466
0.12671385
0.12683099
0.12700899
0.12728666
0.12774516
0.12852413
0.0060104148
0.011034531
0.024750047
0.040234025
0.038191195
0.046151886
0.049294041
0.055119428
0.061289911
0.067998413
0.076796415
0.086778597
0.09934056
0.11420847
0.12827333
0.12933906
0.12978766
0.12968073
0.12920554
0.12860919
0.12809693
0.12770675
0.12741929
0.12720924
0.12705813
0.12695074
0.12687474
0.12682084
0.12678205
0.1267533
0.12673099
0.12671261
0.12669649
0.12668166
0.12666761
0.12665429
0.12664177
0.12663059
0.12662136
0.12661612
0.1266186
0.1266348
0.12667386
0.12674516
0.12686489
0.12704527
0.12732487
0.12778254
0.12855125
0.0064096269
0.011221873
0.0255675
0.041657186
0.045325694
0.051237004
0.051831148
0.057403252
0.062068483
0.06819655
0.075472737
0.084819566
0.095488869
0.10957699
0.12496083
0.12929077
0.12972343
0.12959979
0.12912184
0.12853963
0.12804995
0.12767825
0.12740432
0.1272043
0.1270607
0.12695883
0.12688692
0.12683604
0.12679948
0.12677239
0.12675131
0.12673387
0.1267185
0.12670426
0.12669071
0.12667783
0.12666573
0.126655
0.12664628
0.12664173
0.12664512
0.12666262
0.12670349
0.12677708
0.12689955
0.12708247
0.12736406
0.12782089
0.12858092
0.0066517711
0.011374085
0.026329009
0.042359969
0.056511773
0.060163865
0.053835139
0.059522676
0.062688249
0.068777087
0.074539788
0.083740533
0.092568924
0.10633966
0.11950077
0.1292223
0.12964662
0.12951374
0.12903761
0.12847167
0.1280042
0.12765021
0.12738936
0.12719913
0.12706289
0.12696646
0.1268986
0.12685072
0.12681639
0.12679096
0.12677116
0.1267547
0.1267401
0.12672651
0.12671351
0.12670114
0.12668954
0.12667934
0.12667123
0.12666748
0.1266719
0.12669084
0.12673369
0.12680973
0.12693506
0.12712065
0.12740426
0.12786023
0.12861286
0.0068100636
0.011522634
0.02700703
0.042992482
0.049257261
0.070167767
0.055564721
0.061649172
0.06296223
0.069538629
0.073645342
0.083156342
0.090144311
0.10402413
0.11508399
0.12914087
0.1295615
0.12942464
0.12895299
0.12840477
0.12795908
0.12762227
0.12737422
0.12719368
0.12706472
0.12697369
0.12690987
0.12686499
0.12683289
0.12680916
0.12679065
0.12677521
0.12676143
0.12674851
0.12673613
0.12672434
0.1267133
0.12670372
0.12669632
0.12669349
0.12669905
0.12671958
0.12676457
0.12684323
0.12697155
0.12715992
0.12744559
0.12790074
0.12864664
0.0068994715
0.011668016
0.027650618
0.043529991
0.048457347
0.065957116
0.055726235
0.072467693
0.062982025
0.070455597
0.072516984
0.082795789
0.087862325
0.10225781
0.11129337
0.12904936
0.12947032
0.12933398
0.12886853
0.12833912
0.12791467
0.12759457
0.12735906
0.12718808
0.12706631
0.12698065
0.12692084
0.12687895
0.12684911
0.12682708
0.1268099
0.1267955
0.12678258
0.1267704
0.12675866
0.12674752
0.12673711
0.12672823
0.12672163
0.12671983
0.12672667
0.12674895
0.12679624
0.12687768
0.12700913
0.12720037
0.12748814
0.12794254
0.12868166
0.0069385824
0.011810147
0.028272841
0.044020594
0.048709741
0.063888598
0.055786786
0.069532164
0.062335737
0.081095423
0.072000029
0.082721611
0.085517009
0.10079343
0.10789858
0.12895078
0.12937507
0.12924308
0.12878471
0.1282749
0.12787105
0.12756722
0.12734401
0.12718245
0.12706775
0.12698743
0.12693161
0.1268927
0.12686512
0.12684482
0.12682898
0.12681566
0.12680364
0.12679224
0.12678122
0.12677074
0.12676106
0.12675296
0.12674726
0.1267466
0.12675484
0.12677904
0.12682881
0.12691319
0.12704789
0.12724209
0.12753203
0.1279859
0.12871763
0.0069370059
0.011952805
0.028876253
0.044466783
0.048410306
0.064840924
0.054664136
0.064957785
0.06111438
0.071076781
0.07028482
0.092079022
0.082771714
0.099486735
0.10481872
0.12630445
0.12927782
0.12915354
0.12870251
0.12821273
0.12782867
0.12754058
0.12732933
0.12717698
0.12706921
0.12699413
0.12694223
0.12690628
0.12688093
0.12686236
0.12684789
0.12683568
0.12682459
0.12681401
0.12680376
0.12679403
0.12678511
0.1267779
0.12677319
0.12677379
0.12678358
0.12680988
0.12686228
0.1269498
0.12708788
0.12728509
0.12757732
0.12803111
0.128755
0.0068967173
0.012098612
0.029460436
0.044874636
0.047563137
0.065041882
0.053451658
0.065350769
0.059571446
0.071377045
0.067987233
0.081708396
0.081373086
0.098418919
0.10207155
0.12393695
0.12917946
0.12906595
0.12862222
0.12815271
0.12778761
0.12751475
0.12731512
0.12717174
0.12707075
0.12700081
0.12695277
0.12691973
0.12689661
0.12687977
0.12686668
0.12685561
0.12684549
0.12683578
0.12682635
0.12681744
0.12680937
0.12680308
0.1267995
0.12680149
0.12681296
0.12684152
0.12689674
0.1269876
0.12712917
0.12732945
0.12762407
0.12807837
0.12879469
0.0068219921
0.012248932
0.030031919
0.045253932
0.046298038
0.06456965
0.051767739
0.065166164
0.057712592
0.071152001
0.066103924
0.081496623
0.07907809
0.097163959
0.099499827
0.12167995
0.12908009
0.12898049
0.12854378
0.12809474
0.12774788
0.1274898
0.12730149
0.12716683
0.12707253
0.12700762
0.12696338
0.12693322
0.12691231
0.12689721
0.12688551
0.1268756
0.12686648
0.12685769
0.12684913
0.1268411
0.12683395
0.1268287
0.12682631
0.12682983
0.12684312
0.12687413
0.12693232
0.12702672
0.12717192
0.12737528
0.12767239
0.12812782
0.1288368
0.0067193672
0.012406036
0.030589541
0.045608125
0.044734947
0.063567935
0.049811151
0.064649977
0.055632089
0.07062399
0.063984873
0.080550724
0.076829503
0.095711168
0.097066738
0.11941197
0.12898041
0.12889767
0.12846759
0.12803903
0.12770971
0.12746592
0.12728861
0.12716244
0.12707465
0.12701467
0.12697415
0.12694682
0.12692809
0.12691472
0.12690442
0.12689569
0.12688762
0.12687978
0.12687215
0.12686505
0.1268589
0.12685476
0.12685368
0.12685885
0.12687414
0.12690778
0.12696911
0.12706725
0.12721619
0.12742267
0.12772233
0.1281793
0.12888121
0.0065951273
0.012571418
0.03112737
0.045937993
0.042989888
0.062145452
0.047695347
0.063773173
0.053434687
0.069759655
0.061820165
0.079389187
0.074644872
0.094051679
0.094807506
0.11706708
0.12767428
0.12881829
0.12839446
0.12798613
0.12767351
0.12744344
0.12727663
0.12715873
0.12707722
0.12702199
0.12698508
0.12696051
0.12694394
0.12693227
0.12692338
0.12691585
0.12690885
0.12690202
0.12689536
0.12688926
0.12688419
0.12688126
0.12688161
0.12688856
0.126906
0.12694247
0.12700711
0.12710922
0.127262
0.12747164
0.12777394
0.12823262
0.12892791
0.0065575978
0.012746618
0.031646555
0.046249272
0.041122838
0.0604101
0.04550671
0.062562687
0.051213732
0.068545042
0.059671872
0.077917771
0.072557714
0.0921518
0.092733654
0.11462549
0.12530917
0.12874229
0.1283245
0.127936
0.12763936
0.12742241
0.12726573
0.12715575
0.12708029
0.12702965
0.12699624
0.12697436
0.1269599
0.12694993
0.12694245
0.12693614