/*--------------------------------*- C++ -*----------------------------------*\
| =========                 |                                                 |
| \\      /  F ield         | OpenFOAM: The Open Source CFD Toolbox           |
|  \\    /   O peration     | Version:  2506                                  |
|   \\  /    A nd           | Website:  www.openfoam.com                      |
|    \\/     M anipulation  |                                                 |
\*---------------------------------------------------------------------------*/
FoamFile
{
    version     2.0;
    format      ascii;
    arch        "LSB;label=32;scalar=64";
    class       volScalarField;
    location    "0.0025";
    object      Ma;
}
// * * * * * * * * * * * * * * * * * * * * * * * * * * * * * * * * * * * * * //

dimensions      [0 0 0 0 0 0 0];

internalField   nonuniform List<scalar> 
13761
(
0.29959515
0.29959512
0.29959509
0.29959506
0.29959503
0.29959501
0.29959498
0.29959496
0.29958011
0.29959493
0.29958014
0.29959491
0.29958016
0.29959488
0.29958018
0.29959486
0.2995802
0.29959484
0.29958022
0.29959482
0.29958024
0.29959479
0.29958025
0.29959477
0.29959135
0.29958027
0.29959475
0.29959135
0.29958029
0.29959473
0.29959134
0.29958031
0.29959471
0.29959134
0.29958032
0.29959469
0.29959134
0.29958034
0.29959467
0.29959133
0.29958036
0.29959465
0.29959133
0.29958037
0.29959463
0.2995921
0.29959133
0.29958039
0.29959461
0.2995921
0.29959133
0.29958041
0.29959459
0.2995921
0.29959132
0.29958042
0.29959458
0.2995921
0.29959132
0.29958044
0.29959456
0.2995921
0.29959132
0.29958045
0.29959454
0.2995921
0.29959132
0.29958047
0.29959452
0.2995921
0.29959132
0.29958048
0.2995921
0.29959131
0.29958049
0.29959229
0.2995921
0.29959131
0.29958051
0.29959229
0.2995921
0.29959131
0.29958052
0.29959229
0.2995921
0.29959131
0.29958053
0.29959229
0.2995921
0.29959131
0.29958055
0.29959229
0.2995921
0.29959131
0.29958056
0.29959229
0.2995921
0.2995913
0.29958057
0.29959229
0.2995921
0.2995913
0.29958059
0.29959229
0.2995921
0.2995913
0.29959231
0.29959229
0.2995921
0.2995913
0.29959231
0.29959229
0.2995921
0.2995913
0.29959231
0.29959229
0.2995921
0.2995913
0.29959231
0.29959229
0.2995921
0.2995913
0.29959231
0.29959229
0.2995921
0.29959129
0.29959231
0.29959229
0.2995921
0.29959129
0.29959231
0.29959229
0.2995921
0.29959129
0.29959231
0.29959231
0.29959229
0.2995921
0.29959129
0.29959231
0.29959231
0.29959229
0.2995921
0.29959231
0.29959231
0.29959229
0.2995921
0.29959231
0.29959231
0.29959229
0.2995921
0.29959231
0.29959231
0.29959229
0.2995921
0.29959231
0.29959231
0.29959229
0.2995921
0.29959231
0.29959231
0.29959229
0.2995921
0.29959231
0.29959231
0.29959231
0.29959229
0.2995921
0.29959231
0.29959231
0.29959231
0.29959229
0.2995921
0.29959231
0.29959231
0.29959231
0.29959229
0.2995921
0.29959231
0.29959231
0.29959231
0.29959229
0.29959231
0.29959231
0.29959231
0.29959229
0.29959231
0.29959231
0.29959231
0.29959229
0.29959231
0.29959231
0.29959231
0.29959229
0.29959231
0.29959231
0.29959231
0.29959231
0.29959229
0.29959231
0.29959231
0.29959231
0.29959231
0.29959229
0.29959231
0.29959231
0.29959231
0.29959231
0.29959229
0.29959231
0.29959231
0.29959231
0.29959231
0.29959229
0.29959231
0.29959231
0.29959231
0.29959231
0.29959231
0.29959231
0.29959231
0.29959231
0.29959231
0.29959231
0.29959231
0.29959231
0.29959231
0.29959231
0.29959231
0.29959231
0.29959231
0.29959231
0.29959231
0.29959231
0.29959231
0.29959231
0.29959231
0.29959231
0.29959231
0.29959231
0.29959231
0.29959231
0.29959231
0.29959231
0.29959231
0.29959231
0.29959231
0.29959231
0.29959231
0.29959231
0.29959231
0.29959231
0.29959231
0.29959231
0.29959231
0.29959231
0.29959231
0.29959231
0.29959231
0.29959231
0.29959231
0.29959231
0.29959231
0.29959231
0.29959231
0.29959231
0.29959231
0.29959231
0.29959231
0.29959231
0.29959231
0.29959231
0.29959231
0.29959231
0.29959231
0.29959231
0.29959231
0.29959231
0.29959231
0.29959231
0.29959231
0.29959231
0.29959231
0.29959231
0.29959231
0.29959231
0.29959231
0.29959231
0.29959231
0.29959231
0.29959231
0.29959231
0.29959231
0.29959231
0.29959231
0.29959231
0.29959231
0.29959231
0.29959231
0.29959231
0.29959231
0.29959231
0.29959231
0.29959231
0.29959231
0.29959231
0.29959231
0.29959231
0.29959231
0.29959231
0.29959231
0.29959231
0.29959231
0.29959231
0.29959231
0.29959231
0.29959231
0.29959231
0.29959231
0.29959231
0.29959231
0.29959231
0.29959231
0.29959231
0.29959231
0.29959231
0.29959231
0.29959231
0.29959231
0.29959231
0.29959231
0.29959231
0.29959231
0.29959231
0.29959231
0.29959231
0.29959231
0.29959231
0.29959231
0.29959231
0.29959231
0.29959231
0.29959231
0.29959231
0.29959231
0.29959231
0.29959231
0.29959231
0.29959231
0.29959231
0.29959231
0.29959231
0.29959231
0.29959231
0.29959231
0.29959231
0.29959231
0.29959231
0.29959231
0.29959231
0.29959231
0.29959231
0.29959231
0.29959231
0.29959231
0.29959231
0.29959231
0.29959231
0.29959231
0.29959231
0.29959231
0.29959231
0.29959231
0.29959231
0.29959231
0.29959231
0.29959231
0.29959231
0.29959231
0.29959231
0.29959231
0.29959231
0.29959231
0.29959231
0.29959231
0.29959231
0.29959231
0.29959231
0.29959231
0.29959231
0.29959231
0.29959231
0.29959231
0.29959231
0.29959231
0.29959231
0.29959231
0.29959231
0.29959231
0.29959231
0.29959231
0.29959231
0.29959231
0.29959231
0.29959231
0.29959231
0.29959231
0.29959231
0.29959231
0.29959231
0.29959231
0.29959231
0.29959231
0.29959231
0.29959231
0.29959231
0.29959231
0.29959231
0.29959231
0.29959231
0.29959231
0.29959231
0.29959231
0.29959231
0.29959231
0.29959231
0.29959231
0.29959231
0.29959231
0.29959231
0.29959231
0.29959231
0.29959231
0.29959231
0.29959231
0.29959231
0.29959231
0.29959231
0.29959231
0.29959231
0.29959231
0.29959231
0.29959231
0.29959231
0.29959231
0.29959231
0.29959231
0.29959231
0.29959231
0.29959231
0.29959231
0.29959231
0.29959231
0.29959231
0.29959231
0.29959231
0.29959231
0.29959231
0.29959231
0.29959231
0.29959231
0.29959231
0.29959231
0.29959231
0.29959231
0.29959231
0.29959231
0.29959231
0.29959231
0.29959231
0.29959231
0.29959231
0.29959231
0.29959231
0.29959231
0.29959231
0.29959231
0.29959231
0.29959231
0.29959231
0.29959231
0.29959231
0.29959231
0.29959231
0.29959231
0.29959231
0.29959231
0.29959231
0.29959231
0.29959231
0.29959231
0.29959231
0.29959231
0.29959231
0.29959231
0.29959231
0.29959231
0.29959231
0.29959231
0.29959231
0.29959231
0.29959231
0.29959231
0.29959231
0.29959231
0.29959231
0.29959231
0.29959231
0.29959231
0.29959231
0.29959231
0.29959231
0.29959231
0.29959231
0.29959231
0.29959231
0.29959231
0.29959231
0.29959231
0.29959231
0.29959231
0.29959231
0.29959231
0.29959231
0.29959231
0.29959231
0.29959231
0.29959231
0.29959231
0.29959231
0.29959231
0.29959231
0.29959231
0.29959231
0.29959231
0.29959231
0.29959231
0.29959231
0.29959231
0.29959231
0.29959231
0.29959231
0.29959231
0.29959231
0.29959231
0.29959231
0.29959231
0.29959231
0.29959231
0.29959231
0.29959231
0.29959231
0.29959231
0.29959231
0.29959231
0.29959231
0.29959231
0.29959231
0.29959231
0.29959231
0.29959231
0.29959231
0.29959231
0.29959231
0.29959231
0.29959231
0.29959231
0.29959231
0.29959231
0.29959231
0.29959231
0.29959231
0.29959231
0.29959231
0.29959231
0.29959231
0.29959231
0.29959231
0.29959231
0.29959231
0.29959231
0.29959231
0.29959231
0.29959231
0.29959231
0.29959231
0.29959231
0.29959231
0.29959231
0.29959231
0.29959231
0.29959231
0.29959231
0.29959231
0.29959231
0.29959231
0.29959231
0.29959231
0.29959231
0.29959231
0.29959231
0.29959231
0.29959231
0.29959231
0.29959231
0.29959231
0.29959231
0.29959231
0.29959231
0.29959231
0.29959231
0.29959231
0.29959231
0.29959231
0.29959231
0.29959231
0.29959231
0.29959231
0.29959231
0.29959231
0.29959231
0.29959231
0.29959231
0.29959231
0.29959231
0.29959231
0.29959231
0.29959231
0.29959231
0.29959231
0.29959231
0.29959231
0.29959231
0.29959231
0.29959231
0.29959231
0.29959231
0.29959231
0.29959231
0.29959231
0.29959231
0.29959231
0.29959231
0.29959231
0.29959231
0.29959231
0.29959231
0.29959231
0.29959231
0.29959231
0.29959231
0.29959231
0.29959231
0.29959231
0.29959231
0.29959231
0.29959231
0.29959231
0.29959231
0.29959231
0.29959231
0.29959231
0.29959231
0.29959231
0.29959231
0.29959231
0.29959231
0.29959231
0.29959231
0.29959231
0.29959231
0.29959231
0.29959231
0.29959231
0.29959231
0.29959231
0.29959231
0.29959231
0.29959231
0.29959231
0.29959231
0.29959231
0.29959231
0.29959231
0.29959231
0.29959231
0.29959231
0.29959231
0.29959231
0.29959231
0.29959231
0.29959231
0.29959231
0.29959231
0.29959231
0.29959231
0.29959231
0.29959231
0.29959231
0.29959231
0.29959231
0.29959231
0.29959231
0.29959231
0.29959231
0.29959231
0.29959231
0.29959231
0.29959231
0.29959231
0.29959231
0.29959231
0.29959231
0.29959231
0.29959231
0.29959231
0.29959231
0.29959231
0.29959231
0.29959231
0.29959231
0.29959231
0.29959231
0.29959231
0.29959231
0.29959231
0.29959231
0.29959231
0.29959231
0.29959231
0.29959231
0.29959231
0.29959231
0.29959231
0.29959231
0.29959231
0.29959231
0.29959231
0.29959231
0.29959231
0.29959231
0.29959231
0.29959231
0.29959231
0.29959231
0.29959231
0.29959231
0.29959231
0.29959231
0.29959231
0.29959231
0.29959231
0.29959231
0.29959231
0.29959231
0.29959231
0.29959231
0.29959231
0.29959231
0.29959231
0.29959231
0.29959231
0.29959231
0.29959231
0.29959231
0.29959231
0.29959231
0.29959231
0.29959231
0.29959231
0.29959231
0.29959231
0.29959231
0.29959231
0.29959231
0.29959231
0.29959231
0.29959231
0.29959231
0.29959231
0.29959231
0.29959231
0.29959229
0.29959231
0.29959231
0.29959231
0.29959231
0.29959231
0.29959231
0.29959231
0.29959231
0.29959231
0.29959231
0.2995923
0.29959231
0.29959231
0.29959231
0.29959231
0.29959231
0.29959231
0.29959231
0.29959231
0.29959231
0.2995923
0.29959231
0.29959231
0.29959231
0.29959231
0.29959231
0.29959231
0.29959231
0.29959231
0.29959231
0.29959232
0.2995923
0.29959231
0.29959231
0.29959231
0.29959231
0.29959231
0.29959231
0.29959231
0.29959231
0.29959231
0.29959235
0.29959231
0.29959231
0.29959231
0.29959231
0.29959231
0.29959231
0.29959231
0.29959231
0.29959231
0.29959231
0.29959237
0.29959231
0.29959231
0.29959231
0.29959231
0.29959231
0.29959231
0.29959231
0.29959231
0.29959231
0.29959231
0.29959345
0.2995924
0.29959232
0.29959231
0.29959231
0.29959231
0.29959231
0.29959231
0.29959231
0.29959231
0.29959231
0.29959231
0.2995936
0.29959243
0.29959232
0.29959231
0.29959231
0.29959231
0.29959231
0.29959231
0.29959231
0.29959231
0.29959231
0.29959375
0.29959245
0.29959232
0.29959231
0.29959231
0.29959231
0.29959231
0.29959231
0.29959231
0.29959231
0.29959231
0.29960447
0.29959389
0.29959247
0.29959232
0.29959231
0.29959231
0.29959231
0.29959231
0.29959231
0.29959231
0.29959231
0.29959231
0.29960511
0.29959402
0.29959249
0.29959233
0.29959231
0.29959231
0.29959231
0.29959231
0.29959231
0.29959231
0.29959231
0.29959231
0.29960573
0.29959415
0.29959251
0.29959233
0.29959231
0.29959231
0.29959231
0.29959231
0.29959231
0.29959231
0.29959231
0.29959231
0.29967269
0.29960631
0.29959427
0.29959253
0.29959233
0.29959231
0.29959231
0.29959231
0.29959231
0.29959231
0.29959231
0.29959231
0.29959231
0.29967468
0.29960685
0.29959438
0.29959255
0.29959234
0.29959231
0.29959231
0.29959231
0.29959231
0.29959231
0.29959231
0.29959231
0.29959231
0.29993909
0.29967654
0.29960736
0.29959448
0.29959257
0.29959234
0.29959232
0.29959231
0.29959231
0.29959231
0.29959231
0.29959231
0.29959231
0.29994486
0.29967826
0.29960783
0.29959458
0.29959259
0.29959234
0.29959232
0.29959231
0.29959231
0.29959231
0.29959231
0.29959231
0.29959231
0.29995024
0.29967985
0.29960828
0.29959468
0.2995926
0.29959234
0.29959232
0.29959231
0.29959231
0.29959231
0.29959231
0.29959231
0.29959231
0.30070298
0.29995519
0.29968131
0.29960869
0.29959476
0.29959261
0.29959234
0.29959232
0.29959231
0.29959231
0.29959231
0.29959231
0.29959231
0.29959231
0.30071473
0.29995973
0.29968263
0.29960906
0.29959484
0.29959263
0.29959235
0.29959232
0.29959231
0.29959231
0.29959231
0.29959231
0.29959231
0.29959231
0.30242551
0.30072556
0.29996385
0.29968382
0.2996094
0.29959491
0.29959264
0.29959235
0.29959232
0.29959231
0.29959231
0.29959231
0.29959231
0.29959231
0.29959231
0.30244337
0.30073545
0.29996756
0.29968489
0.29960971
0.29959498
0.29959265
0.29959235
0.29959232
0.29959231
0.29959231
0.29959231
0.29959231
0.29959231
0.3024596
0.30074443
0.29997087
0.29968583
0.29960999
0.29959504
0.29959266
0.29959235
0.29959232
0.29959231
0.29959231
0.29959231
0.29959231
0.29959231
0.30559596
0.30247415
0.30075248
0.29997377
0.29968664
0.29961024
0.29959509
0.29959267
0.29959235
0.29959232
0.29959231
0.29959231
0.29959231
0.29959231
0.29959231
0.30560982
0.30248705
0.30075962
0.29997628
0.29968734
0.29961046
0.29959514
0.29959268
0.29959235
0.29959232
0.29959231
0.29959231
0.29959231
0.29959231
0.29959231
0.31012414
0.3056214
0.30249831
0.30076586
0.29997839
0.29968791
0.29961065
0.29959519
0.29959269
0.29959235
0.29959232
0.29959231
0.29959231
0.29959231
0.29959231
0.29959231
0.31012264
0.30563067
0.30250794
0.3007712
0.29998011
0.29968837
0.29961081
0.29959522
0.29959269
0.29959235
0.29959232
0.29959231
0.29959231
0.29959231
0.29959231
0.29959231
0.31512064
0.31011873
0.30563768
0.30251598
0.30077566
0.29998145
0.29968872
0.29961094
0.29959525
0.2995927
0.29959236
0.29959232
0.29959231
0.29959231
0.29959231
0.29959231
0.31509983
0.3101124
0.30564244
0.30252243
0.30077924
0.29998241
0.29968895
0.29961104
0.29959528
0.2995927
0.29959236
0.29959232
0.29959231
0.29959231
0.29959231
0.29959231
0.31945574
0.31507702
0.3101037
0.30564499
0.30252732
0.30078196
0.29998299
0.29968908
0.29961112
0.2995953
0.29959271
0.29959236
0.29959232
0.29959231
0.29959231
0.29959231
0.29959231
0.32296498
0.31942513
0.31505221
0.31009266
0.30564537
0.30253068
0.30078382
0.29998321
0.2996891
0.29961117
0.29959532
0.29959271
0.29959236
0.29959232
0.29959231
0.29959231
0.29959231
0.29959231
0.32294615
0.31939295
0.31502541
0.31007933
0.30564361
0.30253251
0.30078485
0.29998307
0.29968902
0.29961119
0.29959533
0.29959271
0.29959236
0.29959232
0.29959231
0.29959231
0.29959231
0.29959231
0.32649983
0.3229259
0.31935923
0.31499661
0.31006373
0.30563973
0.30253285
0.30078506
0.29998258
0.29968885
0.2996112
0.29959534
0.29959272
0.29959236
0.29959232
0.29959231
0.29959231
0.29959231
0.29959231
0.33026813
0.32648555
0.32290417
0.31932396
0.31496579
0.31004585
0.30563374
0.30253169
0.30078443
0.29998174
0.29968857
0.29961117
0.29959534
0.29959272
0.29959236
0.29959232
0.29959231
0.29959231
0.29959231
0.33027059
0.32646894
0.32288091
0.31928718
0.31493296
0.31002574
0.30562568
0.30252907
0.30078301
0.29998056
0.29968821
0.29961113
0.29959534
0.29959272
0.29959236
0.29959232
0.29959231
0.29959231
0.29959231
0.33383569
0.33026999
0.32645019
0.32285601
0.31924889
0.31489812
0.31000342
0.30561558
0.30252501
0.30078079
0.29997906
0.29968775
0.29961106
0.29959533
0.29959272
0.29959236
0.29959232
0.29959231
0.29959231
0.29959231
0.33715885
0.33384066
0.33026634
0.32642946
0.32282933
0.3192091
0.31486129
0.30997891
0.30560347
0.30251953
0.3007778
0.29997723
0.29968721
0.29961097
0.29959532
0.29959272
0.29959236
0.29959232
0.29959231
0.29959231
0.29959231
0.34041549
0.3371819
0.33384354
0.33025968
0.32640691
0.3228007
0.31916782
0.31482248
0.30995227
0.30558939
0.30251266
0.30077404
0.2999751
0.29968659
0.29961086
0.29959531
0.29959272
0.29959236
0.29959232
0.29959231
0.29959231
0.29959231
0.34045393
0.33720181
0.33384438
0.3302501
0.32638266
0.32276994
0.31912503
0.31478172
0.3099235
0.30557336
0.30250442
0.30076954
0.29997266
0.29968589
0.29961074
0.29959529
0.29959271
0.29959236
0.29959232
0.29959231
0.29959231
0.34362875
0.3404897
0.33721849
0.33384327
0.33023771
0.32635676
0.32273692
0.31908074
0.31473904
0.30989265
0.30555543
0.30249484
0.3007643
0.29996993
0.29968511
0.29961059
0.29959527
0.29959271
0.29959236
0.29959232
0.29959231
0.29959231
0.34663052
0.34367927
0.34052263
0.33723191
0.33384026
0.33022258
0.32632924
0.32270153
0.31903493
0.31469447
0.30985974
0.30553562
0.30248394
0.30075834
0.29996692
0.29968426
0.29961043
0.29959524
0.29959271
0.29959236
0.29959232
0.29959231
0.29959231
0.3495151
0.34669775
0.34372799
0.3405525
0.3372421
0.33383538
0.33020475
0.32630007
0.32266372
0.31898759
0.31464805
0.30982482
0.30551398
0.30247175
0.30075169
0.29996364
0.29968334
0.29961025
0.29959522
0.2995927
0.29959236
0.29959232
0.29959231
0.29959231
0.35477322
0.35228401
0.34960126
0.34676302
0.34377465
0.3405791
0.33724918
0.33382866
0.33018423
0.3262692
0.32262352
0.31893872
0.3145998
0.30978791
0.30549053
0.30245829
0.30074434
0.29996009
0.29968236
0.29961005
0.29959519
0.2995927
0.29959236
0.29959232
0.29959231
0.29959231
0.35724304
0.35489954
0.35238772
0.34968517
0.34682623
0.34381892
0.34060227
0.33725331
0.33382007
0.330161
0.32623654
0.32258099
0.31888831
0.31454978
0.30974904
0.30546532
0.30244359
0.30073633
0.2999563
0.29968131
0.29960985
0.29959515
0.2995927
0.29959236
0.29959232
0.29959231
0.29959231
0.35959177
0.35738974
0.35502299
0.35248889
0.34976686
0.3468872
0.34386046
0.34062191
0.33725469
0.33380956
0.33013503
0.32620202
0.32253621
0.31883636
0.314498
0.30970825
0.30543837
0.30242768
0.30072766
0.29995227
0.29968021
0.29960962
0.29959512
0.29959269
0.29959236
0.29959232
0.29959231
0.36371674
0.36181478
0.359759
0.3575336
0.35514373
0.35258767
0.34984622
0.34694568
0.34389895
0.34063802
0.33725356
0.33379708
0.33010628
0.32616556
0.3224893
0.31878287
0.3144445
0.30966558
0.30540972
0.30241059
0.30071835
0.29994802
0.29967905
0.29960939
0.29959508
0.29959269
0.29959236
0.29959232
0.29959231
0.36569482
0.36392325
0.36200106
0.35992356
0.35767466
0.35526189
0.35268411
0.34992306
0.34700139
0.34393411
0.3406507
0.3372501
0.3337825
0.33007473
0.32612709
0.32244035
0.31872781
0.31438929
0.30962103
0.30537941
0.30239233
0.30070843
0.29994355
0.29967783
0.29960914
0.29959504
0.29959268
0.29959236
0.29959232
0.29959231
0.36909279
0.36757008
0.36591886
0.36412791
0.36218497
0.36008541
0.35781297
0.35537758
0.35277822
0.34999715
0.34705402
0.34396576
0.34066013
0.33724448
0.33376568
0.33004037
0.32608654
0.32238943
0.31867116
0.31433235
0.30957463
0.30534744
0.30237293
0.30069789
0.29993888
0.29967657
0.29960888
0.299595
0.29959268
0.29959235
0.29959232
0.29959231
0.3733139
0.37208677
0.3707716
0.36935112
0.36781141
0.36614143
0.36433065
0.36236643
0.36024453
0.35794863
0.35549091
0.35286993
0.35006822
0.34710332
0.34399383
0.34066654
0.33723679
0.33374646
0.33000324
0.32604387
0.32233664
0.31861292
0.31427374
0.30952641
0.30531386
0.30235241
0.30068677
0.29993401
0.29967525
0.29960861
0.29959495
0.29959267
0.29959235
0.29959232
0.29959231
0.37682714
0.37584831
0.37476969
0.37361293
0.37237394
0.37104489
0.36960839
0.36805148
0.36636243
0.36453137
0.3625454
0.36040096
0.35808171
0.35560192
0.35295915
0.35013601
0.34714913
0.34401836
0.34067024
0.33722709
0.33372469
0.32996343
0.32599909
0.32228207
0.3185531
0.31421346
0.3094764
0.3052787
0.30233081
0.30067507
0.29992897
0.2996739
0.29960833
0.29959491
0.29959266
0.29959235
0.29959232
0.37944094
0.37876951
0.37801314
0.3771432
0.37616016
0.3750763
0.37391117
0.37266037
0.37131729
0.3698646
0.36829021
0.36658177
0.36473001
0.36272186
0.36055475
0.35821231
0.35571063
0.35304573
0.35020032
0.34719134
0.34403947
0.34067153
0.33721535
0.3337002
0.32992103
0.32595218
0.3222258
0.31849168
0.31415153
0.30942464
0.305242
0.30230815
0.30066281
0.29992376
0.2996725
0.29960804
0.29959486
0.29959266
0.29959235
0.29959232
0.38288773
0.38244864
0.38198401
0.38150037
0.38098058
0.38040691
0.37978329
0.37910013
0.37833424
0.3774583
0.37647112
0.37538214
0.37420869
0.37294608
0.37158881
0.37011971
0.36852752
0.36679935
0.36492649
0.36289583
0.36070595
0.35834048
0.35581698
0.35312951
0.35026098
0.34722995
0.34405736
0.34067065
0.33720144
0.33367284
0.32987618
0.32590317
0.3221679
0.31842866
0.31408798
0.30937114
0.30520378
0.30228446
0.30065002
0.29991839
0.29967107
0.29960775
0.29959481
0.29959265
0.29959235
0.29959232
0.38596385
0.38573557
0.38549331
0.38522944
0.38494482
0.3846467
0.3843383
0.38401684
0.38366933
0.38327669
0.38283614
0.3823671
0.38187441
0.38134406
0.38076018
0.38012504
0.37942997
0.37865443
0.37777255
0.3767813
0.37568727
0.37450551
0.37323111
0.37185945
0.37037368
0.36876336
0.36701509
0.36512078
0.36306732
0.36085464
0.35846624
0.35592087
0.35321033
0.35031788
0.34726503
0.34407221
0.34066779
0.33718519
0.3336425
0.32982902
0.32585206
0.32210844
0.31836406
0.31402283
0.30931596
0.30516409
0.30225975
0.3006367
0.29991288
0.29966961
0.29960745
0.29959476
0.29959264
0.29959235
0.29959232
0.0082662621
0.025489556
0.044157223
0.064245322
0.085224239
0.1057627
0.12435424
0.14037146
0.15401383
0.16574154
0.17599154
0.18510361
0.19332551
0.20084147
0.20779076
0.21427927
0.2203888
0.22618256
0.23170841
0.23700477
0.24210398
0.24703062
0.2518033
0.25643671
0.26094067
0.26532141
0.26958191
0.27372214
0.2777402
0.28163291
0.28539695
0.28903035
0.29253371
0.29591199
0.29917592
0.3023422
0.30543421
0.30848224
0.31152339
0.31460127
0.3177653
0.32106869
0.32456514
0.32830505
0.33233509
0.33671362
0.34157011
0.34740401
0.35610017
0.3715862
0.38357336
0.38733555
0.3881039
0.38818869
0.38815368
0.38809834
0.38803625
0.38796884
0.38789572
0.3878145
0.38772507
0.38763179
0.3875351
0.38742882
0.38731269
0.3871919
0.38706476
0.38692247
0.38675472
0.38656073
0.38635067
0.38612937
0.38589218
0.38563421
0.3853558
0.38506103
0.38475014
0.38442065
0.38406365
0.38366577
0.38322366
0.38275022
0.38224837
0.38170728
0.38111305
0.38046636
0.37975921
0.37897385
0.37808597
0.37709071
0.37599171
0.37480168
0.37351544
0.37212919
0.37062647
0.36899764
0.36722893
0.36531284
0.36323636
0.36100087
0.35858957
0.35602219
0.35328801
0.350371
0.34729672
0.34408425
0.34066305
0.33716636
0.33360909
0.32977966
0.32579886
0.32204746
0.31829786
0.31395609
0.30925911
0.30512295
0.30223407
0.30062289
0.29990724
0.29966811
0.29960714
0.29959471
0.29959264
0.29959235
0.29959232
0.0082787226
0.025528069
0.044224026
0.06434205
0.085349575
0.10591039
0.12451619
0.14054218
0.15419061
0.16592314
0.17617734
0.18529326
0.19351878
0.20103818
0.20799075
0.2144824
0.22059493
0.22639155
0.23192012
0.23721906
0.24232071
0.24724966
0.25202452
0.25665999
0.26116589
0.26554848
0.26981078
0.27395275
0.27797254
0.28186701
0.28563285
0.28926811
0.29277339
0.29615363
0.29941953
0.30258775
0.30568159
0.30873125
0.31177376
0.31485263
0.31801719
0.3213206
0.32481655
0.32855548
0.33258397
0.33695971
0.34180931
0.34761214
0.35620174
0.37154189
0.38379146
0.38768821
0.38848724
0.38857145
0.38853005
0.38846879
0.38840293
0.38833459
0.38826381
0.38818912
0.3881103
0.38802793
0.38793836
0.3878358
0.38772078
0.3875955
0.38745703
0.38730184
0.38712768
0.38693742
0.3867362
0.3865224
0.38629048
0.38603846
0.38576658
0.38547559
0.38516261
0.38482518
0.38445857
0.3840553
0.38361152
0.38313364
0.38262251
0.38207048
0.38146574
0.38080734
0.38008787
0.37929252
0.3783986
0.37739941
0.37629552
0.37509722
0.37379908
0.37239802
0.37087805
0.36923031
0.3674408
0.36550267
0.363403
0.36114466
0.35871044
0.35612077
0.35336242
0.35042038
0.3473252
0.34409362
0.34065642
0.33714469
0.33357257
0.32972825
0.32574353
0.32198498
0.31823006
0.31388779
0.30920063
0.3050804
0.30220743
0.30060858
0.29990148
0.29966659
0.29960683
0.29959466
0.29959263
0.29959235
0.0082912775
0.025566871
0.044291303
0.064439427
0.085475703
0.10605895
0.12467908
0.14071389
0.15436841
0.16610577
0.17636418
0.18548394
0.19371306
0.20123585
0.20819165
0.21468636
0.22080178
0.22660115
0.23213231
0.23743369
0.24253762
0.2474687
0.25224554
0.25688285
0.26139048
0.2657747
0.27003855
0.27418204
0.27820333
0.28209932
0.28586673
0.28950363
0.29301062
0.29639264
0.29966035
0.30283035
0.30592588
0.30897707
0.31202085
0.31510062
0.31826564
0.32156901
0.3250644
0.3288023
0.33282921
0.33720217
0.34204503
0.34781803
0.35630529
0.3714942
0.38400348
0.38803784
0.38886863
0.38895228
0.3889042
0.38883666
0.38876672
0.38869725
0.38862869
0.38856053
0.38849253
0.38842163
0.38833985
0.38824153
0.38812809
0.38799874
0.38784902
0.38768055
0.38749936
0.38731255
0.38712072
0.38691499
0.38668853
0.3864425
0.38617742
0.38589066
0.38557604
0.38523079
0.38485447
0.3844456
0.38400003
0.38351764
0.38299701
0.38243383
0.38181837
0.38114809
0.38041603
0.37961048
0.37871049
0.37770744
0.37659871
0.37539216
0.37408204
0.37266592
0.37112836
0.36946132
0.36765067
0.36569025
0.36356727
0.36128604
0.35882876
0.35621646
0.35343345
0.35046613
0.34735067
0.34410043
0.34064778
0.33711994
0.33353299
0.32967489
0.32568605
0.32192102
0.31816068
0.31381795
0.30914057
0.30503649
0.30217986
0.30059381
0.29989562
0.29966505
0.29960651
0.2995946
0.29959262
0.29959235
0.0083039375
0.025605973
0.044359048
0.064537397
0.085602505
0.10620821
0.12484267
0.14088627
0.15454686
0.16628902
0.17655159
0.18567513
0.19390775
0.20143383
0.20839272
0.21489034
0.2210085
0.22681042
0.23234398
0.23764758
0.24275356
0.24768654
0.25246512
0.25710405
0.26161316
0.26599877
0.27026394
0.27440871
0.27843129
0.2823286
0.2860974
0.28973577
0.29324432
0.29662798
0.29989737
0.30306906
0.30616619
0.30921884
0.3122638
0.31534443
0.31850985
0.32181311
0.32530789
0.3290447
0.33306999
0.33744017
0.34227642
0.34802074
0.35640962
0.37144248
0.38420862
0.38838411
0.38924793
0.38933108
0.389276
0.38920181
0.38912747
0.38905664
0.38899022
0.38892858
0.38887162
0.38881276
0.3887395
0.38864599
0.38853466
0.38840173
0.38824091
0.38805885
0.38787004
0.38768639
0.38750434
0.38730725
0.3870865
0.38684653
0.38658854
0.38630656
0.3859908
0.38563786
0.38525169
0.38483702
0.38438956
0.38390252
0.38337215
0.38279754
0.38217115
0.38148875
0.38074378
0.37992778
0.37902167
0.37801485
0.37690134
0.37568651
0.37436428
0.37293284
0.37137735
0.36969062
0.36785851
0.36587558
0.36372918
0.361425
0.35894442
0.35630909
0.35350103
0.35050838
0.34737333
0.34410471
0.34063693
0.33709187
0.33349043
0.32961965
0.32562635
0.32185559
0.31808972
0.31374659
0.30907894
0.30499123
0.30215139
0.30057859
0.29988966
0.29966348
0.29960618
0.29959455
0.29959261
0.29959235
0.0083166488
0.025645193
0.04442694
0.064635478
0.085729317
0.10635737
0.12500604
0.14105835
0.15472491
0.16647176
0.17673834
0.18586549
0.19410142
0.20163056
0.2085923
0.21509257
0.2212132
0.22701741
0.23255308
0.23785862
0.24296639
0.24790099
0.25268107
0.25732136
0.26183173
0.26621853
0.27048484
0.27463073
0.27865446
0.28255296
0.28632304
0.2899628
0.29347284
0.29685808
0.30012911
0.30330243
0.30640113
0.30945517
0.31250129
0.31558271
0.31874848
0.32205158
0.32554568
0.32928134
0.33330495
0.33767233
0.3425021
0.34821881
0.35651295
0.3713854
0.38440531
0.38872596
0.38962429
0.38970702
0.38964459
0.38956335
0.38948425
0.38941186
0.38934752
0.38929246
0.38924683
0.38920068
0.38913674
0.38904875
0.38894017
0.38880423
0.38863253
0.38843661
0.38823966
0.38805895
0.38788717
0.38769938
0.38748467
0.38725086
0.38700028
0.38672368
0.3864073
0.38604683
0.38565067
0.38522998
0.38478052
0.38428867
0.38374824
0.38316188
0.38252429
0.38182949
0.38107124
0.38024451
0.37933223
0.37832171
0.37720345
0.37598029
0.3746458
0.37319875
0.37162498
0.36991817
0.36806429
0.36605866
0.36388875
0.36156149
0.35905732
0.35639852
0.35356513
0.35054731
0.34739333
0.34410642
0.34062361
0.33706033
0.33344507
0.3295626
0.32556439
0.32178867
0.31801719
0.31367373
0.30901579
0.30494467
0.30212204
0.30056294
0.29988362
0.2996619
0.29960586
0.29959449
0.29959261
0.29959235
0.0083294033
0.025684436
0.044494725
0.064733222
0.085855444
0.10650543
0.12516796
0.14122863
0.15490082
0.16665198
0.1769222
0.18605256
0.19429139
0.20182319
0.20878739
0.21528993
0.22141265
0.2272188
0.23275625
0.23806344
0.24317272
0.24810872
0.25289009
0.25753159
0.2620431
0.266431
0.27069838
0.27484536
0.27887022
0.28276993
0.28654131
0.29018247
0.29369403
0.29708087
0.30035355
0.30352851
0.30662877
0.3096842
0.31273143
0.3158136
0.31897966
0.32228253
0.32577589
0.32951032
0.3335322
0.33789676
0.34272011
0.34841023
0.35661298
0.37132098
0.3845913
0.38906184
0.38999648
0.39007896
0.39000887
0.38992019
0.38983602
0.38976193
0.38969974
0.38965146
0.38961761
0.38958496
0.38953128
0.38944963
0.38934457
0.38920629
0.38902398
0.38881392
0.38860836
0.38843044
0.38826947
0.38809173
0.38788342
0.38765593
0.38741309
0.3871425
0.38682607
0.3864582
0.38605188
0.38562497
0.3851734
0.38467651
0.38412562
0.38352714
0.38287806
0.38217051
0.38139853
0.38056076
0.37964225
0.37862807
0.37750509
0.37627352
0.37492658
0.3734636
0.37187119
0.37014393
0.36826801
0.3662395
0.36404596
0.36169546
0.35916732
0.35648463
0.35362575
0.35058311
0.34741079
0.34410549
0.34060751
0.33702522
0.33339709
0.32950378
0.3255001
0.32172026
0.31794311
0.3135994
0.30895115
0.30489685
0.30209184
0.30054689
0.29987752
0.2996603
0.29960553
0.29959444
0.2995926
0.29959235
0.0083418488
0.025722617
0.044560524
0.064827893
0.085977324
0.10664814
0.12532357
0.14139175
0.15506879
0.16682356
0.17709675
0.18622972
0.19447091
0.20200489
0.20897112
0.21547556
0.22160008
0.22740793
0.232947
0.23825571
0.24336645
0.24830384
0.25308654
0.25772933
0.26224209
0.26663122
0.27089984
0.27504809
0.27907427
0.28297537
0.28674824
0.29039098
0.29390422
0.2972928
0.30056724
0.30374393
0.30684582
0.30990268
0.31295106
0.31603399
0.31920034
0.32250298
0.32599558
0.32972878
0.33374893
0.33811072
0.34292779
0.34859235
0.35670684
0.37124669
0.38476381
0.38938999
0.39036329
0.39044595
0.39036805
0.3902717
0.3901823
0.39010654
0.3900467
0.39000557
0.38998408
0.38996582
0.38992339
0.38984896
0.38974824
0.3896083
0.3894156
0.38919111
0.3889765
0.38880124
0.3886517
0.38848476
0.38828327
0.38806223
0.38782749
0.38756355
0.38724764
0.38687254
0.38645586
0.3860225
0.38556872
0.38506651
0.38450471
0.38389366
0.38323275
0.38251206
0.38172582
0.38087663
0.3799518
0.378934
0.3778063
0.3765662
0.37520658
0.37372736
0.37211595
0.37036788
0.36846965
0.36641808
0.3642008
0.36182683
0.3592743
0.3565673
0.3536829
0.35061593
0.34742577
0.34410179
0.34058832
0.33698656
0.33334673
0.32944321
0.32543341
0.32165033
0.31786751
0.3135236
0.30888505
0.3048478
0.30206082
0.30053044
0.29987135
0.29965869
0.2996052
0.29959438
0.29959259