/*--------------------------------*- C++ -*----------------------------------*\
| =========                 |                                                 |
| \\      /  F ield         | OpenFOAM: The Open Source CFD Toolbox           |
|  \\    /   O peration     | Version:  2506                                  |
|   \\  /    A nd           | Website:  www.openfoam.com                      |
|    \\/     M anipulation  |                                                 |
\*---------------------------------------------------------------------------*/
FoamFile
{
    version     2.0;
    format      ascii;
    arch        "LSB;label=32;scalar=64";
    class       volScalarField;
    location    "2";
    object      yPlus;
}
// * * * * * * * * * * * * * * * * * * * * * * * * * * * * * * * * * * * * * //

dimensions      [0 0 0 0 0 0 0];

internalField   uniform 0;

boundaryField
{
    Side
    {
        type            empty;
    }
    Inlet
    {
        type            calculated;
        value           uniform 0;
    }
    Airfoil
    {
        type            calculated;
        value           nonuniform List<scalar> 
117
(
803.12739
793.81783
788.7997
787.45668
788.03495
791.33539
796.13811
802.47549
809.92544
818.08533
826.91572
836.04122
845.24621
854.14374
862.38029
869.84134
876.18078
881.06848
884.20032
885.28816
884.13822
881.04724
876.11051
869.62958
862.25795
853.96936
845.02121
835.97436
826.76589
817.7062
809.48183
802.34769
796.05956
790.14911
788.16069
789.10684
790.35253
793.65475
802.0876
1451.1023
1432.9588
1430.7511
1413.961
1399.8279
1383.6132
1366.7176
1352.993
1330.7799
1317.2892
1295.8516
1285.4439
1265.2032
1252.7667
1214.865
1192.7637
1164.262
1137.8597
1110.5255
1089.3876
1069.0515
1056.9323
1032.0174
1012.5332
988.78004
968.88772
949.18104
928.3292
911.22882
894.20996
877.94938
864.68996
851.07558
840.34513
830.34719
821.88929
816.0298
812.75742
810.24678
811.68076
812.58948
815.11489
826.29767
835.31366
843.12904
856.16048
870.02706
883.62518
899.44602
917.2228
936.65511
953.91942
973.93115
994.32414
1020.3942
1039.4981
1064.5196
1079.896
1105.2911
1130.2112
1156.17
1180.3119
1202.2581
1227.6819
1246.0358
1278.3822
1323.2044
1326.7791
1343.7166
1355.1131
1378.5466
1385.3578
1395.8782
1405.4118
1415.4367
1430.2747
1432.0342
1449.8092
)
;
    }
    Outlet
    {
        type            calculated;
        value           uniform 0;
    }
}


// ************************************************************************* //
