/*--------------------------------*- C++ -*----------------------------------*\
| =========                 |                                                 |
| \\      /  F ield         | OpenFOAM: The Open Source CFD Toolbox           |
|  \\    /   O peration     | Version:  2506                                  |
|   \\  /    A nd           | Website:  www.openfoam.com                      |
|    \\/     M anipulation  |                                                 |
\*---------------------------------------------------------------------------*/
FoamFile
{
    version     2.0;
    format      ascii;
    arch        "LSB;label=32;scalar=64";
    class       volScalarField;
    location    "0.15";
    object      rho;
}
// * * * * * * * * * * * * * * * * * * * * * * * * * * * * * * * * * * * * * //

dimensions      [1 -3 0 0 0 0 0];

internalField   nonuniform List<scalar> 
1376
(
0.6657483
0.66575218
0.66576847
0.66578904
0.66580551
0.66581864
0.66583193
0.66584809
0.6658722
0.66589897
0.66591794
0.66562934
0.66565802
0.66568929
0.6657149
0.66573579
0.66575614
0.66577952
0.66581167
0.66584478
0.66587184
0.66557515
0.66559742
0.66562424
0.66564831
0.66566851
0.6656881
0.66571167
0.66574574
0.66578062
0.66581173
0.66568641
0.66568463
0.66568873
0.66569376
0.66569823
0.66570346
0.66571368
0.66573579
0.66576449
0.66578559
0.6658563
0.66584005
0.66582719
0.66581592
0.66580509
0.66579382
0.66578733
0.66579294
0.66580647
0.66581183
0.66599019
0.66597158
0.66595461
0.66593889
0.66592288
0.66590487
0.66588887
0.66588156
0.6658839
0.66587468
0.66607259
0.66605739
0.66604265
0.66602927
0.66601501
0.66599755
0.6659796
0.66596754
0.66596497
0.66594808
0.66611753
0.66610662
0.66609561
0.66608625
0.66607582
0.66606178
0.66604602
0.66603459
0.66603204
0.66601466
0.66613987
0.66613235
0.66612431
0.66611836
0.66611142
0.66610103
0.66608879
0.66608053
0.66608033
0.66606676
0.66614872
0.6661444
0.66613881
0.66613422
0.6661297
0.66612219
0.66611347
0.66610908
0.66611163
0.66610351
0.66615077
0.66614853
0.66614465
0.66614098
0.66613763
0.66613199
0.66612599
0.66612514
0.66612986
0.66612733
0.66615383
0.66614981
0.66614823
0.66614581
0.66614265
0.66613984
0.66613528
0.66613149
0.66613294
0.66613953
0.6661412
0.66615096
0.6661478
0.66614598
0.66614449
0.66614183
0.66613924
0.66613553
0.66613342
0.66613622
0.6661438
0.66614817
0.66614846
0.6661459
0.66614363
0.6661421
0.66614
0.66613778
0.6661347
0.66613388
0.66613776
0.6661447
0.66615095
0.66614684
0.66614494
0.66614214
0.66613989
0.66613822
0.66613642
0.66613381
0.66613409
0.66613858
0.66614439
0.66615179
0.66614624
0.66614502
0.66614175
0.66613864
0.66613712
0.66613574
0.66613344
0.66613478
0.66613942
0.66614414
0.66615206
0.66614666
0.66614587
0.66614231
0.66613858
0.66613715
0.66613608
0.66613397
0.66613634
0.66614077
0.6661445
0.66615259
0.66614789
0.66614738
0.66614372
0.66613962
0.66613838
0.66613743
0.66613572
0.66613868
0.66614304
0.66614581
0.66615385
0.66615036
0.66615006
0.66614591
0.66614141
0.66614043
0.6661395
0.66613865
0.66614163
0.66614627
0.66614816
0.66615603
0.66615367
0.66615313
0.66614788
0.6661433
0.66614311
0.66614206
0.66614202
0.66614536
0.66615
0.6661514
0.66615893
0.66615751
0.66615548
0.66614877
0.66614517
0.66614612
0.66614482
0.66614526
0.66614947
0.66615384
0.66615498
0.66616209
0.66615988
0.66615706
0.66614929
0.66614778
0.66614892
0.66614725
0.66614815
0.66615332
0.66615736
0.66615847
0.6661649
0.66616072
0.6661576
0.6661498
0.66615097
0.66615111
0.66614885
0.66615076
0.66615669
0.66616035
0.66616157
0.66616697
0.66616151
0.66615532
0.66615123
0.66615383
0.66615297
0.66614932
0.66615377
0.66615993
0.66616306
0.6661646
0.66616869
0.66616158
0.66615389
0.66615463
0.66615564
0.66615391
0.66614998
0.66615731
0.6661632
0.66616578
0.66616723
0.66617017
0.66616704
0.6661611
0.6661567
0.66615555
0.6661566
0.66615493
0.66615321
0.66616029
0.66616606
0.66616894
0.6661696
0.66617186
0.66616496
0.66615942
0.66615828
0.66615652
0.66615771
0.66615735
0.66615691
0.66616355
0.66616883
0.66617198
0.66617156
0.66617423
0.66616334
0.66616125
0.66615797
0.6661584
0.66616089
0.66615897
0.66616118
0.66616751
0.66617176
0.66617333
0.66617439
0.66617712
0.66616501
0.66616153
0.66615837
0.66616216
0.66616437
0.66616013
0.66616627
0.6661712
0.6661741
0.66617459
0.66617765
0.66617999
0.6661646
0.66615994
0.66616247
0.66616666
0.66616572
0.66616597
0.66617072
0.666175
0.66617667
0.66617742
0.66617946
0.66618195
0.66616375
0.66616393
0.66616724
0.66616751
0.6661684
0.66617205
0.6661753
0.66617863
0.66617924
0.66617894
0.66618162
0.66618316
0.66616602
0.66616555
0.66616832
0.66616988
0.66616987
0.66617374
0.66617746
0.66618009
0.66618222
0.66618311
0.66618219
0.66618362
0.66618435
0.66616737
0.66616818
0.66617065
0.66617076
0.66617358
0.66617731
0.66618053
0.66618326
0.66618483
0.66618504
0.66618443
0.66618443
0.66618546
0.66616848
0.66617061
0.66617275
0.66617536
0.66617765
0.6661813
0.66618423
0.66618688
0.6661879
0.66618742
0.66618691
0.66618713
0.66618814
0.66616768
0.66616943
0.66617093
0.66617404
0.66617878
0.66618069
0.66618344
0.66618686
0.66618852
0.66618899
0.66618947
0.6661879
0.6661887
0.66619003
0.66617024
0.66617245
0.66617236
0.66617503
0.66618095
0.6661847
0.66618708
0.66619099
0.66619205
0.66619234
0.66619321
0.66619333
0.66619492
0.66619622
0.66616733
0.66617014
0.66617382
0.66617466
0.666179
0.66618537
0.6661888
0.66619072
0.66619247
0.66619405
0.66619529
0.66619734
0.66619964
0.66620028
0.66616442
0.66616478
0.6661656
0.66617097
0.66617664
0.66617953
0.66618444
0.66619008
0.66619314
0.6661945
0.66619794
0.6662017
0.66620607
0.66620505
0.6662059
0.66615465
0.66615899
0.66616111
0.66616396
0.66617002
0.66617581
0.66617812
0.6661831
0.66619059
0.66619471
0.66619752
0.66620136
0.66620491
0.66620462
0.66620254
0.66614816
0.66614894
0.66615292
0.66615848
0.66616095
0.66616422
0.66617133
0.66617672
0.66618045
0.66618736
0.66619482
0.66619933
0.66620221
0.66620291
0.66620355
0.66620059
0.66614417
0.66614445
0.66614693
0.66614842
0.6661518
0.66615616
0.66615963
0.66616357
0.66616841
0.66617314
0.66617814
0.66618284
0.66618671
0.66618876
0.66619015
0.66619073
0.66618748
0.66615151
0.66615071
0.66615012
0.6661508
0.66615308
0.66615519
0.66615744
0.66616117
0.666165
0.66616798
0.6661719
0.66617586
0.66617851
0.66618057
0.66618191
0.6661829
0.66618387
0.66616305
0.66615864
0.66615631
0.66615481
0.66615152
0.66615073
0.66615204
0.66615231
0.66615338
0.66615656
0.66615808
0.6661599
0.66616276
0.66616392
0.66616445
0.6661656
0.66616635
0.66616957
0.66619583
0.66619108
0.66618562
0.66618026
0.66617622
0.66617226
0.66616749
0.66616497
0.6661641
0.66616344
0.66616347
0.6661644
0.66616349
0.66616371
0.66616572
0.66616601
0.66616759
0.66617175
0.66617576
0.66623159
0.66622817
0.66622497
0.66622164
0.66621753
0.66621362
0.6662098
0.66620471
0.66619873
0.66619398
0.66619135
0.66618628
0.66618231
0.66617894
0.66617386
0.66617424
0.6661767
0.66617834
0.66617899
0.66618124
0.66626845
0.66626955
0.66627058
0.66627162
0.66627225
0.66627288
0.66627341
0.66627361
0.66627228
0.66626946
0.66626542
0.66626091
0.66625888
0.66625897
0.66625818
0.66625758
0.66625527
0.66625242
0.66625073
0.66624876
0.66624471
0.66624045
0.66623592
0.66624115
0.66624846
0.66625772
0.66626641
0.6662732
0.66627999
0.66628762
0.66629613
0.66630226
0.66630442
0.66630411
0.66630209
0.66629983
0.66630106
0.66630282
0.66630263
0.66630085
0.66629572
0.666293
0.66629164
0.66629312
0.66629402
0.66622577
0.66623353
0.66625138
0.66629188
0.66629162
0.66628718
0.66628817
0.66630157
0.66634525
0.6663514
0.66634918
0.6663645
0.6663987
0.66640787
0.66640137
0.66640684
0.66643501
0.66643066
0.66642212
0.66643814
0.66643698
0.66642536
0.66643299
0.66644375
0.66642521
0.66607513
0.66612047
0.66609249
0.66606786
0.66601926
0.66606366
0.66612894
0.66612522
0.66611219
0.66608037
0.66610254
0.66616208
0.66615257
0.66613211
0.66614207
0.66616386
0.66616525
0.66615792
0.66617405
0.66620096
0.66620105
0.66620538
0.66622776
0.6662383
0.66626218
0.66628086
0.66629396
0.66594747
0.66590135
0.66584398
0.66581913
0.66584365
0.66590345
0.66597437
0.66603839
0.66608809
0.66612262
0.66614447
0.66615691
0.66616296
0.66616527
0.66616572
0.66616561
0.66616566
0.66616644
0.66616801
0.66617009
0.66617211
0.66617362
0.66617461
0.6661753
0.6661759
0.66617649
0.66617742
0.66617891
0.66618113
0.6661834
0.66618499
0.66618673
0.66618827
0.66618996
0.66619204
0.66619822
0.66620131
0.66620556
0.66620077
0.66619772
0.66618626
0.66618325
0.66617148
0.66617895
0.66618322
0.66623837
0.66629681
0.66643368
0.66628888
0.66596875
0.66592222
0.66586676
0.66584394
0.6658683
0.66592635
0.66599429
0.66605554
0.66610311
0.66613615
0.66615691
0.66616867
0.66617433
0.66617644
0.66617684
0.66617667
0.66617675
0.66617751
0.66617891
0.66618057
0.66618196
0.66618271
0.66618292
0.66618294
0.66618305
0.66618298
0.66618314
0.66618387
0.66618534
0.66618713
0.66618865
0.66618997
0.66619091
0.66619257
0.6661945
0.66619931
0.6662012
0.6662029
0.66619798
0.66619584
0.66618608
0.66618307
0.66617123
0.66618036
0.66618558
0.66623941
0.66629695
0.66643878
0.66633991
0.66598797
0.66594181
0.66588868
0.6658683
0.66589296
0.66594891
0.66601331
0.66607118
0.6661162
0.66614767
0.66616748
0.66617866
0.66618411
0.66618627
0.66618686
0.66618694
0.6661872
0.66618792
0.66618897
0.66618998
0.66619057
0.66619064
0.66619027
0.66618963
0.66618908
0.66618856
0.66618838
0.66618859
0.66618939
0.66619092
0.66619273
0.66619434
0.66619497
0.66619582
0.66619653
0.66619929
0.66620056
0.66620168
0.66619686
0.66619591
0.66618573
0.66618279
0.66617071
0.66618125
0.66618961
0.66624259
0.66629478
0.6664275
0.66633647
0.66600766
0.66596197
0.66591069
0.66589213
0.66591651
0.66596994
0.66603084
0.66608546
0.66612799
0.66615781
0.66617667
0.66618728
0.6661924
0.6661944
0.66619489
0.66619491
0.66619508
0.66619557
0.66619623
0.66619674
0.66619681
0.66619639
0.66619571
0.66619496
0.66619429
0.66619364
0.66619305
0.66619268
0.666193
0.66619428
0.66619583
0.66619701
0.66619706
0.66619746
0.66619753
0.66619934
0.66620056
0.66620082
0.666197
0.66619604
0.66618539
0.6661829
0.66617049
0.66618237
0.66619449
0.66624685
0.66629297
0.66641371
0.66635634
0.66602733
0.66598132
0.66593036
0.66591221
0.66593533
0.66598603
0.66604383
0.66609579
0.66613636
0.66616485
0.66618293
0.6661931
0.666198
0.66619987
0.6662003
0.66620027
0.66620039
0.66620087
0.66620155
0.66620216
0.66620244
0.66620231
0.66620179
0.6662008
0.66619965
0.6661984
0.66619712
0.666196
0.6661956
0.66619599
0.66619667
0.66619728
0.66619692
0.66619795
0.66619869
0.66620075
0.66620147
0.66620091
0.66619747
0.66619489
0.66618411
0.66618083
0.66617006
0.66618358
0.66619734
0.66625099
0.66629444
0.66639283
0.66637538
0.66604478
0.66599887
0.66594785
0.66592946
0.66595089
0.66599895
0.66605401
0.66610371
0.66614267
0.66617005
0.66618741
0.66619722
0.66620197
0.66620377
0.66620417
0.66620415
0.66620428
0.66620474
0.66620536
0.66620593
0.66620627
0.66620638
0.66620606
0.66620511
0.66620369
0.6662019
0.66619998
0.66619823
0.66619679
0.66619657
0.66619673
0.66619749
0.66619765
0.6661993
0.66620017
0.66620217
0.66620236
0.66620152
0.66619714
0.66619285
0.66618236
0.66617844
0.66616986
0.66618444
0.66619837
0.6662523
0.66629885
0.66638574
0.66635153
0.66605506
0.66601082
0.6659619
0.6659446
0.66596538
0.66601144
0.66606417
0.6661118
0.66614914
0.66617538
0.66619196
0.66620126
0.6662057
0.66620733
0.66620765
0.66620759
0.66620767
0.66620809
0.66620857
0.66620889
0.66620896
0.6662086
0.66620797
0.666207
0.66620571
0.66620382
0.66620137
0.66619892
0.66619726
0.66619681
0.66619749
0.66619838
0.66619914
0.66620096
0.66620237
0.66620402
0.66620277
0.6662007
0.66619546
0.66619057
0.66618048
0.66617656
0.6661705
0.66618574
0.66619855
0.66625099
0.66630088
0.66639933
0.66635986
0.66605612
0.66601506
0.66597114
0.66595696
0.66597875
0.66602372
0.66607458
0.6661203
0.66615598
0.6661809
0.66619654
0.66620522
0.66620927
0.66621064
0.66621088
0.66621073
0.66621085
0.66621138
0.66621206
0.66621244
0.66621228
0.66621154
0.66621031
0.66620866
0.66620672
0.66620458
0.66620184
0.66619912
0.66619778
0.66619745
0.66619781
0.66619922
0.66620055
0.66620235
0.66620358
0.66620356
0.66620142
0.66619899
0.66619338
0.66618865
0.66617899
0.66617644
0.66617129
0.66618615
0.66619885
0.66624918
0.66630118
0.66639864
0.66636998
0.66605268
0.66601518
0.66597694
0.66596682
0.66599051
0.66603467
0.66608354
0.66612711
0.666161
0.66618458
0.66619922
0.66620711
0.66621064
0.66621185
0.66621199
0.6662118
0.66621184
0.66621217
0.66621262
0.66621284
0.6662127
0.66621202
0.66621058
0.66620896
0.66620668
0.66620429
0.66620307
0.6662015
0.6662001
0.6661993
0.66619938
0.66620032
0.66620154
0.66620283
0.66620338
0.6662026
0.6662001
0.66619694
0.66619164
0.66618782
0.66617836
0.66617607
0.66617161
0.66618691
0.66620094
0.66624852
0.66630047
0.66640119
0.66638339
0.66605203
0.6660179
0.66598563
0.66597964
0.66600481
0.6660474
0.66609346
0.66613408
0.66616539
0.66618696
0.66620005
0.66620684
0.66620963
0.66621056
0.66621051
0.66621044
0.66621067
0.66621087
0.66621094
0.66621049
0.6662096
0.66620887
0.66620802
0.66620678
0.66620545
0.66620453
0.66620358
0.66620256
0.66620201
0.66620144
0.66620142
0.66620175
0.66620239
0.66620303
0.66620275
0.66620174
0.6661991
0.66619529
0.66618985
0.66618636
0.66617781
0.66617583
0.66617292
0.66618937
0.6662058
0.6662516
0.66629629
0.66639901
0.66639364
0.66606055
0.66603069
0.66600451
0.66600154
0.66602596
0.66606485
0.66610638
0.66614286
0.66617095
0.66619015
0.66620121
0.66620629
0.66620804
0.666208
0.6662072
0.66620658
0.66620632
0.66620623
0.66620599
0.66620591
0.6662058
0.66620539
0.66620513
0.66620473
0.66620438
0.66620357
0.6662025
0.66620226
0.66620233
0.66620236
0.6662022
0.66620219
0.66620263
0.66620256
0.66620127
0.66619965
0.66619722
0.66619411
0.66618959
0.66618505
0.66617817
0.66617638
0.66617584
0.66619438
0.66621327
0.66625856
0.66629451
0.66639557
0.6664003
0.66609407
0.6660681
0.66604562
0.66604212
0.66606068
0.66609147
0.66612485
0.66615471
0.66617737
0.66619175
0.66620014
0.66620433
0.66620552
0.66620549
0.66620491
0.66620453
0.66620436
0.6662042
0.66620397
0.6662038
0.66620334
0.66620279
0.66620248
0.66620249
0.66620255
0.66620202
0.66620142
0.66620122
0.66620117
0.6662014
0.66620166
0.6662017
0.66620157
0.66620097
0.66619942
0.66619793
0.66619602
0.6661936
0.66619065
0.66618609
0.66618113
0.66618005
0.66618139
0.66619979
0.66622041
0.66627066
0.66630144
0.66637871
0.66641647
0.66617231
0.6661871
0.66619801
0.66620413
0.66620631
0.66620659
0.66620587
0.66620482
0.66620395
0.66620333
0.66620274
0.66620211
0.66620153
0.6662009
0.66620022
0.66619969
0.66619889
0.6661985
0.66619883
0.66619942
0.66620013
0.66620053
0.66620074
0.66620056
0.66620038
0.66620006
0.66619978
0.66619832
0.66619701
0.66619556
0.66619508
0.66619275
0.66618933
0.66618565
0.6661863
0.66618958
0.66620563
0.66622705
0.66628332
0.66631613
0.66638415
0.66640295
0.66619973
0.6661991
0.66619887
0.66619869
0.666199
0.66619891
0.6661989
0.666199
0.66619869
0.66619911
0.66619968
0.66619968
0.66619974
0.66619906
0.6661985
0.66619786
0.66619769
0.66619682
0.66619768
0.66619658
0.66619561
0.6661934
0.66619426
0.66619713
0.66621312
0.6662349
0.66629165
0.66633196
0.66639629
0.66638971
0.66619944
0.66619973
0.66619971
0.66619946
0.66619953
0.6661991
0.66619893
0.66619895
0.66619936
0.66620016
0.66620263
0.66620232
0.66620208
0.66620196
0.66620192
0.66620531
0.66622322
0.6662443
0.66629582
0.66634146
0.6664143
0.66640301
0.66620137
0.66620283
0.66620486
0.66620794
0.66620855
0.666209
0.66621038
0.66620952
0.66621508
0.66623337
0.66625564
0.66630075
0.66634273
0.66643302
0.66641601
0.66621485
0.66621632
0.66621798
0.66621813
0.66622492
0.66624249
0.66626912
0.66631127
0.6663431
0.66643879
0.66643128
0.66623606
0.66625103
0.66628011
0.66632733
0.66635509
0.66643709
0.66645572
0.6662881
0.66634186
0.66637767
0.66644663
0.66644805
0.6664003
0.66646783
0.66648237
0.66648877
)
;

boundaryField
{
    Side
    {
        type            empty;
    }
    Inlet
    {
        type            calculated;
        value           nonuniform List<scalar> 
48
(
0.66591419
0.66591913
0.66591744
0.66591509
0.66591439
0.66591908
0.66592538
0.66592872
0.6659257
0.66592462
0.66592786
0.66593018
0.66593082
0.66593057
0.66593285
0.66593688
0.66593554
0.66593285
0.66593441
0.66593616
0.66593652
0.66593637
0.66593567
0.66593554
0.66593572
0.66593547
0.66593516
0.66593487
0.665931
0.66592719
0.6659238
0.66592062
0.66592068
0.66591803
0.66591382
0.66591107
0.66590652
0.66590242
0.66590192
0.66590071
0.66589837
0.66589707
0.66589315
0.66588974
0.66588801
0.66588868
0.66588864
0.6658854
)
;
    }
    Airfoil
    {
        type            calculated;
        value           nonuniform List<scalar> 0();
    }
    Outlet
    {
        type            calculated;
        value           nonuniform List<scalar> 0();
    }
    procBoundary10to2
    {
        type            processor;
        value           uniform 0.66573618;
    }
    procBoundary10to3
    {
        type            processor;
        value           nonuniform List<scalar> 
23
(
0.66591609
0.66589733
0.665872
0.66584921
0.66583326
0.66581884
0.6658039
0.66578596
0.66576499
0.66576499
0.66562222
0.66594623
0.66596863
0.66598824
0.66600747
0.66602607
0.6660428
0.6660531
0.66605455
0.66605152
0.66605114
0.66606003
0.66609405
)
;
    }
    procBoundary10to9
    {
        type            processor;
        value           nonuniform List<scalar> 
66
(
0.66574136
0.66560451
0.66555829
0.66569348
0.66587707
0.6660111
0.66608887
0.6661293
0.66614826
0.66615505
0.66615588
0.66615588
0.6661605
0.66615707
0.66615399
0.66615164
0.66615016
0.66615
0.66615085
0.66615204
0.66615367
0.66615652
0.66615853
0.66616017
0.66616238
0.66616515
0.66616515
0.66616604
0.66616994
0.66616772
0.66616486
0.66616822
0.66616631
0.66616631
0.66616883
0.66616652
0.66616745
0.66616745
0.66616834
0.66616859
0.66616609
0.66616609
0.66616265
0.66615238
0.66615238
0.6661467
0.6661467
0.66614687
0.66615368
0.66615368
0.6661673
0.6661673
0.66620091
0.66620091
0.66623637
0.66623449
0.66623449
0.66626618
0.66626618
0.66622286
0.66623035
0.66623035
0.66623682
0.66622843
0.66622843
0.66600844
)
;
    }
    procBoundary10to11
    {
        type            processor;
        value           nonuniform List<scalar> 
58
(
0.66616108
0.66613843
0.6661164
0.66610803
0.66611493
0.66613242
0.6661534
0.6661534
0.66619484
0.66620328
0.66620819
0.66621011
0.66621036
0.66620929
0.66620754
0.6662057
0.66620417
0.66620288
0.6662018
0.66620071
0.66620071
0.6662058
0.66620383
0.66620219
0.66620135
0.66620094
0.66620023
0.66619966
0.66619941
0.66619941
0.66620213
0.66620144
0.66620079
0.66620059
0.66620061
0.66620034
0.6662007
0.6662007
0.66620544
0.66620725
0.66621012
0.66621362
0.66621362
0.66622089
0.66622367
0.66622491
0.66622791
0.66622791
0.66624666
0.66625972
0.66625972
0.66629812
0.66635222
0.66635222
0.66641205
0.66648973
0.66648973
0.66650497
)
;
    }
}


// ************************************************************************* //
