/*--------------------------------*- C++ -*----------------------------------*\
| =========                 |                                                 |
| \\      /  F ield         | OpenFOAM: The Open Source CFD Toolbox           |
|  \\    /   O peration     | Version:  2506                                  |
|   \\  /    A nd           | Website:  www.openfoam.com                      |
|    \\/     M anipulation  |                                                 |
\*---------------------------------------------------------------------------*/
FoamFile
{
    version     2.0;
    format      ascii;
    arch        "LSB;label=32;scalar=64";
    class       volScalarField;
    location    "0.35";
    object      k;
}
// * * * * * * * * * * * * * * * * * * * * * * * * * * * * * * * * * * * * * //

dimensions      [0 2 -2 0 0 0 0];

internalField   nonuniform List<scalar> 
1376
(
3.1647569
3.4852002
3.817213
4.070523
4.2892513
4.4955073
4.6817585
3.1193738
3.4383682
3.7713978
4.0292067
4.2523017
4.4596674
4.6437998
4.7942236
4.9061959
4.980417
5.0210624
5.0351992
5.0331624
5.0093556
4.9772932
4.9417987
4.9070994
4.876268
4.8510787
3.0775951
3.3945687
3.7295909
3.9924715
4.2197974
4.4279544
4.6097247
4.7559335
4.8629742
4.9323402
4.9688859
4.980606
4.9755519
4.9508728
4.9190575
4.8847945
4.8520111
4.8234501
4.8005799
4.7837932
4.7728587
4.767233
4.7655783
4.7658826
4.7686326
4.7735249
4.7800383
3.0363012
3.3524016
3.6905508
3.9586314
4.1896491
4.3980582
4.5771538
4.7190079
4.8210708
4.8856095
4.9181771
4.9275893
4.9193173
4.8939425
4.862433
4.8294081
4.7984966
4.7721123
4.7514424
4.7367261
4.7276895
4.7236225
4.7227479
4.7237615
4.7272848
4.7327508
4.7397502
4.7480596
4.7575507
4.7682183
4.7801494
4.7934533
4.8082358
4.8246583
2.9937544
3.3110305
3.653098
3.9260153
4.1599646
4.3680325
4.5441552
4.6815936
4.7787973
4.8387765
4.8676942
4.8750021
4.8638983
4.838129
4.8071472
4.7754737
4.7464477
4.7221727
4.7035953
4.6908445
4.6835969
4.6808989
4.680591
4.6824295
4.6866633
4.6926662
4.7001218
4.7088407
4.7187178
4.7297614
4.742063
4.7557245
4.7708515
4.787611
4.8062403
4.8270628
4.850515
4.8770842
2.9502341
3.2704395
3.6164471
3.8934263
4.1295272
4.3367871
4.5097801
4.6428804
4.7354815
4.791282
4.8169417
4.8224153
4.8090851
4.78325
4.7530658
4.7228934
4.6957875
4.6735683
4.6569912
4.6461216
4.6405412
4.6388902
4.6391381
4.6418401
4.6467242
4.6532321
4.6611216
4.6702313
4.6804753
4.6918752
4.7045249
4.7185198
4.7339671
4.7510311
4.7699635
4.7910955
4.8148452
4.8417127
4.8722818
4.9072941
4.9477596
4.9949378
2.9076837
3.2313854
3.5804854
3.8604755
4.0980097
4.3041588
4.4740295
4.6029999
4.6913344
4.7433482
4.7661134
4.7700181
4.7550105
4.7293686
4.7001949
4.6716384
4.6464735
4.6262642
4.6116206
4.6025531
4.5984529
4.5975381
4.5984708
4.6019751
4.6074515
4.6144392
4.6227385
4.6322134
4.6428027
4.6545384
4.667512
4.6818126
4.6975533
4.7149128
4.734136
4.7555572
4.7795957
4.8067311
4.8375321
4.8727625
4.9133939
4.9607005
5.016481
5.0833414
2.8683865
3.1950986
3.5459627
3.827847
4.066124
4.2708874
4.4376603
4.562705
4.6470666
4.6956002
4.7157377
4.7182757
4.7019646
4.6766614
4.6486064
4.6217065
4.5984632
4.5802111
4.5674414
4.5600813
4.5572637
4.5568802
4.558606
4.5628316
4.5688418
4.5762711
4.5849501
4.5947654
4.6056711
4.6177116
4.6309763
4.6455576
4.6615729
4.6792152
4.6987329
4.720435
4.7447323
4.7721023
4.8031169
4.8385354
4.879311
4.9267329
4.9825615
5.0493651
5.1309585
5.2332218
2.8333516
3.1624556
3.514001
3.7968783
4.0352084
4.2381774
4.4017076
4.522867
4.6033951
4.6486185
4.6662791
4.6675725
4.6501786
4.6252718
4.5983556
4.573081
4.5516918
4.5353246
4.5243673
4.51861
4.5168194
4.5169099
4.5194926
4.5243626
4.5308609
4.5386965
4.5477203
4.5578423
4.56904
4.581362
4.5948946
4.6097293
4.6259982
4.6439041
4.663702
4.68569
4.7102405
4.7378276
4.769043
4.8046192
4.8455186
4.8930052
4.9488148
5.0155179
5.0968224
5.198404
5.3290666
5.5233888
2.8017749
3.1333381
3.4852628
3.768658
4.0064278
4.2070653
4.3670062
4.4841187
4.560782
4.6027182
4.6179435
4.6181374
4.5997725
4.5752815
4.5494804
4.525756
4.506118
4.4915414
4.48231
4.4779865
4.4769247
4.4776385
4.481027
4.4864805
4.4934382
4.5016585
4.5110075
4.5214142
4.5328761
4.545452
4.5592277
4.5743036
4.5908179
4.6089734
4.6290269
4.6512794
4.6760814
4.7038877
4.7352876
4.7710237
4.8120207
4.8595202
4.9152567
4.9817947
5.0628006
5.1637154
5.2930163
5.4857826
6.0784514
2.7718348
3.1065818
3.459285
3.743155
3.979977
4.177818
4.3337919
4.4466109
4.5192689
4.557875
4.5709411
4.5697569
4.5507015
4.5266707
4.5019735
4.47973
4.4617434
4.448856
4.4412211
4.4381134
4.4375803
4.4390259
4.4431357
4.4491138
4.4565019
4.4650881
4.474751
4.4854352
4.4971519
4.5099644
4.5239637
4.5392636
4.5560123
4.5744117
4.594711
4.6171967
4.6422327
4.6702688
4.7018618
4.7377359
4.778802
4.8262714
4.8818951
4.9482554
5.0289867
5.1292499
5.257188
5.4485004
6.0468808
2.7418253
3.0805206
3.4346548
3.7191935
3.9549627
4.1498021
4.3016082
4.4099767
4.4785291
4.5138431
4.5250711
4.5221922
4.5027817
4.4793031
4.455737
4.4349402
4.418531
4.4072317
4.4010424
4.3989388
4.3987958
4.4010298
4.4057666
4.4122119
4.4199989
4.4289329
4.4389007
4.4498593
4.4618293
4.4748767
4.4890943
4.5046049
4.5215719
4.5401993
4.5607275
4.5834398
4.6086957
4.636939
4.6687184
4.7047221
4.7458398
4.7932809
4.8487991
4.9149685
4.9953647
5.0949359
5.2215602
5.4113961
6.0151214
2.7108896
3.0536895
3.409678
3.6950993
3.9299384
4.1218783
4.2695981
4.3735755
4.4380954
4.4702904
4.4798946
4.4752003
4.4557143
4.4329039
4.4105286
4.391191
4.3763394
4.3665787
4.3617075
4.360333
4.3606347
4.3636288
4.3688983
4.3757553
4.3839037
4.3931594
4.4034167
4.4146431
4.4268669
4.4401559
4.4546
4.4703217
4.4874931
4.5063262
4.5270621
4.5499853
4.5754474
4.603886
4.635834
4.6719635
4.7131353
4.7605555
4.815977
4.881916
4.9618849
5.0607156
5.1860866
5.3744778
5.9834924
2.6792456
3.0253705
3.3831434
3.6695165
3.9036372
4.092987
4.2369385
4.3368028
4.3975478
4.4268908
4.4350326
4.4286093
4.409249
4.3872144
4.3660904
4.3482424
4.3349601
4.3267068
4.3230124
4.3221714
4.3230782
4.3267705
4.3325062
4.3397308
4.348202
4.3577526
4.3682833
4.3797673
4.3922385
4.4057666
4.4204424
4.4363863
4.4537635
4.4727866
4.4937071
4.5168163
4.5424669
4.5710863
4.6031916
4.6394373
4.6806716
4.7280948
4.7834228
4.849097
4.9285945
5.0266073
5.1506912
5.3376553
5.9527962
2.6480425
2.9959644
3.3548991
3.642039
3.8755932
4.0627141
4.2033209
4.2994734
4.3568044
4.383583
4.3903938
4.382417
4.363283
4.3420762
4.3222246
4.305881
4.2941752
4.2873858
4.2847474
4.2843421
4.2860111
4.2903515
4.2965239
4.3040979
4.3128696
4.3226895
4.3334745
4.3452049
4.3579155
4.3716776
4.386584
4.4027549
4.4203481
4.4395654
4.4606573
4.4839283
4.5097403
4.5385149
4.5707624
4.6071189
4.6484352
4.695879
4.751097
4.8164915
4.8954846
4.9926256
5.1153714
5.3009881
5.9230073
2.619143
2.9670808
3.3261258
3.6135453
3.8464729
4.0315882
4.1691965
4.2620024
4.3162504
4.3406974
4.346273
4.3368982
4.3179984
4.2975962
4.2789712
4.2640876
4.2539122
4.2485019
4.2467664
4.2467558
4.2493001
4.2542464
4.2608482
4.2687736
4.2778421
4.287925
4.2989542
4.3109186
4.3238607
4.3378509
4.3529831
4.3693803
4.3871961
4.406621
4.4278914
4.4513114
4.4772545
4.5061521
4.5385167
4.5749823
4.616393
4.6638685
4.7189783
4.7840748
4.862531
4.9587688
5.0801207
5.2643693
5.8934208
2.594928
2.9413021
3.2992381
3.5861748
3.8181055
4.0011328
4.1358424
4.2254729
4.2768037
4.2990157
4.3033892
4.292661
4.2739086
4.2541978
4.2366688
4.2231208
4.2143503
4.2101428
4.2090409
4.2095599
4.2129036
4.218396
4.2254096
4.2336765
4.2430328
4.2533781
4.2646538
4.2768558
4.2900269
4.3042403
4.3195945
4.3362144
4.3542557
4.3738982
4.3953614
4.4189346
4.4449922
4.4739828
4.5064363
4.5429983
4.584498
4.6320093
4.6870175
4.7518123
4.8297189
4.9250133
5.0449235
5.2278073
5.8639572
2.5761296
2.9209555
3.2770579
3.5626873
3.79299
3.9735721
4.1051875
4.1915521
4.2399097
4.2598007
4.2628956
4.2507009
4.2318989
4.2126584
4.1959846
4.183533
4.1759242
4.172647
4.1719602
4.1730304
4.1769982
4.1829241
4.1902703
4.1988151
4.2084219
4.2190003
4.2305086
4.2429435
4.2563465
4.2707891
4.2863677
4.3032123
4.3214783
4.3413431
4.3630122
4.3867523
4.412929
4.4420008
4.4745187
4.5111466
4.552706
4.6002253
4.6551375
4.7196669
4.7970327
4.8913556
5.0098161
5.1913461
5.8345008
2.5607023
2.9066519
3.2614794
3.5455166
3.7735648
3.9512616
4.0794196
4.1622228
4.2073398
4.2246666
4.2263765
4.212441
4.1932873
4.174187
4.1579935
4.1462323
4.1393724
4.1366662
4.136211
4.137653
4.1419841
4.1481637
4.1557016
4.1644041
4.1741504
4.184872
4.1965403
4.2091648
4.2227786
4.2374376
4.2532436
4.2703196
4.2888163
4.308908
4.3307913
4.3547168
4.3810306
4.410192
4.4427616
4.4794156
4.5209733
4.5684648
4.623301
4.6876052
4.7644566
4.857794
4.9747996
5.1549981
5.8056835
2.5502557
2.8971408
3.2522261
3.5356366
3.7614296
3.9358814
4.0602478
4.1391867
4.1807734
4.1952238
4.1954698
4.1795162
4.1596845
4.1403582
4.1241929
4.1125662
4.1058507
4.1032446
4.1028241
4.1042435
4.1085357
4.1146761
4.1221723
4.1308343
4.1405496
4.1512636
4.1629615
4.1756545
4.1893781
4.2041944
4.2201917
4.2374839
4.2562154
4.2765432
4.2986533
4.3227842
4.3492611
4.3785303
4.4111497
4.4477954
4.4892938
4.5367175
4.5914745
4.6556003
4.7319716
4.8243193
4.9398572
5.1187706
5.7780631
2.5487622
2.8904933
3.2473931
3.5320056
3.756613
3.9276291
4.0481045
4.1230486
4.1610036
4.1729957
4.1709958
4.1532378
4.1325458
4.1127476
4.0962477
4.0842205
4.076955
4.0738197
4.0731618
4.0740794
4.0777319
4.0833621
4.0904313
4.0987324
4.1081487
4.1186238
4.1301416
4.1427158
4.156385
4.1712117
4.1872801
4.2047136
4.2236446
4.2442029
4.2665551
4.2909169
4.317586
4.3469847
4.3796597
4.4162855
4.457695
4.5050075
4.5596606
4.6236211
4.6995436
4.7908971
4.9049405
5.0826217
5.7508347
2.5497459
2.8869582
3.2451301
3.5314914
3.7559865
3.9246401
4.0416305
4.1129309
4.1476306
4.1576789
4.1530869
4.1339595
4.1125087
4.0922739
4.0753756
4.0627267
4.0544686
4.0501568
4.0487529
4.0488724
4.0511842
4.055624
4.0616724
4.0690992
4.077781
4.087647
4.0986655
4.1108411
4.1242033
4.1388114
4.1547589
4.1721628
4.1911592
4.2118842
4.2344638
4.2590674
4.2859639
4.3155298
4.3482798
4.3848937
4.4262122
4.4733826
4.5278921
4.5916585
4.6671325
4.757501
4.8700451
5.0464899
5.7239829
2.5520032
2.8868081
3.2445912
3.5321199
3.7566469
3.9242352
4.0386408
4.1069976
4.1390853
4.1476248
4.1407403
4.1207509
4.0988999
4.0785526
4.0615554
4.0485455
4.0394514
4.0338441
4.0310761
4.0302632
4.0308998
4.0334517
4.0377261
4.0435412
4.050802
4.0594496
4.069447
4.0807763
4.0934486
4.1075094
4.1230412
4.1401606
4.1590043
4.1797121
4.2024118
4.2272296
4.254355
4.2841218
4.3170039
4.3536358
4.3948795
4.4418947
4.4962032
4.5597133
4.6347153
4.7241252
4.8351657
5.0103432
5.6969819
2.5553063
2.8873903
3.2452644
3.5337475
3.7582768
3.9247455
4.0373095
4.1033623
4.1334308
4.1408183
4.1322254
4.1118383
4.0900097
4.0699618
4.0533072
4.0404578
4.0311479
4.0248383
4.0209477
4.0189251
4.0182743
4.0188342
4.020837
4.0243076
4.0292801
4.0358075
4.0439347
4.0536837
4.0650579
4.0780651
4.0927513
4.1092112
4.127574
4.1479814
4.1705647
4.1954486
4.2227668
4.2527461
4.2857975
4.3225143
4.363721
4.4105846
4.4646372
4.5278116
4.6022923
4.6907556
4.8003024
4.9742293
5.6711764
2.5593253
2.8892486
3.2473018
3.5363881
3.7607707
3.9260124
4.0367939
4.100845
4.1292415
4.1357003
4.1258462
4.1053988
4.0839139
4.064466
4.048477
4.0361962
4.027223
4.0209396
4.0167223
4.014043
4.0124951
4.0118476
4.0120053
4.0131299
4.0154035
4.0190467
4.0243121
4.0314189
4.0405041
4.051626
4.0648001
4.0800517
4.0974623
4.1171553
4.1392717
4.1639335
4.1912606
4.2214076
4.254644
4.2914919
4.3327265
4.3794628
4.4332318
4.4959892
4.5698706
4.6573769
4.7654809
4.9382292
5.6448087
3.7641533
3.9278035
4.0365676
4.0986118
4.1254567
4.1311109
4.1204649
4.1001787
4.0792385
4.0605526
4.0453504
4.0337454
4.0253166
4.0193887
4.0153377
4.0126433
4.0108839
4.0097713
4.009131
4.0089333
4.0092485
4.0103341
4.0125436
4.0162901
4.0219963
4.0300211
4.040568
4.0537211
4.0694934
4.0879073
4.1090516
4.1330636
4.1600633
4.1901627
4.2235363
4.2605346
4.3018414
4.3485062
4.4020017
4.4642939
4.5374928
4.6240029
4.7307171
4.9024139
5.6198067
4.1152063
4.0952125
4.0749237
4.0570732
4.0427477
4.0320195
4.0241685
4.0186484
4.0148465
4.012262
4.0105555
4.0094192
4.008648
4.0081205
4.0077908
4.0077094
4.0080055
4.0090212
4.0112975
4.0154518
4.0221447
4.0318819
4.0448689
4.0611285
4.0806227
4.1033917
4.1295611
4.1592327
4.1925123
4.2296066
4.2710068
4.3176449
4.3709096
4.4327359
4.5052123
4.5906724
4.6959845
4.8668017
5.5951863
4.0302916
4.0230128
4.017893
4.0143878
4.0121021
4.010482
4.009381
4.0086179
4.0080653
4.0076621
4.0073643
4.0071743
4.0071517
4.0074651
4.0085803
4.0113061
4.01661
4.0254085
4.0381611
4.0549269
4.0756569
4.1003117
4.1289908
4.1617624
4.1987236
4.2401579
4.2867913
4.3398833
4.4012861
4.4730383
4.5574077
4.6612966
4.8312801
5.5721136
4.0117581
4.0102286
4.0093071
4.0086007
4.0080853
4.0076819
4.0073781
4.0071517
4.0069796
4.0068729
4.0068969
4.0073379
4.0089631
4.0130153
4.0208457
4.0334022
4.0508287
4.0730624
4.0999856
4.1316273
4.1680247
4.2092864
4.2558783
4.3088421
4.3698865
4.4409324
4.5242034
4.6266622
4.7957965
5.5506612
4.0080885
4.0077075
4.0074048
4.007172
4.0070036
4.0068744
4.0067929
4.0067529
4.0068721
4.0077295
4.0107922
4.0178756
4.0304041
4.0488037
4.0729633
4.102645
4.1378174
4.1784855
4.2248788
4.2777163
4.3384485
4.408825
4.4910166
4.5920728
4.7604182
5.5299603
4.0070362
4.0068991
4.0068037
4.0067519
4.0067189
4.0067529
4.0071996
4.0095106
4.0161316
4.0290653
4.0489191
4.0755557
4.1086196
4.1480382
4.1938579
4.2464603
4.3069018
4.376652
4.4577809
4.5574743
4.7252073
5.5115695
4.006779
4.0067293
4.0067231
4.0067464
4.007011
4.0088846
4.0154257
4.029345
4.0513471
4.0811864
4.1184237
4.1630326
4.2151021
4.275199
4.3443734
4.4244728
4.5228171
4.6901453
5.4942401
4.0067382
4.0067612
4.0069703
4.0087191
4.0158116
4.0314148
4.0563882
4.0903597
4.132837
4.1837873
4.2433456
4.3119717
4.3911155
4.4881048
4.6550322
5.4760769
4.0067913
4.0069653
4.0086407
4.01736
4.0357571
4.0646234
4.1038664
4.1528834
4.2114477
4.2794292
4.3576877
4.4533789
4.6199501
5.4602898
4.009276
4.0200293
4.0426959
4.076996
4.1228891
4.1797296
4.2467402
4.3240833
4.41866
4.5851984
5.4483944
4.02519
4.0531144
4.0945414
4.1485994
4.2140509
4.2903039
4.3838234
4.5506667
5.4377989
4.0686392
4.1186401
4.1816476
4.2563894
4.3488323
4.5163617
5.4297879
4.0904991
4.149904
4.2225113
4.3136474
4.4822848
5.427516
4.1888637
4.278297
4.4484145
5.4268016
4.2429266
4.4147183
5.4213749
5.4270122
3.1578826
)
;

boundaryField
{
    Side
    {
        type            empty;
    }
    Inlet
    {
        type            turbulentIntensityKineticEnergyInlet;
        intensity       0.03;
        value           nonuniform List<scalar> 
32
(
12.061121
12.062237
12.062637
12.060848
12.058605
12.057934
12.057683
12.056788
12.053946
12.049953
12.047351
12.046027
12.044041
12.0407
12.037301
12.033743
12.029462
12.025937
12.024045
12.02228
12.018956
12.015359
12.01297
12.009335
12.00222
11.999823
11.998933
11.996334
11.995417
11.996334
11.995319
11.993914
)
;
    }
    Airfoil
    {
        type            kqRWallFunction;
        value           nonuniform List<scalar> 0();
    }
    Outlet
    {
        type            inletOutlet;
        inletValue      nonuniform List<scalar> 0();
        value           nonuniform List<scalar> 0();
    }
    procBoundary11to3
    {
        type            processor;
        value           uniform 3.2100295;
    }
    procBoundary11to4
    {
        type            processor;
        value           nonuniform List<scalar> 
26
(
3.1165559
3.0810783
3.046093
3.0081243
2.9666093
2.9237417
2.8825748
2.8447174
2.8095841
2.775568
2.741549
2.7075426
2.6745799
2.6442364
2.6178902
2.5947211
2.5724983
2.5564827
2.554055
2.5554118
2.5583076
2.562221
2.5671033
2.5733305
3.4701722
3.1165559
)
;
    }
    procBoundary11to10
    {
        type            processor;
        value           nonuniform List<scalar> 
58
(
3.2167741
3.5363822
3.8677644
4.1172373
4.3317474
4.536794
4.7250141
4.8362087
4.8362087
4.9528864
5.0316751
5.0762068
5.0928334
5.0928811
5.0699681
5.0375139
5.0006697
4.9639415
4.9307099
4.9030569
4.8321227
4.8321227
4.819217
4.8118689
4.8091349
4.8088554
4.8107743
4.8150388
4.8210242
4.7879081
4.7879081
4.7969884
4.8072591
4.8187964
4.8317146
4.8461204
4.8621744
4.8429593
4.8429593
4.8634649
4.8865943
4.9128351
4.9073567
4.9073567
4.9421102
4.9823617
5.0293923
5.0506183
5.0506183
5.1174584
5.1651901
5.1651901
5.2681039
5.3652203
5.3652203
5.5612041
6.1107172
6.1107172
)
;
    }
    procBoundary11to12
    {
        type            processor;
        value           nonuniform List<scalar> 
65
(
2.564524
2.8933634
3.2514438
3.5406494
3.5406494
3.7690695
3.9306178
4.0369579
4.096787
4.1220324
4.1268875
4.1268875
4.1101473
4.0905086
4.0709356
4.0539731
4.0405093
4.0405093
4.0287401
4.0220245
4.0173273
4.0140978
4.0140978
4.0115363
4.0101861
4.0094669
4.008783
4.008783
4.00831
4.0079517
4.0076639
4.007413
4.007413
4.0072974
4.007161
4.0070438
4.0070438
4.0070405
4.0069685
4.0069239
4.0069239
4.0069399
4.0069363
4.0069363
4.0069557
4.0070301
4.0072291
4.0072291
4.0073939
4.0109487
4.0109487
4.0137188
4.0335083
4.0335083
4.046312
4.046312
4.0652273
4.1193927
4.1193927
4.1558506
4.1558506
4.2077037
4.3811314
4.3811314
5.4543392
)
;
    }
}


// ************************************************************************* //
