/*--------------------------------*- C++ -*----------------------------------*\
| =========                 |                                                 |
| \\      /  F ield         | OpenFOAM: The Open Source CFD Toolbox           |
|  \\    /   O peration     | Version:  2506                                  |
|   \\  /    A nd           | Website:  www.openfoam.com                      |
|    \\/     M anipulation  |                                                 |
\*---------------------------------------------------------------------------*/
FoamFile
{
    version     2.0;
    format      ascii;
    arch        "LSB;label=32;scalar=64";
    class       volVectorField;
    location    "4e-05";
    object      wallShearStress;
}
// * * * * * * * * * * * * * * * * * * * * * * * * * * * * * * * * * * * * * //

dimensions      [1 -1 -2 0 0 0 0];

internalField   uniform (0 0 0);

boundaryField
{
    Side
    {
        type            empty;
    }
    Inlet
    {
        type            calculated;
        value           uniform (0 0 0);
    }
    Airfoil
    {
        type            calculated;
        value           nonuniform List<vector> 
1047
(
(-63.416854 -11.408642 -7.2054771e-22)
(-56.505683 -9.9876942 2.3860185e-17)
(-58.255515 -9.093954 2.3904011e-17)
(-58.497934 -7.5015269 -4.8226277e-17)
(-56.714887 -8.0040594 3.0092655e-36)
(-56.314764 -8.1686355 2.4372825e-17)
(-52.717596 -10.956698 3.7237213e-22)
(-53.042796 -10.931686 2.4507358e-17)
(-55.580861 -9.1884567 1.1585672e-33)
(-56.354906 -9.2236093 -4.9533099e-17)
(-56.211632 -9.9573834 3.7942026e-22)
(-57.371819 -9.6486408 2.4958445e-17)
(-57.615227 -10.146293 -3.8269365e-22)
(-58.387024 -10.297438 -5.0346037e-17)
(-58.571729 -10.947745 2.5279904e-17)
(-59.477349 -10.901464 -3.8719369e-22)
(-59.137817 -11.883295 1.5046328e-36)
(-59.942871 -11.910294 -2.5551946e-17)
(-59.192537 -13.079078 0)
(-60.192094 -12.907983 2.572173e-17)
(-60.516965 -13.426842 7.8860071e-22)
(-61.713503 -13.372752 2.5929062e-17)
(-62.558089 -13.760568 2.260622e-20)
(-63.497595 -14.18963 -2.6176683e-17)
(-64.62706 -14.509154 0)
(-68.64725 -13.472626 5.2925521e-17)
(-65.501088 -15.977923 2.6463206e-17)
(-68.751576 -14.952556 5.0856588e-34)
(-69.064951 -15.361447 -2.6775813e-17)
(-70.206588 -15.479656 1.5046328e-36)
(-71.325186 -15.581338 -3.0483654e-34)
(-72.606012 -15.970896 3.0092655e-36)
(-72.384955 -17.893623 -2.7293396e-17)
(-74.170319 -17.334628 -2.740852e-17)
(-75.08714 -17.240273 5.494325e-17)
(-75.579462 -18.420898 -2.762256e-17)
(-75.923849 -19.493037 8.463943e-22)
(-74.935182 -22.107973 -5.5677293e-17)
(-75.800778 -22.866116 3.0092655e-36)
(-76.506094 -23.452516 -2.8040488e-17)
(-77.09865 -24.295951 2.8169789e-17)
(-77.975936 -25.026052 8.6438751e-22)
(-79.209024 -25.49948 2.8393135e-17)
(-79.698987 -26.346011 2.8519882e-17)
(-79.868115 -27.042035 -8.7429277e-22)
(-80.493212 -27.410905 2.8669251e-17)
(-81.188063 -28.696584 0)
(-81.633904 -29.518424 8.8336779e-22)
(-84.286967 -30.384281 -2.34218e-20)
(-83.065286 -31.441905 2.9078703e-17)
(-83.607253 -33.316841 8.9209578e-22)
(-86.371006 -32.713274 2.928457e-17)
(-88.035743 -35.963229 -2.9495726e-17)
(-91.807871 -35.581991 -3.0092655e-36)
(-90.783517 -37.431132 -9.0368937e-22)
(-97.427515 -35.993369 -2.9482717e-17)
(-97.943643 -38.251869 -1.796453e-24)
(-101.85602 -38.966433 4.2199716e-20)
(-102.82975 -41.88338 0)
(-97.452778 -48.678549 -2.9958829e-17)
(-92.217946 -53.230349 2.9997383e-17)
(-104.90521 -47.097169 -2.9928518e-17)
(-90.1057 -51.1005 -1.8578076e-20)
(-72.270959 -52.788611 2.6724717e-17)
(-108.63272 -33.97663 -8.780814e-22)
(-92.479949 -52.977031 -1.8453098e-21)
(-89.174852 -62.527826 9.2459331e-22)
(-145.34951 -55.987131 3.0900615e-17)
(-216.13601 -5.820121 -3.0092655e-36)
(-395.84248 168.35748 -1.745374e-34)
(-169.2627 -44.517693 3.1003878e-17)
(-175.31663 -33.744566 3.1238879e-17)
(-333.35571 124.65788 -3.0092655e-36)
(-480.1485 301.03444 -9.2551547e-22)
(-548.02748 425.79796 -1.6868766e-23)
(-560.12271 525.34628 1.6522074e-21)
(-551.94453 644.6732 -7.755298e-22)
(-484.88144 702.49549 -6.6504768e-34)
(-415.84816 737.60687 -1.9466567e-17)
(-265.32407 704.46183 -6.0185311e-36)
(-113.51377 529.76249 3.5555563e-17)
(-163.59766 252.88155 -1.1342962e-21)
(-242.15151 -116.36371 1.9949774e-23)
(-25.798078 -37.048252 8.6824004e-22)
(-94.532999 -112.30067 -9.1396477e-22)
(-299.32196 -140.13993 5.3930479e-22)
(-396.28993 -302.43954 4.5562876e-18)
(40.336348 73.324147 -1.6957666e-18)
(-85.370342 -56.666822 1.4733447e-18)
(-43.273199 -23.860903 -6.0185311e-36)
(-375.16309 -390.80973 -3.1737534e-17)
(-355.29992 -423.03852 4.3012521e-24)
(-364.36311 -350.99787 1.391501e-17)
(-354.85343 -375.87293 4.179235e-22)
(-354.87562 -323.96115 -7.8621342e-22)
(-134.02957 -59.525656 -5.7567572e-18)
(-163.42154 -78.943679 -1.1435209e-34)
(-31.40623 -634.09869 7.2069559e-35)
(-221.84587 -537.16127 -2.1763102e-34)
(-206.48281 -570.97473 9.9644919e-19)
(-156.44589 -479.17927 4.2577187e-17)
(-121.75128 -291.54968 7.6232134e-22)
(-120.51039 -230.27672 -8.182184e-22)
(-91.266066 -194.18323 8.4908246e-22)
(-66.490613 -177.15581 1.5046328e-36)
(-31.431892 -141.54886 -1.3749059e-17)
(-23.924338 -112.82738 -9.0310353e-22)
(21.669629 -93.091174 -2.7947367e-17)
(-0.26193569 -78.538881 -1.8714724e-21)
(28.083807 -92.758235 1.341699e-17)
(33.197433 -111.42504 -7.6941562e-22)
(-45.776644 -77.289978 1.4723817e-17)
(-39.111184 -83.82428 2.8983558e-17)
(-75.281823 -40.721208 1.7343256e-17)
(3.6328101 -84.165598 1.5631808e-17)
(-609.84939 -13.602605 3.3971849e-24)
(7.2745403 -76.05019 7.8968541e-18)
(-452.46007 -84.342041 -1.9314477e-17)
(26.687314 -50.728736 -5.6515613e-22)
(29.92284 -45.563209 7.6208825e-20)
(49.748215 -24.416465 -3.7615819e-37)
(30.193893 -36.793219 -8.5273255e-18)
(7.0694503 -47.096914 4.6176504e-21)
(39.359321 -33.679621 6.7363547e-18)
(67.823493 -24.413129 -4.1450924e-38)
(64.7042 -13.180651 2.6462976e-20)
(12.639443 -57.680852 0)
(-325.51365 -172.11891 4.4129206e-18)
(93.917302 4.7923504 -1.4394355e-22)
(88.036339 24.783565 -5.142608e-18)
(-863.46544 -227.33742 -2.4065702e-22)
(-813.98919 -209.83778 -8.2174062e-18)
(14.049081 -15.870798 -9.4935654e-18)
(18.339173 -9.0406393 -1.3182627e-23)
(81.412013 22.069881 5.0011155e-22)
(76.118108 27.608773 -1.1812034e-17)
(78.244514 29.411472 -1.0284812e-17)
(68.615038 31.026192 -2.6204711e-17)
(68.472101 33.693264 -9.1378116e-22)
(38.802641 21.709353 -1.7150907e-17)
(27.210624 17.350688 -8.5627922e-20)
(23.503868 17.031293 -7.3963168e-20)
(29.739842 20.60199 -1.8191069e-17)
(16.291767 17.600537 1.1460655e-21)
(15.887037 18.702026 3.4534849e-34)
(18.340716 20.767852 1.1329364e-21)
(-4.0489632 12.409041 -1.1562246e-21)
(13.914199 20.370436 0)
(14.343259 21.567737 -3.7103915e-17)
(11.273582 22.351296 -3.7106966e-17)
(-10.02929 13.234715 5.3001154e-21)
(20.961093 27.299093 3.6213312e-17)
(7.1819317 21.916594 6.0185311e-36)
(-16.715392 7.3032073 8.9140698e-38)
(-31.986054 0.86759922 -8.0820976e-38)
(14.178255 26.431483 3.9120452e-34)
(-196.51331 -61.773707 3.8511357e-17)
(6.271609 24.999593 6.0185311e-36)
(39.882829 44.24661 -3.2427012e-19)
(21.321787 33.510896 6.0185311e-36)
(1.7267235 24.297559 3.553848e-17)
(-17.988418 13.689023 1.1057073e-21)
(-4.8310844 21.122673 -1.0996179e-21)
(-0.26726684 24.169615 2.348191e-33)
(-6.0009716 20.92128 6.0185311e-36)
(-7.0087443 20.44206 -3.5505487e-17)
(-1.6787593 24.329587 -3.5136424e-17)
(-5.3901302 21.999256 -1.618266e-24)
(-3.9652073 23.377004 -3.4858114e-17)
(-1.5556736 24.982832 -3.4390152e-17)
(-7.5363756 21.189006 1.0531749e-21)
(-6.3075061 22.058032 -1.0492902e-21)
(-7.2852336 21.795055 -3.4212175e-34)
(-4.8426028 24.194396 -5.1427878e-38)
(-6.0554793 23.165368 -7.273943e-20)
(-7.6371586 22.394248 -1.0345103e-21)
(-8.1232707 21.739964 -3.3624642e-17)
(-8.1284164 22.278553 -6.711077e-17)
(-9.4420386 21.062152 3.0092655e-36)
(-10.459982 20.700161 -3.3336829e-17)
(-10.054176 20.733903 3.2979377e-17)
(-12.293768 18.447573 -4.1594678e-20)
(-15.813198 17.408454 1.0108224e-21)
(-19.362835 14.160653 -1.005609e-21)
(-14.208902 18.582423 -4.099263e-20)
(-12.349808 20.275787 9.8736835e-25)
(-19.377177 14.47727 3.2581903e-17)
(-24.508913 9.6944073 -3.2492694e-17)
(-18.73728 13.527402 -6.441341e-17)
(-11.860507 20.521517 9.7909452e-22)
(-13.36636 20.303281 -9.8123659e-22)
(-13.81427 18.967015 -3.1696678e-17)
(-31.538753 0.43322509 3.1665278e-17)
(-44.639092 -11.593969 3.1613303e-17)
(-33.048063 1.0661009 -6.2256979e-20)
(-24.038966 9.9491393 3.1497992e-17)
(-20.061089 13.976333 -3.1283089e-17)
(-26.288955 7.8632352 -3.1185531e-17)
(-29.351136 5.0690708 -3.1142703e-17)
(-24.636299 8.7191254 -6.1650066e-17)
(-26.155293 7.4902852 9.3936993e-22)
(-25.841946 6.1622765 -8.979234e-25)
(-20.502668 12.970339 -3.0448918e-17)
(-29.370874 5.0669409 9.316425e-22)
(-29.269921 4.7945796 -9.269446e-22)
(-29.960753 3.7503361 3.0234579e-17)
(-28.924775 5.0257319 -1.8366888e-21)
(-32.947595 0.84975657 9.1563914e-22)
(-30.505979 3.4897821 3.1958753e-38)
(-33.00553 0.41829622 -9.0610225e-22)
(-33.153714 0.37418944 -2.9621137e-17)
(-35.515544 -1.9055383 5.9267332e-17)
(-34.980288 -1.1972219 8.983002e-22)
(-43.497143 -10.989118 6.0346055e-25)
(-48.746398 -17.385199 1.3425015e-19)
(-49.883057 -18.678773 2.9124882e-17)
(-52.593723 -20.893409 2.920637e-17)
(-46.42576 -13.41079 -8.4861288e-34)
(-49.980226 -20.84264 -2.8658577e-17)
(-9.1637131 20.703816 6.0185311e-36)
(-64.672464 -28.006963 5.8396564e-17)
(-62.940776 -27.268313 2.8799651e-17)
(-74.569 -40.327529 -2.8567081e-17)
(-57.638355 -24.006344 1.5651099e-19)
(-82.023277 -50.584812 1.5046328e-36)
(-74.84799 -44.861699 -2.7871518e-17)
(-78.333182 -48.578999 -2.8103721e-17)
(-68.948582 -39.561653 -5.5846644e-17)
(-28.331941 5.5339264 1.6661027e-21)
(-64.847955 -37.46585 -1.6711711e-21)
(-61.790565 -37.061914 8.2127835e-22)
(-106.72036 -80.55787 0)
(-63.116268 -36.160135 -1.9248115e-19)
(-60.184075 -31.509323 -1.5250911e-26)
(-67.923226 -41.540489 4.1162677e-22)
(-68.137494 -42.09039 5.4093618e-17)
(-63.010974 -34.713383 4.0807493e-22)
(-66.255229 -38.267253 -5.3520015e-17)
(-61.945999 -34.440894 4.0409821e-22)
(-69.890935 -44.869402 2.6466602e-17)
(-56.762134 -29.16716 4.0054231e-22)
(-55.530446 -27.858701 -3.988263e-22)
(-38.103832 -7.4485071 3.9407781e-22)
(-104.03236 -81.981163 2.5563649e-17)
(-102.47061 -73.304677 -3.905606e-22)
(-87.973895 -53.302705 -2.5899424e-17)
(-18.03668 19.157744 0)
(17.431352 63.063279 -3.7563479e-17)
(-27.594712 10.746768 3.0543951e-24)
(92.537302 565.60315 2.2314387e-17)
(-8.051724 14.756348 1.3038266e-22)
(-2.8321906 -4.0155172 1.5035958e-17)
(-12.504407 1.7339633 -1.3884712e-17)
(-19.58972 4.0161547 -2.4499785e-21)
(-23.084258 4.2525171 1.5591129e-25)
(-24.457692 5.8073186 -2.3512489e-17)
(-24.410146 4.6360936 -2.25871e-17)
(-24.422735 4.5299397 4.3571319e-17)
(-24.373918 4.2191348 -2.1082075e-17)
(-24.409868 4.2153863 2.0448501e-17)
(-24.346396 3.871365 1.2354459e-21)
(-24.314284 3.7448826 -8.7414358e-22)
(-24.299764 3.6691753 -1.8884859e-17)
(-23.880037 1.9650268 -3.5142946e-23)
(-24.775086 5.6871196 -7.1746481e-43)
(-24.294643 3.6339677 3.3695798e-23)
(-24.215193 3.4572676 1.7304388e-17)
(-24.309614 3.8199272 1.6988221e-17)
(-24.333675 3.8873448 1.5678273e-33)
(-24.30177 3.7747981 -6.5584853e-17)
(-24.251688 3.4900488 3.2252614e-17)
(-24.212556 3.1959539 9.1294673e-22)
(-24.193122 2.9883819 -6.2503153e-17)
(-24.247381 3.097941 -2.9372067e-23)
(-24.163003 2.7674051 3.0352723e-17)
(-24.54793 4.3645332 1.1754944e-38)
(-23.862694 1.4791461 2.9527601e-17)
(-24.302432 3.2992308 3.7615819e-37)
(-24.199562 2.9646418 1.880791e-37)
(-24.113456 2.6711015 2.8492569e-17)
(-24.014191 2.362172 2.8148329e-17)
(-24.083884 2.6219628 1.7190429e-33)
(-24.005736 2.1671248 -2.7531504e-17)
(-24.070358 2.2473853 -2.7251252e-17)
(-24.101178 2.270412 2.6971771e-17)
(-24.113184 2.2737837 5.0936246e-23)
(-24.198606 2.5344353 5.2914924e-17)
(-24.228875 2.6663883 2.6214774e-17)
(-24.213672 2.6767616 -4.9543819e-23)
(-24.157161 2.5589342 2.5742245e-17)
(-24.127533 2.4665714 2.5524085e-17)
(-24.197394 2.6599326 -2.2207403e-21)
(-24.281037 2.7519074 5.0238619e-17)
(-24.343347 2.7735567 -4.7541371e-23)
(-24.610965 3.6199431 4.7182982e-23)
(-24.514587 3.1624264 3.5873241e-43)
(-24.598823 3.4309647 1.880791e-37)
(-24.737748 3.9084434 2.4207971e-17)
(-24.640683 3.4435643 -4.5848586e-23)
(-24.670159 3.7157806 4.5524087e-23)
(-24.459437 3.2268892 -4.7437863e-17)
(-24.439648 3.6806411 2.361565e-17)
(-24.509537 4.0209185 2.3455001e-17)
(-24.503644 3.6582328 4.4468673e-23)
(-24.330893 2.5894002 8.6095778e-42)
(-24.726424 3.7295401 4.3911174e-21)
(-24.895839 4.1799961 4.5797439e-17)
(-25.019091 4.647094 -4.5563146e-17)
(-24.940573 4.4600252 8.6361772e-23)
(-24.926024 4.5072184 4.5046803e-17)
(-24.821589 4.2590855 4.2747112e-23)
(-24.795737 4.0699804 4.2548603e-23)
(-24.971988 4.4584523 -4.2345478e-23)
(-25.227904 5.1385405 4.4212856e-17)
(-25.196686 4.9062805 1.5046328e-36)
(-25.254859 5.0788585 -4.3822664e-17)
(-25.285983 5.2212619 -4.3623757e-17)
(-25.32506 5.4301081 -4.3427426e-17)
(-25.196167 5.0977261 4.1239921e-23)
(-25.107048 4.965114 -8.6155376e-17)
(-25.191831 5.3114617 4.2929145e-17)
(-25.2513 5.3222711 -4.077383e-23)
(-25.466734 5.8064097 4.0632498e-23)
(-25.641167 6.2052721 8.4986022e-17)
(-25.708173 6.3162005 -4.2335683e-17)
(-25.65645 6.1216237 -4.0240887e-23)
(-25.675675 6.1885082 4.0117149e-23)
(-25.687198 6.3104562 4.1966949e-17)
(-25.527939 5.8876605 -4.1789876e-17)
(-25.570586 6.0875699 -7.5231638e-37)
(-25.553964 5.8584682 4.1552315e-17)
(-26.031302 7.1968905 -8.2942137e-17)
(-26.009999 6.8018523 -3.4565176e-33)
(-26.070269 6.945721 1.880791e-37)
(-25.976939 6.6095854 -4.1093464e-17)
(-25.999556 6.7705182 8.1969951e-17)
(-26.048106 7.0539282 -3.8974883e-23)
(-25.836647 6.4376224 3.8855628e-23)
(-25.745319 6.154233 3.8750115e-23)
(-25.77728 6.0817586 -4.0564963e-17)
(-25.946699 6.2981741 -8.0924608e-17)
(-26.013665 6.3513629 -6.1109876e-27)
(-26.09576 6.6359096 3.842071e-23)
(-26.09599 6.7934984 -4.0212154e-17)
(-25.999134 6.7206371 4.0123841e-17)
(-25.757412 6.0892254 8.011021e-17)
(-25.966841 6.7798449 3.8142921e-23)
(-25.958446 6.1873094 3.8067754e-23)
(-26.1214 6.2838507 -3.7990532e-23)
(-26.203387 6.5104463 -1.2455189e-39)
(-26.229147 6.6375054 -1.3060212e-33)
(-26.287334 6.9855054 -7.9253549e-17)
(-26.224848 7.1400386 3.7708355e-23)
(-26.299384 7.8336073 -3.7660465e-23)
(-25.636021 5.7650875 -3.7587352e-23)
(-26.061743 6.9305504 -3.9404456e-17)
(-26.112728 6.4739215 -2.2461209e-20)
(-26.869132 8.8432334 3.9284084e-17)
(-26.557136 7.6549086 -3.91987e-17)
(-26.721066 8.2174463 3.7325122e-23)
(-26.481148 7.4248758 9.0263419e-34)
(-27.085271 9.6241127 -3.727214e-23)
(-26.95619 9.4919197 7.4449201e-23)
(-26.707571 8.8667249 -3.7164763e-23)
(-26.157329 6.9459019 -7.7787639e-17)
(-26.642903 7.9321798 3.89236e-17)
(-26.596563 7.2026629 -3.8871385e-17)
(-26.587558 7.0896378 3.882755e-17)
(-27.0132 8.7245059 3.8834321e-17)
(-26.806968 8.28545 -3.8819871e-17)
(-26.952207 9.0334769 3.7004369e-23)
(-27.168372 9.7149948 -7.1746481e-43)
(-27.094087 9.0277906 -3.6982881e-23)
(-27.852473 11.181426 -9.4408412e-27)
(-27.729844 10.615889 3.8776106e-17)
(-27.49236 9.6983152 3.8775257e-17)
(-27.581364 10.222729 4.2230002e-34)
(-27.238342 9.2881218 3.8754292e-17)
(-26.599779 7.3300932 -7.3723945e-23)
(-26.180711 5.9186619 3.8621157e-17)
(-27.071494 8.3827984 3.8655858e-17)
(-28.032079 11.09465 3.6900535e-23)
(-27.600956 9.2889119 -3.6876439e-23)
(-27.204769 8.0679586 -3.8640666e-17)
(-27.254397 8.2845039 1.1284746e-36)
(-27.322508 8.6216628 3.8683617e-17)
(-27.465287 9.3182992 3.6879669e-23)
(-27.542844 9.8818979 -3.6877455e-23)
(-27.522052 9.9483478 3.6890869e-23)
(-27.511936 9.8930994 2.4006027e-27)
(-27.124334 8.499628 2.9751403e-27)
(-27.090336 8.4112623 3.8684915e-17)
(-27.014762 8.302622 -1.880791e-37)
(-26.847442 7.9101109 -3.2709632e-20)
(-26.922517 8.0283237 2.9584842e-34)
(-27.582223 9.5248308 -3.8770605e-17)
(-27.959859 10.101667 3.6985091e-23)
(-27.339302 7.9486579 3.8799428e-17)
(-27.502273 8.4514201 -3.8830012e-17)
(-27.518105 8.6058786 -3.8862992e-17)
(-27.264609 8.066695 9.4039548e-38)
(-27.386511 8.7739264 1.880791e-37)
(-27.968594 10.884908 3.9005659e-17)
(-28.12476 11.372227 -3.8992116e-17)
(-28.194915 11.037245 -8.4122508e-27)
(-28.760938 12.02907 -3.9082869e-17)
(-28.697124 11.330874 -2.3509887e-37)
(-28.751291 11.278399 -1.9574667e-17)
(-28.677524 10.862257 1.9619592e-17)
(-28.898166 11.314001 1.9643553e-17)
(-29.067604 11.592516 -1.9638399e-17)
(-29.098887 11.612612 1.9683737e-17)
(-28.988032 11.258765 -2.6720442e-20)
(-28.765876 10.632738 2.9731742e-39)
(-28.602741 10.227919 3.7585586e-23)
(-28.457875 9.9817206 -7.523907e-23)
(-28.685904 10.841387 -1.0701326e-26)
(-28.797874 11.504347 7.5493734e-23)
(-28.56692 11.094678 -3.9650474e-17)
(-28.114013 9.9227127 3.7615819e-37)
(-27.99817 9.6483156 9.4039548e-38)
(-28.380357 10.657097 1.9907664e-17)
(-27.912412 9.0014709 1.9900266e-17)
(-27.9516 9.0205444 -1.9948755e-17)
(-27.50654 7.6455669 3.9915706e-17)
(-27.243998 6.7461172 1.9978967e-17)
(-27.202624 6.1461414 -3.8121137e-23)
(-27.085557 5.2799566 -2.000253e-17)
(-27.44882 5.970979 2.0051977e-17)
(-27.305165 5.1445193 2.0067742e-17)
(-27.32301 4.9660963 4.0201006e-17)
(-27.982307 6.6921926 4.7019774e-37)
(-28.854589 9.2258268 4.7055855e-34)
(-28.591328 8.679546 7.7211085e-23)
(-28.425798 8.3583454 -2.0296476e-17)
(-28.492202 8.5975102 -4.0640967e-17)
(-28.418104 8.4909136 4.0725368e-17)
(-27.894225 7.4313758 -2.7760475e-34)
(-28.526024 9.6605477 2.0453161e-17)
(-28.35371 9.7753437 5.4077442e-34)
(-27.173128 6.993925 -2.0171523e-39)
(-27.318438 7.5564829 -7.8384104e-23)
(-28.514841 10.386744 2.0628322e-17)
(-29.601736 12.374043 7.886082e-23)
(-29.15161 9.7574973 2.5302366e-20)
(-28.288685 6.8729034 -7.9031067e-23)
(-27.87352 5.6432919 -2.0748873e-17)
(-27.490694 4.6499969 -2.0795171e-17)
(-27.632218 5.309722 -2.0856126e-17)
(-28.024854 7.01799 -2.0928238e-17)
(-27.433665 6.0756568 -1.4193923e-26)
(-26.955067 5.2685904 8.0035075e-23)
(-27.346106 6.826257 -5.2461027e-39)
(-28.22279 9.6349583 2.6108918e-20)
(-27.642014 8.2424453 -2.1213202e-17)
(-28.235374 9.6126258 2.5276427e-26)
(-28.433622 8.8143094 -1.066614e-17)
(-28.707555 8.2920949 -1.0675678e-17)
(-28.035422 6.1289448 8.6569869e-27)
(-27.539345 4.8080856 -1.0716818e-17)
(-27.88641 6.0195803 1.6409717e-22)
(-27.770874 6.1260835 2.2288168e-26)
(-27.644564 6.2830273 -8.2564293e-23)
(-27.934813 7.5148997 -5.1377655e-39)
(-28.068247 7.4189922 8.3113512e-23)
(-28.66035 8.0052534 -1.13087e-20)
(-29.117723 8.2510864 -1.097725e-17)
(-28.790362 7.0571536 8.3830123e-23)
(-28.25274 5.6969315 1.1030227e-17)
(-27.79763 5.1627704 -9.4039548e-38)
(-27.574743 5.3991342 -1.1089167e-17)
(-28.281347 8.0067349 -1.1141391e-17)
(-28.370896 8.4674523 -2.1158898e-37)
(-29.003402 9.4373925 -8.5530004e-23)
(-30.182356 10.956218 -2.2531215e-17)
(-29.744564 9.1596573 1.1300204e-17)
(-28.422949 5.9104944 -5.659956e-18)
(-27.643836 4.6445711 -1.729904e-22)
(-27.489172 5.0049242 -5.6861787e-18)
(-28.515707 8.0140607 -1.1437024e-17)
(-28.897932 8.4504489 2.3509887e-38)
(-30.009807 9.8319114 7.8452996e-21)
(-30.475343 10.023046 5.8774718e-38)
(-30.2007 9.2138709 -5.802872e-18)
(-29.704588 8.2084545 8.8814629e-23)
(-29.159552 7.2921393 -5.8414276e-18)
(-28.837056 6.9741038 5.8689946e-18)
(-28.539336 6.5845985 -2.941724e-18)
(-29.27188 8.2964035 5.9148214e-18)
(-30.147254 9.6146922 9.0617122e-23)
(-29.989933 8.3455587 2.9826747e-18)
(-30.504544 9.2158884 -8.845595e-37)
(-29.947628 7.9036286 -3.0024849e-18)
(-29.479898 7.0232179 5.8774718e-39)
(-29.254165 6.6992343 -9.2322567e-23)
(-29.994385 8.3911901 9.2750272e-23)
(-30.217576 8.5854385 9.5306261e-22)
(-30.976735 9.7683077 9.3638376e-23)
(-30.570368 8.4986686 -1.9273987e-19)
(-30.194284 7.5555847 2.2111683e-26)
(-29.449862 5.9938567 -9.4660948e-23)
(-29.572006 6.4879148 -7.531543e-22)
(-29.212408 5.7833857 1.5664909e-18)
(-29.03042 5.2235166 9.5911597e-23)
(-29.043908 4.611739 -1.0166132e-21)
(-29.61746 5.154934 -9.6807326e-23)
(-29.805791 5.1466317 3.1883615e-18)
(-29.529823 4.4421094 -5.8774718e-38)
(-29.345341 4.2278855 -3.2193943e-18)
(-28.595811 2.939729 -9.8574802e-23)
(-28.406391 2.6910926 -9.9071584e-23)
(-28.517458 2.8433866 1.9911646e-22)
(-28.75776 2.8719137 -3.2792043e-18)
(-28.883386 2.5950162 2.8968779e-21)
(-28.981763 2.489403 6.6228833e-18)
(-29.073869 2.5679966 0)
(-29.013509 2.4426355 -6.6901979e-18)
(-28.940197 2.2324893 -1.0256568e-22)
(-28.932023 2.0688356 -6.7612745e-18)
(-28.875752 1.7077991 -6.7929995e-18)
(-28.79941 1.2907853 -1.0418445e-22)
(-28.641455 0.73124449 1.046807e-22)
(-28.56215 0.43084376 -6.8987085e-18)
(-28.421319 -0.014272069 0)
(-28.197487 -0.64862623 -1.0637793e-22)
(-28.070863 -1.1028847 1.0690364e-22)
(-27.987047 -1.4629977 7.0462463e-18)
(-28.006512 -1.6254543 4.6340478e-26)
(-28.07142 -1.7179844 4.3003728e-26)
(-27.999631 -2.1020693 -1.0934482e-22)
(-27.917442 -2.5088185 1.4418748e-17)
(-27.853698 -2.9069942 -1.4497875e-17)
(-27.678897 -3.4538997 -4.7462967e-21)
(-27.728845 -3.5775856 -1.11898e-22)
(-27.668383 -3.8954199 -4.7019774e-38)
(-27.236216 -4.8963126 -1.4830442e-17)
(-26.710218 -6.1693321 -2.9387359e-39)
(-26.336932 -7.1132006 -1.5002765e-17)
(-26.404292 -7.2141626 -2.9387359e-39)
(-26.621521 -7.0505706 -1.5184034e-17)
(-26.607395 -7.2567162 -1.1670196e-22)
(-26.575471 -7.46024 1.5376698e-17)
(-26.238965 -8.3364854 -1.1816156e-22)
(-25.985019 -8.9655505 1.5561425e-17)
(-26.339014 -8.5231602 3.1365119e-17)
(-26.66718 -8.1409845 4.7019774e-38)
(-27.04743 -7.6437008 1.591345e-17)
(-26.960161 -7.9588203 1.2223552e-22)
(-26.924047 -8.152129 -1.2302628e-22)
(-27.663704 -6.9962389 -9.4039548e-38)
(-28.061924 -6.7422558 1.6373103e-17)
(-26.316149 -9.79083 3.2810667e-17)
(-26.694841 -9.1363923 1.6527685e-17)
(-26.753675 -9.5726257 1.6668237e-17)
(-26.897509 -9.4331967 1.8076697e-20)
(-26.981321 -9.4672592 -3.1453657e-39)
(-27.660588 -8.8220495 -8.2108525e-34)
(-28.034316 -8.5708965 1.3126767e-22)
(-28.180829 -8.5761398 -2.6445549e-22)
(-28.236138 -8.7113297 -1.7441121e-17)
(-28.917152 -8.0482909 9.4039548e-38)
(-30.10011 -6.7918528 -8.7437972e-34)
(-31.369302 -5.5524222 -3.5907925e-17)
(-33.841715 -2.34747 -1.816202e-17)
(-35.970748 -0.039709995 1.3992529e-22)
(-32.112512 -5.4252684 1.8394522e-17)
(-32.443239 -5.2161986 -1.415422e-22)
(-32.882297 -4.9053978 1.4286665e-22)
(-33.24166 -4.6848762 9.2480459e-26)
(-33.957659 -3.8783452 1.9053616e-17)
(-34.35724 -3.6110103 -1.4673421e-22)
(-34.790636 -3.3556601 2.9600341e-22)
(-35.068791 -3.299983 1.9571541e-17)
(-35.517269 -3.0255896 1.9749557e-17)
(-35.867778 -2.8596724 -1.5201941e-22)
(-36.408801 -2.4835493 2.011963e-17)
(-36.546091 -2.6375166 -1.549454e-22)
(-36.477102 -3.0548634 -2.0485022e-17)
(-36.197893 -3.7285268 1.5765609e-22)
(-36.192665 -4.0762287 1.5920412e-22)
(-35.983182 -4.6631142 -2.1049658e-17)
(-35.139265 -6.2242822 -2.1224123e-17)
(-34.679382 -7.1922333 -8.2236615e-21)
(-34.083503 -8.2362494 -2.1593141e-17)
(-33.204048 -9.6514742 2.1774604e-17)
(-32.466351 -10.8907 -2.1985216e-17)
(-32.16915 -11.539077 -2.2194361e-17)
(-32.186263 -11.759739 1.7109714e-22)
(-32.212021 -11.978936 -1.7271487e-22)
(-32.000758 -12.509331 -7.5231638e-37)
(-31.937222 -12.78906 -2.3097912e-17)
(-31.754067 -13.2574 0)
(-31.548381 -13.714457 1.7991978e-22)
(-31.367455 -14.074538 -1.8166673e-22)
(-31.077243 -14.64224 1.8367061e-22)
(-30.967623 -14.88572 1.1106359e-25)
(-30.651516 -15.409309 -1.8747124e-22)
(-30.383343 -15.912146 2.4839245e-17)
(-30.215072 -16.242251 1.9169017e-22)
(-29.85433 -16.755934 -2.5335345e-17)
(-29.636353 -17.141199 3.917196e-22)
(-31.360202 -15.401031 -3.9716785e-22)
(-34.22108 -12.457691 2.6426987e-17)
(-33.833514 -13.091158 -2.6717987e-17)
(-33.214696 -13.953617 5.3977406e-17)
(-33.429954 -13.92068 -2.0862239e-22)
(-33.227976 -14.388675 5.5275071e-17)
(-33.047344 -14.791803 2.7982685e-17)
(-32.948835 -15.115225 0)
(-33.796192 -14.422682 2.8660053e-17)
(-33.88189 -14.551827 -2.9048467e-17)
(-34.33971 -14.296836 2.9427611e-17)
(-35.125271 -13.696912 7.5231638e-37)
(-34.989737 -14.054499 0)
(-35.638193 -13.603947 -3.0608472e-17)
(-36.202865 -13.278434 -3.0998483e-17)
(-37.529554 -12.178711 -2.4006601e-22)
(-38.390938 -11.590119 0)
(-39.048289 -11.263654 0)
(-39.502549 -11.137247 2.1353622e-34)
(-39.750093 -11.163959 -2.5403433e-22)
(-39.664137 -11.535668 -1.9998954e-25)
(-40.669251 -10.706014 2.6103713e-22)
(-38.972754 -12.605588 2.6445892e-22)
(-38.87434 -13.157654 1.7553098e-17)
(-40.095309 -12.370997 -1.781955e-17)
(-39.575138 -13.292406 -1.8066025e-17)
(-40.136611 -13.037488 1.8338767e-17)
(-40.193733 -13.244841 1.8598043e-17)
(-40.052616 -13.56256 -2.8806181e-22)
(-40.091643 -13.713421 2.5679501e-38)
(-40.154043 -13.792555 3.4047207e-41)
(-40.329688 -13.776834 -1.0886018e-33)
(-40.582188 -13.703004 -2.0056464e-17)
(-41.011158 -13.530857 -3.1102371e-22)
(-40.93095 -13.856858 4.1383459e-17)
(-42.061617 -13.247296 1.5046328e-36)
(-43.149697 -12.812713 3.2660498e-22)
(-43.180126 -13.453635 -3.3150555e-22)
(-43.574226 -14.079043 2.9093324e-34)
(-45.382869 -13.169144 3.4374892e-22)
(-46.966713 -12.035113 -3.4925968e-22)
(-45.792358 -12.67804 -2.3245613e-17)
(-45.351347 -12.339943 -1.2277803e-33)
(-45.128343 -11.767294 -2.0467925e-21)
(-45.444331 -11.534719 3.7136356e-22)
(-41.312691 -11.87171 -3.7660797e-22)
(-37.602322 -18.985344 -2.4878419e-17)
(-155.41914 -148.01132 1.3071769e-17)
(-18.145386 9.3049103 2.542026e-17)
(-53.046242 -26.781523 5.2985199e-17)
(-108.25126 -86.094978 2.6407208e-17)
(-80.933011 -58.264616 -3.0092655e-36)
(-49.97427 -22.235675 -3.8365975e-22)
(-49.60687 -22.236219 3.7821718e-22)
(-42.313144 -12.996915 -7.5323962e-20)
(-40.711551 -10.502886 2.3932586e-17)
(-51.088737 -23.145627 -1.0997438e-19)
(-47.515956 -18.697888 2.3229467e-17)
(-47.354323 -18.440517 3.4847487e-22)
(-45.074225 -15.816256 2.2561595e-17)
(-39.356398 -8.9677904 -4.4197475e-17)
(-38.729696 -7.7361778 2.1770271e-17)
(-37.174878 -5.6666665 6.5345871e-22)
(-29.887431 2.8053002 -3.1978823e-22)
(-31.474198 1.2438665 4.1396322e-17)
(-31.543669 1.4782291 -6.2592723e-34)
(-31.215177 1.6777111 3.0620845e-22)
(-29.011471 4.2559154 1.9737068e-17)
(-28.543126 4.9410535 2.9685296e-22)
(-29.056597 5.0077359 1.928591e-17)
(-25.467185 8.9533592 -2.8831147e-22)
(-37.500972 -6.1522911 -1.8947611e-17)
(-33.95681 -1.5917955 0)
(-27.55406 6.5824116 1.8272089e-17)
(-30.621447 2.7943262 -1.8101265e-17)
(-33.31981 -1.1511877 1.9469521e-20)
(-31.299278 1.2988557 -2.6839253e-22)
(-31.359078 1.0597854 -3.473409e-17)
(-28.344737 4.6709296 2.6087664e-22)
(-28.910586 4.0704573 -3.3792275e-17)
(-29.350018 3.5450757 0)
(-29.641036 3.1351706 0)
(-29.943903 2.8355414 -3.2617927e-17)
(-30.505349 2.0564183 3.2214233e-17)
(-29.24258 3.5873738 3.1770538e-17)
(-31.757394 0.50491107 3.1506869e-17)
(-31.42028 0.93970145 4.7466249e-22)
(-31.436133 0.91367337 3.0742698e-17)
(-31.865584 0.4007189 3.0430389e-17)
(-33.050548 -1.7684203 6.0179655e-17)
(-28.724639 5.0283703 2.9682983e-17)
(-33.52187 -2.2869491 2.2442739e-22)
(-37.456956 -7.4292565 -5.849895e-17)
(-41.381962 -12.998451 4.4213132e-22)
(-43.917857 -16.651698 -2.1904949e-22)
(-46.573814 -20.595159 1.074018e-33)
(-43.373501 -16.097142 -3.7615819e-37)
(-46.318497 -20.832023 -2.7919532e-17)
(-45.298805 -19.146667 2.7528076e-17)
(-45.382506 -19.500182 -3.7615819e-37)
(-40.322782 -12.144769 2.1805267e-33)
(-37.092805 -7.1691969 3.655486e-39)
(-40.654958 -12.903104 0)
(-47.874025 -24.302557 -2.6160728e-17)
(-51.929493 -30.640056 1.9808068e-22)
(-51.93083 -30.363358 2.5848837e-17)
(-52.530978 -31.051698 -1.1754944e-38)
(-52.99304 -31.780332 2.5382414e-17)
(-53.913506 -33.268322 1.1754944e-38)
(-53.621792 -33.035542 2.4782779e-17)
(-53.704781 -33.214337 2.467527e-17)
(-54.243946 -34.222882 -2.4329131e-17)
(-53.862507 -34.095413 -2.4079193e-17)
(-54.877039 -35.844256 -1.8207534e-22)
(-53.928309 -34.118953 -2.3769291e-17)
(-54.524121 -34.83954 -2.3453782e-17)
(-57.20897 -39.513943 2.337738e-17)
(-57.670603 -40.266642 3.7615819e-37)
(-58.295386 -41.221891 -2.2848112e-17)
(-58.5826 -41.694109 4.545183e-17)
(-60.36128 -44.549813 1.7145871e-22)
(-63.783179 -49.724751 -1.6994587e-22)
(-64.301235 -50.878335 -1.6355257e-19)
(-64.030408 -50.765589 -1.2875708e-25)
(-61.609888 -47.381675 -2.1836172e-17)
(-62.75613 -49.33461 2.1501972e-17)
(-61.936353 -48.381302 2.1326137e-17)
(-62.137964 -48.865087 -1.4954903e-19)
(-61.475838 -48.045882 -2.1136226e-17)
(-61.753774 -48.684825 4.1789003e-17)
(-63.076818 -50.956064 -1.5774986e-22)
(-65.174562 -54.363525 -4.1114034e-17)
(-66.954617 -57.250361 2.0479108e-17)
(-67.566902 -58.34987 0)
(-66.52542 -56.903562 4.0196239e-17)
(-66.510423 -56.976735 -2.0038241e-17)
(-66.663531 -57.366024 8.8632274e-34)
(-63.779486 -53.1209 -1.4978204e-22)
(-64.395474 -54.317886 1.9461682e-17)
(-64.433556 -54.629007 -1.9317853e-17)
(-64.45377 -54.969673 -3.8496596e-17)
(-64.691216 -55.551372 0)
(-65.897954 -57.631498 0)
(-63.63743 -54.263499 -1.8785541e-17)
(-62.194851 -52.241856 -2.8506461e-22)
(-62.00176 -52.201269 1.4156832e-22)
(-62.081444 -52.545603 1.4056221e-22)
(-62.902353 -54.175179 -1.3960485e-22)
(-64.789108 -57.495244 -1.8140618e-17)
(-62.076838 -53.352747 1.8165198e-17)
(-63.175965 -55.394956 9.4039548e-38)
(-61.821023 -53.397444 3.5735276e-17)
(-60.954697 -52.233269 -1.7816686e-17)
(-58.739441 -48.721692 -1.7706683e-17)
(-58.019484 -47.765602 -1.3350265e-22)
(-54.976351 -42.488992 2.5531737e-34)
(-54.162903 -41.243558 -1.7259157e-17)
(-53.50051 -40.241838 1.7242337e-17)
(-53.359254 -40.193244 -1.3003931e-22)
(-52.745635 -39.311237 1.7024214e-17)
(-52.756163 -39.689058 -1.2848637e-22)
(-51.800399 -38.080153 1.2762903e-22)
(-52.509866 -39.696817 -1.2696072e-22)
(-52.869351 -40.582957 -1.6541911e-17)
(-52.476915 -40.047265 -1.6534037e-17)
(-50.838885 -37.052107 -1.642265e-17)
(-49.318429 -34.34604 -8.154907e-18)
(-49.040329 -34.020621 1.2314959e-22)
(-47.907115 -32.051483 -1.2245899e-22)
(-48.338879 -33.093292 8.0149235e-18)
(-47.676752 -31.915794 7.9689847e-18)
(-46.708201 -30.108996 7.8890404e-18)