/*--------------------------------*- C++ -*----------------------------------*\
| =========                 |                                                 |
| \\      /  F ield         | OpenFOAM: The Open Source CFD Toolbox           |
|  \\    /   O peration     | Version:  2506                                  |
|   \\  /    A nd           | Website:  www.openfoam.com                      |
|    \\/     M anipulation  |                                                 |
\*---------------------------------------------------------------------------*/
FoamFile
{
    version     2.0;
    format      ascii;
    arch        "LSB;label=32;scalar=64";
    class       volScalarField;
    location    "0.0285";
    object      rho;
}
// * * * * * * * * * * * * * * * * * * * * * * * * * * * * * * * * * * * * * //

dimensions      [1 -3 0 0 0 0 0];

internalField   nonuniform List<scalar> 
13761
(
0.65161632
0.65161618
0.65161583
0.65161518
0.65161409
0.65161246
0.65161023
0.65160746
0.65160425
0.6516007
0.65159689
0.65159285
0.6515886
0.65158415
0.65157951
0.65157466
0.65156957
0.65156425
0.65155865
0.65155276
0.65154656
0.65154001
0.6515331
0.6515258
0.65151811
0.65150999
0.65150141
0.65149233
0.65148272
0.65147253
0.65146172
0.65145026
0.65143809
0.65142517
0.65141148
0.65139698
0.65138165
0.65136552
0.65134861
0.65133099
0.65131276
0.65129404
0.6515368
0.65153689
0.65153701
0.65153713
0.65153712
0.6515369
0.65153638
0.65153551
0.6515343
0.65153278
0.65153096
0.65152887
0.65152653
0.65152393
0.65152105
0.6515179
0.65151445
0.65151068
0.65150659
0.65150217
0.65149739
0.65149225
0.65148674
0.65148084
0.65147455
0.65146785
0.65146073
0.65145317
0.65144517
0.65143669
0.65142772
0.65141823
0.65140822
0.65139764
0.6513865
0.65137479
0.65136252
0.6513497
0.65133635
0.65149985
0.65149975
0.65149961
0.65149945
0.65149934
0.65149927
0.65149928
0.65149933
0.65149938
0.65149938
0.6514993
0.65149912
0.6514988
0.65149834
0.65149771
0.6514969
0.65149589
0.65149467
0.65149322
0.65149153
0.65148958
0.65148735
0.65148483
0.65148199
0.65147883
0.6514753
0.65147139
0.65146704
0.65146221
0.65145683
0.65145087
0.65144429
0.65143705
0.65142913
0.65142049
0.65141111
0.65146119
0.65146127
0.65146145
0.65146173
0.65146206
0.65146239
0.65146264
0.6514627
0.65146252
0.65146208
0.65146135
0.65146035
0.65145908
0.65145754
0.65145574
0.65145367
0.65145133
0.6514487
0.65144577
0.65144253
0.65143895
0.65143502
0.6514307
0.65142597
0.6514208
0.65141515
0.651409
0.65140232
0.6513951
0.65138728
0.65137883
0.65142197
0.65142207
0.65142209
0.65142194
0.65142145
0.65142056
0.65141918
0.65141734
0.6514151
0.65141251
0.65140962
0.65140645
0.65140303
0.65139936
0.65139545
0.65139129
0.65138687
0.65138217
0.65137719
0.6513719
0.65136629
0.65136033
0.651354
0.65134726
0.65134192
0.64893541
0.64893536
0.64893521
0.64893491
0.64893439
0.64893359
0.64893249
0.64893113
0.64892956
0.64892782
0.64892594
0.64892394
0.64892181
0.64891958
0.64891723
0.64891476
0.64891219
0.64890949
0.64890668
0.64890376
0.64890072
0.64889758
0.64889433
0.64889099
0.64888757
0.64888408
0.64888055
0.648877
0.64887346
0.64886996
0.64886657
0.64886333
0.64886031
0.64885761
0.64885533
0.64885358
0.64885253
0.64885236
0.64885327
0.64885551
0.64885938
0.64886518
0.64887329
0.64888411
0.6488981
0.6489158
0.64893793
0.64896554
0.64900024
0.64904464
0.6491032
0.64918378
0.64930215
0.64950144
0.64996553
0.65186284
0.65365473
0.65420766
0.65428551
0.65429453
0.65429356
0.65431442
0.65434899
0.65438517
0.65441869
0.65445071
0.65447855
0.65450544
0.65453822
0.65458404
0.65463186
0.6546647
0.64897217
0.64897207
0.64897183
0.6489714
0.64897072
0.64896975
0.64896848
0.64896695
0.64896522
0.64896334
0.64896134
0.64895922
0.648957
0.64895468
0.64895224
0.6489497
0.64894705
0.64894428
0.6489414
0.64893839
0.64893527
0.64893202
0.64892867
0.6489252
0.64892163
0.64891797
0.64891424
0.64891046
0.64890665
0.64890285
0.64889909
0.64889544
0.64889196
0.64888872
0.64888583
0.6488834
0.64888158
0.64888053
0.64888046
0.6488816
0.64888423
0.64888865
0.64889523
0.64890435
0.64891649
0.6489322
0.64895222
0.6489776
0.64900996
0.64905197
0.64910813
0.64918652
0.64930349
0.64950397
0.64998017
0.65187651
0.65367333
0.6542124
0.65430696
0.65431999
0.65432233
0.65434354
0.65438039
0.65442337
0.6544586
0.65448696
0.65451103
0.65453884
0.65457424
0.6546222
0.65466695
0.65469612
0.65471858
0.65476552
0.65484303
0.65492105
0.65497474
0.65501747
0.65509992
0.65520608
0.65529408
0.65537878
0.64899633
0.64899635
0.64899639
0.64899639
0.64899631
0.64899606
0.64899559
0.64899486
0.64899389
0.64899271
0.64899132
0.64898976
0.64898803
0.64898614
0.6489841
0.64898191
0.64897957
0.64897708
0.64897445
0.64897168
0.64896877
0.64896572
0.64896254
0.64895924
0.64895581
0.64895229
0.64894868
0.648945
0.64894128
0.64893755
0.64893386
0.64893025
0.64892679
0.64892355
0.64892063
0.64891814
0.64891623
0.64891505
0.6489148
0.64891571
0.64891805
0.64892213
0.64892828
0.64893689
0.6489484
0.64896336
0.64898244
0.64900664
0.64903748
0.64907745
0.64913079
0.64920508
0.64931563
0.64950469
0.64995368
0.65181481
0.65368851
0.65425983
0.65433552
0.65434628
0.65434946
0.65437327
0.65440804
0.65444509
0.65447703
0.65450557
0.65453372
0.65456243
0.65460093
0.65465051
0.65469371
0.65471947
0.65474421
0.65479486
0.65487502
0.65495176
0.65500347
0.65504657
0.6551297
0.65522881
0.65531459
0.65540343
0.6554997
0.6555979
0.65571079
0.65583101
0.65595945
0.65610992
0.64902344
0.64902338
0.64902322
0.64902292
0.64902242
0.64902164
0.64902057
0.64901923
0.64901766
0.64901589
0.64901395
0.64901186
0.64900962
0.64900723
0.6490047
0.64900203
0.64899921
0.64899624
0.64899312
0.64898985
0.64898643
0.64898286
0.64897913
0.64897526
0.64897125
0.64896711
0.64896284
0.64895848
0.64895403
0.64894952
0.648945
0.6489405
0.64893607
0.6489318
0.64892777
0.64892408
0.64892086
0.64891827
0.6489165
0.64891579
0.64891639
0.64891861
0.6489228
0.64892934
0.64893869
0.64895136
0.64896804
0.64898966
0.64901769
0.6490545
0.64910409
0.64917371
0.64927806
0.64945773
0.64988694
0.65167392
0.65360277
0.65426854
0.65438512
0.6543998
0.65440371
0.65443095
0.65446765
0.65450538
0.65453331
0.65455562
0.65458074
0.65460727
0.65464417
0.65469032
0.65472949
0.65475216
0.65477596
0.65483143
0.65491143
0.65498675
0.65503368
0.6550794
0.65515968
0.65525315
0.65533736
0.65543037
0.65552792
0.65562264
0.65573234
0.65585295
0.65598231
0.65613186
0.656315
0.65646871
0.65660858
0.6568225
0.64905889
0.64905883
0.64905867
0.64905836
0.64905785
0.64905707
0.64905602
0.6490547
0.64905316
0.64905145
0.64904957
0.64904755
0.64904538
0.64904307
0.64904062
0.64903803
0.64903529
0.64903239
0.64902934
0.64902613
0.64902275
0.64901922
0.64901552
0.64901166
0.64900764
0.64900348
0.64899917
0.64899474
0.6489902
0.64898558
0.6489809
0.64897622
0.64897157
0.64896702
0.64896266
0.64895858
0.6489549
0.64895178
0.64894938
0.64894792
0.64894767
0.64894891
0.64895198
0.64895727
0.64896522
0.64897638
0.64899142
0.64901129
0.64903749
0.64907239
0.64912011
0.64918813
0.64929178
0.6494736
0.64991618
0.65170372
0.65363428
0.65429813
0.65440842
0.65442266
0.65442623
0.65444839
0.6544853
0.65452575
0.65456012
0.65458674
0.65460732
0.65463519
0.65467646
0.65472277
0.65475787
0.65478038
0.65480801
0.65486792
0.65494848
0.6550209
0.65506607
0.65511187
0.65518823
0.65527685
0.65536217
0.65545738
0.65555209
0.65564377
0.65575472
0.65587758
0.65600371
0.65615097
0.65633078
0.65647293
0.65661524
0.65683186
0.65703417
0.65722245
0.65746282
0.64908273
0.64908275
0.64908277
0.64908273
0.64908259
0.64908225
0.64908168
0.64908084
0.64907976
0.64907846
0.64907696
0.64907528
0.64907342
0.64907139
0.6490692
0.64906683
0.6490643
0.6490616
0.64905872
0.64905567
0.64905244
0.64904904
0.64904545
0.6490417
0.64903778
0.64903369
0.64902945
0.64902506
0.64902056
0.64901595
0.64901127
0.64900656
0.64900187
0.64899726
0.64899281
0.64898861
0.64898479
0.64898149
0.64897889
0.6489772
0.64897667
0.64897759
0.64898029
0.64898514
0.64899256
0.64900304
0.64901723
0.649036
0.64906072
0.64909361
0.64913847
0.64920219
0.64929882
0.64946722
0.64987435
0.65160234
0.65361528
0.65432377
0.65443946
0.6544583
0.65446875
0.6544978
0.65453457
0.65457045
0.65459834
0.65462102
0.65464415
0.65466955
0.65470732
0.65474943
0.65478345
0.6548056
0.65483821
0.65490168
0.65498231
0.65505231
0.65509835
0.65514465
0.6552167
0.65530236
0.65538743
0.65548498
0.65557818
0.65566669
0.65577804
0.65590387
0.65602887
0.65617553
0.6563489
0.65647871
0.65662431
0.65684477
0.65705018
0.65724097
0.65746944
0.65769463
0.65791539
0.64910956
0.64910944
0.64910916
0.64910868
0.64910793
0.64910686
0.64910548
0.64910382
0.64910194
0.64909989
0.64909769
0.64909535
0.64909288
0.64909027
0.64908752
0.64908461
0.64908154
0.64907831
0.6490749
0.64907131
0.64906753
0.64906355
0.64905938
0.64905501
0.64905045
0.64904568
0.64904073
0.64903559
0.64903028
0.64902483
0.64901925
0.64901357
0.64900785
0.64900213
0.64899649
0.64899101
0.6489858
0.648981
0.64897679
0.64897336
0.64897097
0.64896991
0.64897052
0.64897317
0.6489783
0.64898642
0.64899817
0.64901442
0.6490365
0.64906659
0.64910841
0.64916874
0.64926157
0.64942568
0.64982781
0.65149763
0.6535346
0.65432799
0.65449334
0.65451779
0.65452717
0.6545536
0.65459105
0.65462974
0.65465702
0.65467291
0.65468988
0.65471401
0.6547512
0.65479051
0.65482023
0.65484294
0.65487648
0.65494195
0.65502041
0.6550877
0.6551328
0.65517678
0.65524686
0.65532846
0.65541683
0.6555137
0.65559901
0.65568784
0.65580388
0.65593165
0.6560522
0.6561973
0.65636549
0.6564832
0.65663369
0.65685733
0.65706173
0.65725149
0.65747268
0.65768675
0.65790732
0.65818921
0.65844273
0.6491397
0.64913962
0.64913945
0.64913913
0.64913862
0.64913786
0.64913682
0.64913551
0.64913398
0.64913227
0.64913038
0.64912834
0.64912615
0.64912382
0.64912133
0.64911869
0.64911589
0.64911292
0.64910978
0.64910645
0.64910294
0.64909923
0.64909532
0.64909121
0.64908689
0.64908236
0.64907763
0.64907269
0.64906757
0.64906226
0.6490568
0.64905122
0.64904555
0.64903984
0.64903415
0.64902859
0.64902324
0.64901824
0.64901375
0.64900999
0.64900717
0.6490056
0.64900558
0.6490075
0.64901179
0.64901892
0.64902955
0.64904453
0.64906519
0.64909371
0.64913386
0.64919256
0.64928418
0.64944895
0.64986035
0.65153427
0.65357688
0.65437039
0.65450535
0.6545272
0.65453979
0.6545682
0.65460657
0.65464428
0.65467613
0.65470241
0.65471801
0.65474068
0.65477672
0.65481389
0.65484333
0.65486906
0.65490889
0.65497583
0.65505353
0.65512046
0.65516572
0.65520826
0.65527562
0.6553564
0.65544584
0.65554099
0.65562214
0.65571149
0.65582933
0.65595955
0.65607754
0.6562219
0.65638253
0.65649227
0.65664747
0.65687338
0.65707785
0.65726562
0.65747977
0.65768405
0.65790553
0.65819189
0.6584444
0.65870419
0.65901798
0.64915582
0.64915587
0.64915593
0.64915597
0.64915589
0.64915561
0.64915507
0.64915424
0.64915313
0.64915177
0.64915018
0.64914839
0.64914641
0.64914424
0.64914189
0.64913935
0.64913662
0.6491337
0.64913059
0.64912728
0.64912377
0.64912004
0.64911611
0.64911196
0.64910759
0.64910301
0.64909821
0.6490932
0.64908799
0.6490826
0.64907703
0.64907133
0.64906551
0.64905964
0.64905378
0.649048
0.6490424
0.64903712
0.64903232
0.64902819
0.64902498
0.64902294
0.64902242
0.64902376
0.64902738
0.64903374
0.64904341
0.64905722
0.64907635
0.6491028
0.64914
0.64919423
0.64927854
0.64942912
0.64980204
0.65139683
0.65351336
0.65437703
0.65455183
0.65457929
0.65459508
0.65462544
0.65466364
0.65469912
0.65472504
0.65474393
0.65475907
0.65478083
0.65481324
0.65484764
0.65487706
0.65490312
0.65494458
0.65501012
0.65508629
0.65515297
0.65519876
0.65524062
0.65530639
0.65538447
0.65547653
0.65556785
0.6556417
0.65573436
0.65585729
0.65598681
0.65610085
0.65624488
0.6563987
0.65650362
0.6566628
0.65688764
0.65708988
0.65727448
0.65748413
0.65767786
0.65790296
0.65819588
0.65844597
0.65870295
0.65901105
0.65929652
0.64918669
0.64918662
0.64918646
0.64918614
0.64918559
0.64918476
0.64918359
0.64918212
0.64918039
0.64917844
0.6491763
0.64917399
0.64917151
0.64916886
0.64916605
0.64916306
0.64915989
0.64915654
0.64915299
0.64914925
0.64914529
0.64914111
0.64913671
0.64913207
0.6491272
0.64912208
0.64911672
0.64911111
0.64910526
0.64909918
0.64909286
0.64908635
0.64907966
0.64907283
0.64906593
0.64905902
0.64905219
0.64904558
0.64903933
0.64903364
0.64902873
0.6490249
0.64902246
0.64902178
0.64902328
0.64902746
0.64903488
0.64904638
0.64906317
0.64908727
0.64912216
0.64917431
0.64925725
0.64940869
0.64979048
0.65135349
0.65347693
0.6543986
0.65460913
0.65463693
0.65464851
0.65467336
0.65471005
0.65474683
0.65477444
0.65478922
0.65480008
0.65482049
0.65485328
0.65488742
0.65491409
0.65494219
0.65498203
0.65504671
0.65512173
0.65518779
0.65523167
0.655272
0.65533541
0.65541504
0.65550756
0.65559386
0.65566555
0.65575911
0.65588347
0.65601312
0.6561233
0.6562681
0.65641413
0.65651942
0.65668175
0.65690496
0.65710549
0.6572878
0.6574929
0.65768148
0.65790768
0.6582046
0.65845173
0.65870586
0.65900798
0.65928852
0.65957723
0.65989197
0.64921693
0.64921693
0.64921691
0.64921684
0.64921665
0.64921628
0.64921565
0.64921476
0.64921359
0.64921219
0.64921057
0.64920874
0.6492067
0.64920448
0.64920205
0.64919943
0.64919662
0.64919359
0.64919036
0.64918691
0.64918324
0.64917933
0.6491752
0.64917082
0.6491662
0.64916132
0.6491562
0.64915082
0.64914519
0.64913931
0.6491332
0.64912687
0.64912035
0.64911366
0.64910687
0.64910003
0.64909324
0.6490866
0.64908027
0.64907443
0.64906931
0.64906517
0.64906233
0.64906115
0.64906204
0.64906545
0.64907198
0.64908239
0.64909788
0.64912039
0.64915334
0.64920308
0.64928301
0.64943068
0.64980758
0.65135176
0.65349494
0.6544253
0.65461468
0.65465284
0.65467211
0.65469939
0.65473543
0.65476984
0.65479694
0.65481712
0.65482908
0.65484899
0.65488091
0.65491399
0.65494446
0.65497452
0.65501573
0.65507835
0.65515211
0.6552202
0.65526323
0.65530249
0.65536494
0.65544465
0.65553828
0.65561758
0.65568825
0.65578396
0.65591255
0.65603764
0.65614375
0.65629141
0.65643163
0.65653683
0.65669991
0.65691817
0.657115
0.65729586
0.65749744
0.65768305
0.65791089
0.65821163
0.65845561
0.6587062
0.65900285
0.65928016
0.65956337
0.65987774
0.66024394
0.64923662
0.64923663
0.64923665
0.6492366
0.64923644
0.64923608
0.64923545
0.64923454
0.64923335
0.64923192
0.64923026
0.64922839
0.64922631
0.64922404
0.64922156
0.64921888
0.64921599
0.64921288
0.64920955
0.64920599
0.6492022
0.64919816
0.64919387
0.64918932
0.6491845
0.64917942
0.64917407
0.64916844
0.64916255
0.64915639
0.64914998
0.64914332
0.64913646
0.64912941
0.64912223
0.64911498
0.64910774
0.64910064
0.64909381
0.64908742
0.64908171
0.64907693
0.6490734
0.64907146
0.64907151
0.649074
0.64907947
0.64908867
0.64910269
0.64912334
0.64915375
0.6491998
0.6492738
0.64941027
0.6497575
0.65121597
0.65339974
0.65443789
0.65467099
0.65470702
0.65472502
0.6547557
0.6547934
0.65482702
0.65484843
0.65486045
0.65486961
0.65489106
0.6549236
0.65495752
0.65498756
0.65501664
0.65505375
0.6551149
0.65518924
0.6552547
0.65529493
0.65533413
0.6553932
0.65547569
0.655568
0.65564378
0.65571515
0.65580936
0.65593862
0.65605868
0.65616164
0.65631189
0.65644924
0.65655627
0.6567193
0.65693355
0.6571265
0.65730713
0.65750973
0.65769308
0.6579207
0.65822421
0.65846205
0.65870783
0.65900092
0.65927576
0.65955229
0.6598649
0.66022941
0.66054263
0.64927201
0.64927191
0.64927168
0.64927128
0.64927065
0.64926973
0.64926851
0.649267
0.64926525
0.64926329
0.64926116
0.64925885
0.64925637
0.64925373
0.6492509
0.6492479
0.6492447
0.64924129
0.64923768
0.64923384
0.64922977
0.64922545
0.64922088
0.64921604
0.64921094
0.64920555
0.64919988
0.64919391
0.64918766
0.64918111
0.64917427
0.64916715
0.64915977
0.64915216
0.64914435
0.64913641
0.64912839
0.64912041
0.6491126
0.64910514
0.64909823
0.64909215
0.6490872
0.64908374
0.64908216
0.64908293
0.64908659
0.64909387
0.64910589
0.64912449
0.6491529
0.64919717
0.64927009
0.64940773
0.6497646
0.65122653
0.6534087
0.65446042
0.65472474
0.65476343
0.65477881
0.65480348
0.65483763
0.65486922
0.6548923
0.65489987
0.65490668
0.65492788
0.65496199
0.65499744
0.65502791
0.65505711
0.65509136
0.65515234
0.65522657
0.65529017
0.65532736
0.65536272
0.65542155
0.65550826
0.65559883
0.65567045
0.65574187
0.65583874
0.65596837
0.6560795
0.65617972
0.65633502
0.65647054
0.65657581
0.65673749
0.65694495
0.65713187
0.65731391
0.65751682
0.65769819
0.65792862
0.65823174
0.65846311
0.65870567
0.65899581
0.65927134
0.65954199
0.65985249
0.66021462
0.66052723
0.66083095
0.6492986
0.64929859
0.64929856
0.64929845
0.64929822
0.64929779
0.64929712
0.64929617
0.64929496
0.64929351
0.64929185
0.64928998
0.64928791
0.64928564
0.64928317
0.6492805
0.64927761
0.6492745
0.64927116
0.64926759
0.64926377
0.64925969
0.64925534
0.64925072
0.64924581
0.64924061
0.64923512
0.64922932
0.64922321
0.64921681
0.6492101
0.6492031
0.64919583
0.64918831
0.64918058
0.64917269
0.64916473
0.64915678
0.64914897
0.64914147
0.64913449
0.64912828
0.64912313
0.64911939
0.64911745
0.64911774
0.6491208
0.64912732
0.64913838
0.64915573
0.64918244
0.64922435
0.64929383
0.64942578
0.64976996
0.6511833
0.65340101
0.65449008
0.65474678
0.65479694
0.65481746
0.65484155
0.65487423
0.6549042
0.65492454
0.65492953
0.65493863
0.65496195
0.65499773
0.65503356
0.65506733
0.65509547
0.65512837
0.65518971
0.65526325
0.65532467
0.65536011
0.65539313
0.65545058
0.65553903
0.65562677
0.65569906
0.65577084
0.65586764
0.65599441
0.65609623
0.65619542
0.65635384
0.65649076
0.65659728
0.65675778
0.65695987
0.65713952
0.65732272
0.65752853
0.6577096
0.65794286
0.65824212
0.65846598
0.65870506
0.65899219
0.65927077
0.65953586
0.65984327
0.66020153
0.6605123
0.66081678
0.66115491
0.6493219
0.6493219
0.64932187
0.64932177
0.6493215
0.64932101
0.64932022
0.64931913
0.64931775
0.64931611
0.64931425
0.64931217
0.64930988
0.64930739
0.64930469
0.64930179
0.64929867
0.64929533
0.64929176
0.64928795
0.64928389
0.64927956
0.64927497
0.64927009
0.64926491
0.64925944
0.64925366
0.64924756
0.64924114
0.6492344
0.64922733
0.64921996
0.64921229
0.64920434
0.64919615
0.64918777
0.64917927
0.64917075
0.64916233
0.64915418
0.6491465
0.64913955
0.64913361
0.64912905
0.64912622
0.64912556
0.64912757
0.64913294
0.64914264
0.64915835
0.64918298
0.64922208
0.64928741
0.64941194
0.64973693
0.65108409
0.65329791
0.65449361
0.65479626
0.65485077
0.65487244
0.65490103
0.65493411
0.65496335
0.65497901
0.65498032
0.65498557
0.65500875
0.65504397
0.65508048
0.65511292
0.65513701
0.65516824
0.65523117
0.65530472
0.65536293
0.65539325
0.65542214
0.65548197
0.65557268
0.65565934
0.65573132
0.65580119
0.65590123
0.65602303
0.65611536
0.65621609
0.65637828
0.65651365
0.65661943
0.65677825
0.65697226
0.65714394
0.65732839
0.65753646
0.65771523
0.65795059
0.65824512
0.65846505
0.65870234
0.65898856
0.65927004
0.65953053
0.659835
0.66018917
0.66049747
0.6608023
0.66114219
0.66145275
0.64935542
0.64935536
0.64935521
0.64935491
0.64935441
0.64935363
0.64935255
0.64935115
0.6493495
0.64934761
0.64934551
0.64934322
0.64934075
0.64933808
0.64933523
0.64933217
0.6493289
0.64932542
0.6493217
0.64931775
0.64931354
0.64930906
0.64930431
0.64929927
0.64929393
0.64928827
0.64928229
0.64927598
0.64926934
0.64926235
0.64925501
0.64924733
0.64923932
0.649231
0.6492224
0.64921355
0.64920454
0.64919543
0.64918636
0.64917749
0.64916901
0.64916116
0.64915426
0.64914862
0.64914466
0.64914278
0.64914352
0.64914755
0.64915586
0.64917015
0.6491934
0.64923129
0.64929595
0.64942154
0.64975374
0.65111228
0.65333555
0.65452699
0.65484768
0.65489933
0.65491702
0.65494221
0.65497654
0.65500557
0.65502313
0.65502547
0.65502962
0.65505224
0.65508632
0.65512317
0.65515495
0.65517827
0.65521076
0.65527323
0.65534619
0.65540165
0.65542695
0.65545231
0.65551393
0.65560501
0.65568971
0.65576115
0.65583259
0.65593279
0.65604947
0.6561327
0.65623542
0.6563997
0.65653449
0.65664211
0.65679949
0.65698597
0.65715075
0.65733747
0.65754884
0.65772627
0.65796221
0.6582513
0.65846694
0.65870191
0.65898586
0.6592715
0.65952874
0.65983099
0.66018039
0.66048428
0.66078802
0.66112978
0.66143831
0.661735
0.64937798
0.64937803
0.64937811
0.64937818
0.64937817
0.64937801
0.6493776
0.64937691
0.64937591
0.64937463
0.64937308
0.64937128
0.64936924
0.64936697
0.64936446
0.64936172
0.64935874
0.64935551
0.64935203
0.64934829
0.64934427
0.64933998
0.64933539
0.6493305
0.64932529
0.64931976
0.6493139
0.6493077
0.64930115
0.64929425
0.64928699
0.64927939
0.64927145
0.6492632
0.64925465
0.64924586
0.64923689
0.64922782
0.64921877
0.6492099
0.6492014
0.64919351
0.64918652
0.64918076
0.64917659
0.64917445
0.64917482
0.64917837
0.64918605
0.64919947
0.64922146
0.64925743
0.64931892
0.64943848
0.64975415
0.65104835
0.65331597
0.65456427
0.65489538
0.65494933
0.65496339
0.65498393
0.65501428
0.65503992
0.6550555
0.65505741
0.65506794
0.65509257
0.65512703
0.65516414
0.65519474
0.65521585
0.65524997
0.65531499
0.65538811
0.6554399
0.65546104
0.65548634
0.65554981
0.65563982
0.65572438
0.65579527
0.65586569
0.65596651
0.65607754
0.65615365
0.65626017
0.65642611
0.6565584
0.65666622
0.65682282
0.657001
0.65715919
0.65734731
0.65756
0.65773341
0.65796768
0.65825187
0.65846444
0.65869909
0.65898174
0.65927162
0.65952634
0.65982735
0.66017278
0.66047157
0.66077304
0.66111614
0.6614224
0.66171871
0.66205427
0.64940255
0.64940253
0.64940248
0.64940234
0.64940203
0.6494015
0.64940067
0.64939953
0.64939809
0.64939639
0.64939445
0.64939227
0.64938987
0.64938725
0.64938441
0.64938134
0.64937803
0.64937448
0.64937067
0.64936659
0.64936224
0.6493576
0.64935266
0.6493474
0.64934182
0.64933589
0.64932962
0.64932299
0.64931599
0.64930862
0.64930087
0.64929275
0.64928425
0.64927541
0.64926624
0.64925679
0.64924713
0.64923733
0.64922751
0.64921783
0.64920849
0.64919973
0.64919183
0.64918512
0.64917998
0.64917681
0.64917609
0.64917846
0.64918484
0.64919677
0.649217
0.64925074
0.64930906
0.64942316
0.64972557
0.65096112
0.65320369
0.65453893
0.65493257
0.65500626
0.65502567
0.65505078
0.6550802
0.65510454
0.65511724
0.65511566
0.65512201
0.65514478
0.65517751
0.6552122
0.65523964
0.65525849
0.65529391
0.65536021
0.65543229
0.65547878
0.65549413
0.65551881
0.65558546
0.65567624
0.65575834
0.65582688
0.65589787
0.65599872
0.6561046
0.65617472
0.65628612
0.65645008
0.65658066
0.65668862
0.65684531
0.65701735
0.65716911
0.65735861
0.65757247
0.65774518
0.65797871
0.65825694
0.65846621
0.65869926
0.65897942
0.65927247
0.65952551
0.65982701
0.66016975
0.66046169
0.66075877
0.66110217
0.6614083
0.66170483
0.66204297
0.66234591
0.64943365
0.6494336
0.64943348
0.64943323
0.6494328
0.6494321
0.64943111
0.64942981
0.64942823
0.6494264
0.64942435
0.64942207
0.64941959
0.64941689
0.64941398
0.64941085
0.64940748
0.64940386
0.64939998
0.64939584
0.64939141
0.64938669
0.64938165
0.64937629
0.64937059
0.64936454
0.64935812
0.64935133
0.64934415
0.64933657
0.64932859
0.64932022
0.64931144
0.64930228
0.64929276
0.64928292
0.64927281
0.64926252
0.64925216
0.64924188
0.64923187
0.64922237
0.64921367
0.64920611
0.64920004
0.64919589
0.64919414
0.64919541
0.64920065
0.64921137
0.64923038
0.64926302
0.64932077
0.64943597
0.64974558
0.65100124
0.6532443
0.65458684
0.65496742
0.65503292
0.65505474
0.65507912
0.65511279
0.65514354
0.65516107
0.65516453
0.65517123
0.65519434
0.65522599
0.65525937
0.65528429
0.65530313
0.65534082
0.65540598
0.65547523
0.65551595
0.65553073
0.65555608
0.65562504
0.6557133
0.6557938
0.65586139
0.65592985
0.65603273
0.65613315
0.65619831
0.65631592
0.65647699
0.65660394
0.65671287
0.65687085
0.65703776
0.65718362
0.65737326
0.65758438
0.65775585
0.65798624
0.65825828
0.65846446
0.65869821
0.65897648
0.65927102
0.65952246
0.65982493
0.66016612
0.66045181
0.66074452
0.66108736
0.66139341
0.66169106
0.6620315
0.66233315
0.66261823
0.64945415
0.64945417
0.64945421
0.64945421
0.64945411
0.64945383
0.6494533
0.64945247
0.64945132
0.64944989
0.64944819
0.64944624
0.64944403
0.64944159
0.6494389
0.64943597
0.64943278
0.64942934
0.64942562
0.64942162
0.64941732
0.64941272
0.64940779
0.64940253
0.64939691
0.64939094
0.64938458
0.64937784
0.6493707
0.64936315
0.64935518
0.6493468
0.64933801
0.64932882
0.64931927
0.64930938
0.64929922
0.64928887
0.64927844
0.64926808
0.64925799
0.6492484
0.64923959
0.64923189
0.64922566
0.64922129
0.64921924
0.64922012
0.6492248
0.64923473
0.64925254
0.64928324
0.6493376
0.64944582
0.64973542
0.65091571
0.65320573
0.65461445
0.65502702
0.65509496
0.65511187
0.65513142
0.65515863
0.65518179
0.65519488
0.65519729
0.65520876
0.65523472
0.6552672
0.65530093
0.65532337
0.65534182
0.65538159
0.6554508
0.65551531
0.65555155
0.65556487
0.6555925
0.65566488
0.65575218
0.65583012
0.65589461
0.65596048
0.65606501
0.65616124
0.65622395
0.65634707
0.65650337
0.65662518
0.6567346
0.65689304
0.65705666
0.6571977
0.65738731
0.65759681
0.6577681
0.65799946
0.65826455
0.65846833
0.65870252
0.65897629
0.65927065
0.65951984
0.65982391
0.66016575
0.66044573
0.66073216
0.66107338
0.66137997
0.66167946
0.66202184
0.66231871
0.6625987
0.66287021
0.64947685
0.64947676
0.64947656
0.64947618
0.64947555
0.64947462
0.64947335
0.64947175
0.64946988
0.64946776
0.64946542
0.64946288
0.64946014
0.64945718
0.64945402
0.64945063
0.649447
0.64944312
0.64943897
0.64943454
0.64942982
0.64942478
0.64941941
0.6494137
0.64940763
0.64940119
0.64939435
0.6493871
0.64937943
0.64937133
0.64936278
0.64935379
0.64934436
0.64933449
0.6493242
0.64931354
0.64930254
0.64929131
0.64927994
0.6492686
0.64925747
0.6492468
0.64923689
0.64922805
0.64922066
0.64921512
0.64921188
0.64921153
0.64921493
0.64922349
0.64923979
0.64926879
0.64932112
0.64942646
0.64971049
0.65086668
0.65311086
0.65456854
0.65505688
0.65515063
0.65517106
0.65519623
0.65522689
0.65524939
0.65525909
0.65525861
0.65526636
0.65528822
0.65532081
0.65535206
0.65537329
0.65539188
0.65543174
0.65549731
0.65555601
0.65558812
0.65560139
0.6556301
0.65570609
0.65579144
0.65586726
0.65592821
0.65599193
0.65609711
0.65618877
0.65625122
0.65637848
0.65653114
0.65664684
0.65675782
0.65691874
0.65707953
0.65721756
0.65740656
0.6576106
0.65777971
0.65801157
0.65826927
0.65847032
0.65870402
0.65897674
0.65926898
0.65951492
0.65981975
0.6601628
0.66043737
0.66072077
0.66105982
0.66136648
0.66166778
0.66201197
0.66230004
0.66257947
0.66285959
0.64950522
0.64950512
0.64950489
0.64950449
0.64950384
0.64950289
0.6495016
0.64949999
0.6494981
0.64949597
0.64949363
0.64949108
0.64948834
0.6494854
0.64948225
0.64947889
0.6494753
0.64947146
0.64946735
0.64946298
0.6494583
0.64945331
0.64944798
0.64944231
0.64943626
0.64942982
0.64942297
0.64941569
0.64940797
0.6493998
0.64939116
0.64938204
0.64937245
0.64936239
0.64935188
0.64934095
0.64932966
0.64931807
0.6493063
0.6492945
0.64928286
0.64927163
0.64926108
0.64925156
0.64924342
0.64923709
0.64923302
0.6492318
0.6492343
0.64924197
0.64925741
0.64928569
0.64933773
0.64944409
0.6497334
0.65090585
0.65315888
0.65462791
0.65508707
0.65517232
0.65519265
0.65521553
0.65524834
0.6552794
0.65529512
0.65530046
0.65531242
0.65533558
0.65536909
0.65540008
0.65542106
0.65543932
0.65548128
0.65554264
0.65559549
0.65562561
0.65563859
0.65567181
0.65574881
0.65583157
0.65590614
0.65595998
0.65602337
0.65612955
0.65621762
0.65628182
0.65641073
0.65655909
0.65666838
0.65677761
0.65693956
0.65709955
0.65723568
0.65742378
0.6576233
0.65779118
0.65802645
0.65827845
0.65847703
0.65871075
0.65898254
0.65927063
0.65951132
0.65981536
0.66016052
0.66043112
0.6607122
0.66104865
0.6613545
0.66165779
0.66200383
0.66228132
0.66256084
0.66285154
0.66312354
0.64952249
0.64952255
0.64952265
0.64952273
0.64952271
0.64952248
0.64952195
0.64952107
0.64951983
0.64951828
0.64951642
0.64951429
0.6495119
0.64950924
0.64950634
0.64950317
0.64949974
0.64949604
0.64949205
0.64948777
0.64948317
0.64947826
0.649473
0.64946738
0.64946138
0.649455
0.6494482
0.64944097
0.64943329
0.64942515
0.64941654
0.64940744
0.64939785
0.64938778
0.64937724
0.64936627
0.64935492
0.64934326
0.64933141
0.64931951
0.64930776
0.6492964
0.6492857
0.649276
0.64926765
0.64926105
0.64925663
0.64925495
0.64925681
0.64926355
0.64927759
0.64930361
0.64935166
0.6494496
0.64971352
0.65078625
0.65309509
0.65465045
0.65514848
0.65523851
0.65525837
0.65527867
0.65530607
0.65532633
0.6553363
0.65533732
0.65534812
0.65537388
0.65540906
0.65544246
0.65546331
0.65548326
0.6555254
0.65558603
0.65563516
0.65566302
0.65567517
0.65571299
0.65578997
0.655872
0.65594399
0.65599386
0.65605693
0.65616031
0.65624272
0.6563098
0.65644289
0.65658634
0.65668999
0.65679922
0.65696406
0.65712339
0.65725759
0.65744393
0.6576381
0.65780445
0.65804198
0.65828707
0.6584823
0.65871451
0.65898718
0.65927199
0.65950696
0.65980872
0.66015253
0.66042166
0.66070398
0.66103884
0.66134355
0.66164759
0.66199451
0.662262
0.66254295
0.6628435
0.66311209
0.66334459
0.64955167
0.6495516
0.64955142
0.64955108
0.64955048
0.64954956
0.64954826
0.64954658
0.64954456
0.64954224
0.64953967
0.64953686
0.64953381
0.64953053
0.64952702
0.64952327
0.64951927
0.649515
0.64951045
0.6495056
0.64950044
0.64949495
0.6494891
0.64948288
0.64947627
0.64946924
0.64946177
0.64945385
0.64944546
0.64943657
0.64942717
0.64941725
0.6494068
0.64939582
0.64938433
0.64937234
0.64935991
0.64934712
0.64933406
0.6493209
0.64930781
0.64929505
0.64928292
0.64927174
0.64926189
0.64925376
0.6492478
0.64924454
0.64924478
0.64924985
0.64926213
0.64928631
0.64933245
0.64942864
0.6496925
0.6507652
0.65301299
0.65459854
0.65518004
0.6552987
0.65532206
0.65534425
0.65537519
0.65539526
0.65540212
0.6553992
0.65540541
0.65542903
0.65546447
0.65549625
0.65551703
0.65553687
0.65557767
0.65563144
0.65567825
0.65570422
0.65571726
0.65575794
0.65583273
0.65591467
0.6559829
0.65602614
0.65609093
0.65619578
0.65627259
0.65634165
0.65647688
0.65661561
0.65671265
0.65681883
0.65698426
0.65714433
0.65727859
0.65746151
0.6576493
0.65781587
0.65805753
0.65829688
0.65849022
0.65872303
0.65899887
0.65927884
0.65950658
0.65980298
0.66014427
0.66041305
0.66069811
0.66103187
0.66133463
0.66163848
0.66198589
0.66224289
0.66252678
0.66283746
0.66309908
0.66333514
0.64958572
0.64958564
0.64958545
0.64958511
0.64958454
0.64958369
0.64958249
0.64958096
0.64957911
0.64957699
0.64957462
0.64957201