/*--------------------------------*- C++ -*----------------------------------*\
| =========                 |                                                 |
| \\      /  F ield         | OpenFOAM: The Open Source CFD Toolbox           |
|  \\    /   O peration     | Version:  2506                                  |
|   \\  /    A nd           | Website:  www.openfoam.com                      |
|    \\/     M anipulation  |                                                 |
\*---------------------------------------------------------------------------*/
FoamFile
{
    version     2.0;
    format      ascii;
    arch        "LSB;label=32;scalar=64";
    class       volScalarField;
    location    "0.0255";
    object      alphat;
}
// * * * * * * * * * * * * * * * * * * * * * * * * * * * * * * * * * * * * * //

dimensions      [1 -1 -1 0 0 0 0];

internalField   nonuniform List<scalar> 
13761
(
3.81778e-09
8.2456676e-08
6.5992959e-07
3.1053674e-06
1.0245072e-05
2.5624897e-05
5.2021587e-05
9.0437765e-05
0.00014046189
0.00020039652
0.00026871509
0.00034343155
0.00042328339
0.00050680407
0.00059327433
0.00068163719
0.0007711583
0.00086088268
0.0009495011
0.0010358803
0.0011185786
0.001196721
0.0012689782
0.0013353651
0.0013945357
0.0014474777
0.0014917732
0.0015274295
0.0015502494
0.0015576124
0.0015474778
0.0015156972
0.0014645407
0.0013912359
0.0013015704
0.0011989215
0.0010936894
0.00099978427
0.00093957807
0.00092510225
0.00095422723
0.0010097991
0.0010763645
0.0011461762
0.0012247013
0.0013074601
0.0013727688
0.0014009051
0.0013721965
0.0012729401
0.0011027131
0.00087765308
0.00059875964
0.00030173918
8.9487702e-05
1.9861799e-05
8.5458842e-06
7.0052256e-06
6.7860602e-06
6.7580989e-06
6.7518758e-06
6.7479927e-06
6.7466829e-06
6.7479851e-06
6.7593485e-06
6.7720779e-06
6.7644534e-06
6.7168352e-06
6.6759356e-06
6.6782742e-06
6.7176764e-06
6.7597458e-06
6.7551559e-06
6.7271541e-06
6.7111259e-06
6.7118798e-06
6.7139527e-06
6.7104107e-06
6.7094645e-06
6.7082842e-06
6.6950251e-06
6.6924021e-06
6.7067531e-06
6.7006269e-06
6.6650204e-06
6.654763e-06
6.6817573e-06
6.7337494e-06
6.7619289e-06
6.7548271e-06
6.7290039e-06
6.6961374e-06
6.677501e-06
6.672087e-06
6.6687753e-06
6.66707e-06
6.6687996e-06
6.6707663e-06
6.6724496e-06
6.6718999e-06
6.6732988e-06
6.6734664e-06
6.6680999e-06
6.6631083e-06
6.654272e-06
6.6447656e-06
6.6329017e-06
6.6058507e-06
6.5786532e-06
6.5631132e-06
6.5519197e-06
6.5323646e-06
6.506029e-06
6.4909434e-06
6.4934595e-06
6.5046632e-06
6.5229148e-06
6.5390526e-06
6.5505617e-06
6.562183e-06
6.5708785e-06
6.5739483e-06
6.5741266e-06
6.5740799e-06
6.573362e-06
6.5731817e-06
6.5736072e-06
6.5741647e-06
6.5752992e-06
6.5768108e-06
6.5779982e-06
6.5794264e-06
6.5792494e-06
6.5810853e-06
6.5838001e-06
6.5823448e-06
6.5839375e-06
6.5906497e-06
5.3659531e-11
1.8358264e-10
3.252997e-09
2.8514182e-08
1.4918083e-07
5.5366526e-07
1.5853252e-06
3.6613669e-06
7.1210914e-06
1.2092309e-05
1.8626751e-05
2.664261e-05
3.6140186e-05
4.6923307e-05
5.8988399e-05
7.2135264e-05
8.646794e-05
0.00010182729
0.00011841196
0.00013612298
0.00015516681
0.00017541348
0.0001970013
0.00021988601
0.00024430581
0.00027029075
0.00029790377
0.00032719044
0.0003581968
0.00039096037
0.00042564371
0.00046211957
0.00050061194
0.0005407552
0.00058321119
0.00062802227
0.00067571373
0.00072696398
0.00078244725
0.00084305599
0.0009092793
0.00098176262
0.0010609421
0.0011457981
0.0012316008
0.0013084753
0.0013612213
0.0013708099
0.0013200967
0.0012007188
0.0010163068
0.00077752144
0.00049088178
0.00020956201
4.713268e-05
1.2268485e-05
7.6070778e-06
6.888667e-06
6.7810093e-06
6.763031e-06
6.7588268e-06
6.7558008e-06
6.7556956e-06
6.7623721e-06
6.7791866e-06
6.7818657e-06
6.7540447e-06
6.6910322e-06
6.6722772e-06
6.6889615e-06
6.7391201e-06
6.7648643e-06
6.7501205e-06
6.7203116e-06
6.7108474e-06
6.7129751e-06
6.7146002e-06
6.7098743e-06
6.7093896e-06
6.7078642e-06
6.6946066e-06
6.692834e-06
6.7073095e-06
6.6998432e-06
6.6640003e-06
6.6549623e-06
6.6831591e-06
6.7349351e-06
6.7618066e-06
6.7542746e-06
6.72814e-06
6.6954963e-06
6.6772364e-06
6.6719323e-06
6.66866e-06
6.6671572e-06
6.6689872e-06
6.6708445e-06
6.6723111e-06
6.671923e-06
6.6733726e-06
6.673375e-06
6.6680032e-06
6.6629475e-06
6.6540877e-06
6.6446631e-06
6.6325443e-06
6.6053985e-06
6.5784448e-06
6.5629643e-06
6.5517317e-06
6.5321624e-06
6.5057239e-06
6.4908865e-06
6.4933201e-06
6.5046503e-06
6.5229335e-06
6.5390646e-06
6.5505377e-06
6.5621395e-06
6.5708325e-06
6.5739168e-06
6.573985e-06
6.5738121e-06
6.5728995e-06
6.5727893e-06
6.573619e-06
6.574253e-06
6.5756141e-06
6.5770885e-06
6.5780643e-06
6.5794832e-06
6.5792321e-06
6.5811085e-06
6.5838823e-06
6.5823337e-06
6.584046e-06
6.5904351e-06
2.7521442e-11
9.9896392e-11
1.9489883e-09
1.809103e-08
9.8924678e-08
3.8231224e-07
1.1409633e-06
2.749313e-06
5.5557673e-06
9.7292863e-06
1.5318551e-05
2.2252221e-05
3.0528808e-05
4.0052573e-05
5.0884479e-05
6.2941193e-05
7.6345013e-05
9.10226e-05
0.00010713416
0.0001246072
0.00014363112
0.00016413632
0.00018631001
0.00021005866
0.00023551996
0.00026262567
0.00029154416
0.00032217264
0.00035470818
0.00038898814
0.00042527032
0.00046334568
0.00050348056
0.00054540085
0.00058902155
0.00063464161
0.00068273537
0.00073415528
0.00078975051
0.00085047566
0.00091655311
0.00098890387
0.0010682011
0.001152819
0.0012375793
0.0013121008
0.0013607194
0.0013643861
0.0013066738
0.0011806225
0.00099089403
0.00074859088
0.0004592968
0.00018367673
3.9203408e-05
1.1357161e-05
7.4743934e-06
6.8737131e-06
6.785425e-06
6.7693987e-06
6.7640422e-06
6.7618439e-06
6.7651975e-06
6.7791273e-06
6.7901369e-06
6.7796865e-06
6.7239302e-06
6.6749579e-06
6.6736575e-06
6.7048091e-06
6.749588e-06
6.762005e-06
6.7436047e-06
6.7178829e-06
6.7120688e-06
6.7142337e-06
6.7146184e-06
6.7091191e-06
6.7092322e-06
6.7077523e-06
6.694409e-06
6.6929474e-06
6.7077129e-06
6.6997064e-06
6.6636256e-06
6.6548449e-06
6.6832578e-06
6.7349769e-06
6.761716e-06
6.7541481e-06
6.7280607e-06
6.6955057e-06
6.6770715e-06
6.6717135e-06
6.6685766e-06
6.667257e-06
6.6691939e-06
6.6708766e-06
6.6721367e-06
6.6719245e-06
6.6734262e-06
6.6733084e-06
6.6679736e-06
6.662912e-06
6.6541295e-06
6.6447532e-06
6.6325017e-06
6.6052209e-06
6.5785726e-06
6.5629234e-06
6.5515966e-06
6.5321822e-06
6.5055523e-06
6.4908424e-06
6.4931115e-06
6.5045217e-06
6.5228026e-06
6.5389959e-06
6.550428e-06
6.5620202e-06
6.5706906e-06
6.5738474e-06
6.5736916e-06
6.5734466e-06
6.5724522e-06
6.5725138e-06
6.5736879e-06
6.5744344e-06
6.5761617e-06
6.5772823e-06
6.5781074e-06
6.5794979e-06
6.5792425e-06
6.5811474e-06
6.5839879e-06
6.5823381e-06
6.5841542e-06
6.590157e-06
3.1526121e-11
1.0247939e-10
1.93478e-09
1.7936236e-08
9.7976791e-08
3.7816514e-07
1.125501e-06
2.7079891e-06
5.4649453e-06
9.5791362e-06
1.5087832e-05
2.195247e-05
3.0135373e-05
3.9598472e-05
5.0345761e-05
6.2373387e-05
7.5725863e-05
9.0423667e-05
0.00010653275
0.00012407989
0.000143152
0.00016377741
0.0001860385
0.00020995031
0.00023558099
0.000262903
0.00029199371
0.00032284155
0.00035551094
0.00038997416
0.00042626477
0.00046436041
0.00050430934
0.00054635674
0.00059072729
0.00063749121
0.00068686955
0.00073922272
0.0007952202
0.00085586482
0.00092234164
0.00099560927
0.0010757168
0.0011605944
0.0012445993
0.0013169505
0.0013615573
0.0013595156
0.0012950715
0.0011623678
0.00096694914
0.00072023155
0.00042711412
0.00015820325
3.248714e-05
1.0517444e-05
7.332469e-06
6.8530236e-06
6.7869844e-06
6.7755932e-06
6.7746201e-06
6.7784624e-06
6.7871931e-06
6.7962393e-06
6.7945995e-06
6.7573825e-06
6.6923274e-06
6.6713388e-06
6.6835366e-06
6.7260035e-06
6.757777e-06
6.7565452e-06
6.7337705e-06
6.7161448e-06
6.7136926e-06
6.715373e-06
6.7141239e-06
6.7080262e-06
6.7088295e-06
6.7071207e-06
6.6938839e-06
6.6929261e-06
6.7077643e-06
6.6991518e-06
6.6629505e-06
6.6547143e-06
6.6834444e-06
6.7350494e-06
6.7614651e-06
6.7537912e-06
6.7276912e-06
6.6952758e-06
6.6769168e-06
6.6715245e-06
6.6685192e-06
6.667288e-06
6.6692855e-06
6.6707805e-06
6.6719913e-06
6.6719195e-06
6.6734466e-06
6.6732461e-06
6.6679193e-06
6.6628315e-06
6.6540789e-06
6.6447893e-06
6.6322733e-06
6.6050206e-06
6.578625e-06
6.5628674e-06
6.5514555e-06
6.5321417e-06
6.505346e-06
6.4908006e-06
6.4929756e-06
6.5044738e-06
6.5227071e-06
6.5389274e-06
6.5503318e-06
6.561926e-06
6.570576e-06
6.5737129e-06
6.5732308e-06
6.5729359e-06
6.5720222e-06
6.5723667e-06
6.5738008e-06
6.5748296e-06
6.5765712e-06
6.5774042e-06
6.5781455e-06
6.5795114e-06
6.5792717e-06
6.5811935e-06
6.5840734e-06
6.5823828e-06
6.5840934e-06
3.3851228e-11
1.0943417e-10
2.0643265e-09
1.9129361e-08
1.0437868e-07
4.0192097e-07
1.191492e-06
2.8510597e-06
5.7173011e-06
9.9586619e-06
1.5600705e-05
2.2599018e-05
3.0917437e-05
4.0518786e-05
5.1410814e-05
6.35933e-05
7.7115522e-05
9.2004215e-05
0.00010832886
0.00012612556
0.00014547895
0.00016642813
0.00018904834
0.00021337192
0.00023945437
0.00026731052
0.00029698572
0.00032847984
0.00036183444
0.00039702322
0.00043408263
0.00047297859
0.00051377001
0.00055646468
0.00060120485
0.00064823216
0.0006978885
0.00075057743
0.00080691129
0.0008680745
0.00093515787
0.0010089666
0.001089249
0.001173574
0.0012557238
0.0013243549
0.0013630466
0.0013532209
0.0012802749
0.0011399255
0.00093872093
0.00068807991
0.00039233355
0.0001334545
2.7006478e-05
9.8702604e-06
7.2291062e-06
6.8386204e-06
6.7905216e-06
6.7851887e-06
6.7889588e-06
6.7976572e-06
6.8032841e-06
6.8011139e-06
6.778525e-06
6.7166582e-06
6.6747596e-06
6.6743977e-06
6.7054062e-06
6.74314e-06
6.7593701e-06
6.7458478e-06
6.725555e-06
6.7165067e-06
6.7160627e-06
6.7166036e-06
6.7134675e-06
6.7072865e-06
6.7085898e-06
6.7067195e-06
6.6934481e-06
6.6929614e-06
6.7077026e-06
6.6985922e-06
6.6623859e-06
6.6546371e-06
6.6836649e-06
6.7351143e-06
6.7612685e-06
6.7534762e-06
6.7273769e-06
6.6951266e-06
6.6767822e-06
6.6713507e-06
6.6684932e-06
6.6673853e-06
6.6693873e-06
6.6707214e-06
6.6718595e-06
6.6719249e-06
6.673466e-06
6.6731647e-06
6.6678625e-06
6.6627642e-06
6.6540538e-06
6.6448321e-06
6.6320439e-06
6.6048195e-06
6.5786964e-06
6.5627928e-06
6.5513003e-06
6.5320958e-06
6.505123e-06
6.490766e-06
6.4927993e-06
6.5044297e-06
6.5226124e-06
6.5388486e-06
6.5502254e-06
6.5618258e-06
6.5704537e-06
6.5734302e-06
6.5726781e-06
6.5724063e-06
6.5717104e-06
6.5723294e-06
6.5740223e-06
6.5752994e-06
6.5768914e-06
6.577478e-06
6.5781431e-06
6.57953e-06
6.5792966e-06
6.5812616e-06
6.5841181e-06
6.5825106e-06
6.5838551e-06
3.7373249e-11
1.185337e-10
2.2230102e-09
2.0580821e-08
1.1207761e-07
4.2984468e-07
1.2658073e-06
3.0037095e-06
5.9699242e-06
1.0317304e-05
1.6055441e-05
2.3141528e-05
3.153235e-05
4.1204744e-05
5.2158161e-05
6.4411416e-05
7.8000144e-05
9.2971449e-05
0.0001093736
0.0001272617
0.00014670045
0.00016775389
0.00019048372
0.0002149461
0.00024118427
0.00026923479
0.00029911753
0.00033083959
0.00036440232
0.0003998048
0.0004370486
0.00047614676
0.00051712946
0.00055998424
0.00060482376
0.00065188428
0.00070153189
0.00075430533
0.0008110047
0.00087261139
0.00094014519
0.0010142957
0.0010946662
0.0011785661
0.0012594481
0.0013256353
0.0013605416
0.0013458248
0.0012675955
0.0011225104
0.00091764797
0.00066434257
0.00036681255
0.00011647962
2.3813149e-05
9.4179962e-06
7.1515175e-06
6.833e-06
6.7997517e-06
6.8011098e-06
6.8075487e-06
6.8115414e-06
6.8093868e-06
6.7923739e-06
6.738195e-06
6.6860966e-06
6.6744121e-06
6.6878244e-06
6.7274726e-06
6.7527205e-06
6.7525994e-06
6.734736e-06
6.7194887e-06
6.7169545e-06
6.7187037e-06
6.7171572e-06
6.7123911e-06
6.7063892e-06
6.7078632e-06
6.705709e-06
6.6927456e-06
6.6925443e-06
6.7072226e-06
6.6977893e-06
6.6616255e-06
6.6544124e-06
6.6838156e-06
6.7350496e-06
6.7609261e-06
6.7530185e-06
6.7269449e-06
6.6948894e-06
6.6766118e-06
6.6711824e-06
6.6684033e-06
6.6673398e-06
6.6693791e-06
6.670614e-06
6.6717418e-06
6.6719418e-06
6.6734509e-06
6.6730409e-06
6.6677621e-06
6.6626864e-06
6.6540381e-06
6.6448571e-06
6.6317886e-06
6.6046505e-06
6.5787865e-06
6.5627232e-06
6.5511418e-06
6.5320289e-06
6.5048692e-06
6.4907146e-06
6.4926161e-06
6.504394e-06
6.5225248e-06
6.538764e-06
6.5501266e-06
6.5617251e-06
6.570297e-06
6.5729718e-06
6.572148e-06
6.5719398e-06
6.5715409e-06
6.572382e-06
6.574449e-06
6.5757052e-06
6.5771021e-06
6.5775325e-06
6.5781371e-06
6.5795617e-06
6.5793277e-06
6.5813443e-06
6.5841226e-06
6.5826134e-06
6.5835448e-06
4.1307301e-11
1.2704243e-10
2.3584169e-09
2.1809197e-08
1.1854669e-07
4.5303455e-07
1.3268364e-06
3.127373e-06
6.1725263e-06
1.0601904e-05
1.6417628e-05
2.3576655e-05
3.203952e-05
4.1787465e-05
5.2824779e-05
6.5174803e-05
7.8878105e-05
9.3986053e-05
0.00011055244
0.00012863453
0.00014829716
0.00016959646
0.00019258044
0.00021730799
0.00024382192
0.00027215399
0.00030231057
0.00033429926
0.00036812411
0.00040377604
0.00044125343
0.00048054947
0.00052168674
0.00056471255
0.00060973905
0.00065701771
0.00070689329
0.00075994728
0.00081697713
0.00087895906
0.00094688118
0.0010213431
0.0011017613
0.0011851328
0.0012644896
0.0013277377
0.0013581092
0.0013375751
0.0012531377
0.0011025149
0.0008933317
0.0006367895
0.00033748962
9.8774341e-05
2.0857034e-05
9.01953e-06
7.094996e-06
6.8383074e-06
6.8148407e-06
6.81631e-06
6.8167582e-06
6.8141626e-06
6.798164e-06
6.7519267e-06
6.6981717e-06
6.6771921e-06
6.6793512e-06
6.7089882e-06
6.7434273e-06
6.7550746e-06
6.7409162e-06
6.7232204e-06
6.7173505e-06
6.7172882e-06
6.7211782e-06
6.7177114e-06
6.7117744e-06
6.7055884e-06
6.7072469e-06
6.7048667e-06
6.692136e-06
6.6921918e-06
6.7066249e-06
6.6971402e-06
6.661155e-06
6.6543165e-06
6.6840174e-06
6.7350599e-06
6.7606385e-06
6.7526338e-06
6.7265926e-06
6.694752e-06
6.67651e-06
6.6710747e-06
6.668421e-06
6.6673654e-06
6.6693471e-06
6.6705056e-06
6.6716494e-06
6.6720024e-06
6.6734391e-06
6.6729085e-06
6.6676491e-06
6.6625997e-06
6.6540355e-06
6.6448812e-06
6.6315008e-06
6.604469e-06
6.57885e-06
6.5626327e-06
6.5509789e-06
6.5319496e-06
6.5045874e-06
6.4906505e-06
6.4924332e-06
6.504369e-06
6.5224517e-06
6.5386544e-06
6.5500214e-06
6.5615743e-06
6.5700158e-06
6.5724014e-06
6.5716952e-06
6.5715942e-06
6.5714991e-06
6.5724795e-06
6.5749321e-06
6.5759965e-06
6.5772335e-06
6.5775706e-06
6.5781445e-06
6.5795969e-06
6.5793746e-06
6.5814076e-06
6.5841268e-06
6.5825558e-06
4.4526307e-11
1.3529703e-10
2.5017481e-09
2.3117811e-08
1.2545464e-07
4.7780708e-07
1.39184e-06
3.2583077e-06
6.3862389e-06
1.0901325e-05
1.6797234e-05
2.4028807e-05
3.2558229e-05
4.2368871e-05
5.3467819e-05
6.588045e-05
7.9650372e-05
9.4830574e-05
0.000111478
0.00012965124
0.00014941832
0.00017083572
0.00019395548
0.00021882074
0.00024547033
0.00027392983
0.00030423225
0.00033636858
0.00037033602
0.00040612197
0.00044371747
0.00048311981
0.00052435137
0.00056750229
0.00061266124
0.00066006748
0.00071007767
0.00076330187
0.00082054063
0.00088276111
0.0009509226
0.0010255504
0.0011059206
0.0011888093
0.001266969
0.0013280504
0.0013552066
0.0013306702
0.0012420688
0.0010878312
0.00087589483
0.00061728896
0.00031705788
8.7305538e-05
1.9186567e-05
8.76885e-06
7.0669185e-06
6.8490095e-06
6.8273875e-06
6.8231573e-06
6.818278e-06
6.8009889e-06
6.7597519e-06
6.7074788e-06
6.6812757e-06
6.6795278e-06
6.6950744e-06
6.730935e-06
6.7494354e-06
6.7470004e-06
6.7321449e-06
6.7187137e-06
6.7174113e-06
6.7201934e-06
6.7214564e-06
6.71674e-06
6.7104084e-06
6.7040462e-06
6.7054635e-06
6.7036389e-06
6.6912448e-06
6.6912777e-06
6.7055574e-06
6.696314e-06
6.660603e-06
6.6540659e-06
6.6840337e-06
6.7348655e-06
6.7602064e-06
6.7521496e-06
6.7261267e-06
6.6944939e-06
6.6763065e-06
6.670895e-06
6.6683563e-06
6.6673028e-06
6.6692166e-06
6.6703679e-06
6.6715675e-06
6.6720462e-06
6.6733833e-06
6.6727355e-06
6.6675172e-06
6.6625086e-06
6.6540392e-06
6.6448887e-06
6.6312132e-06
6.6043365e-06
6.5789281e-06
6.5625515e-06
6.5508162e-06
6.5318545e-06
6.5042755e-06
6.4905518e-06
6.492256e-06
6.5043412e-06
6.5223769e-06
6.5385383e-06
6.5499261e-06
6.5612904e-06
6.5695432e-06
6.5718132e-06
6.5713833e-06
6.5714004e-06
6.5715489e-06
6.5726474e-06
6.5753358e-06
6.5761806e-06
6.577313e-06
6.5775732e-06
6.5781603e-06
6.5796346e-06
6.5794449e-06
6.5814267e-06
6.5841869e-06
6.5823188e-06
4.8969008e-11
1.4494952e-10
2.655343e-09
2.4510508e-08
1.3275677e-07
5.0371889e-07
1.4589611e-06
3.3920178e-06
6.6025231e-06
1.120263e-05
1.7178506e-05
2.4484196e-05
3.3084135e-05
4.2964904e-05
5.413637e-05
6.6626819e-05
8.0482192e-05
9.5758183e-05
0.00011251335
0.00013080886
0.00015071431
0.00017228769
0.00019557982
0.00022063174
0.00024748222
0.00027615688
0.00030666233
0.00033899878
0.00037316205
0.00040914037
0.00044692187
0.00048650047
0.00052789202
0.00057115667
0.00061642964
0.00066397829
0.00071418654
0.00076764921
0.00082516887
0.00088771114
0.0009562063
0.0010311015
0.0011115153
0.0011939731
0.0012708978
0.0013296276
0.0013531926
0.0013240866
0.0012306132
0.0010719631
0.00085639622
0.00059476873
0.00029337954
7.533075e-05
1.7493817e-05
8.4867873e-06
7.0289853e-06
6.8505938e-06
6.8306857e-06
6.821994e-06
6.8004263e-06
6.7596876e-06
6.711334e-06
6.6824074e-06
6.6781786e-06
6.6869026e-06
6.7172488e-06
6.7432132e-06
6.7489337e-06
6.7381703e-06
6.7238097e-06
6.7159574e-06
6.7173423e-06
6.7236492e-06
6.721574e-06
6.7160353e-06
6.7090301e-06
6.7027022e-06
6.704077e-06
6.7027965e-06
6.6907173e-06
6.6902499e-06
6.7047995e-06
6.6957621e-06
6.6603164e-06
6.6539603e-06
6.6841177e-06
6.7347167e-06
6.7598364e-06
6.75172e-06
6.7257721e-06
6.6943515e-06
6.6761809e-06
6.6707936e-06
6.6683762e-06
6.6672519e-06
6.6690309e-06
6.6702241e-06
6.6715495e-06
6.6721397e-06
6.6733111e-06
6.6725492e-06
6.6673757e-06
6.6623995e-06
6.6540649e-06
6.6448821e-06
6.6308973e-06
6.6041974e-06
6.578967e-06
6.5624569e-06
6.5506549e-06
6.5317459e-06
6.5039461e-06
6.490447e-06
6.4921073e-06
6.504314e-06
6.5222976e-06
6.5384186e-06
6.549818e-06
6.5608151e-06
6.5689327e-06
6.5713129e-06
6.5712203e-06
6.5713408e-06
6.5716461e-06
6.5730277e-06
6.5756223e-06
6.5762879e-06
6.5773727e-06
6.577571e-06
6.5781785e-06
6.5796785e-06
6.5795274e-06
6.5814084e-06
6.5843321e-06
6.5820143e-06
5.2510386e-11
1.5351228e-10
2.8004356e-09
2.5832834e-08
1.3971297e-07
5.2852668e-07
1.5237292e-06
3.5225772e-06
6.8175097e-06
1.1509729e-05
1.7578629e-05
2.4976574e-05
3.3667964e-05
4.3640463e-05
5.4905449e-05
6.749303e-05
8.1450211e-05
9.6833799e-05
0.00011370196
0.00013211496
0.00015213733
0.00017382675
0.00019723416
0.00022240703
0.00024937975
0.00027817657
0.00030881996
0.00034130431
0.00037561604
0.00041173748
0.00044965155
0.00048935666
0.00053086896
0.00057425618
0.00061966971
0.00066739065
0.00071776811
0.00077142288
0.00082916754
0.00089196024
0.00096070397
0.0010357737
0.0011161626
0.0011981985
0.0012740625
0.0013308771
0.0013516136
0.0013189988
0.0012218635
0.001059969
0.00084180798
0.0005780775
0.0002762368
6.7326428e-05
1.6479786e-05
8.3314696e-06
7.0044901e-06
6.8476138e-06
6.8258506e-06
6.8002853e-06
6.7595649e-06
6.7155577e-06
6.685535e-06
6.6785714e-06
6.6841222e-06
6.7080494e-06
6.7359552e-06
6.7458919e-06
6.7411492e-06
6.7310506e-06
6.720814e-06
6.7181407e-06
6.7229252e-06
6.7238239e-06
6.7193212e-06
6.7122568e-06
6.705726e-06
6.700323e-06
6.7024782e-06
6.7017747e-06
6.6894254e-06
6.6888909e-06
6.7039587e-06
6.6952496e-06
6.65988e-06
6.6536315e-06
6.6839576e-06
6.7343834e-06
6.7593078e-06
6.7511572e-06
6.7253037e-06
6.6940815e-06
6.6759387e-06
6.6706539e-06
6.6683683e-06
6.6671005e-06
6.6687478e-06
6.6700286e-06
6.6715177e-06
6.6722261e-06
6.6732021e-06
6.6723311e-06
6.6672351e-06
6.6622841e-06
6.6540712e-06
6.6448629e-06
6.6306113e-06
6.6041056e-06
6.5790157e-06
6.5623704e-06
6.5504993e-06
6.5316159e-06
6.5036169e-06
6.4903291e-06
6.4919726e-06
6.504275e-06
6.5222027e-06
6.5382889e-06
6.5496083e-06
6.5602089e-06
6.5682801e-06
6.5709406e-06
6.5711815e-06
6.571377e-06
6.5718144e-06
6.5735262e-06
6.5758038e-06
6.57635e-06
6.5774154e-06
6.577583e-06
6.5781975e-06
6.5797406e-06
6.5795878e-06
6.5813953e-06
6.5844503e-06
5.6809883e-11
1.6309754e-10
2.955587e-09
2.7238636e-08
1.4704907e-07
5.5431448e-07
1.5896503e-06
3.6520125e-06
7.0245633e-06
1.1796789e-05
1.7942192e-05
2.5412786e-05
3.4174974e-05
4.4218707e-05
5.5557021e-05
6.8221288e-05
8.2259574e-05
9.7729784e-05
0.00011469042
0.00013320145
0.00015333052
0.00017513665
0.0001986709
0.00022398015
0.00025109712
0.00028004661
0.00031083539
0.00034346281
0.00037791652
0.00041417729
0.00045222853
0.00049207318
0.00053372495
0.00057725258
0.00062281199
0.00067065655
0.00072118202
0.00077500984
0.00083295029
0.00089595152
0.00096488917
0.0010400699
0.0011203631
0.001201902
0.0012766255
0.0013314343
0.0013492342
0.0013129778
0.0012120198
0.0010466836
0.00082568717
0.00055959118
0.0002580655
5.9661542e-05
1.5412513e-05
8.1114033e-06
6.9673514e-06
6.8331938e-06
6.7972196e-06
6.7570436e-06
6.715203e-06
6.6886518e-06
6.6777977e-06
6.6810341e-06
6.700998e-06
6.7289129e-06
6.741802e-06
6.7420141e-06
6.7338217e-06
6.7259463e-06
6.7186265e-06
6.7216144e-06
6.7264549e-06
6.7228508e-06
6.7155938e-06
6.7091946e-06
6.7034083e-06
6.6986243e-06
6.7015065e-06
6.701039e-06
6.6881761e-06
6.6879582e-06
6.703482e-06
6.6951404e-06
6.6596911e-06
6.6534108e-06
6.6837943e-06
6.7341376e-06
6.7588759e-06
6.7506791e-06
6.7249621e-06
6.6938813e-06
6.675749e-06
6.6705809e-06
6.6684132e-06
6.6669263e-06
6.6684326e-06
6.6698658e-06
6.6715371e-06
6.6723335e-06
6.6730896e-06
6.6720948e-06
6.6670803e-06
6.6621659e-06
6.6540859e-06
6.6448062e-06
6.6302971e-06
6.6039959e-06
6.5790302e-06
6.562274e-06
6.5503663e-06
6.5314609e-06
6.5032957e-06
6.4902184e-06
6.4918534e-06
6.5042303e-06
6.5220765e-06
6.538059e-06
6.5492202e-06
6.5595772e-06
6.5676954e-06
6.5707302e-06
6.5712216e-06
6.5714637e-06
6.5722028e-06
6.5739714e-06
6.575914e-06
6.5763944e-06
6.5774239e-06
6.5776033e-06
6.5782247e-06
6.5798267e-06
6.5796014e-06
6.5814414e-06
6.5844077e-06
5.9901699e-11
1.7056947e-10
3.0818087e-09
2.8385193e-08
1.5304804e-07
5.7550538e-07
1.6442694e-06
3.760565e-06
7.2009888e-06
1.2046069e-05
1.8264447e-05
2.5807719e-05
3.4642755e-05
4.47603e-05
5.6173586e-05
6.8914404e-05
8.3030498e-05
9.8579507e-05
0.00011562031
0.00013421592
0.00015443429
0.0001763348
0.00019996639
0.0002253716
0.00025258113
0.0002816168
0.00031248933
0.0003451999
0.00037974508
0.00041612126
0.0004543033
0.00049427642
0.0005360492
0.00057968051
0.00062534126
0.00067327154
0.00072388203
0.00077780869
0.00083585195
0.00089895711
0.00096797271
0.0010431501
0.0011232549
0.0012042712
0.001277958
0.0013310712
0.0013465034
0.0013074176
0.0012035955
0.0010357959
0.00081290693
0.00054532301
0.00024412046
5.4320555e-05
1.4766577e-05
7.9999578e-06
6.935656e-06
6.7999001e-06
6.7528884e-06
6.7156111e-06
6.6905668e-06
6.6823151e-06
6.6859847e-06
6.7040728e-06
6.7260266e-06
6.7388621e-06
6.7404461e-06
6.7326267e-06
6.7275498e-06
6.7237884e-06
6.7238591e-06
6.7301529e-06
6.7286663e-06
6.7186735e-06
6.7089226e-06
6.7047187e-06
6.7003587e-06
6.6967418e-06
6.7001733e-06
6.6994113e-06
6.6865262e-06
6.6869268e-06
6.7031115e-06
6.6948879e-06
6.659212e-06
6.6528481e-06
6.6833316e-06
6.7337009e-06
6.7582983e-06
6.7500774e-06
6.7244945e-06
6.6935245e-06
6.6754572e-06
6.6704682e-06
6.6684054e-06
6.6666513e-06
6.6680202e-06
6.6696684e-06
6.6715603e-06
6.6724017e-06
6.6729556e-06
6.6718639e-06
6.6669195e-06
6.6620277e-06
6.6540779e-06
6.6447421e-06
6.6300418e-06
6.6039408e-06
6.579062e-06
6.5621646e-06
6.5502416e-06
6.5312727e-06
6.5029965e-06
6.4901046e-06
6.4917233e-06
6.5041645e-06
6.5218248e-06
6.5376443e-06
6.54868e-06
6.5590263e-06
6.5672517e-06
6.5706552e-06
6.5712978e-06
6.571621e-06
6.572704e-06
6.5742974e-06
6.5759835e-06
6.5764178e-06
6.5774262e-06
6.5776258e-06
6.5782717e-06
6.5799237e-06
6.579579e-06
6.5815705e-06
6.5841859e-06
6.3619719e-11
1.7909043e-10
3.2220001e-09
2.9653925e-08
1.5963887e-07
5.9849025e-07
1.7023654e-06
3.8731888e-06
7.3789697e-06
1.2290143e-05
1.8569619e-05
2.6166504e-05
3.5047708e-05
4.5205027e-05
5.6653219e-05
6.9426208e-05
8.3574274e-05
9.9158117e-05
0.00011623898
0.00013488145
0.00015515489
0.00017712009
0.00020082785
0.00022632321
0.00025363615
0.00028278609
0.00031378082
0.00034661578
0.0003812824
0.00041775615
0.00045601095
0.00049603785
0.0005378534
0.00058151936
0.0006272155
0.00067518133
0.00072585307
0.00077981971
0.00083791376
0.00090108149
0.00097014008
0.0010452869
0.0011251927
0.0012057028
0.0012784076
0.0013299171
0.0013430989
0.0013013072
0.0011947175
0.0010244838
0.00079963098
0.00053033649
0.00023018094
4.9329595e-05
1.4031256e-05
7.8203355e-06
6.8788467e-06
6.7541179e-06
6.714323e-06
6.6944601e-06
6.6841479e-06
6.6876124e-06
6.7057942e-06
6.7253964e-06
6.7351507e-06
6.7373959e-06
6.7294998e-06
6.7257254e-06
6.7249131e-06
6.7267457e-06
6.7292395e-06
6.7318998e-06
6.7255258e-06
6.7123539e-06
6.7049207e-06
6.702356e-06
6.6986517e-06
6.6955957e-06
6.6992422e-06
6.6986449e-06
6.686234e-06
6.6867837e-06
6.7034036e-06
6.694766e-06
6.6587222e-06
6.6522843e-06
6.6828792e-06
6.7334092e-06
6.7577808e-06
6.7495479e-06
6.7240959e-06
6.6931676e-06
6.6751872e-06
6.6703962e-06
6.6683933e-06
6.6663513e-06
6.6676105e-06
6.6695415e-06
6.6716358e-06
6.6724558e-06
6.6727957e-06
6.6716299e-06
6.6667619e-06
6.6619075e-06
6.654062e-06
6.6446208e-06
6.6297755e-06
6.6038859e-06
6.5790936e-06
6.5620188e-06
6.5501338e-06
6.5310595e-06
6.5027215e-06
6.4899991e-06
6.4915946e-06
6.5039978e-06
6.5213796e-06
6.5370867e-06
6.5480756e-06
6.5586152e-06
6.5669721e-06
6.5706762e-06
6.5714958e-06
6.5720008e-06
6.5731437e-06
6.5745102e-06
6.5760392e-06
6.5764071e-06
6.5774445e-06
6.5776491e-06
6.5783437e-06
6.5799961e-06
6.5795638e-06
6.5816633e-06
6.5839e-06
6.6390589e-11
1.8575523e-10
3.3348325e-09
3.0678697e-08
1.6498302e-07
6.1723116e-07
1.7500829e-06
3.9665049e-06
7.5277463e-06
1.2495593e-05
1.8828754e-05
2.6476039e-05
3.5405167e-05
4.560908e-05
5.7103859e-05
6.9924964e-05
8.4123742e-05
9.9761446e-05
0.00011689971
0.00013560331
0.00015594171
0.00017797541
0.00020175473
0.00022732397
0.00025471219
0.00028393743
0.00031500537
0.00034790866
0.0003826279
0.00041914345
0.00045744434
0.0004975168
0.00053937529
0.00058308097
0.00062880953
0.00067680645
0.0007275003
0.00078148508
0.00083959203
0.00090276948
0.00097179345
0.0010468149
0.0011264253
0.0012063549
0.0012780627
0.0013280621
0.0013392361
0.0012951327
0.0011862758
0.0010141472
0.00078785489
0.00051732076
0.00021835819
4.5542408e-05
1.3537383e-05
7.7126946e-06
6.8292463e-06
6.7212202e-06
6.699005e-06
6.6907888e-06
6.6962127e-06
6.7125536e-06
6.7286121e-06
6.7342948e-06
6.7335973e-06
6.7251493e-06
6.7221624e-06
6.7237785e-06
6.7271463e-06
6.7329969e-06
6.7322574e-06
6.7307731e-06
6.720433e-06
6.7061774e-06
6.7012635e-06
6.6994212e-06
6.6965679e-06
6.6939466e-06
6.6979812e-06
6.6980893e-06
6.6859256e-06
6.6866408e-06
6.7037918e-06
6.6943821e-06
6.6579111e-06
6.651106e-06
6.68203e-06
6.7329302e-06
6.757066e-06
6.7489086e-06
6.7235357e-06
6.6925939e-06
6.6747363e-06
6.6702346e-06
6.6682972e-06
6.6659631e-06
6.667095e-06
6.6694292e-06
6.6717235e-06
6.67248e-06
6.6726294e-06
6.6714067e-06
6.6665926e-06
6.6617831e-06
6.6540419e-06
6.6445055e-06
6.6295694e-06
6.6038769e-06
6.5791609e-06
6.5618498e-06
6.5500195e-06
6.5308178e-06
6.5024636e-06
6.4898613e-06
6.4913862e-06
6.5035858e-06
6.5207928e-06
6.5365116e-06
6.5475255e-06
6.5583613e-06
6.566824e-06
6.5707348e-06
6.571909e-06
6.5724916e-06
6.5734572e-06
6.5746412e-06
6.5760681e-06
6.5764016e-06
6.5774701e-06
6.5776808e-06
6.5784223e-06
6.580021e-06
6.5796122e-06
6.5815933e-06
7.0105691e-11
1.9455977e-10
3.4821731e-09
3.2012115e-08
1.7189239e-07
6.4118402e-07
1.8101459e-06
4.0820479e-06
7.7095302e-06
1.2745049e-05
1.9142773e-05
2.6850787e-05
3.5837318e-05
4.6095753e-05
5.7642343e-05
7.0511824e-05
8.475565e-05
0.00010043633
0.00011761726
0.0001363639
0.00015674649
0.00017882574
0.00020265225
0.00022826972
0.00025570716
0.0002849814
0.00031609602
0.00034904001
0.00038379938
0.0004203565
0.00045868679
0.00049877325
0.00054062741
0.00058431842
0.00063001443
0.00067797152
0.00072862622
0.00078262872
0.00084075002
0.00090387525
0.00097281071
0.0010476688
0.0011269622
0.0012063077
0.0012770342
0.0013255587
0.0013347785
0.0012884361
0.0011774
0.0010034683
0.00077583132
0.00050423824
0.00020704381
4.1977749e-05
1.2950806e-05
7.5529883e-06
6.7845951e-06
6.708414e-06
6.6967832e-06
6.7036288e-06
6.7193441e-06
6.7304074e-06
6.7336382e-06
6.7305722e-06
6.7205717e-06
6.7170775e-06
6.7201407e-06
6.7269584e-06
6.7307704e-06
6.7325034e-06
6.7282217e-06
6.7211258e-06
6.7099194e-06
6.7020099e-06
6.6991163e-06
6.6986577e-06
6.6973637e-06
6.6956194e-06
6.6994755e-06
6.6991234e-06
6.6863588e-06
6.6869605e-06
6.7042201e-06
6.6939765e-06
6.6567307e-06
6.6497172e-06
6.6812835e-06
6.7325609e-06
6.7563947e-06
6.7482765e-06
6.7229278e-06
6.6919837e-06
6.6742978e-06
6.6700328e-06
6.6681269e-06
6.6655573e-06
6.6665761e-06
6.6693576e-06
6.671816e-06
6.6724803e-06
6.6724485e-06
6.6712033e-06
6.6664639e-06
6.6616908e-06
6.6539993e-06
6.6443318e-06
6.6293556e-06
6.6038597e-06
6.5792162e-06
6.5616621e-06
6.5499124e-06
6.5305488e-06
6.5022259e-06
6.4896269e-06
6.4909811e-06
6.502984e-06
6.5201741e-06
6.5359673e-06
6.5471118e-06
6.5582388e-06
6.5667792e-06
6.5708956e-06
6.5723767e-06
6.5729191e-06
6.5736557e-06
6.5747259e-06
6.5760707e-06
6.5764083e-06
6.5774993e-06
6.5777321e-06
6.5784705e-06
6.5800116e-06
6.5797425e-06
6.5813501e-06
7.277574e-11
2.0091876e-10
3.5884578e-09
3.2975092e-08
1.7689128e-07
6.5855701e-07
1.8538604e-06
4.1665102e-06
7.8430715e-06
1.292919e-05
1.9375631e-05
2.7129833e-05
3.6160492e-05
4.6461969e-05
5.805159e-05
7.0965484e-05
8.5255963e-05
0.00010098547
0.00011821662
0.00013701558
0.00015745285
0.00017958898
0.00020347352
0.00022914858
0.00025663993
0.00028596145
0.00031711579
0.00035009195
0.00038487295
0.0004214357
0.00045976085
0.00049984183
0.00054169766
0.00058539314
0.00063108377
0.00067902772
0.00072965901
0.00078360407
0.00084167686
0.00090474651
0.00097362639
0.0010483674
0.0011274081
0.0012062666
0.0012761602
0.0013234271
0.0013309856
0.0012827489
0.0011698737
0.0009944112
0.00076561249
0.00049296871
0.00019715718
3.9198461e-05
1.2554271e-05
7.4749324e-06
6.7716934e-06
6.7096549e-06
6.713878e-06
6.7262612e-06
6.7339295e-06
6.7347495e-06
6.731086e-06
6.7186458e-06
6.7128909e-06
6.7159508e-06