/*--------------------------------*- C++ -*----------------------------------*\
| =========                 |                                                 |
| \\      /  F ield         | OpenFOAM: The Open Source CFD Toolbox           |
|  \\    /   O peration     | Version:  2506                                  |
|   \\  /    A nd           | Website:  www.openfoam.com                      |
|    \\/     M anipulation  |                                                 |
\*---------------------------------------------------------------------------*/
FoamFile
{
    version     2.0;
    format      ascii;
    arch        "LSB;label=32;scalar=64";
    class       volScalarField;
    location    "1.85";
    object      omega;
}
// * * * * * * * * * * * * * * * * * * * * * * * * * * * * * * * * * * * * * //

dimensions      [0 0 -1 0 0 0 0];

internalField   nonuniform List<scalar> 
1375
(
39.75997
39.567086
39.391676
39.232477
39.088532
38.959486
38.845705
38.749156
38.669668
38.613845
38.564889
38.56996
38.604245
38.692954
38.863803
39.160585
39.660295
40.497536
41.915937
44.445066
48.57186
55.180387
66.883835
97.581138
251.6185
1129.6988
58.926222
56.497561
54.408999
52.608706
51.04646
49.681213
48.481513
47.421771
46.481458
45.64378
44.895005
44.223395
43.619128
43.07426
42.58192
42.136258
41.731885
41.364404
41.030088
40.72576
40.44831
40.195014
39.963582
39.752352
39.55968
39.384309
39.22509
39.081124
38.952141
38.83856
38.742217
38.662773
38.606712
38.556651
38.56024
38.591767
38.675903
38.839289
39.123789
39.603019
40.407513
41.771905
44.187971
48.230718
54.639047
66.094377
94.757963
242.87219
1130.5439
58.909143
56.455332
54.350561
52.540429
50.97269
49.605082
48.405211
47.346759
46.408526
45.573669
44.828194
44.160137
43.559604
43.018594
42.530091
42.088118
41.687238
41.322979
40.991643
40.690105
40.415247
40.164367
39.935199
39.726095
39.535467
39.362085
39.204737
39.062388
38.934785
38.822434
38.727012
38.648055
38.592219
38.542162
38.545218
38.575371
38.6566
38.814354
39.089158
39.553677
40.329131
41.63653
43.980234
47.900678
54.331301
65.09201
93.939589
229.95653
1133.3681
58.880303
56.383858
54.251539
52.42471
50.84787
49.476478
48.276219
47.220016
46.285798
45.455975
44.716228
44.054297
43.460059
42.925341
42.442991
42.006922
41.611672
41.252737
40.926451
40.629689
40.359356
40.112763
39.887645
39.682385
39.495409
39.325583
39.171643
39.032469
38.907864
38.798423
38.705693
38.629249
38.575919
38.530197
38.535443
38.569752
38.65605
38.820373
39.102277
39.571543
40.350995
41.694764
44.005138
48.004954
54.151083
66.047831
92.883055
236.74399
1138.4547
58.839436
56.283046
54.112601
52.263159
50.674443
49.298376
48.098283
47.045645
46.117352
45.294749
44.563002
43.909476
43.323809
42.797603
42.323576
41.895509
41.507943
41.156364
40.837141
40.547083
40.283081
40.042401
39.822803
39.622746
39.440663
39.275513
39.126001
38.991038
38.870538
38.765154
38.676251
38.603688
38.554083
38.515406
38.524424
38.564833
38.661102
38.839262
39.13616
39.627445
40.468726
41.823642
44.281492
48.276315
54.834482
65.773568
94.662179
246.46287
1145.6682
58.786225
56.152716
53.934213
52.056966
50.454285
49.073537
47.874913
46.827647
45.907247
45.094004
44.372496
43.72963
43.15482
42.639352
42.175756
41.757757
41.379883
41.037524
40.727063
40.445251
40.189024
39.955635
39.742935
39.549344
39.373252
39.213729
39.069498
38.939573
38.824004
38.723443
38.639157
38.571359
38.526004
38.496263
38.509289
38.557153
38.665109
38.853208
39.171291
39.71307
40.550551
42.01485
44.573837
48.657618
55.328048
66.206215
98.052021
235.50156
1154.4676
58.720306
55.99308
53.718016
51.809463
50.191896
48.807086
47.611278
46.571273
45.660849
44.859268
44.150294
43.52029
42.958433
42.455685
42.004419
41.598296
41.231716
40.90007
40.599858
40.327729
40.080528
39.855554
39.650791
39.464618
39.295453
39.142459
39.0044
38.880388
38.770544
38.675483
38.59641
38.534075
38.493555
38.473689
38.490904
38.547923
38.663003
38.864697
39.212706
39.748853
40.673326
42.163495
44.797153
49.289998
55.748119
68.893538
95.930034
260.92913
1164.5198
58.641195
55.803875
53.464366
51.521996
49.890024
48.502971
47.31243
46.282183
45.384252
44.596617
43.902316
43.287193
42.74016
42.25185
41.814499
41.421735
41.067834
40.748313
40.459621
40.198256
39.960998
39.745342
39.549425
39.371541
39.210199
39.064619
38.933407
38.81577
38.712096
38.623057
38.549796
38.494125
38.456659
38.4505
38.472509
38.537611
38.662243
38.88776
39.24061
39.82777
40.759027
42.361016
45.169367
49.595287
56.649918
68.426028
101.45694
261.41082
1175.9117
58.548275
55.585825
53.176595
51.199662
49.55455
48.167385
46.984673
45.966607
45.08351
44.312111
43.634515
43.036085
42.505523
42.033166
41.611131
41.232962
40.892816
40.586353
40.309934
40.060088
39.833516
39.627972
39.441599
39.272616
39.11959
38.981648
38.857622
38.747056
38.650207
38.567637
38.500447
38.452344
38.418644
38.424259
38.454684
38.528056
38.669686
38.908634
39.278406
39.898689
40.874829
42.586173
45.420064
50.144175
57.490231
70.272603
100.74187
258.1625
1187.9871
58.441116
55.339042
52.856413
50.846141
49.190819
47.806665
46.634718
45.631628
44.765663
44.012501
43.353338
42.77315
42.260349
41.804982
41.399206
41.036449
40.710796
40.418064
40.15456
39.916724
39.701256
39.506213
39.329673
39.169738
39.025219
38.89556
38.779406
38.676102
38.586073
38.51026
38.449785
38.40933
38.383132
38.396147
38.437077
38.522278
38.682216
38.921757
39.348193
39.963227
41.116166
42.732689
46.004674
50.747209
58.402805
71.41309
103.76102
288.33305
1200.6423
58.319395
55.06605
52.508318
50.467
48.805095
47.427594
46.269325
45.283821
44.43712
43.703859
43.064536
42.503833
42.009681
41.572118
41.183285
40.836378
40.525653
40.247047
39.996824
39.770981
39.566809
39.382627
39.216084
39.065386
38.929899
38.808398
38.699612
38.603551
38.520717
38.452039
38.398574
38.365566
38.349539
38.36806
38.41926
38.520998
38.685957
38.958733
39.389725
40.10801
41.165253
43.209318
46.125996
51.35264
59.414804
72.048525
111.91633
288.95359
1213.4785
58.182077
54.766877
52.135139
50.067628
48.40378
47.036755
45.895164
44.929547
44.104044
43.392201
42.773682
42.233204
41.758269
41.33888
40.967292
40.636427
40.34085
40.076525
39.839345
39.625411
39.432975
39.259579
39.102874
38.961702
38.834769
38.721008
38.620106
38.531691
38.455925
38.394085
38.34744
38.319856
38.318291
38.341638
38.403798
38.519055
38.695441
39.003634
39.462786
40.189211
41.412282
43.289125
46.65357
52.337698
60.269715
75.116224
114.0936
333.646
1226.4115
58.030711
54.446609
51.743416
49.6546
47.993501
46.640736
45.518847
44.575142
43.772118
43.082527
42.485454
41.965572
41.510107
41.10906
40.754584
40.439675
40.159141
39.908785
39.684189
39.482368
39.301425
39.138484
38.991538
38.859294
38.740996
38.635561
38.542123
38.460564
38.391669
38.336843
38.297709
38.276521
38.28573
38.317944
38.390213
38.514322
38.724382
39.047265
39.517622
40.320846
41.561995
43.613194
47.32882
52.946282
61.361292
77.821466
109.68994
337.49689
1238.7227
57.863826
54.105481
51.336913
49.233809
47.580685
46.245925
45.14614
44.225738
43.446126
42.779342
42.204029
41.704653
41.268454
40.885553
40.547754
40.248443
39.98267
39.745868
39.533628
39.343802
39.173813
39.020896
38.883131
38.759821
38.650015
38.552362
38.466045
38.39138
38.329587
38.281569
38.249635
38.235801
38.253546
38.29669
38.377198
38.521541
38.744
39.076252
39.634125
40.469496
41.784648
44.029924
47.689452
53.771618
63.306127
78.89728
122.28663
400.63956
1250.8037
57.682166
53.748475
50.922233
48.811558
47.171269
45.857533
44.781637
43.885607
43.129915
42.485967
41.932352
41.453171
41.035866
40.670588
40.349012
40.064918
39.813291
39.589245
39.389073
39.210599
39.051076
38.907754
38.778949
38.664185
38.562198
38.47161
38.392201
38.325095
38.269535
38.227952
38.202106
38.199197
38.222817
38.274776
38.368795
38.521241
38.774498
39.139638
39.691134
40.578988
42.012719
44.33505
48.501558
54.941877
65.251969
80.639253
127.6245
391.94689
1263.7792
57.490578
53.383353
50.506943
48.394754
46.771203
45.480725
44.42976
43.558559
42.82683
42.205346
41.672865
41.213261
40.814225
40.465747
40.159686
39.890125
39.651901
39.439982
39.251313
39.083669
38.933932
38.799807
38.679306
38.572777
38.477828
38.394192
38.32242
38.261389
38.211662
38.176109
38.156994
38.16383
38.193556
38.256297
38.361239
38.537856
38.786032
39.178219
39.880123
40.793258
42.266961
44.813916
48.828272
56.124752
66.142205
83.874101
145.54001
419.08987
1277.7048
57.27541
53.000833
50.089626
47.985295
46.382965
45.117724
44.09263
43.246416
42.538279
41.93872
41.426665
40.985861
40.604238
40.271643
39.980352
39.724571
39.498816
39.298502
39.120662
38.963165
38.822644
38.696904
38.584829
38.485668
38.396995
38.320317
38.254677
38.199562
38.1557
38.12617
38.114149
38.128752
38.167044
38.237961
38.357955
38.542783
38.836105
39.302226
39.89017
40.88906
42.564167
45.115623
49.804402
57.273252
67.929007
89.232596
138.49536
527.4135
1293.4269
57.085291
52.648805
49.69622
47.598396
46.017578
44.77717
43.776962
42.954538
42.268646
41.68968
41.196568
40.773352
40.407929
40.090085
39.81248
39.569476
39.355205
39.165456
38.997701
38.849454
38.71744
38.599489
38.494719
38.402071
38.320583
38.250266
38.190547
38.140295
38.102156
38.078151
38.073298
38.094593
38.14144
38.223657
38.355151
38.553496
38.850721
39.313465
40.088715
41.18122
42.805505
45.644356
50.569693
58.849385
69.993163
90.896503
135.32956
515.17088
1310.0214
56.725878
52.170384
49.256214
47.194791
45.647167
44.437711
43.465822
42.669173
42.006579
41.448736
40.974678
40.568965
40.219318
39.915909
39.651594
39.420682
39.217491
39.037985
38.879833
38.740222
38.616069
38.505613
38.408072
38.321275
38.246295
38.181667
38.127535
38.081996
38.04884
38.031666
38.035794
38.063435
38.116619
38.208329
38.354883
38.569372
38.931942
39.428356
40.188951
41.360246
43.349295
46.425042
51.277562
59.26638
73.76411
96.022477
175.28113
554.57615
1328.8739
56.811346
52.021439
49.002997
46.924542
45.381979
44.184279
43.226709
42.444939
41.796923
41.253021
40.79218
40.398959
40.060756
39.768112
39.51396
39.29234
39.097648
38.92653
38.776084
38.643317
38.525753
38.421352
38.329144
38.248003
38.178339
38.118746
38.06841
38.027813
37.99711
37.985527
37.997638
38.033286
38.091202
38.188516
38.351463
38.585734
38.94244
39.506936
40.319827
41.526452
43.341401
46.717427
52.315463
61.926462
79.447524
106.5982
178.5353
641.84822
1350.2545
1371.9053
628.60433
173.79446
120.02126
81.259714
65.493461
54.160397
47.762012
44.25267
42.027045
40.626542
39.629785
39.015706
38.630521
38.366921
38.184215
38.07172
38.00854
37.962224
37.940772
37.94558
37.971456
38.004864
38.05033
38.10317
38.166641
38.241016
38.326266
38.422852
38.532014
38.655851
38.796138
38.956105
39.138926
39.347106
39.586346
39.862511
40.182227
40.554539
40.991668
41.50855
42.125272
42.870304
43.78416
44.928639
46.404285
48.395503
51.300892
55.930604
1402.7165
628.3485
173.55384
116.48805
80.48503
67.072773
54.906203
48.936167
44.60345
42.269534
40.798363
39.816421
39.114076
38.663392
38.381379
38.18651
38.064606
37.987408
37.928187
37.899071
37.896442
37.914732
37.942863
37.982372
38.029075
38.08679
38.153963
38.231977
38.321059
38.421632
38.536177
38.666628
38.81544
38.985983
39.180837
39.405019
39.664631
39.965684
40.317134
40.730402
41.220078
41.805343
42.513393
43.383139
44.473676
45.88175
47.784234
50.565463
55.003757
1434.5811
646.58063
187.46235
116.4525
82.65074
67.918443
55.060682
49.263711
45.308036
42.720978
41.085622
39.921943
39.223028
38.787035
38.424466
38.194551
38.052751
37.962645
37.894714
37.857647
37.847446
37.858311
37.883171
37.916253
37.957421
38.00843
38.06879
38.139962
38.22176
38.3142
38.420153
38.541209
38.67944
38.838196
39.020538
39.230687
39.474437
39.758031
40.089805
40.480542
40.944553
41.500283
42.173591
43.001959
44.042054
45.386786
47.206286
49.869455
54.127415
1466.2457
627.75972
198.54412
128.17824
89.991635
71.197839
57.650544
49.677873
45.784574
43.022135
41.269571
40.075496
39.329776
38.792896
38.437155
38.1964
38.040286
37.935575
37.862672
37.818814
37.801647
37.804748
37.825127
37.851378
37.886323
37.931194
37.985568
38.050003
38.125244
38.210719
38.30792
38.419862
38.548207
38.695824
38.866288
39.063386
39.291969
39.559236
39.87244
40.242116
40.682084
41.210171
41.851015
42.640828
43.634158
44.920286
46.662981
49.21655
53.310353
1497.9432
613.30354
201.08942
143.73334
90.629445
78.73141
59.074808
51.891444
46.900491
43.371647
41.612881
40.261138
39.405745
38.889752
38.486933
38.223625
38.035634
37.915899
37.838583
37.78395
37.756146
37.750859
37.765341
37.78628
37.816686
37.855931
37.90469
37.963446
38.03199
38.110461
38.199092
38.302399
38.421442
38.558762
38.717912
38.902601
39.117476
39.368899
39.66464
40.014568
40.432018
40.934223
41.544803
42.298665
43.248573
44.480474
46.152399
48.605222
52.55163
1530.708
624.51366
205.11016
142.10205
90.151761
80.735097
59.193396
52.269191
46.777676
43.797616
41.805423
40.494543
39.639062
39.002929
38.560626
38.238867
38.010694
37.89228
37.808413
37.742914
37.706641
37.69659
37.70573
37.72432
37.750586
37.783768
37.826696
37.878852
37.940458
38.012256
38.093516
38.188635
38.298936
38.426588
38.575038
38.748036
38.949856
39.186429
39.465795
39.797257
40.193598
40.671554
41.253937
41.974426
42.883935
44.065474
45.672016
48.032182
51.845879
91.670401
81.641296
60.160123
52.593359
47.632591
44.004478
42.086942
40.591116
39.697617
39.003419
38.54999
38.261159
38.02421
37.861566
37.775548
37.706317
37.666851
37.649029
37.650713
37.665452
37.683479
37.711595
37.749089
37.795204
37.851044
37.916629
37.991238
38.078693
38.18079
38.29908
38.437336
38.599123
38.78862
39.011418
39.275407
39.589641
39.966127
40.421389
40.9775
41.666923
42.538874
43.673683
45.219595
47.494177
51.186617
39.82095
39.157098
38.610583
38.277049
38.015273
37.864166
37.757526
37.682839
37.62822
37.599395
37.593697
37.602447
37.61802
37.639985
37.673167
37.714022
37.76422
37.824682
37.892216
37.97229
38.066474
38.175901
38.304484
38.455614
38.633449
38.843402
39.093003
39.391036
39.749009
40.183017
40.714559
41.374993
42.212026
43.303494
44.793198
46.988585
50.570414
37.534831
37.542706
37.556711
37.574253
37.601146
37.635747
37.679811
37.734189
37.795714
37.868865
37.955348
38.056624
38.176115
38.317262
38.484279
38.682075
38.918112
39.200901
39.541528
39.955642
40.464165
41.097521
41.902054
42.953259
44.390988
46.513099
49.994999
38.052038
38.183724
38.340672
38.527199
38.750393
39.018744
39.343091
39.738528
40.225496
40.833534
41.607736
42.621489
44.011052
46.065328
49.457021
)
;

boundaryField
{
    Side
    {
        type            empty;
    }
    Inlet
    {
        type            fixedValue;
        value           uniform 60.24606;
    }
    Airfoil
    {
        type            omegaWallFunction;
        blending        binomial;
        n               2;
        value           nonuniform List<scalar> 
26
(
1129.6988
1130.5439
1133.3681
1138.4547
1145.6682
1154.4676
1164.5198
1175.9117
1187.9871
1200.6423
1213.4785
1226.4115
1238.7227
1250.8037
1263.7792
1277.7048
1293.4269
1310.0214
1328.8739
1350.2545
1371.9053
1402.7165
1434.5811
1466.2457
1497.9432
1530.708
)
;
    }
    Outlet
    {
        type            inletOutlet;
        inletValue      nonuniform List<scalar> 0();
        value           nonuniform List<scalar> 0();
    }
    procBoundary0to1
    {
        type            processor;
        value           nonuniform List<scalar> 
53
(
1563.8402
636.43914
213.14317
139.15441
139.15441
91.266046
88.893495
62.802529
57.617546
48.146153
45.847996
42.645694
40.935306
40.935306
40.148133
39.232346
38.679877
38.293467
38.060653
37.826875
37.711373
37.626746
37.575488
37.543544
37.543544
37.485622
37.484633
37.492519
37.508818
37.528279
37.559216
37.596946
37.645172
37.701229
37.768055
37.847379
37.940984
37.940984
37.931982
38.054936
38.202237
38.3781
38.589215
38.843997
39.153079
39.530991
39.997761
40.582155
41.328013
42.306895
43.651602
45.643023
48.952905
)
;
    }
    procBoundary0to7
    {
        type            processor;
        value           nonuniform List<scalar> 
50
(
39.752283
39.559753
39.384709
39.225791
39.082051
38.953104
38.839244
38.742391
38.662453
38.605815
38.554546
38.557749
38.588624
38.671738
38.834091
39.118433
39.598449
40.403126
41.767254
44.192618
48.22805
54.696447
66.024211
94.983974
240.52902
1130.41
58.931778
56.510907
54.426915
52.629088
51.067968
49.703089
48.502986
47.442494
46.501275
45.662618
44.912752
44.240022
43.63468
43.088795
42.59552
42.148989
41.743766
41.37549
41.040463
40.735486
40.457439
40.2036
39.971652
39.971652
)
;
    }
}


// ************************************************************************* //
