/*--------------------------------*- C++ -*----------------------------------*\
| =========                 |                                                 |
| \\      /  F ield         | OpenFOAM: The Open Source CFD Toolbox           |
|  \\    /   O peration     | Version:  2506                                  |
|   \\  /    A nd           | Website:  www.openfoam.com                      |
|    \\/     M anipulation  |                                                 |
\*---------------------------------------------------------------------------*/
FoamFile
{
    version     2.0;
    format      ascii;
    arch        "LSB;label=32;scalar=64";
    class       volSymmTensorField;
    location    "0.00029";
    object      R;
}
// * * * * * * * * * * * * * * * * * * * * * * * * * * * * * * * * * * * * * //

dimensions      [0 2 -2 0 0 0 0];

internalField   nonuniform List<symmTensor> 
3406
(
(7.3186534 1.9772254 3.7993153e-18 5.9705661 -4.6343958e-19 6.6524864)
(5.9687762 1.5787316 -6.7257295e-19 4.9354855 -3.2392458e-18 5.4577989)
(4.52483 1.1754859 -3.8029751e-19 3.7946784 -1.8644057e-18 4.1637785)
(2.9853132 0.76868864 -1.2815627e-18 2.5438271 2.6996447e-18 2.7672934)
(1.375467 0.3532329 2.0264957e-18 1.2114852 -7.5933104e-19 1.2939046)
(0.3390325 0.061717528 -7.6855864e-19 0.32680744 -9.8103566e-21 0.33289918)
(0.054832526 0.002758989 1.7373941e-19 0.056587793 7.8354857e-20 0.055713433)
(0.023499101 0.00020152061 -1.1142107e-20 0.024395021 -5.42442e-20 0.023950637)
(0.020760521 6.8834663e-05 -2.6890731e-20 0.021566811 4.3794168e-21 0.021169157)
(0.019727549 7.1689419e-05 3.5656118e-21 0.020484226 2.1838119e-20 0.020107289)
(0.018361968 6.5659466e-05 2.0061712e-20 0.019051567 -1.1306571e-20 0.0187081)
(0.016950337 5.9941977e-05 -1.9874316e-20 0.017571049 -1.1197845e-20 0.017261997)
(0.015702908 5.5323885e-05 -1.3119612e-20 0.016262543 1.8847327e-20 0.015983892)
(0.014735126 5.1609897e-05 2.7689624e-20 0.015246776 -3.1906717e-21 0.014991983)
(7.5862612 2.0691562 2.0385825e-19 6.1819293 -4.4542404e-20 6.8921809)
(6.2337426 1.6643264 3.4733774e-19 5.1473805 -7.1779e-20 5.6963728)
(4.7862164 1.2539092 -3.7756935e-19 4.007234 -1.936675e-18 4.4008313)
(3.2391568 0.83963998 -1.9133668e-18 2.7534459 1.5879916e-18 2.9991566)
(1.6035292 0.41790656 1.3324895e-18 1.400707 -1.3312757e-21 1.5027717)
(0.4247946 0.084958425 -4.683724e-19 0.40347513 2.5838915e-19 0.4140671)
(0.068081046 0.0043489146 1.8458908e-19 0.069969449 -6.3077659e-20 0.069028406)
(0.024465453 0.00024968833 -7.0219727e-20 0.025377075 -1.4203903e-20 0.024925014)
(0.021015984 6.2789549e-05 3.3682331e-20 0.021827287 3.709596e-20 0.021426469)
(0.020023676 6.7543075e-05 2.0542415e-20 0.020785839 -2.5314213e-20 0.020405664)
(0.018702334 6.3943916e-05 -2.4909617e-20 0.019398117 -1.3863197e-20 0.019051282)
(0.017256797 5.8413971e-05 -1.4448404e-20 0.017882296 1.6592552e-20 0.017570575)
(0.0159307 5.2689652e-05 1.562173e-20 0.016492172 3.9580467e-21 0.016212318)
(0.01488282 4.8330821e-05 -6.5955794e-22 0.01539258 -9.4453294e-21 0.015138462)
(0.014213395 4.572769e-05 -1.2338435e-20 0.014689831 5.5399441e-21 0.014452322)
(0.013893296 4.4688009e-05 1.1353671e-20 0.014354758 -1.0075257e-21 0.014124697)
(0.013792919 4.5203295e-05 -9.6557351e-21 0.014250716 3.1773115e-21 0.014022466)
(0.013792774 4.70846e-05 1.8561836e-20 0.014252622 -2.5316021e-21 0.014023361)
(0.013884502 4.9532107e-05 -8.9442917e-21 0.014349889 -2.8701165e-21 0.014117857)
(7.8575851 2.1576731 -2.1374058e-18 6.3998941 -1.1000799e-17 7.1371387)
(6.5025482 1.7479526 -6.812696e-18 5.3647008 8.016381e-19 5.9396816)
(5.0515976 1.3318105 1.4782655e-18 4.2241885 6.965916e-18 4.6421597)
(3.4984071 0.9115764 1.8466814e-18 2.9678597 -2.1004139e-19 3.23613)
(1.8454226 0.48498603 -1.9257508e-19 1.6016578 -9.7894571e-19 1.7245295)
(0.52579187 0.11353845 3.0633301e-20 0.49221775 2.9464199e-19 0.5088612)
(0.086031564 0.0069092296 1.1801824e-19 0.087861617 -7.6652859e-20 0.08695274)
(0.02572529 0.00032730105 -4.1855748e-20 0.026654867 -1.440432e-20 0.026194105)
(0.021238951 6.5660159e-05 3.3741173e-21 0.022050907 2.0955293e-21 0.021648839)
(0.020276364 6.4101701e-05 -1.9227595e-20 0.021043284 2.1910349e-20 0.02066088)
(0.019021637 6.0808903e-05 3.8420866e-20 0.019726516 -1.1371144e-20 0.019375125)
(0.017560984 5.5767561e-05 -3.9280405e-20 0.018195246 -3.4873604e-21 0.017879057)
(0.016167438 5.0399455e-05 1.8865681e-20 0.016734634 9.8842637e-21 0.016451808)
(0.015039574 4.5614776e-05 -1.0540375e-22 0.015551709 -5.1209607e-21 0.015296305)
(0.014314353 4.3003869e-05 -6.3298003e-22 0.014790406 1.906292e-22 0.014552994)
(0.013971844 4.2831865e-05 3.9418217e-22 0.014430881 -6.8822224e-23 0.014201947)
(0.013862189 4.3908809e-05 -5.2863927e-22 0.014316048 -3.8457283e-23 0.014089679)
(0.013855113 4.5332245e-05 2.168564e-22 0.014309747 -2.192031e-21 0.014083008)
(0.013904755 4.6470034e-05 -9.9277836e-21 0.014362344 1.7581682e-21 0.014134106)
(0.014178275 4.7830464e-05 1.0366207e-21 0.014647064 3.1848036e-21 0.014413219)
(0.014807091 5.1721668e-05 7.5177905e-21 0.015302699 -1.3149574e-21 0.015055495)
(0.015655176 5.9127775e-05 -7.449046e-22 0.016189872 -1.161323e-21 0.01592315)
(0.016418166 6.7963687e-05 9.4917911e-22 0.016990885 -2.0439706e-22 0.016705232)
(0.016742791 7.3382354e-05 -8.2149409e-22 0.017331369 1.0278027e-22 0.017037789)
(0.016735937 7.5334338e-05 1.0837109e-21 0.017321441 1.110907e-23 0.017029354)
(0.016138929 7.5019525e-05 5.4029967e-22 0.016694995 5.9630449e-22 0.016417677)
(0.014976055 7.209016e-05 5.9938284e-21 0.015480898 -1.5017199e-21 0.015229249)
(0.013267766 6.3922591e-05 -4.4587794e-21 0.013695978 -9.3506413e-23 0.013482634)
(0.011638061 5.453059e-05 -1.7608532e-21 0.011992956 7.2799132e-22 0.01181621)
(0.01072118 5.1172267e-05 1.1616341e-21 0.011040896 6.5467635e-23 0.010881714)
(8.1407268 2.2555971 -1.0067476e-20 6.6231893 -1.2509711e-20 7.3906799)
(6.7821019 1.8397644 -7.2368186e-19 5.5871091 -2.6419053e-18 6.1909159)
(5.3265431 1.4166571 -2.600617e-18 4.4458984 2.4170986e-18 4.8906499)
(3.7666665 0.98906781 2.9546041e-18 3.1874647 2.8414754e-18 3.4801745)
(2.1019344 0.55642251 1.1178232e-18 1.8137308 -1.2125176e-18 1.9591527)
(0.64559366 0.14923668 -1.7299101e-19 0.59548419 -7.5058179e-19 0.62033297)
(0.11032151 0.010973113 -1.1711172e-19 0.1116548 1.5037378e-20 0.11099548)
(0.027453487 0.00044295207 -4.3409594e-21 0.028399602 5.8036857e-21 0.027930416)
(0.021442788 7.1764161e-05 -2.5407735e-20 0.022240785 3.6963467e-21 0.021844653)
(0.020476447 5.9672989e-05 2.9666602e-21 0.021231898 2.1466171e-20 0.020855714)
(0.019321932 5.6578267e-05 2.4069422e-20 0.020022768 -3.8739898e-21 0.019673382)
(0.017859907 5.0708214e-05 -3.9129706e-21 0.018493298 -7.329658e-21 0.018177395)
(0.016409441 4.5335871e-05 -4.8986028e-22 0.016975697 -5.2109938e-21 0.016693196)
(0.015202271 4.1542849e-05 -1.3945929e-20 0.015711288 2.4263351e-21 0.015457292)
(0.014412681 3.931196e-05 2.3776613e-21 0.014883484 6.961746e-21 0.014648563)
(0.014041583 3.8729453e-05 1.0026354e-20 0.014494704 -1.6971135e-21 0.01426859)
(0.013923035 3.9414916e-05 -5.0833508e-22 0.014370736 -2.6706484e-21 0.014147309)
(0.013911478 4.0647143e-05 2.5365768e-22 0.014359645 2.1807134e-21 0.014135996)
(0.01394109 4.2147634e-05 9.6104772e-21 0.014391091 -3.3098795e-21 0.014166488)
(0.014140847 4.4731816e-05 -8.6554791e-21 0.014598684 -6.0270576e-22 0.014370157)
(0.014712083 4.9645054e-05 7.03226e-22 0.015193566 1.5160919e-21 0.014953266)
(0.015532412 5.5883363e-05 5.9395328e-23 0.016050766 -1.1869706e-22 0.015792044)
(0.016314601 6.1264874e-05 -5.0453419e-22 0.016870694 -2.5260945e-23 0.016593175)
(0.016689367 6.435418e-05 -4.4349464e-22 0.017262704 -6.1492921e-22 0.016976558)
(0.016730122 6.7117159e-05 -5.5645478e-21 0.017302605 1.4743006e-21 0.017016884)
(0.016284101 6.8731744e-05 4.8734212e-21 0.016833292 -1.504734e-22 0.016559276)
(0.015312987 6.6172099e-05 -1.0452334e-21 0.015819686 -2.8642832e-22 0.015566956)
(0.013667407 5.7449195e-05 1.2067934e-21 0.014101492 5.1726239e-22 0.013885043)
(0.011971022 4.9026115e-05 4.9214546e-21 0.012331236 -9.5588238e-22 0.012151665)
(0.010934638 4.7510008e-05 -1.7510623e-21 0.011257828 -3.541731e-22 0.011096753)
(8.4237077 2.3489312 -1.4433923e-20 6.8525483 9.821363e-19 7.6472538)
(7.0637566 1.9289351 -3.0256221e-18 5.8159439 3.1750186e-18 6.4464901)
(5.6052364 1.5005063 3.0352614e-18 4.6739719 1.968378e-19 5.1442673)
(4.0397179 1.0665811 -2.2070913e-18 3.4132288 -1.4138792e-19 3.7297379)
(2.3676225 0.62786746 1.9162373e-18 2.0349276 1.7614359e-18 2.2029372)
(0.78941257 0.19269893 4.5338982e-19 0.71843568 -1.3338133e-18 0.75371062)
(0.14275794 0.016960261 -3.4239067e-19 0.14303243 1.1326796e-19 0.14290065)
(0.029883262 0.00059356916 8.6736018e-20 0.030879254 1.6107746e-20 0.030384874)
(0.021637962 7.1223576e-05 -3.3984989e-20 0.022431696 -2.4230888e-20 0.022036943)
(0.020602337 4.9225762e-05 -1.2864053e-21 0.021353589 3.2105888e-21 0.020980107)
(0.019584621 5.0882788e-05 -1.8649775e-20 0.020287803 1.028904e-20 0.019937178)
(0.018141867 4.7428631e-05 2.1417695e-20 0.018778479 4.6805656e-21 0.018460832)
(0.016645243 4.2445471e-05 -1.6832788e-21 0.017213722 -6.0105568e-21 0.016929977)
(0.015360174 3.8021413e-05 -1.480661e-21 0.01586953 -3.9369782e-21 0.015615271)
(0.014501738 3.5830702e-05 -1.1868482e-20 0.014970356 5.0235488e-21 0.014736439)
(0.014099299 3.5529328e-05 1.1624737e-20 0.014548717 1.5474402e-21 0.014324367)
(0.013973651 3.5996275e-05 -4.2588614e-22 0.014417497 -4.6770226e-22 0.014195919)
(0.013960078 3.6928219e-05 8.4340693e-21 0.014404464 -5.2446278e-21 0.014182626)
(0.013978644 3.843874e-05 -1.6690872e-20 0.014424277 2.1618431e-21 0.014201777)
(0.014110684 4.0640801e-05 7.7805272e-21 0.014560629 2.4110191e-21 0.014335974)
(0.0146239 4.4102276e-05 -5.2722393e-22 0.015093629 -2.5438611e-22 0.014859108)
(0.015412734 4.7848079e-05 6.8949665e-21 0.015916025 -2.0847707e-21 0.015664712)
(0.016200751 5.1369878e-05 -6.6092627e-21 0.016740787 6.4985663e-22 0.016471146)
(0.016613275 5.4780891e-05 5.6367678e-21 0.017172709 -6.4790692e-22 0.016893379)
(0.016686378 5.8283688e-05 -6.9337878e-21 0.017247484 4.5480514e-22 0.016967343)
(0.016358806 5.9608901e-05 1.3571095e-21 0.016903019 6.559326e-22 0.016631365)
(0.015595885 5.725389e-05 1.0871355e-21 0.016108002 -8.5856029e-22 0.015852402)
(0.014039286 5.1220321e-05 -5.1433393e-21 0.014485433 8.3401062e-22 0.014262786)
(0.012316418 4.6231829e-05 1.9449402e-21 0.0126903 5.516984e-22 0.012503761)
(0.011168906 4.5539596e-05 3.6926738e-21 0.011502675 -1.2249099e-21 0.01133621)
(8.7069131 2.4483787 5.8478698e-18 7.0794976 8.4155005e-18 7.902776)
(7.3472679 2.0237979 -1.3919249e-18 6.0441476 -6.3003442e-18 6.7027207)
(5.8872686 1.5895772 -2.8996682e-18 4.9030341 3.3802661e-19 5.4000873)
(4.3172171 1.1486143 2.3617048e-19 3.6413892 1.9499992e-18 3.9827562)
(2.6390945 0.70214838 1.4182026e-19 2.2602593 -1.9111719e-20 2.4516921)
(0.96114089 0.24572157 8.9467159e-20 0.86324637 4.2610302e-19 0.91205743)
(0.1854756 0.026065489 1.689094e-19 0.18350377 -1.2949923e-19 0.18448492)
(0.033386215 0.00087385091 -4.4794956e-20 0.034437903 -2.030804e-20 0.033915578)
(0.021865101 9.2950172e-05 6.0102651e-21 0.022644756 3.7194448e-20 0.022256873)
(0.020671963 4.9070136e-05 4.722766e-20 0.021411515 -7.1370078e-21 0.021044578)
(0.019805334 4.8917797e-05 -7.5832867e-21 0.020507303 -3.4117479e-20 0.020157309)
(0.01840797 4.3652889e-05 -3.5048388e-20 0.019048017 1.1483436e-20 0.018728652)
(0.016874491 3.9405483e-05 1.8216144e-20 0.017445381 1.0089099e-20 0.017160453)
(0.015515981 3.6018656e-05 -1.3499102e-21 0.016024781 -4.7704035e-21 0.01577084)
(0.014585269 3.3565877e-05 -1.261581e-23 0.015050951 1.427214e-22 0.014818528)
(0.014148694 3.2610477e-05 1.7073323e-21 0.014594017 -2.6787598e-22 0.01437174)
(0.014016559 3.2617473e-05 -2.0329618e-22 0.014455849 -1.0900053e-22 0.014236565)
(0.014002272 3.2998039e-05 4.7720279e-22 0.014441928 -2.1248911e-21 0.014222465)
(0.014011109 3.3898151e-05 -9.3363613e-21 0.014451711 3.1988959e-21 0.014231737)
(0.014091076 3.5557803e-05 8.8494428e-21 0.0145341 3.0030034e-22 0.014312904)
(0.014542048 3.8477341e-05 -3.3718307e-22 0.015002387 -1.400788e-21 0.014772539)
(0.015297942 4.2161117e-05 2.5474202e-22 0.01579015 -1.0993369e-21 0.015544328)
(0.016078203 4.6237109e-05 -7.3506332e-21 0.016606324 1.241011e-21 0.016342575)
(0.016516234 4.9966527e-05 1.8474131e-21 0.017065032 2.3343846e-21 0.016790961)
(0.016608811 5.2658117e-05 1.1671153e-20 0.017160568 -2.7052842e-21 0.01688503)
(0.016386344 5.4060703e-05 -6.6199772e-21 0.016926869 -6.0997494e-22 0.016656966)
(0.015815604 5.45673e-05 -8.0464207e-22 0.016334165 8.0349677e-22 0.016075237)
(0.014379556 5.2200297e-05 -3.2732568e-22 0.014839279 7.0115238e-22 0.014609758)
(0.012671161 4.8228971e-05 4.5885805e-21 0.013059365 -9.9026264e-22 0.012865612)
(0.01142824 4.5709707e-05 -3.0556199e-21 0.0117711 1.1840812e-22 0.011600044)
(0.010508791 4.3920935e-05 5.5672713e-22 0.010823638 1.8851458e-22 0.010666615)
(8.9753442 2.5386195 3.9750489e-19 7.3010433 -9.4128869e-20 8.1482642)
(7.6198711 2.1118339 2.0963522e-21 6.2687852 1.1059342e-20 6.9517744)
(6.1622871 1.6741432 -1.3502795e-19 5.1303612 3.3449083e-20 5.6515957)
(4.5914859 1.22824 -1.8692399e-19 3.8697069 -1.5901573e-18 4.2342896)
(2.9065538 0.77505207 -1.5717062e-18 2.4841511 1.2089667e-18 2.6977112)
(1.1616695 0.30541578 9.8663044e-19 1.03194 4.8521487e-19 1.0968417)
(0.24012115 0.038653301 -2.0276223e-20 0.23448436 -1.6127773e-19 0.23728148)
(0.038396681 0.0012812185 -4.6268671e-22 0.039539355 3.0947276e-22 0.038971727)
(0.022144695 0.00010492693 3.1041391e-23 0.022915911 1.1020304e-22 0.022532368)
(0.020723161 4.0360712e-05 1.1237126e-21 0.021452044 -2.6785098e-22 0.021090961)
(0.019982723 4.6003736e-05 9.3993077e-22 0.020677608 -2.2204953e-22 0.020331072)
(0.018660405 4.2430851e-05 -3.3612353e-21 0.019296872 7.9598043e-22 0.018979288)
(0.017100461 3.701291e-05 1.6529476e-21 0.017668742 4.6953687e-21 0.017385196)
(0.015672907 3.2559227e-05 1.3779143e-20 0.016178134 -6.1525209e-21 0.015926038)
(0.014668513 2.9827597e-05 -1.2937307e-20 0.015128513 -5.5074088e-21 0.014898969)
(0.014193952 2.8274656e-05 -1.1283296e-20 0.01463275 7.9051455e-21 0.014413769)
(0.014053132 2.7758522e-05 1.0745705e-20 0.014486163 -9.3508603e-22 0.014270037)
(0.014037755 2.8602833e-05 -9.1998101e-21 0.014471441 8.4088252e-22 0.014254989)
(0.014038171 3.0516782e-05 7.7205401e-21 0.014472693 -7.1319993e-22 0.014255786)
(0.014082457 3.3072508e-05 -7.3169535e-21 0.014518404 -4.9106686e-22 0.014300772)
(0.014467686 3.5734775e-05 1.4242546e-21 0.014918659 2.4554859e-21 0.01469351)
(0.015189521 3.8387276e-05 7.1582012e-21 0.015671407 -2.548764e-22 0.015430748)
(0.015954583 4.1464145e-05 5.9651544e-21 0.016472519 -2.9938203e-21 0.016213852)
(0.016409754 4.5260974e-05 -6.6284835e-21 0.016950769 -9.0565689e-22 0.016680566)
(0.016517543 4.9103447e-05 -5.7715602e-21 0.0170637 2.4862391e-21 0.016790929)
(0.0163927 5.2674922e-05 5.5566295e-21 0.016932276 -5.5102328e-22 0.016662827)
(0.015968649 5.5256342e-05 -4.7839631e-21 0.016492309 4.8454781e-22 0.016230826)
(0.01468468 5.3891766e-05 4.4644955e-21 0.015154683 -5.7311792e-22 0.014920038)
(0.013028944 4.9285971e-05 -3.5428252e-21 0.013427403 4.193187e-22 0.01322855)
(0.011713179 4.5386902e-05 2.8043334e-21 0.012060801 -3.1127705e-22 0.01188739)
(0.010672163 4.2708556e-05 -2.6624329e-21 0.010985487 5.0369379e-22 0.010829254)
(0.009518443 3.8294171e-05 4.8482369e-21 0.0097844359 -5.5955083e-22 0.0096518589)
(9.2343234 2.6324302 -5.1082539e-18 7.5108547 -4.0750637e-18 8.3831985)
(7.8843681 2.2028766 6.8184352e-19 6.4835543 3.6409479e-18 7.1918774)
(6.4311182 1.7613245 -4.1418252e-19 5.3501029 -2.2121029e-18 5.8962566)
(4.8622779 1.3102588 -2.3270674e-18 4.0934011 1.9288012e-18 4.4818018)
(3.1714557 0.85062017 1.9870592e-18 2.7050041 1.0852629e-18 2.9408906)
(1.3850026 0.3714663 -8.0247344e-20 1.2184473 -6.7339421e-19 1.3020044)
(0.30830169 0.05604588 -1.4361795e-20 0.29675163 -1.5086203e-19 0.30249036)
(0.045535681 0.0019841634 -5.9157504e-20 0.046770812 8.5107681e-21 0.046157461)
(0.022507756 0.00013433123 5.9816717e-21 0.023270085 2.5314812e-20 0.022891469)
(0.020787245 3.6285922e-05 2.1772131e-20 0.021509479 -1.2398647e-20 0.021152357)
(0.020113192 4.0257543e-05 -2.0100995e-20 0.020807875 8.3693747e-21 0.020461522)
(0.018890292 3.9011454e-05 3.7626916e-20 0.01953025 2.4261765e-21 0.019211133)
(0.017318972 3.6037935e-05 -3.2374593e-21 0.017889262 -1.7152113e-20 0.01760493)
(0.015828789 3.1623419e-05 -1.3976578e-20 0.016333996 -1.7565262e-21 0.016082078)
(0.014751014 2.7916365e-05 -1.0300215e-20 0.015209272 1.2115963e-20 0.014980757)
(0.014234887 2.6478655e-05 2.1426156e-20 0.01467099 -2.6451482e-21 0.014453484)
(0.014082578 2.6725614e-05 -1.0347214e-20 0.014512817 -4.1158572e-21 0.014298212)
(0.014064787 2.8206033e-05 -3.6422234e-23 0.014496289 4.3231874e-21 0.014281054)
(0.014060078 3.0026676e-05 8.8331555e-21 0.014492586 -3.1199154e-21 0.014276806)
(0.01407927 3.1443592e-05 -9.2434263e-21 0.014511943 -3.1434352e-22 0.014296073)
(0.014400198 3.2911451e-05 1.4905548e-22 0.01484464 1.38623e-21 0.014622857)
(0.01508906 3.5927475e-05 -8.517441e-22 0.015561489 2.1372142e-22 0.01532566)
(0.015835468 4.1174308e-05 6.1528687e-22 0.016341979 1.7406315e-24 0.016089129)
(0.016304713 4.6792172e-05 -2.6628086e-22 0.016834954 1.6334154e-22 0.016570247)
(0.016427211 5.0320355e-05 5.1649349e-22 0.016963823 6.2603645e-22 0.016695955)
(0.016382621 5.2809238e-05 5.7266321e-21 0.016915995 -1.4887735e-21 0.016649798)
(0.016065053 5.5538196e-05 -5.0833142e-21 0.016585559 -2.8655646e-22 0.016325822)
(0.014950399 5.5167565e-05 -3.8908792e-21 0.015422617 1.3696349e-21 0.015187039)
(0.013380989 5.0020135e-05 3.7448445e-21 0.013783086 1.527637e-22 0.013582559)
(0.012022876 4.4262408e-05 3.3314015e-21 0.012370265 -7.9923902e-22 0.012197095)
(0.010859012 4.0361921e-05 -2.1144256e-22 0.011166688 -5.9323977e-22 0.01101337)
(0.0095875847 3.6554799e-05 -4.4605304e-21 0.0098455983 5.8471484e-22 0.0097170722)
(9.4760913 2.7163635 -1.9862981e-19 7.7117793 5.5976436e-20 8.605159)
(8.1338439 2.2859635 -3.3715284e-19 6.6900898 9.0718281e-20 7.4204343)
(6.6875957 1.8425836 5.7220377e-19 5.562639 2.2145078e-18 6.1312262)
(5.124172 1.3884075 2.1705054e-18 4.3116994 -1.9371747e-18 4.7222522)
(3.4333734 0.92448003 -1.9282739e-18 2.9246763 -1.1648973e-18 3.182021)
(1.6212577 0.44051032 -9.1201275e-21 1.4159148 1.6533972e-19 1.5191841)
(0.39060191 0.078380775 -3.5050201e-19 0.37072354 2.2705709e-19 0.38062443)
(0.055515286 0.003108509 7.1185663e-20 0.056831509 -1.4966031e-21 0.056179183)
(0.023017409 0.00017312074 -3.1702417e-20 0.023773911 -1.0253754e-20 0.023399046)
(0.020837019 3.8128659e-05 4.1550394e-21 0.021547075 1.0877242e-20 0.021196606)
(0.020201093 4.3148108e-05 -1.3541859e-21 0.020884669 8.134384e-21 0.020543982)
(0.019098456 3.8716457e-05 2.145631e-20 0.019733865 -3.1914932e-21 0.01941746)
(0.01753766 3.3525179e-05 -6.4361359e-22 0.01810579 -6.3650558e-21 0.017822913)
(0.01598702 2.9641873e-05 -7.0251355e-22 0.016487911 -2.4494629e-22 0.016238498)
(0.014838942 2.699259e-05 -1.2910506e-21 0.015290259 2.405921e-22 0.015065499)
(0.014278846 2.5729874e-05 1.4396927e-21 0.014706737 -2.9259707e-22 0.014493622)
(0.014111627 2.605246e-05 -6.5648738e-22 0.014533186 2.3051526e-21 0.014323214)
(0.014092537 2.7322256e-05 8.6992615e-21 0.01451532 -3.1464919e-21 0.014304734)
(0.014083786 2.8156308e-05 -8.5774663e-21 0.014508044 9.5668626e-22 0.014296681)
(0.014083327 2.8511664e-05 7.5703003e-21 0.014508086 -5.4009164e-22 0.014296447)
(0.014343466 3.0502301e-05 -6.463897e-21 0.014778507 6.3402772e-22 0.014561707)
(0.014999442 3.5904586e-05 7.2291777e-21 0.015461388 -8.9744348e-22 0.015231097)
(0.015723039 4.3158739e-05 -6.7429573e-21 0.016216991 -1.7672692e-22 0.015970724)
(0.016203419 4.8425908e-05 -3.7646089e-23 0.01671897 1.1173143e-21 0.016461904)
(0.016341975 5.0633761e-05 6.6442162e-22 0.016862017 -7.7115744e-22 0.016602736)
(0.016341221 5.3173638e-05 -4.6510037e-21 0.016858934 1.6143514e-21 0.016600873)
(0.016118879 5.7248147e-05 8.7946055e-21 0.016627595 -7.6323276e-22 0.016374083)
(0.015169987 5.6575913e-05 -1.5566299e-21 0.015637507 -1.0690149e-21 0.015404571)
(0.013717005 4.9734746e-05 -3.5426266e-21 0.014118988 2.8603596e-22 0.013918741)
(0.012352075 4.3408107e-05 -2.9985704e-21 0.012699502 6.5408039e-22 0.01252646)
(0.011067581 4.0541802e-05 -6.8697178e-22 0.011373338 4.383862e-22 0.011221084)
(0.0096673149 3.7546611e-05 9.1857678e-22 0.0099221214 2.2216073e-23 0.0097952674)
(0.0089833865 3.5603764e-05 9.752591e-22 0.0092040625 -2.7650696e-23 0.0090942223)
(0.0093649858 3.9277456e-05 2.77549e-21 0.0095940239 -4.7315404e-22 0.0094800573)
(0.011224418 5.2247432e-05 -1.1488066e-21 0.011519449 -2.1842545e-22 0.011372714)
(9.7119094 2.8054546 2.1044314e-18 7.9029104 1.1782796e-17 8.8192859)
(8.3766061 2.3729216 7.3866036e-18 6.8869377 -3.8202847e-18 7.6408304)
(6.9372706 1.9266786 -4.6454101e-18 5.7661091 -5.3469723e-18 6.3583004)
(5.3801491 1.468714 4.4341017e-19 4.5223421 3.8753876e-19 4.9559367)
(3.6926615 1.0004712 -1.8986023e-18 3.1401251 1.3948294e-18 3.4197065)
(1.8678491 0.5140669 1.4106599e-18 1.6202884 1.2505055e-18 1.7450739)
(0.48756146 0.10697694 2.7359331e-19 0.45596787 -7.3436272e-19 0.47168935)
(0.069195885 0.0049513992 -1.5788032e-19 0.070473797 9.9195081e-21 0.069847503)
(0.02372258 0.00021892927 3.0437978e-20 0.024481947 1.4498699e-20 0.024106747)
(0.020860996 2.5768827e-05 -2.2350556e-20 0.021570266 9.8025e-21 0.021220083)
(0.020233671 3.0462768e-05 4.1507832e-20 0.020913781 -3.6115407e-21 0.020575499)
(0.019256465 3.2068264e-05 -1.9594423e-20 0.019890103 -1.3173467e-20 0.019575043)
(0.017750421 2.9647255e-05 1.9376013e-22 0.018317391 6.3488646e-21 0.018035496)
(0.016147146 2.5534776e-05 8.6258374e-22 0.01664535 2.1845054e-23 0.016397578)
(0.014930031 2.2829191e-05 -2.2383302e-22 0.015376317 -3.1554423e-21 0.015154329)
(0.014325002 2.2172479e-05 -1.0713241e-20 0.014745733 1.5068889e-21 0.014536435)
(0.014139462 2.2455409e-05 4.4716401e-22 0.014552705 2.6683534e-21 0.014347118)
(0.014118535 2.3271499e-05 4.159121e-22 0.014532311 8.086268e-24 0.014326457)
(0.01410925 2.4566753e-05 3.8746293e-22 0.014523691 1.5238571e-21 0.014317464)
(0.014094957 2.6302756e-05 7.769131e-21 0.014508968 -2.7313179e-21 0.014302936)
(0.014297662 2.9488444e-05 -7.786061e-21 0.014719232 -2.7489651e-22 0.014509421)
(0.01492331 3.3781135e-05 5.5488027e-22 0.01537023 1.227002e-21 0.01514774)
(0.015621659 3.7434916e-05 -1.1176984e-22 0.016099137 7.9287378e-22 0.015861402)
(0.016105246 4.0034496e-05 5.0223588e-21 0.016603788 -8.2758092e-22 0.016355536)
(0.016258046 4.3086569e-05 -1.1662559e-21 0.016760826 -1.1993467e-21 0.016510498)
(0.016271187 4.7394204e-05 -5.1387944e-21 0.016771027 1.3976459e-21 0.016522246)
(0.016143758 5.0558777e-05 5.3593424e-21 0.016637009 -9.8166254e-23 0.016391573)
(0.015340115 4.8466375e-05 9.3938541e-22 0.015798717 -6.2872463e-22 0.015570531)
(0.014026271 4.339335e-05 -2.8403824e-22 0.01442825 4.4537837e-23 0.014228223)
(0.012693546 4.1118103e-05 7.1622138e-22 0.013046982 3.33842e-23 0.012871111)
(0.011297809 4.0733277e-05 1.6310197e-21 0.011609681 -2.0936742e-22 0.011454504)
(0.0097533059 3.7460246e-05 1.0895976e-21 0.010010692 -2.3725103e-22 0.0098826378)
(0.0089972567 3.4333179e-05 8.6572434e-24 0.0092178841 -1.9391525e-22 0.0091081228)
(0.0092554066 3.6340695e-05 -1.6404426e-21 0.0094793953 2.3876354e-22 0.0093679733)
(0.011166069 4.8431607e-05 8.9705714e-22 0.0114559 1.0933769e-22 0.011311762)
(0.012419462 6.0790642e-05 1.863015e-21 0.012764397 -1.7967875e-22 0.012592938)
(9.9349568 2.8852762 3.7533323e-19 8.0902523 9.2955404e-19 9.0252178)
(8.607153 2.4520265 -2.533455e-18 7.0791971 6.2305865e-18 7.8529101)
(7.1756976 2.004494 6.1290544e-18 5.9644079 -2.3791355e-18 6.5772546)
(5.6265143 1.5445578 -5.9218862e-18 4.7276822 -2.0009111e-18 5.1822515)
(3.9456254 1.0740821 2.6157971e-18 3.3517449 2.6850831e-18 3.6523361)
(2.1194216 0.58722637 -3.0976609e-20 1.8297903 -1.8511801e-19 1.9761078)
(0.59846186 0.14105686 4.9718544e-19 0.55186489 -3.1483772e-19 0.57507249)
(0.087524796 0.0078900358 -1.1979191e-19 0.088466234 -3.8521206e-20 0.088017016)
(0.024696515 0.00030203248 5.7519881e-21 0.025448901 1.4810374e-20 0.025078344)
(0.020876457 3.0378884e-05 -2.3270024e-22 0.021572198 9.0251635e-21 0.021228821)
(0.02023949 2.5265115e-05 2.2237932e-20 0.020911926 -1.1152187e-20 0.020578468)
(0.019335546 2.4368187e-05 -2.1138998e-20 0.019968597 1.5819252e-21 0.019654599)
(0.017934761 2.3265372e-05 1.6825737e-20 0.018506398 -1.0265139e-21 0.018222792)
(0.016307868 2.2073916e-05 -1.5915099e-20 0.01680907 -2.6811067e-21 0.016560315)
(0.01502426 2.0663039e-05 1.2355767e-21 0.015470994 3.8702665e-21 0.015249246)
(0.014370565 1.9921705e-05 -4.4493948e-22 0.014790365 1.8415303e-22 0.01458197)
(0.014161507 2.0035792e-05 7.1812881e-22 0.014573008 -1.4188824e-22 0.014368711)
(0.0141351 2.0644871e-05 7.1662754e-24 0.014546787 3.9834785e-23 0.014342393)
(0.014124785 2.1836276e-05 1.8082715e-22 0.014536589 -9.7054439e-23 0.014332097)
(0.01410058 2.3437598e-05 -4.3266733e-22 0.014510169 -1.4600896e-21 0.014306773)
(0.014255403 2.5812639e-05 -7.8433333e-21 0.014668882 1.2890471e-21 0.014463525)
(0.014854676 2.8354777e-05 2.130105e-22 0.015289658 1.1648078e-21 0.015073546)
(0.015530219 3.0787034e-05 -6.7976358e-22 0.015992602 1.1743225e-21 0.015762828)
(0.016009748 3.3453177e-05 7.7276341e-21 0.016492692 -2.7338362e-22 0.016252655)
(0.01617112 3.5884048e-05 5.5596837e-21 0.01665939 -2.5095192e-21 0.016416742)
(0.016193246 3.7329634e-05 -5.3338181e-21 0.016679115 8.2301182e-23 0.016437715)
(0.016150677 3.8053277e-05 8.6657525e-23 0.016633164 5.8695617e-22 0.016393463)
(0.015457959 3.7438622e-05 -8.2275978e-23 0.015911002 3.1378586e-22 0.015685895)
(0.014296773 3.7231952e-05 2.9013188e-21 0.014701958 -4.9045482e-22 0.014500594)
(0.013040935 3.7703735e-05 -8.7737335e-22 0.013403255 -6.6638872e-22 0.01322318)
(0.011554265 3.6922271e-05 -6.2437377e-21 0.011873841 1.1024291e-21 0.011715001)
(0.0098464282 3.2811418e-05 2.4951041e-21 0.010106694 8.7986013e-23 0.0099773276)
(0.0089991745 2.9557745e-05 -2.5418766e-23 0.0092195896 -1.4217884e-22 0.0091100231)
(0.0091697447 3.1336128e-05 -1.3933506e-22 0.009390408 8.124962e-23 0.0092807113)
(0.011103128 4.2757768e-05 9.9817685e-22 0.011390036 -2.2348439e-22 0.011247428)
(0.012389481 5.430862e-05 -1.7772204e-21 0.012732114 1.2530414e-22 0.012561863)
(0.01287274 6.1632921e-05 3.413007e-22 0.013235911 1.7348712e-23 0.013055515)
(0.012973749 6.6912163e-05 7.028057e-23 0.013337605 -9.0484141e-23 0.01315691)
(11.38853 3.3915278 -2.8886549e-18 9.193071 -1.5273832e-17 10.307483)
(10.157616 2.9716646 -4.239453e-18 8.2741051 3.9290714e-19 9.2292715)
(8.8347084 2.5358694 1.0258393e-18 7.2667834 6.7741277e-18 8.0612156)
(7.4091024 2.085465 3.7144521e-18 6.1571491 -4.5833192e-19 6.7909797)
(5.8665933 1.6222662 -1.35782e-18 4.9270266 -5.6289921e-18 5.4024833)
(4.1924864 1.1484125 -3.8684184e-18 3.5581119 1.6781887e-18 3.8793212)
(2.372303 0.66051551 1.5016534e-18 2.0410148 9.0861514e-19 2.2086631)
(0.72287104 0.18079578 -5.9006703e-19 0.65817591 1.9114373e-21 0.69047737)
(0.11141945 0.012294772 1.2124452e-19 0.11157839 -1.1337036e-21 0.11153291)
(0.026022352 0.00041305261 -3.2017517e-20 0.026771627 6.4401399e-22 0.026403794)
(0.020882135 3.7648931e-05 2.3496793e-20 0.021558179 -6.9126822e-22 0.021224858)
(0.020231878 2.6233181e-05 -2.0291424e-20 0.020883869 1.0127891e-21 0.020561877)
(0.019364694 2.5913273e-05 1.8991297e-20 0.019979614 5.1073031e-21 0.019675433)
(0.018061802 2.2090958e-05 8.7615337e-22 0.01862342 -1.6519044e-21 0.018345398)
(0.016465873 1.8842937e-05 1.3202999e-20 0.016961967 -5.6737832e-21 0.016716272)
(0.015124569 1.7526986e-05 -1.3273961e-20 0.01556571 -2.0860363e-21 0.015347206)
(0.014416521 1.7044671e-05 1.0754594e-22 0.014829603 6.0433379e-22 0.014624963)
(0.014175742 1.6785896e-05 -9.5760604e-21 0.01458005 1.3759247e-21 0.014379741)
(0.014142493 1.6958625e-05 7.3407028e-22 0.014547154 4.0426269e-21 0.014346671)
(0.014130116 1.7754083e-05 8.6680407e-21 0.014535474 -1.2271895e-21 0.014334607)
(0.014100645 1.8914515e-05 -1.3000448e-22 0.014504593 -1.5327035e-21 0.014304403)
(0.014214082 2.0585559e-05 -1.8023859e-22 0.014620873 -1.206992e-23 0.014419254)
(0.014787396 2.329437e-05 2.8432681e-23 0.01521485 1.603106e-22 0.015002921)
(0.015443852 2.6540018e-05 1.9957943e-21 0.015897641 5.3569831e-22 0.015672596)
(0.015913482 2.91517e-05 6.2115599e-21 0.016387067 -1.9154127e-21 0.016152143)
(0.016078899 3.0141056e-05 -5.3898542e-21 0.016558354 -7.0231764e-22 0.016320519)
(0.016115557 3.0598717e-05 -5.3655019e-21 0.016594981 2.1071967e-21 0.016357171)
(0.0161286 3.2409615e-05 5.3946532e-21 0.016610286 2.9340109e-22 0.016371319)
(0.015521376 3.4394196e-05 4.335965e-21 0.015980342 -1.4614175e-21 0.015752596)
(0.014513166 3.5590281e-05 -2.9362731e-21 0.014929919 -5.6000216e-23 0.014723071)
(0.0133816 3.5909097e-05 -8.7177902e-22 0.013757712 4.2805036e-22 0.01357101)
(0.011838244 3.4065454e-05 4.655196e-22 0.012167657 -7.3989266e-23 0.012004125)
(0.0099496535 2.8674554e-05 -7.84804e-22 0.010212502 1.3058744e-23 0.010082011)
(0.0089986063 2.5038134e-05 -6.4265612e-24 0.0092179341 1.8198015e-22 0.0091090396)
(0.0091048018 2.6540636e-05 1.7217726e-21 0.0093219667 -2.6435893e-22 0.0092141368)
(0.011038162 3.7153843e-05 -9.1818608e-22 0.011320224 -1.0554162e-22 0.011180176)
(0.01236139 4.7969555e-05 -2.0393365e-21 0.012698992 3.4352161e-23 0.012531387)
(0.012863631 5.5344286e-05 -5.5928515e-21 0.013222087 8.0258981e-22 0.013044158)
(0.012967291 6.0957908e-05 1.7061183e-21 0.01332642 1.5115323e-22 0.013148174)
(11.60718 3.4756393 -1.1758848e-18 9.3795659 -4.2549584e-18 10.510973)
(10.378561 3.0538047 -4.5109648e-18 8.461113 4.4054788e-19 9.4341023)
(9.0585469 2.6158048 6.2835282e-19 7.4551905 3.8130001e-18 8.2681261)
(7.636794 2.1629338 6.8647608e-19 6.3483159 2.311587e-18 7.0011076)
(6.0991631 1.6969107 2.7277362e-18 5.1225144 -3.0011255e-19 5.6170792)