/*--------------------------------*- C++ -*----------------------------------*\
| =========                 |                                                 |
| \\      /  F ield         | OpenFOAM: The Open Source CFD Toolbox           |
|  \\    /   O peration     | Version:  2506                                  |
|   \\  /    A nd           | Website:  www.openfoam.com                      |
|    \\/     M anipulation  |                                                 |
\*---------------------------------------------------------------------------*/
FoamFile
{
    version     2.0;
    format      ascii;
    arch        "LSB;label=32;scalar=64";
    class       volScalarField;
    location    "0.0275";
    object      p;
}
// * * * * * * * * * * * * * * * * * * * * * * * * * * * * * * * * * * * * * //

dimensions      [1 -1 -2 0 0 0 0];

internalField   nonuniform List<scalar> 
13761
(
34738.531
34417.617
34109.857
36827.178
36454.831
36091.449
35738.1
35395.696
35064.997
34746.608
34440.983
34148.441
38281.19
37896.917
37517.102
37143.203
36776.559
36418.386
36069.761
35731.61
35404.713
35089.696
34787.039
34497.093
34220.071
40097.311
39720.577
39341.493
38961.693
38582.797
38206.391
37833.999
37467.059
37106.896
36754.721
36411.614
36078.51
35756.203
35445.337
35146.417
34859.816
34585.775
41436.049
41086.046
40728.925
40366.13
39999.178
39629.632
39259.072
38889.076
38521.186
38156.894
37797.611
37444.646
37099.197
36762.343
36435.02
36118.033
35812.041
35517.566
35235.002
34964.615
34706.556
42638.678
42327.871
42006.402
41675.32
41335.801
40989.134
40636.705
40279.971
39920.439
39559.638
39199.094
38840.308
38484.733
38133.749
37788.641
37450.592
37120.671
36799.812
36488.825
36188.378
35899.007
35621.124
35355.017
35100.858
34858.713
43676.858
43412.532
43135.557
42846.504
42546.092
42235.185
41914.781
41586.004
41250.087
40908.36
40562.222
40213.124
39862.539
39511.943
39162.79
38816.491
38474.391
38137.746
37807.719
37485.363
37171.605
36867.254
36572.982
36289.335
36016.741
35755.505
35505.818
35267.768
35041.347
44540.548
44324.782
44095.889
43853.996
43599.361
43332.381
43053.598
42763.694
42463.488
42153.936
41836.109
41511.188
41180.445
40845.225
40506.921
40166.952
39826.74
39487.691
39151.17
38818.486
38490.859
38169.428
37855.223
37549.162
37252.045
36964.545
36687.213
36420.486
36164.684
35920.017
35686.592
35464.421
35253.44
45235.075
45065.721
44883.95
44689.549
44482.4
44262.501
44029.964
43785.031
43528.076
43259.612
42980.288
42690.885
42392.313
42085.596
41771.864
41452.336
41128.3
40801.094
40472.081
40142.631
39814.099
39487.804
39165.011
38846.907
38534.597
38229.09
37931.283
37641.965
37361.805
37091.353
36831.053
36581.234
36342.119
36113.834
35896.411
35689.806
45776.353
45648.455
45509.612
45359.4
45197.451
45023.474
44837.254
44638.677
44427.732
44204.522
43969.274
43722.343
43464.215
43195.508
42916.968
42629.462
42333.97
42031.573
41723.437
41410.797
41094.935
40777.162
40458.794
40141.133
39825.453
39512.974
39204.843
38902.133
38605.823
38316.79
38035.805
37763.526
37500.501
37247.171
37003.873
36770.839
36548.209
36336.03
36134.278
35942.855
46270.208
46185.972
46093.16
45991.237
45879.684
45758.006
45625.743
45482.481
45327.866
45161.609
44983.502
44793.43
44591.379
44377.445
44151.841
43914.904
43667.097
43409.01
43141.354
42864.96
42580.764
42289.798
41993.182
41692.097
41387.772
41081.465
40774.438
40467.945
40163.21
39861.408
39563.647
39270.962
38984.302
38704.519
38432.363
38168.478
37913.401
37667.572
37431.326
37204.901
36988.445
36782.019
36585.612
36399.146
46596.393
46544.9
46487.198
46422.791
46351.16
46271.778
46184.118
46087.662
45981.905
45866.367
45740.601
45604.208
45456.839
45298.218
45128.139
44946.49
44753.255
44548.523
44332.497
44105.497
43867.968
43620.47
43363.686
43098.41
42825.536
42546.056
42261.037
41971.614
41678.964
41384.292
41088.81
40793.721
40500.2
40209.378
39922.322
39640.029
39363.417
39093.308
38830.432
38575.412
38328.776
38090.952
37862.274
37642.98
37433.221
37233.068
37042.519
36861.51
36689.918
46845.598
46824.638
46800.165
46771.855
46739.33
46702.176
46659.956
46612.225
46558.519
46498.354
46431.228
46356.63
46274.049
46182.981
46082.937
45973.451
45854.093
45724.473
45584.256
45433.171
45271.022
45097.698
44913.181
44717.558
44511.022
44293.879
44066.555
43829.587
43583.628
43329.439
43067.877
42799.89
42526.502
42248.799
41967.909
41684.986
41401.193
41117.682
40835.583
40555.982
40279.903
40008.307
39742.076
39482.006
39228.8
38983.064
38745.309
38515.953
38295.323
38083.654
37881.099
37687.733
37503.561
37328.527
37162.521
46957.987
46955.464
46952.044
46947.787
46942.617
46936.229
46928.198
46918.108
46905.588
46890.304
46871.95
46850.237
46824.852
46795.428
46761.563
46722.834
46678.809
46629.037
46573.049
46510.359
46440.471
46362.889
46277.124
46182.705
46079.179
45966.129
45843.18
45710.008
45566.352
45412.02
45246.908
45070.998
44884.372
44687.217
44479.827
44262.61
44036.083
43800.872
43557.705
43307.406
43050.882
42789.113
42523.141
42254.046
41982.933
41710.917
41439.102
41168.57
40900.365
40635.469
40374.805
40119.223
39869.486
39626.273
39390.17
39161.67
38941.18
38729.016
38525.412
38330.516
38144.406
37967.093
37798.527
37638.607
46231.001
47492.752
47065.029
47085.628
47086.057
47086.822
47099.6
47132.197
47211.702
47288.341
47263.563
47146.931
47028.632
46950.994
46928.194
46952.221
47033.952
47075.007
47047.792
47031.659
47024.955
47023.932
47023.104
47020.246
47015.903
47011.338
47007.231
47003.686
47000.914
46999.355
46999.283
47000.352
47001.444
47001.093
46998.421
46993.924
46989.218
46985.9
46984.529
46984.431
46984.404
46983.625
46981.924
46979.414
46976.062
46971.594
46965.598
46957.666
46947.432
46934.57
46918.782
46899.787
46877.281
46850.911
46820.284
46784.991
46744.613
46698.712
46646.833
46588.506
46523.249
46450.582
46370.033
46281.143
46183.476
46076.63
45960.243
45834
45697.653
45551.017
45393.991
45226.56
45048.804
44860.904
44663.143
44455.914
44239.714
44015.145
43782.907
43543.788
43298.658
43048.459
42794.187
42536.875
42277.584
42017.38
41757.322
41498.445
41241.749
40988.177
40738.613
40493.873
40254.69
40021.717
39795.518
39576.567
39365.259
39161.899
38966.713
38779.849
38601.384
38431.33
38269.644
38116.231
46225.141
47494.258
47066.516
47085.251
47085.826
47086.655
47099.514
47132.162
47213.873
47293.897
47277.952
47160.158
47039.34
46958.193
46931.868
46951.471
47029.163
47081.269
47055.165
47037.941
47031.284
47031.207
47031.61
47029.661
47025.958
47021.921
47018.275
47015.244
47013.224
47012.697
47013.776
47015.897
47017.816
47018.107
47016.055
47012.357
47008.764
47006.898
47007.227
47008.93
47010.68
47011.615
47011.602
47010.803
47009.236
47006.651
47002.654
46996.84
46988.854
46978.373
46965.109
46948.788
46929.116
46905.749
46878.308
46846.394
46809.601
46767.505
46719.666
46665.625
46604.918
46537.08
46461.653
46378.194
46286.282
46185.53
46075.587
45956.153
45826.987
45687.915
45538.84
45379.75
45210.724
45031.937
44843.665
44646.286
44440.28
44226.225
44004.794
43776.745
43542.912
43304.198
43061.555
42815.977
42568.475
42320.072
42071.779
41824.589
41579.458
41337.288
41098.926
40865.153
40636.672
40414.108
40198.002
39988.81
39786.91
39592.597
39406.089
39227.528
39056.99
38894.488
38739.983
38593.384
46219.813
47495.613
47067.849
47084.905
47085.639
47086.511
47099.474
47132.211
47216.112
47299.334
47291.962
47173.024
47049.789
46965.289
46935.542
46951.296
47025.099
47086.708
47062.186
47044.135
47037.85
47038.837
47040.456
47039.33
47036.151
47032.516
47029.237
47026.708
47025.479
47025.999
47028.189
47031.284
47033.966
47034.876
47033.462
47030.599
47028.155
47027.766
47029.805
47033.3
47036.802
47039.419
47041.057
47041.935
47042.119
47041.383
47039.344
47035.61
47029.83
47021.69
47010.906
46997.215
46980.329
46959.915
46935.605
46907.012
46873.741
46835.383
46791.51
46741.678
46685.438
46622.338
46551.938
46473.808
46387.543
46292.769
46189.15
46076.397
45954.28
45822.633
45681.365
45530.468
45370.021
45200.194
45021.255
44833.573
44637.608
44433.919
44223.154
44006.039
43783.376
43556.031
43324.917
43090.983
42855.198
42618.54
42381.976
42146.455
41912.889
41682.141
41455.02
41232.271
41014.567
40802.506
40596.603
40397.294
40204.941
40019.825
39842.155
39672.067
39509.632
39354.865
39207.726
39068.129
46215.019
47496.823
47069.034
47084.591
47085.486
47086.391
47099.482
47132.352
47218.438
47304.719
47305.577
47185.521
47059.95
46972.233
46939.19
46951.609
47021.783
47091.266
47069.022
47050.435
47044.756
47046.819
47049.577
47049.185
47046.427
47043.086
47040.109
47038.088
47037.684
47039.248
47042.489
47046.478
47049.868
47051.39
47050.642
47048.653
47047.395
47048.505
47052.26
47057.534
47062.76
47067.022
47070.273
47072.794
47074.693
47075.767
47075.649
47073.954
47070.339
47064.498
47056.151
47045.043
47030.895
47013.382
46992.147
46966.815
46937.003
46902.313
46862.331
46816.628
46764.768
46706.316
46640.843
46567.937
46487.207
46398.293
46300.871
46194.667
46079.459
45955.092
45821.48
45678.619
45526.589
45365.558
45195.786
45017.631
44831.539
44638.05
44437.785
44231.447
44019.803
43803.683
43583.962
43361.55
43137.373
42912.363
42687.446
42463.526
42241.474
42022.111
41806.21
41594.481
41387.563
41186.025
40990.358
40800.978
40618.227
40442.372
40273.611
40112.072
39957.823
39810.874
39671.187
39538.679
46210.756
47497.895
47070.075
47084.31
47085.362
47086.298
47099.544
47132.593
47220.868
47310.107
47318.793
47197.637
47069.788
46978.981
46942.796
46952.329
47019.194
47094.982
47075.85
47056.975
47052.004
47055.06
47058.842
47059.101
47056.685
47053.572
47050.875
47049.395
47049.844
47052.427
47056.645
47061.447
47065.504
47067.645
47067.599
47066.527
47066.489
47069.118
47074.591
47081.625
47088.539
47094.407
47099.231
47103.359
47106.937
47109.783
47111.545
47111.85
47110.361
47106.776
47100.822
47092.25
47080.789
47066.125
47047.908
47025.776
46999.356
46968.264
46932.097
46890.442
46842.874
46788.974
46728.328
46660.538
46585.228
46502.051
46410.698
46310.904
46202.462
46085.222
45959.108
45824.119
45680.336
45527.925
45367.141
45198.331
45021.929
44838.454
44648.509
44452.766
44251.964
44046.899
43838.409
43627.364
43414.648
43201.153
42987.758
42775.328
42564.69
42356.626
42151.869
41951.095
41754.91
41563.853
41378.39
41198.913
41025.746
40859.142
40699.283
40546.293
40400.229
40261.103
40128.874
46207.025
47498.833
47070.974
47084.065
47085.261
47086.232
47099.664
47132.94
47223.418
47315.543
47331.616
47209.361
47079.271
46985.496
46946.343
46953.376
47017.286
47097.983
47082.811
47063.802
47059.512
47063.408
47068.08
47068.922
47066.804
47063.903
47061.52
47060.637
47061.957
47065.513
47070.622
47076.163
47080.86
47083.642
47084.34
47084.228
47085.441
47089.607
47096.794
47105.563
47114.127
47121.558
47127.915
47133.613
47138.831
47143.411
47147.015
47149.28
47149.876
47148.504
47144.898
47138.814
47129.991
47118.12
47102.864
47083.869
47060.775
47033.208
47000.78
46963.087
46919.723
46870.279
46814.357
46751.572
46681.564
46603.998
46518.58
46425.056
46323.23
46212.961
46094.18
45966.891
45831.176
45687.201
45535.215
45375.557
45208.646
45034.987
44855.16
44669.812
44479.655
44285.45
44088.001
43888.137
43686.706
43484.554
43282.522
43081.429
42882.062
42685.163
42491.426
42301.492
42115.932
41935.258
41759.907
41590.248
41426.586
41269.157
41118.133
40973.624
40835.685
40704.322
40579.495
46203.819
47499.642
47071.734
47083.857
47085.183
47086.194
47099.843
47133.401
47226.103
47321.068
47344.058
47220.676
47088.363
46991.742
46949.812
46954.682
47016.006
47100.455
47089.982
47070.883
47067.148
47071.696
47077.129
47078.496
47076.664
47074.011
47072.026
47071.813
47074.013
47078.481
47084.39
47090.605
47095.933
47099.387
47100.876
47101.764
47104.258
47109.973
47118.865
47129.338
47139.51
47148.457
47156.308
47163.536
47170.356
47176.633
47182.04
47186.224
47188.863
47189.662
47188.359
47184.716
47178.478
47169.347
47156.992
47141.072
47121.235
47097.12
47068.351
47034.537
46995.284
46950.198
46898.894
46841.003
46776.176
46704.094
46624.474
46537.075
46441.711
46338.252
46226.634
46106.867
45979.035
45843.303
45699.915
45549.203
45391.575
45227.518
45057.592
44882.422
44702.69
44519.128
44332.504
44143.612
43953.257
43762.248
43571.382
43381.437
43193.159
43007.251
42824.367
42645.112
42470.025
42299.586
42134.205
41974.23
41819.943
41671.564
41529.253
41393.11
41263.183
41139.475
46201.141
47500.328
47072.358
47083.687
47085.125
47086.183
47100.082
47133.981
47228.936
47326.717
47356.127
47231.566
47097.036
46997.691
46953.186
46956.186
47015.298
47102.61
47097.374
47078.133
47074.766
47079.775
47085.868
47087.712
47086.175
47083.85
47082.38
47082.918
47085.993
47091.299
47097.919
47104.76
47110.725
47114.892
47117.219
47119.146
47122.945
47130.215
47140.797
47152.941
47164.672
47175.087
47184.391
47193.11
47201.496
47209.431
47216.602
47222.665
47227.305
47230.231
47231.186
47229.936
47226.232
47219.785
47210.272
47197.362
47180.714
47159.977
47134.786
47104.765
47069.531
47028.704
46981.912
46928.799
46869.031
46802.302
46728.341
46646.92
46557.861
46461.045
46356.416
46243.988
46123.847
45996.157
45861.16
45719.179
45570.612
45415.93
45255.675
45090.448
44920.906
44747.749
44571.713
44393.555
44214.044
44033.947
43854.021
43675.003
43497.599
43322.47
43150.235
42981.461
42816.653
42656.262
42500.671
42350.202
42205.119
42065.624
41931.865
41803.931
41681.865
41565.664
46198.975
47500.89
47072.847
47083.556
47085.087
47086.199
47100.38
47134.687
47231.929
47332.522
47367.843
47242.027
47105.27
47003.32
46956.45
46957.843
47015.116
47104.654
47104.952
47085.444
47082.228
47087.546
47094.245
47096.521
47095.296
47093.402
47092.581
47093.943
47097.874
47103.935
47111.187
47118.624
47125.247
47130.174
47133.384
47136.382
47141.504
47150.331
47162.586
47176.359
47189.598
47201.433
47212.145
47222.317
47232.232
47241.788
47250.684
47258.586
47265.185
47270.195
47273.362
47274.456
47273.236
47269.416
47262.685
47252.72
47239.191
47221.757
47200.064
47173.749
47142.44
47105.771
47063.383
47014.933
46960.1
46898.592
46830.148
46754.553
46671.641
46581.299
46483.479
46378.201
46265.554
46145.699
46018.878
45885.405
45745.667
45600.122
45449.294
45293.761
45134.156
44971.149
44805.443
44637.762
44468.837
44299.396
44130.157
43961.817
43795.04
43630.45
43468.627
43310.102
43155.348
43004.784
42858.767
42717.596
42581.513
42450.705
42325.304
42205.393
42091.006
46197.335
47501.335
47073.205
47083.465
47085.069
47086.242
47100.738
47135.525
47235.091
47338.511
47379.195
47252.025
47113.03
47008.6
46959.581
46959.61
47015.415
47106.764
47112.637
47092.697
47089.426
47094.965
47102.274
47104.941
47104.05
47102.692
47102.64
47104.875
47109.622
47116.358
47124.179
47132.202
47139.518
47145.252
47149.385
47153.48
47159.937
47170.319
47184.221
47199.579
47214.271
47227.475
47239.552
47251.14
47262.548
47273.687
47284.269
47293.97
47302.487
47309.537
47314.869
47318.26
47319.471
47318.223
47314.213
47307.129
47296.648
47282.442
47264.166
47241.468
47213.99
47181.377
47143.284
47099.38
47049.358
46992.935
46929.866
46859.945
46783.016
46698.976
46607.784
46509.464
46404.107
46291.877
46173.008
46047.812
45916.663
45780.008
45638.351
45492.251
45342.315
45189.186
45033.536
44876.055
44717.437
44558.374
44399.545
44241.606
44085.185
43930.865
43779.191
43630.657
43485.704
43344.72
43208.037
43075.927
42948.616
42826.271
42709.014
42596.915
46196.177
47501.663
47073.433
47083.413
47085.07
47086.311
47101.155
47136.5
47238.432
47344.722
47390.282
47261.598
47120.311
47013.52
46962.571
46961.466
47016.17
47109.088
47120.345
47099.795
47096.299
47102.047
47110.013
47113.042
47112.506
47111.773
47112.573
47115.696
47121.207
47128.544
47136.893
47145.512
47153.563
47160.149
47165.236
47170.446
47178.245
47190.172
47205.692
47222.585
47238.674
47253.196
47266.595
47279.562
47292.426
47305.112
47317.343
47328.803
47339.196
47348.243
47355.695
47361.333
47364.922
47366.191
47364.842
47360.572
47353.07
47342.014
47327.073
47307.904
47284.163
47255.504
47221.596
47182.12
47136.781
47085.31
47027.47
46963.069
46891.959
46814.047
46729.297
46637.739
46539.467
46434.643
46323.501
46206.343
46083.537
45955.514
45822.763
45685.823
45545.275
45401.738
45255.854
45108.277
44959.669
44810.686
44661.968
44514.135
44367.774
44223.433
44081.62
43942.795
43807.368
43675.696
43548.084
43424.783
43305.996
43191.876
43082.529
46195.559
47501.863
47073.529
47083.402
47085.094
47086.408
47101.634
47137.619
47241.967
47351.122
47400.943
47270.649
47127.071
47018.057
46965.404
46963.384
47017.347
47111.73
47127.985
47106.674
47102.85
47108.879
47117.579
47120.951
47120.792
47120.735
47122.409
47126.383
47132.585
47140.464
47149.328
47158.575
47167.41
47174.888
47180.951
47187.283
47196.423
47209.884
47226.987
47245.363
47262.789
47278.577
47293.257
47307.565
47321.851
47336.049
47349.891
47363.071
47375.299
47386.299
47395.825
47403.66
47409.575
47413.305
47414.558
47413.037
47408.441
47400.46
47388.771
47373.043
47352.942
47328.136
47298.302
47263.136
47222.354
47175.697
47122.942
47063.905
46998.448
46926.487
46847.993
46762.998
46671.601
46573.963
46470.314
46360.952
46246.235
46126.58
46002.462
45874.398
45742.949
45608.706
45472.281
45334.299
45195.388
45056.169
44917.245
44779.199
44642.584
44507.91
44375.65
44246.233
44120.036
43997.389
43878.569
43763.807
43653.285
43547.14
43445.465
46195.349
47502.005
47073.492
47083.422
47085.131
47086.524
47102.164
47138.887
47245.758
47357.909
47411.419
47279.19
47133.273
47022.184
46968.062
46965.343
47018.925
47114.764
47135.464
47113.267
47109.076
47115.488
47125.011
47128.742
47129.009
47129.667
47132.2
47136.959
47143.768
47152.134
47161.508
47171.417
47181.08
47189.482
47196.534
47203.991
47214.468
47229.444
47248.092
47267.893
47286.598
47303.6
47319.52
47335.135
47350.808
47366.482
47381.899
47396.761
47410.784
47423.694
47435.248
47445.231
47453.42
47459.552
47463.346
47464.51
47462.75
47457.767
47449.248
47436.872
47420.316
47399.258
47373.389
47342.414
47306.061
47264.082
47216.265
47162.435
47102.466
47036.278
46963.849
46885.218
46800.483
46709.807
46613.417
46511.603
46404.715
46293.159
46177.392
46057.914
45935.263
45810.004
45682.722
45554.013
45424.471
45294.683
45165.219
45036.627
44909.423
44784.085
44661.053
44540.723
44423.442
44309.515
44199.194
44092.688
43990.159
43891.73
46195.585
47502.044
47073.33
47083.475
47085.183
47086.66
47102.75
47140.302
47249.697
47364.82
47421.473
47287.288
47138.995
47025.945
46970.568
46967.354
47020.909
47118.265
47142.789
47119.638
47115.101
47122.021
47132.44
47136.537
47137.259
47138.597
47141.878
47147.312
47154.676
47163.539
47173.477
47184.105
47194.628
47203.956
47211.988
47220.559
47232.365
47248.838
47268.991
47290.159
47310.08
47328.249
47345.368
47362.254
47379.282
47396.398
47413.354
47429.861
47445.638
47460.416
47473.952
47486.035
47496.444
47504.924
47511.196
47514.98
47515.987
47513.925
47508.493
47499.381
47486.274
47468.862
47446.847
47419.944
47387.891
47350.454
47307.428
47258.649
47203.998
47143.405
47076.853
47004.383
46926.097
46842.156
46752.786
46658.269
46558.947
46455.214
46347.511
46236.321
46122.158
46005.566
45887.101
45767.33
45646.817
45526.116
45405.763
45286.275
45168.133
45051.784
44937.634
44826.052
44717.357
44611.827
44509.693
44411.141
44316.32
46196.32
47501.979
47073.048
47083.569
47085.259
47086.826
47103.401
47141.878
47253.857
47372.038
47431.309
47294.902
47144.172
47029.302
46972.894
46969.381
47023.259
47122.227
47149.784
47125.724
47120.952
47128.595
47139.962
47144.485
47145.729
47147.725
47151.644
47157.569
47165.352
47174.661
47185.164
47196.582
47208.039
47218.336
47227.345
47237.002
47250.108
47268.049
47289.662
47312.139
47333.219
47352.505
47370.786
47388.911
47407.26
47425.786
47444.246
47462.36
47479.853
47496.456
47511.929
47526.062
47538.639
47549.409
47558.101
47564.438
47568.141
47568.925
47566.499
47560.561
47550.808
47536.94
47518.667
47495.717
47467.838
47434.805
47396.424
47352.539
47303.039
47247.861
47186.994
47120.483
47048.43
46970.998
46888.406
46800.933
46708.911
46612.722
46512.792
46409.586
46303.599
46195.348
46085.366
45974.191
45862.356
45750.385
45638.785
45528.037
45418.594
45310.869
45205.243
45102.052
45001.593
44904.119
44809.84
44718.925
46197.5
47501.808
47072.648
47083.699
47085.354
47087.019
47104.115
47143.617
47258.235
47379.502
47440.748
47301.96
47148.79
47032.252
46975.041
46971.429
47025.984
47126.681
47156.471
47131.586
47126.726
47135.258
47147.554
47152.531
47154.331
47156.909
47161.321
47167.68
47175.901
47185.724
47196.875
47209.014
47221.328
47232.516
47242.503
47253.283
47267.711
47287.089
47310.097
47333.811
47355.989
47376.349
47395.759
47415.091
47434.732
47454.634
47474.563
47494.249
47513.418
47531.805
47549.169
47565.305
47579.998
47593.002
47604.052
47612.877
47619.206
47622.761
47623.259
47620.409
47613.915
47603.488
47588.848
47569.733
47545.9
47517.135
47483.252
47444.105
47399.59
47349.649
47294.277
47233.522
47167.489
47096.336
47020.282
46939.599
46854.61
46765.685
46673.236
46577.709
46479.579
46379.342
46277.504
46174.576
46071.063
45967.461
45864.245
45761.866
45660.747
45561.273
45463.796
45368.628
45276.04
45186.263
45099.489
46199.14
47501.532
47072.133
47083.864
47085.47
47087.241
47104.896
47145.528
47262.844
47387.25
47449.893
47308.504
47152.857
47034.798
46977.01
46973.496
47029.09
47131.627
47162.802
47137.228
47132.453
47141.996
47155.192
47160.66
47163.059
47166.171
47170.96
47177.626
47186.22
47196.561
47208.41
47221.447
47234.728
47246.83
47257.592
47269.341
47285.03
47305.884
47330.296
47355.186
47378.386
47399.766
47420.269
47440.781
47461.684
47482.931
47504.298
47525.519
47546.326
47566.455
47585.667
47603.757
47620.514
47635.697
47649.045
47660.294
47669.179
47675.43
47678.773
47678.923
47675.595
47668.507
47657.39
47641.993
47622.082
47597.45
47567.922
47533.358
47493.663
47448.783
47398.718
47343.52
47283.292
47218.194
47148.44
47074.295
46996.074
46914.134
46828.873
46740.721
46650.132
46557.579
46463.545
46368.515
46272.967
46177.367
46082.162
45987.775
45894.6
45802.995
45713.285
45625.759
45540.664
45458.212
46201.212
47501.152
47071.504
47084.064
47085.606
47087.494
47105.748
47147.616
47267.691
47395.282
47458.699
47314.491
47156.347
47036.929
46978.8
46975.586
47032.583
47137.054
47168.752
47142.684
47138.191
47148.848
47162.867
47168.808
47171.803
47175.385
47180.453
47187.374
47196.361
47207.287
47219.896
47233.809
47247.993
47260.962
47272.656
47285.47
47302.342
47324.414
47350.095
47376.175
47400.399
47422.762
47444.314
47465.97
47488.107
47510.67
47533.441
47556.162
47578.57
47600.401
47621.416
47641.412
47660.183
47677.489
47693.075
47706.683
47718.055
47726.928
47733.036
47736.101
47735.844
47731.994
47724.294
47712.499
47696.386
47675.754
47650.437
47620.304
47585.264
47545.27
47500.326
47450.485
47395.852
47336.585
47272.892
47205.034
47133.316
47058.082
46979.719
46898.636
46815.27
46730.072
46643.501
46556.017
46468.072
46380.104
46292.533
46205.756
46120.138
46036.012
45953.68
45873.405
45795.415
46203.711
47500.668
47070.765
47084.296
47085.764
47087.778
47106.672
47149.89
47272.782
47403.603
47467.168
47319.927
47159.269
47038.655
46980.422
46977.709
47036.473
47142.941
47174.3
47147.974
47143.964
47155.815
47170.535
47176.889
47180.452
47184.462
47189.775
47196.944
47206.352
47217.905
47231.306
47246.116
47261.202
47275.006
47287.527
47301.327
47319.468
47342.974
47369.852
47396.758
47421.892
47445.275
47467.886
47490.654
47513.989
47537.837
47561.981
47586.171
47610.143
47633.635
47656.41
47678.266
47698.999
47718.373
47736.138
47752.042
47765.832
47777.254
47786.046
47791.939
47794.661
47793.951
47789.561
47781.254
47768.814
47752.051
47730.804
47704.949
47674.402
47639.121
47599.113
47554.432
47505.183
47451.523
47393.656
47331.834
47266.354
47197.55
47125.792
47051.474
46975.013
46896.84
46817.39
46737.099
46656.393
46575.686
46495.37
46415.816
46337.365
46260.325
46184.974
46111.554
46040.273
46206.621
47500.081
47069.916
47084.558
47085.945
47088.095
47107.673
47152.355
47278.126
47412.213
47475.279
47324.799
47161.618
47039.98
46981.883
46979.874
47040.76
47149.256
47179.433
47153.112
47149.785
47162.893
47178.157
47184.816
47188.886
47193.3
47198.867
47206.326
47216.215
47228.452
47242.679
47258.381
47274.323
47288.896
47302.209
47316.999
47336.371
47361.19
47389.296
47417.276
47443.165
47467.253
47490.899
47514.823
47539.341
47564.435
47589.916
47615.539
47641.04
47666.154
47690.646
47714.315
47736.959
47758.347
47778.233
47796.369
47812.509
47826.407
47837.804
47846.437
47852.046
47854.38
47853.194
47848.262
47839.374
47826.348
47809.031
47787.305
47761.09
47730.349
47695.092
47655.375
47611.303
47563.028
47510.751
47454.718
47395.214
47332.564
47267.121
47199.264
47129.392
47057.913
46985.243
46911.792
46837.963
46764.144
46690.703
46617.986
46546.31
46475.96
46407.191
46340.227
46209.928
47499.391
47068.96
47084.848
47086.151
47088.447
47108.752
47155.017
47283.728
47421.111
47483.014
47329.1
47163.397
47040.911
46983.191
46982.085
47045.444
47155.968
47184.154
47158.102
47155.652
47170.063
47185.683
47192.502
47197
47201.816
47207.696
47215.529
47225.976
47238.948
47254.019
47270.594
47287.344
47302.629
47316.685
47332.43
47353.015
47379.15
47408.425
47437.326
47464.089
47489.094
47513.482
47538.359
47564.111
47590.463
47617.249
47644.266
47671.257
47697.955
47724.121
47749.556
47774.062
47797.409
47819.357
47839.664
47858.087
47874.387
47888.308
47899.597
47908.005
47913.285
47915.2
47913.53
47908.074
47898.656
47885.13
47867.383
47845.341
47818.971
47788.283
47753.336
47714.234
47671.125
47624.205
47573.713
47519.926
47463.154
47403.738
47342.042
47278.443
47213.332
47147.101
47080.14
47012.827
46945.526
46878.582
46812.318
46747.026
46682.972
46620.389
46213.618
47498.6
47067.9
47085.165
47086.386
47088.835
47109.913
47157.884
47289.596
47430.292
47490.348
47332.82
47164.607
47041.455
46984.353
46984.351
47050.524
47163.045
47188.468
47162.938
47161.549
47177.295
47193.058
47199.876
47204.718
47209.954
47216.24
47224.56
47235.65
47249.401
47265.321
47282.738
47300.242
47316.173
47330.926
47347.61
47369.399
47396.81
47427.191
47456.985
47484.55
47510.406
47535.819
47561.651
47588.239
47615.841
47643.957
47672.348
47700.791
47729.032
47756.831
47783.989
47810.306
47835.56
47859.512
47881.926
47902.567
47921.195
47937.561
47951.425
47962.543
47970.674
47975.587
47977.068
47974.924
47968.986
47959.113
47945.198
47927.172
47905.004
47878.706
47848.337
47813.999
47775.839
47734.046
47688.852
47640.523
47589.359
47535.685
47479.85
47422.213
47363.145
47303.018
47242.199
47181.044
47119.895
47059.074
46998.881
46939.588
46881.44
46217.676
47497.706
47066.735
47085.509
47086.658
47089.261
47111.158
47160.959
47295.734
47439.75
47497.26
47335.952
47165.254
47041.621
46985.375
46986.681
47056.004
47170.454
47192.391
47167.606
47167.451
47184.543
47200.228
47206.894
47212.007
47217.698
47224.499
47233.427
47245.245
47259.81
47276.57
47294.791
47312.985
47329.5
47344.911
47362.52
47385.501
47414.16
47445.596
47476.22
47504.547
47531.243
47557.588
47584.479
47612.197
47640.671
47669.99
47699.772
47729.649
47759.391
47788.778
47817.612
47845.692
47872.799
47898.698
47923.16
47945.951
47966.834
47985.572
48001.93
48015.67
48026.555
48034.363
48038.886
48039.936
48037.351
48030.996
48020.769
48006.602
47988.469
47966.384
47940.403
47910.628
47877.202
47840.308
47800.17
47757.045
47711.22
47663.008
47612.738
47560.755
47507.411
47453.056
47398.036
47342.687
47287.329
47232.262
47177.766
47124.093
46222.087
47496.711
47065.468
47085.881
47086.976
47089.728
47112.491
47164.25
47302.147
47449.473
47503.72
47338.492
47165.345
47041.421
46986.268
46989.093
47061.893
47178.159
47195.936
47172.088
47173.328
47191.752
47207.145
47213.543
47218.876
47225.061
47232.488
47242.139
47254.76
47270.16
47287.742
47306.719
47325.542
47342.581
47358.616
47377.141
47401.31
47431.186
47463.622
47495.023
47524.076
47551.584
47578.858
47606.761
47635.564
47665.222
47695.54
47726.475
47757.803
47789.034
47819.965
47850.426
47880.221
47909.129
47936.919
47963.367
47988.243
48011.309
48032.347
48051.12
48067.392
48080.936
48091.538
48098.994
48103.123
48103.767
48100.796
48094.112
48083.652
48069.39
48051.341
48029.562
48004.151
47975.247
47943.028
47907.708
47869.536
47828.786
47785.757
47740.763
47694.132
47646.195
47597.286
47547.73
47497.842
47447.921
47398.248
47349.082
46226.834
47495.616
47064.097
47086.287
47087.355
47090.242
47113.919
47167.76
47308.839
47459.447
47509.702
47340.437
47164.89
47040.869
46987.044
46991.613
47068.209
47186.106
47199.125
47176.372
47179.15
47198.861
47213.776
47219.845
47225.376
47232.092
47240.234
47250.705
47264.185
47280.428
47298.804
47318.488
47337.876
47355.384
47372.017
47391.458
47416.812
47447.875
47481.257
47513.384
47543.132
47571.43
47599.608
47628.501
47658.371
47689.166
47720.714
47752.754
47785.195
47817.929
47850.395
47882.437
47913.894
47944.551
47974.176
48002.552
48029.446
48054.63
48077.892
48098.997
48117.716
48133.828
48147.124
48157.407
48164.501
48168.251
48168.532
48165.251
48158.345
48147.792
48133.608
48115.846
48094.602
48070.011
48042.245
48011.511
47978.044
47942.109
47903.991
47863.988
47822.411
47779.574
47735.792
47691.37
47646.605
47601.776
47557.146
46231.901
47494.424
47062.621
47086.737
47087.805
47090.803
47115.448
47171.494
47315.813
47469.657
47515.176
47341.784
47163.906
47039.985
46987.722
46994.274
47074.967
47194.219
47201.991
47180.459
47184.896
47205.815
47220.11
47225.852
47231.59
47238.857
47247.771
47259.128
47273.503
47290.583
47309.72
47330.059
47349.952
47367.88
47385.094
47405.457
47431.995
47464.214
47498.489
47531.295
47561.709
47590.778
47619.841
47649.705
47680.617
47712.523
47745.249
47778.568
47812.197
47846.022
47880.032
47913.649
47946.721
47979.071
48010.476
48040.72
48069.568
48096.803
48122.213
48145.571
48166.652
48185.242
48201.134
48214.14
48224.085
48230.82
48234.225
48234.206
48230.707
48223.704
48213.212
48199.286
48182.017
48161.535
48138.005
48111.625