/*--------------------------------*- C++ -*----------------------------------*\
| =========                 |                                                 |
| \\      /  F ield         | OpenFOAM: The Open Source CFD Toolbox           |
|  \\    /   O peration     | Version:  2506                                  |
|   \\  /    A nd           | Website:  www.openfoam.com                      |
|    \\/     M anipulation  |                                                 |
\*---------------------------------------------------------------------------*/
FoamFile
{
    version     2.0;
    format      ascii;
    arch        "LSB;label=32;scalar=64";
    class       volScalarField;
    location    "0.00027";
    object      Ma;
}
// * * * * * * * * * * * * * * * * * * * * * * * * * * * * * * * * * * * * * //

dimensions      [0 0 0 0 0 0 0];

internalField   nonuniform List<scalar> 
3430
(
0.46744007
0.46972203
0.47362706
0.47826107
0.48248146
0.48857414
0.49415783
0.49741019
0.46790287
0.46733827
0.46753457
0.47017958
0.47399651
0.47820368
0.48211194
0.48811194
0.49372495
0.49709439
0.49808241
0.49071085
0.48450694
0.47982564
0.47885188
0.48256662
0.48768009
0.4904048
0.48779375
0.482755
0.48140263
0.48343995
0.48433848
0.48384313
0.47507656
0.47358316
0.4711735
0.46928877
0.46805852
0.46725879
0.46726165
0.46923882
0.47309181
0.4781216
0.48228501
0.48823496
0.49352057
0.49651388
0.49728215
0.49046161
0.48459856
0.48005938
0.47896287
0.48218469
0.48737794
0.49017836
0.48786828
0.4827067
0.48134304
0.48332706
0.48431961
0.48380785
0.48975345
0.49691726
0.50754396
0.47761929
0.47595227
0.47440175
0.47186732
0.46961299
0.46812698
0.46720164
0.46699919
0.46837423
0.47227914
0.47809221
0.48263757
0.48834614
0.49328807
0.49587457
0.49637359
0.49005243
0.48462508
0.48026292
0.47908294
0.48188039
0.48704461
0.48988664
0.48784179
0.48259193
0.48123402
0.48318001
0.48423731
0.48370829
0.48961713
0.49677008
0.50738158
0.48011253
0.47747371
0.47592063
0.4745172
0.472212
0.46982405
0.46806358
0.46712781
0.46687717
0.46835148
0.47216028
0.47801602
0.48256731
0.48826848
0.49309458
0.49557635
0.49602373
0.48984972
0.48454859
0.48023337
0.47903847
0.48175795
0.48689044
0.48969643
0.48768779
0.48246654
0.4811105
0.48305684
0.48413718
0.48360256
0.48948796
0.49663516
0.48375292
0.48060386
0.4784488
0.47702174
0.47522667
0.47254114
0.46989276
0.4680199
0.46687678
0.46647819
0.46758923
0.47172938
0.47811617
0.48281721
0.4884638
0.49301054
0.49517523
0.49538806
0.48944534
0.48454002
0.48038166
0.47914271
0.48148218
0.48658894
0.48945991
0.48772163
0.48233686
0.48095484
0.48287019
0.48403418
0.48347136
0.48931074
0.49646597
0.48576576
0.48287812
0.48074062
0.47922248
0.47771315
0.47560541
0.47257637
0.46970614
0.46779
0.46656486
0.46612844
0.46730154
0.47194545
0.47780881
0.48242514
0.48834391
0.49278022
0.49481197
0.4949492
0.48927859
0.48454052
0.480424
0.47908458
0.4810518
0.48628756
0.48924406
0.48773144
0.48216682
0.48077204
0.48267677
0.48392256
0.48334158
0.48913305
0.49631487
0.48826434
0.48550544
0.48269408
0.48066395
0.47917886
0.47763857
0.47534903
0.47216384
0.46903458
0.46716328
0.46613176
0.46583822
0.46723339
0.47182849
0.47761602
0.48224966
0.48833003
0.4926208
0.49461532
0.49470736
0.48881569
0.48419093
0.48011412
0.47880173
0.48095842
0.48613838
0.48906137
0.48736831
0.48193131
0.4805704
0.48251307
0.48376123
0.48317817
0.48897458
0.49612951
0.49037304
0.48833814
0.48476585
0.48103872
0.47850998
0.47664052
0.47466226
0.47274064
0.47014275
0.4680901
0.46697145
0.46659602
0.46686329
0.46953928
0.4735446
0.47719134
0.48106441
0.48701408
0.49193062
0.49475131
0.49545492
0.48884845
0.48353848
0.47939617
0.47839351
0.48136608
0.48624973
0.48895479
0.48684363
0.48176728
0.48045959
0.48241671
0.48355998
0.4830178
0.48887743
0.49597383
0.4909532
0.49018722
0.48829761
0.48459191
0.48045084
0.47753702
0.47555835
0.47358694
0.47182333
0.46960136
0.46805434
0.4670016
0.46657004
0.46689796
0.46984967
0.47369149
0.47727525
0.48076053
0.48663292
0.4917395
0.49479734
0.4956699
0.48879685
0.4832358
0.47900288
0.47811603
0.48147897
0.48628522
0.48895039
0.48677598
0.48168071
0.4803435
0.48237249
0.48348308
0.48290414
0.48877692
0.49585081
0.49159118
0.49168139
0.49071756
0.48833121
0.48423612
0.48004713
0.47720053
0.47500245
0.47271945
0.47105239
0.46916132
0.4678717
0.46687457
0.46654724
0.46695291
0.47031554
0.47387591
0.47720071
0.48045065
0.48637448
0.49152925
0.49471881
0.49569997
0.48872691
0.48306009
0.47890414
0.47809032
0.48152143
0.48622473
0.48886343
0.48670479
0.48168411
0.48036206
0.48235968
0.48347156
0.48289639
0.48868134
0.4957936
0.4894622
0.49180264
0.4914289
0.49011559
0.48740272
0.48347462
0.47970405
0.47701772
0.47473692
0.47215829
0.47007232
0.46857049
0.4677683
0.46673149
0.46649781
0.4669747
0.47045201
0.47401985
0.47717819
0.4801544
0.48597319
0.49121649
0.49455668
0.49568856
0.4887402
0.48285499
0.47870977
0.47795355
0.48155434
0.48619264
0.48877727
0.48661766
0.48165516
0.48033658
0.48234755
0.48346231
0.48287275
0.48862663
0.49572339
0.47181693
0.48723931
0.49012398
0.49028917
0.48959737
0.4876474
0.48407669
0.48033491
0.47756079
0.4755577
0.47368112
0.47161063
0.46904514
0.46737152
0.46641557
0.4661391
0.46646477
0.46915109
0.47321335
0.47670954
0.48044349
0.48620094
0.49122309
0.49420205
0.4950701
0.48857877
0.48297452
0.47879853
0.47785935
0.48105168
0.48594571
0.48867194
0.48678694
0.48156847
0.48021832
0.48225224
0.48345543
0.48282539
0.4885149
0.49088939
0.49211725
0.49247353
0.49236677
0.49134523
0.48886791
0.48552221
0.48264215
0.48061589
0.47870071
0.47636569
0.47377346
0.47127654
0.46866134
0.46689997
0.46588964
0.46568383
0.46608742
0.46928028
0.47304686
0.4763069
0.48022629
0.48631817
0.49110895
0.49394326
0.49472109
0.48836779
0.4829354
0.47881868
0.47781791
0.48080419
0.48578412
0.48857781
0.48678279
0.48145746
0.48009965
0.48213584
0.48336588
0.48272159
0.48838363
0.48985378
0.49154525
0.49251419
0.49328438
0.49360548
0.49252993
0.49021048
0.48715958
0.48416094
0.48231493
0.48093615
0.47890117
0.4759432
0.47303885
0.47074168
0.46868253
0.4672731
0.46607712
0.46572762
0.46607877
0.4695027
0.47307065
0.4763771
0.4799
0.48623323
0.49074764
0.49348868
0.49423465
0.48799054
0.48280124
0.47886122
0.47789139
0.48079593
0.48567196
0.48840681
0.48650451
0.48138505
0.48007747
0.48205598
0.48324288
0.48264184
0.48828116
0.47919171
0.48968875
0.49183952
0.49227242
0.49239941
0.49240736
0.49195519
0.49073117
0.48848612
0.48600445
0.48399335
0.48240661
0.48111172
0.47930521
0.47660458
0.47363444
0.47080872
0.46805801
0.46642019
0.46575143
0.46575513
0.466835
0.47007975
0.47302162
0.475923
0.48032171
0.4858814
0.49043551
0.49310844
0.49381557
0.48769221
0.48262488
0.47880693
0.47791004
0.48087321
0.48551396
0.48815667
0.48633916
0.48127895
0.47996868
0.48193895
0.48308596
0.48248907
0.48811589
0.25686491
0.3371092
0.36299761
0.43515005
0.48015409
0.48997208
0.49205846
0.49256026
0.49281817
0.49303042
0.49289015
0.49188203
0.48948782
0.48659027
0.48428614
0.48239916
0.48047177
0.47766998
0.47432008
0.47171382
0.46982533
0.46766848
0.4664988
0.466061
0.46615668
0.46726282
0.47107651
0.473544
0.47594912
0.47972182
0.4852079
0.48993357
0.49289796
0.4938769
0.48771406
0.4824164
0.47874976
0.4780106
0.48101265
0.48528244
0.48779269
0.48625427
0.48122198
0.47989509
0.48173509
0.48293158
0.48238376
0.4879893
0.25814095
0.33229412
0.35079423
0.40650304
0.47105869
0.48783971
0.49136552
0.49226741
0.49274922
0.49311096
0.49301001
0.49177432
0.48937585
0.48626587
0.48355357
0.48176301
0.48009296
0.47770127
0.4745338
0.47165302
0.46953663
0.467478
0.46625777
0.46564984
0.4656601
0.46665776
0.4704756
0.47325212
0.475874
0.47952342
0.48513968
0.48981873
0.49275123
0.49373997
0.48764782
0.48237408
0.47860395
0.47772214
0.48063905
0.48520008
0.48778229
0.48622647
0.48111895
0.47975336
0.48163464
0.48284359
0.48228547
0.48791346
0.25967754
0.36904887
0.42176653
0.47664773
0.48963021
0.49203101
0.49249909
0.49273945
0.49318484
0.49362876
0.49323648
0.491526
0.4889225
0.48608411
0.48370901
0.48197167
0.48005642
0.47726232
0.47388664
0.47098291
0.46893211
0.46703161
0.46597843
0.46549363
0.46554341
0.46654632
0.47041129
0.47291387
0.47560617
0.47918318
0.48490722
0.48963553
0.49265336
0.49371253
0.48762868
0.48223676
0.47844002
0.47752445
0.48033733
0.48502513
0.48769124
0.48624485
0.48101564
0.47963563
0.48153079
0.48278309
0.48220503
0.48780064
0.26133452
0.38102657
0.43813864
0.48177115
0.49101339
0.4927031
0.492963
0.49309772
0.49339504
0.49361059
0.49286377
0.49094032
0.48840409
0.48563578
0.48343231
0.48174546
0.47965247
0.47686395
0.47339207
0.47056324
0.46858665
0.46676365
0.46585733
0.4655274
0.46569006
0.46706889
0.47088824
0.47305983
0.47552648
0.4791204
0.48439757
0.48918607
0.49229178
0.49348736
0.48754639
0.48210371
0.47843269
0.47759129
0.48047733
0.48494919
0.48749069
0.48605775
0.48104294
0.4796969
0.48149623
0.48276446
0.48222454
0.48776046
0.25836472
0.36650896
0.41881966
0.47579287
0.48945979
0.49205265
0.49248951
0.49267926
0.49306511
0.49345935
0.49290372
0.4909375
0.48834957
0.48551576
0.48319808
0.48153742
0.47949662
0.47672053
0.47321146
0.47034613
0.46834955
0.46655125
0.46567674
0.46537391
0.46557559
0.46698442
0.47084152
0.47306889
0.47548985
0.47906096
0.48425013
0.48898217
0.49205018
0.4932346
0.48729723
0.48189585
0.47825423
0.47743928
0.48047614
0.48487542
0.48736703
0.48589197
0.48094008
0.47962032
0.48143575
0.48270333
0.48216484
0.48765292
0.25844987
0.37823002
0.4363861
0.48064198
0.49009645
0.49178422
0.49200409
0.49205832
0.49228484
0.49243045
0.4918021
0.490187
0.48782897
0.48521202
0.48315465
0.48147867
0.47950613
0.47688596
0.47364391
0.47083711
0.46871068
0.46676375
0.46565333
0.46527954
0.46544369
0.46679141
0.4705388
0.47285913
0.47535331
0.47913507
0.48430298
0.48880027
0.49163894
0.49267451
0.48698979
0.48188936
0.47832812
0.47746216
0.48029241
0.48468319
0.48719116
0.48581533
0.48082657
0.47951733
0.48130749
0.482581
0.48203943
0.48750167
0.2721333
0.41749327
0.46445664
0.48725827
0.49105327
0.49167583
0.49164273
0.49161568
0.49178321
0.49168506
0.49066087
0.48879654
0.48674815
0.48454038
0.48271305
0.48142247
0.47986691
0.47762767
0.47449497
0.47141454
0.46888841
0.46667362
0.46543334
0.46503776
0.46522216
0.46679846
0.47013178
0.47240898
0.47511527
0.4792492
0.48425253
0.48868079
0.49138579
0.49230604
0.48679494
0.48185309
0.47832638
0.47739506
0.48010085
0.48456749
0.48708413
0.48561671
0.48070337
0.47940725
0.48118295
0.48243439
0.48190837
0.48735282
0.39485639
0.48494868
0.49069697
0.49337925
0.49283417
0.49238033
0.49187049
0.49177634
0.49194218
0.49162651
0.49042294
0.48870715
0.48690097
0.48489147
0.48312617
0.48140644
0.47912317
0.47626193
0.47293268
0.47026999
0.4681176
0.46618762
0.46533545
0.46508446
0.46527609
0.46676508
0.47031007
0.47230123
0.47504291
0.47882313
0.48397514
0.48842169
0.49125461
0.49228482
0.4866481
0.4815628
0.4780875
0.47723975
0.48008335
0.48438114
0.4868281
0.48545552
0.48056624
0.47923762
0.4810132
0.48225829
0.48174158
0.48719382
0.41731188
0.49022165
0.49383494
0.49526268
0.49418411
0.49336776
0.49264075
0.49252088
0.49260772
0.49215922
0.4914104
0.49007661
0.4878315
0.48558387
0.48318169
0.48061626
0.47828346
0.47515091
0.47157048
0.46855693
0.46632822
0.46499081
0.46463489
0.46480359
0.46529356
0.46745765
0.47080679
0.47268309
0.47510594
0.47856049
0.48317002
0.48805508
0.49127257
0.49262834
0.48667752
0.48110861
0.47769628
0.47707809
0.4803814
0.48423265
0.48648782
0.48532784
0.48049077
0.47911232
0.48080842
0.4820563
0.48156334
0.4870315
0.34154905
0.47163955
0.48677323
0.49390337
0.49351343
0.49273533
0.49197833
0.49189086
0.49252032
0.49285466
0.49194036
0.48987462
0.48703472
0.48406843
0.48141753
0.47942605
0.47781784
0.47531713
0.47187501
0.46862177
0.46616294
0.46507154
0.464882
0.46515115
0.46571183
0.46823346
0.47120779
0.47314419
0.47520563
0.47840132
0.4825069
0.48738584
0.49062519
0.49210571
0.48650004
0.48099904
0.47777609
0.47723088
0.48047399
0.48407645
0.48617487
0.48508972
0.48042464
0.47908553
0.48064803
0.48192001
0.48147853
0.48693607
0.26219074
0.33664614
0.35511049
0.41188689
0.47269551
0.48716486
0.48983964
0.49075312
0.4920185
0.49347201
0.49365409
0.49131926
0.48764928
0.48351682
0.48008898
0.47822847
0.47721487
0.47582321
0.47276413
0.46879692
0.46576452
0.46441326
0.46406859
0.46427187
0.46505737
0.46811591
0.47105011
0.47337081
0.47522005
0.47814721
0.48235553
0.48734678
0.49071346
0.49229288
0.48649683
0.48085864
0.47744572
0.47675584
0.48011718
0.48406672
0.48623997
0.48495112
0.48025277
0.47889511
0.48058183
0.4818382
0.4813444
0.26064086
0.32557741
0.3317692
0.33582037
0.36242923
0.43563103
0.47645394
0.48618729
0.48957617
0.49161724
0.49261244
0.49179415
0.48856147
0.48409647
0.48021949
0.47794065
0.47674929
0.47534615
0.4726861
0.46903322
0.46603774
0.4647348
0.46440947
0.46461461
0.46521634
0.46789865
0.47106823
0.47346316
0.47509804
0.47800669
0.48213636
0.48705507
0.4903489
0.49189857
0.48630259
0.48078725
0.47739326
0.47665425
0.47988131
0.48396624
0.48619043
0.48491002
0.48018524
0.47882713
0.48051858
0.48168984
0.48121919
0.26286699
0.32575605
0.32886865
0.3276863
0.32633463
0.32518279
0.32526313
0.3296507
0.35116245
0.42360165
0.47599282
0.48600357
0.48602723
0.48396283
0.48109209
0.47846812
0.47645425
0.47425087
0.4717286
0.46922478
0.46614477
0.46482653
0.46453536
0.46482032
0.46553229
0.46814362
0.47112577
0.473852
0.47531636
0.47754675
0.48150012
0.48655643
0.49001488
0.4917406
0.48629688
0.48064011
0.47737066
0.47677684
0.48001851
0.4838104
0.48592284
0.48493589
0.48021576
0.47884599
0.48042524
0.48161303
0.48116293
0.2593394
0.32288819
0.32646257
0.32584601
0.32487017
0.32395246
0.32325006
0.32307154
0.32415914
0.32945119
0.35443758
0.43370225
0.47488093
0.4810085
0.48070327
0.47978444
0.47782551
0.47449536
0.47103802
0.46896732
0.46698167
0.46580056
0.4654627
0.46532135
0.4654259
0.46621624
0.46887815
0.4725267
0.47512486
0.47763386
0.48217499
0.48701006
0.49014256
0.49152467
0.48616358
0.48070404
0.47723556
0.47638479
0.47928287
0.48366033
0.48605472
0.48505217
0.48007835
0.47869738
0.48039609
0.48163706
0.48111373
0.25809073
0.32179014
0.32551519
0.32512822
0.32436019
0.32361063
0.32305583
0.32249106
0.32195101
0.32210972
0.32354764
0.33361821
0.38457106
0.45781847
0.47544831
0.47755333
0.47742018
0.47556785
0.47138714
0.46846583
0.46685176
0.46581534
0.46551492
0.46541666
0.4655081
0.46618544
0.46833029
0.47171155
0.47500123
0.47769905
0.48214301
0.48697278
0.49001512
0.49131394
0.48597562
0.48056057
0.47702995
0.47612431
0.47901257
0.48351779
0.48596993
0.48488334
0.47991647
0.47854426
0.48026211
0.48149227
0.48095464
0.25971006
0.32330453
0.32688806
0.32622426
0.32527511
0.32431804
0.32364747
0.32335989
0.32321298
0.32294649
0.32183718
0.31942731
0.31771843
0.31912158
0.34366299
0.43006508
0.46725392
0.47212959
0.47171569
0.46853101
0.46576368
0.46486891
0.46481659
0.46510788
0.46564454
0.46729105
0.46872027
0.47162612
0.4746428
0.47751924
0.48169229
0.48665327
0.48989372
0.49136772
0.48585037
0.48017011
0.47664923
0.47583896
0.47904394
0.48341096
0.48575972
0.48460871
0.47974956
0.47837519
0.48009096
0.48125349
0.48071435
0.26575217
0.32777396
0.33091522
0.32988106
0.32861388
0.32724552
0.32628806
0.32583325
0.32564744
0.32536316
0.32424355
0.32183416
0.31779807
0.3128378
0.31025932
0.31231579
0.34548476
0.43754843
0.46498866
0.46684195
0.46490791
0.46332481
0.46336789
0.46452684
0.46647962
0.46879967
0.47050297
0.47256485
0.47444881
0.47674032
0.48073434
0.48574758
0.48964963
0.4916128
0.48605235
0.47990216
0.47635219
0.4757799
0.47946188
0.4833962
0.48539577
0.48437489
0.47974867
0.47834754
0.4800044
0.48112964
0.48063881
0.26824052
0.32938606
0.33215792
0.33067048
0.32896876
0.32720904
0.32601392
0.3254675
0.32530754
0.32500815
0.32374134
0.32097037
0.31665461
0.31175444
0.30791739
0.30682325
0.31152803
0.35581304
0.44426679
0.46425387
0.46496589
0.4629567
0.4626316
0.46343178
0.46638337
0.46896235
0.47065625
0.47219907
0.47388413
0.47658973
0.4808231
0.48562788
0.4894715
0.49136193
0.48584834
0.47974848
0.47622658
0.47559726
0.47922577
0.48324569
0.48531192
0.48435357
0.47964448
0.47821619
0.47989174
0.48097467
0.26534522
0.32741092
0.33066159
0.3298372
0.32868564
0.32749457
0.32663516
0.32600813
0.32568894
0.3250745
0.32385855
0.3215005
0.31796303
0.31359749
0.30967001
0.30640363
0.30550497
0.31372512
0.38482875
0.45389342
0.46277111
0.46291972
0.4629836
0.46379032
0.46579894
0.46916661
0.47116689
0.47263304
0.47404594
0.47615201
0.48019657
0.4852544
0.48916989
0.4912454
0.48582044
0.47959327
0.47604442
0.47549997
0.47923364
0.48313548
0.48509453
0.48408884
0.47954273
0.47815455
0.4797526
0.48083734
0.26694964
0.32868084
0.33170964
0.33061062
0.32926213
0.32782167
0.32683533
0.32627598
0.32600346
0.3255347
0.32440603
0.3220569
0.31826843
0.31384185
0.31000186
0.30722568
0.30497951
0.3037579
0.31030773
0.38141832
0.45295291
0.4620714
0.46294972
0.46368082
0.46544643
0.46909989
0.47158831
0.47297928
0.47390275
0.47574033
0.47995222
0.48508137
0.48888915
0.49090908
0.48554294
0.4794737
0.47599378
0.47545123
0.47905047
0.48285485
0.48478702
0.48404792
0.47939946
0.47797579
0.47953304
0.26899891
0.33056349
0.33339489
0.33176273
0.3300116
0.32816646
0.32688461
0.32628196
0.3263366
0.32631172
0.32504282
0.32202104
0.31798645
0.31335264
0.3092276
0.3067213
0.30536469
0.30384767
0.30508458
0.34269907
0.43918008
0.46081553
0.46274308
0.46350917
0.46524832
0.46894046
0.47150848
0.47301682
0.47384682
0.47544752
0.4798101
0.48499992
0.48879468
0.49079783
0.48540702
0.47939152
0.47592533
0.47532048
0.478758
0.48269062
0.48475732
0.48406763
0.47929108
0.47786056
0.47941387
0.26923185
0.33059681
0.33338237
0.3317572
0.32997425
0.32808252
0.32677866
0.32613546
0.32619883
0.32610971
0.32480938
0.32170714
0.31765998
0.31309893
0.30903534
0.30655198
0.3053071
0.30366669
0.30422311
0.33588253
0.43472133
0.46015774
0.46248207
0.46330964
0.4650366
0.46869127
0.47125233
0.47280638
0.47365176
0.47524439
0.47961255
0.48480936
0.48859414
0.49059422
0.48525706
0.47925305
0.47578205
0.47514552
0.47853582
0.48251132
0.48459906
0.48401401
0.4791872
0.47774782
0.47930247
0.26863949
0.32979667
0.33255936
0.33098861
0.32923458
0.32736069
0.32609194
0.32545995
0.32546407
0.32534759
0.32406921
0.32090303
0.31671315
0.31211266
0.30808667
0.30577098
0.30464402
0.30318718
0.30403219
0.33753827
0.43573467
0.46009611
0.46235072
0.46321284
0.46507577
0.46881851
0.4712426
0.4726905
0.47353533
0.47507022
0.47938894
0.4845468
0.48832096
0.49032768
0.48503368
0.47906676
0.47562442
0.47500978
0.47845755
0.48238984
0.48443651
0.48380343
0.47907982
0.47766964
0.47921174
0.26610924
0.32821338
0.33121891
0.32965552
0.32800178
0.32624681
0.32504202
0.32437544
0.32443378
0.32439132
0.32322541
0.32032377
0.316544
0.31203752
0.30804139
0.30548435
0.30400851
0.30243391
0.30370708
0.34178507
0.43886429
0.46048199
0.46239234
0.46310989
0.46471782
0.46831182
0.47088251
0.4724333
0.47334031
0.47501418
0.47931709
0.48436865
0.48804326
0.48997203
0.48472657
0.47883078
0.47544773
0.47484617
0.47829051
0.4821958
0.48425085
0.48365775
0.4789367
0.47754055
0.47907945
0.26761095
0.32881613
0.33160311
0.33015807
0.32846717
0.32659107
0.32534775
0.32464866
0.32448808
0.32402457
0.3225141
0.31937854
0.31516808
0.31061646
0.30699262
0.30499967
0.30411747
0.30253409
0.30227837
0.32541845
0.42583872
0.45887141
0.46209186
0.46310024
0.46493888
0.46849572
0.47076238
0.47233724
0.47331192
0.47476446
0.47901596
0.48400252
0.4876501
0.48957442
0.48444389
0.47867724
0.47537294
0.47479591
0.47816122
0.48193139
0.48393248
0.48346125
0.47878512
0.47739266
0.4788866
0.26602312
0.32810013
0.3311129
0.32958161
0.32796631
0.32624241
0.3249995
0.32421761
0.3241426
0.32384222
0.32250874
0.31952233
0.31571929
0.31117726
0.30733934
0.30502476
0.30380062
0.30231059
0.30308521
0.33561891
0.43456334
0.4597476
0.46207
0.46291689
0.46469924
0.46830371
0.47068093
0.47222206
0.47317698
0.47470538
0.47889067
0.48384393
0.487475
0.48938378
0.4842896
0.47862784
0.4753738
0.47483193
0.47810376
0.48172165
0.48368748
0.48350097
0.47876445
0.4773359
0.2656141
0.32790678
0.33089272
0.32939653
0.32779771
0.32608168
0.32486439
0.32411562
0.32403974
0.32361749
0.32214341
0.31905771
0.31524456
0.31089142
0.30717749
0.30505185
0.30414322
0.30263468
0.30209282
0.32292571
0.42309298
0.45863665
0.46210506
0.46311075
0.46478659
0.46815234
0.47049028
0.47214874
0.4731968
0.47466144
0.47878245
0.48363584
0.48714982
0.48899756
0.48410114
0.47861899
0.47544224
0.47489619
0.47803967
0.48156265
0.48348227
0.48342517
0.47872407
0.47728448
0.26331582
0.32645314
0.32972029
0.3285305
0.32720319
0.32574961
0.32470002
0.32396428
0.32375478
0.3232258
0.32192107
0.31938496
0.31606145
0.31184873
0.30823746
0.30578823
0.30411985
0.30190391
0.30138901
0.32465887
0.42683835
0.45926067
0.46219662
0.46296653
0.4641662
0.46726072
0.47012067
0.47194121
0.47306152
0.4747265
0.47879657
0.48355519
0.48691576
0.48865149
0.48371277
0.47839611
0.47527411
0.47470111
0.47784949
0.48133164
0.48323494
0.4830855
0.47850247
0.47710363
0.26733027
0.32948365
0.3324425
0.33084608
0.32918412
0.32741836
0.32617592
0.32537869
0.32528222
0.32493345
0.32360336
0.3206548
0.31684473
0.31220073
0.30830147
0.30592358
0.30469488
0.30287257
0.30243156
0.32357457
0.42347566
0.45825984
0.46171446
0.46277723
0.46454162
0.46812734
0.4705976
0.47206214
0.4728558
0.47406609
0.47800474
0.48308183
0.48682282
0.48885866
0.48391626
0.47830086
0.47507564
0.47458103
0.47779168
0.48116663
0.48301953
0.48302771
0.47840466
0.26752699
0.32946228
0.33240135
0.33082069
0.32905858
0.32727863
0.32588764
0.32506591
0.32492449
0.3246553
0.32328017
0.32027639
0.3164199
0.31187542
0.30785177
0.30561698
0.30532123
0.31011176
0.35580268
0.44277928
0.46067776
0.46137812
0.46113754
0.46188852
0.46504743
0.46821263
0.47006395
0.47129721
0.47224267
0.47404265
0.47808087
0.48282265
0.48673625
0.48882805
0.48405945
0.47831326
0.47498192
0.47435795
0.47738639
0.48105134
0.48301536
0.48300086
0.4782929
0.26659739
0.32870835
0.33166224
0.33018482
0.32860226
0.32686936
0.32563048
0.32480267
0.32461167
0.32402109
0.32249775
0.31947562
0.31561402
0.3109409
0.30711452
0.30571447
0.30745246
0.32979856
0.42081044
0.45945477
0.46261808
0.46122209
0.46091711
0.46192204
0.46515312
0.46787002
0.46957268
0.4708289
0.47209121
0.47416239
0.47806411
0.4826229
0.48652598
0.48858301
0.4839072
0.47820869
0.47488727
0.47421565
0.47718669
0.48091216
0.48291179
0.48288727
0.47823679
0.26119211
0.32510116
0.32859978
0.32777928
0.3266494
0.32544268
0.32456891
0.32397278
0.32372324
0.32318437
0.32204499
0.31978874
0.31639633
0.31242661
0.30864401
0.30656902
0.30767248
0.33294278
0.42716548
0.46024055
0.46277033
0.46195681
0.46189663
0.46252784
0.46436736
0.46729641
0.46904402
0.47042044
0.47194753
0.47416684
0.47796638
0.48255242
0.48614806
0.48805785
0.48368986
0.47816063
0.4749158
0.47416684
0.47680857
0.48063298
0.48272984
0.4827496
0.47814825
0.26067657
0.32483354
0.32845632
0.32778025
0.32672237
0.32559981
0.32475868
0.32407812
0.32370333
0.32297952
0.32174201
0.31945415
0.31621054
0.31256546
0.30930999
0.30657591
0.30418605
0.30310415
0.31127345
0.39076148
0.45427626
0.4614939
0.46208444
0.46255861
0.4637383
0.46687762
0.46944464
0.4708587
0.47192075
0.47376172
0.47764367
0.48231305
0.48576203
0.48763493
0.48335795
0.47793113
0.47477055
0.47407111
0.4767731
0.48045619
0.48247187
0.48247222
0.47799161
0.26293442
0.32645591
0.32978453
0.32865353
0.32731517
0.32589555
0.32476988
0.32394473
0.32353352
0.32277323
0.32119061
0.31848187
0.31501922
0.31076332
0.30734558
0.30540239
0.30434879
0.30258736
0.30093936
0.30996968
0.3998634
0.45549708
0.46151567
0.4627863
0.46428907
0.46738041
0.46969568
0.47128109
0.47224242
0.47328241
0.47694638
0.48181453
0.48539373
0.48739534
0.48321001
0.47779582
0.4747009
0.47413878
0.4768877
0.48022922
0.4820859
0.48226469
0.26422376
0.32756073
0.33067478
0.3292764
0.32771467
0.32600996
0.3247575
0.32397689
0.32381558
0.3233111
0.32171713
0.31859008
0.31467683
0.31043859
0.30700534
0.30535456
0.30480034
0.30386073
0.30098835
0.30335875
0.36582417
0.44950163
0.46100091
0.46287275
0.46446244
0.46734764
0.46953594
0.4712263
0.47229938
0.47320307
0.47681121
0.48167373
0.48516153
0.48710976
0.48290031
0.47760828
0.47454365
0.47395091
0.4767811
0.48014513
0.48194088
0.48197112
0.26189886
0.32619086
0.32959996
0.3284155
0.3270739
0.3256172
0.32457774
0.32381407
0.32353619
0.32282305
0.32132587
0.31867565
0.31534903
0.31123676
0.30789756
0.30605168
0.30528505
0.30383289
0.30119428
0.30360904
0.3661267
0.44971272
0.46110397
0.46271812
0.46402141
0.46664276
0.46901619
0.47086724
0.47213139
0.47322962
0.47688342
0.48164871
0.48499631
0.48683329
0.48271716
0.4775124
0.47447527
0.4738223
0.47644147
0.4799237
0.48181631
0.48186714
0.2661871
0.32923378
0.33237458
0.33109524
0.32966323
0.32802045
0.32681401
0.32605616
0.32574073
0.32500483
0.32316922
0.32004132
0.31610669
0.31189891
0.3085535
0.3068935
0.30631429
0.30545709
0.30165172
0.30030812
0.33333415
0.43761479
0.4597981
0.46253312
0.46422659
0.46686792
0.46910698
0.47090223
0.47209337
0.47286829
0.47634317
0.48138361
0.48501259
0.48705236
0.48286614
0.4774362
0.47428268
0.47363921
0.47628778
0.47977739
0.48168953
0.26730709
0.32969997
0.33266084
0.331232
0.32961572
0.32778896
0.32652915
0.32581523
0.32561165
0.32494843
0.32311042
0.3198775
0.31578793
0.31143284
0.30800853
0.30626862
0.30562566
0.30440438
0.30241259
0.31001428
0.39467675
0.45376875
0.4604964
0.46201549
0.46379124
0.46707173
0.46925415
0.47082635
0.47173002
0.47262514
0.47629873
0.48121543
0.48495134
0.4870701
0.48286173
0.47733693
0.47408681
0.47339224
0.47619513
0.47976819
0.48167138
0.26291389
0.32701778
0.33043877
0.32930186
0.32793233
0.32651395
0.32545045
0.32469426
0.32441424
0.32381351
0.32243962
0.31992253
0.31666777
0.31251061
0.30895474
0.30660319
0.30490519
0.30322853
0.30381947
0.33658811
0.43478893
0.45876442
0.46095784
0.46174854
0.46321443
0.46659336
0.46919439
0.47063618
0.47148604
0.47269584
0.47630868
0.48104415
0.48466974
0.48671459
0.48261203
0.47722031
0.47404433
0.47333152
0.47600952
0.47959888
0.48155533
0.26040207
0.32497273
0.32863146
0.32802039
0.32692199
0.32580515
0.32483122
0.32410775
0.32353703
0.32271523
0.32144358
0.31938323
0.31628812
0.31277178
0.30959532
0.30700994
0.30492215
0.30216352
0.29845172
0.29788003
0.33924835
0.44192068
0.46030821
0.46228585
0.46340495
0.46552389
0.46851221
0.47066606
0.47170901
0.47275234
0.4760003
0.48079427
0.48424165
0.48618151
0.48225166
0.47701137
0.47391903
0.47318192
0.47576515
0.47938752
0.48136237
0.25981008
0.32461796
0.32832931
0.32766257
0.32658115
0.32545632
0.32458283
0.32392061
0.32355043
0.3228233
0.32146209
0.31907024
0.31593205
0.3123226
0.30906157
0.30660842
0.30487048
0.30270978
0.2990624
0.29470352
0.29462156
0.36082025
0.45140447
0.46203374
0.46395686
0.46561103
0.46797004
0.47035294
0.47187801
0.4727842
0.4756317
0.48045902
0.48399078
0.48594329
0.48214929
0.47688984
0.47381597
0.47311086
0.47565081
0.47921028
0.48112721
0.26762602
0.32989691
0.33281025
0.33150934
0.3297151
0.32785594
0.32637802
0.32549677
0.32491348
0.32394335
0.32212228
0.31901237
0.31473868
0.31039727
0.30740113
0.306049
0.30581093
0.30574592
0.30277577
0.29716822
0.2919075
0.29794689
0.41046689
0.45897084
0.46442746
0.46701879
0.46872465
0.47014784
0.47192627
0.47253473
0.47483602
0.47988145
0.48378055
0.48596417
0.48210387
0.47665711
0.47350198
0.47287666
0.4757466
0.47916033
0.48090153
0.26695257
0.32957441
0.33246386
0.33098027
0.32907114
0.32714813
0.32572143
0.3249266
0.32458867
0.32379846
0.3220079
0.31879614
0.31451509
0.31010204
0.30720193
0.30592334
0.30569465
0.30558961
0.3024839
0.29663499
0.29247092
0.3149554
0.43328419
0.46046675
0.46439298
0.46684193
0.46856044
0.47005249
0.47168573
0.47222406
0.4746746
0.47969504
0.48349339
0.48563241
0.48184286
0.4764987
0.4733711
0.47272019
0.47550128
0.47894413
0.48068982
0.26229348
0.32756192
0.3311511
0.33004635
0.32866507
0.32728211
0.32622485
0.32548567
0.32516876
0.32446925
0.32292022
0.32019324
0.31680829
0.3127829
0.30950655
0.30772653
0.30699879
0.30604733
0.30317632
0.29798537
0.29379908
0.30153615
0.41544812
0.45912783
0.46371339
0.46585028
0.46760138
0.46950435
0.47157699
0.47261468
0.47499673
0.47972603
0.48324801
0.48516327
0.48141259
0.47632054
0.47330193
0.47260934
0.4751234
0.47862503
0.48048531
0.26599308
0.33015383
0.33344415
0.3323704
0.33086364
0.32939471
0.32811056
0.32736404
0.32685285
0.32602697
0.32421512
0.32135978
0.31771434
0.31373422
0.31061711
0.30906238
0.30845125
0.30757548
0.30476964
0.2999015
0.29439698
0.29315205
0.35528517
0.45235787
0.46344294
0.46608915
0.46777476
0.46928905
0.47133748
0.47249045
0.47457249
0.47921188
0.4830126
0.48507548
0.48135658
0.4761704
0.47313328
0.47248674
0.47494882
0.47829696
0.48013947
0.26871425
0.33131527
0.334114
0.33260433
0.33075373
0.3288914
0.32729918
0.32657859
0.32624198
0.32560565
0.32359583
0.32020416
0.31603667
0.31171223
0.30861247
0.3071888
0.30682376
0.30660124
0.30370216
0.29854065
0.29199257
0.29037934
0.34651526
0.45083672
0.46349437
0.46641867
0.46817627
0.46951928
0.47135058
0.47220042
0.47418382
0.47899568
0.483048
0.48530476
0.48147779
0.47603484
0.47283602
0.47218532
0.47502526
0.47839441
0.48011872
0.26262476
0.32670786
0.33011188
0.32904087
0.32763128
0.32624286
0.32515786
0.32441858
0.32406249
0.32328265
0.32167407
0.31896124
0.31555211
0.3115891
0.30837319
0.306619
0.30589497
0.30488952
0.30183104
0.29638039
0.29303578
0.31660454
0.43321941
0.45959815
0.4628929
0.46490078
0.46682258
0.4689849
0.47114944
0.47214312
0.47476785
0.4797099
0.48319437
0.48513663
0.48136602
0.47601728
0.47280329
0.47191322
0.47440785
0.47834955
0.48039359
0.26367653
0.32664135
0.32981332
0.32868663
0.32712876
0.32557356
0.32439515
0.32373599
0.32343719
0.32262462
0.3206765
0.31732426
0.31324042
0.30919113
0.30632159
0.30497708
0.30457968
0.30401392
0.3007488
0.29489061
0.29216182
0.33073838
0.44122294
0.46004091
0.46309038
0.46524567
0.46714631
0.46917317
0.47101559
0.47167453
0.4742893